Title
42785
    1SAPS     N    1   0.924   2.522   7.204 -0.1808  0.5251 -0.2678
    1SAPS   HN1    2   0.884   2.524   7.108 -2.1840  0.8646  0.5266
    1SAPS   HN2    3   0.985   2.606   7.203  0.1484  0.3095 -1.7910
    1SAPS   HN3    4   0.984   2.438   7.211  0.7359  0.9247 -2.3737
    1SAPS   C12    5   0.819   2.522   7.303  0.1686  0.1919  0.0323
    1SAPS  H12A    6   0.779   2.421   7.306  0.3089  0.1388  0.0920
    1SAPS   C13    7   0.855   2.531   7.452 -0.1248 -0.5788 -0.1895
    1SAPS  O13A    8   0.973   2.507   7.495  0.5375  0.2807  0.6584
    1SAPS  O13B    9   0.751   2.527   7.525 -0.0699 -0.4452 -0.6065
    1SAPS   C11   10   0.721   2.639   7.270  0.4009 -0.8204  0.2437
    1SAPS  H11A   11   0.772   2.728   7.312 -0.3156 -1.0490  1.6700
    1SAPS  H11B   12   0.633   2.619   7.335 -1.8651  2.0891 -1.6502
    1SAPS     P   13   0.558   2.752   7.089 -0.3962 -0.0428  0.1423
    1SAPS   O13   14   0.515   2.832   7.203  0.1623 -0.2390  0.1791
    1SAPS   O14   15   0.592   2.812   6.958  0.1344  0.3061 -0.2098
    1SAPS   O12   16   0.682   2.661   7.133 -0.1359 -0.2101 -0.0000
    1SAPS   O11   17   0.449   2.643   7.062 -0.4984 -0.4669 -0.1262
    1SAPS    C1   18   0.483   2.511   7.011  0.4998 -0.2708  0.0708
    1SAPS    HA   19   0.588   2.504   6.977  0.4070 -0.0703 -0.2650
    1SAPS    HB   20   0.476   2.429   7.086 -0.8970 -0.4243 -0.1897
    1SAPS    C2   21   0.395   2.472   6.880 -0.1305 -0.1726 -0.4136
    1SAPS    HS   22   0.445   2.379   6.845 -1.4455 -1.5291  1.1247
    1SAPS   O21   23   0.388   2.584   6.795 -0.0196  0.4670 -0.0118
    1SAPS   C21   24   0.503   2.613   6.738  0.0254 -0.2862 -0.4982
    1SAPS   O22   25   0.612   2.560   6.755 -0.4158 -0.4376  0.1786
    1SAPS   C22   26   0.479   2.738   6.653  0.4066 -0.6499 -0.8335
    1SAPS   H2R   27   0.394   2.719   6.584  0.4302 -2.1051 -0.4929
    1SAPS   H2S   28   0.438   2.818   6.718 -0.8205 -1.0433 -1.0906
    1SAPS    C3   29   0.253   2.432   6.931  0.6317 -0.3511 -0.5473
    1SAPS    HX   30   0.198   2.527   6.948  1.1615  0.2341 -1.8730
    1SAPS    HY   31   0.252   2.387   7.032  0.6632  0.0749 -0.3541
    1SAPS   O31   32   0.189   2.357   6.827 -0.2975  0.2795 -0.4717
    1SAPS   C31   33   0.202   2.225   6.830 -1.0425 -0.5415 -0.1578
    1SAPS   O32   34   0.272   2.165   6.908  0.2194 -0.9738  0.4354
    1SAPS   C32   35   0.111   2.169   6.720 -0.2056  0.3606 -0.5524
    1SAPS   H2X   36   0.036   2.247   6.693  0.5186  0.5050 -2.2760
    1SAPS   H2Y   37   0.052   2.080   6.749  0.3258  0.8851  2.4524
    1SAPS   C23   38   0.603   2.796   6.578  0.3744  0.1818  0.2449
    1SAPS   H3R   39   0.666   2.715   6.534  3.3161  1.0302  2.5910
    1SAPS   H3S   40   0.670   2.842   6.653 -0.0166 -1.4042  1.6360
    1SAPS   C24   41   0.566   2.898   6.459  0.0941 -0.3106  0.4931
    1SAPS   H4R   42   0.660   2.925   6.405 -1.0548  1.7968 -0.5939
    1SAPS   H4S   43   0.525   2.992   6.499  0.0888 -0.4294  0.7705
    1SAPS   C25   44   0.473   2.833   6.358  0.1979 -0.9695 -0.1627
    1SAPS   H5R   45   0.369   2.843   6.394  0.2296  1.2715 -0.5947
    1SAPS   C26   46   0.503   2.793   6.233 -0.1317  0.0552  0.5994
    1SAPS   H6R   47   0.415   2.753   6.180 -0.2284  0.8831  0.1123
    1SAPS   C27   48   0.631   2.803   6.157 -0.5170  0.6609  0.2792
    1SAPS   H7R   49   0.628   2.725   6.078 -0.0311  1.5841 -0.6731
    1SAPS   H7S   50   0.717   2.787   6.226 -0.9277 -2.5724  0.2104
    1SAPS   C28   51   0.663   2.942   6.104 -0.3624  0.0481  0.0962
    1SAPS   H8R   52   0.665   3.026   6.176 -2.8356  1.0633 -0.8975
    1SAPS   C29   53   0.695   2.970   5.976  0.1555  0.3605 -0.4463
    1SAPS   H9R   54   0.733   3.071   5.954 -0.3797  0.6702  0.0054
    1SAPS  C210   55   0.698   2.886   5.856  0.3767 -0.0005  0.1995
    1SAPS  H10R   56   0.661   2.935   5.763  1.7491  1.7101  0.4927
    1SAPS  H10S   57   0.637   2.794   5.872  0.3150 -0.0363 -0.2359
    1SAPS  C211   58   0.840   2.835   5.835  0.5305  0.1291  0.7474
    1SAPS  H11R   59   0.907   2.850   5.921  1.0572 -0.4629  0.4479
    1SAPS  C212   60   0.877   2.778   5.725 -0.3660 -0.4813  0.8411
    1SAPS  H12R   61   0.982   2.749   5.717 -0.1672  0.1038  1.2389
    1SAPS  C213   62   0.796   2.769   5.596  0.4287 -0.2427  0.2952
    1SAPS  H13R   63   0.693   2.736   5.623 -0.0329  1.4443  0.7598
    1SAPS  H13S   64   0.840   2.702   5.520 -0.4433 -2.2584  1.4908
    1SAPS  C214   65   0.772   2.903   5.532 -0.4926  0.0972 -0.7469
    1SAPS  H14R   66   0.782   2.988   5.600 -1.2698  0.1053 -0.6327
    1SAPS  C215   67   0.719   2.926   5.415 -0.6242  0.6338  0.3705
    1SAPS  H15R   68   0.708   3.024   5.366  0.5764  0.5218 -0.1549
    1SAPS  C216   69   0.675   2.819   5.322  0.0764  0.5790  0.4649
    1SAPS  H16R   70   0.584   2.845   5.264  0.7263  0.9584 -0.4214
    1SAPS  H16S   71   0.663   2.719   5.369  1.4591  1.4857  2.9140
    1SAPS  C217   72   0.788   2.787   5.216  0.1655  0.4672 -1.0830
    1SAPS  H17R   73   0.758   2.701   5.152  6.0890 -1.8073 -1.4477
    1SAPS  H17S   74   0.878   2.764   5.276  0.0456  2.9777  0.1671
    1SAPS  C218   75   0.837   2.904   5.129 -0.8344 -0.1094  0.3859
    1SAPS  H18R   76   0.933   2.880   5.077 -0.9456  3.1147 -1.5395
    1SAPS  H18S   77   0.845   2.989   5.199 -4.1264  0.1749  0.5882
    1SAPS  C219   78   0.745   2.948   5.015  0.0251  0.3005 -0.3198
    1SAPS  H19R   79   0.645   2.956   5.061 -0.0208 -2.5658  0.2623
    1SAPS  H19S   80   0.730   2.870   4.938  1.4861  1.4839 -1.8981
    1SAPS  C220   81   0.800   3.082   4.959 -0.6179  0.1484  0.3071
    1SAPS  H20R   82   0.816   3.157   5.039 -2.5881 -0.6191  1.5018
    1SAPS  H20S   83   0.725   3.117   4.884  0.4598  3.5913  0.6598
    1SAPS  H20T   84   0.900   3.062   4.914  0.2719  1.1660  1.7602
    1SAPS   C33   85   0.189   2.128   6.592  0.2021  0.0424  0.4278
    1SAPS   H3X   86   0.139   2.039   6.547 -1.3897 -0.2670  2.6284
    1SAPS   H3Y   87   0.293   2.094   6.612 -0.3461 -1.2664  1.1772
    1SAPS   C34   88   0.205   2.236   6.486  0.2277 -0.7179 -0.8503
    1SAPS   H4X   89   0.289   2.300   6.522  2.1785 -3.6347  0.0940
    1SAPS   H4Y   90   0.112   2.296   6.474  1.3334  0.7905 -2.3640
    1SAPS   C35   91   0.233   2.189   6.347  0.1597 -0.5369  0.1732
    1SAPS   H5X   92   0.156   2.120   6.307  0.0911 -0.6854  0.5597
    1SAPS   H5Y   93   0.330   2.139   6.328  0.2603 -0.4276  0.4008
    1SAPS   C36   94   0.216   2.308   6.241 -0.7333  0.3730  0.3452
    1SAPS   H6X   95   0.274   2.399   6.267 -0.4557  0.2306  0.2263
    1SAPS   H6Y   96   0.111   2.343   6.254  0.5781  4.4051  1.5874
    1SAPS   C37   97   0.246   2.264   6.100  0.2713  0.4395 -0.8266
    1SAPS   H7X   98   0.182   2.178   6.072  0.2309  0.7653 -1.7564
    1SAPS   H7Y   99   0.349   2.227   6.083 -0.1194 -0.1492 -1.9987
    1SAPS   C38  100   0.233   2.385   6.009 -0.3028  0.3791  0.3346
    1SAPS   H8X  101   0.310   2.464   6.022 -2.3337  2.7913 -1.3616
    1SAPS   H8Y  102   0.140   2.444   6.024 -0.2865  0.2226  1.1320
    1SAPS   C39  103   0.240   2.342   5.856 -0.1696  0.0530  0.2919
    1SAPS   H9X  104   0.148   2.287   5.828  1.9474 -2.6495 -2.0646
    1SAPS   H9Y  105   0.329   2.278   5.834 -0.2401  0.8672 -2.8480
    1SAPS  C310  106   0.245   2.461   5.757 -0.5095 -0.1867 -0.0884
    1SAPS  H10X  107   0.344   2.506   5.778 -0.3383 -0.8229  0.4842
    1SAPS  H10Y  108   0.164   2.533   5.784 -0.4019  0.4425 -1.3899
    1SAPS  C311  109   0.227   2.416   5.602 -0.3731  0.0153  0.2148
    1SAPS  H11X  110   0.296   2.335   5.570 -1.4055 -1.0183  0.5074
    1SAPS  H11Y  111   0.253   2.501   5.536  3.2876 -1.1106 -0.0033
    1SAPS  C312  112   0.089   2.369   5.568 -0.1607  0.2819 -0.1339
    1SAPS  H12X  113   0.019   2.449   5.602 -0.6067  0.1300 -0.6751
    1SAPS  H12Y  114   0.054   2.282   5.626 -1.3964  2.3354  2.4286
    1SAPS  C313  115   0.066   2.349   5.420  0.8245 -0.6725  0.2829
    1SAPS  H13X  116   0.111   2.443   5.380 -0.5052  0.4679  1.3843
    1SAPS  H13Y  117  -0.043   2.356   5.400  0.2846  0.4873  3.1080
    1SAPS  C314  118   0.131   2.218   5.367 -0.0473  0.2657  0.6849
    1SAPS  H14X  119   0.078   2.130   5.408  0.5083 -0.2079  0.3934
    1SAPS  H14Y  120   0.237   2.204   5.395  0.6160 -0.2627 -1.8487
    1SAPS  C315  121   0.115   2.201   5.215 -0.2528  0.0519  0.4588
    1SAPS  H15X  122   0.145   2.297   5.168  0.6641  0.5208  1.9450
    1SAPS  H15Y  123   0.005   2.187   5.205 -0.2129 -1.8494  2.1159
    1SAPS  C316  124   0.193   2.070   5.172 -0.4354  0.3226 -0.8504
    1SAPS  H16X  125   0.175   1.993   5.250  0.7480  1.2620  0.3958
    1SAPS  H16Y  126   0.301   2.094   5.187 -0.6193 -0.0192  1.3300
    1SAPS  C317  127   0.170   2.026   5.028  0.8308  0.2922  0.8305
    1SAPS  H17X  128   0.062   1.999   5.032  0.6061  0.9191 -0.6103
    1SAPS  H17Y  129   0.234   1.938   5.009  0.9984  0.7260 -0.7541
    1SAPS  C318  130   0.182   2.134   4.921 -0.5061  1.2113  1.0806
    1SAPS  H18X  131   0.095   2.202   4.932 -1.1875  0.5977 -0.3179
    1SAPS  H18Y  132   0.198   2.093   4.819 -1.4835 -1.4057  1.9236
    1SAPS  H18Z  133   0.270   2.199   4.940  0.2529  0.5322  0.0153
    2SAPS     N  134   0.989   3.066   7.381  0.4129 -0.6417  0.5273
    2SAPS   HN1  135   0.988   3.003   7.299 -2.8554 -1.4761  1.0706
    2SAPS   HN2  136   1.024   3.163   7.366 -0.4065 -0.3901  0.1461
    2SAPS   HN3  137   1.053   3.007   7.437  0.1708 -0.2988  1.1780
    2SAPS   C12  138   0.855   3.061   7.443  0.2054  0.1247 -0.9723
    2SAPS  H12A  139   0.819   2.960   7.432 -2.4260  0.8651  0.1130
    2SAPS   C13  140   0.852   3.091   7.598 -0.2536 -0.2317 -0.5191
    2SAPS  O13A  141   0.962   3.098   7.659  0.1383  0.5026 -0.2315
    2SAPS  O13B  142   0.744   3.127   7.659  0.0490 -0.5834 -0.0302
    2SAPS   C11  143   0.751   3.167   7.380 -0.4129 -0.2112 -0.1824
    2SAPS  H11A  144   0.769   3.264   7.431 -2.8297 -0.2537  0.8673
    2SAPS  H11B  145   0.655   3.118   7.408 -0.2901 -0.2429  0.1976
    2SAPS     P  146   0.719   3.281   7.146  0.5999  0.1362 -0.3034
    2SAPS   O13  147   0.570   3.272   7.157  0.1392  0.2621 -0.1723
    2SAPS   O14  148   0.774   3.405   7.201  1.2510 -0.3894  0.0777
    2SAPS   O12  149   0.774   3.169   7.235  0.1423  0.0794 -0.3888
    2SAPS   O11  150   0.768   3.250   6.999  0.0412  0.1320  0.5583
    2SAPS    C1  151   0.726   3.126   6.943  0.4501  0.4577  0.6127
    2SAPS    HA  152   0.816   3.063   6.925  1.0943  0.9647  1.9290
    2SAPS    HB  153   0.663   3.061   7.007 -0.5860 -0.4453 -1.2401
    2SAPS    C2  154   0.646   3.127   6.803  0.0327 -0.3182  0.4138
    2SAPS    HS  155   0.646   3.023   6.764  0.3896 -1.0076  2.1811
    2SAPS   O21  156   0.732   3.205   6.715  0.4121  0.3945  0.2241
    2SAPS   C21  157   0.839   3.141   6.660  0.3965 -0.3160  0.0129
    2SAPS   O22  158   0.874   3.026   6.682  0.0579 -0.2395  0.3571
    2SAPS   C22  159   0.899   3.232   6.558  0.3187 -0.3550 -0.4161
    2SAPS   H2R  160   0.985   3.282   6.607  0.7839 -0.3081 -1.2615
    2SAPS   H2S  161   0.924   3.152   6.485  1.1037 -1.2171  0.7742
    2SAPS    C3  162   0.499   3.179   6.800 -0.3273 -0.1660 -0.0801
    2SAPS    HX  163   0.494   3.285   6.835 -2.4394  0.5040 -2.1346
    2SAPS    HY  164   0.443   3.128   6.881  0.0275  0.9327  0.8903
    2SAPS   O31  165   0.427   3.175   6.672 -0.4757 -0.0286  0.0190
    2SAPS   C31  166   0.465   3.279   6.587  0.2722  0.1307 -0.1321
    2SAPS   O32  167   0.535   3.374   6.609  0.4699  0.1068 -0.1130
    2SAPS   C32  168   0.390   3.255   6.450  0.0116  0.9736 -0.3868
    2SAPS   H2X  169   0.308   3.329   6.461 -0.4296  0.5912 -1.0370
    2SAPS   H2Y  170   0.350   3.152   6.448  1.2671  0.4690 -2.0574
    2SAPS   C23  171   0.809   3.339   6.494  0.3153  0.8714 -0.5813
    2SAPS   H3R  172   0.777   3.423   6.558 -1.5526  2.3223 -3.2278
    2SAPS   H3S  173   0.717   3.293   6.452  2.1193 -2.5025 -1.2423
    2SAPS   C24  174   0.868   3.407   6.367 -0.2428 -0.2431  0.1480
    2SAPS   H4R  175   0.967   3.454   6.388  0.1861 -0.0925 -2.0164
    2SAPS   H4S  176   0.793   3.484   6.339  2.5266  1.6021 -3.0853
    2SAPS   C25  177   0.871   3.310   6.256 -0.3912 -0.6218  0.1271
    2SAPS   H5R  178   0.788   3.238   6.255 -2.0262  1.0178  3.0601
    2SAPS   C26  179   0.962   3.302   6.158 -0.0996 -0.0882  0.6539
    2SAPS   H6R  180   0.952   3.225   6.081 -0.9777  2.2223 -1.6937
    2SAPS   C27  181   1.094   3.376   6.145  0.1011  0.4570  0.1938
    2SAPS   H7R  182   1.117   3.453   6.222  1.3894  2.0953 -1.7331
    2SAPS   H7S  183   1.081   3.446   6.060 -2.3603  1.8914  1.6328
    2SAPS   C28  184   1.214   3.280   6.117  0.3659 -0.2481 -0.2106
    2SAPS   H8R  185   1.273   3.261   6.208  1.1358  1.7643 -0.2461
    2SAPS   C29  186   1.245   3.236   5.993  0.2691 -0.0932 -0.4614
    2SAPS   H9R  187   1.329   3.165   5.978 -0.5359 -0.8540 -1.5409
    2SAPS  C210  188   1.170   3.263   5.865 -0.4313  0.2279  0.6544
    2SAPS  H10R  189   1.226   3.328   5.795 -0.1388 -1.6028 -0.8806
    2SAPS  H10S  190   1.077   3.321   5.881 -1.3590 -0.8750 -0.5182
    2SAPS  C211  191   1.134   3.131   5.795  0.3752  0.3416  0.7451
    2SAPS  H11R  192   1.046   3.073   5.826  0.7081 -0.9245 -0.5395
    2SAPS  C212  193   1.219   3.065   5.705  0.2639 -0.2796 -0.4076
    2SAPS  H12R  194   1.174   2.975   5.661  0.8248 -0.2827 -1.0054
    2SAPS  C213  195   1.356   3.110   5.660  0.2159  1.0792  0.2498
    2SAPS  H13R  196   1.435   3.032   5.660  1.1418  1.9747  1.2756
    2SAPS  H13S  197   1.405   3.165   5.744  0.1908 -2.4745  2.8291
    2SAPS  C214  198   1.344   3.192   5.534  0.1229  0.8305 -0.0567
    2SAPS  H14R  199   1.320   3.296   5.558 -0.0539  0.5713  0.9564
    2SAPS  C215  200   1.371   3.134   5.410  0.0834 -0.1463 -0.0615
    2SAPS  H15R  201   1.361   3.202   5.324  1.2798  1.9070  1.3045
    2SAPS  C216  202   1.417   2.997   5.368  0.4954 -0.7155  0.2112
    2SAPS  H16R  203   1.361   2.950   5.285  0.4717 -1.4364  0.6297
    2SAPS  H16S  204   1.402   2.930   5.455 -0.8207 -0.1885  0.4119
    2SAPS  C217  205   1.556   2.995   5.308  0.0945 -0.0648 -0.6970
    2SAPS  H17R  206   1.637   2.985   5.384 -0.0566  0.6883 -0.4280
    2SAPS  H17S  207   1.579   3.079   5.240  0.9158  0.8965  0.7093
    2SAPS  C218  208   1.573   2.881   5.209  0.2235  1.2486  0.0613
    2SAPS  H18R  209   1.683   2.890   5.194  0.5710 -1.3508  0.5962
    2SAPS  H18S  210   1.533   2.914   5.111 -0.4699  2.0274  0.6000
    2SAPS  C219  211   1.528   2.736   5.253  0.3197 -0.2348 -0.2308
    2SAPS  H19R  212   1.418   2.745   5.267  0.3321 -1.1360  0.5759
    2SAPS  H19S  213   1.567   2.703   5.352  0.2497 -0.6083 -0.3239
    2SAPS  C220  214   1.584   2.644   5.148 -0.4090  0.7168 -0.0813
    2SAPS  H20R  215   1.695   2.631   5.152 -0.6297 -2.0708 -0.7979
    2SAPS  H20S  216   1.555   2.674   5.045  0.1403 -0.0828 -0.4842
    2SAPS  H20T  217   1.537   2.543   5.151  0.7930  0.0678 -1.5995
    2SAPS   C33  218   0.478   3.265   6.320 -0.5695 -1.1283  0.3171
    2SAPS   H3X  219   0.560   3.189   6.318  2.6869  2.1057 -1.4332
    2SAPS   H3Y  220   0.526   3.364   6.307  0.1335 -1.6450 -1.4198
    2SAPS   C34  221   0.386   3.249   6.194 -0.0282  0.4512 -0.2966
    2SAPS   H4X  222   0.306   3.326   6.195  0.6232  1.1357 -0.4595
    2SAPS   H4Y  223   0.337   3.149   6.193 -0.1913  0.5295 -0.8435
    2SAPS   C35  224   0.463   3.269   6.060 -0.5089  0.7299  0.7621
    2SAPS   H5X  225   0.405   3.223   5.978  0.7788  1.5066 -0.6343
    2SAPS   H5Y  226   0.557   3.209   6.062 -0.7205  0.3919  0.4968
    2SAPS   C36  227   0.508   3.411   6.019  0.5979 -0.4123 -0.0954
    2SAPS   H6X  228   0.551   3.461   6.108 -1.2292  0.1518  0.5209
    2SAPS   H6Y  229   0.412   3.464   5.999  0.1057 -1.2941 -0.1405
    2SAPS   C37  230   0.593   3.429   5.899  0.0243  0.1780 -0.4638
    2SAPS   H7X  231   0.687   3.372   5.915  0.3487  0.4039 -1.4691
    2SAPS   H7Y  232   0.617   3.536   5.883 -0.3249  0.1293 -1.3776
    2SAPS   C38  233   0.520   3.369   5.774 -0.5213 -0.0715  0.4316
    2SAPS   H8X  234   0.420   3.416   5.766  0.9314  2.9817 -1.9357
    2SAPS   H8Y  235   0.513   3.259   5.791  0.3381 -0.0541  0.9756
    2SAPS   C39  236   0.598   3.393   5.646 -0.6524  0.5430 -0.4525
    2SAPS   H9X  237   0.676   3.316   5.630 -2.4736 -0.6877 -4.8992
    2SAPS   H9Y  238   0.636   3.497   5.643 -3.5272  1.6615 -1.1569
    2SAPS  C310  239   0.505   3.365   5.531  0.5853  0.4147  0.3228
    2SAPS  H10X  240   0.444   3.458   5.521  1.2704  0.8802  0.3441
    2SAPS  H10Y  241   0.436   3.283   5.561  0.0452  0.7346 -0.0267
    2SAPS  C311  242   0.578   3.329   5.401  0.7329 -0.2564  0.2564
    2SAPS  H11X  243   0.632   3.231   5.401  0.0932 -0.6214 -0.4100
    2SAPS  H11Y  244   0.643   3.406   5.355  0.4940 -0.5557 -0.6043
    2SAPS  C312  245   0.482   3.299   5.276 -0.7161 -0.4171 -0.3248
    2SAPS  H12X  246   0.381   3.346   5.283  0.3221  2.3732 -2.1493
    2SAPS  H12Y  247   0.466   3.189   5.279  0.3985 -0.5850  2.4695
    2SAPS  C313  248   0.534   3.346   5.142 -0.0347  0.4659 -0.0821
    2SAPS  H13X  249   0.630   3.293   5.125  0.0862  0.2289  1.2325
    2SAPS  H13Y  250   0.547   3.456   5.143  1.6394  0.3070  2.0644
    2SAPS  C314  251   0.436   3.317   5.025 -0.6946 -0.5151  0.3708
    2SAPS  H14X  252   0.339   3.366   5.046 -0.3102  0.2437  0.4438
    2SAPS  H14Y  253   0.424   3.211   4.998  1.7393 -0.8736  0.4131
    2SAPS  C315  254   0.499   3.372   4.895 -0.1697 -0.0867  0.5917
    2SAPS  H15X  255   0.587   3.322   4.850 -1.0956 -0.0867 -1.3340
    2SAPS  H15Y  256   0.540   3.473   4.911  0.3844 -0.2828  0.4286
    2SAPS  C316  257   0.412   3.376   4.771  1.2788  0.0388  0.0109
    2SAPS  H16X  258   0.313   3.421   4.797 -0.6380 -2.1094 -2.9112
    2SAPS  H16Y  259   0.389   3.270   4.746  1.3695 -0.4350  1.8240
    2SAPS  C317  260   0.471   3.467   4.665 -0.3678 -0.8575  0.2282
    2SAPS  H17X  261   0.572   3.431   4.634  0.9655  3.3235 -0.9710
    2SAPS  H17Y  262   0.490   3.567   4.710 -0.9103  0.3243 -2.0384
    2SAPS  C318  263   0.381   3.486   4.539  0.2840  0.0250  0.2958
    2SAPS  H18X  264   0.363   3.387   4.491 -1.3698  0.8025 -0.7847
    2SAPS  H18Y  265   0.432   3.557   4.470  2.7227  1.8616  3.7029
    2SAPS  H18Z  266   0.290   3.534   4.580  0.2182 -0.6662  0.9877
    3SAPS     N  267   1.482   3.045   7.092 -0.2681 -0.5652 -0.2128
    3SAPS   HN1  268   1.520   3.141   7.101  0.3076 -0.9024  1.5264
    3SAPS   HN2  269   1.560   2.983   7.061  1.5220  1.1481  0.6243
    3SAPS   HN3  270   1.405   3.065   7.026 -0.9091 -0.6726  0.4848
    3SAPS   C12  271   1.413   3.011   7.220  0.4358 -0.1695  0.5255
    3SAPS  H12A  272   1.491   2.965   7.279  1.4343 -0.2666 -0.8082
    3SAPS   C13  273   1.337   3.120   7.292  0.2028 -0.0931  0.2054
    3SAPS  O13A  274   1.344   3.236   7.241  0.2647 -0.0903  0.2727
    3SAPS  O13B  275   1.289   3.096   7.403  0.3802 -0.4280 -0.4356
    3SAPS   C11  276   1.304   2.904   7.192  0.2860  0.9443 -0.0099
    3SAPS  H11A  277   1.237   2.953   7.118 -0.0439  0.6963  0.1200
    3SAPS  H11B  278   1.254   2.893   7.291 -2.3168 -0.6731 -1.3782
    3SAPS     P  279   1.264   2.648   7.130 -0.6001  0.2325  0.1445
    3SAPS   O13  280   1.333   2.542   7.209  0.1497 -0.2305  0.4873
    3SAPS   O14  281   1.131   2.686   7.168 -0.2650 -0.5956 -0.7334
    3SAPS   O12  282   1.354   2.777   7.141 -0.3044  0.0332  0.3738
    3SAPS   O11  283   1.262   2.604   6.981 -0.2929  0.2121 -0.0731
    3SAPS    C1  284   1.383   2.627   6.904 -0.0932  0.5157  0.0294
    3SAPS    HA  285   1.478   2.642   6.960  0.4569  0.3374 -0.8450
    3SAPS    HB  286   1.406   2.542   6.836  0.9702 -0.8900  2.0327
    3SAPS    C2  287   1.360   2.745   6.808 -0.1626 -0.3472  0.5418
    3SAPS    HS  288   1.338   2.827   6.881  0.7550  0.7184 -0.3490
    3SAPS   O21  289   1.246   2.719   6.725  0.5241 -0.2951  0.3802
    3SAPS   C21  290   1.189   2.835   6.675 -0.0860  0.4070  0.0363
    3SAPS   O22  291   1.215   2.946   6.710  0.0717  0.7390 -0.0317
    3SAPS   C22  292   1.103   2.803   6.550 -0.5833 -0.3212  0.4882
    3SAPS   H2R  293   1.157   2.717   6.503 -1.0280 -0.4617  0.2288
    3SAPS   H2S  294   1.001   2.768   6.577 -1.6094  2.5615  0.6762
    3SAPS    C3  295   1.484   2.785   6.719 -0.5657  0.2418  0.1585
    3SAPS    HX  296   1.567   2.793   6.793  0.3525 -1.7299 -0.5700
    3SAPS    HY  297   1.456   2.875   6.660 -0.6854 -0.4882 -0.9323
    3SAPS   O31  298   1.531   2.680   6.634  0.0136 -0.7796  0.1397
    3SAPS   C31  299   1.491   2.679   6.509 -0.0163 -0.1511  0.2467
    3SAPS   O32  300   1.429   2.760   6.442  0.3314 -0.5501 -0.6439
    3SAPS   C32  301   1.502   2.535   6.457 -0.4127  0.6234 -1.1484
    3SAPS   H2X  302   1.436   2.481   6.528  1.2399  0.6388  0.4738
    3SAPS   H2Y  303   1.608   2.500   6.457 -0.9941 -1.3004 -2.2961
    3SAPS   C23  304   1.104   2.923   6.445 -0.7003 -0.7684 -0.1075
    3SAPS   H3R  305   1.207   2.942   6.407 -0.8964  3.3581  0.9404
    3SAPS   H3S  306   1.078   3.015   6.502 -2.3121 -2.5819  2.2471
    3SAPS   C24  307   1.002   2.919   6.331 -0.1125  0.0721  0.1878
    3SAPS   H4R  308   1.020   3.013   6.275  1.3605 -0.5899 -0.4976
    3SAPS   H4S  309   0.895   2.918   6.363  0.1007 -1.4045  0.9542
    3SAPS   C25  310   1.012   2.798   6.241 -0.4604  0.5637 -0.3871
    3SAPS   H5R  311   0.935   2.721   6.257 -0.2257  0.1509 -1.2096
    3SAPS   C26  312   1.092   2.773   6.144  0.3337 -0.1420 -0.1551
    3SAPS   H6R  313   1.085   2.682   6.083 -2.7309  0.4790 -0.8876
    3SAPS   C27  314   1.210   2.860   6.109 -0.1642  0.9155 -0.3570
    3SAPS   H7R  315   1.238   2.933   6.188  2.7835  0.5753 -0.9803
    3SAPS   H7S  316   1.169   2.925   6.028 -1.8042 -0.5222 -0.7431
    3SAPS   C28  317   1.332   2.787   6.060 -1.5434  0.1926  0.0458
    3SAPS   H8R  318   1.404   2.782   6.143  0.6387 -1.3461 -1.8258
    3SAPS   C29  319   1.365   2.726   5.942 -0.2880 -0.6357 -0.8004
    3SAPS   H9R  320   1.463   2.677   5.939  0.2051 -0.0184  2.2121
    3SAPS  C210  321   1.278   2.718   5.816 -1.0021  0.0530  0.5854
    3SAPS  H10R  322   1.328   2.768   5.731 -0.6970 -0.5106  0.4288
    3SAPS  H10S  323   1.203   2.796   5.838  0.0514  0.9961  0.9132
    3SAPS  C211  324   1.247   2.573   5.797  0.1678  0.7244  0.1444
    3SAPS  H11R  325   1.234   2.515   5.889  0.8612 -1.6404 -1.1560
    3SAPS  C212  326   1.247   2.507   5.671  0.1250 -0.2996 -0.0503
    3SAPS  H12R  327   1.242   2.397   5.671  2.5160 -0.4581 -0.2717
    3SAPS  C213  328   1.261   2.571   5.536 -0.0099  0.1536  0.3884
    3SAPS  H13R  329   1.325   2.511   5.469  0.7325  1.4202 -0.0809
    3SAPS  H13S  330   1.308   2.672   5.544  0.7507 -0.0660 -0.9844
    3SAPS  C214  331   1.129   2.592   5.460  0.2800  0.7780 -0.2356
    3SAPS  H14R  332   1.061   2.678   5.470 -2.3888 -1.1913 -0.5026
    3SAPS  C215  333   1.057   2.490   5.392 -0.1697 -0.5114  0.0938
    3SAPS  H15R  334   0.968   2.521   5.335 -0.6570 -0.3539  0.9198
    3SAPS  C216  335   1.100   2.350   5.359  0.0531 -0.8686 -0.2995
    3SAPS  H16R  336   1.006   2.291   5.360 -0.1779 -0.5764 -2.0353
    3SAPS  H16S  337   1.178   2.320   5.432  1.2115  0.3530 -0.9874
    3SAPS  C217  338   1.154   2.346   5.218  0.3274  0.2929  0.0325
    3SAPS  H17R  339   1.194   2.242   5.205  0.4704 -0.0206  2.4822
    3SAPS  H17S  340   1.245   2.410   5.213  1.7587 -1.7138 -1.5850
    3SAPS  C218  341   1.062   2.396   5.107 -0.1537  0.3326  0.4560
    3SAPS  H18R  342   1.014   2.493   5.130 -1.8585 -0.4420  0.3339
    3SAPS  H18S  343   0.972   2.332   5.102  0.1861 -0.0931 -0.5539
    3SAPS  C219  344   1.123   2.387   4.968  0.0631 -0.1863  0.0508
    3SAPS  H19R  345   1.043   2.406   4.893 -0.5193  0.1913  0.7611
    3SAPS  H19S  346   1.202   2.465   4.962  1.1645 -1.2574  0.2410
    3SAPS  C220  347   1.190   2.256   4.918  0.0182 -0.1302 -0.8389
    3SAPS  H20R  348   1.103   2.203   4.874 -1.9579  2.3136 -0.0975
    3SAPS  H20S  349   1.226   2.197   5.005  0.8624 -2.8729 -2.8814
    3SAPS  H20T  350   1.278   2.280   4.854  2.6792 -0.2087  2.5332
    3SAPS   C33  351   1.440   2.514   6.314  0.0702 -1.0524  0.0153
    3SAPS   H3X  352   1.491   2.588   6.249  2.2149 -0.7541  1.9248
    3SAPS   H3Y  353   1.336   2.553   6.320  0.4417  0.7250 -2.9531
    3SAPS   C34  354   1.438   2.375   6.252  0.7655 -0.4895 -0.4070
    3SAPS   H4X  355   1.390   2.309   6.327  0.3638 -0.7052 -0.8466
    3SAPS   H4Y  356   1.541   2.339   6.232  1.5607  1.7316 -0.5987
    3SAPS   C35  357   1.360   2.359   6.117 -0.3937  0.2837 -0.1211
    3SAPS   H5X  358   1.255   2.380   6.148 -0.2990  1.1961 -0.3726
    3SAPS   H5Y  359   1.395   2.436   6.043 -0.7808  1.5730  1.0000
    3SAPS   C36  360   1.350   2.214   6.078  0.6229 -0.6251 -0.3329
    3SAPS   H6X  361   1.354   2.146   6.165  0.3920  0.8107  0.8450
    3SAPS   H6Y  362   1.440   2.195   6.016  0.9801 -1.1185  0.3243
    3SAPS   C37  363   1.224   2.184   5.999  0.9016  0.9444 -0.0434
    3SAPS   H7X  364   1.218   2.251   5.911 -1.1389  0.9189  0.0487
    3SAPS   H7Y  365   1.132   2.189   6.061  1.8895  0.9036  1.4965
    3SAPS   C38  366   1.228   2.038   5.956  0.6421  0.3216 -0.5679
    3SAPS   H8X  367   1.214   1.973   6.045 -0.0030  1.5420  0.2621
    3SAPS   H8Y  368   1.330   2.011   5.921  0.3999  0.3864 -1.3324
    3SAPS   C39  369   1.121   1.999   5.854  0.2671 -0.0350  0.0897
    3SAPS   H9X  370   1.028   2.059   5.867 -0.1270 -0.2728 -1.4493
    3SAPS   H9Y  371   1.092   1.893   5.875 -0.6147  0.3772  1.0589
    3SAPS  C310  372   1.150   2.007   5.706 -0.0353 -0.3033  0.4788
    3SAPS  H10X  373   1.226   1.928   5.685  0.0633  0.2095 -1.2727
    3SAPS  H10Y  374   1.196   2.099   5.662  0.5366 -0.7950  0.0252
    3SAPS  C311  375   1.027   1.970   5.624 -0.5764  0.2983  0.6272
    3SAPS  H11X  376   0.933   2.019   5.658 -0.6546 -0.0764  0.9679
    3SAPS  H11Y  377   1.004   1.863   5.645  0.7277 -0.0831  0.1639
    3SAPS  C312  378   1.036   1.999   5.471 -0.0757 -0.0899 -0.1156
    3SAPS  H12X  379   1.127   1.949   5.432  0.3494  1.4167 -1.1396
    3SAPS  H12Y  380   1.055   2.106   5.449  0.1365 -0.1227 -0.0939
    3SAPS  C313  381   0.904   1.960   5.401 -0.0098 -0.0960 -0.2134
    3SAPS  H13X  382   0.819   2.028   5.426 -0.7957 -0.0178 -2.7365
    3SAPS  H13Y  383   0.875   1.855   5.425  0.6578 -0.1221  0.4915
    3SAPS  C314  384   0.918   1.976   5.246 -0.4483 -0.3204 -0.3922
    3SAPS  H14X  385   0.984   1.907   5.189 -1.9422 -1.1700 -1.1447
    3SAPS  H14Y  386   0.952   2.080   5.226  0.5016 -0.2823  1.2119
    3SAPS  C315  387   0.780   1.952   5.184  0.1522  0.0035  0.1220
    3SAPS  H15X  388   0.708   2.028   5.220  0.8008  0.3992  0.6016
    3SAPS  H15Y  389   0.742   1.848   5.198  1.2453 -0.4586 -0.2421
    3SAPS  C316  390   0.782   1.968   5.024 -0.2840 -0.2556 -0.6141
    3SAPS  H16X  391   0.844   1.885   4.984  0.3174  0.1789 -0.5859
    3SAPS  H16Y  392   0.822   2.069   5.002 -0.5141  0.1056  0.5710
    3SAPS  C317  393   0.653   1.938   4.951 -0.1724  0.3953  0.1758
    3SAPS  H17X  394   0.568   1.976   5.011  1.2033  2.0285  1.1793
    3SAPS  H17Y  395   0.645   1.828   4.938 -1.2032  0.4996 -0.1461
    3SAPS  C318  396   0.654   2.002   4.812 -0.3545 -0.2589  1.4437
    3SAPS  H18X  397   0.654   2.112   4.823  0.6992 -0.1872  0.7670
    3SAPS  H18Y  398   0.553   1.978   4.772 -1.4654  0.7694  3.4281
    3SAPS  H18Z  399   0.724   1.959   4.738 -2.8697  0.5759 -1.6455
    4SAPS     N  400   5.519   1.918   7.467 -0.3711  0.4622  0.0365
    4SAPS   HN1  401   5.477   1.988   7.531  1.0252  0.8404  0.5724
    4SAPS   HN2  402   5.447   1.845   7.453 -0.2121  0.2933  0.1030
    4SAPS   HN3  403   5.606   1.879   7.509 -0.8333 -0.9231 -0.2703
    4SAPS   C12  404   5.560   1.982   7.342 -0.4909 -0.7379 -0.1909
    4SAPS  H12A  405   5.487   2.055   7.310 -0.1754 -1.1912 -2.0743
    4SAPS   C13  406   5.696   2.064   7.356 -0.3108 -0.9018  0.4579
    4SAPS  O13A  407   5.762   2.068   7.460 -0.0036  0.0212 -0.6997
    4SAPS  O13B  408   5.735   2.122   7.252 -0.1294 -0.2025  0.4173
    4SAPS   C11  409   5.584   1.881   7.230  0.6380  0.1329 -0.3398
    4SAPS  H11A  410   5.670   1.817   7.261  0.2590 -1.3437 -2.1552
    4SAPS  H11B  411   5.616   1.936   7.138 -0.1541  0.5019 -0.4054
    4SAPS     P  412   5.355   1.851   7.100  0.3564 -0.1370 -0.0975
    4SAPS   O13  413   5.270   1.737   7.074  0.0525  0.1506 -0.0950
    4SAPS   O14  414   5.288   1.971   7.155 -0.3575 -0.5195 -0.0766
    4SAPS   O12  415   5.471   1.798   7.199  0.5309 -0.0370 -0.6266
    4SAPS   O11  416   5.439   1.878   6.970  0.2486  0.0568  0.4439
    4SAPS    C1  417   5.388   1.925   6.841 -0.4538  0.4811 -0.3834
    4SAPS    HA  418   5.284   1.962   6.852 -0.1921  1.0224  0.3024
    4SAPS    HB  419   5.453   2.011   6.817  0.9947 -0.1663  0.9772
    4SAPS    C2  420   5.397   1.820   6.726  0.0432 -0.0282 -0.1407
    4SAPS    HS  421   5.340   1.731   6.760  1.9955 -2.2058 -2.2095
    4SAPS   O21  422   5.538   1.793   6.707 -0.1696 -0.0125 -0.5717
    4SAPS   C21  423   5.571   1.672   6.659  0.1469 -0.1906  0.3174
    4SAPS   O22  424   5.494   1.576   6.664 -0.6962 -0.4433 -0.0649
    4SAPS   C22  425   5.710   1.666   6.596 -0.2980  0.0268 -0.1996
    4SAPS   H2R  426   5.731   1.768   6.558 -0.0543  0.7282  1.7254
    4SAPS   H2S  427   5.775   1.647   6.683 -1.7814 -1.1689  0.7003
    4SAPS    C3  428   5.331   1.867   6.597 -0.1939  0.7504  0.2356
    4SAPS    HX  429   5.227   1.904   6.611 -1.2937 -2.4335  1.3029
    4SAPS    HY  430   5.312   1.777   6.535  0.2348 -1.5164  3.1849
    4SAPS   O31  431   5.400   1.971   6.523  0.4385  0.1422 -0.2709
    4SAPS   C31  432   5.479   1.938   6.424  1.1197  0.2258  0.6888
    4SAPS   O32  433   5.508   1.828   6.383  0.0758 -0.2967  0.2926
    4SAPS   C32  434   5.524   2.070   6.357 -0.5622  0.0457 -0.0059
    4SAPS   H2X  435   5.624   2.048   6.314  0.4879  1.7917  1.3754
    4SAPS   H2Y  436   5.545   2.142   6.439 -1.6318  0.8354 -0.4078
    4SAPS   C23  437   5.726   1.562   6.489  0.5991 -0.5093 -0.0094
    4SAPS   H3R  438   5.655   1.585   6.407  0.1902  2.1342  0.9795
    4SAPS   H3S  439   5.704   1.460   6.525  1.2192 -0.0090  1.9262
    4SAPS   C24  440   5.869   1.562   6.425  0.4445 -0.3103 -0.4970
    4SAPS   H4R  441   5.945   1.561   6.506  0.1977  0.9669 -0.2180
    4SAPS   H4S  442   5.877   1.658   6.369  0.0577  0.1467  0.2120
    4SAPS   C25  443   5.881   1.446   6.325 -0.5599 -0.5882 -0.2045
    4SAPS   H5R  444   5.825   1.361   6.365  1.1682 -1.1563  1.1499
    4SAPS   C26  445   5.954   1.442   6.213  0.2878  0.9128  0.2098
    4SAPS   H6R  446   5.952   1.354   6.147  2.1546  1.2622 -0.3744
    4SAPS   C27  447   6.029   1.553   6.152 -0.0953  0.0054 -0.2748
    4SAPS   H7R  448   6.027   1.645   6.214 -0.8002 -0.6650  0.7181
    4SAPS   H7S  449   5.968   1.581   6.063 -0.0225 -0.0979 -0.3582
    4SAPS   C28  450   6.162   1.512   6.091  0.5968  0.8366  0.6412
    4SAPS   H8R  451   6.208   1.420   6.130  2.4369  1.9687  1.2694
    4SAPS   C29  452   6.217   1.566   5.981 -0.3862  0.3395  0.5369
    4SAPS   H9R  453   6.313   1.530   5.943  1.8870  2.6296  3.5876
    4SAPS  C210  454   6.164   1.687   5.912 -0.0375  0.5316  0.0251
    4SAPS  H10R  455   6.107   1.739   5.992 -2.6478 -2.6209  0.4384
    4SAPS  H10S  456   6.082   1.663   5.841  0.8345  0.3686 -0.9553
    4SAPS  C211  457   6.267   1.773   5.844 -0.3573  0.9429  0.1794
    4SAPS  H11R  458   6.339   1.821   5.912  0.6330  0.8495 -0.7626
    4SAPS  C212  459   6.269   1.798   5.709 -0.2351 -0.1666  0.0108
    4SAPS  H12R  460   6.348   1.868   5.675  3.5640 -3.1611  1.8399
    4SAPS  C213  461   6.172   1.748   5.603  0.0152  0.0204  0.2530
    4SAPS  H13R  462   6.169   1.821   5.519  4.1503 -0.7816 -0.7621
    4SAPS  H13S  463   6.070   1.740   5.647 -0.0137  0.0066  0.1829
    4SAPS  C214  464   6.220   1.616   5.552 -0.4008  0.1804 -0.2629
    4SAPS  H14R  465   6.320   1.586   5.586 -1.1003  0.0924  1.8460
    4SAPS  C215  466   6.149   1.528   5.479 -0.3784 -0.3791  0.3825
    4SAPS  H15R  467   6.201   1.437   5.444  1.4611  0.5362  0.5937
    4SAPS  C216  468   6.022   1.545   5.405  0.2193 -0.2214 -0.3819
    4SAPS  H16R  469   5.968   1.633   5.446  0.9026  0.1176 -0.1869
    4SAPS  H16S  470   5.970   1.453   5.436  0.5261 -0.7796 -1.4686
    4SAPS  C217  471   6.027   1.557   5.249 -0.6092 -0.9101 -0.7497
    4SAPS  H17R  472   6.072   1.470   5.197  1.1402  0.1779 -1.1528
    4SAPS  H17S  473   6.090   1.647   5.226  0.2232 -0.9364  1.2165
    4SAPS  C218  474   5.885   1.592   5.189  0.2551 -0.3108  0.5760
    4SAPS  H18R  475   5.864   1.698   5.217 -0.1925 -0.0682 -0.5986
    4SAPS  H18S  476   5.813   1.522   5.237 -2.1725  1.0794 -0.8270
    4SAPS  C219  477   5.890   1.593   5.035 -0.0337  0.1883 -0.3226
    4SAPS  H19R  478   5.951   1.507   5.000 -0.5075  0.2830 -1.4177
    4SAPS  H19S  479   5.932   1.691   5.005  1.0993 -0.1758  0.0138
    4SAPS  C220  480   5.748   1.588   4.979 -0.2647 -0.1674 -0.0315
    4SAPS  H20R  481   5.743   1.590   4.868 -2.9746  0.0641  0.0097
    4SAPS  H20S  482   5.675   1.658   5.026 -0.3244  0.4440 -1.0223
    4SAPS  H20T  483   5.704   1.490   5.009  0.5093 -1.0708 -1.7275
    4SAPS   C33  484   5.428   2.120   6.252 -0.0411 -0.2752 -0.0259
    4SAPS   H3X  485   5.347   2.183   6.295  1.3758  0.6686  1.3833
    4SAPS   H3Y  486   5.386   2.031   6.202  0.5035  0.2393 -1.4422
    4SAPS   C34  487   5.498   2.209   6.154 -0.6770  0.1046  0.3386
    4SAPS   H4X  488   5.600   2.170   6.135 -1.2426 -0.9732 -0.5877
    4SAPS   H4Y  489   5.503   2.309   6.203  0.3280  0.2569 -0.0491
    4SAPS   C35  490   5.428   2.211   6.019  0.0297 -0.5055 -0.0385
    4SAPS   H5X  491   5.329   2.262   6.030 -1.6915 -3.4298 -0.7416
    4SAPS   H5Y  492   5.400   2.105   5.999 -0.7975 -0.5395  1.1870
    4SAPS   C36  493   5.496   2.256   5.886  0.2704 -0.6876 -0.2208
    4SAPS   H6X  494   5.604   2.229   5.893  0.2410 -1.0000 -0.8729
    4SAPS   H6Y  495   5.480   2.365   5.871 -1.9544 -1.0072 -0.5353
    4SAPS   C37  496   5.421   2.205   5.765 -0.5873 -0.0725  0.0083
    4SAPS   H7X  497   5.324   2.258   5.756  0.1826  1.0819 -2.1705
    4SAPS   H7Y  498   5.394   2.098   5.774 -0.4669 -0.0088  1.3685
    4SAPS   C38  499   5.479   2.237   5.628 -0.5074 -0.1300  0.4418
    4SAPS   H8X  500   5.579   2.188   5.629 -0.9248 -0.9937  1.1216
    4SAPS   H8Y  501   5.502   2.345   5.614  0.0745 -0.1240  1.3185
    4SAPS   C39  502   5.390   2.191   5.517  0.0390 -0.8148  0.2345
    4SAPS   H9X  503   5.303   2.260   5.512  1.0735  0.7244  2.2404
    4SAPS   H9Y  504   5.352   2.091   5.549  3.8152 -1.8104  2.2447
    4SAPS  C310  505   5.463   2.191   5.387 -0.1403  0.3718 -0.3841
    4SAPS  H10X  506   5.546   2.118   5.393  0.1869  0.8756  2.2975
    4SAPS  H10Y  507   5.509   2.291   5.372  0.7659  0.1452  0.7339
    4SAPS  C311  508   5.358   2.157   5.275 -0.7718  0.5683  0.0106
    4SAPS  H11X  509   5.273   2.226   5.292 -1.1671  0.3534 -1.0263
    4SAPS  H11Y  510   5.323   2.051   5.276 -0.7651  0.5672  0.2249
    4SAPS  C312  511   5.415   2.189   5.132  0.5600  0.0923 -0.3509
    4SAPS  H12X  512   5.474   2.104   5.092 -1.0629 -0.8868 -0.7947
    4SAPS  H12Y  513   5.476   2.281   5.129  0.7864 -0.0455  0.0806
    4SAPS  C313  514   5.306   2.201   5.024 -0.6569 -0.0514 -0.5951
    4SAPS  H13X  515   5.246   2.290   5.052  0.2888  0.2652  0.5372
    4SAPS  H13Y  516   5.247   2.109   5.037 -0.0598 -0.4429 -0.6227
    4SAPS  C314  517   5.367   2.230   4.884 -0.1100  0.0794 -0.9349
    4SAPS  H14X  518   5.441   2.153   4.856 -0.4949  0.1478 -2.1971
    4SAPS  H14Y  519   5.417   2.329   4.881 -1.7022  0.9021 -2.2931
    4SAPS  C315  520   5.261   2.231   4.780 -0.7746  0.1126  0.1551
    4SAPS  H15X  521   5.186   2.311   4.793 -0.7649  0.5492 -2.0703
    4SAPS  H15Y  522   5.200   2.138   4.781  1.6698 -1.6053  0.0458
    4SAPS  C316  523   5.314   2.253   4.640 -0.0307 -0.0365  0.5946
    4SAPS  H16X  524   5.399   2.185   4.618 -1.9623 -1.8022 -1.9031
    4SAPS  H16Y  525   5.355   2.355   4.626 -0.1573 -0.2363 -1.5248
    4SAPS  C317  526   5.205   2.224   4.543  0.1728 -0.1016  0.0567
    4SAPS  H17X  527   5.114   2.281   4.570  0.8629  0.3838  1.4128
    4SAPS  H17Y  528   5.188   2.115   4.556  1.0455 -0.1518  0.9541
    4SAPS  C318  529   5.228   2.238   4.387  0.3408  0.2265 -0.3515
    4SAPS  H18X  530   5.139   2.198   4.334  0.0170  0.1534  0.2467
    4SAPS  H18Y  531   5.321   2.186   4.353  0.6379  0.0613  0.6950
    4SAPS  H18Z  532   5.238   2.344   4.357  2.4363  0.2619  0.3186
    5SAPS     N  533   1.382   1.364   7.294 -0.4204 -0.6141 -0.4261
    5SAPS   HN1  534   1.452   1.358   7.218  0.2620 -1.6664  0.2625
    5SAPS   HN2  535   1.291   1.372   7.244 -1.3277 -0.6581  1.1289
    5SAPS   HN3  536   1.405   1.455   7.338  0.4700 -0.5517 -1.0112
    5SAPS   C12  537   1.393   1.243   7.393 -0.0947  0.0570  0.1760
    5SAPS  H12A  538   1.483   1.268   7.447  0.4386  1.4693 -1.2859
    5SAPS   C13  539   1.278   1.220   7.495 -0.1710 -0.3594  0.3958
    5SAPS  O13A  540   1.173   1.292   7.482 -0.3723  0.2291  0.3010
    5SAPS  O13B  541   1.276   1.117   7.562  0.6548 -0.3074 -0.4216
    5SAPS   C11  542   1.408   1.115   7.308  0.4628  0.2829 -0.1647
    5SAPS  H11A  543   1.304   1.089   7.282  0.0173  1.1621  0.6666
    5SAPS  H11B  544   1.444   1.034   7.375  3.9638  0.2917 -1.7975
    5SAPS     P  545   1.484   1.010   7.096 -0.0008 -0.2109 -0.0990
    5SAPS   O13  546   1.553   1.042   6.971 -0.1519  0.2341 -0.2297
    5SAPS   O14  547   1.525   0.886   7.170 -0.3840  0.3153 -0.2455
    5SAPS   O12  548   1.495   1.130   7.202 -0.0079  0.5578 -0.4100
    5SAPS   O11  549   1.328   0.996   7.058 -0.4874  0.4212 -0.0698
    5SAPS    C1  550   1.268   1.096   6.979 -0.0761 -0.7546 -0.2618
    5SAPS    HA  551   1.169   1.119   7.025 -0.4469 -3.0872  0.2283
    5SAPS    HB  552   1.325   1.191   6.987 -2.3846  0.6108  0.9956
    5SAPS    C2  553   1.236   1.073   6.833  0.2480  0.1090  0.2475
    5SAPS    HS  554   1.160   1.146   6.798 -0.4058 -0.3264  0.7110
    5SAPS   O21  555   1.193   0.942   6.804  1.3071 -0.3139  0.3831
    5SAPS   C21  556   1.063   0.923   6.812  0.2838 -1.1009 -0.5394
    5SAPS   O22  557   0.980   1.001   6.768 -0.5956 -0.2388  0.1418
    5SAPS   C22  558   1.025   0.785   6.860  0.4030  0.3668  0.3392
    5SAPS   H2R  559   1.011   0.796   6.970 -0.9140  0.2832  0.1964
    5SAPS   H2S  560   0.926   0.757   6.819  1.2050 -1.5692 -0.3750
    5SAPS    C3  561   1.361   1.104   6.746 -0.3748 -0.1087 -0.6609
    5SAPS    HX  562   1.436   1.023   6.743  0.1639  0.3903 -2.6479
    5SAPS    HY  563   1.426   1.183   6.790  0.0014 -0.9383  0.3032
    5SAPS   O31  564   1.326   1.127   6.606  0.2623 -0.3328  0.2988
    5SAPS   C31  565   1.386   1.052   6.511  0.2052  0.1515  0.0067
    5SAPS   O32  566   1.467   0.963   6.529 -0.5317 -0.5866 -0.5187
    5SAPS   C32  567   1.347   1.090   6.367  0.0428  0.1333  0.4348
    5SAPS   H2X  568   1.346   1.201   6.364  1.8143  0.3349  3.1970
    5SAPS   H2Y  569   1.247   1.044   6.348  0.1297 -0.3139  1.0176
    5SAPS   C23  570   1.129   0.674   6.831  0.0463 -0.4796 -0.4695
    5SAPS   H3R  571   1.093   0.583   6.884  0.5759  0.4493  1.6118
    5SAPS   H3S  572   1.222   0.709   6.880 -0.6865  1.9007 -0.6452
    5SAPS   C24  573   1.166   0.644   6.682  0.0478 -0.1914 -0.3780
    5SAPS   H4R  574   1.235   0.557   6.684 -0.1613 -0.4126 -1.7867
    5SAPS   H4S  575   1.219   0.735   6.648  1.2322 -0.8877 -0.4436
    5SAPS   C25  576   1.050   0.602   6.602  0.7693 -1.3004  0.1901
    5SAPS   H5R  577   0.987   0.523   6.648  0.5460 -1.3209 -0.1455
    5SAPS   C26  578   1.010   0.654   6.480  0.6584 -0.5392 -0.3535
    5SAPS   H6R  579   0.913   0.621   6.442  0.5270  0.1488 -0.6435
    5SAPS   C27  580   1.087   0.750   6.390  0.1868  0.0581  0.3211
    5SAPS   H7R  581   1.137   0.698   6.306  1.7307  1.3582  0.3976
    5SAPS   H7S  582   1.177   0.790   6.442 -1.0144  1.5160  1.3680
    5SAPS   C28  583   1.004   0.858   6.328  0.3659  0.6758  0.1283
    5SAPS   H8R  584   0.970   0.940   6.392  0.5365  1.1063 -0.3329
    5SAPS   C29  585   0.969   0.868   6.197 -0.1386 -0.1936  0.2121
    5SAPS   H9R  586   0.910   0.958   6.173  0.5784  0.1342 -0.3733
    5SAPS  C210  587   0.991   0.777   6.075 -0.1009  0.7125  0.2502
    5SAPS  H10R  588   0.926   0.808   5.990 -1.9249 -1.1901  0.8585
    5SAPS  H10S  589   0.960   0.676   6.109  2.0212  0.4989  1.6843
    5SAPS  C211  590   1.135   0.755   6.030  0.1647 -0.0307  0.2628
    5SAPS  H11R  591   1.209   0.759   6.111 -0.0558  1.0731  0.4253
    5SAPS  C212  592   1.179   0.716   5.912  0.2428  0.1579  0.2878
    5SAPS  H12R  593   1.288   0.720   5.902  0.4591 -0.1740  2.1118
    5SAPS  C213  594   1.099   0.681   5.785 -0.3119 -0.4505  0.7581
    5SAPS  H13R  595   0.991   0.671   5.806 -0.7988  2.7796  0.3526
    5SAPS  H13S  596   1.133   0.583   5.745  0.4217  0.4234 -0.8627
    5SAPS  C214  597   1.125   0.801   5.693  0.0181  0.9432 -0.0634
    5SAPS  H14R  598   1.167   0.887   5.747 -0.4898  0.4475  1.1577
    5SAPS  C215  599   1.076   0.818   5.569  0.2072  0.0741  0.4171
    5SAPS  H15R  600   1.105   0.905   5.509  2.0420 -0.5715  0.3229
    5SAPS  C216  601   1.026   0.691   5.505 -0.4322  0.7259  0.4985
    5SAPS  H16R  602   0.940   0.654   5.564 -0.0112  0.7243  1.1237
    5SAPS  H16S  603   1.107   0.614   5.510 -1.4584 -0.6075 -1.9620
    5SAPS  C217  604   0.980   0.698   5.356  0.5414 -0.6073  0.2792
    5SAPS  H17R  605   0.904   0.779   5.346  2.4020  1.1000 -0.7387
    5SAPS  H17S  606   0.926   0.610   5.316 -2.2482  1.2689 -0.3669
    5SAPS  C218  607   1.093   0.725   5.262  0.3960 -0.6962  0.2346
    5SAPS  H18R  608   1.172   0.653   5.291 -0.4971 -1.6799  0.2516
    5SAPS  H18S  609   1.131   0.830   5.270  3.4577 -1.5227 -1.6110
    5SAPS  C219  610   1.049   0.714   5.111  0.1551  0.1883  0.1745
    5SAPS  H19R  611   0.970   0.790   5.093  0.7599  0.5549 -1.0463
    5SAPS  H19S  612   1.005   0.614   5.092 -1.7754  0.7044  1.6142
    5SAPS  C220  613   1.155   0.745   5.003 -0.2349  0.2504  0.0193
    5SAPS  H20R  614   1.126   0.713   4.901  2.2897  0.1688 -0.7222
    5SAPS  H20S  615   1.253   0.701   5.031  0.2514  1.9552  1.1431
    5SAPS  H20T  616   1.165   0.855   4.993  1.3369  0.0474 -0.7811
    5SAPS   C33  617   1.444   1.039   6.259  0.3503  0.0491  0.4212
    5SAPS   H3X  618   1.449   0.928   6.261 -1.3359 -0.0463  0.7787
    5SAPS   H3Y  619   1.549   1.074   6.268  0.3347  0.8649 -1.9414
    5SAPS   C34  620   1.393   1.064   6.118 -0.3769 -0.4722 -0.1631
    5SAPS   H4X  621   1.377   1.174   6.116 -0.7463 -0.4107  2.3903
    5SAPS   H4Y  622   1.295   1.013   6.107 -1.4484  0.9094  2.1430
    5SAPS   C35  623   1.487   1.026   5.998 -0.2081  0.6147 -0.7191
    5SAPS   H5X  624   1.493   0.916   5.982 -0.4607  0.6388 -0.9758
    5SAPS   H5Y  625   1.589   1.070   6.004 -1.0939  2.5930  0.5590
    5SAPS   C36  626   1.427   1.077   5.866 -1.0196  0.0318  0.6930
    5SAPS   H6X  627   1.439   1.187   5.867 -2.3662  0.2523 -1.1990
    5SAPS   H6Y  628   1.324   1.033   5.865 -0.1115 -2.2992 -1.2348
    5SAPS   C37  629   1.490   0.999   5.752  0.6329  0.2226 -0.8827
    5SAPS   H7X  630   1.458   0.895   5.772 -1.4949  1.3062  2.0542
    5SAPS   H7Y  631   1.600   1.004   5.764  0.5646 -1.5887  0.9434
    5SAPS   C38  632   1.429   1.049   5.620  0.3646 -0.2270 -0.0166
    5SAPS   H8X  633   1.434   1.157   5.599  1.0040 -0.5109 -1.4427
    5SAPS   H8Y  634   1.320   1.027   5.616 -0.2471  2.6024 -1.3635
    5SAPS   C39  635   1.470   0.957   5.500  0.1587  0.3545 -0.1911
    5SAPS   H9X  636   1.420   0.859   5.518 -0.2068  0.1162 -2.2047
    5SAPS   H9Y  637   1.580   0.947   5.510  0.3287  1.4952 -0.8123
    5SAPS  C310  638   1.421   1.019   5.363 -0.2909 -0.0912  0.4975
    5SAPS  H10X  639   1.437   1.127   5.381 -0.1688 -0.2483  1.3770
    5SAPS  H10Y  640   1.312   0.997   5.376 -0.6471  2.5062  2.7468
    5SAPS  C311  641   1.481   0.959   5.235 -1.1065  0.2485 -0.1356
    5SAPS  H11X  642   1.473   0.848   5.235  0.0100  0.1554  0.4988
    5SAPS  H11Y  643   1.589   0.985   5.241 -1.2933  0.9194  0.5337
    5SAPS  C312  644   1.418   1.012   5.106 -0.2314 -0.7572 -0.1264
    5SAPS  H12X  645   1.418   1.123   5.096  1.4426 -0.6560  0.6286
    5SAPS  H12Y  646   1.309   0.993   5.101 -0.4359 -0.0335  1.1252
    5SAPS  C313  647   1.476   0.950   4.977 -0.2467 -0.0327 -0.2912
    5SAPS  H13X  648   1.431   0.851   4.954  0.7485 -1.0772  1.9565
    5SAPS  H13Y  649   1.586   0.941   4.990 -0.3599 -0.1483  0.7160
    5SAPS  C314  650   1.461   1.041   4.859 -0.2169 -0.5444 -0.0430
    5SAPS  H14X  651   1.508   0.995   4.769  0.9755  0.6237 -0.0486
    5SAPS  H14Y  652   1.514   1.135   4.887 -0.0050 -0.7449  0.2426
    5SAPS  C315  653   1.321   1.079   4.815  0.5813  0.7404 -0.3711
    5SAPS  H15X  654   1.269   1.130   4.899  1.3162  0.5864  0.1921
    5SAPS  H15Y  655   1.256   0.993   4.787 -1.7082  2.5668 -1.0290
    5SAPS  C316  656   1.332   1.178   4.694  0.0286  0.3335  0.4248
    5SAPS  H16X  657   1.386   1.134   4.607  0.0650 -0.4815  0.8537
    5SAPS  H16Y  658   1.380   1.274   4.724 -2.1980  1.6328  0.0336
    5SAPS  C317  659   1.191   1.220   4.634 -0.3287 -0.5064 -0.5553
    5SAPS  H17X  660   1.132   1.129   4.612  0.1381 -0.9013 -0.1798
    5SAPS  H17Y  661   1.220   1.274   4.541 -0.6234  1.1651  0.2737
    5SAPS  C318  662   1.112   1.311   4.725  1.1220 -0.4751 -0.0343
    5SAPS  H18X  663   1.028   1.363   4.675 -0.5997 -1.1926  1.9692
    5SAPS  H18Y  664   1.174   1.391   4.773 -0.7273  1.6086 -0.9506
    5SAPS  H18Z  665   1.061   1.259   4.808  1.6860 -0.5838  0.2515
    6SAPS     N  666   4.090   3.660   6.973 -0.4775 -0.2158 -0.0436
    6SAPS   HN1  667   4.146   3.573   6.984  1.3823  0.8303 -0.8557
    6SAPS   HN2  668   4.017   3.653   7.046 -0.7621  2.3714  0.0238
    6SAPS   HN3  669   4.045   3.662   6.879  0.3732  0.6155 -0.4525
    6SAPS   C12  670   4.177   3.777   6.985 -0.4601 -0.2733 -0.4409
    6SAPS  H12A  671   4.139   3.837   7.066 -0.2247  1.0464 -1.2804
    6SAPS   C13  672   4.326   3.750   7.020 -0.0953 -0.4390 -1.2427
    6SAPS  O13A  673   4.363   3.629   7.018 -0.4666 -0.3220 -0.5307
    6SAPS  O13B  674   4.402   3.843   7.048  0.1960 -0.4790  0.1785
    6SAPS   C11  675   4.168   3.855   6.846  0.0186 -0.3532  0.4712
    6SAPS  H11A  676   4.211   3.798   6.760 -1.6327  0.1810 -0.7643
    6SAPS  H11B  677   4.229   3.947   6.845 -0.4815 -0.0052  1.1660
    6SAPS     P  678   3.981   4.037   6.838 -0.0883 -0.0145  0.4924
    6SAPS   O13  679   3.834   4.042   6.848 -0.9496 -0.0295 -0.0490
    6SAPS   O14  680   4.058   4.093   6.952  0.8342  0.3868  0.0167
    6SAPS   O12  681   4.027   3.880   6.814 -0.4788  0.1525 -0.6716
    6SAPS   O11  682   4.030   4.106   6.704 -0.2728 -0.1192  0.8784
    6SAPS    C1  683   4.066   4.028   6.586  0.0701  0.1628  0.5863
    6SAPS    HA  684   4.166   3.982   6.600  0.2365 -0.8834 -2.8607
    6SAPS    HB  685   3.995   3.946   6.560  1.0316 -0.3398 -0.5617
    6SAPS    C2  686   4.061   4.108   6.449 -0.3083 -0.4221 -0.0429
    6SAPS    HS  687   4.063   4.039   6.362 -0.7544  1.1984 -1.3857
    6SAPS   O21  688   4.182   4.177   6.460  0.6133 -0.1757  0.4143
    6SAPS   C21  689   4.268   4.176   6.364  0.3067  0.2988  1.0590
    6SAPS   O22  690   4.259   4.106   6.264 -0.2960 -0.2285 -0.2240
    6SAPS   C22  691   4.383   4.275   6.391 -0.0227 -1.0717  0.1232
    6SAPS   H2R  692   4.339   4.376   6.396  0.5876 -0.7650 -0.5997
    6SAPS   H2S  693   4.436   4.245   6.485 -2.1451 -3.3531  0.7023
    6SAPS    C3  694   3.940   4.210   6.440  0.7286  0.1892  0.1037
    6SAPS    HX  695   3.945   4.277   6.528  0.3383  1.5545 -0.8849
    6SAPS    HY  696   3.843   4.155   6.444 -0.4455  1.9292 -2.0368
    6SAPS   O31  697   3.936   4.290   6.320 -0.5066  0.2532 -0.4152
    6SAPS   C31  698   3.995   4.405   6.322  0.3679 -0.6069 -0.1536
    6SAPS   O32  699   4.045   4.455   6.420 -0.0426  0.0007 -0.3380
    6SAPS   C32  700   3.965   4.477   6.193 -0.4821  0.2925  1.1652
    6SAPS   H2X  701   3.935   4.583   6.207 -0.7603  0.2845  0.6871
    6SAPS   H2Y  702   3.868   4.431   6.162 -0.5546  0.8360  0.5552
    6SAPS   C23  703   4.489   4.281   6.279  0.0509  0.5756 -0.5517
    6SAPS   H3R  704   4.492   4.193   6.211 -1.2667 -1.4811  1.8523
    6SAPS   H3S  705   4.581   4.293   6.340  0.0171  3.2731 -0.9127
    6SAPS   C24  706   4.497   4.416   6.199  0.1252 -0.4003 -0.1111
    6SAPS   H4R  707   4.503   4.492   6.280 -0.5127 -1.1106  0.6212
    6SAPS   H4S  708   4.402   4.445   6.149 -0.1610 -0.7302  0.2351
    6SAPS   C25  709   4.609   4.438   6.107 -0.2894  0.9812  0.5936
    6SAPS   H5R  710   4.701   4.475   6.155 -1.1726  2.4974  1.2034
    6SAPS   C26  711   4.612   4.416   5.975  0.9053 -0.0427 -0.4451
    6SAPS   H6R  712   4.707   4.442   5.925  1.8292 -1.1476  0.6657
    6SAPS   C27  713   4.492   4.362   5.901 -0.0391 -0.4433 -0.2617
    6SAPS   H7R  714   4.412   4.341   5.975  0.3994  0.1651  0.4097
    6SAPS   H7S  715   4.514   4.264   5.855 -1.3235 -1.3704  1.0181
    6SAPS   C28  716   4.442   4.461   5.804  0.7680 -0.8317  0.1887
    6SAPS   H8R  717   4.381   4.545   5.842  1.6863  0.2966 -0.7731
    6SAPS   C29  718   4.443   4.451   5.667  0.2296 -0.4896  0.4651
    6SAPS   H9R  719   4.408   4.536   5.607 -1.5715  0.2382  2.4034
    6SAPS  C210  720   4.512   4.346   5.572 -0.4433  0.0396  0.1370
    6SAPS  H10R  721   4.535   4.250   5.624  0.8026  1.4460  2.3272
    6SAPS  H10S  722   4.603   4.394   5.532 -1.2484 -0.0227 -1.8884
    6SAPS  C211  723   4.432   4.322   5.450  0.1429  0.3135 -0.1988
    6SAPS  H11R  724   4.327   4.291   5.456  0.1832 -0.1590 -1.6648
    6SAPS  C212  725   4.471   4.324   5.322 -0.0775  0.2294 -0.6684
    6SAPS  H12R  726   4.389   4.310   5.250 -3.1087  2.9859  1.9171
    6SAPS  C213  727   4.599   4.375   5.265  0.0676  0.4367 -0.0766
    6SAPS  H13R  728   4.639   4.446   5.340  0.4786 -1.2573  1.3878
    6SAPS  H13S  729   4.574   4.439   5.178  1.6397 -0.9760 -1.6387
    6SAPS  C214  730   4.712   4.273   5.237 -0.4973 -0.0742  0.4760
    6SAPS  H14R  731   4.799   4.296   5.301 -0.5637  0.1712  0.4783
    6SAPS  C215  732   4.723   4.189   5.136 -0.5203 -0.4793 -1.6170
    6SAPS  H15R  733   4.812   4.126   5.118  0.1518  0.0107 -0.1571
    6SAPS  C216  734   4.614   4.162   5.034 -0.1668  0.2823 -0.2021
    6SAPS  H16R  735   4.563   4.257   5.006  0.2342  0.8351  0.8966
    6SAPS  H16S  736   4.537   4.104   5.091  0.5947  0.8653  1.4878
    6SAPS  C217  737   4.664   4.074   4.917  0.6324 -0.2293  0.2393
    6SAPS  H17R  738   4.571   4.052   4.861  0.6670 -1.7735  0.7493
    6SAPS  H17S  739   4.717   3.986   4.957 -0.7111 -0.8083  0.8098
    6SAPS  C218  740   4.755   4.151   4.821  0.5962  0.2465  0.1860
    6SAPS  H18R  741   4.838   4.198   4.878  0.9186  0.1759 -0.2147
    6SAPS  H18S  742   4.688   4.231   4.783  0.7439 -0.1853 -1.0255
    6SAPS  C219  743   4.799   4.050   4.709  0.6341  0.1219 -0.3035
    6SAPS  H19R  744   4.706   3.994   4.686  0.2515 -0.9372  3.1522
    6SAPS  H19S  745   4.865   3.976   4.760  1.0927  1.0939  0.5707
    6SAPS  C220  746   4.872   4.106   4.586  0.2954 -0.2097  0.0351
    6SAPS  H20R  747   4.907   4.013   4.538 -2.9775 -3.1457  2.7530
    6SAPS  H20S  748   4.958   4.163   4.628  0.9852 -3.4505  3.5973
    6SAPS  H20T  749   4.817   4.161   4.507  2.8499 -0.2210 -1.8762
    6SAPS   C33  750   4.072   4.440   6.085 -0.3350 -0.3860  0.6267
    6SAPS   H3X  751   4.104   4.335   6.102  0.6926 -0.3956 -1.1223
    6SAPS   H3Y  752   4.155   4.513   6.095 -3.3647  3.7007 -1.3271
    6SAPS   C34  753   4.035   4.454   5.940  0.0114 -1.3891  0.1925
    6SAPS   H4X  754   3.936   4.405   5.927 -1.0869  0.4225  1.3007
    6SAPS   H4Y  755   4.106   4.412   5.866 -0.1304 -0.2320 -0.6336
    6SAPS   C35  756   4.021   4.605   5.892  0.2134  0.0079 -0.5386
    6SAPS   H5X  757   4.122   4.651   5.903 -0.5773  1.4866  0.9041
    6SAPS   H5Y  758   3.962   4.671   5.959  1.2558  1.0324 -0.6021
    6SAPS   C36  759   3.958   4.623   5.749 -0.5358  0.3647  0.7423
    6SAPS   H6X  760   3.953   4.732   5.728 -0.9802  0.5557  1.7604
    6SAPS   H6Y  761   3.860   4.572   5.748 -0.2192 -0.2474  0.8758
    6SAPS   C37  762   4.027   4.551   5.628 -0.6654 -0.5997  1.3747
    6SAPS   H7X  763   4.003   4.443   5.638 -1.5090 -0.6457 -0.7126
    6SAPS   H7Y  764   4.135   4.570   5.612 -0.6599 -1.4952  0.2956
    6SAPS   C38  765   3.959   4.587   5.493 -0.2386  0.0832 -0.1977
    6SAPS   H8X  766   3.986   4.685   5.448  2.6526 -0.9899 -1.0091
    6SAPS   H8Y  767   3.849   4.583   5.508  0.2255  0.3119  4.6502
    6SAPS   C39  768   3.988   4.492   5.371  0.4298  0.4315 -1.3861
    6SAPS   H9X  769   3.894   4.461   5.320  0.2047 -0.8808 -0.2690
    6SAPS   H9Y  770   4.027   4.395   5.409  0.9764  0.6416 -1.3992
    6SAPS  C310  771   4.099   4.544   5.274  0.1782 -0.1276  0.4452
    6SAPS  H10X  772   4.187   4.591   5.324 -1.4850  1.1607  2.3073
    6SAPS  H10Y  773   4.055   4.632   5.223  0.4568 -0.9707 -1.3380
    6SAPS  C311  774   4.147   4.442   5.171  0.4684 -0.1511 -0.0319
    6SAPS  H11X  775   4.063   4.383   5.127 -0.3743  1.8883 -1.3371
    6SAPS  H11Y  776   4.215   4.375   5.227 -1.3995 -2.8410 -0.7673
    6SAPS  C312  777   4.221   4.495   5.050 -0.7201 -0.8069  0.0933
    6SAPS  H12X  778   4.315   4.544   5.086 -0.5929 -2.4900  2.2405
    6SAPS  H12Y  779   4.161   4.569   4.993  1.3586 -0.7814 -2.2450
    6SAPS  C313  780   4.242   4.392   4.942  0.5930  0.1536  0.0224
    6SAPS  H13X  781   4.149   4.353   4.895 -0.0872  0.6136  0.9551
    6SAPS  H13Y  782   4.271   4.297   4.990  0.3434  0.7116  1.3251
    6SAPS  C314  783   4.355   4.429   4.845  0.3403  0.1867 -0.4138
    6SAPS  H14X  784   4.439   4.443   4.916 -1.4195  1.8107  1.4594
    6SAPS  H14Y  785   4.335   4.524   4.790  0.1815  2.3505  3.1078
    6SAPS  C315  786   4.390   4.318   4.744  0.2353 -0.1112 -1.2690
    6SAPS  H15X  787   4.410   4.222   4.796 -1.1949  0.9258  1.4090
    6SAPS  H15Y  788   4.483   4.346   4.691 -1.6252 -0.4818 -5.0717
    6SAPS  C316  789   4.294   4.275   4.638  0.2498 -0.3492 -0.1459
    6SAPS  H16X  790   4.265   4.357   4.568 -0.8637  0.5355  1.3102
    6SAPS  H16Y  791   4.201   4.264   4.697  0.4147  0.0982  0.2013
    6SAPS  C317  792   4.322   4.151   4.558 -0.6741  0.3353 -0.1676
    6SAPS  H17X  793   4.247   4.141   4.477  1.0320 -0.7695 -1.6944
    6SAPS  H17Y  794   4.298   4.068   4.628 -0.7620  0.2310 -0.3196
    6SAPS  C318  795   4.461   4.140   4.496  0.3971 -0.4363 -0.5249
    6SAPS  H18X  796   4.487   4.227   4.432 -0.2229  1.4752  1.6806
    6SAPS  H18Y  797   4.477   4.042   4.446 -0.9621 -1.0249  0.1324
    6SAPS  H18Z  798   4.537   4.134   4.577  2.4511  1.0650 -2.2311
    7SAPS     N  799   6.334   3.639   7.229  0.2506 -0.2635 -0.7465
    7SAPS   HN1  800   6.271   3.604   7.153 -1.4065 -1.6448  1.1603
    7SAPS   HN2  801   6.297   3.613   7.322  0.0105 -1.2305 -1.0938
    7SAPS   HN3  802   6.344   3.742   7.217  3.3932 -0.4000 -0.2230
    7SAPS   C12  803   6.466   3.567   7.215 -0.4954 -0.2137 -0.6652
    7SAPS  H12A  804   6.533   3.634   7.267 -2.8208  2.2229 -0.5658
    7SAPS   C13  805   6.466   3.426   7.286  0.4176  0.1154  0.0717
    7SAPS  O13A  806   6.362   3.383   7.349 -0.4888 -0.0472  0.6458
    7SAPS  O13B  807   6.575   3.366   7.301  0.1419  0.7497 -0.2721
    7SAPS   C11  808   6.514   3.568   7.067  0.3267  0.0446  0.5145
    7SAPS  H11A  809   6.432   3.516   7.013 -1.2619  3.2598 -0.4869
    7SAPS  H11B  810   6.607   3.509   7.064 -0.3718 -1.0260 -0.9187
    7SAPS     P  811   6.645   3.770   6.969 -0.4584 -0.3967 -0.4388
    7SAPS   O13  812   6.618   3.907   6.912  0.4017  0.9525 -0.0352
    7SAPS   O14  813   6.741   3.762   7.080  0.1731  0.1663 -0.0901
    7SAPS   O12  814   6.506   3.703   7.015  0.1662 -0.4032  0.5118
    7SAPS   O11  815   6.690   3.671   6.855 -0.1770 -0.0793  0.2139
    7SAPS    C1  816   6.610   3.624   6.745  0.1720 -0.8843  0.0515
    7SAPS    HA  817   6.603   3.513   6.744 -1.4840 -0.8304  1.0508
    7SAPS    HB  818   6.505   3.660   6.754 -0.5196 -2.9661  0.8302
    7SAPS    C2  819   6.671   3.664   6.602 -1.1878 -0.2384 -0.2611
    7SAPS    HS  820   6.614   3.604   6.529 -1.6137  0.7432 -0.7550
    7SAPS   O21  821   6.813   3.637   6.597 -0.4546  0.0519  0.3508
    7SAPS   C21  822   6.855   3.636   6.468  0.2621  0.4701  0.0543
    7SAPS   O22  823   6.782   3.619   6.373  0.5740  0.7789 -0.4053
    7SAPS   C22  824   7.006   3.663   6.461  0.1486  0.6953 -0.3876
    7SAPS   H2R  825   7.019   3.756   6.521  3.2849  0.5069 -0.6064
    7SAPS   H2S  826   7.072   3.576   6.481  1.1518  0.4269 -4.0318
    7SAPS    C3  827   6.644   3.813   6.576 -0.6258 -0.6219  0.2319
    7SAPS    HX  828   6.706   3.859   6.656  0.9952 -0.5915 -0.9931
    7SAPS    HY  829   6.540   3.835   6.609 -1.0303 -3.1092  0.8167
    7SAPS   O31  830   6.690   3.875   6.455 -0.2213 -0.5070 -0.7831
    7SAPS   C31  831   6.602   3.857   6.353  0.3938  0.1478 -0.1040
    7SAPS   O32  832   6.506   3.785   6.362 -0.0524  0.1233  0.5027
    7SAPS   C32  833   6.640   3.934   6.235  0.0803 -0.7599  0.3273
    7SAPS   H2X  834   6.549   3.984   6.194 -0.9415 -3.1310 -0.4803
    7SAPS   H2Y  835   6.670   3.865   6.154  0.1271 -0.6328  0.2355
    7SAPS   C23  836   7.058   3.698   6.316  0.9066  0.5486  0.3743
    7SAPS   H3R  837   7.010   3.794   6.288  0.4532  0.6163  1.3497
    7SAPS   H3S  838   7.023   3.620   6.245  0.3351  0.8783  0.2914
    7SAPS   C24  839   7.204   3.708   6.288 -0.0808 -0.1069  0.2775
    7SAPS   H4R  840   7.206   3.745   6.184  0.1044 -0.0434  0.3034
    7SAPS   H4S  841   7.257   3.610   6.285 -0.5716 -0.3541 -1.2054
    7SAPS   C25  842   7.265   3.804   6.390  0.6162 -0.4599  1.0296
    7SAPS   H5R  843   7.201   3.830   6.475 -0.6856  1.4057 -0.4399
    7SAPS   C26  844   7.368   3.885   6.359 -0.8654  0.1290 -0.5816
    7SAPS   H6R  845   7.403   3.938   6.449  1.2308 -3.6300  1.0185
    7SAPS   C27  846   7.453   3.897   6.235 -0.5306  0.5263 -0.5895
    7SAPS   H7R  847   7.498   3.998   6.246  1.3333 -0.5313  3.5997
    7SAPS   H7S  848   7.387   3.903   6.145  0.6659 -0.5130 -1.5670
    7SAPS   C28  849   7.567   3.794   6.229  0.0426 -0.1223 -0.1878
    7SAPS   H8R  850   7.585   3.733   6.318 -0.5339  1.4104  1.0380
    7SAPS   C29  851   7.629   3.757   6.112 -0.4986  0.0565 -0.8251
    7SAPS   H9R  852   7.690   3.666   6.110 -2.5893 -1.4745  0.3651
    7SAPS  C210  853   7.601   3.815   5.977  0.7363  0.2614  0.9187
    7SAPS  H10R  854   7.674   3.760   5.913 -0.4511  0.2657 -0.5141
    7SAPS  H10S  855   7.648   3.915   5.963  0.7758  0.0097 -1.1036
    7SAPS  C211  856   7.473   3.818   5.903 -0.7476 -0.3854 -0.2744
    7SAPS  H11R  857   7.387   3.821   5.972 -0.8322  0.1779 -0.4062
    7SAPS  C212  858   7.456   3.779   5.779  0.2165  0.2658 -0.5332
    7SAPS  H12R  859   7.356   3.779   5.733 -0.4316 -1.7477  0.7613
    7SAPS  C213  860   7.562   3.749   5.677 -0.3176  0.0992  0.7210
    7SAPS  H13R  861   7.542   3.646   5.640 -2.6092  0.3339  1.1198
    7SAPS  H13S  862   7.667   3.752   5.713  0.8046  1.9302 -2.2467
    7SAPS  C214  863   7.562   3.849   5.560  0.6733 -0.2813  0.1210
    7SAPS  H14R  864   7.544   3.954   5.590  1.0425 -1.2742  4.4881
    7SAPS  C215  865   7.550   3.826   5.427  0.2718 -0.2527 -0.1112
    7SAPS  H15R  866   7.561   3.911   5.357 -0.8899 -0.6792 -0.8377
    7SAPS  C216  867   7.579   3.693   5.362 -0.4701 -0.0834  0.0213
    7SAPS  H16R  868   7.601   3.615   5.438  1.3028  1.5264  1.2710
    7SAPS  H16S  869   7.668   3.706   5.298 -1.4677  0.0476 -1.3791
    7SAPS  C217  870   7.466   3.642   5.277  0.2642  0.3565 -0.3952
    7SAPS  H17R  871   7.434   3.720   5.205  1.6379  0.8460 -0.5166
    7SAPS  H17S  872   7.376   3.626   5.340  1.2121 -1.8360  0.5390
    7SAPS  C218  873   7.491   3.507   5.202  0.2294  0.2163 -0.6045
    7SAPS  H18R  874   7.390   3.463   5.185  0.8679 -1.8268  0.5632
    7SAPS  H18S  875   7.548   3.439   5.268 -0.3973  0.2018 -0.0720
    7SAPS  C219  876   7.572   3.536   5.077 -0.2294  0.4790 -0.0652
    7SAPS  H19R  877   7.672   3.577   5.100 -0.2922 -0.3903  1.9584
    7SAPS  H19S  878   7.523   3.619   5.021 -0.6682  1.5257  1.8124
    7SAPS  C220  879   7.573   3.432   4.967 -0.3953 -0.1388 -0.1310
    7SAPS  H20R  880   7.635   3.341   4.982 -2.4471 -1.2551  2.2201
    7SAPS  H20S  881   7.604   3.475   4.869 -0.3446  0.0234 -0.0441
    7SAPS  H20T  882   7.467   3.407   4.944 -0.5419  2.1201 -2.4220
    7SAPS   C33  883   6.743   4.051   6.264 -0.3583  0.0728 -0.0279
    7SAPS   H3X  884   6.834   4.016   6.317 -1.3222 -0.0349  1.6078
    7SAPS   H3Y  885   6.693   4.129   6.325  1.2032  1.6938 -0.7273
    7SAPS   C34  886   6.787   4.121   6.136 -0.4128 -0.5100 -0.1821
    7SAPS   H4X  887   6.849   4.206   6.172 -0.0945 -1.2764  1.1940
    7SAPS   H4Y  888   6.712   4.169   6.070 -0.1391 -0.8770 -0.7612
    7SAPS   C35  889   6.881   4.022   6.061  0.4107  0.2083 -0.1505
    7SAPS   H5X  890   6.902   3.930   6.119  2.3561  0.7554  0.0974
    7SAPS   H5Y  891   6.982   4.067   6.047 -0.0779  2.1329  1.9377
    7SAPS   C36  892   6.828   3.982   5.917 -0.1428 -0.2639 -0.5477
    7SAPS   H6X  893   6.811   4.070   5.851 -2.0472 -0.0250  0.2059
    7SAPS   H6Y  894   6.735   3.922   5.929  0.0245 -0.5333 -0.5794
    7SAPS   C37  895   6.941   3.895   5.855 -0.1357  0.3949  0.1409
    7SAPS   H7X  896   6.933   3.805   5.919 -1.3872  0.6078  0.3198
    7SAPS   H7Y  897   7.037   3.950   5.863  0.4342 -0.4069 -0.9458
    7SAPS   C38  898   6.909   3.857   5.708  0.0529 -0.1173  0.3191
    7SAPS   H8X  899   6.877   3.956   5.668  0.6046 -0.3106 -0.6244
    7SAPS   H8Y  900   6.820   3.791   5.699  0.7609 -1.0104 -0.3034
    7SAPS   C39  901   7.023   3.800   5.627 -0.5392 -0.0124 -0.0345
    7SAPS   H9X  902   7.070   3.714   5.679 -1.0631  0.3070  1.0099
    7SAPS   H9Y  903   7.108   3.871   5.624  0.9975 -1.7318  0.8563
    7SAPS  C310  904   6.982   3.759   5.486  0.7530 -0.1549 -0.1880
    7SAPS  H10X  905   6.926   3.844   5.441  2.5985  1.5388  0.5390
    7SAPS  H10Y  906   6.926   3.665   5.502 -0.3006  0.7369  1.7070
    7SAPS  C311  907   7.106   3.727   5.396 -0.0392 -0.2615  0.3414
    7SAPS  H11X  908   7.140   3.622   5.404 -1.8307 -0.9309 -0.4088
    7SAPS  H11Y  909   7.192   3.788   5.432 -1.0234  1.1879  0.3134
    7SAPS  C312  910   7.084   3.762   5.250 -0.8982  0.4179  0.4449
    7SAPS  H12X  911   7.165   3.723   5.186 -1.1567 -0.7152  0.7808
    7SAPS  H12Y  912   7.064   3.871   5.244 -1.2601  0.2566 -2.4576
    7SAPS  C313  913   6.958   3.682   5.197  0.1364  0.5366  0.0595
    7SAPS  H13X  914   6.868   3.727   5.243 -1.2636 -1.3620 -0.7066
    7SAPS  H13Y  915   6.970   3.576   5.227 -0.7587  0.9338  2.0113
    7SAPS  C314  916   6.957   3.699   5.046  0.3776 -0.2756 -0.5164
    7SAPS  H14X  917   7.019   3.618   5.003  0.1195 -0.3436 -0.7605
    7SAPS  H14Y  918   7.012   3.793   5.026  0.8100 -0.7929 -1.8092
    7SAPS  C315  919   6.813   3.677   4.984 -0.2324 -0.0508 -0.0283
    7SAPS  H15X  920   6.732   3.716   5.051 -1.2344  0.7301 -1.6350
    7SAPS  H15Y  921   6.792   3.570   4.965  0.4960  0.1866 -2.4296
    7SAPS  C316  922   6.794   3.728   4.836  0.4360 -0.0410  0.1445
    7SAPS  H16X  923   6.871   3.683   4.770 -1.1583  2.0106 -3.4034
    7SAPS  H16Y  924   6.816   3.836   4.843 -0.9338  0.1786  2.1550
    7SAPS  C317  925   6.655   3.705   4.784  0.2114 -0.6145  0.3937
    7SAPS  H17X  926   6.575   3.773   4.822  0.2011  0.0633 -0.7930
    7SAPS  H17Y  927   6.613   3.606   4.812 -2.1840  0.7643  2.1760
    7SAPS  C318  928   6.658   3.731   4.631  0.3757  0.1354  0.8849
    7SAPS  H18X  929   6.560   3.720   4.581  1.6481 -2.6343 -1.2581
    7SAPS  H18Y  930   6.728   3.659   4.583 -1.3905 -1.1707  0.1249
    7SAPS  H18Z  931   6.706   3.829   4.614  1.9488 -0.7423  0.0329
    8SAPS     N  932   5.434   5.241   7.293  0.0963 -0.1649 -0.2041
    8SAPS   HN1  933   5.469   5.146   7.317  2.0820  1.1789  2.7641
    8SAPS   HN2  934   5.363   5.234   7.217 -0.3532  0.3639  0.1543
    8SAPS   HN3  935   5.518   5.296   7.266  0.4253  0.5051  2.0163
    8SAPS   C12  936   5.374   5.305   7.409  0.1614  0.4853  0.4794
    8SAPS  H12A  937   5.283   5.252   7.435  0.7915 -1.1166 -0.4280
    8SAPS   C13  938   5.456   5.291   7.544  0.0101 -0.0173 -0.3349
    8SAPS  O13A  939   5.556   5.216   7.553  0.2474  0.2276  0.4074
    8SAPS  O13B  940   5.416   5.352   7.646 -0.6363  0.0391  0.0056
    8SAPS   C11  941   5.345   5.454   7.372  0.1958 -0.5779  0.2297
    8SAPS  H11A  942   5.439   5.509   7.349  0.0179  0.3646  1.6683
    8SAPS  H11B  943   5.285   5.487   7.459  1.6131 -0.3781  1.1457
    8SAPS     P  944   5.212   5.593   7.200  0.1411  0.3912  0.5090
    8SAPS   O13  945   5.074   5.579   7.144 -0.3528  0.7035 -0.0353
    8SAPS   O14  946   5.225   5.698   7.300 -0.4361 -0.2124  0.2910
    8SAPS   O12  947   5.262   5.457   7.257  0.1177  0.0612  0.5515
    8SAPS   O11  948   5.307   5.616   7.080  0.0339 -0.6723 -0.7063
    8SAPS    C1  949   5.311   5.529   6.970 -0.0214  0.0259  0.4341
    8SAPS    HA  950   5.417   5.519   6.936 -0.1293 -0.6055  0.2754
    8SAPS    HB  951   5.285   5.424   6.994  2.5281 -1.1297 -1.4119
    8SAPS    C2  952   5.232   5.569   6.847 -0.0950  0.8670 -0.5970
    8SAPS    HS  953   5.127   5.538   6.868  0.8305 -1.5264  0.9970
    8SAPS   O21  954   5.287   5.497   6.743  0.3406 -0.3437  0.6261
    8SAPS   C21  955   5.227   5.379   6.717  0.1704  0.4305  0.4137
    8SAPS   O22  956   5.136   5.329   6.774 -0.3061 -0.7295  0.1104
    8SAPS   C22  957   5.299   5.309   6.605 -0.0456  0.6843  0.1622
    8SAPS   H2R  958   5.333   5.379   6.526  1.0887  0.6719  0.6138
    8SAPS   H2S  959   5.393   5.262   6.643 -0.0370  0.3738 -0.2478
    8SAPS    C3  960   5.244   5.716   6.812 -0.0333  0.0547  0.3658
    8SAPS    HX  961   5.348   5.755   6.818 -0.6340  1.5543  1.8370
    8SAPS    HY  962   5.192   5.771   6.893 -0.8074  0.5250 -0.4332
    8SAPS   O31  963   5.184   5.746   6.683 -0.1842  0.1790  0.6751
    8SAPS   C31  964   5.211   5.867   6.634  0.2055  0.1192 -0.3073
    8SAPS   O32  965   5.296   5.943   6.686  0.5696 -0.1854  0.2069
    8SAPS   C32  966   5.128   5.896   6.504 -0.5527  0.1697 -0.2845
    8SAPS   H2X  967   5.113   5.798   6.453  2.8167 -0.5070 -0.2021
    8SAPS   H2Y  968   5.188   5.956   6.432  0.9791 -0.1764  0.6702
    8SAPS   C23  969   5.216   5.194   6.532 -0.3274 -0.4493  0.0736
    8SAPS   H3R  970   5.119   5.232   6.492  0.1845  2.3694  1.2813
    8SAPS   H3S  971   5.187   5.113   6.603 -0.3522 -1.1291 -0.6969
    8SAPS   C24  972   5.301   5.131   6.419 -0.5161 -0.2281  0.1970
    8SAPS   H4R  973   5.394   5.090   6.464  0.0882  0.9618  0.0637
    8SAPS   H4S  974   5.334   5.203   6.341 -1.1375  1.2456  1.2415
    8SAPS   C25  975   5.231   5.019   6.360 -0.9356  0.2229 -0.4666
    8SAPS   H5R  976   5.155   4.967   6.420 -1.5549  0.6472 -0.8697
    8SAPS   C26  977   5.247   4.970   6.235  0.7431  0.1289  0.1758
    8SAPS   H6R  978   5.188   4.881   6.207  1.9742  0.0305 -2.4205
    8SAPS   C27  979   5.351   4.995   6.130  0.1099  0.1704 -0.1511
    8SAPS   H7R  980   5.367   4.911   6.059  1.7123  3.4147 -4.0389
    8SAPS   H7S  981   5.447   5.000   6.185 -1.0847 -1.2542  2.2477
    8SAPS   C28  982   5.344   5.125   6.053  0.9852  0.3072 -0.5839
    8SAPS   H8R  983   5.345   5.216   6.114  0.8401 -0.1106  0.0435
    8SAPS   C29  984   5.346   5.142   5.915 -0.1423  0.0965  0.8320
    8SAPS   H9R  985   5.342   5.243   5.872 -2.0013 -0.8389 -1.4396
    8SAPS  C210  986   5.336   5.029   5.814 -0.2945 -0.6864  0.5351
    8SAPS  H10R  987   5.350   4.927   5.855 -0.1116 -0.6154  0.6512
    8SAPS  H10S  988   5.421   5.038   5.743 -2.2200  2.0072 -1.6035
    8SAPS  C211  989   5.213   5.040   5.734  0.4399  0.6650  0.1126
    8SAPS  H11R  990   5.127   5.077   5.792  0.5897 -1.7088  1.9997
    8SAPS  C212  991   5.193   5.004   5.601 -0.1565 -0.0825  0.3428
    8SAPS  H12R  992   5.090   5.011   5.563 -0.6411  3.4244  1.8617
    8SAPS  C213  993   5.290   4.951   5.500 -0.6456  0.2176 -0.8999
    8SAPS  H13R  994   5.256   4.852   5.463 -0.8623 -0.8257  1.8856
    8SAPS  H13S  995   5.393   4.937   5.541 -0.3903  1.7053 -0.9752
    8SAPS  C214  996   5.304   5.053   5.386  0.6998 -0.4625 -0.2123
    8SAPS  H14R  997   5.350   5.146   5.422 -1.2338  0.0805  1.0815
    8SAPS  C215  998   5.267   5.047   5.256  0.8448 -0.1136 -0.0249
    8SAPS  H15R  999   5.263   5.133   5.188 -0.4798 -0.1304  0.0154
    8SAPS  C216 1000   5.202   4.923   5.201  0.1236  0.5883 -0.4447
    8SAPS  H16R 1001   5.154   4.856   5.276  0.5319 -0.9565 -1.5191
    8SAPS  H16S 1002   5.265   4.871   5.126 -0.0787 -1.7089  0.8506
    8SAPS  C217 1003   5.075   4.976   5.131 -0.5674  0.8601 -0.3854
    8SAPS  H17R 1004   5.010   4.893   5.098  0.1160  0.5769 -1.0734
    8SAPS  H17S 1005   5.111   5.026   5.038 -1.9712 -0.5744 -1.7572
    8SAPS  C218 1006   4.981   5.056   5.222 -0.0961  0.1819 -0.6960
    8SAPS  H18R 1007   5.031   5.144   5.269 -2.9743  0.8474  1.4053
    8SAPS  H18S 1008   4.956   4.991   5.308  3.4839 -2.6790 -1.5355
    8SAPS  C219 1009   4.864   5.123   5.151 -0.0188 -1.4328 -0.0370
    8SAPS  H19R 1010   4.803   5.042   5.106 -1.4358 -2.0875  2.7837
    8SAPS  H19S 1011   4.912   5.176   5.066 -0.0651 -0.0822  0.7389
    8SAPS  C220 1012   4.774   5.205   5.240  0.5081  0.6594 -0.9129
    8SAPS  H20R 1013   4.696   5.258   5.180 -0.0887  1.5880  0.6288
    8SAPS  H20S 1014   4.825   5.289   5.292  1.6560 -2.0950  2.8676
    8SAPS  H20T 1015   4.736   5.131   5.313 -0.2014  3.6942  2.0488
    8SAPS   C33 1016   4.994   5.965   6.513 -0.5518 -0.0888  0.0288
    8SAPS   H3X 1017   4.994   6.052   6.583 -1.2649 -0.5359  0.6030
    8SAPS   H3Y 1018   4.935   5.881   6.555  1.4448 -1.6962 -0.2288
    8SAPS   C34 1019   4.937   6.004   6.373  0.0467  0.6027 -0.6930
    8SAPS   H4X 1020   4.999   6.088   6.337 -0.8119  2.0651  1.0613
    8SAPS   H4Y 1021   4.832   6.038   6.384 -0.4623 -1.2801  1.0381
    8SAPS   C35 1022   4.937   5.893   6.272 -0.3913  0.2604  0.1237
    8SAPS   H5X 1023   4.901   5.804   6.328  0.4545 -1.3092 -1.7109
    8SAPS   H5Y 1024   5.042   5.872   6.243 -0.2316  1.0201  0.1321
    8SAPS   C36 1025   4.839   5.929   6.152 -0.3223  0.5326 -0.0898
    8SAPS   H6X 1026   4.894   6.007   6.096 -1.3033  0.5549 -1.0482
    8SAPS   H6Y 1027   4.754   5.977   6.204 -0.1687  1.1047 -0.3656
    8SAPS   C37 1028   4.795   5.808   6.063 -0.6769 -0.3139 -0.0002
    8SAPS   H7X 1029   4.717   5.836   5.988 -0.1275  3.3153  0.5928
    8SAPS   H7Y 1030   4.753   5.721   6.117 -0.2304 -0.6662 -0.2186
    8SAPS   C38 1031   4.918   5.754   5.987  0.0339 -0.2163  0.2421
    8SAPS   H8X 1032   4.907   5.652   5.944  1.0579 -0.7096  1.0975
    8SAPS   H8Y 1033   4.998   5.744   6.065 -0.9775 -1.1265  1.2024
    8SAPS   C39 1034   4.979   5.853   5.887  0.6671  0.1039 -0.5866
    8SAPS   H9X 1035   4.998   5.951   5.935  1.3159 -0.1750 -0.2579
    8SAPS   H9Y 1036   4.905   5.868   5.806  0.6835 -0.1162 -0.6430
    8SAPS  C310 1037   5.108   5.789   5.834  0.3613  0.5305  0.3140
    8SAPS  H10X 1038   5.089   5.685   5.797 -0.8431 -0.4601  3.4217
    8SAPS  H10Y 1039   5.180   5.781   5.918 -0.2047  0.4545  0.7967
    8SAPS  C311 1040   5.179   5.869   5.727  0.1424 -0.4906  0.8365
    8SAPS  H11X 1041   5.243   5.945   5.777  0.5730 -0.1758 -0.1619
    8SAPS  H11Y 1042   5.108   5.925   5.662  0.0233 -0.8582  0.6421
    8SAPS  C312 1043   5.268   5.778   5.637  0.4419 -0.3499 -0.3364
    8SAPS  H12X 1044   5.206   5.711   5.573  0.2120  1.0342 -1.6305
    8SAPS  H12Y 1045   5.337   5.713   5.695  2.6425 -0.1303 -2.5186
    8SAPS  C313 1046   5.366   5.858   5.546 -0.5292 -0.4715 -0.3580
    8SAPS  H13X 1047   5.456   5.796   5.525  0.5388  1.3334 -1.3054
    8SAPS  H13Y 1048   5.403   5.938   5.612  0.9025 -1.3550 -0.0510
    8SAPS  C314 1049   5.310   5.914   5.417  0.6007  0.6294  0.3681
    8SAPS  H14X 1050   5.241   5.999   5.432  0.2948  0.4944 -0.2351
    8SAPS  H14Y 1051   5.254   5.838   5.358  0.2112  0.3628  1.0717
    8SAPS  C315 1052   5.433   5.959   5.330 -0.3443 -0.0204 -0.8154
    8SAPS  H15X 1053   5.497   5.872   5.305  0.7310  0.0487  1.4707
    8SAPS  H15Y 1054   5.494   6.020   5.400 -1.2404 -0.4705  0.3797
    8SAPS  C316 1055   5.380   6.032   5.210  0.8095 -0.2042  0.0510
    8SAPS  H16X 1056   5.366   6.137   5.242 -0.9408 -1.0422  2.2766
    8SAPS  H16Y 1057   5.278   5.997   5.184  0.3348  1.6449 -0.7039
    8SAPS  C317 1058   5.477   6.027   5.091  0.1142  0.3202  0.4312
    8SAPS  H17X 1059   5.471   5.921   5.056 -1.1899  0.5334 -0.0619
    8SAPS  H17Y 1060   5.580   6.054   5.121  0.2299  0.0660  0.2726
    8SAPS  C318 1061   5.423   6.118   4.976 -0.2877  0.4121 -0.9188
    8SAPS  H18X 1062   5.434   6.226   5.003 -4.2610  0.6630  0.3600
    8SAPS  H18Y 1063   5.322   6.091   4.940  0.3533 -3.3047 -0.2972
    8SAPS  H18Z 1064   5.481   6.088   4.886  0.7849 -1.4024  0.3156
    9SAPS     N 1065   3.924   4.125   7.181  0.0580  0.2151 -0.0242
    9SAPS   HN1 1066   3.872   4.036   7.164  0.9491 -0.5834  1.2466
    9SAPS   HN2 1067   3.979   4.137   7.093  2.4859 -0.8703  1.2286
    9SAPS   HN3 1068   3.987   4.096   7.258 -1.2897 -3.8678 -0.2061
    9SAPS   C12 1069   3.842   4.243   7.227 -0.4342  0.4819 -0.2946
    9SAPS  H12A 1070   3.800   4.222   7.324 -1.2588 -0.0312 -0.7482
    9SAPS   C13 1071   3.911   4.383   7.250  0.7288 -0.1163  0.2680
    9SAPS  O13A 1072   4.035   4.388   7.222  0.2729 -0.1437  0.2532
    9SAPS  O13B 1073   3.838   4.483   7.255 -0.1811 -0.0222  0.3615
    9SAPS   C11 1074   3.720   4.265   7.138  0.1366  0.2410  0.4027
    9SAPS  H11A 1075   3.756   4.304   7.041  0.7021 -0.4391  0.3318
    9SAPS  H11B 1076   3.653   4.345   7.177 -1.0942 -1.0869  1.1052
    9SAPS     P 1077   3.502   4.115   7.133  0.1813 -0.4780 -0.1037
    9SAPS   O13 1078   3.478   3.973   7.105 -1.1698  0.0642 -0.0820
    9SAPS   O14 1079   3.470   4.163   7.267 -0.3495 -0.5340  0.6135
    9SAPS   O12 1080   3.647   4.141   7.106 -0.4439 -0.3025 -0.1813
    9SAPS   O11 1081   3.419   4.209   7.030 -0.0623  0.5809  0.7849
    9SAPS    C1 1082   3.433   4.195   6.885 -0.7583  0.1277  0.1103
    9SAPS    HA 1083   3.427   4.087   6.859 -2.7539 -0.5584  2.8900
    9SAPS    HB 1084   3.341   4.237   6.837 -0.1372  0.9569 -0.3781
    9SAPS    C2 1085   3.555   4.269   6.821 -0.0530  0.7675 -0.1978
    9SAPS    HS 1086   3.641   4.247   6.887 -0.8654 -0.0971  0.6119
    9SAPS   O21 1087   3.527   4.405   6.807 -0.2594 -0.2122  0.1741
    9SAPS   C21 1088   3.638   4.485   6.810  0.1199  0.3454  0.1110
    9SAPS   O22 1089   3.752   4.442   6.827 -0.1617  0.0051  0.9689
    9SAPS   C22 1090   3.597   4.631   6.792  0.1017 -0.2337 -0.4908
    9SAPS   H2R 1091   3.509   4.637   6.726 -0.3384  1.0031  0.1718
    9SAPS   H2S 1092   3.574   4.671   6.893 -0.2061 -1.3155 -0.1225
    9SAPS    C3 1093   3.591   4.204   6.683 -0.4214 -0.5082 -0.4441
    9SAPS    HX 1094   3.626   4.101   6.705  0.5905 -0.3299 -1.1453
    9SAPS    HY 1095   3.683   4.256   6.651  0.7904 -0.7689  2.3633
    9SAPS   O31 1096   3.474   4.206   6.593 -0.3092 -0.4505 -0.5354
    9SAPS   C31 1097   3.492   4.294   6.495 -0.5306  0.1487  0.3268
    9SAPS   O32 1098   3.591   4.366   6.483 -0.3242 -0.2423 -0.0317
    9SAPS   C32 1099   3.380   4.285   6.391 -0.0646  0.5847 -0.7234
    9SAPS   H2X 1100   3.311   4.366   6.422  1.6812  1.4921  1.0410
    9SAPS   H2Y 1101   3.332   4.184   6.391 -0.0320  0.5611 -1.9297
    9SAPS   C23 1102   3.714   4.705   6.728  0.0270  0.0423  0.0172
    9SAPS   H3R 1103   3.808   4.689   6.786 -0.2748 -0.7564  0.2954
    9SAPS   H3S 1104   3.704   4.816   6.723  2.7728  0.3150 -2.5931
    9SAPS   C24 1105   3.735   4.659   6.584 -0.2901  0.5650 -0.6258
    9SAPS   H4R 1106   3.639   4.669   6.528 -0.9411  1.5074  0.6147
    9SAPS   H4S 1107   3.756   4.549   6.583 -2.6206  0.0665 -0.9175
    9SAPS   C25 1108   3.848   4.725   6.518 -0.3604  0.6319 -0.1098
    9SAPS   H5R 1109   3.943   4.718   6.573  1.1368  1.1590 -2.4816
    9SAPS   C26 1110   3.848   4.780   6.402  0.0861 -0.3385 -0.4055
    9SAPS   H6R 1111   3.939   4.833   6.369 -1.9959  3.7850 -0.1890
    9SAPS   C27 1112   3.726   4.785   6.311  0.3101 -0.2840 -0.3674
    9SAPS   H7R 1113   3.750   4.855   6.228  2.7124  1.2694  1.5010
    9SAPS   H7S 1114   3.636   4.822   6.366  1.0469  1.1113 -0.0584
    9SAPS   C28 1115   3.685   4.643   6.275  0.5266  0.7335 -0.0870
    9SAPS   H8R 1116   3.674   4.572   6.358  2.3254  1.3550  0.7266
    9SAPS   C29 1117   3.662   4.598   6.153  0.6716  0.5456  0.1497
    9SAPS   H9R 1118   3.640   4.492   6.134 -1.2168  1.0660 -0.7656
    9SAPS  C210 1119   3.670   4.675   6.025  0.4966 -0.3670 -0.2658
    9SAPS  H10R 1120   3.721   4.618   5.945 -0.3381  0.2375 -1.2599
    9SAPS  H10S 1121   3.735   4.766   6.033  1.0567 -0.7589 -0.2886
    9SAPS  C211 1122   3.536   4.724   5.991 -0.9604  0.2205 -0.1608
    9SAPS  H11R 1123   3.473   4.736   6.081 -0.2545  0.6684  0.2790
    9SAPS  C212 1124   3.477   4.734   5.871 -0.2556 -0.1971  1.0289
    9SAPS  H12R 1125   3.378   4.783   5.875 -0.5403 -0.8054  1.6037
    9SAPS  C213 1126   3.536   4.697   5.728 -0.0450 -0.4887  1.2613
    9SAPS  H13R 1127   3.632   4.752   5.721  0.1699 -0.5336  3.3281
    9SAPS  H13S 1128   3.477   4.746   5.647  4.1343  3.3280  0.1151
    9SAPS  C214 1129   3.553   4.551   5.697 -0.2171  0.0125  0.8936
    9SAPS  H14R 1130   3.622   4.503   5.769  0.4288  1.6736  1.4242
    9SAPS  C215 1131   3.515   4.491   5.581  0.1320 -0.8882  0.1550
    9SAPS  H15R 1132   3.523   4.382   5.568 -1.4601 -0.8966 -1.0299
    9SAPS  C216 1133   3.442   4.557   5.462  0.4147 -0.5068  0.4931
    9SAPS  H16R 1134   3.464   4.663   5.437  1.8182  0.0301  3.5028
    9SAPS  H16S 1135   3.334   4.561   5.486 -0.0136  0.1774 -1.3750
    9SAPS  C217 1136   3.464   4.488   5.321  0.4855  0.4936 -0.2232
    9SAPS  H17R 1137   3.407   4.528   5.234  0.9470 -0.6218 -1.0623
    9SAPS  H17S 1138   3.440   4.380   5.326 -1.2155  0.8411 -0.0267
    9SAPS  C218 1139   3.610   4.491   5.271  0.3288  0.1979 -0.2492
    9SAPS  H18R 1140   3.672   4.448   5.353  0.7402 -0.2242 -0.7795
    9SAPS  H18S 1141   3.637   4.599   5.278  1.4349 -0.0707 -0.0830
    9SAPS  C219 1142   3.627   4.423   5.141  0.0897  0.4750  0.1426
    9SAPS  H19R 1143   3.732   4.444   5.111  0.3563  0.1943  0.8728
    9SAPS  H19S 1144   3.565   4.465   5.059 -0.0789  0.3371  0.1995
    9SAPS  C220 1145   3.601   4.269   5.125  0.5437 -0.4726 -0.3379
    9SAPS  H20R 1146   3.491   4.267   5.109  0.4218  1.2962  0.1254
    9SAPS  H20S 1147   3.616   4.206   5.216 -0.2537 -0.0859  0.0734
    9SAPS  H20T 1148   3.663   4.232   5.040  0.4146  0.2473 -0.7560
    9SAPS   C33 1149   3.437   4.320   6.253 -0.1226  0.3779 -0.4856
    9SAPS   H3X 1150   3.535   4.271   6.234 -0.4322 -0.5891  0.3918
    9SAPS   H3Y 1151   3.441   4.431   6.242  0.8073  0.2894 -1.2035
    9SAPS   C34 1152   3.342   4.257   6.151  0.3520  0.1148 -0.5027
    9SAPS   H4X 1153   3.234   4.282   6.163 -0.1652 -2.0777 -0.2224
    9SAPS   H4Y 1154   3.346   4.147   6.159 -2.8769  0.0372  1.6454
    9SAPS   C35 1155   3.368   4.299   6.002  0.9604  0.4507  0.0969
    9SAPS   H5X 1156   3.473   4.270   5.983  1.9137  3.0616  0.9229
    9SAPS   H5Y 1157   3.355   4.409   5.987  2.9823  0.5169 -1.5628
    9SAPS   C36 1158   3.280   4.221   5.898 -0.5508 -0.8374 -0.0268
    9SAPS   H6X 1159   3.179   4.265   5.912  1.3237  3.3385  1.9926
    9SAPS   H6Y 1160   3.286   4.111   5.918  0.1783 -1.0277 -1.1822
    9SAPS   C37 1161   3.324   4.236   5.752 -0.5749 -0.4391 -0.2715
    9SAPS   H7X 1162   3.430   4.202   5.752 -0.1331  0.6716  2.2369
    9SAPS   H7Y 1163   3.319   4.347   5.744 -1.4471 -0.0297  3.8456
    9SAPS   C38 1164   3.223   4.182   5.652 -0.4999 -0.3258  0.3617
    9SAPS   H8X 1165   3.120   4.223   5.653  0.1767  1.4687  0.4402
    9SAPS   H8Y 1166   3.213   4.072   5.663 -0.0915 -0.3524  0.5025
    9SAPS   C39 1167   3.278   4.191   5.505 -0.1702 -0.4581  0.0927
    9SAPS   H9X 1168   3.360   4.116   5.495 -0.7535 -1.1089  0.0523
    9SAPS   H9Y 1169   3.306   4.294   5.478  0.1096 -0.7010 -0.5434
    9SAPS  C310 1170   3.173   4.155   5.395 -0.0335  0.1504 -0.0147
    9SAPS  H10X 1171   3.086   4.221   5.411  0.8123  1.2061  0.3666
    9SAPS  H10Y 1172   3.143   4.049   5.404  1.6840 -0.6268 -2.4496
    9SAPS  C311 1173   3.222   4.182   5.255  0.6354  0.0805  0.7447
    9SAPS  H11X 1174   3.322   4.134   5.247 -0.1807 -1.5641 -0.4604
    9SAPS  H11Y 1175   3.236   4.289   5.229  0.1114 -0.1182 -0.4607
    9SAPS  C312 1176   3.113   4.138   5.150  0.0365 -0.4573  0.2008
    9SAPS  H12X 1177   3.028   4.208   5.166  0.6344  0.0459  1.3199
    9SAPS  H12Y 1178   3.080   4.034   5.170  0.2382 -0.2508  1.7829
    9SAPS  C313 1179   3.157   4.142   5.007  0.0795 -0.3854  0.1947
    9SAPS  H13X 1180   3.254   4.088   5.000  0.8390  0.7966  1.1582
    9SAPS  H13Y 1181   3.183   4.249   4.992  1.4070 -0.6334  0.5326
    9SAPS  C314 1182   3.066   4.089   4.900  0.3134  0.9818  0.2858
    9SAPS  H14X 1183   2.980   4.160   4.893 -0.9318 -0.3550  1.4601
    9SAPS  H14Y 1184   3.032   3.986   4.924  0.8977  0.9431  0.9723
    9SAPS  C315 1185   3.131   4.082   4.767  0.2576 -0.3205 -0.0059
    9SAPS  H15X 1186   3.213   4.007   4.770 -2.2316 -3.3401 -1.4837
    9SAPS  H15Y 1187   3.173   4.180   4.738 -0.2857 -1.1159 -4.2836
    9SAPS  C316 1188   3.033   4.028   4.664 -0.1000 -0.4203  0.5745
    9SAPS  H16X 1189   2.944   4.094   4.672  0.9384  1.3527 -1.2730
    9SAPS  H16Y 1190   3.017   3.921   4.687 -0.7726  0.2887  3.8005
    9SAPS  C317 1191   3.098   4.029   4.521 -0.1213 -0.5097  0.5723
    9SAPS  H17X 1192   3.200   3.984   4.518 -0.2201 -0.6821 -0.7647
    9SAPS  H17Y 1193   3.112   4.137   4.497  0.6539 -0.9902 -1.3182
    9SAPS  C318 1194   3.010   3.973   4.407 -0.1037 -0.3715 -0.2441
    9SAPS  H18X 1195   3.063   3.949   4.312 -1.9536 -0.3651 -1.3420
    9SAPS  H18Y 1196   2.923   4.041   4.387  1.6405  2.1242  0.2017
    9SAPS  H18Z 1197   2.960   3.878   4.437 -0.5345 -0.1800 -0.3340
   10SAPS     N 1198   3.656   3.873   6.920 -0.1344 -0.4317 -0.2643
   10SAPS   HN1 1199   3.579   3.856   6.852 -1.3809  1.5073  0.5847
   10SAPS   HN2 1200   3.608   3.915   7.002 -2.1427 -0.2796 -1.4641
   10SAPS   HN3 1201   3.724   3.946   6.890  0.1371 -0.9492 -0.9624
   10SAPS   C12 1202   3.729   3.752   6.970 -0.0058 -0.4652  0.6838
   10SAPS  H12A 1203   3.793   3.717   6.890  1.9086 -0.4296  2.1217
   10SAPS   C13 1204   3.818   3.777   7.098 -0.0681  0.2242  0.0772
   10SAPS  O13A 1205   3.819   3.893   7.147  0.9837  0.4661  0.1789
   10SAPS  O13B 1206   3.893   3.685   7.141 -0.1768 -0.7830  0.2001
   10SAPS   C11 1207   3.628   3.632   6.995  0.5132  0.3397 -0.3615
   10SAPS  H11A 1208   3.547   3.654   7.068  1.9184  0.8685  1.1047
   10SAPS  H11B 1209   3.693   3.557   7.045 -0.9763 -0.6684  0.1415
   10SAPS     P 1210   3.600   3.440   6.809  0.2106 -0.5712  0.1211
   10SAPS   O13 1211   3.720   3.431   6.725  0.4334 -0.1342  0.1903
   10SAPS   O14 1212   3.589   3.347   6.922  0.3626  0.6585 -0.3239
   10SAPS   O12 1213   3.579   3.591   6.862 -0.7524 -0.3782  0.1413
   10SAPS   O11 1214   3.474   3.403   6.710 -0.5616 -0.0447  0.3283
   10SAPS    C1 1215   3.424   3.508   6.629 -0.2696  0.2300  0.3635
   10SAPS    HA 1216   3.359   3.574   6.691 -0.5018 -1.7814  2.3840
   10SAPS    HB 1217   3.503   3.568   6.580  0.0655 -1.0080 -0.6224
   10SAPS    C2 1218   3.330   3.441   6.523  0.5305  0.2266 -0.3411
   10SAPS    HS 1219   3.259   3.377   6.580  0.9078  0.0027 -0.1153
   10SAPS   O21 1220   3.402   3.354   6.440  0.0336 -0.4514 -0.3381
   10SAPS   C21 1221   3.339   3.258   6.377  0.8390 -0.2554  0.4760
   10SAPS   O22 1222   3.228   3.217   6.400 -0.0057  0.9876 -0.6760
   10SAPS   C22 1223   3.423   3.202   6.260  0.1946  0.0074 -0.0334
   10SAPS   H2R 1224   3.517   3.262   6.257 -0.1122  0.5209  0.2942
   10SAPS   H2S 1225   3.444   3.096   6.284  2.5300  0.2264 -0.8685
   10SAPS    C3 1226   3.250   3.548   6.446  0.5153 -0.0562 -0.5202
   10SAPS    HX 1227   3.315   3.638   6.444  2.3605 -1.3399 -2.7085
   10SAPS    HY 1228   3.165   3.575   6.513  1.1723 -2.3082  1.3333
   10SAPS   O31 1229   3.204   3.512   6.313 -0.6516 -0.6367 -0.4119
   10SAPS   C31 1230   3.080   3.492   6.301  0.8895 -0.4217  0.5273
   10SAPS   O32 1231   2.993   3.501   6.387  0.2363  0.3747  0.2598
   10SAPS   C32 1232   3.054   3.447   6.159  0.3219  0.3379  0.0371
   10SAPS   H2X 1233   3.067   3.337   6.166 -0.8550  0.0298 -1.9678
   10SAPS   H2Y 1234   3.145   3.479   6.104  0.2320  1.3299  0.4369
   10SAPS   C23 1235   3.348   3.216   6.128 -0.5419 -0.4440  0.5208
   10SAPS   H3R 1236   3.288   3.309   6.126 -0.5527 -0.4592 -0.4857
   10SAPS   H3S 1237   3.274   3.133   6.123  0.0922 -0.9646 -0.7047
   10SAPS   C24 1238   3.446   3.219   6.008  0.0804  0.5533 -0.3680
   10SAPS   H4R 1239   3.390   3.205   5.912  0.2297  0.7256 -0.4805
   10SAPS   H4S 1240   3.512   3.131   6.023 -1.3610 -0.0724  3.0928
   10SAPS   C25 1241   3.535   3.343   6.008 -0.4383  0.1477 -0.4668
   10SAPS   H5R 1242   3.570   3.382   6.105 -1.0650 -0.3103 -0.0499
   10SAPS   C26 1243   3.574   3.403   5.895  0.1466  0.6755  0.0465
   10SAPS   H6R 1244   3.649   3.483   5.904  1.0689 -0.2048  0.3520
   10SAPS   C27 1245   3.554   3.361   5.755 -1.0849  0.3576 -0.1267
   10SAPS   H7R 1246   3.517   3.257   5.744 -0.3491  0.3052 -2.9139
   10SAPS   H7S 1247   3.654   3.355   5.708 -0.5060 -0.1750  1.1264
   10SAPS   C28 1248   3.463   3.452   5.674 -0.2353 -0.7131  0.5282
   10SAPS   H8R 1249   3.385   3.503   5.733 -0.0119 -1.1492  1.2089
   10SAPS   C29 1250   3.460   3.460   5.535 -1.2091 -0.2268 -0.7195
   10SAPS   H9R 1251   3.379   3.517   5.486 -0.8778 -0.1563 -1.1950
   10SAPS  C210 1252   3.559   3.391   5.439  0.2256  0.3417 -0.0368
   10SAPS  H10R 1253   3.556   3.280   5.450  0.4240  0.5645  2.8999
   10SAPS  H10S 1254   3.662   3.417   5.472  0.0029  0.1913  0.7860
   10SAPS  C211 1255   3.529   3.422   5.299  0.1624  0.3391  0.5020
   10SAPS  H11R 1256   3.568   3.522   5.275  1.8331 -0.4206 -0.1555
   10SAPS  C212 1257   3.434   3.363   5.220  0.1047 -0.0579 -0.5395
   10SAPS  H12R 1258   3.414   3.407   5.121  5.0895 -1.8784 -2.7040
   10SAPS  C213 1259   3.357   3.234   5.255  0.0417 -0.1746 -0.3583
   10SAPS  H13R 1260   3.404   3.169   5.332  0.9120 -0.9803 -1.5190
   10SAPS  H13S 1261   3.360   3.158   5.174 -0.3869  0.4497 -0.9705
   10SAPS  C214 1262   3.211   3.257   5.300 -0.1849 -0.1274 -0.4607
   10SAPS  H14R 1263   3.188   3.264   5.407  3.0307  1.1503  0.2918
   10SAPS  C215 1264   3.114   3.306   5.223 -0.6821 -0.4992  0.0828
   10SAPS  H15R 1265   3.011   3.297   5.262 -0.9067 -0.3712 -0.4635
   10SAPS  C216 1266   3.124   3.332   5.074 -0.7628 -0.0386  0.2153
   10SAPS  H16R 1267   3.230   3.329   5.040 -0.4432 -2.1998  1.2203
   10SAPS  H16S 1268   3.078   3.430   5.050 -0.2238  0.5647  1.5596
   10SAPS  C217 1269   3.067   3.207   5.012 -0.0433  0.0472  1.1580
   10SAPS  H17R 1270   2.961   3.192   5.043 -0.7714  0.8577 -0.7521
   10SAPS  H17S 1271   3.134   3.123   5.041 -0.2955 -0.9065 -0.8419
   10SAPS  C218 1272   3.073   3.213   4.859  0.1429  0.1835  0.0189
   10SAPS  H18R 1273   3.174   3.248   4.830  1.5873 -2.8982  0.9500
   10SAPS  H18S 1274   2.996   3.285   4.823 -1.2077 -2.0013 -1.7484
   10SAPS  C219 1275   3.047   3.080   4.785 -0.1146  0.3248 -0.0705
   10SAPS  H19R 1276   2.941   3.051   4.801 -0.0709 -0.4571 -1.0974
   10SAPS  H19S 1277   3.112   2.999   4.823 -0.1900 -0.1172 -0.8562
   10SAPS  C220 1278   3.067   3.104   4.637 -0.3845  0.2526  0.0819
   10SAPS  H20R 1279   3.129   3.194   4.622  1.1414 -0.5903  1.0567
   10SAPS  H20S 1280   2.974   3.128   4.582  1.0595  2.0188 -1.7231
   10SAPS  H20T 1281   3.115   3.017   4.588  1.1758  1.1051  0.0647
   10SAPS   C33 1282   2.919   3.501   6.108  0.0272 -0.0595  0.0733
   10SAPS   H3X 1283   2.892   3.608   6.123 -0.0223 -0.2289  1.3127
   10SAPS   H3Y 1284   2.838   3.456   6.169  0.6400  1.3056  1.9995
   10SAPS   C34 1285   2.891   3.462   5.962 -0.0098  0.6517 -0.2294
   10SAPS   H4X 1286   2.786   3.483   5.931  0.1464  0.8602 -0.6108
   10SAPS   H4Y 1287   2.891   3.351   5.957  0.5271  0.6737 -0.6814
   10SAPS   C35 1288   2.983   3.513   5.851  0.4728 -0.4711 -0.4938
   10SAPS   H5X 1289   2.952   3.474   5.752  1.6571 -0.9180 -0.7096
   10SAPS   H5Y 1290   3.082   3.468   5.875 -0.5402 -1.8998  1.2924
   10SAPS   C36 1291   2.980   3.669   5.850 -1.0774  0.5673  0.4179
   10SAPS   H6X 1292   3.038   3.713   5.935 -1.3300 -1.3620  1.6506
   10SAPS   H6Y 1293   2.873   3.699   5.849 -0.9723  0.9246 -0.2274
   10SAPS   C37 1294   3.042   3.726   5.717  0.0844 -0.4908 -0.4517
   10SAPS   H7X 1295   3.020   3.834   5.706 -2.1577 -0.4996  2.6700
   10SAPS   H7Y 1296   2.978   3.688   5.633 -2.1689  0.6111  0.6831
   10SAPS   C38 1297   3.182   3.689   5.689 -0.0139  0.1012 -0.1565
   10SAPS   H8X 1298   3.183   3.581   5.666  1.8874 -0.4546  2.1300
   10SAPS   H8Y 1299   3.244   3.702   5.780 -1.0170 -1.4577  0.7796
   10SAPS   C39 1300   3.251   3.773   5.577 -0.3722  0.1055 -0.3148
   10SAPS   H9X 1301   3.359   3.755   5.594 -0.5179 -0.7408 -0.2530
   10SAPS   H9Y 1302   3.228   3.877   5.608  2.4710  0.8549 -0.3842
   10SAPS  C310 1303   3.208   3.727   5.444  0.1844 -0.1795 -0.0419
   10SAPS  H10X 1304   3.125   3.791   5.410  0.1173  0.2761  0.9561
   10SAPS  H10Y 1305   3.189   3.618   5.454  1.2367 -0.8277 -3.5176
   10SAPS  C311 1306   3.315   3.727   5.332 -0.6186  0.1671  0.1971
   10SAPS  H11X 1307   3.305   3.642   5.262  0.1797  0.8301 -0.7474
   10SAPS  H11Y 1308   3.414   3.703   5.378 -0.2735  0.3033 -0.4573
   10SAPS  C312 1309   3.343   3.862   5.267 -0.5411 -0.2016  0.0413
   10SAPS  H12X 1310   3.401   3.915   5.345 -0.4430 -1.2909  0.7170
   10SAPS  H12Y 1311   3.243   3.911   5.259 -0.4546 -0.3089 -3.5436
   10SAPS  C313 1312   3.407   3.860   5.127 -0.1485  0.3086  0.6129
   10SAPS  H13X 1313   3.495   3.797   5.153  1.4380  2.6814  1.2735
   10SAPS  H13Y 1314   3.445   3.958   5.092 -0.8433 -0.0721 -1.3582
   10SAPS  C314 1315   3.328   3.792   5.014 -1.0526 -0.3831  0.0896
   10SAPS  H14X 1316   3.243   3.862   5.002  1.0075  2.7876  2.2761
   10SAPS  H14Y 1317   3.294   3.692   5.049 -0.3476 -1.0218 -0.9931
   10SAPS  C315 1318   3.401   3.761   4.880  0.3212  0.0335  0.5670
   10SAPS  H15X 1319   3.488   3.693   4.891 -0.4132 -0.9398  0.4678
   10SAPS  H15Y 1320   3.443   3.859   4.849  0.8030  0.4817  2.4694
   10SAPS  C316 1321   3.301   3.695   4.781 -1.0833 -0.0589  0.7801
   10SAPS  H16X 1322   3.244   3.785   4.747 -0.3067  0.5169  0.9691
   10SAPS  H16Y 1323   3.232   3.623   4.831 -0.3792 -0.2833  1.4357
   10SAPS  C317 1324   3.377   3.626   4.668  0.1737  0.4348 -0.0763
   10SAPS  H17X 1325   3.440   3.549   4.717  0.4477  1.2196  0.8412
   10SAPS  H17Y 1326   3.437   3.706   4.619 -0.0775  1.1404  0.7496
   10SAPS  C318 1327   3.287   3.554   4.564  0.9655  0.3326 -0.0920
   10SAPS  H18X 1328   3.209   3.491   4.612  2.7461 -2.2043 -0.2735
   10SAPS  H18Y 1329   3.353   3.489   4.503  0.5290 -0.4741  0.2801
   10SAPS  H18Z 1330   3.241   3.630   4.498  1.2849 -0.7785 -1.6369
   11SAPS     N 1331   3.778   2.481   1.956 -0.3258  0.6062 -0.0999
   11SAPS   HN1 1332   3.686   2.445   1.924 -1.2159  1.7142  1.0698
   11SAPS   HN2 1333   3.814   2.422   2.033  0.4710  1.8968  0.5584
   11SAPS   HN3 1334   3.764   2.577   1.994 -2.8857 -0.2668  1.4502
   11SAPS   C12 1335   3.884   2.486   1.847 -0.1235 -0.3649  0.2502
   11SAPS  H12A 1336   3.887   2.392   1.794 -1.6601 -0.6781  0.6736
   11SAPS   C13 1337   3.854   2.601   1.751 -0.0843  0.0082 -0.8046
   11SAPS  O13A 1338   3.764   2.693   1.778 -0.4307  0.1885 -0.5299
   11SAPS  O13B 1339   3.930   2.615   1.651  0.2370  0.0904  0.1960
   11SAPS   C11 1340   4.026   2.503   1.914  0.1940 -0.4653 -0.9727
   11SAPS  H11A 1341   4.011   2.582   1.992  1.3367 -1.7495  0.6334
   11SAPS  H11B 1342   4.093   2.547   1.837  0.3277  1.1025 -0.0157
   11SAPS     P 1343   4.236   2.354   1.989  0.2780  0.2968 -0.2737
   11SAPS   O13 1344   4.287   2.259   1.884 -0.5566 -0.1986  0.1948
   11SAPS   O14 1345   4.294   2.485   2.003 -0.2725 -0.3474 -0.2291
   11SAPS   O12 1346   4.083   2.383   1.973  0.1292  0.3130 -0.1649
   11SAPS   O11 1347   4.239   2.289   2.128 -0.3147 -0.5928  0.1761
   11SAPS    C1 1348   4.138   2.195   2.175  0.0670  0.0662  0.4527
   11SAPS    HA 1349   4.046   2.204   2.114  0.5990  0.3395 -0.3266
   11SAPS    HB 1350   4.167   2.089   2.161  2.2172  0.7034 -0.2925
   11SAPS    C2 1351   4.114   2.212   2.325  0.4171 -1.4190  0.4082
   11SAPS    HS 1352   4.016   2.170   2.357 -0.5592  0.6212  0.2988
   11SAPS   O21 1353   4.115   2.350   2.353 -0.2298 -0.3649 -0.5824
   11SAPS   C21 1354   4.020   2.425   2.303 -0.0492  0.2729  0.2457
   11SAPS   O22 1355   3.921   2.385   2.244  0.3735  0.2167  0.3844
   11SAPS   C22 1356   4.039   2.565   2.362  0.3978  0.1729  0.1716
   11SAPS   H2R 1357   4.136   2.609   2.329  0.1288 -0.4845 -1.5659
   11SAPS   H2S 1358   3.946   2.623   2.350  1.0005  1.5949  1.8701
   11SAPS    C3 1359   4.225   2.130   2.403 -0.1876  0.1999  0.2279
   11SAPS    HX 1360   4.329   2.164   2.382  0.3457 -0.9293  0.9597
   11SAPS    HY 1361   4.208   2.028   2.363  2.4546  0.3039 -1.3417
   11SAPS   O31 1362   4.205   2.118   2.541 -0.3086  0.0180 -0.1063
   11SAPS   C31 1363   4.264   2.208   2.614 -0.4804  0.7909 -0.5138
   11SAPS   O32 1364   4.344   2.291   2.580  0.0717 -0.1653 -0.4339
   11SAPS   C32 1365   4.204   2.195   2.756  0.4651  0.8958 -0.1859
   11SAPS   H2X 1366   4.212   2.088   2.787 -1.6016  0.7730  0.0467
   11SAPS   H2Y 1367   4.099   2.228   2.743  0.9706  2.4392 -0.5520
   11SAPS   C23 1368   4.072   2.559   2.513  0.4416 -0.2429 -0.2309
   11SAPS   H3R 1369   4.070   2.666   2.542  0.0694 -0.1332 -0.6403
   11SAPS   H3S 1370   4.171   2.510   2.526  0.8130  0.9210  1.6144
   11SAPS   C24 1371   3.969   2.481   2.606  0.2292 -1.1462  0.0225
   11SAPS   H4R 1372   4.017   2.473   2.707  0.0103 -0.0898  0.2171
   11SAPS   H4S 1373   3.962   2.385   2.551 -1.1285 -0.0285 -1.8626
   11SAPS   C25 1374   3.830   2.545   2.612 -0.6914  0.0209 -0.5512
   11SAPS   H5R 1375   3.758   2.521   2.533 -2.0462 -1.1600  0.9702
   11SAPS   C26 1376   3.766   2.606   2.723 -0.2596 -0.1153  0.2165
   11SAPS   H6R 1377   3.665   2.647   2.706  0.5470  1.4564 -1.0790
   11SAPS   C27 1378   3.830   2.634   2.861  0.7599 -0.1895 -0.0876
   11SAPS   H7R 1379   3.919   2.568   2.867  0.4503 -0.6065  0.0170
   11SAPS   H7S 1380   3.764   2.605   2.946  1.0242  1.4410  0.7099
   11SAPS   C28 1381   3.886   2.773   2.880  0.1377 -0.7468  0.0462
   11SAPS   H8R 1382   3.875   2.839   2.793  0.8939 -0.4424  0.1725
   11SAPS   C29 1383   3.926   2.822   2.996 -0.0539 -0.3347 -0.4939
   11SAPS   H9R 1384   3.962   2.926   2.997  0.4946 -0.4986 -1.5589
   11SAPS  C210 1385   3.923   2.760   3.130 -0.5747 -0.3818  0.2467
   11SAPS  H10R 1386   4.022   2.760   3.181 -0.3530 -1.1333 -0.1670
   11SAPS  H10S 1387   3.907   2.651   3.116 -0.3956 -0.3434 -0.2718
   11SAPS  C211 1388   3.815   2.826   3.213 -0.4281  0.6301  0.1828
   11SAPS  H11R 1389   3.717   2.826   3.162 -1.9266  0.3898  2.8900
   11SAPS  C212 1390   3.821   2.881   3.336  0.0174 -0.0524 -1.0582
   11SAPS  H12R 1391   3.738   2.943   3.372  0.8630  0.6059 -0.1815
   11SAPS  C213 1392   3.945   2.885   3.424 -0.5363  0.6793  0.0517
   11SAPS  H13R 1393   3.946   2.976   3.488 -2.9804  0.9886 -0.2618
   11SAPS  H13S 1394   4.028   2.905   3.353 -0.2499  2.0293  0.7368
   11SAPS  C214 1395   3.986   2.758   3.502  0.2611 -0.6368 -0.1737
   11SAPS  H14R 1396   4.038   2.689   3.434 -0.5011 -1.2937 -0.1069
   11SAPS  C215 1397   3.960   2.730   3.628  1.0394 -0.2222  0.2190
   11SAPS  H15R 1398   4.001   2.639   3.674 -2.2878 -1.8482  0.2902
   11SAPS  C216 1399   3.876   2.812   3.726 -0.0046  0.6798  0.0376
   11SAPS  H16R 1400   3.783   2.758   3.755  1.3533 -1.7979  0.0581
   11SAPS  H16S 1401   3.850   2.914   3.690  0.2998  0.1507 -1.7587
   11SAPS  C217 1402   3.960   2.830   3.854 -0.3397  0.5656 -0.2520
   11SAPS  H17R 1403   4.064   2.864   3.834  1.0839 -3.3613 -0.2700
   11SAPS  H17S 1404   3.964   2.734   3.909  1.1147 -0.8862 -2.7031
   11SAPS  C218 1405   3.901   2.934   3.956  0.2932  0.4678 -0.1817
   11SAPS  H18R 1406   3.790   2.926   3.954  0.1658  1.9013  0.0666
   11SAPS  H18S 1407   3.914   3.032   3.906  2.6791 -0.7285 -2.1316
   11SAPS  C219 1408   3.974   2.927   4.091 -0.0530  0.7212  0.0691
   11SAPS  H19R 1409   4.085   2.918   4.092 -0.1851 -1.2560  1.0828
   11SAPS  H19S 1410   3.926   2.846   4.150 -1.2027  1.6464  0.4480
   11SAPS  C220 1411   3.951   3.055   4.166 -0.2029 -0.3120  0.1466
   11SAPS  H20R 1412   3.844   3.084   4.167 -0.5954 -1.6275 -0.4200
   11SAPS  H20S 1413   3.990   3.148   4.120 -1.8000 -1.1583 -3.2346
   11SAPS  H20T 1414   3.976   3.047   4.274 -0.1346  1.7358  0.3076
   11SAPS   C33 1415   4.277   2.279   2.862 -0.1056 -0.6748 -0.1999
   11SAPS   H3X 1416   4.258   2.385   2.834 -0.2878 -0.5309  0.4326
   11SAPS   H3Y 1417   4.386   2.259   2.851  0.2696 -0.0228  1.8765
   11SAPS   C34 1418   4.219   2.254   3.000 -0.4862  0.2825 -0.9155
   11SAPS   H4X 1419   4.244   2.146   3.013 -0.6631  0.1467 -1.6963
   11SAPS   H4Y 1420   4.110   2.267   3.013  0.0227  2.3918  2.7144
   11SAPS   C35 1421   4.295   2.328   3.116  0.1740 -0.5423 -0.3026
   11SAPS   H5X 1422   4.292   2.438   3.099  0.5531 -0.2336  1.4003
   11SAPS   H5Y 1423   4.399   2.292   3.109  0.2684 -0.6155  1.1386
   11SAPS   C36 1424   4.232   2.314   3.260 -0.4475 -0.3333  0.3268
   11SAPS   H6X 1425   4.192   2.210   3.264  0.5189 -0.7205  0.1766
   11SAPS   H6Y 1426   4.147   2.385   3.268 -1.9410 -2.0892  0.7834
   11SAPS   C37 1427   4.324   2.342   3.376 -0.2646 -0.3481 -0.2177
   11SAPS   H7X 1428   4.370   2.443   3.367  0.0934 -0.3399  1.4186
   11SAPS   H7Y 1429   4.415   2.277   3.380  0.6577  0.9739  2.4971
   11SAPS   C38 1430   4.255   2.337   3.510 -0.0334  0.2817  0.0749
   11SAPS   H8X 1431   4.181   2.254   3.513 -0.7908  0.9112 -0.8798
   11SAPS   H8Y 1432   4.190   2.426   3.504  1.2118  1.0817 -3.0469
   11SAPS   C39 1433   4.347   2.334   3.629  0.4606 -0.2297  0.7830
   11SAPS   H9X 1434   4.405   2.428   3.640  0.0026  0.0189  1.1111
   11SAPS   H9Y 1435   4.421   2.252   3.617  0.7896 -0.1087  1.8774
   11SAPS  C310 1436   4.269   2.323   3.759 -0.2684 -0.0219  0.1695
   11SAPS  H10X 1437   4.218   2.225   3.756 -2.5857  1.1173 -1.7920
   11SAPS  H10Y 1438   4.185   2.396   3.751 -0.5842 -0.2356  1.3687
   11SAPS  C311 1439   4.337   2.337   3.891  0.0241  0.5304 -0.1425
   11SAPS  H11X 1440   4.380   2.440   3.898 -0.1020  0.5532  0.3890
   11SAPS  H11Y 1441   4.426   2.272   3.905 -0.2607  0.4291  1.4645
   11SAPS  C312 1442   4.237   2.323   4.012  0.0354  0.2233 -0.4990
   11SAPS  H12X 1443   4.191   2.222   4.008  1.1780 -0.2597 -2.2448
   11SAPS  H12Y 1444   4.154   2.395   4.000  0.5239  0.8186 -0.3305
   11SAPS  C313 1445   4.308   2.339   4.147  0.2079 -0.7272  0.7450
   11SAPS  H13X 1446   4.374   2.429   4.146 -1.5190  0.6192 -0.7742
   11SAPS  H13Y 1447   4.375   2.253   4.162  1.0867 -0.5223 -1.6026
   11SAPS  C314 1448   4.215   2.340   4.270 -0.4295 -0.4371  0.0517
   11SAPS  H14X 1449   4.109   2.322   4.243 -0.3728 -1.9840  0.7845
   11SAPS  H14Y 1450   4.221   2.439   4.320  2.5846 -0.4325 -0.1020
   11SAPS  C315 1451   4.255   2.242   4.375 -0.3575 -0.1079  0.0311
   11SAPS  H15X 1452   4.348   2.290   4.412 -0.0077 -0.9011  0.2120
   11SAPS  H15Y 1453   4.266   2.145   4.322 -1.2265  0.5958 -1.4862
   11SAPS  C316 1454   4.156   2.224   4.486  0.7042  0.0511  0.1059
   11SAPS  H16X 1455   4.053   2.234   4.445  0.3074  1.8280  1.4041
   11SAPS  H16Y 1456   4.166   2.308   4.558 -0.9592  1.2606 -0.9817
   11SAPS  C317 1457   4.169   2.094   4.564 -0.6573  1.0732 -0.3960
   11SAPS  H17X 1458   4.278   2.072   4.575 -1.0322 -1.3224 -0.8900
   11SAPS  H17Y 1459   4.128   2.006   4.510  1.7612  0.2855 -1.0907
   11SAPS  C318 1460   4.103   2.109   4.704 -0.2530  0.1424 -0.5644
   11SAPS  H18X 1461   4.114   2.017   4.765 -0.5181  0.4264 -0.0866
   11SAPS  H18Y 1462   3.993   2.113   4.684 -0.4140  1.6065  0.5154
   11SAPS  H18Z 1463   4.137   2.199   4.759 -0.9541  0.0083  0.1091
   12SAPS     N 1464   3.867   1.976   1.899  0.8426  0.0780 -0.2604
   12SAPS   HN1 1465   3.831   1.936   1.810 -1.8336  0.7764  0.4123
   12SAPS   HN2 1466   3.946   2.039   1.876  1.6326 -0.6363  0.4340
   12SAPS   HN3 1467   3.904   1.899   1.958 -2.0446 -0.4110  1.1147
   12SAPS   C12 1468   3.749   2.038   1.973  0.3440  0.1859  0.3898
   12SAPS  H12A 1469   3.777   2.045   2.077 -0.0236 -2.4480  0.7432
   12SAPS   C13 1470   3.707   2.171   1.921 -0.1964 -0.3071  0.9065
   12SAPS  O13A 1471   3.753   2.217   1.809  0.0498 -0.3109 -0.1391
   12SAPS  O13B 1472   3.610   2.227   1.975  1.0175  0.1619 -0.3624
   12SAPS   C11 1473   3.620   1.942   1.970  0.3165 -0.5102 -0.1866
   12SAPS  H11A 1474   3.595   1.917   1.865  1.7310 -1.1185 -0.3991
   12SAPS  H11B 1475   3.534   1.993   2.020  1.0733 -1.5908  2.3733
   12SAPS     P 1476   3.594   1.683   2.027  0.1019 -0.0389  0.1550
   12SAPS   O13 1477   3.460   1.691   1.956 -0.8172  0.0605 -0.3109
   12SAPS   O14 1478   3.703   1.610   1.956  0.0472  0.1715 -0.2180
   12SAPS   O12 1479   3.651   1.824   2.046  0.2483 -0.1592 -0.3625
   12SAPS   O11 1480   3.588   1.604   2.171  1.0041 -0.2839  0.5886
   12SAPS    C1 1481   3.689   1.624   2.274  0.0427 -0.4005  0.4479
   12SAPS    HA 1482   3.750   1.531   2.281  2.1898  0.7609 -1.3690
   12SAPS    HB 1483   3.768   1.696   2.244 -0.7379  0.1530 -0.3249
   12SAPS    C2 1484   3.617   1.681   2.403 -0.3735 -0.4408  1.0307
   12SAPS    HS 1485   3.516   1.638   2.416 -0.9039  0.0482 -1.0932
   12SAPS   O21 1486   3.611   1.823   2.378  0.1867 -0.4721  0.3694
   12SAPS   C21 1487   3.514   1.895   2.439  0.8518  0.5430  0.4679
   12SAPS   O22 1488   3.427   1.843   2.508 -0.0989 -0.0609 -0.2975
   12SAPS   C22 1489   3.519   2.035   2.379 -0.3989 -0.0880 -0.1300
   12SAPS   H2R 1490   3.616   2.058   2.330 -1.6261  1.6989 -1.8915
   12SAPS   H2S 1491   3.432   2.042   2.309  0.4256 -1.1399 -1.2983
   12SAPS    C3 1492   3.696   1.650   2.531  0.6931  0.4612 -0.5603
   12SAPS    HX 1493   3.794   1.697   2.510 -0.1126  2.2515 -0.4874
   12SAPS    HY 1494   3.705   1.540   2.543  0.8295  0.4641 -0.6335
   12SAPS   O31 1495   3.652   1.713   2.659 -0.0588 -0.5787  0.3650
   12SAPS   C31 1496   3.548   1.668   2.723 -0.1811 -0.0418 -0.7440
   12SAPS   O32 1497   3.482   1.572   2.694  0.4404 -0.0772  0.1377
   12SAPS   C32 1498   3.530   1.751   2.851 -0.6068  0.7301  0.1088
   12SAPS   H2X 1499   3.429   1.797   2.859  0.0424  1.9901  1.7814
   12SAPS   H2Y 1500   3.589   1.843   2.826 -0.3496  0.5533  0.0621
   12SAPS   C23 1501   3.509   2.149   2.486  0.5019 -0.2323  0.2173
   12SAPS   H3R 1502   3.443   2.126   2.572  0.6847 -0.0919  0.3939
   12SAPS   H3S 1503   3.467   2.241   2.440  0.4653  1.7049  3.8248
   12SAPS   C24 1504   3.650   2.191   2.550  0.5452 -0.7512 -0.6001
   12SAPS   H4R 1505   3.644   2.281   2.615  1.7791 -0.2905 -1.1054
   12SAPS   H4S 1506   3.716   2.219   2.465  0.9543  0.6197  0.1351
   12SAPS   C25 1507   3.724   2.091   2.639  0.9951 -0.2284  0.2916
   12SAPS   H5R 1508   3.793   2.019   2.592  1.0111  0.4437 -0.7502
   12SAPS   C26 1509   3.696   2.092   2.771 -0.0440  0.2266 -0.0334
   12SAPS   H6R 1510   3.757   2.026   2.834  0.6122  0.8139 -0.0324
   12SAPS   C27 1511   3.597   2.169   2.847 -0.1061  0.0471 -0.2822
   12SAPS   H7R 1512   3.538   2.105   2.916  0.5912  0.2000  0.4761
   12SAPS   H7S 1513   3.522   2.220   2.782 -1.2007 -0.8073  0.2654
   12SAPS   C28 1514   3.653   2.282   2.933 -0.3245  0.5629  0.1736
   12SAPS   H8R 1515   3.660   2.379   2.881 -0.4804 -0.6741 -2.2925
   12SAPS   C29 1516   3.705   2.273   3.056 -0.3554  0.0060  0.2966
   12SAPS   H9R 1517   3.734   2.364   3.110  0.4062 -0.5979  0.9336
   12SAPS  C210 1518   3.719   2.149   3.135  0.7879  0.6110 -1.1172
   12SAPS  H10R 1519   3.697   2.066   3.064 -1.3250  0.9724 -0.9707
   12SAPS  H10S 1520   3.634   2.148   3.207  0.3460 -0.0728 -1.6307
   12SAPS  C211 1521   3.855   2.132   3.189 -0.4284  0.1654  0.3347
   12SAPS  H11R 1522   3.918   2.071   3.122  0.2583  1.2256 -0.0087
   12SAPS  C212 1523   3.894   2.168   3.307 -0.1105 -0.2569  0.3409
   12SAPS  H12R 1524   3.996   2.147   3.341 -0.7137 -1.7364  1.3402
   12SAPS  C213 1525   3.817   2.248   3.406 -0.1835 -0.0096  0.4504
   12SAPS  H13R 1526   3.727   2.190   3.437 -0.7431  1.0889  0.9687
   12SAPS  H13S 1527   3.783   2.346   3.366  0.3180 -0.1426 -0.3284
   12SAPS  C214 1528   3.888   2.278   3.534  0.1548 -0.0679 -0.0659
   12SAPS  H14R 1529   3.900   2.387   3.548 -0.1089  0.3661 -2.6790
   12SAPS  C215 1530   3.936   2.189   3.615 -0.0004 -0.4835 -0.1192
   12SAPS  H15R 1531   3.977   2.230   3.708 -0.2612  3.2129 -1.4724
   12SAPS  C216 1532   3.925   2.036   3.610 -0.0359 -0.0820 -0.1779
   12SAPS  H16R 1533   4.013   1.988   3.562  1.2740 -0.9678  2.8906
   12SAPS  H16S 1534   3.831   2.016   3.554 -0.3417  1.1167 -0.1360
   12SAPS  C217 1535   3.905   1.975   3.752  0.5346 -0.6294 -0.7611
   12SAPS  H17R 1536   3.894   1.864   3.752 -0.5695 -0.5726  1.0465
   12SAPS  H17S 1537   3.802   2.014   3.769  0.2737 -1.4855 -0.2826
   12SAPS  C218 1538   3.996   2.025   3.860 -1.0049 -0.0203 -0.7941
   12SAPS  H18R 1539   3.981   2.131   3.890  1.1951 -0.1300  0.9556
   12SAPS  H18S 1540   4.099   2.008   3.822 -1.5113  0.4790 -2.4872
   12SAPS  C219 1541   3.983   1.944   3.988 -0.3587 -0.1342  0.0032
   12SAPS  H19R 1542   4.015   1.838   3.979 -1.5298 -0.6755  1.6601
   12SAPS  H19S 1543   3.874   1.943   4.013 -0.6280  0.4043 -1.0913
   12SAPS  C220 1544   4.078   1.991   4.100  0.8552  0.5178  0.9055
   12SAPS  H20R 1545   4.182   1.979   4.063  1.2683  0.5106  2.0386
   12SAPS  H20S 1546   4.069   1.930   4.192 -0.4829  0.8944  1.0453
   12SAPS  H20T 1547   4.054   2.099   4.114  0.9130  0.7409 -0.5825
   12SAPS   C33 1548   3.565   1.677   2.980  0.0082 -0.2413 -0.1679
   12SAPS   H3X 1549   3.659   1.620   2.996  1.3623  1.5611 -1.2549
   12SAPS   H3Y 1550   3.488   1.599   2.997  1.5993 -2.5292 -2.5633
   12SAPS   C34 1551   3.579   1.783   3.092 -0.1239  0.3904 -0.3125
   12SAPS   H4X 1552   3.482   1.820   3.131 -0.1545  0.2821 -0.2843
   12SAPS   H4Y 1553   3.622   1.870   3.039  1.5996 -0.5817 -0.6107
   12SAPS   C35 1554   3.681   1.750   3.199 -0.6549  0.1892  0.0256
   12SAPS   H5X 1555   3.704   1.844   3.253 -1.2769 -0.4744  1.5160
   12SAPS   H5Y 1556   3.776   1.705   3.163 -0.4123 -0.9229  1.8725
   12SAPS   C36 1557   3.619   1.660   3.314  0.1690 -0.0543  0.0379
   12SAPS   H6X 1558   3.604   1.556   3.279 -1.2009 -0.0225  0.4785
   12SAPS   H6Y 1559   3.521   1.704   3.345 -0.7940 -1.6283 -0.6638
   12SAPS   C37 1560   3.707   1.650   3.440  0.2758  0.2185  0.4817
   12SAPS   H7X 1561   3.730   1.753   3.476  1.4353 -1.4738  5.3760
   12SAPS   H7Y 1562   3.806   1.603   3.420  0.2746  0.2461  0.4112
   12SAPS   C38 1563   3.636   1.573   3.558 -0.1121  0.2487  0.7191
   12SAPS   H8X 1564   3.606   1.472   3.522  1.6613  0.5516 -1.8471
   12SAPS   H8Y 1565   3.540   1.627   3.575 -2.4071 -1.8535 -3.7395
   12SAPS   C39 1566   3.732   1.566   3.682 -0.7000 -0.4510  0.4334
   12SAPS   H9X 1567   3.756   1.671   3.711  0.1858 -0.2556 -0.9030
   12SAPS   H9Y 1568   3.822   1.503   3.666 -1.4929 -1.7486  0.9487
   12SAPS  C310 1569   3.661   1.507   3.812  0.5127  0.6019 -0.9453
   12SAPS  H10X 1570   3.642   1.402   3.781 -0.2662  0.4811 -0.0800
   12SAPS  H10Y 1571   3.563   1.559   3.816 -0.5278 -1.3083  0.0119
   12SAPS  C311 1572   3.730   1.507   3.947  0.4062 -0.6154  0.2294
   12SAPS  H11X 1573   3.678   1.441   4.019  0.6970  0.8006  1.7807
   12SAPS  H11Y 1574   3.747   1.612   3.979 -0.1477  0.2262 -2.0563
   12SAPS  C312 1575   3.877   1.445   3.946 -0.1729 -0.5927  0.3851
   12SAPS  H12X 1576   3.943   1.520   3.898 -0.5060 -0.5884 -0.0690
   12SAPS  H12Y 1577   3.894   1.357   3.882  1.6259  0.4536 -0.6622
   12SAPS  C313 1578   3.928   1.419   4.090  0.2379  0.1565 -0.0117
   12SAPS  H13X 1579   3.914   1.310   4.107 -0.4910  0.0783 -1.0264
   12SAPS  H13Y 1580   3.873   1.470   4.172  0.7299  1.0254 -0.2072
   12SAPS  C314 1581   4.083   1.457   4.117 -0.1217  0.3199  0.2156
   12SAPS  H14X 1582   4.098   1.566   4.112 -1.0766  0.4492 -0.1678
   12SAPS  H14Y 1583   4.136   1.407   4.033  0.2854  1.4106 -0.1817
   12SAPS  C315 1584   4.135   1.388   4.246 -0.5976 -0.2067  0.2955
   12SAPS  H15X 1585   4.118   1.279   4.238 -0.1437 -0.3122  0.6864
   12SAPS  H15Y 1586   4.070   1.423   4.329  1.4244  1.2003  1.3854
   12SAPS  C316 1587   4.267   1.439   4.283  0.0092  0.5957 -0.2716
   12SAPS  H16X 1588   4.266   1.550   4.285 -0.3517  0.5867  0.4249
   12SAPS  H16Y 1589   4.357   1.425   4.220 -1.1528  0.2505 -1.8973
   12SAPS  C317 1590   4.312   1.399   4.423 -0.1132 -0.3628 -0.3541
   12SAPS  H17X 1591   4.232   1.397   4.500 -1.4841 -1.4280 -1.7505
   12SAPS  H17Y 1592   4.399   1.464   4.448 -1.2828  1.5635 -1.1216
   12SAPS  C318 1593   4.360   1.251   4.432 -0.3278 -0.0731  0.5073
   12SAPS  H18X 1594   4.446   1.229   4.365 -0.8927  1.8807 -0.9692
   12SAPS  H18Y 1595   4.283   1.178   4.399 -0.1208  0.7153 -1.8889
   12SAPS  H18Z 1596   4.383   1.225   4.537  1.7935  1.9615  0.6362
   13SAPS     N 1597   0.821   1.928   2.339  0.5821 -0.0596 -0.1592
   13SAPS   HN1 1598   0.907   1.875   2.366  0.9671  0.4324 -0.4032
   13SAPS   HN2 1599   0.802   2.000   2.412 -0.2652 -0.4753  0.0367
   13SAPS   HN3 1600   0.745   1.859   2.327 -1.2919  2.1563 -1.8656
   13SAPS   C12 1601   0.836   1.994   2.202  0.1351 -0.7442  0.3086
   13SAPS  H12A 1602   0.940   2.021   2.186 -0.7772  3.0078 -0.2535
   13SAPS   C13 1603   0.782   1.912   2.082  0.2012 -0.2611  0.1837
   13SAPS  O13A 1604   0.732   1.800   2.101  0.1920  0.6302 -0.0793
   13SAPS  O13B 1605   0.771   1.963   1.968  0.1594  0.6720 -0.4594
   13SAPS   C11 1606   0.762   2.137   2.216  0.1073  0.5587  0.4739
   13SAPS  H11A 1607   0.666   2.101   2.257 -0.3536 -0.0956 -1.1071
   13SAPS  H11B 1608   0.744   2.179   2.115 -1.8109  0.1734  0.6222
   13SAPS     P 1609   0.769   2.284   2.432 -0.2993  0.1102  0.4340
   13SAPS   O13 1610   0.877   2.342   2.519  0.2921  0.6642 -0.4193
   13SAPS   O14 1611   0.662   2.381   2.408  0.0254 -0.4206  0.2773
   13SAPS   O12 1612   0.831   2.232   2.295  0.0946  0.5500 -0.4020
   13SAPS   O11 1613   0.721   2.144   2.488  0.1024 -0.3659 -0.1023
   13SAPS    C1 1614   0.636   2.135   2.606 -0.0858  0.2260 -0.3171
   13SAPS    HA 1615   0.562   2.218   2.602  0.0296  0.5131  2.1491
   13SAPS    HB 1616   0.577   2.041   2.604 -3.5712  2.1867  1.3377
   13SAPS    C2 1617   0.727   2.146   2.730  0.3749 -0.4631 -0.5283
   13SAPS    HS 1618   0.827   2.185   2.701  0.3765  1.1922  1.4500
   13SAPS   O21 1619   0.741   2.020   2.798  0.3259 -0.2902  0.1136
   13SAPS   C21 1620   0.812   1.928   2.723 -0.4337 -0.2674  0.1750
   13SAPS   O22 1621   0.878   1.966   2.622 -0.1490  0.1156 -0.6180
   13SAPS   C22 1622   0.773   1.791   2.770 -0.6869  0.7705 -0.3804
   13SAPS   H2R 1623   0.859   1.723   2.751  1.4152  2.0856  3.3531
   13SAPS   H2S 1624   0.750   1.814   2.876 -0.2739  2.0460 -0.5519
   13SAPS    C3 1625   0.664   2.244   2.836  0.0103 -0.0632  0.5504
   13SAPS    HX 1626   0.724   2.226   2.927  0.0253 -0.4991  0.4574
   13SAPS    HY 1627   0.561   2.217   2.869 -0.0413  1.5027  1.8185
   13SAPS   O31 1628   0.655   2.385   2.791  0.2132 -0.4027  0.0567
   13SAPS   C31 1629   0.747   2.465   2.839 -0.2193  1.1720 -0.3843
   13SAPS   O32 1630   0.853   2.425   2.896  0.3133 -0.4463 -0.3565
   13SAPS   C32 1631   0.717   2.604   2.800 -0.0930 -0.2488  0.6092
   13SAPS   H2X 1632   0.740   2.672   2.885 -1.5019  0.8412  0.1560
   13SAPS   H2Y 1633   0.609   2.614   2.778  0.5825  2.5285 -2.0459
   13SAPS   C23 1634   0.646   1.736   2.703 -0.0072 -0.4284  0.0925
   13SAPS   H3R 1635   0.665   1.715   2.596  2.4848 -2.2954  0.8042
   13SAPS   H3S 1636   0.566   1.814   2.701 -1.6118 -1.8713  2.1767
   13SAPS   C24 1637   0.588   1.618   2.783  0.2354 -0.1679  0.5473
   13SAPS   H4R 1638   0.493   1.588   2.733 -1.0764  2.2718  1.4091
   13SAPS   H4S 1639   0.562   1.651   2.886 -2.3682 -0.1867 -0.0166
   13SAPS   C25 1640   0.688   1.512   2.779  0.2223 -0.0304  0.3155
   13SAPS   H5R 1641   0.718   1.470   2.682  1.1327 -0.3675  0.7280
   13SAPS   C26 1642   0.759   1.473   2.884 -0.2324  0.4566  0.4299
   13SAPS   H6R 1643   0.827   1.387   2.873  0.7429  1.3436 -0.7374
   13SAPS   C27 1644   0.754   1.529   3.027 -0.4913  0.1356  0.4353
   13SAPS   H7R 1645   0.653   1.569   3.054  0.7429  1.6438  3.3965
   13SAPS   H7S 1646   0.812   1.624   3.029 -1.0829  0.6209 -2.0098
   13SAPS   C28 1647   0.802   1.426   3.127 -1.3561 -0.1402 -0.3010
   13SAPS   H8R 1648   0.866   1.347   3.088 -2.9390 -2.0772  0.8245
   13SAPS   C29 1649   0.793   1.427   3.265  0.2057 -0.0191  0.5349
   13SAPS   H9R 1650   0.824   1.342   3.328 -1.4299 -0.5852  0.6238
   13SAPS  C210 1651   0.726   1.538   3.334 -0.3275 -0.0588 -0.3858
   13SAPS  H10R 1652   0.666   1.606   3.269 -2.2682  0.4648  1.8035
   13SAPS  H10S 1653   0.788   1.623   3.370 -3.0230  1.3862  1.2475
   13SAPS  C211 1654   0.642   1.485   3.442  0.6002 -0.2038  0.0803
   13SAPS  H11R 1655   0.545   1.443   3.413  0.5667  1.1775 -2.0121
   13SAPS  C212 1656   0.669   1.492   3.576  0.3690  0.1709 -0.0558
   13SAPS  H12R 1657   0.596   1.441   3.641 -1.5009  2.1477 -0.4506
   13SAPS  C213 1658   0.798   1.534   3.641 -0.4954 -0.1087 -0.7785
   13SAPS  H13R 1659   0.786   1.611   3.720  0.6831 -1.2840  0.6073
   13SAPS  H13S 1660   0.875   1.563   3.565  0.0523  0.9473  0.1497
   13SAPS  C214 1661   0.849   1.404   3.689 -0.8129 -0.3775 -0.0755
   13SAPS  H14R 1662   0.880   1.325   3.618  0.0445 -1.1310  1.0864
   13SAPS  C215 1663   0.896   1.389   3.815 -0.7311 -0.7284  0.0910
   13SAPS  H15R 1664   0.941   1.292   3.843  1.5838 -0.0248 -0.8950
   13SAPS  C216 1665   0.879   1.482   3.935 -0.6033  0.3315 -0.4011
   13SAPS  H16R 1666   0.803   1.559   3.908 -0.4652  1.4720  2.1915
   13SAPS  H16S 1667   0.974   1.528   3.967  0.7907 -2.6529  0.1167
   13SAPS  C217 1668   0.824   1.425   4.068 -0.0179  0.0405  0.9254
   13SAPS  H17R 1669   0.724   1.380   4.048  0.1659 -0.3878  0.9573
   13SAPS  H17S 1670   0.813   1.502   4.146 -1.4356  0.4721  0.3268
   13SAPS  C218 1671   0.922   1.317   4.126  0.3826 -0.2693  0.1027
   13SAPS  H18R 1672   1.026   1.351   4.140  0.4336  0.1147 -1.1443
   13SAPS  H18S 1673   0.904   1.237   4.051 -0.8282  2.1594 -2.3493
   13SAPS  C219 1674   0.863   1.252   4.256  0.4171 -0.5672 -0.1588
   13SAPS  H19R 1675   0.772   1.197   4.225  0.4781  0.5986 -2.6803
   13SAPS  H19S 1676   0.819   1.327   4.325  1.5605  0.1394 -0.1720
   13SAPS  C220 1677   0.959   1.152   4.331  0.4207 -1.1884 -0.0444
   13SAPS  H20R 1678   0.916   1.114   4.426 -2.8845  0.6903 -0.6280
   13SAPS  H20S 1679   1.050   1.208   4.360 -0.7438  1.3983 -1.1018
   13SAPS  H20T 1680   0.976   1.065   4.264 -0.6772 -0.4656 -1.3134
   13SAPS   C33 1681   0.791   2.641   2.671 -0.2388 -0.1341  0.2175
   13SAPS   H3X 1682   0.772   2.560   2.598  3.3345  0.2987 -1.3726
   13SAPS   H3Y 1683   0.899   2.661   2.684 -0.3872  1.9194 -1.2159
   13SAPS   C34 1684   0.728   2.757   2.597 -0.0495 -0.0200  0.3295
   13SAPS   H4X 1685   0.629   2.726   2.558 -0.1276  1.7648 -0.9899
   13SAPS   H4Y 1686   0.793   2.794   2.515 -2.4108  3.1793 -0.3298
   13SAPS   C35 1687   0.707   2.891   2.674  0.3074 -0.2478 -0.1893
   13SAPS   H5X 1688   0.656   2.871   2.771  0.2051  4.8179  1.1177
   13SAPS   H5Y 1689   0.638   2.955   2.615  1.4268  1.4539  0.2570
   13SAPS   C36 1690   0.836   2.968   2.715 -0.3172 -0.4701 -0.2701
   13SAPS   H6X 1691   0.889   2.995   2.622 -1.0582  1.3419 -0.2028
   13SAPS   H6Y 1692   0.900   2.915   2.788 -1.0906  2.0952  2.4677
   13SAPS   C37 1693   0.811   3.108   2.772  0.3298  0.3871  0.0786
   13SAPS   H7X 1694   0.741   3.164   2.706 -0.4068 -1.3993 -0.7339
   13SAPS   H7Y 1695   0.904   3.168   2.775  0.7642 -0.2397 -0.4278
   13SAPS   C38 1696   0.752   3.103   2.912 -0.0004 -0.3203 -0.7705
   13SAPS   H8X 1697   0.816   3.037   2.975  2.2767  1.0594 -1.4961
   13SAPS   H8Y 1698   0.646   3.072   2.922  0.9449 -3.2837  1.4130
   13SAPS   C39 1699   0.772   3.249   2.970  0.3439 -0.2686 -0.4861
   13SAPS   H9X 1700   0.720   3.325   2.907 -2.4797 -0.3565  1.5471
   13SAPS   H9Y 1701   0.877   3.283   2.964  0.1334  0.4648 -0.1243
   13SAPS  C310 1702   0.712   3.264   3.116  0.4453  0.6959  0.3863
   13SAPS  H10X 1703   0.613   3.217   3.133  0.3933  1.2840  1.8251
   13SAPS  H10Y 1704   0.693   3.367   3.151 -0.9242 -0.3049  2.7786
   13SAPS  C311 1705   0.805   3.194   3.224  0.4750  0.5787  0.4496
   13SAPS  H11X 1706   0.904   3.242   3.213  0.2869  0.5782 -1.8101
   13SAPS  H11Y 1707   0.816   3.086   3.199  0.1413  1.0801 -2.1526
   13SAPS  C312 1708   0.758   3.210   3.367  0.6234 -0.3560 -0.0481
   13SAPS  H12X 1709   0.664   3.155   3.391  0.1897  0.6930  0.7611
   13SAPS  H12Y 1710   0.747   3.317   3.393  2.9187  0.0418 -0.5079
   13SAPS  C313 1711   0.843   3.134   3.477 -0.1752 -0.1334 -0.6204
   13SAPS  H13X 1712   0.944   3.182   3.483 -0.5318  0.5530  0.1731
   13SAPS  H13Y 1713   0.850   3.030   3.440  1.6385 -1.0846  2.0714
   13SAPS  C314 1714   0.770   3.129   3.613  0.0238  0.4425 -0.8562
   13SAPS  H14X 1715   0.683   3.064   3.591  0.8482 -0.8384 -0.4545
   13SAPS  H14Y 1716   0.735   3.233   3.633 -1.4275  0.1077 -1.5426
   13SAPS  C315 1717   0.860   3.069   3.726 -0.2637  0.6452  0.1573
   13SAPS  H15X 1718   0.889   2.965   3.698 -1.7497  0.5311 -1.1397
   13SAPS  H15Y 1719   0.790   3.052   3.811  1.6645 -0.3214  1.6261
   13SAPS  C316 1720   0.972   3.160   3.762 -0.0488  0.2433  0.1327
   13SAPS  H16X 1721   0.931   3.263   3.774 -1.1922 -0.3735  1.9296
   13SAPS  H16Y 1722   1.047   3.155   3.681  0.4039 -1.9761  0.6380
   13SAPS  C317 1723   1.043   3.116   3.895  0.3187 -0.5396 -0.0363
   13SAPS  H17X 1724   1.140   3.171   3.892 -0.3972  0.7690  0.0931
   13SAPS  H17Y 1725   1.067   3.008   3.894 -1.0549 -0.8772  1.0834
   13SAPS  C318 1726   0.966   3.141   4.023  0.0991  0.3434 -0.5177
   13SAPS  H18X 1727   0.862   3.108   4.002  0.3508 -0.6498 -0.2618
   13SAPS  H18Y 1728   0.968   3.250   4.045  0.0972  0.3611 -0.6009
   13SAPS  H18Z 1729   1.014   3.091   4.110 -3.0958 -0.4317  0.9220
   14SAPS     N 1730   5.708   3.203   2.094  0.1028 -0.0191 -0.6203
   14SAPS   HN1 1731   5.679   3.173   2.189  2.5609  0.5909  0.4205
   14SAPS   HN2 1732   5.682   3.132   2.023  0.6090  0.0134 -0.8484
   14SAPS   HN3 1733   5.812   3.209   2.095  0.0446  1.7348 -0.7995
   14SAPS   C12 1734   5.664   3.338   2.051  0.6381 -0.0479  1.3356
   14SAPS  H12A 1735   5.681   3.406   2.133  2.0410  0.4227  0.6783
   14SAPS   C13 1736   5.752   3.392   1.931  0.4570 -0.2247 -0.1269
   14SAPS  O13A 1737   5.845   3.314   1.899  1.1068  0.4056 -0.1077
   14SAPS  O13B 1738   5.724   3.493   1.863  0.3973  0.3703 -0.2059
   14SAPS   C11 1739   5.513   3.316   2.039 -0.0606  0.0762 -0.5716
   14SAPS  H11A 1740   5.479   3.240   1.965  1.0205 -1.3213  0.3197
   14SAPS  H11B 1741   5.462   3.407   2.002  1.5284  1.2560  0.0409
   14SAPS     P 1742   5.296   3.292   2.175 -0.3390 -0.0356  0.3542
   14SAPS   O13 1743   5.255   3.417   2.108  0.3293 -0.2502 -0.0243
   14SAPS   O14 1744   5.231   3.169   2.126  0.0870  0.2719  0.3962
   14SAPS   O12 1745   5.454   3.281   2.163  0.0491 -0.1610  0.2741
   14SAPS   O11 1746   5.272   3.294   2.330  0.0782 -0.5299 -0.2974
   14SAPS    C1 1747   5.352   3.235   2.433 -0.5407  0.5571  0.1763
   14SAPS    HA 1748   5.312   3.136   2.461  1.4545  0.0843  1.5632
   14SAPS    HB 1749   5.460   3.221   2.408 -0.7022  1.1016 -0.9103
   14SAPS    C2 1750   5.348   3.321   2.560 -0.1088  0.2723 -0.4045
   14SAPS    HS 1751   5.387   3.425   2.546  1.9707 -0.4286 -0.1758
   14SAPS   O21 1752   5.426   3.250   2.659  0.2939 -0.3877  0.3769
   14SAPS   C21 1753   5.497   3.322   2.743 -1.0020  0.0907  0.3380
   14SAPS   O22 1754   5.513   3.441   2.741 -0.1835 -0.4969  0.0791
   14SAPS   C22 1755   5.564   3.217   2.847  0.2440 -0.4982 -0.4262
   14SAPS   H2R 1756   5.483   3.146   2.875 -1.2535  0.0890 -2.9083
   14SAPS   H2S 1757   5.634   3.154   2.788  1.5098 -0.9993  1.5222
   14SAPS    C3 1758   5.201   3.338   2.617  0.4934 -0.7701 -0.0318
   14SAPS    HX 1759   5.156   3.237   2.610 -1.4604 -0.1837  2.6235
   14SAPS    HY 1760   5.145   3.407   2.550  0.1669 -2.3605 -1.4439
   14SAPS   O31 1761   5.196   3.391   2.751 -0.3337  0.0540  0.0217
   14SAPS   C31 1762   5.084   3.383   2.811 -0.1357  0.8204  0.6378
   14SAPS   O32 1763   4.985   3.330   2.763  0.3544  0.1670  0.3441
   14SAPS   C32 1764   5.101   3.430   2.955 -0.4747 -0.0365 -0.3180
   14SAPS   H2X 1765   5.086   3.540   2.955 -0.5381 -0.0468 -0.9094
   14SAPS   H2Y 1766   5.210   3.414   2.969 -0.1805 -1.9572 -3.7442
   14SAPS   C23 1767   5.633   3.275   2.978  1.2309  0.6350 -0.2079
   14SAPS   H3R 1768   5.576   3.367   3.002  0.1680 -0.2930  1.0055
   14SAPS   H3S 1769   5.737   3.301   2.949  1.5350 -0.7866 -0.4849
   14SAPS   C24 1770   5.630   3.168   3.095  0.1019  0.8862 -0.1402
   14SAPS   H4R 1771   5.532   3.171   3.147 -0.1267 -0.1392 -0.4894
   14SAPS   H4S 1772   5.707   3.202   3.168  1.5714 -0.3332 -1.0591
   14SAPS   C25 1773   5.660   3.026   3.055 -0.0985 -0.5789  0.3128
   14SAPS   H5R 1774   5.705   3.012   2.956  1.1190 -1.8123  1.0128
   14SAPS   C26 1775   5.632   2.923   3.133 -0.2968 -0.0804 -0.2622
   14SAPS   H6R 1776   5.662   2.823   3.097 -2.7787 -1.6193  1.5822
   14SAPS   C27 1777   5.578   2.927   3.274  0.0941  0.3393 -0.2592
   14SAPS   H7R 1778   5.526   2.830   3.290  2.2734 -0.9230 -0.4434
   14SAPS   H7S 1779   5.501   3.007   3.277 -1.8649 -1.2583 -2.7835
   14SAPS   C28 1780   5.688   2.950   3.375  0.3811  0.4217  0.0323
   14SAPS   H8R 1781   5.771   3.012   3.338 -0.5604  1.2907 -0.6583
   14SAPS   C29 1782   5.702   2.900   3.501  0.7702  0.9906 -0.2114
   14SAPS   H9R 1783   5.782   2.928   3.571  1.4336  0.0189 -0.5625
   14SAPS  C210 1784   5.599   2.802   3.563 -0.7582  0.2192  0.3774
   14SAPS  H10R 1785   5.503   2.808   3.507  0.4426 -2.2202 -2.1846
   14SAPS  H10S 1786   5.569   2.820   3.668 -1.0904  1.8556  0.0218
   14SAPS  C211 1787   5.646   2.662   3.555  0.0631 -0.0185  0.1909
   14SAPS  H11R 1788   5.620   2.613   3.460 -0.0191 -0.0709  0.2404
   14SAPS  C212 1789   5.706   2.596   3.658  0.2307 -0.0780 -0.3138
   14SAPS  H12R 1790   5.725   2.489   3.640 -0.8821 -0.4003  0.3258
   14SAPS  C213 1791   5.744   2.642   3.797 -0.4079  0.1343  0.6257
   14SAPS  H13R 1792   5.653   2.637   3.861 -1.5930  0.7893 -0.9449
   14SAPS  H13S 1793   5.760   2.752   3.803 -1.8478  0.3985 -0.0841
   14SAPS  C214 1794   5.866   2.566   3.851  0.1544 -0.2033  0.2403
   14SAPS  H14R 1795   5.903   2.491   3.779 -1.1342  0.5462 -1.2550
   14SAPS  C215 1796   5.936   2.565   3.969  0.1412 -0.2035  0.1967
   14SAPS  H15R 1797   6.023   2.499   3.977  1.1903  1.2052  0.9431
   14SAPS  C216 1798   5.928   2.650   4.089  0.3661  0.4661  0.1454
   14SAPS  H16R 1799   5.851   2.730   4.083 -1.7291 -1.5110 -0.9409
   14SAPS  H16S 1800   6.024   2.706   4.086 -0.1548  1.3443 -0.9157
   14SAPS  C217 1801   5.915   2.573   4.219  0.3684 -0.4546 -0.4216
   14SAPS  H17R 1802   5.928   2.649   4.299  1.0538 -1.2533  0.2519
   14SAPS  H17S 1803   5.996   2.503   4.250  1.5867  0.7482 -0.7954
   14SAPS  C218 1804   5.783   2.493   4.244 -0.2926 -0.8221 -0.5747
   14SAPS  H18R 1805   5.770   2.416   4.165 -3.6485 -0.6318 -0.3573
   14SAPS  H18S 1806   5.698   2.562   4.230 -1.3307 -2.0502 -0.5345
   14SAPS  C219 1807   5.768   2.435   4.384  0.0227 -0.0907 -0.6366
   14SAPS  H19R 1808   5.738   2.523   4.445 -1.2022  0.6905 -2.2676
   14SAPS  H19S 1809   5.865   2.394   4.418 -0.8173 -0.9493  0.8372
   14SAPS  C220 1810   5.674   2.317   4.392  0.0233  0.2514 -0.4809
   14SAPS  H20R 1811   5.624   2.311   4.491  2.2537 -1.6166  0.6037
   14SAPS  H20S 1812   5.724   2.221   4.367  3.5538  1.1012  2.4567
   14SAPS  H20T 1813   5.585   2.336   4.328 -0.7642  1.7741  0.9772
   14SAPS   C33 1814   5.022   3.374   3.068  0.3713 -0.3146 -0.2014
   14SAPS   H3X 1815   4.999   3.267   3.049  0.2135 -1.1579  3.8017
   14SAPS   H3Y 1816   4.925   3.427   3.066 -0.0799 -1.1287 -0.2885
   14SAPS   C34 1817   5.093   3.377   3.209  1.0090 -0.2820 -1.0145
   14SAPS   H4X 1818   5.029   3.333   3.289 -2.5836  0.6512 -3.1330
   14SAPS   H4Y 1819   5.110   3.484   3.235 -1.0037  0.1227 -1.1354
   14SAPS   C35 1820   5.216   3.285   3.208  0.2693  0.5281  0.7967
   14SAPS   H5X 1821   5.273   3.279   3.113  0.8890 -1.4157  1.2279
   14SAPS   H5Y 1822   5.181   3.180   3.223  0.2316  0.5349  0.7528
   14SAPS   C36 1823   5.311   3.309   3.324  0.5782 -0.3733 -0.2515
   14SAPS   H6X 1824   5.349   3.413   3.324  0.3818 -0.2698  1.6748
   14SAPS   H6Y 1825   5.402   3.245   3.327  1.5824  1.0289  0.4020
   14SAPS   C37 1826   5.237   3.288   3.461  0.2949 -0.6005  0.2739
   14SAPS   H7X 1827   5.182   3.192   3.475 -1.1156  0.0080 -0.9055
   14SAPS   H7Y 1828   5.151   3.359   3.463  0.6559 -0.1644  0.4476
   14SAPS   C38 1829   5.313   3.310   3.584  0.6088 -0.3756 -1.0265
   14SAPS   H8X 1830   5.341   3.416   3.603  3.5852 -1.5065  2.0966
   14SAPS   H8Y 1831   5.405   3.248   3.592  1.4714  0.9462 -0.1770
   14SAPS   C39 1832   5.228   3.247   3.704  0.2137 -0.6453  0.2666
   14SAPS   H9X 1833   5.212   3.138   3.709 -0.2805 -0.5658  0.4282
   14SAPS   H9Y 1834   5.128   3.293   3.689  0.1475 -0.5306  1.0339
   14SAPS  C310 1835   5.303   3.288   3.835 -0.5585  0.0341  0.1137
   14SAPS  H10X 1836   5.316   3.399   3.834  0.0407 -0.0073 -2.2069
   14SAPS  H10Y 1837   5.405   3.246   3.832 -1.2647 -1.7069 -0.9142
   14SAPS  C311 1838   5.243   3.230   3.961 -0.6155 -0.5898  0.2129
   14SAPS  H11X 1839   5.195   3.132   3.938  0.2570 -0.8811 -0.4029
   14SAPS  H11Y 1840   5.163   3.304   3.985  1.6774  2.1220  0.0295
   14SAPS  C312 1841   5.346   3.226   4.073 -0.3958 -0.2190 -0.2060
   14SAPS  H12X 1842   5.379   3.332   4.082 -1.3058 -0.0784  1.8016
   14SAPS  H12Y 1843   5.423   3.162   4.024  0.5927  1.5832 -1.1663
   14SAPS  C313 1844   5.289   3.183   4.212  0.2814 -0.3972 -0.0123
   14SAPS  H13X 1845   5.237   3.085   4.203  1.5127 -1.2933  2.0028
   14SAPS  H13Y 1846   5.206   3.252   4.241  0.9684  0.4325  0.0215
   14SAPS  C314 1847   5.401   3.182   4.313  0.1661 -0.6038 -1.4009
   14SAPS  H14X 1848   5.485   3.120   4.274  2.3404 -0.7422  2.9457
   14SAPS  H14Y 1849   5.365   3.136   4.408  1.5383  0.3102 -0.4074
   14SAPS  C315 1850   5.453   3.329   4.342  0.4699  0.3692  0.2791
   14SAPS  H15X 1851   5.495   3.392   4.261  1.6977 -2.3110 -1.2774
   14SAPS  H15Y 1852   5.537   3.321   4.414 -1.5771 -0.8969  2.7019
   14SAPS  C316 1853   5.339   3.410   4.419  0.0045 -0.1798  0.0361
   14SAPS  H16X 1854   5.295   3.350   4.501  2.1386 -1.1542  0.5397
   14SAPS  H16Y 1855   5.272   3.449   4.340 -1.1967 -0.6757  0.7875
   14SAPS  C317 1856   5.402   3.546   4.479 -0.4197 -0.0929 -0.2751
   14SAPS  H17X 1857   5.466   3.593   4.401  0.8857  0.9464  1.3516
   14SAPS  H17Y 1858   5.451   3.524   4.576  0.9024  2.0969 -0.3726
   14SAPS  C318 1859   5.290   3.641   4.506  0.0813  0.0853 -0.4692
   14SAPS  H18X 1860   5.327   3.745   4.522  1.8126 -0.8382  2.1748
   14SAPS  H18Y 1861   5.236   3.606   4.597 -0.2505 -1.7453 -1.3381
   14SAPS  H18Z 1862   5.217   3.648   4.422 -0.7838  4.5347  0.3863
   15SAPS     N 1863   0.240   4.140   2.293 -0.0087 -0.0606  0.1534
   15SAPS   HN1 1864   0.218   4.065   2.363  0.6761 -1.8044 -1.4115
   15SAPS   HN2 1865   0.208   4.106   2.200 -0.3670  0.7227 -0.0208
   15SAPS   HN3 1866   0.342   4.159   2.285 -0.2378  1.0207 -0.3875
   15SAPS   C12 1867   0.166   4.262   2.337 -0.4892 -0.2662  0.4777
   15SAPS  H12A 1868   0.202   4.279   2.437  0.0163  0.3019  0.2069
   15SAPS   C13 1869   0.188   4.379   2.246  0.1172 -1.2288 -0.3890
   15SAPS  O13A 1870   0.270   4.378   2.149 -0.2295 -0.6520  0.2227
   15SAPS  O13B 1871   0.129   4.488   2.275  0.1380 -0.0600 -0.6546
   15SAPS   C11 1872   0.014   4.233   2.318  0.1981 -0.4324 -0.1407
   15SAPS  H11A 1873  -0.019   4.238   2.212 -1.4878  1.2305  0.4071
   15SAPS  H11B 1874  -0.038   4.319   2.365 -0.2742  0.1623 -1.6719
   15SAPS     P 1875  -0.176   4.053   2.371  0.0724  0.0122  0.2303
   15SAPS   O13 1876  -0.228   4.039   2.232 -0.3669 -0.0624  0.0370
   15SAPS   O14 1877  -0.170   3.931   2.452  0.2002 -0.0752 -0.1012
   15SAPS   O12 1878  -0.024   4.111   2.380 -0.1320  0.1310 -0.0911
   15SAPS   O11 1879  -0.255   4.170   2.448 -0.1183  0.4283  0.1717
   15SAPS    C1 1880  -0.195   4.205   2.575  0.3371  0.3970  0.0489
   15SAPS    HA 1881  -0.087   4.187   2.590  0.0914 -0.6647  0.6576
   15SAPS    HB 1882  -0.191   4.316   2.586  0.0960  0.1895  3.6041
   15SAPS    C2 1883  -0.260   4.148   2.698 -0.2263 -0.3611 -0.8761
   15SAPS    HS 1884  -0.233   4.040   2.695 -1.2309 -0.6273 -0.8491
   15SAPS   O21 1885  -0.403   4.163   2.688 -0.1435  0.5434  0.0795
   15SAPS   C21 1886  -0.471   4.074   2.635  0.0823 -0.0028  0.2198
   15SAPS   O22 1887  -0.434   3.971   2.583 -0.2475 -0.0387  0.2285
   15SAPS   C22 1888  -0.625   4.118   2.628  0.2603  0.3269 -0.1381
   15SAPS   H2R 1889  -0.630   4.219   2.674 -0.5251 -0.0383  0.5989
   15SAPS   H2S 1890  -0.653   4.127   2.521 -0.7860  0.0897  0.0972
   15SAPS    C3 1891  -0.200   4.207   2.826 -1.1242 -0.4050  0.5170
   15SAPS    HX 1892  -0.230   4.313   2.813 -0.6418 -0.4146 -0.8125
   15SAPS    HY 1893  -0.090   4.199   2.825 -1.0825  0.2313 -0.0949
   15SAPS   O31 1894  -0.255   4.143   2.954 -0.4056 -0.1890  0.6827
   15SAPS   C31 1895  -0.337   4.219   3.013  0.2210 -0.2435 -0.1694
   15SAPS   O32 1896  -0.371   4.335   2.979 -0.1433  0.4427  0.4715
   15SAPS   C32 1897  -0.387   4.150   3.142 -0.1243  0.9503  0.3528
   15SAPS   H2X 1898  -0.326   4.062   3.168  0.5627  1.5189  0.6847
   15SAPS   H2Y 1899  -0.491   4.115   3.125  0.3518 -0.1225 -0.4749
   15SAPS   C23 1900  -0.727   4.016   2.697 -0.2382  0.1913  0.4362
   15SAPS   H3R 1901  -0.676   3.917   2.696  1.6800  1.1156 -0.7880
   15SAPS   H3S 1902  -0.818   4.016   2.634 -0.4040 -1.3637  0.6334
   15SAPS   C24 1903  -0.747   4.053   2.849  0.3029 -0.1293  0.3108
   15SAPS   H4R 1904  -0.800   4.150   2.859 -0.4345 -0.5118  0.1693
   15SAPS   H4S 1905  -0.640   4.055   2.882  2.2844 -0.8011 -5.0663
   15SAPS   C25 1906  -0.827   3.942   2.911  0.2369  1.0801 -0.1108
   15SAPS   H5R 1907  -0.926   3.934   2.862  1.0297 -4.0668 -1.4955
   15SAPS   C26 1908  -0.790   3.843   2.996  0.8231 -1.1577  0.8094
   15SAPS   H6R 1909  -0.874   3.777   3.021 -0.8337  0.6356  0.2150
   15SAPS   C27 1910  -0.667   3.840   3.085  0.3636  0.2095 -0.4070
   15SAPS   H7R 1911  -0.676   3.912   3.169  1.1845  0.0863 -0.2110
   15SAPS   H7S 1912  -0.574   3.878   3.039 -0.6594  1.6891 -1.3501
   15SAPS   C28 1913  -0.639   3.709   3.146 -0.6247  0.2298  0.5631
   15SAPS   H8R 1914  -0.690   3.622   3.102  2.7047 -0.9422 -1.2966
   15SAPS   C29 1915  -0.575   3.693   3.262  0.0201 -0.4923 -0.3259
   15SAPS   H9R 1916  -0.557   3.591   3.299  1.4812 -0.0859  0.1853
   15SAPS  C210 1917  -0.504   3.784   3.359 -0.2012  0.3828 -0.0565
   15SAPS  H10R 1918  -0.480   3.869   3.291 -1.9587  2.3312  1.5984
   15SAPS  H10S 1919  -0.406   3.751   3.398  0.1331  0.0340 -1.1573
   15SAPS  C211 1920  -0.585   3.833   3.477  0.7660  0.9449  0.6610
   15SAPS  H11R 1921  -0.667   3.898   3.443 -1.1863  0.0110  3.2561
   15SAPS  C212 1922  -0.559   3.832   3.611  0.3089 -0.2237  0.1261
   15SAPS  H12R 1923  -0.628   3.873   3.686  0.3040  0.3763 -0.2090
   15SAPS  C213 1924  -0.433   3.759   3.671  0.7116  0.8876  0.3012
   15SAPS  H13R 1925  -0.383   3.822   3.748  3.1569 -1.0300  0.3937
   15SAPS  H13S 1926  -0.351   3.748   3.597 -0.8898  1.0165 -1.5749
   15SAPS  C214 1927  -0.467   3.617   3.725  0.3430  0.3911  0.3455
   15SAPS  H14R 1928  -0.477   3.549   3.640  1.6913 -1.0599  1.2863
   15SAPS  C215 1929  -0.462   3.570   3.851 -0.0451 -0.0002  0.0410
   15SAPS  H15R 1930  -0.488   3.466   3.878 -1.3717  0.1222 -0.6617
   15SAPS  C216 1931  -0.425   3.649   3.975 -0.0205  0.3068  0.3944
   15SAPS  H16R 1932  -0.497   3.635   4.058 -2.4468  0.5650 -1.5591
   15SAPS  H16S 1933  -0.430   3.760   3.972  2.8144  0.5593  1.6366
   15SAPS  C217 1934  -0.284   3.618   4.021  0.9010  0.7302 -0.3899
   15SAPS  H17R 1935  -0.200   3.624   3.949  3.2265 -0.9128  1.9770
   15SAPS  H17S 1936  -0.279   3.513   4.055  0.4238  0.1489 -2.0397
   15SAPS  C218 1937  -0.239   3.709   4.135  0.3505  0.2847 -0.0261
   15SAPS  H18R 1938  -0.247   3.814   4.102  0.5628  0.7252  1.2914
   15SAPS  H18S 1939  -0.132   3.686   4.153  0.7122  2.1403  0.3148
   15SAPS  C219 1940  -0.318   3.695   4.269  0.4525 -0.7359  0.6070
   15SAPS  H19R 1941  -0.425   3.672   4.249  0.7483 -0.1702 -1.9638
   15SAPS  H19S 1942  -0.301   3.791   4.323  0.9107  0.5435 -1.6813
   15SAPS  C220 1943  -0.264   3.588   4.360  0.6462 -0.7287  0.8573
   15SAPS  H20R 1944  -0.164   3.615   4.401  0.1083  0.0872  1.6720
   15SAPS  H20S 1945  -0.250   3.493   4.304  0.0641 -0.6900  0.6413
   15SAPS  H20T 1946  -0.323   3.575   4.453 -1.1368  2.2349  0.2487
   15SAPS   C33 1947  -0.368   4.235   3.270  0.6302 -0.1926  0.1603
   15SAPS   H3X 1948  -0.406   4.339   3.256  1.3745  0.2411  1.2514
   15SAPS   H3Y 1949  -0.262   4.244   3.302  0.7617 -0.1705 -0.2811
   15SAPS   C34 1950  -0.445   4.183   3.386  0.5609 -0.2070 -0.3901
   15SAPS   H4X 1951  -0.415   4.081   3.418 -1.8806 -0.8366  0.0393
   15SAPS   H4Y 1952  -0.554   4.176   3.366  0.1102  2.2074  0.8329
   15SAPS   C35 1953  -0.438   4.283   3.496 -0.5127  0.4966 -0.4063
   15SAPS   H5X 1954  -0.500   4.370   3.466 -1.5746 -0.6098 -1.5202
   15SAPS   H5Y 1955  -0.336   4.328   3.500 -1.6589  3.6831 -2.7537
   15SAPS   C36 1956  -0.493   4.231   3.637  0.8136 -0.0789  0.6387
   15SAPS   H6X 1957  -0.456   4.126   3.639  0.9554 -0.0955 -1.0745
   15SAPS   H6Y 1958  -0.603   4.239   3.634  0.8982  1.2605 -2.6090
   15SAPS   C37 1959  -0.433   4.301   3.759  0.5411  0.9028 -0.1590
   15SAPS   H7X 1960  -0.413   4.409   3.742 -0.9919  1.4603  1.3175
   15SAPS   H7Y 1961  -0.339   4.249   3.788 -0.5262 -0.6850  0.5684
   15SAPS   C38 1962  -0.524   4.291   3.883  0.3294 -0.0036 -0.4337
   15SAPS   H8X 1963  -0.624   4.339   3.881  1.6339  2.8947 -0.0510
   15SAPS   H8Y 1964  -0.479   4.340   3.972 -1.4420 -0.6009  0.8494
   15SAPS   C39 1965  -0.526   4.146   3.922 -0.2715 -0.2256 -0.2743
   15SAPS   H9X 1966  -0.425   4.102   3.928 -1.0850 -2.1311  0.3414
   15SAPS   H9Y 1967  -0.589   4.076   3.862 -0.4419 -0.3092 -0.0040
   15SAPS  C310 1968  -0.586   4.147   4.068  0.3189  0.0061  0.1230
   15SAPS  H10X 1969  -0.688   4.191   4.071 -1.4402 -3.6268  0.1609
   15SAPS  H10Y 1970  -0.515   4.208   4.127  1.4775  0.4983 -1.7023
   15SAPS  C311 1971  -0.600   4.006   4.141  0.2157 -0.3543  0.4875
   15SAPS  H11X 1972  -0.497   3.965   4.136  1.4688  2.6055 -0.1820
   15SAPS  H11Y 1973  -0.668   3.946   4.077  2.9852  0.8869 -4.1127
   15SAPS  C312 1974  -0.641   4.017   4.291 -0.5239  0.3733 -0.1137
   15SAPS  H12X 1975  -0.741   4.065   4.281  0.9779  3.8394  0.0365
   15SAPS  H12Y 1976  -0.573   4.086   4.345  1.2351 -1.8855  0.6974
   15SAPS  C313 1977  -0.632   3.883   4.366  0.7387 -0.5744 -0.3930
   15SAPS  H13X 1978  -0.646   3.909   4.473  1.6315  4.5303 -1.2497
   15SAPS  H13Y 1979  -0.527   3.848   4.351  0.8312  0.3009 -2.0432
   15SAPS  C314 1980  -0.734   3.779   4.334  0.2595  0.2481  0.1310
   15SAPS  H14X 1981  -0.707   3.728   4.239  3.6161 -1.3342  1.7487
   15SAPS  H14Y 1982  -0.833   3.829   4.343  0.6916  1.4138 -1.3301
   15SAPS  C315 1983  -0.742   3.665   4.438 -0.3164 -0.8243 -0.6513
   15SAPS  H15X 1984  -0.799   3.708   4.523  2.3183  0.1210  0.7746
   15SAPS  H15Y 1985  -0.639   3.640   4.472  1.4630  1.4092 -3.8370
   15SAPS  C316 1986  -0.826   3.545   4.387 -0.0018  0.1996  0.2314
   15SAPS  H16X 1987  -0.918   3.584   4.338 -0.4360 -0.8990  0.1419
   15SAPS  H16Y 1988  -0.833   3.479   4.476  2.9271 -0.9307 -0.2529
   15SAPS  C317 1989  -0.763   3.463   4.273 -0.5541 -0.3366 -0.6372
   15SAPS  H17X 1990  -0.744   3.527   4.185  0.8296 -2.0470 -1.6331
   15SAPS  H17Y 1991  -0.833   3.380   4.249 -0.4052 -0.3379 -1.0655
   15SAPS  C318 1992  -0.636   3.400   4.322 -0.4508  0.1896  0.4401
   15SAPS  H18X 1993  -0.575   3.480   4.370 -0.2213  0.4024 -0.1952
   15SAPS  H18Y 1994  -0.576   3.352   4.241 -0.9423  0.4101 -0.0626
   15SAPS  H18Z 1995  -0.655   3.318   4.395  1.3669 -0.3980  0.3003
   16SAPS     N 1996   0.325   4.651   2.145  0.3787 -0.4806  0.6003
   16SAPS   HN1 1997   0.292   4.554   2.165 -0.8199 -0.4963 -1.1567
   16SAPS   HN2 1998   0.264   4.725   2.185 -0.3654  0.6043 -2.2386
   16SAPS   HN3 1999   0.330   4.666   2.042 -0.3591  0.3072  0.6690
   16SAPS   C12 2000   0.460   4.667   2.192 -0.1446 -0.3323 -0.1394
   16SAPS  H12A 2001   0.476   4.577   2.250 -1.5605 -1.0629 -0.8323
   16SAPS   C13 2002   0.568   4.689   2.088  0.0313 -0.0708  0.1936
   16SAPS  O13A 2003   0.536   4.715   1.970 -0.1893  0.0050  0.2887
   16SAPS  O13B 2004   0.689   4.684   2.125 -0.5498 -0.0829 -0.5094
   16SAPS   C11 2005   0.470   4.786   2.293 -0.0105  0.4543  1.0742
   16SAPS  H11A 2006   0.572   4.813   2.328  1.1105 -1.8850 -0.1790
   16SAPS  H11B 2007   0.418   4.765   2.389 -4.8784  1.0299 -1.1501
   16SAPS     P 2008   0.268   4.962   2.280 -0.5140  0.3249 -0.7081
   16SAPS   O13 2009   0.241   5.073   2.193  0.2533  0.4548 -0.2247
   16SAPS   O14 2010   0.184   4.843   2.265 -0.1398 -0.6510 -0.0757
   16SAPS   O12 2011   0.404   4.905   2.240 -0.1226 -0.7485  0.5670
   16SAPS   O11 2012   0.289   5.004   2.433 -0.2637 -0.6929  0.3713
   16SAPS    C1 2013   0.408   5.074   2.474  0.5839  0.0683  0.0382
   16SAPS    HA 2014   0.502   5.020   2.450  0.1229 -1.7368  2.0198
   16SAPS    HB 2015   0.407   5.178   2.436 -0.5722  0.4266  0.9946
   16SAPS    C2 2016   0.412   5.082   2.634  0.1235  0.0823 -0.9553
   16SAPS    HS 2017   0.498   5.148   2.658  0.4296  0.0764 -1.9814
   16SAPS   O21 2018   0.422   4.952   2.686 -0.5812  0.6709 -0.0128
   16SAPS   C21 2019   0.535   4.878   2.666  0.5937  0.2485 -0.7128
   16SAPS   O22 2020   0.646   4.922   2.632 -0.1167  0.6339 -0.4202
   16SAPS   C22 2021   0.513   4.730   2.710 -0.6301 -0.5809 -0.7705
   16SAPS   H2R 2022   0.501   4.732   2.821  1.0801 -1.5451 -0.5341
   16SAPS   H2S 2023   0.424   4.690   2.657  0.3138  0.0414 -2.9388
   16SAPS    C3 2024   0.285   5.163   2.687  0.0247  1.0719 -0.2304
   16SAPS    HX 2025   0.205   5.115   2.627 -1.2855  0.8925  1.5652
   16SAPS    HY 2026   0.307   5.269   2.661 -1.3069  1.4779  0.2237
   16SAPS   O31 2027   0.281   5.163   2.833  0.0233  0.4956 -0.0023
   16SAPS   C31 2028   0.193   5.073   2.880 -0.4372 -0.1713 -0.5458
   16SAPS   O32 2029   0.114   5.012   2.810  0.4791 -0.3375 -0.7071
   16SAPS   C32 2030   0.198   5.065   3.034 -0.7611  0.2436  0.1788
   16SAPS   H2X 2031   0.106   5.114   3.074 -0.5170 -0.0673  1.1508
   16SAPS   H2Y 2032   0.282   5.127   3.072 -1.7855  1.3961  0.6408
   16SAPS   C23 2033   0.630   4.636   2.677  0.4255  0.3276  0.0759
   16SAPS   H3R 2034   0.724   4.691   2.654 -0.1951  1.6451  0.5642
   16SAPS   H3S 2035   0.604   4.580   2.585  1.4272 -0.3640  0.1965
   16SAPS   C24 2036   0.664   4.529   2.778  0.1701 -0.4153 -0.3019
   16SAPS   H4R 2037   0.699   4.435   2.731 -2.2186 -0.7887 -1.5225
   16SAPS   H4S 2038   0.572   4.509   2.838 -0.2412 -0.8384 -1.0574
   16SAPS   C25 2039   0.771   4.585   2.867 -0.2020 -0.8286 -0.6560
   16SAPS   H5R 2040   0.868   4.603   2.818  1.0871  0.0911  2.0255
   16SAPS   C26 2041   0.761   4.609   2.998 -0.1659  0.3502 -0.6855
   16SAPS   H6R 2042   0.842   4.656   3.056 -0.8539  0.9917 -0.2237
   16SAPS   C27 2043   0.642   4.572   3.088 -0.3946  0.2162 -0.3887
   16SAPS   H7R 2044   0.555   4.612   3.031 -1.3232 -1.8794 -0.5364
   16SAPS   H7S 2045   0.638   4.637   3.179  0.2482  0.5850 -0.6219
   16SAPS   C28 2046   0.621   4.424   3.114  0.6648  0.1182  0.3129
   16SAPS   H8R 2047   0.662   4.358   3.037  2.7879  2.3705 -0.6201
   16SAPS   C29 2048   0.575   4.364   3.223 -0.6613  0.0643 -0.0068
   16SAPS   H9R 2049   0.578   4.255   3.218  2.1776 -0.0239  1.7893
   16SAPS  C210 2050   0.532   4.437   3.350  0.3659  0.2902 -0.1155
   16SAPS  H10R 2051   0.429   4.401   3.371  0.7820  0.5434  2.7378
   16SAPS  H10S 2052   0.535   4.545   3.326  3.0264  0.5296  0.9195
   16SAPS  C211 2053   0.618   4.424   3.466  0.7274  0.6061  0.4631
   16SAPS  H11R 2054   0.725   4.435   3.443  0.2498 -1.1333 -3.2402
   16SAPS  C212 2055   0.586   4.387   3.595 -0.5834  0.5167 -0.2499
   16SAPS  H12R 2056   0.664   4.371   3.671 -0.7591  0.1977 -0.1351
   16SAPS  C213 2057   0.441   4.390   3.635 -0.0423 -0.3483 -0.0647
   16SAPS  H13R 2058   0.364   4.374   3.556  0.1077 -0.2377 -0.2333
   16SAPS  H13S 2059   0.406   4.486   3.679  2.3215  0.3269  0.5186
   16SAPS  C214 2060   0.427   4.282   3.732 -0.0462  0.0439  0.3341
   16SAPS  H14R 2061   0.417   4.181   3.689 -0.5366  0.3876 -0.3792
   16SAPS  C215 2062   0.405   4.294   3.866 -0.8487  0.5821 -0.6993
   16SAPS  H15R 2063   0.392   4.202   3.925  0.4216  0.5809 -0.4068
   16SAPS  C216 2064   0.420   4.422   3.945 -0.2869  0.3911 -0.3313
   16SAPS  H16R 2065   0.376   4.504   3.883  0.6814 -0.0385 -1.6378
   16SAPS  H16S 2066   0.529   4.433   3.965 -0.7214  2.5010  1.2854
   16SAPS  C217 2067   0.338   4.413   4.077  0.9023 -0.1601  0.0360
   16SAPS  H17R 2068   0.371   4.502   4.136 -0.0433  0.5857 -0.5184
   16SAPS  H17S 2069   0.369   4.327   4.138 -1.0117  0.7405  2.4516
   16SAPS  C218 2070   0.186   4.410   4.062  0.3154  0.3713  0.3517
   16SAPS  H18R 2071   0.158   4.323   3.998 -1.5688  1.2719 -0.1147
   16SAPS  H18S 2072   0.143   4.492   4.001 -1.1327  0.3017  1.2112
   16SAPS  C219 2073   0.108   4.390   4.192  0.7440 -0.1504  0.1997
   16SAPS  H19R 2074   0.076   4.484   4.242 -1.6519 -1.1951  0.7834
   16SAPS  H19S 2075   0.174   4.325   4.253  2.2530  1.8375  0.7644
   16SAPS  C220 2076  -0.033   4.325   4.170  0.3873 -0.7231 -0.0610
   16SAPS  H20R 2077  -0.081   4.325   4.270  1.3755  0.3977  0.4477
   16SAPS  H20S 2078  -0.040   4.225   4.123 -2.3203 -0.9705  0.7246
   16SAPS  H20T 2079  -0.094   4.399   4.113 -1.9763  0.4854  3.6398
   16SAPS   C33 2080   0.214   4.927   3.081  0.0812 -0.2039 -0.0569
   16SAPS   H3X 2081   0.295   4.868   3.034  0.2325 -2.1489  2.4388
   16SAPS   H3Y 2082   0.119   4.871   3.067  0.9907 -1.5833 -0.8940
   16SAPS   C34 2083   0.244   4.932   3.229 -0.1179 -0.2879  0.2054
   16SAPS   H4X 2084   0.149   4.970   3.272 -0.2883  0.0124 -0.4283
   16SAPS   H4Y 2085   0.325   5.007   3.245 -1.2586  0.8736  0.7132
   16SAPS   C35 2086   0.279   4.794   3.293  0.3097  0.0392 -0.1692
   16SAPS   H5X 2087   0.365   4.749   3.240 -0.1217 -0.2053 -0.6730
   16SAPS   H5Y 2088   0.190   4.729   3.285 -0.4223  1.2192 -2.5929
   16SAPS   C36 2089   0.330   4.797   3.442 -0.0382 -0.1693 -0.1112
   16SAPS   H6X 2090   0.416   4.865   3.457 -0.2606 -0.0801  0.7709
   16SAPS   H6Y 2091   0.378   4.700   3.470  2.1441  0.4817 -1.3692
   16SAPS   C37 2092   0.211   4.814   3.536  0.6683 -0.9514 -0.5577
   16SAPS   H7X 2093   0.118   4.755   3.528  0.3046 -0.2835 -1.4812
   16SAPS   H7Y 2094   0.175   4.917   3.514  0.0764 -0.5486  1.9669
   16SAPS   C38 2095   0.251   4.806   3.682 -0.0446  0.0327 -0.9410
   16SAPS   H8X 2096   0.326   4.885   3.703  0.8922 -1.0181 -0.1994
   16SAPS   H8Y 2097   0.318   4.722   3.710 -1.2252 -0.1230  1.7966
   16SAPS   C39 2098   0.144   4.806   3.785 -0.2790  0.1456  0.1860
   16SAPS   H9X 2099   0.082   4.716   3.769 -2.3050  1.5428 -0.1251
   16SAPS   H9Y 2100   0.084   4.899   3.785 -2.5160 -1.2187  1.0988
   16SAPS  C310 2101   0.216   4.797   3.921  0.4511  0.1633 -0.2358
   16SAPS  H10X 2102   0.296   4.873   3.934 -1.0338  1.7247  0.1240
   16SAPS  H10Y 2103   0.259   4.695   3.917 -0.1084 -0.0255 -2.5452
   16SAPS  C311 2104   0.120   4.796   4.047 -0.7114 -0.4431 -0.6479
   16SAPS  H11X 2105   0.061   4.702   4.043 -0.0876 -0.8636 -0.1696
   16SAPS  H11Y 2106   0.045   4.877   4.058 -0.3833 -0.2718  0.5289
   16SAPS  C312 2107   0.204   4.800   4.179  0.5469 -0.0170  0.5204
   16SAPS  H12X 2108   0.262   4.895   4.180  0.4919  0.0136  0.8550
   16SAPS  H12Y 2109   0.286   4.725   4.177  2.8861  2.3708  0.5687
   16SAPS  C313 2110   0.123   4.789   4.305 -0.5394  0.0805 -0.0358
   16SAPS  H13X 2111   0.059   4.701   4.283 -1.5514  0.4479  1.3188
   16SAPS  H13Y 2112   0.059   4.879   4.308  0.3624  0.7552 -0.7213
   16SAPS  C314 2113   0.201   4.775   4.432 -0.3844  0.2251  0.6940
   16SAPS  H14X 2114   0.273   4.860   4.431 -1.7084  1.3840 -1.1876
   16SAPS  H14Y 2115   0.249   4.676   4.445  0.5237  0.8775  2.7832
   16SAPS  C315 2116   0.104   4.778   4.547  0.1478  0.5382 -0.3182
   16SAPS  H15X 2117   0.026   4.850   4.514  0.3960  1.1612  0.4188
   16SAPS  H15Y 2118   0.147   4.813   4.643  0.1957  1.2199 -0.5848
   16SAPS  C316 2119   0.043   4.639   4.586 -0.2283  0.1130  0.5593
   16SAPS  H16X 2120   0.121   4.571   4.627  0.8550  0.1883 -1.2873
   16SAPS  H16Y 2121   0.015   4.589   4.492 -2.8343  0.0512  1.2829
   16SAPS  C317 2122  -0.087   4.657   4.670  0.1754  0.1062  0.1578
   16SAPS  H17X 2123  -0.149   4.724   4.608  1.1888 -1.8386 -3.2128
   16SAPS  H17Y 2124  -0.056   4.697   4.769 -4.2211 -0.4672  1.9750
   16SAPS  C318 2125  -0.156   4.523   4.687  0.1846  0.4297  0.2870
   16SAPS  H18X 2126  -0.255   4.546   4.732 -0.1719 -0.2247 -0.1446
   16SAPS  H18Y 2127  -0.105   4.448   4.751  1.4972 -0.2323 -1.4498
   16SAPS  H18Z 2128  -0.175   4.472   4.590 -0.2168  1.3870 -0.1542
   17SAPS     N 2129   4.023   4.874   2.277  0.5121 -0.2664  0.2081
   17SAPS   HN1 2130   3.942   4.811   2.260 -1.1817  1.2564  2.1677
   17SAPS   HN2 2131   4.120   4.838   2.283  1.6419  2.6202  0.6683
   17SAPS   HN3 2132   3.996   4.925   2.363 -0.4166 -0.8018  0.2552
   17SAPS   C12 2133   4.022   4.971   2.162  0.0269  0.1787  0.2199
   17SAPS  H12A 2134   4.124   5.006   2.161 -0.1930  0.8957  1.2119
   17SAPS   C13 2135   3.999   4.915   2.021  0.0323 -0.0376  0.1432
   17SAPS  O13A 2136   3.942   4.801   2.005 -0.0974 -0.5091  0.2312
   17SAPS  O13B 2137   4.000   4.988   1.918  0.4905  0.2618 -0.4924
   17SAPS   C11 2138   3.939   5.099   2.201  0.8552  0.1218  0.4843
   17SAPS  H11A 2139   3.832   5.083   2.224  0.8039  0.2649  0.3500
   17SAPS  H11B 2140   3.940   5.166   2.112 -0.5766  0.1093  0.4309
   17SAPS     P 2141   3.931   5.284   2.391  0.1810 -0.2081  0.1641
   17SAPS   O13 2142   3.997   5.304   2.516  0.2105  0.2891  0.3126
   17SAPS   O14 2143   3.903   5.399   2.300 -0.0965 -0.5232  0.1806
   17SAPS   O12 2144   3.995   5.168   2.310 -0.3115  0.7355 -0.1067
   17SAPS   O11 2145   3.791   5.216   2.428  0.2193 -0.2297 -0.5869
   17SAPS    C1 2146   3.786   5.103   2.516 -0.2569 -0.2011  0.5492
   17SAPS    HA 2147   3.844   5.017   2.476  0.2914  0.1493  0.5833
   17SAPS    HB 2148   3.831   5.126   2.615 -1.4564 -1.0333  1.3180
   17SAPS    C2 2149   3.639   5.063   2.543  0.0932  0.5777 -0.5630
   17SAPS    HS 2150   3.576   5.099   2.459 -2.5162  0.8059  1.3748
   17SAPS   O21 2151   3.599   5.126   2.663  0.1466 -0.2716 -0.1267
   17SAPS   C21 2152   3.473   5.122   2.697 -0.0103  0.2376 -1.0981
   17SAPS   O22 2153   3.378   5.078   2.635 -0.3061 -0.8145 -0.2213
   17SAPS   C22 2154   3.466   5.183   2.839  0.0805  0.3222 -0.0513
   17SAPS   H2R 2155   3.561   5.153   2.888  0.6549 -1.7674 -2.2612
   17SAPS   H2S 2156   3.467   5.294   2.841 -1.1198  0.3245  1.2714
   17SAPS    C3 2157   3.626   4.903   2.551  0.5145  0.5564  0.4891
   17SAPS    HX 2158   3.656   4.860   2.453 -2.4330 -0.3964 -0.0962
   17SAPS    HY 2159   3.517   4.880   2.549  0.1469  2.2072 -0.5786
   17SAPS   O31 2160   3.700   4.845   2.665 -0.2663  0.3784  0.0192
   17SAPS   C31 2161   3.625   4.813   2.767  0.0849 -0.0131  0.2897
   17SAPS   O32 2162   3.505   4.831   2.779 -0.2873  0.3414  0.3507
   17SAPS   C32 2163   3.715   4.744   2.872 -0.1173  0.1271 -0.2123
   17SAPS   H2X 2164   3.814   4.793   2.881  1.2475 -2.3806 -0.6872
   17SAPS   H2Y 2165   3.743   4.637   2.854 -1.2466 -1.1298  4.3780
   17SAPS   C23 2166   3.349   5.130   2.925 -0.6660  0.2442  0.1243
   17SAPS   H3R 2167   3.352   5.019   2.916  0.4736  0.3914 -1.6763
   17SAPS   H3S 2168   3.256   5.168   2.878 -1.3310  0.9787  1.9293
   17SAPS   C24 2169   3.362   5.169   3.073  0.3642 -0.8133 -0.1927
   17SAPS   H4R 2170   3.435   5.253   3.080 -0.4734 -0.0820 -0.0901
   17SAPS   H4S 2171   3.417   5.090   3.128  2.2816  1.6853  1.7549
   17SAPS   C25 2172   3.232   5.191   3.150 -0.6594  0.2657 -0.0036
   17SAPS   H5R 2173   3.144   5.176   3.087 -0.3910 -2.0547  0.0858
   17SAPS   C26 2174   3.233   5.195   3.285  0.0502 -0.7537 -0.7661
   17SAPS   H6R 2175   3.136   5.201   3.337  0.5547 -0.3128  0.1503
   17SAPS   C27 2176   3.350   5.197   3.386 -0.5256  0.8272 -0.0741
   17SAPS   H7R 2177   3.344   5.295   3.438  1.5843  2.2237 -2.2391
   17SAPS   H7S 2178   3.444   5.198   3.327  0.8422  0.2072  2.0198
   17SAPS   C28 2179   3.364   5.077   3.473  0.7754 -0.3850  0.3257
   17SAPS   H8R 2180   3.363   4.979   3.423 -0.1068  0.1330 -0.7169
   17SAPS   C29 2181   3.368   5.089   3.610  0.3532  0.5378  0.3779
   17SAPS   H9R 2182   3.388   5.002   3.673 -0.2133  1.2077  1.5114
   17SAPS  C210 2183   3.365   5.221   3.687  0.6249  0.3548  0.0701
   17SAPS  H10R 2184   3.287   5.289   3.648  0.3199  0.0213  0.0998
   17SAPS  H10S 2185   3.460   5.276   3.670 -0.0873  1.6813  0.2452
   17SAPS  C211 2186   3.329   5.205   3.836  0.0839 -0.1406 -0.1794
   17SAPS  H11R 2187   3.235   5.152   3.859 -1.3437  1.0882 -2.6760
   17SAPS  C212 2188   3.405   5.243   3.942 -0.3660 -0.4952 -0.2870
   17SAPS  H12R 2189   3.375   5.210   4.042  1.7808  1.7533  1.2416
   17SAPS  C213 2190   3.539   5.302   3.922  0.1860 -0.1482  0.6614
   17SAPS  H13R 2191   3.536   5.413   3.915  1.7249  0.1098  2.9794
   17SAPS  H13S 2192   3.590   5.264   3.831 -0.5470  1.2164 -0.3686
   17SAPS  C214 2193   3.629   5.279   4.043  0.1502 -0.1522 -0.1613
   17SAPS  H14R 2194   3.718   5.223   4.012 -0.0295 -0.9316  0.6848
   17SAPS  C215 2195   3.624   5.339   4.161 -0.1720 -0.0723  0.7197
   17SAPS  H15R 2196   3.710   5.334   4.229  0.3444  1.0211  0.1838
   17SAPS  C216 2197   3.532   5.438   4.210  0.1052 -0.3019 -0.1336
   17SAPS  H16R 2198   3.454   5.472   4.138 -0.9647  0.4240  1.3163
   17SAPS  H16S 2199   3.582   5.530   4.248  1.1355 -0.6818 -0.5348
   17SAPS  C217 2200   3.450   5.386   4.330 -0.7430  0.7987  0.2021
   17SAPS  H17R 2201   3.518   5.342   4.405 -0.5442  0.4837 -0.1569
   17SAPS  H17S 2202   3.394   5.296   4.298  2.0490 -1.1877  0.5231
   17SAPS  C218 2203   3.355   5.495   4.374 -0.2419 -1.0927 -0.7212
   17SAPS  H18R 2204   3.290   5.524   4.288 -0.4615  0.5711 -0.0352
   17SAPS  H18S 2205   3.418   5.583   4.399  0.7620 -1.8772 -0.4213
   17SAPS  C219 2206   3.279   5.450   4.499 -0.3139 -0.3169 -0.0677
   17SAPS  H19R 2207   3.349   5.405   4.573 -0.3346 -0.6721 -0.2603
   17SAPS  H19S 2208   3.202   5.376   4.468 -2.8275  1.9934  0.3366
   17SAPS  C220 2209   3.223   5.571   4.577 -0.0470  0.1342 -0.0055
   17SAPS  H20R 2210   3.303   5.639   4.613 -0.5208  0.8012 -0.1903
   17SAPS  H20S 2211   3.162   5.539   4.665  0.2228  1.3781  0.6587
   17SAPS  H20T 2212   3.156   5.628   4.510  0.3973  0.0803 -0.4938
   17SAPS   C33 2213   3.651   4.760   3.010  0.6217  0.2685  0.0554
   17SAPS   H3X 2214   3.566   4.690   3.022  0.0126  0.6829 -1.5131
   17SAPS   H3Y 2215   3.616   4.865   3.016 -0.3290  0.0828 -1.5383
   17SAPS   C34 2216   3.747   4.746   3.130  0.5433 -0.0195 -0.1392
   17SAPS   H4X 2217   3.846   4.793   3.112 -0.0373  0.3055 -2.9723
   17SAPS   H4Y 2218   3.761   4.642   3.166 -1.4584  0.1540  1.3029
   17SAPS   C35 2219   3.692   4.832   3.251  0.3614 -0.2981  0.0204
   17SAPS   H5X 2220   3.584   4.808   3.264  0.0779 -0.0164 -1.6472
   17SAPS   H5Y 2221   3.700   4.942   3.233  0.9676 -0.3231  0.1110
   17SAPS   C36 2222   3.763   4.810   3.384 -0.4620  0.3189 -0.0624
   17SAPS   H6X 2223   3.872   4.829   3.375  0.0148 -2.4256 -1.3571
   17SAPS   H6Y 2224   3.761   4.701   3.410 -1.7823 -0.6319 -3.5879
   17SAPS   C37 2225   3.699   4.870   3.509  0.7238 -0.2151 -0.3772
   17SAPS   H7X 2226   3.604   4.816   3.529  1.3274 -1.3069 -0.4007
   17SAPS   H7Y 2227   3.680   4.978   3.488  0.8544 -0.1351 -0.0843
   17SAPS   C38 2228   3.788   4.864   3.632  0.2342  0.1796 -0.4869
   17SAPS   H8X 2229   3.866   4.943   3.628  0.5817  0.0769  2.3683
   17SAPS   H8Y 2230   3.846   4.769   3.636  1.7851  1.0584 -1.3729
   17SAPS   C39 2231   3.712   4.869   3.772  0.1413  0.2014 -0.2075
   17SAPS   H9X 2232   3.647   4.779   3.763  1.2867 -0.5534 -1.3266
   17SAPS   H9Y 2233   3.653   4.963   3.773 -0.5799 -0.2534  0.6332
   17SAPS  C310 2234   3.818   4.857   3.877 -0.0237 -0.9408 -1.0507
   17SAPS  H10X 2235   3.897   4.935   3.871  1.2007 -2.0879 -0.3315
   17SAPS  H10Y 2236   3.866   4.758   3.867 -0.1310 -1.2650  1.1361
   17SAPS  C311 2237   3.769   4.874   4.023 -0.1437 -0.1901  0.5729
   17SAPS  H11X 2238   3.690   4.798   4.040  0.0425 -0.3769  0.6091
   17SAPS  H11Y 2239   3.710   4.965   4.045  1.5713  1.1664 -0.1998
   17SAPS  C312 2240   3.884   4.855   4.119 -0.4003 -0.1638 -0.4884
   17SAPS  H12X 2241   3.953   4.938   4.091 -0.0095 -0.3794 -0.1886
   17SAPS  H12Y 2242   3.945   4.764   4.105 -0.3417 -0.4654  1.3856
   17SAPS  C313 2243   3.824   4.858   4.269 -0.2300  0.9713  0.9404
   17SAPS  H13X 2244   3.775   4.765   4.303  2.2279 -0.6380  0.3372
   17SAPS  H13Y 2245   3.758   4.947   4.275 -1.8965 -0.0467 -1.1244
   17SAPS  C314 2246   3.934   4.881   4.373 -0.4707  0.1520 -0.4266
   17SAPS  H14X 2247   3.978   4.981   4.352  0.3722  0.5142  2.6534
   17SAPS  H14Y 2248   4.009   4.800   4.361  1.9851  2.2705 -0.1014
   17SAPS  C315 2249   3.885   4.887   4.517 -0.1954 -0.0580  0.3201
   17SAPS  H15X 2250   3.978   4.903   4.576 -0.0830 -0.9274  0.3980
   17SAPS  H15Y 2251   3.831   4.794   4.543  0.7837 -0.4806  0.8978
   17SAPS  C316 2252   3.784   4.998   4.550  0.1133  0.4833 -0.2572
   17SAPS  H16X 2253   3.776   4.987   4.660  1.1390 -0.5454 -0.2777
   17SAPS  H16Y 2254   3.685   4.968   4.509  1.0139 -1.6425 -0.9968
   17SAPS  C317 2255   3.819   5.144   4.517  0.7047 -0.1779 -0.5972
   17SAPS  H17X 2256   3.816   5.158   4.407 -1.5487  0.8711 -0.4605
   17SAPS  H17Y 2257   3.918   5.174   4.557 -0.7400  0.5766  2.7759
   17SAPS  C318 2258   3.713   5.235   4.573  0.4366  0.0585 -0.0879
   17SAPS  H18X 2259   3.728   5.341   4.544  1.2447 -0.5073 -1.8799
   17SAPS  H18Y 2260   3.712   5.242   4.683 -0.0662 -2.9207  0.1646
   17SAPS  H18Z 2261   3.613   5.198   4.541  0.2615  0.5649 -0.1447
   18SAPS     N 2262   5.914   1.076   2.347  0.1574 -0.6641  0.4061
   18SAPS   HN1 2263   5.868   0.994   2.303 -2.0058  1.1123 -0.8102
   18SAPS   HN2 2264   6.012   1.049   2.370 -0.0119 -0.1460  1.8371
   18SAPS   HN3 2265   5.866   1.095   2.437  0.3328 -0.0900  0.3863
   18SAPS   C12 2266   5.903   1.209   2.272  0.3101 -0.2322 -0.1340
   18SAPS  H12A 2267   5.928   1.194   2.168 -0.1282 -2.5442  0.0379
   18SAPS   C13 2268   5.757   1.253   2.286  0.2346 -0.0980 -0.7158
   18SAPS  O13A 2269   5.682   1.214   2.384 -0.1562  0.1043  0.3346
   18SAPS  O13B 2270   5.719   1.353   2.225 -0.3759  0.1262  0.5349
   18SAPS   C11 2271   6.007   1.316   2.325 -0.9390 -0.4628 -0.4805
   18SAPS  H11A 2272   5.994   1.330   2.434  3.2040  0.3912  0.0416
   18SAPS  H11B 2273   5.988   1.416   2.279 -1.2326 -0.9797 -1.5393
   18SAPS     P 2274   6.241   1.306   2.201  0.0238  0.3524  0.3764
   18SAPS   O13 2275   6.379   1.285   2.249  0.5960 -0.3433 -0.4281
   18SAPS   O14 2276   6.211   1.231   2.076 -0.2230  0.5733 -0.6878
   18SAPS   O12 2277   6.140   1.263   2.314  0.6552 -0.5425  0.2435
   18SAPS   O11 2278   6.213   1.463   2.183 -0.1049 -0.0490  0.5455
   18SAPS    C1 2279   6.307   1.565   2.219 -0.1872 -0.2973 -0.2912
   18SAPS    HA 2280   6.414   1.539   2.207 -0.4713 -0.7790 -2.0129
   18SAPS    HB 2281   6.297   1.653   2.152  2.4728  0.6804  0.4784
   18SAPS    C2 2282   6.280   1.605   2.362 -0.9068 -0.4093 -0.4469
   18SAPS    HS 2283   6.297   1.512   2.422  2.1207  0.9908  1.0947
   18SAPS   O21 2284   6.154   1.670   2.391 -0.4332  0.1710 -0.2720
   18SAPS   C21 2285   6.101   1.643   2.506 -0.4105 -0.8204 -0.6196
   18SAPS   O22 2286   6.152   1.565   2.590  0.2788  0.0479  0.1385
   18SAPS   C22 2287   5.971   1.710   2.510  0.5607 -0.8185 -0.4885
   18SAPS   H2R 2288   5.979   1.817   2.481 -2.1397  0.5750  3.0184
   18SAPS   H2S 2289   5.904   1.670   2.431 -2.6528  1.1961  0.9575
   18SAPS    C3 2290   6.399   1.704   2.413  0.0451 -0.2100 -0.5100
   18SAPS    HX 2291   6.382   1.803   2.365  0.8427 -0.7892 -2.0585
   18SAPS    HY 2292   6.486   1.660   2.359  0.9668  0.4268  0.4131
   18SAPS   O31 2293   6.414   1.710   2.561 -0.1642  0.4152  0.3961
   18SAPS   C31 2294   6.483   1.606   2.609  0.4682  0.4227 -0.5808
   18SAPS   O32 2295   6.536   1.523   2.537 -1.0044  0.0494 -0.1596
   18SAPS   C32 2296   6.469   1.605   2.758 -0.3936 -0.7410 -0.4883
   18SAPS   H2X 2297   6.382   1.671   2.776  0.2297  1.1448 -3.6168
   18SAPS   H2Y 2298   6.566   1.641   2.800 -1.5452  2.2894 -0.2082
   18SAPS   C23 2299   5.899   1.718   2.651 -0.5961  0.1020  0.4550
   18SAPS   H3R 2300   5.866   1.615   2.677 -0.4646 -0.4651 -1.4664
   18SAPS   H3S 2301   5.808   1.780   2.638  1.0512  3.4361  3.2112
   18SAPS   C24 2302   5.979   1.787   2.761  0.7248 -0.7137 -0.6058
   18SAPS   H4R 2303   6.029   1.871   2.707  1.8262 -1.1260 -0.2517
   18SAPS   H4S 2304   6.064   1.718   2.783  0.0244 -1.2093  0.5806
   18SAPS   C25 2305   5.896   1.824   2.875  0.4512 -0.3594  0.0157
   18SAPS   H5R 2306   5.851   1.924   2.865  0.3147 -0.4547 -0.3459
   18SAPS   C26 2307   5.878   1.752   2.990  0.6525  0.0156  1.0964
   18SAPS   H6R 2308   5.813   1.805   3.062 -0.4901 -1.0079  0.8544
   18SAPS   C27 2309   5.943   1.617   3.014 -0.0440 -0.3518  0.2444
   18SAPS   H7R 2310   6.036   1.633   3.072  0.3511  0.9129 -0.7024
   18SAPS   H7S 2311   5.964   1.564   2.918  0.2527 -0.0735  0.1558
   18SAPS   C28 2312   5.860   1.516   3.097 -0.3628  0.5395 -0.8918
   18SAPS   H8R 2313   5.810   1.445   3.029 -0.2900 -0.5276  0.1428
   18SAPS   C29 2314   5.855   1.495   3.226 -0.3976 -0.0350 -0.0937
   18SAPS   H9R 2315   5.783   1.426   3.273  1.8243 -0.6544  2.7622
   18SAPS  C210 2316   5.926   1.580   3.331 -1.3214  0.5506 -0.0698
   18SAPS  H10R 2317   5.996   1.653   3.285 -2.4686  1.6262 -0.1614
   18SAPS  H10S 2318   5.976   1.507   3.398 -1.9978  1.1512  1.1244
   18SAPS  C211 2319   5.822   1.646   3.413 -0.8608  0.4385  0.1301
   18SAPS  H11R 2320   5.774   1.728   3.356 -0.0733 -0.7885 -2.4803
   18SAPS  C212 2321   5.778   1.626   3.534 -0.1498 -0.1020 -0.1153
   18SAPS  H12R 2322   5.691   1.687   3.559  0.1444  0.0200  0.6282
   18SAPS  C213 2323   5.819   1.515   3.629  0.2261 -0.2678  0.1154
   18SAPS  H13R 2324   5.904   1.456   3.589 -0.7637 -2.4979  1.1177
   18SAPS  H13S 2325   5.736   1.442   3.626 -0.8774  0.9668 -1.4712
   18SAPS  C214 2326   5.832   1.560   3.767  0.1801  0.4308 -0.3665
   18SAPS  H14R 2327   5.774   1.652   3.790 -2.0969 -1.6355  3.2078
   18SAPS  C215 2328   5.906   1.509   3.865  0.5705 -0.1693 -0.2868
   18SAPS  H15R 2329   5.912   1.565   3.959  0.2493  0.9681 -0.9350
   18SAPS  C216 2330   5.980   1.379   3.863  0.3622 -0.6209  0.0367
   18SAPS  H16R 2331   6.089   1.383   3.887  0.6147 -4.0972  0.0039
   18SAPS  H16S 2332   5.983   1.345   3.758 -1.1808  2.6062 -1.1694
   18SAPS  C217 2333   5.909   1.284   3.959 -0.4578  0.7189  0.0637
   18SAPS  H17R 2334   5.935   1.177   3.942 -0.0587  0.9619 -0.8645
   18SAPS  H17S 2335   5.800   1.304   3.945 -1.1088 -1.9735  0.5283
   18SAPS  C218 2336   5.940   1.306   4.112  0.4363  0.1217  0.4826
   18SAPS  H18R 2337   5.857   1.266   4.174 -2.1146  3.2624 -0.6278
   18SAPS  H18S 2338   5.949   1.414   4.136 -1.9451  1.0312 -2.1145
   18SAPS  C219 2339   6.078   1.250   4.148 -0.2983  0.2386  0.2680
   18SAPS  H19R 2340   6.155   1.315   4.100 -0.3327  0.5338  0.6146
   18SAPS  H19S 2341   6.092   1.145   4.112  2.5822  0.7224 -0.3382
   18SAPS  C220 2342   6.106   1.244   4.306  0.0505  1.0018 -0.6262
   18SAPS  H20R 2343   6.098   1.343   4.355  0.6987  0.5319  0.4587
   18SAPS  H20S 2344   6.208   1.207   4.328 -0.7949  0.9056  4.1847
   18SAPS  H20T 2345   6.037   1.165   4.343  0.7838  1.0638  0.9498
   18SAPS   C33 2346   6.444   1.453   2.807 -0.2954 -0.9133 -0.3579
   18SAPS   H3X 2347   6.508   1.385   2.747  0.6184  0.6581 -1.2415
   18SAPS   H3Y 2348   6.340   1.429   2.779  0.2639 -3.8352 -0.2649
   18SAPS   C34 2349   6.442   1.443   2.962  0.1453 -0.3130  0.3067
   18SAPS   H4X 2350   6.543   1.443   3.007 -1.7317 -1.1936  5.0678
   18SAPS   H4Y 2351   6.398   1.345   2.991 -2.1262  0.9093  1.2513
   18SAPS   C35 2352   6.350   1.555   3.034  0.5731 -0.1496  0.7540
   18SAPS   H5X 2353   6.261   1.569   2.969  0.5990  3.4221  1.3166
   18SAPS   H5Y 2354   6.407   1.650   3.039 -0.9101  1.0253 -2.1349
   18SAPS   C36 2355   6.292   1.500   3.168 -0.0190 -0.3499  0.5364
   18SAPS   H6X 2356   6.257   1.394   3.170 -3.3090  0.5781 -0.6325
   18SAPS   H6Y 2357   6.197   1.557   3.175  0.7831  0.8495  2.2427
   18SAPS   C37 2358   6.373   1.518   3.292 -0.0444 -0.0589 -0.2499
   18SAPS   H7X 2359   6.437   1.609   3.286  0.4250 -0.4315 -1.1050
   18SAPS   H7Y 2360   6.448   1.436   3.294  0.1383  0.1152  0.0804
   18SAPS   C38 2361   6.282   1.525   3.414 -0.5783  0.3999  0.0727
   18SAPS   H8X 2362   6.235   1.425   3.428 -1.9475  1.0618  0.3038
   18SAPS   H8Y 2363   6.203   1.603   3.416  0.4204  1.4252  0.7627
   18SAPS   C39 2364   6.370   1.551   3.542 -0.3629 -0.0108  0.2216
   18SAPS   H9X 2365   6.426   1.647   3.531 -0.0497 -0.1392  0.6568
   18SAPS   H9Y 2366   6.446   1.473   3.565  0.3275  1.2969  2.7382
   18SAPS  C310 2367   6.287   1.582   3.671  0.7603  0.5918  0.6053
   18SAPS  H10X 2368   6.222   1.493   3.687  1.2840 -0.6284 -3.0609
   18SAPS  H10Y 2369   6.224   1.672   3.655 -1.3061 -0.7515  0.8542
   18SAPS  C311 2370   6.373   1.613   3.793 -0.3966  0.4748 -0.7700
   18SAPS  H11X 2371   6.423   1.713   3.786  0.2665  0.4260  1.8928
   18SAPS  H11Y 2372   6.460   1.544   3.790 -1.4026 -0.8703  0.0209
   18SAPS  C312 2373   6.293   1.600   3.922 -0.6238 -0.5291  0.4446
   18SAPS  H12X 2374   6.281   1.494   3.952 -0.0009 -0.6552  0.2578
   18SAPS  H12Y 2375   6.191   1.641   3.910 -1.5599 -2.3309  1.8177
   18SAPS  C313 2376   6.359   1.677   4.042  0.0743  0.0023 -0.4241
   18SAPS  H13X 2377   6.349   1.787   4.040 -1.1837 -0.1082 -0.7059
   18SAPS  H13Y 2378   6.469   1.659   4.046  0.2083  0.7655 -0.5387
   18SAPS  C314 2379   6.300   1.642   4.185 -0.3067 -0.5241 -0.0793
   18SAPS  H14X 2380   6.274   1.535   4.203 -0.9315 -0.7318 -2.0465
   18SAPS  H14Y 2381   6.212   1.707   4.202 -0.9603 -1.6717  1.1978
   18SAPS  C315 2382   6.396   1.674   4.312  0.3642 -0.2309 -0.1683
   18SAPS  H15X 2383   6.451   1.768   4.292  1.5281 -0.9170 -0.2355
   18SAPS  H15Y 2384   6.469   1.592   4.329 -0.8010 -0.9952  1.4305
   18SAPS  C316 2385   6.305   1.707   4.436 -0.3931 -0.1147  0.4484
   18SAPS  H16X 2386   6.225   1.630   4.441 -1.2865  0.8844  3.5865
   18SAPS  H16Y 2387   6.260   1.806   4.415  0.4399  0.0840 -0.4870
   18SAPS  C317 2388   6.387   1.691   4.565  0.5371  0.5027 -0.2142
   18SAPS  H17X 2389   6.433   1.792   4.572  0.6904  0.3975  0.3433
   18SAPS  H17Y 2390   6.468   1.617   4.553 -0.4554 -0.4811 -1.1151
   18SAPS  C318 2391   6.293   1.660   4.686  0.5902  0.9124 -0.1228
   18SAPS  H18X 2392   6.222   1.583   4.649  2.4444 -0.3278 -1.2483
   18SAPS  H18Y 2393   6.247   1.758   4.711 -0.5368  0.5495 -0.7113
   18SAPS  H18Z 2394   6.361   1.625   4.766 -0.3605 -0.1899  0.2272
   19SAPS     N 2395   5.808   0.363   2.592  0.1870 -0.2489  0.3485
   19SAPS   HN1 2396   5.841   0.403   2.502 -0.6332  1.3627  0.7268
   19SAPS   HN2 2397   5.836   0.426   2.670  0.2224 -0.0541  0.1808
   19SAPS   HN3 2398   5.859   0.274   2.607  0.3407 -0.3025 -0.4448
   19SAPS   C12 2399   5.661   0.345   2.595 -0.3512 -0.2632 -0.2938
   19SAPS  H12A 2400   5.638   0.314   2.696  0.0675 -0.4386 -0.2493
   19SAPS   C13 2401   5.580   0.473   2.576 -0.3470  0.2437  0.6355
   19SAPS  O13A 2402   5.637   0.585   2.579 -0.6263 -0.4568 -0.2212
   19SAPS  O13B 2403   5.452   0.466   2.580 -0.9281 -0.9044  0.8083
   19SAPS   C11 2404   5.612   0.235   2.492 -0.1696 -0.1329 -0.3109
   19SAPS  H11A 2405   5.637   0.282   2.395 -2.4148  0.1164 -0.8203
   19SAPS  H11B 2406   5.502   0.219   2.497 -0.6567  2.3344 -1.7519
   19SAPS     P 2407   5.719   0.022   2.390  0.0549 -0.4639 -0.4116
   19SAPS   O13 2408   5.668   0.082   2.265 -0.4555  0.6166 -0.2165
   19SAPS   O14 2409   5.865   0.001   2.394  0.0076  0.1991  0.2956
   19SAPS   O12 2410   5.672   0.103   2.515 -0.6517 -0.3251 -0.1733
   19SAPS   O11 2411   5.650  -0.113   2.405 -0.4352 -0.5192  0.4780
   19SAPS    C1 2412   5.509  -0.129   2.446 -0.4386  0.2729 -0.0575
   19SAPS    HA 2413   5.446  -0.038   2.439 -2.5524 -1.2253 -1.6716
   19SAPS    HB 2414   5.460  -0.201   2.378  1.0302 -0.9808  0.1477
   19SAPS    C2 2415   5.502  -0.194   2.592  0.0541 -0.0476  0.1562
   19SAPS    HS 2416   5.408  -0.249   2.611  1.0325 -1.6324  0.6660
   19SAPS   O21 2417   5.507  -0.077   2.679 -0.3916  0.0136 -0.2184
   19SAPS   C21 2418   5.396  -0.007   2.700  0.2985 -0.7350 -0.1590
   19SAPS   O22 2419   5.285  -0.024   2.649  0.1778  0.2769  0.3782
   19SAPS   C22 2420   5.424   0.101   2.809  0.4282  0.1976 -0.3715
   19SAPS   H2R 2421   5.532   0.119   2.830  0.9619 -0.9941 -1.8664
   19SAPS   H2S 2422   5.398   0.201   2.768  0.7104  0.3770 -0.1212
   19SAPS    C3 2423   5.629  -0.289   2.619  0.6401 -0.3452  0.4560
   19SAPS    HX 2424   5.714  -0.217   2.622 -0.3979  0.9210  0.0384
   19SAPS    HY 2425   5.632  -0.357   2.531  0.4422  1.9753 -1.4092
   19SAPS   O31 2426   5.600  -0.353   2.743  0.2986 -0.6496  0.1057
   19SAPS   C31 2427   5.678  -0.319   2.844  0.0563 -0.0788 -0.1080
   19SAPS   O32 2428   5.758  -0.225   2.844 -0.5454 -0.6117 -0.0979
   19SAPS   C32 2429   5.652  -0.416   2.966  0.0482  0.6119  0.9794
   19SAPS   H2X 2430   5.677  -0.517   2.929  0.7878  0.7474  1.0948
   19SAPS   H2Y 2431   5.545  -0.402   2.991 -0.5867  0.0029 -1.1572
   19SAPS   C23 2432   5.363   0.061   2.946 -0.0706  0.0936 -0.0535
   19SAPS   H3R 2433   5.255   0.040   2.930  0.2915 -1.8921 -0.1284
   19SAPS   H3S 2434   5.350   0.143   3.020 -1.0566 -0.8832  0.8979
   19SAPS   C24 2435   5.437  -0.062   3.007 -0.2986  0.0655  0.3017
   19SAPS   H4R 2436   5.530  -0.017   3.049 -0.2861  0.2678  0.0574
   19SAPS   H4S 2437   5.481  -0.125   2.926 -1.5075 -0.2757 -0.1058
   19SAPS   C25 2438   5.361  -0.144   3.105 -0.7083  0.0039  0.3906
   19SAPS   H5R 2439   5.276  -0.198   3.062  0.2017 -0.2133 -1.1958
   19SAPS   C26 2440   5.389  -0.155   3.238  0.5885  0.1623  0.4339
   19SAPS   H6R 2441   5.324  -0.214   3.304  1.1758 -0.4691  0.4552
   19SAPS   C27 2442   5.491  -0.081   3.328 -0.4656  1.2208 -0.2077
   19SAPS   H7R 2443   5.554  -0.010   3.271  1.3290 -0.0325  0.1212
   19SAPS   H7S 2444   5.552  -0.154   3.385 -2.6145  1.1256  2.1889
   19SAPS   C28 2445   5.404  -0.005   3.423 -0.5990 -0.6046  0.5151
   19SAPS   H8R 2446   5.353   0.085   3.387  0.2394  1.2697  3.5914
   19SAPS   C29 2447   5.391  -0.026   3.561  0.0417  0.4129  0.8251
   19SAPS   H9R 2448   5.331   0.042   3.624  0.5499  1.1268  0.5558
   19SAPS  C210 2449   5.460  -0.141   3.642 -0.6438 -0.4254  0.9061
   19SAPS  H10R 2450   5.515  -0.206   3.571  0.8594  1.4656  0.2595
   19SAPS  H10S 2451   5.383  -0.208   3.685  0.5662 -1.1512  2.0455
   19SAPS  C211 2452   5.560  -0.093   3.742  0.2771  0.2291 -0.4775
   19SAPS  H11R 2453   5.642  -0.030   3.705  1.9253 -1.1706  0.6721
   19SAPS  C212 2454   5.569  -0.115   3.874 -0.6091  0.0707  0.0838
   19SAPS  H12R 2455   5.653  -0.067   3.927  0.7129 -1.5799 -0.4235
   19SAPS  C213 2456   5.465  -0.195   3.959 -0.6924  0.3566  0.4018
   19SAPS  H13R 2457   5.510  -0.274   4.022 -2.4296 -0.5822  0.5426
   19SAPS  H13S 2458   5.398  -0.259   3.897 -0.4304  0.1702  0.3135
   19SAPS  C214 2459   5.391  -0.090   4.045 -0.6775  0.7536  0.0938
   19SAPS  H14R 2460   5.397   0.015   4.011  1.1433  0.6069 -0.1035
   19SAPS  C215 2461   5.310  -0.113   4.151  0.2046  0.2011 -0.3844
   19SAPS  H15R 2462   5.251  -0.028   4.187 -0.0646 -1.3790  3.3341
   19SAPS  C216 2463   5.259  -0.242   4.203 -0.0429  0.8840 -0.1170
   19SAPS  H16R 2464   5.242  -0.315   4.122  2.0352 -1.2044  1.1728
   19SAPS  H16S 2465   5.162  -0.224   4.254  0.2403  0.6806  0.5182
   19SAPS  C217 2466   5.353  -0.298   4.306 -0.2837 -0.2642 -0.5578
   19SAPS  H17R 2467   5.380  -0.218   4.379 -2.2052 -0.0867  0.0040
   19SAPS  H17S 2468   5.445  -0.335   4.255 -0.1250 -0.1547 -0.3540
   19SAPS  C218 2469   5.298  -0.425   4.383 -1.2804  0.5599 -0.4032
   19SAPS  H18R 2470   5.290  -0.510   4.313 -2.4169  2.0171 -2.1345
   19SAPS  H18S 2471   5.199  -0.394   4.424 -1.4016 -0.0448 -0.2224
   19SAPS  C219 2472   5.395  -0.462   4.487 -0.8832  0.7206 -0.5162
   19SAPS  H19R 2473   5.499  -0.475   4.450 -0.9216  2.7174 -1.4964
   19SAPS  H19S 2474   5.372  -0.564   4.524  2.1399 -0.1298 -0.7045
   19SAPS  C220 2475   5.389  -0.371   4.609  0.3936 -0.0562  0.2936
   19SAPS  H20R 2476   5.470  -0.389   4.683 -0.2013 -4.2572  0.1672
   19SAPS  H20S 2477   5.288  -0.384   4.652  0.4115 -1.5072 -0.0607
   19SAPS  H20T 2478   5.408  -0.272   4.561  2.8791 -1.2885 -1.4976
   19SAPS   C33 2479   5.741  -0.380   3.082 -0.3053  0.2776  0.0655
   19SAPS   H3X 2480   5.771  -0.273   3.088 -0.9032  0.4289  0.4093
   19SAPS   H3Y 2481   5.841  -0.430   3.079 -1.1183 -1.5542  1.3557
   19SAPS   C34 2482   5.674  -0.422   3.218 -0.0044  0.0739  0.6764
   19SAPS   H4X 2483   5.621  -0.520   3.214  1.1035 -0.5320  0.5025
   19SAPS   H4Y 2484   5.608  -0.341   3.255  0.0607  0.1787  0.5623
   19SAPS   C35 2485   5.792  -0.435   3.326  0.7356 -0.3530 -0.4700
   19SAPS   H5X 2486   5.826  -0.332   3.349  2.0305 -0.4381 -1.8754
   19SAPS   H5Y 2487   5.878  -0.498   3.293  0.3293 -0.8826 -0.5270
   19SAPS   C36 2488   5.738  -0.496   3.462 -0.2789 -0.0842  0.4830
   19SAPS   H6X 2489   5.730  -0.606   3.455 -0.0941 -0.0511 -0.3094
   19SAPS   H6Y 2490   5.631  -0.467   3.464 -0.1854  0.2695  2.0803
   19SAPS   C37 2491   5.819  -0.466   3.583 -0.4433 -0.4934 -0.4278
   19SAPS   H7X 2492   5.839  -0.357   3.599 -1.2689 -0.2913 -0.7055
   19SAPS   H7Y 2493   5.921  -0.508   3.573 -0.0787 -0.1239  1.3419
   19SAPS   C38 2494   5.761  -0.517   3.715 -0.3184 -0.1947 -0.5540
   19SAPS   H8X 2495   5.749  -0.627   3.700 -0.2685 -0.3215  0.2990
   19SAPS   H8Y 2496   5.657  -0.481   3.731 -1.3468 -3.2830  0.5087
   19SAPS   C39 2497   5.854  -0.496   3.838  0.0306  0.8238 -0.1816
   19SAPS   H9X 2498   5.902  -0.395   3.842  0.1600  0.7807 -0.5919
   19SAPS   H9Y 2499   5.924  -0.581   3.826 -2.1182 -0.9089 -1.1764
   19SAPS  C310 2500   5.763  -0.511   3.967 -0.5607  0.1971 -0.4320
   19SAPS  H10X 2501   5.744  -0.617   3.994  0.2836 -0.0950 -0.9499
   19SAPS  H10Y 2502   5.667  -0.460   3.945  0.6843  2.7158 -0.3230
   19SAPS  C311 2503   5.828  -0.431   4.091  0.5692  0.4572  0.1523
   19SAPS  H11X 2504   5.815  -0.323   4.067 -1.6046 -0.2765 -2.4978
   19SAPS  H11Y 2505   5.935  -0.461   4.086 -0.0091 -1.7706  0.0822
   19SAPS  C312 2506   5.753  -0.443   4.227 -0.4143 -0.4844 -0.4878
   19SAPS  H12X 2507   5.643  -0.450   4.214 -0.2326 -0.5329 -2.2311
   19SAPS  H12Y 2508   5.768  -0.347   4.281 -0.6215 -0.7482  0.0479
   19SAPS  C313 2509   5.828  -0.547   4.313  1.5599  0.0766  0.3319
   19SAPS  H13X 2510   5.918  -0.581   4.257  2.1492 -0.1534  1.3895
   19SAPS  H13Y 2511   5.763  -0.637   4.313  2.5148 -0.6959 -2.3573
   19SAPS  C314 2512   5.845  -0.516   4.458  0.5801 -0.1442 -0.9635
   19SAPS  H14X 2513   5.746  -0.500   4.505  1.1568 -0.5884  0.4718
   19SAPS  H14Y 2514   5.898  -0.419   4.474  1.5537 -0.7399 -0.4721
   19SAPS  C315 2515   5.912  -0.619   4.554 -0.5355  0.7187  0.3590
   19SAPS  H15X 2516   6.008  -0.650   4.507 -0.5248  1.4935 -0.1441
   19SAPS  H15Y 2517   5.847  -0.709   4.565  1.9744 -1.2443  0.1330
   19SAPS  C316 2518   5.934  -0.568   4.697  0.0901  0.4299 -0.3712
   19SAPS  H16X 2519   5.946  -0.661   4.756 -0.8937 -0.7301 -1.9100
   19SAPS  H16Y 2520   5.853  -0.509   4.743  1.3407  2.4666 -0.6453
   19SAPS  C317 2521   6.062  -0.478   4.732  0.4081 -0.5015 -0.2381
   19SAPS  H17X 2522   6.043  -0.383   4.678 -1.9953 -1.7310 -1.7297
   19SAPS  H17Y 2523   6.151  -0.527   4.688  0.7040 -1.8357  1.6978
   19SAPS  C318 2524   6.080  -0.460   4.884  0.3071 -0.4812  0.0353
   19SAPS  H18X 2525   6.178  -0.413   4.905 -0.1915  1.1450 -1.0956
   19SAPS  H18Y 2526   6.077  -0.554   4.944 -0.5460  0.9349  2.3805
   19SAPS  H18Z 2527   5.997  -0.399   4.927 -0.3714 -0.8395 -0.7563
   20SAPS     N 2528   0.724   0.698   2.241 -0.1089  0.2418  0.4872
   20SAPS   HN1 2529   0.637   0.728   2.289  0.3541  2.0312  0.2908
   20SAPS   HN2 2530   0.703   0.611   2.188 -0.8517  0.7289 -0.0403
   20SAPS   HN3 2531   0.799   0.686   2.313 -1.4609 -1.2792  1.7248
   20SAPS   C12 2532   0.755   0.804   2.136  0.2140 -0.5022 -0.3039
   20SAPS  H12A 2533   0.765   0.898   2.187  1.0628 -1.5040  1.4779
   20SAPS   C13 2534   0.885   0.794   2.061 -0.3514  0.6615  0.4015
   20SAPS  O13A 2535   0.976   0.720   2.115 -0.1455 -1.0180  0.4490
   20SAPS  O13B 2536   0.914   0.877   1.977  0.4836 -0.3451  0.1530
   20SAPS   C11 2537   0.643   0.816   2.039  0.4264 -0.3929 -0.8735
   20SAPS  H11A 2538   0.633   0.727   1.973 -0.6664 -0.8908 -0.0892
   20SAPS  H11B 2539   0.654   0.899   1.966 -0.3853 -1.9436 -2.8534
   20SAPS     P 2540   0.386   0.867   2.049  0.2673 -0.3975 -0.0465
   20SAPS   O13 2541   0.389   0.987   1.965 -0.0541 -1.0279 -1.0622
   20SAPS   O14 2542   0.341   0.754   1.968  0.5189  0.9748 -0.0309
   20SAPS   O12 2543   0.528   0.837   2.116  0.3533 -0.1243 -0.3634
   20SAPS   O11 2544   0.296   0.885   2.182  0.0073 -0.1582  0.3182
   20SAPS    C1 2545   0.305   0.816   2.305 -0.1759 -0.0696  0.3356
   20SAPS    HA 2546   0.208   0.761   2.302 -0.8726  1.1500  0.1075
   20SAPS    HB 2547   0.384   0.738   2.314 -0.8335 -1.0097 -1.5831
   20SAPS    C2 2548   0.314   0.910   2.429 -0.4864 -0.5299 -0.1777
   20SAPS    HS 2549   0.217   0.964   2.427 -0.5098 -0.4732  1.5074
   20SAPS   O21 2550   0.408   1.019   2.410 -0.4916  0.1092  0.0927
   20SAPS   C21 2551   0.533   0.989   2.396  0.1347 -0.0629 -0.3516
   20SAPS   O22 2552   0.578   0.879   2.396 -0.4263  0.5947  0.2124
   20SAPS   C22 2553   0.614   1.109   2.383  0.6892  0.1286 -0.1246
   20SAPS   H2R 2554   0.700   1.077   2.320  1.6062  2.3611 -0.1021
   20SAPS   H2S 2555   0.571   1.180   2.310 -2.8259 -0.0581  1.5899
   20SAPS    C3 2556   0.324   0.826   2.564 -0.3619 -0.4674 -0.2739
   20SAPS    HX 2557   0.417   0.770   2.542  0.0703 -0.0003  0.3119
   20SAPS    HY 2558   0.234   0.760   2.566  0.9976 -2.5632 -2.7607
   20SAPS   O31 2559   0.333   0.898   2.689 -0.0726  0.3274  0.0172
   20SAPS   C31 2560   0.452   0.924   2.738 -0.2746 -1.0471  0.3178
   20SAPS   O32 2561   0.563   0.886   2.695  0.2514 -0.2640  0.6036
   20SAPS   C32 2562   0.425   0.997   2.867  0.9972 -0.4611  0.6721
   20SAPS   H2X 2563   0.383   0.926   2.941 -0.9802 -0.1198 -0.0657
   20SAPS   H2Y 2564   0.357   1.080   2.839  1.0520 -0.4306  0.6288
   20SAPS   C23 2565   0.659   1.160   2.518  0.3028  0.1918 -0.4567
   20SAPS   H3R 2566   0.736   1.239   2.503 -2.7755  3.7482  0.8128
   20SAPS   H3S 2567   0.697   1.079   2.584 -0.8661 -0.3822 -0.4706
   20SAPS   C24 2568   0.543   1.233   2.594 -0.3774  0.8074 -0.7080
   20SAPS   H4R 2569   0.589   1.264   2.690  1.8057 -0.6687 -1.2092
   20SAPS   H4S 2570   0.477   1.147   2.619  2.0720 -1.9798 -3.1161
   20SAPS   C25 2571   0.482   1.350   2.525 -0.4127 -0.1856  0.4580
   20SAPS   H5R 2572   0.514   1.371   2.422 -3.3164 -0.1582 -0.5496
   20SAPS   C26 2573   0.373   1.411   2.567  0.0923 -0.2585  0.2522
   20SAPS   H6R 2574   0.338   1.493   2.503  0.2143  1.1962  1.9763
   20SAPS   C27 2575   0.299   1.369   2.691  0.1986  0.3011 -0.1307
   20SAPS   H7R 2576   0.359   1.312   2.764 -0.0151 -1.1779 -1.0835
   20SAPS   H7S 2577   0.223   1.296   2.656 -0.3807  1.5608 -1.6489
   20SAPS   C28 2578   0.223   1.488   2.748  0.0337  0.0076 -0.6908
   20SAPS   H8R 2579   0.181   1.548   2.666  0.7304 -0.0095 -1.0663
   20SAPS   C29 2580   0.208   1.535   2.870 -0.9160  0.5304 -0.2366
   20SAPS   H9R 2581   0.144   1.621   2.897 -1.1036  0.4436 -0.3988
   20SAPS  C210 2582   0.253   1.460   2.995 -0.4616 -0.0514 -0.0899
   20SAPS  H10R 2583   0.301   1.365   2.963 -0.9945 -0.0069 -1.0536
   20SAPS  H10S 2584   0.165   1.434   3.057 -0.7601 -0.6668 -0.7579
   20SAPS  C211 2585   0.359   1.537   3.072  0.0796 -0.4015  0.1885
   20SAPS  H11R 2586   0.420   1.605   3.012 -1.3342  2.2985  1.6411
   20SAPS  C212 2587   0.369   1.555   3.207  0.1445  1.0206  0.5149
   20SAPS  H12R 2588   0.437   1.634   3.241 -0.5755  1.2291  1.4886
   20SAPS  C213 2589   0.275   1.482   3.306 -0.1941  0.3574  0.0614
   20SAPS  H13R 2590   0.329   1.425   3.385  0.6151  2.0963  0.8229
   20SAPS  H13S 2591   0.213   1.413   3.245 -0.5446  0.9702 -0.2825
   20SAPS  C214 2592   0.180   1.570   3.378  0.3121 -0.1301  0.1322
   20SAPS  H14R 2593   0.169   1.662   3.319  0.1648 -1.0098 -1.2568
   20SAPS  C215 2594   0.120   1.557   3.494 -0.1112 -0.4108 -0.5829
   20SAPS  H15R 2595   0.052   1.639   3.525  2.2291  1.0393  1.0519
   20SAPS  C216 2596   0.119   1.434   3.584  0.1050 -0.1806  0.2810
   20SAPS  H16R 2597   0.182   1.353   3.542  1.4650  1.1840 -0.4614
   20SAPS  H16S 2598   0.014   1.401   3.589  0.0479 -0.2747 -1.0490
   20SAPS  C217 2599   0.163   1.476   3.727 -0.1617  0.0186 -0.0225
   20SAPS  H17R 2600   0.128   1.396   3.796  0.7291 -1.7785 -1.5469
   20SAPS  H17S 2601   0.116   1.573   3.755 -0.1755  0.1160 -0.3800
   20SAPS  C218 2602   0.319   1.488   3.733  0.2992 -0.0509  0.0959
   20SAPS  H18R 2603   0.354   1.573   3.671  2.1798  0.3402  1.6284
   20SAPS  H18S 2604   0.362   1.395   3.692 -2.6135 -1.7400  0.5505
   20SAPS  C219 2605   0.372   1.518   3.873 -1.0790 -0.0032  0.4326
   20SAPS  H19R 2606   0.324   1.450   3.945 -0.9109  0.0399  0.5864
   20SAPS  H19S 2607   0.352   1.621   3.911  0.2504 -0.0546  1.3742
   20SAPS  C220 2608   0.524   1.488   3.897 -0.9709 -0.4203  0.7746
   20SAPS  H20R 2609   0.553   1.399   3.837 -3.0790 -1.1878  0.7810
   20SAPS  H20S 2610   0.542   1.465   4.004  2.2667  1.3158  0.7100
   20SAPS  H20T 2611   0.591   1.573   3.873  0.4969 -1.8479 -0.4170
   20SAPS   C33 2612   0.543   1.069   2.934  0.2764  0.0367 -0.3937
   20SAPS   H3X 2613   0.590   1.137   2.860 -1.1997  2.3963  0.7258
   20SAPS   H3Y 2614   0.624   0.997   2.960 -0.4001  0.1194  2.2849
   20SAPS   C34 2615   0.512   1.151   3.054  0.6128 -0.1285  0.5200
   20SAPS   H4X 2616   0.418   1.209   3.042  0.7610 -0.1970 -1.2097
   20SAPS   H4Y 2617   0.595   1.225   3.065  2.7440 -2.1347 -0.8890
   20SAPS   C35 2618   0.512   1.076   3.187 -0.4845 -0.2177 -0.2991
   20SAPS   H5X 2619   0.609   1.023   3.198  1.1073  2.4462 -0.6010
   20SAPS   H5Y 2620   0.444   0.989   3.174  1.6188 -2.4815  2.4699
   20SAPS   C36 2621   0.502   1.160   3.318  0.6232  0.4197  0.3271
   20SAPS   H6X 2622   0.410   1.221   3.304 -0.4126 -1.2305 -0.3652
   20SAPS   H6Y 2623   0.592   1.224   3.331  1.5298 -0.9465  0.9741
   20SAPS   C37 2624   0.482   1.071   3.442 -0.0887  0.4513  0.3815
   20SAPS   H7X 2625   0.551   0.986   3.422 -0.5470  0.5558 -1.9343
   20SAPS   H7Y 2626   0.382   1.024   3.439  0.3180 -0.4887  0.9993
   20SAPS   C38 2627   0.495   1.130   3.580  0.7447 -0.1434 -0.1850
   20SAPS   H8X 2628   0.400   1.179   3.611  0.9601  0.2883 -0.1953
   20SAPS   H8Y 2629   0.574   1.208   3.591  0.4654  0.1826 -0.4720
   20SAPS   C39 2630   0.517   1.021   3.689  0.7307  0.6812 -0.3333
   20SAPS   H9X 2631   0.599   0.947   3.674 -1.2704 -1.2167 -2.8628
   20SAPS   H9Y 2632   0.425   0.959   3.693  2.1113 -1.4143  1.0254
   20SAPS  C310 2633   0.532   1.093   3.827  0.5929 -0.2121  0.2941
   20SAPS  H10X 2634   0.448   1.166   3.822  0.7477 -0.0922 -2.9322
   20SAPS  H10Y 2635   0.622   1.159   3.827  0.0050  0.7068 -2.3218
   20SAPS  C311 2636   0.518   0.996   3.940 -0.3945  0.5429  0.7057
   20SAPS  H11X 2637   0.592   0.915   3.919  0.6129  1.7275 -0.5552
   20SAPS  H11Y 2638   0.410   0.972   3.934 -0.3854  0.5005  0.7125
   20SAPS  C312 2639   0.557   1.058   4.072  0.3822 -0.3207  0.8375
   20SAPS  H12X 2640   0.513   1.159   4.062  1.4723  0.0439 -0.7550
   20SAPS  H12Y 2641   0.665   1.085   4.068  0.3865 -0.5117 -0.9546
   20SAPS  C313 2642   0.506   0.996   4.204 -0.4227  0.0933 -0.5394
   20SAPS  H13X 2643   0.568   0.908   4.232 -0.6878 -0.5662 -1.9633
   20SAPS  H13Y 2644   0.399   0.969   4.192 -0.5005  0.1341  0.0247
   20SAPS  C314 2645   0.505   1.082   4.338  0.2743  0.1693 -0.5047
   20SAPS  H14X 2646   0.467   1.185   4.319 -1.9841 -0.2858  1.0892
   20SAPS  H14Y 2647   0.610   1.087   4.372  0.4997 -0.3734 -1.1144
   20SAPS  C315 2648   0.413   1.009   4.444 -0.6781  0.9685 -0.1770
   20SAPS  H15X 2649   0.309   1.012   4.403  0.2950 -0.4948 -3.0434
   20SAPS  H15Y 2650   0.422   1.062   4.541 -0.7465 -1.3371  1.1527
   20SAPS  C316 2651   0.464   0.871   4.490 -0.1508  0.5659  0.0768
   20SAPS  H16X 2652   0.558   0.884   4.548 -0.9149  0.6895  1.3273
   20SAPS  H16Y 2653   0.489   0.806   4.403 -0.4460 -1.9163  1.7347
   20SAPS  C317 2654   0.364   0.797   4.577 -0.3425 -0.5012 -0.0342
   20SAPS  H17X 2655   0.267   0.784   4.525 -0.5215  0.8693 -0.0841
   20SAPS  H17Y 2656   0.330   0.849   4.669  0.8353 -1.0186  0.7291
   20SAPS  C318 2657   0.407   0.657   4.624  0.6893 -0.0224  0.3117
   20SAPS  H18X 2658   0.494   0.654   4.693  0.2020  1.1893  1.0167
   20SAPS  H18Y 2659   0.431   0.594   4.536  0.2923  0.7710 -0.3863
   20SAPS  H18Z 2660   0.319   0.602   4.664  0.5879 -0.9005 -1.0409
   21CHL1    C3 2661   6.361   2.964   6.123 -0.7385 -0.0058  0.4455
   21CHL1    H3 2662   6.471   2.955   6.136 -0.9460 -0.4134  2.0520
   21CHL1    O3 2663   6.310   3.022   6.240 -0.1995  0.2196  0.0376
   21CHL1   H3' 2664   6.214   3.019   6.239 -0.2626  0.5799  1.5793
   21CHL1    C4 2665   6.330   3.062   6.006  0.7228 -0.0511 -0.8123
   21CHL1   H4A 2666   6.226   3.099   6.017  0.8436  0.8873 -2.5808
   21CHL1   H4B 2667   6.401   3.146   6.021 -1.2505  1.3645  1.3340
   21CHL1    C5 2668   6.358   3.006   5.871 -0.6475 -0.3221  0.0234
   21CHL1    C6 2669   6.430   3.084   5.784  0.4465 -0.3357  0.1179
   21CHL1    H6 2670   6.449   3.189   5.813  2.5063 -0.5603 -0.2731
   21CHL1    C7 2671   6.444   3.049   5.641 -0.1861  0.2751 -0.3857
   21CHL1   H7A 2672   6.401   3.136   5.587  0.2735  2.9844  3.3076
   21CHL1   H7B 2673   6.552   3.032   5.620  0.1183 -2.2897  2.4840
   21CHL1    C8 2674   6.365   2.917   5.601 -0.3996  0.7136  0.1915
   21CHL1    H8 2675   6.259   2.948   5.590  0.0233  1.4537 -2.5820
   21CHL1   C14 2676   6.410   2.868   5.460  0.4379  0.3311  0.0877
   21CHL1   H14 2677   6.518   2.848   5.479  0.2929  1.2924  2.2160
   21CHL1   C15 2678   6.394   2.961   5.342  0.0667  0.2332 -0.2665
   21CHL1  H15A 2679   6.292   3.002   5.353 -0.6984 -1.6333 -0.1189
   21CHL1  H15B 2680   6.467   3.045   5.332  1.1704 -0.6299  0.3209
   21CHL1   C16 2681   6.388   2.867   5.223  0.2565  0.2400  0.1399
   21CHL1  H16A 2682   6.295   2.874   5.162  1.8185 -1.4988 -2.6851
   21CHL1  H16B 2683   6.474   2.875   5.153 -1.2204 -0.3959 -1.8580
   21CHL1   C17 2684   6.397   2.723   5.282 -0.5841 -0.0763  0.1239
   21CHL1   H17 2685   6.502   2.688   5.277 -0.9062 -0.8513 -2.1060
   21CHL1   C13 2686   6.340   2.737   5.420  0.0469  0.4401  0.6582
   21CHL1   C18 2687   6.183   2.745   5.416  0.1711  0.3146  0.1948
   21CHL1  H18A 2688   6.149   2.780   5.516  3.7611  2.2557  0.9048
   21CHL1  H18B 2689   6.145   2.818   5.341  0.2491  0.7004  0.5280
   21CHL1  H18C 2690   6.140   2.644   5.400 -0.1141  0.7742 -2.3609
   21CHL1   C12 2691   6.385   2.627   5.526 -0.1970  0.2077 -0.1010
   21CHL1  H12A 2692   6.340   2.527   5.507  2.8896 -1.3816  0.3542
   21CHL1  H12B 2693   6.495   2.620   5.527 -0.2194 -1.3719 -1.8753
   21CHL1   C11 2694   6.347   2.664   5.670  0.5393 -0.6704  0.2580
   21CHL1  H11A 2695   6.236   2.662   5.673  0.5553 -0.4797  1.3545
   21CHL1  H11B 2696   6.391   2.590   5.741  0.2273 -2.9230 -1.7482
   21CHL1    C9 2697   6.382   2.809   5.714 -0.1589  0.0738  0.5997
   21CHL1    H9 2698   6.491   2.812   5.732 -0.1265 -1.1319  0.6445
   21CHL1   C10 2699   6.315   2.862   5.843  0.1922  0.6053 -0.7885
   21CHL1   C19 2700   6.161   2.860   5.834 -0.3561 -0.6005 -0.5173
   21CHL1  H19A 2701   6.111   2.762   5.847 -1.9784  0.4202  1.4081
   21CHL1  H19B 2702   6.116   2.925   5.911 -0.0902 -0.9675 -0.0452
   21CHL1  H19C 2703   6.129   2.918   5.745 -2.0088 -0.7744 -0.0623
   21CHL1    C1 2704   6.339   2.773   5.972 -0.2824  1.1762  0.2463
   21CHL1   H1A 2705   6.278   2.683   5.951  1.3518 -0.1976  1.0830
   21CHL1   H1B 2706   6.440   2.726   5.978 -1.0253 -0.3922  0.9146
   21CHL1    C2 2707   6.299   2.832   6.105  0.3952  0.3865 -0.5354
   21CHL1   H2A 2708   6.333   2.768   6.189  0.6774  1.6989  0.3781
   21CHL1   H2B 2709   6.188   2.842   6.104  0.1731 -1.4490  1.0840
   21CHL1   C20 2710   6.338   2.615   5.185  0.6524 -0.0617 -0.0165
   21CHL1   H20 2711   6.227   2.615   5.190  0.6806 -0.1308  0.7161
   21CHL1   C21 2712   6.395   2.476   5.223  0.8768  0.8986  0.0865
   21CHL1  H21A 2713   6.501   2.475   5.258  1.3159 -1.9685 -1.0387
   21CHL1  H21B 2714   6.384   2.400   5.144 -2.3086 -0.2275  1.4726
   21CHL1  H21C 2715   6.346   2.440   5.316  1.4398  0.1596  0.1051
   21CHL1   C22 2716   6.376   2.641   5.040  0.1566 -0.3364  0.3133
   21CHL1  H22A 2717   6.395   2.748   5.017  3.5266 -0.8159  0.3908
   21CHL1  H22B 2718   6.477   2.601   5.018 -0.1113 -0.2491 -1.1682
   21CHL1   C23 2719   6.274   2.599   4.929  0.2131 -0.0917 -0.2162
   21CHL1  H23A 2720   6.253   2.492   4.952  2.7080 -0.9314 -1.5413
   21CHL1  H23B 2721   6.185   2.664   4.939  1.0838  1.1707 -0.4758
   21CHL1   C24 2722   6.309   2.581   4.781  0.5580 -0.7690 -0.1069
   21CHL1  H24A 2723   6.326   2.686   4.750 -2.0132 -0.1656  0.3000
   21CHL1  H24B 2724   6.394   2.510   4.774  0.5129 -1.0787  1.8334
   21CHL1   C25 2725   6.183   2.547   4.689 -0.3007 -0.8301 -0.3652
   21CHL1   H25 2726   6.218   2.563   4.584  0.9019  2.3613  0.4019
   21CHL1   C26 2727   6.131   2.407   4.699  0.4279 -0.7997 -0.5823
   21CHL1  H26A 2728   6.141   2.385   4.807 -3.7555  1.5811  0.5492
   21CHL1  H26B 2729   6.025   2.393   4.670 -0.4631  1.2130  1.3387
   21CHL1  H26C 2730   6.179   2.337   4.628  0.3937 -2.2117  0.7453
   21CHL1   C27 2731   6.072   2.657   4.687 -0.1336  0.0370  0.2851
   21CHL1  H27A 2732   6.112   2.761   4.685  1.5525 -0.5652  0.7972
   21CHL1  H27B 2733   6.008   2.645   4.597  0.1048 -0.9774  0.2397
   21CHL1  H27C 2734   6.008   2.648   4.778 -0.0346  1.9929  0.5995
   22CHL1    C3 2735   0.446   1.173   6.557 -0.2484  1.4030  0.1957
   22CHL1    H3 2736   0.362   1.240   6.527 -0.8757  0.1140 -1.0126
   22CHL1    O3 2737   0.465   1.172   6.698  0.0384 -0.2499  0.5671
   22CHL1   H3' 2738   0.559   1.153   6.697  0.0112 -0.4024 -0.4400
   22CHL1    C4 2739   0.413   1.039   6.497 -0.0058  0.1449  0.2595
   22CHL1   H4A 2740   0.486   0.963   6.531 -1.4940 -2.0849 -1.2674
   22CHL1   H4B 2741   0.320   0.995   6.540 -1.2585  1.9711 -0.4721
   22CHL1    C5 2742   0.420   1.025   6.351  0.0957  0.7944  0.4257
   22CHL1    C6 2743   0.322   0.955   6.286 -0.3749 -0.6111 -0.1706
   22CHL1    H6 2744   0.239   0.917   6.347  0.7605 -2.0011  0.5508
   22CHL1    C7 2745   0.326   0.919   6.138 -0.5043  0.2951 -0.8550
   22CHL1   H7A 2746   0.329   0.808   6.129  1.8816  0.0881  1.3698
   22CHL1   H7B 2747   0.239   0.962   6.084 -1.9634 -1.0686  0.2997
   22CHL1    C8 2748   0.455   0.963   6.074 -0.2568 -0.0448 -0.2649
   22CHL1    H8 2749   0.525   0.878   6.089 -0.3926 -0.0013  0.6286
   22CHL1   C14 2750   0.429   0.986   5.919  0.3467  0.1681  0.4519
   22CHL1   H14 2751   0.373   1.082   5.921  1.6136  0.9325  0.2868
   22CHL1   C15 2752   0.344   0.886   5.840 -0.4097 -0.2655  0.4420
   22CHL1  H15A 2753   0.399   0.791   5.852 -1.7312 -1.2941 -1.1591
   22CHL1  H15B 2754   0.238   0.874   5.872 -0.0106 -0.7945  1.5905
   22CHL1   C16 2755   0.368   0.932   5.697  0.1535  0.6943  0.0436
   22CHL1  H16A 2756   0.390   0.840   5.638 -1.5183 -0.0200  0.4909
   22CHL1  H16B 2757   0.274   0.976   5.658 -1.5449 -0.6345  2.3724
   22CHL1   C17 2758   0.480   1.037   5.694 -0.4393 -0.5641  0.0769
   22CHL1   H17 2759   0.434   1.137   5.696 -0.0389 -0.3530 -0.6967
   22CHL1   C13 2760   0.548   1.030   5.828  0.2307 -0.1217  0.1609
   22CHL1   C18 2761   0.644   0.915   5.827 -0.0549  0.7039  0.3919
   22CHL1  H18A 2762   0.608   0.817   5.789  0.8445  0.2538  0.6737
   22CHL1  H18B 2763   0.732   0.937   5.763 -1.3196  0.7101 -1.4377
   22CHL1  H18C 2764   0.682   0.895   5.930  0.9850 -0.2308 -0.1526
   22CHL1   C12 2765   0.600   1.161   5.885  0.3019 -0.3064 -0.0602
   22CHL1  H12A 2766   0.701   1.175   5.840  0.7549 -3.7538 -0.3893
   22CHL1  H12B 2767   0.537   1.249   5.861 -0.3645 -0.5173  0.8563
   22CHL1   C11 2768   0.626   1.158   6.039  0.3035 -0.1175 -0.0022
   22CHL1  H11A 2769   0.710   1.090   6.065 -0.7455 -1.2991  0.4405
   22CHL1  H11B 2770   0.643   1.261   6.076 -1.9168  0.5382 -0.6690
   22CHL1    C9 2771   0.511   1.091   6.127 -0.0885  0.0302 -0.6951
   22CHL1    H9 2772   0.426   1.163   6.127  0.0692  0.4494  3.7111
   22CHL1   C10 2773   0.545   1.089   6.283  0.2866 -0.5253  1.4206
   22CHL1   C19 2774   0.680   1.013   6.308  0.3250  0.1685  0.5279
   22CHL1  H19A 2775   0.765   1.074   6.269 -0.5774 -0.2234 -2.2769
   22CHL1  H19B 2776   0.704   1.004   6.416 -2.9570  1.3997  1.4678
   22CHL1  H19C 2777   0.683   0.912   6.262 -1.5343 -0.7464  2.2783
   22CHL1    C1 2778   0.561   1.228   6.340  0.3655  0.5717 -0.4162
   22CHL1   H1A 2779   0.651   1.283   6.307  0.4207  0.9547  0.3715
   22CHL1   H1B 2780   0.469   1.288   6.324  1.2159  1.9381 -0.3097
   22CHL1    C2 2781   0.577   1.230   6.493  0.6653  0.6381 -0.3358
   22CHL1   H2A 2782   0.582   1.334   6.532 -0.7317  0.6334 -0.0882
   22CHL1   H2B 2783   0.668   1.176   6.526  0.6426  1.0541  0.4351
   22CHL1   C20 2784   0.571   1.029   5.565  0.0407  0.3290  0.0259
   22CHL1   H20 2785   0.631   0.937   5.575  0.5447  0.5315 -0.9944
   22CHL1   C21 2786   0.664   1.146   5.560 -0.5665  0.1430 -0.4825
   22CHL1  H21A 2787   0.749   1.142   5.633 -0.9110  0.8984 -0.0200
   22CHL1  H21B 2788   0.620   1.248   5.566  1.0240  0.7821  2.3329
   22CHL1  H21C 2789   0.717   1.152   5.463 -2.1247  1.4376 -1.3112
   22CHL1   C22 2790   0.480   1.022   5.445 -0.0149  0.2577  0.8388
   22CHL1  H22A 2791   0.380   0.978   5.464  0.0011 -0.5044 -0.6708
   22CHL1  H22B 2792   0.467   1.127   5.410  0.5412 -0.4856 -1.8839
   22CHL1   C23 2793   0.536   0.937   5.331  0.5015  0.1075 -0.6910
   22CHL1  H23A 2794   0.633   0.981   5.298  0.3676  1.0606  0.1251
   22CHL1  H23B 2795   0.557   0.838   5.377 -0.3598  0.9842  1.7450
   22CHL1   C24 2796   0.435   0.926   5.213 -0.1654  0.0360 -0.4476
   22CHL1  H24A 2797   0.335   0.902   5.255 -0.0016  0.1006 -0.0102
   22CHL1  H24B 2798   0.423   1.021   5.158 -1.3210 -0.7990 -1.6911
   22CHL1   C25 2799   0.472   0.816   5.113 -0.2691  0.6939  0.1206
   22CHL1   H25 2800   0.481   0.715   5.158 -0.7467 -0.0282 -1.3309
   22CHL1   C26 2801   0.363   0.814   5.007  0.5208  0.0185  0.5549
   22CHL1  H26A 2802   0.393   0.742   4.928  0.5057  0.2568  0.3288
   22CHL1  H26B 2803   0.272   0.768   5.050  0.2865 -0.6918 -0.6481
   22CHL1  H26C 2804   0.353   0.910   4.951  0.9409 -0.9557 -1.2832
   22CHL1   C27 2805   0.599   0.850   5.045 -0.1674  0.2244  0.3309
   22CHL1  H27A 2806   0.586   0.948   4.995 -0.1265  0.1794  0.2325
   22CHL1  H27B 2807   0.695   0.857   5.102 -0.1088  1.0284  0.1411
   22CHL1  H27C 2808   0.627   0.776   4.967  0.4115 -1.3070  1.9166
   23CHL1    C3 2809   4.995   2.110   6.333 -0.2376 -0.2955  0.3884
   23CHL1    H3 2810   5.047   2.203   6.300 -1.2212 -1.2993 -5.0896
   23CHL1    O3 2811   4.998   2.099   6.473  0.7751  0.3835  0.6234
   23CHL1   H3' 2812   4.969   2.008   6.483  1.3593 -0.2738 -2.5308
   23CHL1    C4 2813   4.853   2.120   6.286 -0.3246  0.9362  0.1833
   23CHL1   H4A 2814   4.793   2.029   6.308  0.2834  0.7618  1.1640
   23CHL1   H4B 2815   4.800   2.204   6.336  0.9386  1.6760  0.3194
   23CHL1    C5 2816   4.846   2.138   6.133  1.0830  0.2286 -0.7363
   23CHL1    C6 2817   4.775   2.239   6.082  0.9423  0.8523  0.1055
   23CHL1    H6 2818   4.719   2.311   6.143  0.6760  0.9854 -0.2928
   23CHL1    C7 2819   4.775   2.261   5.931 -0.1490  0.0567 -0.7386
   23CHL1   H7A 2820   4.674   2.291   5.897 -2.5646 -2.5364  3.3508
   23CHL1   H7B 2821   4.844   2.345   5.909  0.1031  0.2283  0.5943
   23CHL1    C8 2822   4.816   2.136   5.852 -0.3060 -0.1948  0.0013
   23CHL1    H8 2823   4.743   2.053   5.858  0.7197 -1.0643  0.8501
   23CHL1   C14 2824   4.838   2.172   5.704 -0.5434  0.7041 -0.0836
   23CHL1   H14 2825   4.911   2.255   5.714 -0.7294  0.9098 -0.3945
   23CHL1   C15 2826   4.716   2.236   5.630 -0.8400  0.2797 -0.5346
   23CHL1  H15A 2827   4.633   2.179   5.676 -1.0213  1.7530  1.0996
   23CHL1  H15B 2828   4.700   2.344   5.654  0.5537  0.4652 -0.3461
   23CHL1   C16 2829   4.752   2.218   5.488  0.1945  0.2375  0.2013
   23CHL1  H16A 2830   4.664   2.169   5.441  1.8656  0.0787 -3.0873
   23CHL1  H16B 2831   4.763   2.317   5.439 -2.4861  0.3930 -0.2652
   23CHL1   C17 2832   4.870   2.120   5.472  0.2983  0.3769 -0.0666
   23CHL1   H17 2833   4.953   2.193   5.459  0.3279  0.1896 -1.0039
   23CHL1   C13 2834   4.887   2.059   5.614 -0.9662  0.3456  0.8338
   23CHL1   C18 2835   4.784   1.940   5.606 -0.3410 -0.4347  0.3223
   23CHL1  H18A 2836   4.768   1.898   5.707 -0.3270 -0.2735  0.3925
   23CHL1  H18B 2837   4.691   1.981   5.562 -1.1771 -1.4072  1.1485
   23CHL1  H18C 2838   4.820   1.855   5.544  1.0643  0.9228 -0.8394
   23CHL1   C12 2839   5.024   2.015   5.672 -0.4716 -0.4934  0.5518
   23CHL1  H12A 2840   5.069   1.937   5.607  0.4523  2.3701 -2.5384
   23CHL1  H12B 2841   5.092   2.101   5.655 -0.8071 -0.8900 -3.8056
   23CHL1   C11 2842   5.018   1.973   5.816  0.3568 -0.4490 -0.3325
   23CHL1  H11A 2843   4.948   1.888   5.801 -0.0988 -0.1194 -0.1050
   23CHL1  H11B 2844   5.114   1.934   5.855 -0.5856 -1.4036  1.1084
   23CHL1    C9 2845   4.947   2.085   5.906 -0.0713  0.8576  0.4884
   23CHL1    H9 2846   5.018   2.170   5.908 -0.4757  1.2017  0.5326
   23CHL1   C10 2847   4.936   2.038   6.052 -0.3105  0.0002 -0.5639
   23CHL1   C19 2848   4.863   1.903   6.057  0.4567 -0.7410  0.1671
   23CHL1  H19A 2849   4.763   1.918   6.010 -0.3394  0.6486  2.1470
   23CHL1  H19B 2850   4.909   1.823   5.994 -1.7643 -1.4695 -0.6367
   23CHL1  H19C 2851   4.835   1.876   6.161 -2.8821 -3.3868 -1.2347
   23CHL1    C1 2852   5.078   2.026   6.118 -0.2851 -0.4974 -0.6805
   23CHL1   H1A 2853   5.145   1.951   6.071  0.9751  1.3151 -1.8949
   23CHL1   H1B 2854   5.120   2.126   6.095 -0.1009 -0.1995  0.8254
   23CHL1    C2 2855   5.075   1.997   6.266 -0.5388  0.1637 -0.1066
   23CHL1   H2A 2856   5.175   1.983   6.311 -0.5622 -3.1750 -0.8368
   23CHL1   H2B 2857   5.033   1.897   6.290 -1.3023  0.3259 -0.7188
   23CHL1   C20 2858   4.871   2.032   5.345 -0.4984  0.2338 -0.0446
   23CHL1   H20 2859   4.779   1.970   5.348 -0.1962 -0.2133  0.0019
   23CHL1   C21 2860   4.989   1.937   5.340  0.7975  0.0325  0.5571
   23CHL1  H21A 2861   5.086   1.992   5.335  0.7620  0.0931  0.5311
   23CHL1  H21B 2862   4.990   1.877   5.246 -1.1976 -0.6324  0.9222
   23CHL1  H21C 2863   4.987   1.872   5.430  2.5550 -1.6332 -0.5261
   23CHL1   C22 2864   4.867   2.121   5.219 -0.2476 -0.3871 -0.8525
   23CHL1  H22A 2865   4.799   2.208   5.232 -1.9724 -1.7544 -0.3132
   23CHL1  H22B 2866   4.972   2.156   5.218 -0.4350  0.1954 -1.4749
   23CHL1   C23 2867   4.828   2.049   5.089 -0.3233 -0.2568  0.3827
   23CHL1  H23A 2868   4.875   1.948   5.087 -0.2303 -0.2117 -0.9544
   23CHL1  H23B 2869   4.718   2.051   5.073 -0.1853 -0.7385 -0.7792
   23CHL1   C24 2870   4.876   2.115   4.958  0.1007  0.5757  0.7112
   23CHL1  H24A 2871   4.862   2.225   4.968  2.2538  0.9532 -0.0600
   23CHL1  H24B 2872   4.984   2.093   4.950 -0.1161 -0.2310 -0.1806
   23CHL1   C25 2873   4.797   2.061   4.833  0.1210 -0.3813  0.1244
   23CHL1   H25 2874   4.690   2.081   4.856  0.2365 -0.5325  0.7943
   23CHL1   C26 2875   4.829   2.147   4.712 -0.4638 -0.3162 -0.0881
   23CHL1  H26A 2876   4.787   2.095   4.623  1.9452 -2.2858 -0.1876
   23CHL1  H26B 2877   4.783   2.247   4.718 -0.3691 -0.3155  0.6493
   23CHL1  H26C 2878   4.938   2.168   4.703 -0.3424 -0.9236 -0.1223
   23CHL1   C27 2879   4.800   1.908   4.808  0.5040  0.5080 -0.2701
   23CHL1  H27A 2880   4.902   1.883   4.771  0.5121  0.6612 -0.3487
   23CHL1  H27B 2881   4.790   1.852   4.904  1.2313  0.9811  0.0872
   23CHL1  H27C 2882   4.734   1.871   4.726  0.0419  0.8345 -0.0426
   24CHL1    C3 2883   0.384   1.614   6.512 -0.1696  0.1342 -0.1369
   24CHL1    H3 2884   0.333   1.527   6.466 -4.2744  1.0301  2.2080
   24CHL1    O3 2885   0.381   1.599   6.656 -0.3362  0.0383  0.8112
   24CHL1   H3' 2886   0.303   1.546   6.674 -1.2017  0.5006 -1.2718
   24CHL1    C4 2887   0.532   1.639   6.465  0.2809 -0.1777 -0.7594
   24CHL1   H4A 2888   0.565   1.731   6.519  1.9284 -0.4002 -1.3091
   24CHL1   H4B 2889   0.600   1.558   6.498  1.3964  0.8545 -0.4044
   24CHL1    C5 2890   0.542   1.649   6.313  0.4258 -0.3691 -0.2975
   24CHL1    C6 2891   0.611   1.555   6.241  0.6127 -0.2611 -0.3547
   24CHL1    H6 2892   0.665   1.484   6.305 -0.2779 -0.1767  0.5119
   24CHL1    C7 2893   0.627   1.555   6.094  0.2399 -0.1613 -0.0222
   24CHL1   H7A 2894   0.735   1.535   6.076 -0.0983 -1.0727 -1.1644
   24CHL1   H7B 2895   0.566   1.470   6.057  0.2468  0.1491 -0.7559
   24CHL1    C8 2896   0.577   1.688   6.036 -0.1889 -0.7559  0.8766
   24CHL1    H8 2897   0.662   1.758   6.054  1.4711 -2.1745 -0.9494
   24CHL1   C14 2898   0.562   1.664   5.886 -0.5013  0.2388  0.3162
   24CHL1   H14 2899   0.473   1.598   5.872 -1.1721  1.1722  0.0677
   24CHL1   C15 2900   0.678   1.595   5.806  0.3066 -0.0152  0.2946
   24CHL1  H15A 2901   0.771   1.651   5.830 -0.5669  1.1245  1.1500
   24CHL1  H15B 2902   0.700   1.486   5.816  0.8155  0.0455 -0.1432
   24CHL1   C16 2903   0.646   1.622   5.657  0.6111  0.0701 -0.0500
   24CHL1  H16A 2904   0.735   1.658   5.600  0.6891 -1.6777 -1.0903
   24CHL1  H16B 2905   0.601   1.535   5.606  1.4745  0.1740 -1.0363
   24CHL1   C17 2906   0.531   1.730   5.661  0.4004 -0.0248  1.2553
   24CHL1   H17 2907   0.436   1.673   5.660 -1.7014  3.0084 -3.1953
   24CHL1   C13 2908   0.527   1.785   5.799 -0.4730 -0.0334 -0.2314
   24CHL1   C18 2909   0.642   1.886   5.816  0.4867 -0.6836  0.1227
   24CHL1  H18A 2910   0.646   1.927   5.920 -2.0467  0.0104  0.0186
   24CHL1  H18B 2911   0.744   1.850   5.791  0.5704 -1.0862  0.9777
   24CHL1  H18C 2912   0.615   1.976   5.756  0.3511  0.5573  1.9433
   24CHL1   C12 2913   0.385   1.834   5.859  0.2244  0.0626  0.3052
   24CHL1  H12A 2914   0.353   1.930   5.812  0.5150  0.4975  0.9704
   24CHL1  H12B 2915   0.307   1.760   5.835 -0.6265  1.3202 -0.9872
   24CHL1   C11 2916   0.390   1.859   6.008 -0.8872  0.7925 -0.5655
   24CHL1  H11A 2917   0.458   1.943   6.033 -2.1685  0.6614  4.3010
   24CHL1  H11B 2918   0.292   1.891   6.049 -0.0653 -0.6781  2.9560
   24CHL1    C9 2919   0.444   1.739   6.091  0.4999  0.7462  0.0987
   24CHL1    H9 2920   0.378   1.651   6.074  1.5507 -0.6225  2.5586
   24CHL1   C10 2921   0.448   1.755   6.244  0.1669  0.2469 -0.3278
   24CHL1   C19 2922   0.516   1.886   6.281  0.5041  0.0136  0.0122
   24CHL1  H19A 2923   0.455   1.967   6.236 -0.2167 -0.1487  0.6560
   24CHL1  H19B 2924   0.522   1.900   6.392  0.2305 -0.2022  0.0554
   24CHL1  H19C 2925   0.622   1.899   6.253  0.8169  1.7697  1.7602
   24CHL1    C1 2926   0.305   1.747   6.305  0.4675 -0.4245 -0.1090
   24CHL1   H1A 2927   0.246   1.838   6.281  0.6243  0.2003  1.7007
   24CHL1   H1B 2928   0.251   1.658   6.266 -0.2259 -0.3459  0.6481
   24CHL1    C2 2929   0.302   1.732   6.461 -0.3669 -0.5605  0.0666
   24CHL1   H2A 2930   0.197   1.703   6.480 -0.2465 -0.6071  0.6688
   24CHL1   H2B 2931   0.330   1.827   6.510  1.9531 -0.4533 -1.2809
   24CHL1   C20 2932   0.529   1.833   5.542 -0.0619  0.0821  0.1746
   24CHL1   H20 2933   0.617   1.901   5.553  0.1315 -0.2054  0.4058
   24CHL1   C21 2934   0.408   1.925   5.555  0.3878  0.2022 -0.1957
   24CHL1  H21A 2935   0.400   1.986   5.463  1.4940 -0.5172 -0.7937
   24CHL1  H21B 2936   0.428   1.996   5.638 -1.2157 -2.3292  2.5311
   24CHL1  H21C 2937   0.314   1.870   5.578  1.5814 -2.0033 -0.2894
   24CHL1   C22 2938   0.529   1.771   5.399  0.5927  0.3572 -0.0574
   24CHL1  H22A 2939   0.514   1.851   5.324 -0.6792  0.1438 -0.0470
   24CHL1  H22B 2940   0.619   1.708   5.382  1.4177  1.0067  1.6462
   24CHL1   C23 2941   0.411   1.674   5.363  0.0377  0.6340  0.5939
   24CHL1  H23A 2942   0.398   1.592   5.436 -2.2961 -1.0755 -1.5765
   24CHL1  H23B 2943   0.332   1.753   5.365  1.7597  2.4425  1.1842
   24CHL1   C24 2944   0.415   1.614   5.222  0.3907 -0.1511  0.0509
   24CHL1  H24A 2945   0.323   1.557   5.198 -0.7601  0.4068  2.7727
   24CHL1  H24B 2946   0.427   1.705   5.159 -0.5023  0.3861  0.6277
   24CHL1   C25 2947   0.537   1.519   5.188 -0.3878 -0.3239 -0.1870
   24CHL1   H25 2948   0.630   1.579   5.204  0.2640 -0.4303 -2.9485
   24CHL1   C26 2949   0.537   1.401   5.283 -0.2065  0.4088 -0.8158
   24CHL1  H26A 2950   0.555   1.436   5.387  0.8506 -0.5888 -0.6457
   24CHL1  H26B 2951   0.457   1.325   5.270  1.8601 -2.1109  0.3438
   24CHL1  H26C 2952   0.625   1.340   5.254 -0.5160 -0.5725  0.2545
   24CHL1   C27 2953   0.539   1.477   5.039  0.0544  0.1365 -1.0945
   24CHL1  H27A 2954   0.473   1.395   5.006  1.4560 -1.6149  0.2371
   24CHL1  H27B 2955   0.509   1.572   4.990  2.2424  0.9773 -0.9116
   24CHL1  H27C 2956   0.648   1.463   5.020  1.1049  1.9304  2.5255
   25CHL1    C3 2957   2.755   6.018   6.668 -0.3771 -0.0467 -0.3761
   25CHL1    H3 2958   2.712   5.915   6.668  1.4306 -0.8500 -0.0040
   25CHL1    O3 2959   2.783   6.055   6.805  0.1865 -0.2012  0.6660
   25CHL1   H3' 2960   2.708   6.104   6.838  1.7298  3.3097 -0.6076
   25CHL1    C4 2961   2.889   6.016   6.590 -0.4336  0.9428 -0.3356
   25CHL1   H4A 2962   2.938   6.113   6.611  1.4680  0.1374 -0.8368
   25CHL1   H4B 2963   2.954   5.936   6.631 -1.5782  0.6874  1.0669
   25CHL1    C5 2964   2.880   5.999   6.442  0.3404 -0.3071 -0.4410
   25CHL1    C6 2965   2.946   5.902   6.376  0.2170 -0.5736  0.3583
   25CHL1    H6 2966   3.011   5.835   6.434  3.0746  0.5337 -1.3498
   25CHL1    C7 2967   2.940   5.892   6.228 -0.4522  0.6723  0.2791
   25CHL1   H7A 2968   3.041   5.880   6.183 -1.1211 -1.2530 -0.8290
   25CHL1   H7B 2969   2.896   5.795   6.196  0.6225  0.0228  0.7267
   25CHL1    C8 2970   2.883   6.017   6.155  0.0065 -0.0789 -0.4217
   25CHL1    H8 2971   2.970   6.086   6.151 -0.4751  0.5534 -0.3230
   25CHL1   C14 2972   2.838   5.984   6.011  0.4575  0.3736 -0.3262
   25CHL1   H14 2973   2.758   5.909   6.025  1.9839 -1.7581 -2.3564
   25CHL1   C15 2974   2.939   5.913   5.917  0.3744  0.2979  0.7531
   25CHL1  H15A 2975   3.039   5.963   5.918  0.5735 -0.1045  1.3632
   25CHL1  H15B 2976   2.958   5.804   5.931  0.1616  0.2601  0.7476
   25CHL1   C16 2977   2.865   5.924   5.785  0.6428  0.1297 -0.0597
   25CHL1  H16A 2978   2.948   5.959   5.720 -0.1972  2.3761  0.0019
   25CHL1  H16B 2979   2.825   5.831   5.738  0.6559 -0.8571  1.8039
   25CHL1   C17 2980   2.758   6.044   5.789  0.3584 -0.8546 -0.5073
   25CHL1   H17 2981   2.655   6.002   5.798 -0.7443  1.5021 -1.2461
   25CHL1   C13 2982   2.785   6.106   5.923 -0.2944 -1.1268 -0.8725
   25CHL1   C18 2983   2.898   6.210   5.921  0.1987  0.1138  0.2438
   25CHL1  H18A 2984   2.855   6.307   5.887 -1.5162 -0.0509  1.7831
   25CHL1  H18B 2985   2.931   6.226   6.026 -1.6084 -0.8222  0.9934
   25CHL1  H18C 2986   2.978   6.165   5.859  0.8395 -2.9665  3.0167
   25CHL1   C12 2987   2.661   6.156   5.997  0.8385 -0.8739  0.1944
   25CHL1  H12A 2988   2.617   6.247   5.951  3.1718 -0.1118 -0.6897
   25CHL1  H12B 2989   2.588   6.072   5.992  0.1148 -0.2434  0.0623
   25CHL1   C11 2990   2.692   6.199   6.142 -0.1137  0.1935 -0.1687
   25CHL1  H11A 2991   2.771   6.277   6.135 -0.4196  0.4275 -1.2298
   25CHL1  H11B 2992   2.606   6.244   6.195  1.4210  2.2413  0.7091
   25CHL1    C9 2993   2.763   6.078   6.224 -0.3080 -0.4571 -0.2801
   25CHL1    H9 2994   2.679   6.006   6.227  0.0829 -0.8939  0.9428
   25CHL1   C10 2995   2.792   6.107   6.369 -0.0620  0.7204  0.4508
   25CHL1   C19 2996   2.878   6.236   6.380 -0.1820 -0.1092  0.1938
   25CHL1  H19A 2997   2.904   6.257   6.486 -2.0119 -1.3612  0.9542
   25CHL1  H19B 2998   2.970   6.223   6.320  1.0850  2.4902  1.4152
   25CHL1  H19C 2999   2.817   6.324   6.352  0.7562  1.5354  2.9311
   25CHL1    C1 3000   2.663   6.115   6.450  0.4511 -0.1256 -0.1801
   25CHL1   H1A 3001   2.610   6.207   6.419 -0.1876 -0.3507  0.2373
   25CHL1   H1B 3002   2.602   6.023   6.432  0.4744  0.1573 -1.9617
   25CHL1    C2 3003   2.677   6.133   6.605  0.1693 -0.0310  0.3025
   25CHL1   H2A 3004   2.581   6.151   6.659 -0.0794  0.5994 -0.3261
   25CHL1   H2B 3005   2.730   6.229   6.618  0.2601  0.1461 -1.1509
   25CHL1   C20 3006   2.746   6.127   5.665 -0.3940 -0.0045 -1.2374
   25CHL1   H20 3007   2.826   6.203   5.652 -0.7938  0.5613 -0.4495
   25CHL1   C21 3008   2.621   6.213   5.656  0.8834 -0.1549  0.0246
   25CHL1  H21A 3009   2.634   6.283   5.570  2.4124  0.0393  0.3927
   25CHL1  H21B 3010   2.610   6.281   5.742  2.9426  0.2234  0.0348
   25CHL1  H21C 3011   2.528   6.153   5.642  1.0179 -0.0370 -1.5555
   25CHL1   C22 3012   2.749   6.032   5.540 -0.6356 -0.4152  0.2275
   25CHL1  H22A 3013   2.840   5.968   5.538 -1.2651 -1.3107 -0.0448
   25CHL1  H22B 3014   2.664   5.964   5.561 -0.0513 -1.1062  0.3883
   25CHL1   C23 3015   2.731   6.104   5.405  0.2763 -0.2662 -0.1153
   25CHL1  H23A 3016   2.630   6.152   5.410  0.3003 -0.2972  1.1385
   25CHL1  H23B 3017   2.798   6.188   5.378 -1.5588  1.9155  1.6911
   25CHL1   C24 3018   2.735   5.998   5.288  0.2560 -0.9002  0.6425
   25CHL1  H24A 3019   2.842   5.974   5.269  0.1557 -0.6939 -0.2294
   25CHL1  H24B 3020   2.679   5.905   5.313  1.0418 -2.6629 -3.3507
   25CHL1   C25 3021   2.675   6.038   5.148 -0.1032  1.0466 -0.4971
   25CHL1   H25 3022   2.566   6.062   5.156  0.0512  1.5284  0.3111
   25CHL1   C26 3023   2.743   6.167   5.094 -0.4855  0.4232 -0.0330
   25CHL1  H26A 3024   2.721   6.259   5.152 -1.2565  1.5269 -1.9855
   25CHL1  H26B 3025   2.852   6.164   5.072 -0.6769 -0.4993 -0.9321
   25CHL1  H26C 3026   2.694   6.191   4.998 -2.9900  0.6082  1.2169
   25CHL1   C27 3027   2.685   5.916   5.047  0.0690  0.5787  0.8343
   25CHL1  H27A 3028   2.786   5.870   5.046 -0.3684 -0.5102 -1.6161
   25CHL1  H27B 3029   2.606   5.842   5.070 -0.7391  0.9418 -0.6107
   25CHL1  H27C 3030   2.668   5.947   4.941  1.9120 -0.7736  0.0757
   26CHL1    C3 3031   0.056   1.238   6.387  0.3471  0.6531 -0.5374
   26CHL1    H3 3032   0.148   1.176   6.387 -0.5707 -0.7600 -0.5993
   26CHL1    O3 3033   0.016   1.266   6.522  0.2963  0.1462 -0.7700
   26CHL1   H3' 3034  -0.078   1.276   6.506  0.1364  0.3473  0.2401
   26CHL1    C4 3035   0.079   1.367   6.313 -0.1340 -0.3131  0.2235
   26CHL1   H4A 3036  -0.015   1.425   6.326 -0.3406 -1.0987  2.7765
   26CHL1   H4B 3037   0.163   1.419   6.364  0.0588 -1.0071  0.6268
   26CHL1    C5 3038   0.108   1.349   6.163  0.3581 -0.4403 -0.3559
   26CHL1    C6 3039   0.225   1.390   6.110 -0.6417  0.4594  0.4438
   26CHL1    H6 3040   0.307   1.437   6.165  0.3911 -1.1359  0.3139
   26CHL1    C7 3041   0.258   1.367   5.961 -0.4361 -0.2944 -0.5623
   26CHL1   H7A 3042   0.317   1.454   5.925  0.8930 -2.0293 -2.9059
   26CHL1   H7B 3043   0.321   1.276   5.955 -3.0321 -2.4376  1.9614
   26CHL1    C8 3044   0.125   1.349   5.883 -0.4589  0.1719 -0.9722
   26CHL1    H8 3045   0.060   1.439   5.881  0.3117  0.7300 -2.2605
   26CHL1   C14 3046   0.161   1.312   5.738 -0.2556 -0.8940 -0.3166
   26CHL1   H14 3047   0.220   1.218   5.742  0.7392 -0.3038 -1.0674
   26CHL1   C15 3048   0.255   1.408   5.658 -0.5530 -0.1679 -0.8647
   26CHL1  H15A 3049   0.220   1.512   5.675 -1.2344 -0.2124 -1.8837
   26CHL1  H15B 3050   0.363   1.398   5.680 -0.5362  3.2997  1.5468
   26CHL1   C16 3051   0.225   1.379   5.513  0.1454  0.1391  0.1455
   26CHL1  H16A 3052   0.191   1.468   5.455 -2.4743 -0.0966  1.1836
   26CHL1  H16B 3053   0.318   1.344   5.463  1.2326  1.3144  1.2569
   26CHL1   C17 3054   0.112   1.266   5.508 -0.1832  0.0323 -0.1756
   26CHL1   H17 3055   0.180   1.181   5.528 -0.8398 -0.1850  1.2619
   26CHL1   C13 3056   0.040   1.288   5.647 -0.0256  0.9062  0.0067
   26CHL1   C18 3057  -0.043   1.417   5.641  0.2652 -0.5874  0.8821
   26CHL1  H18A 3058  -0.136   1.407   5.581  0.2897 -0.9366  0.8965
   26CHL1  H18B 3059  -0.081   1.448   5.741 -0.5904  0.1993  0.3228
   26CHL1  H18C 3060   0.016   1.500   5.598 -1.6585 -0.3698 -1.5397
   26CHL1   C12 3061  -0.034   1.167   5.706  0.0915  0.1750 -0.3714
   26CHL1  H12A 3062  -0.128   1.156   5.648  0.3672 -1.0315 -0.6283
   26CHL1  H12B 3063   0.034   1.079   5.708  1.2406  1.0434 -0.0439
   26CHL1   C11 3064  -0.085   1.186   5.855 -0.5796 -0.1549  0.2617
   26CHL1  H11A 3065  -0.166   1.262   5.856  0.7552  1.3806 -1.0489
   26CHL1  H11B 3066  -0.122   1.087   5.887  1.2714 -1.3990 -1.2009
   26CHL1    C9 3067   0.037   1.235   5.948 -0.5820  0.1902  0.3876
   26CHL1    H9 3068   0.100   1.143   5.951  0.5121  0.6071 -3.9094
   26CHL1   C10 3069  -0.005   1.266   6.092  0.9357  0.6493 -0.3935
   26CHL1   C19 3070  -0.138   1.341   6.100 -0.6432  0.4828 -0.0864
   26CHL1  H19A 3071  -0.135   1.431   6.035  2.2481 -0.1227 -0.9132
   26CHL1  H19B 3072  -0.220   1.272   6.068  0.0798 -0.6276  0.3994
   26CHL1  H19C 3073  -0.172   1.387   6.195  0.0513 -1.0789  0.9571
   26CHL1    C1 3074  -0.031   1.131   6.174  0.0949 -0.7207 -0.8096
   26CHL1   H1A 3075  -0.113   1.078   6.121  0.7211 -1.8638 -0.6649
   26CHL1   H1B 3076   0.050   1.060   6.146 -0.5332 -1.3789 -0.9655
   26CHL1    C2 3077  -0.050   1.146   6.323 -0.2169  0.1523 -0.8720
   26CHL1   H2A 3078  -0.067   1.061   6.392 -0.5211  0.1985 -0.8876
   26CHL1   H2B 3079  -0.145   1.203   6.335 -0.5986 -1.0696  4.8303
   26CHL1   C20 3080   0.032   1.250   5.378 -0.3317  0.1967 -0.2834
   26CHL1   H20 3081  -0.029   1.342   5.361  0.2896  1.1157  2.0362
   26CHL1   C21 3082  -0.055   1.122   5.385  0.0751  0.8023  0.1396
   26CHL1  H21A 3083  -0.149   1.134   5.443 -0.2721 -0.4261 -0.1537
   26CHL1  H21B 3084   0.007   1.035   5.416 -1.7172 -0.2174  0.9921
   26CHL1  H21C 3085  -0.097   1.104   5.284 -1.0485  0.6934  0.6171
   26CHL1   C22 3086   0.127   1.235   5.260 -0.7324  0.0948 -0.2290
   26CHL1  H22A 3087   0.200   1.318   5.267 -1.2069  0.4834  0.2555
   26CHL1  H22B 3088   0.186   1.141   5.260 -1.0867 -0.1492 -1.9808
   26CHL1   C23 3089   0.078   1.249   5.118  0.3903  0.9821 -0.0515
   26CHL1  H23A 3090   0.017   1.158   5.104  0.6049  0.7055  0.7553
   26CHL1  H23B 3091   0.017   1.339   5.095  0.8436  0.7450 -2.3587
   26CHL1   C24 3092   0.194   1.241   5.023 -0.3484 -0.4386  0.3382
   26CHL1  H24A 3093   0.253   1.328   5.057 -1.9496  0.7489  0.2062
   26CHL1  H24B 3094   0.257   1.153   5.046 -1.2026 -1.7720 -2.0433
   26CHL1   C25 3095   0.181   1.261   4.867  0.3544 -0.1459 -0.3189
   26CHL1   H25 3096   0.090   1.323   4.851 -0.8027 -2.1275 -1.9380
   26CHL1   C26 3097   0.302   1.331   4.808 -0.1355 -0.0486 -0.5812
   26CHL1  H26A 3098   0.321   1.431   4.853  0.2547 -1.0057  1.5389
   26CHL1  H26B 3099   0.394   1.275   4.835  0.8578  1.6193 -0.3565
   26CHL1  H26C 3100   0.299   1.353   4.700 -2.1427  0.4572 -0.4626
   26CHL1   C27 3101   0.154   1.120   4.803 -0.1908 -0.0546  0.0227
   26CHL1  H27A 3102   0.094   1.061   4.876  0.9527 -0.1673  0.8977
   26CHL1  H27B 3103   0.106   1.136   4.704 -0.2084  0.4253  0.1087
   26CHL1  H27C 3104   0.254   1.074   4.786 -0.2360  0.1015 -0.7013
   27CHL1    C3 3105   5.356   1.572   6.204 -0.0436  0.3464  0.5423
   27CHL1    H3 3106   5.337   1.462   6.206  1.7886 -0.0655 -1.3168
   27CHL1    O3 3107   5.379   1.610   6.333 -0.1915 -0.0352  0.3514
   27CHL1   H3' 3108   5.445   1.679   6.336 -1.8514  1.5989  0.5743
   27CHL1    C4 3109   5.487   1.591   6.122 -0.4050 -0.5042  0.0435
   27CHL1   H4A 3110   5.538   1.683   6.156  1.1727 -1.5448  0.6477
   27CHL1   H4B 3111   5.555   1.511   6.161 -0.1105 -0.0042  0.5634
   27CHL1    C5 3112   5.478   1.582   5.967 -0.5623 -0.1600 -1.2297
   27CHL1    C6 3113   5.563   1.507   5.899 -0.2643  0.8383 -0.0151
   27CHL1    H6 3114   5.644   1.454   5.951 -1.6380  1.2908  2.7499
   27CHL1    C7 3115   5.566   1.490   5.745  0.0419  0.5936  0.1066
   27CHL1   H7A 3116   5.671   1.491   5.707  0.6890  0.1472  1.7853
   27CHL1   H7B 3117   5.520   1.390   5.733 -1.3611  1.1908  0.3576
   27CHL1    C8 3118   5.474   1.590   5.676  0.2194 -0.4562  0.0922
   27CHL1    H8 3119   5.516   1.693   5.666 -1.1508 -0.0518 -2.5360
   27CHL1   C14 3120   5.443   1.547   5.535 -0.2058  0.4930 -0.4471
   27CHL1   H14 3121   5.391   1.450   5.547 -1.0614  1.1357  1.4389
   27CHL1   C15 3122   5.560   1.529   5.438  0.5324 -0.4623  0.0241
   27CHL1  H15A 3123   5.625   1.617   5.458  0.0452 -0.6280  2.6209
   27CHL1  H15B 3124   5.615   1.438   5.469  0.5751  0.3222  2.4303
   27CHL1   C16 3125   5.505   1.534   5.296  0.0695  0.1117  0.3886
   27CHL1  H16A 3126   5.569   1.603   5.237  0.9210 -2.1523 -1.5299
   27CHL1  H16B 3127   5.498   1.438   5.239 -0.2197 -1.3389  2.7417
   27CHL1   C17 3128   5.357   1.569   5.316 -0.1186 -0.5645 -0.2025
   27CHL1   H17 3129   5.305   1.472   5.321 -0.2836 -0.4514  0.3759
   27CHL1   C13 3130   5.351   1.637   5.456  0.5963 -0.0147 -0.0338
   27CHL1   C18 3131   5.400   1.777   5.441  0.1233 -1.0228 -0.0710
   27CHL1  H18A 3132   5.495   1.785   5.384  0.3786  1.9032  0.5587
   27CHL1  H18B 3133   5.331   1.847   5.389  3.0417  1.0633 -1.3692
   27CHL1  H18C 3134   5.411   1.832   5.538 -1.5041 -0.8450  0.0467
   27CHL1   C12 3135   5.219   1.643   5.532  0.1216 -0.2292 -0.1823
   27CHL1  H12A 3136   5.149   1.715   5.486 -0.2933 -0.4332  0.1268
   27CHL1  H12B 3137   5.179   1.539   5.536  0.2125 -0.2779 -0.4834
   27CHL1   C11 3138   5.225   1.682   5.682  0.1645  0.3274  0.3068
   27CHL1  H11A 3139   5.238   1.793   5.687  0.5406  0.3641 -1.0132
   27CHL1  H11B 3140   5.124   1.660   5.722  0.3059 -0.1847  0.3914
   27CHL1    C9 3141   5.341   1.610   5.760  0.0011 -0.5124  1.1126
   27CHL1    H9 3142   5.307   1.505   5.772 -0.8709 -0.1743  1.6399
   27CHL1   C10 3143   5.360   1.661   5.899 -0.5730 -0.0779  0.4873
   27CHL1   C19 3144   5.394   1.814   5.896 -0.8653 -0.1758 -0.1785
   27CHL1  H19A 3145   5.480   1.821   5.826  0.3785  0.8169  1.3888
   27CHL1  H19B 3146   5.309   1.872   5.854 -2.0978 -1.5759  0.2963
   27CHL1  H19C 3147   5.427   1.853   5.995  0.1302  0.0676 -0.5972
   27CHL1    C1 3148   5.231   1.629   5.985 -0.0362  0.1061  0.0289
   27CHL1   H1A 3149   5.154   1.698   5.944  0.4408  1.8548  1.9689
   27CHL1   H1B 3150   5.208   1.522   5.962 -0.2665  0.5087 -1.7577
   27CHL1    C2 3151   5.245   1.655   6.133 -0.0695  0.0847  0.3874
   27CHL1   H2A 3152   5.149   1.642   6.187 -0.2539 -0.6459 -0.0950
   27CHL1   H2B 3153   5.274   1.760   6.151  2.5978 -0.8211  2.1364
   27CHL1   C20 3154   5.293   1.645   5.195 -0.1889 -0.3099 -0.1030
   27CHL1   H20 3155   5.334   1.749   5.195  2.0591 -0.9929 -3.9327
   27CHL1   C21 3156   5.137   1.628   5.202  0.4870 -0.9844 -0.0515
   27CHL1  H21A 3157   5.107   1.524   5.176 -1.0007 -0.1003 -2.0949
   27CHL1  H21B 3158   5.094   1.692   5.123 -1.4386 -2.7418 -0.5275
   27CHL1  H21C 3159   5.095   1.646   5.303  1.0903 -0.0659  0.0394
   27CHL1   C22 3160   5.353   1.608   5.054 -0.0795 -0.0546 -0.4543
   27CHL1  H22A 3161   5.463   1.617   5.040 -0.1336  1.4953 -0.1149
   27CHL1  H22B 3162   5.314   1.507   5.033  3.1685 -1.2488 -1.3301
   27CHL1   C23 3163   5.296   1.700   4.942 -0.4844 -0.3463  0.6265
   27CHL1  H23A 3164   5.189   1.675   4.930 -0.0777 -1.5237 -0.9079
   27CHL1  H23B 3165   5.318   1.806   4.968  0.4045 -0.6564  1.1844
   27CHL1   C24 3166   5.364   1.655   4.810 -0.7687 -0.7335  0.0073
   27CHL1  H24A 3167   5.473   1.663   4.830 -0.1747 -2.4628 -2.2281
   27CHL1  H24B 3168   5.350   1.550   4.777  0.9117 -1.1531  0.5476
   27CHL1   C25 3169   5.338   1.749   4.690 -0.6507  0.6167 -1.1630
   27CHL1   H25 3170   5.391   1.694   4.609  1.0031 -1.5022  1.2139
   27CHL1   C26 3171   5.194   1.761   4.656 -0.6634  0.2242 -0.0222
   27CHL1  H26A 3172   5.142   1.796   4.748 -1.5803  3.6201 -1.6834
   27CHL1  H26B 3173   5.178   1.843   4.584  1.7029  0.8311  0.0494
   27CHL1  H26C 3174   5.159   1.663   4.618  0.7420 -0.3922  0.1945
   27CHL1   C27 3175   5.397   1.888   4.710 -0.7550 -0.6019 -0.4355
   27CHL1  H27A 3176   5.501   1.880   4.750  0.4470  1.3136 -2.9056
   27CHL1  H27B 3177   5.333   1.940   4.784  1.6972  1.8534  0.1010
   27CHL1  H27C 3178   5.405   1.962   4.627  1.1908  1.0840  1.1468
   28CHL1    C3 3179   2.062   0.395   6.482  0.4327 -0.5884  0.3732
   28CHL1    H3 3180   1.957   0.431   6.476  0.5349 -0.4140 -0.4490
   28CHL1    O3 3181   2.111   0.406   6.615 -0.2556  0.0895 -0.4199
   28CHL1   H3' 3182   2.116   0.315   6.645 -0.4849 -0.2464 -1.3857
   28CHL1    C4 3183   2.072   0.246   6.428  0.0818 -1.0304  0.4011
   28CHL1   H4A 3184   2.173   0.212   6.461  0.9845  1.2529  0.2115
   28CHL1   H4B 3185   1.998   0.193   6.492 -1.3495 -0.0852 -0.4250
   28CHL1    C5 3186   2.052   0.234   6.278 -0.2515 -0.0156 -0.0227
   28CHL1    C6 3187   1.972   0.138   6.225  0.2063 -0.1426 -0.6819
   28CHL1    H6 3188   1.913   0.085   6.301  0.6955  0.3817  0.0778
   28CHL1    C7 3189   1.958   0.112   6.076  0.1674 -0.0888  0.0273
   28CHL1   H7A 3190   1.969   0.003   6.057  1.1509 -0.3898  1.9509
   28CHL1   H7B 3191   1.853   0.139   6.054 -0.0145 -0.1481  0.7796
   28CHL1    C8 3192   2.056   0.191   5.986  0.1722  0.2853  0.0698
   28CHL1    H8 3193   2.148   0.130   5.981  0.2969  0.4288  0.5445
   28CHL1   C14 3194   1.991   0.204   5.844  0.6030  0.0954 -0.6803
   28CHL1   H14 3195   1.912   0.279   5.859 -0.7023 -1.3616  0.0265
   28CHL1   C15 3196   1.934   0.079   5.777  0.4382  0.2480 -0.1736
   28CHL1  H15A 3197   2.016   0.005   5.792  0.5939  0.9852  4.0256
   28CHL1  H15B 3198   1.838   0.047   5.822  0.0679  1.3076 -0.1912
   28CHL1   C16 3199   1.919   0.118   5.630  0.1798 -0.2838  0.7363
   28CHL1  H16A 3200   1.988   0.054   5.571  2.5982  0.3550  2.6829
   28CHL1  H16B 3201   1.817   0.121   5.588  0.0332 -0.1138  1.1034
   28CHL1   C17 3202   1.988   0.267   5.616 -0.5786 -0.4752 -0.2204
   28CHL1   H17 3203   1.897   0.331   5.622 -0.9447 -1.0205  0.1687
   28CHL1   C13 3204   2.077   0.272   5.743 -0.4329 -0.4281  0.2168
   28CHL1   C18 3205   2.208   0.187   5.708  0.9065  0.2541 -0.1422
   28CHL1  H18A 3206   2.282   0.198   5.790  1.0903  1.6367 -0.4636
   28CHL1  H18B 3207   2.191   0.079   5.690  3.0697 -0.3899  1.3412
   28CHL1  H18C 3208   2.264   0.231   5.622  1.4112  1.0802  0.6032
   28CHL1   C12 3209   2.119   0.414   5.798 -0.9665  0.2976 -0.7046
   28CHL1  H12A 3210   2.190   0.472   5.735  0.0574 -1.6688 -1.4548
   28CHL1  H12B 3211   2.025   0.473   5.790 -0.4086  1.2755 -0.2190
   28CHL1   C11 3212   2.183   0.409   5.935 -0.1073  0.5217 -0.5706
   28CHL1  H11A 3213   2.274   0.344   5.936  0.0264  0.7058 -0.7357
   28CHL1  H11B 3214   2.208   0.511   5.972 -1.4565  0.5356  0.3776
   28CHL1    C9 3215   2.088   0.329   6.044  0.3628 -1.3356  0.6146
   28CHL1    H9 3216   1.993   0.386   6.032  1.7996  0.9634 -0.3875
   28CHL1   C10 3217   2.127   0.339   6.194  0.1419 -0.1571  0.4000
   28CHL1   C19 3218   2.276   0.310   6.200  0.2186  0.5516  0.2286
   28CHL1  H19A 3219   2.331   0.376   6.129 -0.0451  2.4973  1.7500
   28CHL1  H19B 3220   2.313   0.333   6.302  1.8784 -0.1832 -0.1601
   28CHL1  H19C 3221   2.301   0.205   6.171  0.0435  0.9122 -1.3409
   28CHL1    C1 3222   2.100   0.486   6.251  0.1787 -0.0936  0.5305
   28CHL1   H1A 3223   2.152   0.560   6.186  0.9661 -1.3092 -0.2611
   28CHL1   H1B 3224   1.991   0.494   6.235  0.3286  2.5775  0.3174
   28CHL1    C2 3225   2.130   0.501   6.401  0.2960 -0.1555  0.6639
   28CHL1   H2A 3226   2.118   0.608   6.431 -1.4865 -0.4807  1.2144
   28CHL1   H2B 3227   2.240   0.489   6.415  0.4121 -0.7100 -0.6242
   28CHL1   C20 3228   2.050   0.310   5.475 -0.1652 -0.0167  0.6626
   28CHL1   H20 3229   2.155   0.275   5.464  0.6472  2.1970  0.7707
   28CHL1   C21 3230   2.046   0.466   5.467 -0.6694  0.5144 -0.2688
   28CHL1  H21A 3231   1.939   0.496   5.459 -1.5342 -1.7323  1.6992
   28CHL1  H21B 3232   2.086   0.506   5.372 -0.2089 -1.6477 -1.0221
   28CHL1  H21C 3233   2.098   0.514   5.553  0.3862 -0.6003 -0.2502
   28CHL1   C22 3234   1.970   0.253   5.357 -0.8005  0.1199 -0.0385
   28CHL1  H22A 3235   1.953   0.145   5.375 -1.4448  0.6757  3.3591
   28CHL1  H22B 3236   1.864   0.287   5.359 -0.9270  0.0419 -2.4533
   28CHL1   C23 3237   2.023   0.291   5.223 -0.5596  0.7477 -0.0507
   28CHL1  H23A 3238   2.005   0.397   5.199 -2.9119  0.1127 -1.4068
   28CHL1  H23B 3239   2.129   0.258   5.218 -0.9798 -0.5166 -1.8314
   28CHL1   C24 3240   1.960   0.199   5.115 -0.8081  0.4561  0.3480
   28CHL1  H24A 3241   1.986   0.093   5.136  0.3764  0.9038  1.2180
   28CHL1  H24B 3242   1.849   0.211   5.121 -0.9255  0.3875 -1.1695
   28CHL1   C25 3243   2.021   0.229   4.977 -1.2233  0.2018 -0.4979
   28CHL1   H25 3244   2.019   0.340   4.979 -1.4957  0.1855  0.9951
   28CHL1   C26 3245   2.173   0.187   4.963  0.8798  0.0548  0.8798
   28CHL1  H26A 3246   2.206   0.227   4.864 -0.9274 -1.4756 -0.4139
   28CHL1  H26B 3247   2.236   0.221   5.048  0.3131  0.8977  0.9776
   28CHL1  H26C 3248   2.183   0.077   4.955  0.3505 -0.0666  1.8305
   28CHL1   C27 3249   1.934   0.176   4.863  0.2257 -0.2090 -0.0287
   28CHL1  H27A 3250   1.832   0.218   4.871 -0.4244 -1.8646  1.0183
   28CHL1  H27B 3251   1.973   0.215   4.766  1.9619 -0.2198  0.6280
   28CHL1  H27C 3252   1.927   0.065   4.857 -1.4563 -0.0685 -2.0564
   29CHL1    C3 3253   5.286   2.549   6.108  0.5323  0.3474 -0.2600
   29CHL1    H3 3254   5.360   2.468   6.087  1.3902  0.9489  0.3411
   29CHL1    O3 3255   5.298   2.587   6.244 -0.4824 -0.0767  0.0876
   29CHL1   H3' 3256   5.245   2.666   6.256 -1.2584 -0.7624  1.4783
   29CHL1    C4 3257   5.335   2.672   6.024  0.4945  0.4231  0.5890
   29CHL1   H4A 3258   5.280   2.762   6.059 -0.6363 -0.2107  0.4802
   29CHL1   H4B 3259   5.444   2.678   6.045  0.8293 -1.5266 -0.3376
   29CHL1    C5 3260   5.324   2.661   5.876  0.1596  0.0578  0.7249
   29CHL1    C6 3261   5.419   2.687   5.786 -0.1422  0.2288  0.6481
   29CHL1    H6 3262   5.509   2.730   5.833  1.0298 -1.5951  0.2118
   29CHL1    C7 3263   5.419   2.669   5.636  0.2970  0.6554 -0.1183
   29CHL1   H7A 3264   5.453   2.765   5.590  0.9827 -0.1266 -1.2766
   29CHL1   H7B 3265   5.492   2.594   5.599 -2.0487 -0.5069 -2.8074
   29CHL1    C8 3266   5.273   2.655   5.592  0.1980  0.2234  0.1121
   29CHL1    H8 3267   5.228   2.757   5.593 -0.7321 -0.1693 -0.3537
   29CHL1   C14 3268   5.272   2.606   5.447  0.8101 -0.5081  0.5014
   29CHL1   H14 3269   5.310   2.502   5.443  1.3528 -0.2904 -0.2757
   29CHL1   C15 3270   5.357   2.688   5.344  0.6055 -0.0007  0.5984
   29CHL1  H15A 3271   5.361   2.798   5.356 -1.2128  0.2429 -0.6422
   29CHL1  H15B 3272   5.454   2.635   5.338 -0.5318 -2.0872 -1.1132
   29CHL1   C16 3273   5.292   2.657   5.206 -0.6085 -0.9295  0.0699
   29CHL1  H16A 3274   5.249   2.755   5.178  0.9955  0.2354  1.5098
   29CHL1  H16B 3275   5.362   2.615   5.131  0.7807 -1.4756  1.6104
   29CHL1   C17 3276   5.172   2.567   5.231  0.2359 -0.4951 -0.7436
   29CHL1   H17 3277   5.215   2.465   5.232 -0.3203 -0.7633 -1.9629
   29CHL1   C13 3278   5.132   2.593   5.382  0.5652 -0.5269  0.0440
   29CHL1   C18 3279   5.056   2.724   5.385 -0.0659  0.4268  0.2417
   29CHL1  H18A 3280   5.043   2.748   5.493  4.3045 -0.5865  1.2203
   29CHL1  H18B 3281   5.109   2.818   5.356 -0.5109  0.9577  1.0894
   29CHL1  H18C 3282   4.958   2.713   5.335  0.0667 -2.3365  0.4288
   29CHL1   C12 3283   5.060   2.483   5.457  0.5420 -0.2967 -0.0859
   29CHL1  H12A 3284   4.954   2.472   5.423  1.4909 -1.8365 -2.8052
   29CHL1  H12B 3285   5.110   2.385   5.442 -0.7642 -0.9165 -0.5390
   29CHL1   C11 3286   5.046   2.519   5.615  0.1351 -0.1471 -0.6013
   29CHL1  H11A 3287   4.976   2.604   5.604 -1.0879 -1.0310  0.1434
   29CHL1  H11B 3288   4.998   2.432   5.664 -1.6832  0.8044 -0.6237
   29CHL1    C9 3289   5.185   2.565   5.678 -0.2431  0.4927 -0.6616
   29CHL1    H9 3290   5.245   2.472   5.683 -0.9670  0.0756  0.5352
   29CHL1   C10 3291   5.182   2.614   5.823  1.0171  0.2280  0.0859
   29CHL1   C19 3292   5.077   2.729   5.837 -0.6991  0.2657  0.7586
   29CHL1  H19A 3293   4.973   2.698   5.817 -0.8884  1.0780  0.4665
   29CHL1  H19B 3294   5.092   2.775   5.938  2.8104  2.5950 -0.6269
   29CHL1  H19C 3295   5.114   2.811   5.771  0.9102  1.3388  2.8511
   29CHL1    C1 3296   5.139   2.493   5.914 -0.4329 -0.3703 -0.3253
   29CHL1   H1A 3297   5.040   2.445   5.897  0.5153 -3.0485  1.1928
   29CHL1   H1B 3298   5.199   2.407   5.878 -0.1943 -0.4870  0.3371
   29CHL1    C2 3299   5.139   2.516   6.067 -0.3255 -0.3757 -0.8763
   29CHL1   H2A 3300   5.102   2.423   6.115 -1.3082  1.0005  1.1264
   29CHL1   H2B 3301   5.059   2.589   6.089  0.4319  0.5549 -1.1140
   29CHL1   C20 3302   5.058   2.571   5.129 -0.9059  0.0324  0.2753
   29CHL1   H20 3303   5.002   2.666   5.143  0.8011  1.0306  0.7176
   29CHL1   C21 3304   4.959   2.456   5.137  0.3406 -0.4556 -0.3372
   29CHL1  H21A 3305   4.938   2.421   5.240 -0.4606 -2.5498 -1.1734
   29CHL1  H21B 3306   5.005   2.368   5.089 -1.5520 -2.0603  0.6475
   29CHL1  H21C 3307   4.865   2.489   5.087 -0.5462 -0.2746  1.3652
   29CHL1   C22 3308   5.118   2.584   4.987  0.1772 -0.4899 -0.4949
   29CHL1  H22A 3309   5.172   2.681   4.977 -0.2453 -0.3958 -2.1897
   29CHL1  H22B 3310   5.193   2.508   4.956  0.7262 -0.9594  1.7792
   29CHL1   C23 3311   5.005   2.599   4.875 -0.4491  0.8208 -0.2998
   29CHL1  H23A 3312   4.947   2.504   4.874  0.8358 -0.0448  1.9436
   29CHL1  H23B 3313   4.937   2.685   4.892 -1.6212 -0.1846  0.2976
   29CHL1   C24 3314   5.059   2.623   4.735  0.0870  0.0779  0.4162
   29CHL1  H24A 3315   5.121   2.715   4.727 -0.0219 -0.0180 -2.4229
   29CHL1  H24B 3316   5.116   2.533   4.705  0.5544  0.6584 -0.5047
   29CHL1   C25 3317   4.944   2.649   4.632 -0.2152  0.2179 -1.0285
   29CHL1   H25 3318   4.997   2.662   4.535  2.8437 -1.3655  0.2653
   29CHL1   C26 3319   4.834   2.542   4.616 -0.5276 -0.5238 -0.2187
   29CHL1  H26A 3320   4.881   2.442   4.608 -1.2265 -1.0984  2.2595
   29CHL1  H26B 3321   4.776   2.544   4.711 -0.5230 -0.5035 -0.2166
   29CHL1  H26C 3322   4.774   2.565   4.525  0.7931 -3.5538 -1.9917
   29CHL1   C27 3323   4.879   2.788   4.662 -0.5525  0.6207 -0.4072
   29CHL1  H27A 3324   4.830   2.830   4.572 -0.2622  1.8536 -0.0186
   29CHL1  H27B 3325   4.808   2.772   4.746  1.1706 -3.6741  0.4642
   29CHL1  H27C 3326   4.955   2.864   4.690 -1.4431  1.4740 -0.2470
   30CHL1    C3 3327   4.199   3.789   6.086 -0.0893 -0.1415  0.1056
   30CHL1    H3 3328   4.124   3.708   6.075 -1.0053  1.0549 -5.1245
   30CHL1    O3 3329   4.211   3.830   6.218 -0.1517 -0.0669 -0.4399
   30CHL1   H3' 3330   4.222   3.925   6.214  2.4581 -0.2232  0.8934
   30CHL1    C4 3331   4.345   3.748   6.042  0.0534 -0.5894  0.4316
   30CHL1   H4A 3332   4.414   3.835   6.057 -1.7852  1.7181 -3.0910
   30CHL1   H4B 3333   4.372   3.655   6.096  0.5578 -0.7844 -0.1454
   30CHL1    C5 3334   4.343   3.727   5.887  0.4125  0.0212  0.4362
   30CHL1    C6 3335   4.377   3.609   5.828 -0.4396 -0.6406  0.4859
   30CHL1    H6 3336   4.420   3.522   5.880  1.4094 -0.4431 -0.6347
   30CHL1    C7 3337   4.389   3.587   5.683  0.2978  0.3287 -0.2917
   30CHL1   H7A 3338   4.476   3.521   5.664 -0.2381 -0.5234  0.1732
   30CHL1   H7B 3339   4.298   3.529   5.659 -0.3645 -0.2999  3.2009
   30CHL1    C8 3340   4.388   3.722   5.604 -0.4248  0.2559  0.2605
   30CHL1    H8 3341   4.481   3.782   5.604 -1.2661  1.6128  0.2372
   30CHL1   C14 3342   4.360   3.687   5.462 -0.0357  0.5666 -0.2300
   30CHL1   H14 3343   4.260   3.640   5.473 -0.4400  1.1797 -1.1734
   30CHL1   C15 3344   4.438   3.575   5.390 -0.4249 -0.2046  0.8187
   30CHL1  H15A 3345   4.547   3.586   5.408 -0.7174 -0.8343  3.2968
   30CHL1  H15B 3346   4.398   3.472   5.398  0.4944 -0.8208 -1.5390
   30CHL1   C16 3347   4.421   3.602   5.234 -0.7886  0.9380  0.2904
   30CHL1  H16A 3348   4.515   3.614   5.176 -1.7322  0.3251 -1.4610
   30CHL1  H16B 3349   4.357   3.532   5.175 -1.7185  2.0975 -0.1242
   30CHL1   C17 3350   4.343   3.739   5.228  0.1440 -0.2493  1.2150
   30CHL1   H17 3351   4.237   3.707   5.231  0.4452 -1.3182  0.7687
   30CHL1   C13 3352   4.357   3.808   5.363  0.1379  0.4623  0.4440
   30CHL1   C18 3353   4.490   3.891   5.346  0.5780  0.0487 -0.3633
   30CHL1  H18A 3354   4.474   3.985   5.289  1.1022 -0.6252 -1.6741
   30CHL1  H18B 3355   4.525   3.918   5.448 -0.7742 -3.9008  1.3387
   30CHL1  H18C 3356   4.572   3.837   5.294  0.0303  1.2482 -2.6405
   30CHL1   C12 3357   4.250   3.905   5.416  0.1145  0.5234 -0.1095
   30CHL1  H12A 3358   4.251   4.003   5.364 -1.3556  0.8557  0.4313
   30CHL1  H12B 3359   4.149   3.858   5.409  1.3432 -2.5492  1.1157
   30CHL1   C11 3360   4.278   3.942   5.563  0.0561 -0.6477 -0.4774
   30CHL1  H11A 3361   4.384   3.976   5.569  0.5647 -2.3153  0.7410
   30CHL1  H11B 3362   4.202   4.018   5.592 -0.3783 -1.5692  0.8895
   30CHL1    C9 3363   4.281   3.821   5.657 -0.4174  0.9959  0.4978
   30CHL1    H9 3364   4.183   3.772   5.639  1.3797 -2.7650 -0.1069
   30CHL1   C10 3365   4.303   3.849   5.807  0.5518  0.0336  0.5089
   30CHL1   C19 3366   4.412   3.955   5.823 -0.3225  0.9465 -0.2956
   30CHL1  H19A 3367   4.430   3.972   5.931 -0.7771 -2.0935  0.3666
   30CHL1  H19B 3368   4.506   3.927   5.770  0.8244  1.7611  1.2445
   30CHL1  H19C 3369   4.377   4.049   5.776  1.0285  1.8388  0.4317
   30CHL1    C1 3370   4.166   3.900   5.857  0.8708  0.9469 -0.2500
   30CHL1   H1A 3371   4.136   3.997   5.811 -0.0954  0.0569 -1.5678
   30CHL1   H1B 3372   4.081   3.837   5.824  1.9706 -0.1866 -1.0180
   30CHL1    C2 3373   4.160   3.920   6.018  0.0145 -0.4911 -0.1345
   30CHL1   H2A 3374   4.053   3.944   6.036  0.0579 -0.4175  0.0219
   30CHL1   H2B 3375   4.229   4.004   6.042  0.6093 -0.6818 -1.1279
   30CHL1   C20 3376   4.369   3.810   5.095 -0.1204 -0.3627  0.4096
   30CHL1   H20 3377   4.474   3.846   5.106 -0.5954  0.9057  1.0334
   30CHL1   C21 3378   4.273   3.925   5.085 -0.2941 -0.9375 -0.2202
   30CHL1  H21A 3379   4.279   3.964   4.981 -0.0706 -1.7616 -0.5331
   30CHL1  H21B 3380   4.307   4.008   5.150  0.4559 -2.3100  1.2171
   30CHL1  H21C 3381   4.168   3.891   5.100 -0.4641  0.1745  1.3496
   30CHL1   C22 3382   4.357   3.735   4.955  0.5727  0.5683  0.2478
   30CHL1  H22A 3383   4.359   3.625   4.974 -2.2500  0.3278 -0.4125
   30CHL1  H22B 3384   4.256   3.762   4.919  0.0716 -0.8699  0.5244
   30CHL1   C23 3385   4.463   3.769   4.847 -0.0914 -0.4402 -0.2009
   30CHL1  H23A 3386   4.453   3.878   4.824 -0.4495 -0.6866 -1.2428
   30CHL1  H23B 3387   4.565   3.750   4.887  0.5679  0.0069 -1.6107
   30CHL1   C24 3388   4.460   3.687   4.719 -0.4093 -0.2282  0.1531
   30CHL1  H24A 3389   4.491   3.581   4.734  1.6839  0.3877  0.4603
   30CHL1  H24B 3390   4.355   3.684   4.683  0.2509 -0.0585 -1.8858
   30CHL1   C25 3391   4.553   3.735   4.600 -0.1322  0.2487  0.1562
   30CHL1   H25 3392   4.550   3.845   4.585  1.7478  0.2624 -0.2871
   30CHL1   C26 3393   4.707   3.696   4.640 -0.4540  0.5091  0.6560
   30CHL1  H26A 3394   4.732   3.734   4.741  0.1399  0.8768  0.3743
   30CHL1  H26B 3395   4.718   3.586   4.653 -0.6598  0.1922 -1.4073
   30CHL1  H26C 3396   4.767   3.741   4.558 -1.6186 -0.9766 -1.0943
   30CHL1   C27 3397   4.511   3.686   4.461 -0.4545 -1.1452 -0.6759
   30CHL1  H27A 3398   4.406   3.713   4.436  0.3726  0.8826 -2.2667
   30CHL1  H27B 3399   4.580   3.730   4.385  0.1094  4.5898  2.5984
   30CHL1  H27C 3400   4.521   3.575   4.461 -1.1103 -1.2116 -1.2404
   31CHL1    C3 3401   4.640   4.876   6.277  0.8307  0.1097  0.0276
   31CHL1    H3 3402   4.671   4.775   6.242 -0.9409 -1.0743  1.6695
   31CHL1    O3 3403   4.679   4.899   6.416 -0.0541  0.0329  0.0574
   31CHL1   H3' 3404   4.650   4.820   6.461 -0.2551  0.0536 -0.0333
   31CHL1    C4 3405   4.714   4.987   6.195 -0.0971 -0.6109 -0.0287
   31CHL1   H4A 3406   4.687   5.085   6.238 -1.5980 -1.1155  0.2369
   31CHL1   H4B 3407   4.821   4.973   6.221  0.0235 -0.1601 -0.2704
   31CHL1    C5 3408   4.685   4.969   6.048  0.7889 -0.1623 -0.2095
   31CHL1    C6 3409   4.781   4.960   5.957  0.4381 -0.2564 -0.0214
   31CHL1    H6 3410   4.887   4.961   5.987  1.0664 -0.7255 -2.0358
   31CHL1    C7 3411   4.751   4.941   5.813 -0.5965 -0.2284  0.2984
   31CHL1   H7A 3412   4.823   5.004   5.755  1.7488 -0.2686  2.9750
   31CHL1   H7B 3413   4.792   4.838   5.804  0.9431  0.1531  2.3100
   31CHL1    C8 3414   4.605   4.961   5.770 -0.9179 -0.4499 -0.6108
   31CHL1    H8 3415   4.600   5.072   5.769  0.5657 -0.3523 -0.0489
   31CHL1   C14 3416   4.575   4.907   5.642  0.3018 -0.7853  0.3930
   31CHL1   H14 3417   4.591   4.798   5.649 -0.7500 -0.8710  1.6529
   31CHL1   C15 3418   4.668   4.949   5.522 -0.0808  0.4630  0.0871
   31CHL1  H15A 3419   4.687   5.059   5.524  0.3458  0.4777 -1.9650
   31CHL1  H15B 3420   4.761   4.890   5.530 -0.9805 -0.7099  4.3639
   31CHL1   C16 3421   4.585   4.907   5.394  0.5351 -0.5232  0.2761
   31CHL1  H16A 3422   4.576   4.994   5.325 -1.2207 -1.7591 -1.1541
   31CHL1  H16B 3423   4.632   4.828   5.332 -1.4509 -1.2067 -0.4330
   31CHL1   C17 3424   4.443   4.868   5.447 -0.1899  0.1432 -0.7769
   31CHL1   H17 3425   4.445   4.758   5.452  0.4436  0.1879  0.0501
   31CHL1   C13 3426   4.431   4.932   5.589 -0.4962 -0.4290 -0.3786
   31CHL1   C18 3427   4.389   5.085   5.576 -0.3422  0.2637  0.1751
   31CHL1  H18A 3428   4.442   5.129   5.488 -0.5145  0.5056  0.1905
   31CHL1  H18B 3429   4.280   5.094   5.556 -0.1587 -0.1310 -1.0758
   31CHL1  H18C 3430   4.410   5.145   5.668 -1.6570  0.8488  0.1270
   31CHL1   C12 3431   4.339   4.862   5.688  0.4532 -0.0076  0.2426
   31CHL1  H12A 3432   4.232   4.871   5.662  0.0888  0.8390  1.9188
   31CHL1  H12B 3433   4.364   4.755   5.676 -0.9879 -0.3156 -0.1449
   31CHL1   C11 3434   4.364   4.914   5.833 -0.1314  0.4013  0.6974
   31CHL1  H11A 3435   4.335   5.021   5.831 -1.7335 -0.0092 -1.7553
   31CHL1  H11B 3436   4.293   4.860   5.900 -0.9509  0.1901 -0.3101
   31CHL1    C9 3437   4.512   4.909   5.874 -0.0076  0.0060 -0.0916
   31CHL1    H9 3438   4.532   4.800   5.870  1.1026  0.2198 -0.9978
   31CHL1   C10 3439   4.536   4.966   6.018 -0.8608  0.3273 -0.1096
   31CHL1   C19 3440   4.485   5.113   6.027 -0.6217 -0.5290  0.4953
   31CHL1  H19A 3441   4.375   5.117   6.041 -0.5353  2.8870  0.9275
   31CHL1  H19B 3442   4.531   5.158   6.118  1.6311 -1.1084 -0.2820
   31CHL1  H19C 3443   4.502   5.169   5.933 -0.4801  0.9403  1.3591
   31CHL1    C1 3444   4.452   4.872   6.110 -0.8251 -0.8036 -0.7311
   31CHL1   H1A 3445   4.348   4.912   6.104  0.2865  2.3559 -0.5710
   31CHL1   H1B 3446   4.471   4.765   6.090  1.4203 -0.7339  0.6235
   31CHL1    C2 3447   4.487   4.896   6.260  0.0063 -0.2850 -0.0849
   31CHL1   H2A 3448   4.443   4.814   6.319 -2.1253  0.7173 -0.2036
   31CHL1   H2B 3449   4.436   4.988   6.295 -0.7950 -0.4810 -0.7142
   31CHL1   C20 3450   4.331   4.912   5.347  0.1402  0.2346  0.0145
   31CHL1   H20 3451   4.328   5.022   5.331  2.1652  0.0096 -2.7942
   31CHL1   C21 3452   4.191   4.864   5.404 -0.4889  0.0777  0.7577
   31CHL1  H21A 3453   4.114   4.878   5.325  1.0488 -1.6483 -1.1854
   31CHL1  H21B 3454   4.161   4.945   5.473  1.9476  0.3063  1.6497
   31CHL1  H21C 3455   4.202   4.761   5.445  2.1662 -0.0266 -0.0020
   31CHL1   C22 3456   4.365   4.857   5.208 -0.1774 -0.1674 -0.1057
   31CHL1  H22A 3457   4.463   4.892   5.168 -1.0983 -0.2537 -2.5479
   31CHL1  H22B 3458   4.384   4.748   5.215  1.2276 -0.0259 -1.2870
   31CHL1   C23 3459   4.262   4.891   5.105 -0.4978 -0.1072 -1.3574
   31CHL1  H23A 3460   4.170   4.832   5.123 -0.1917 -0.5656 -1.2695
   31CHL1  H23B 3461   4.228   4.996   5.102  0.5264  0.5185  2.9752
   31CHL1   C24 3462   4.304   4.864   4.963 -0.4696  0.1435  0.2948
   31CHL1  H24A 3463   4.402   4.916   4.954  0.7030 -1.8535  0.8600
   31CHL1  H24B 3464   4.326   4.757   4.942 -2.8830 -0.4839  0.6965
   31CHL1   C25 3465   4.203   4.924   4.863 -0.1877 -0.1120  0.0702
   31CHL1   H25 3466   4.164   5.024   4.893  0.6340 -0.0353  0.9536
   31CHL1   C26 3467   4.254   4.933   4.720  0.5507  0.1680  0.0605
   31CHL1  H26A 3468   4.268   4.830   4.683  0.6612 -0.1598  0.9811
   31CHL1  H26B 3469   4.182   4.989   4.658  0.7280  0.9997  0.5804
   31CHL1  H26C 3470   4.353   4.984   4.717 -0.4293  2.1440 -0.5416
   31CHL1   C27 3471   4.074   4.839   4.851  0.4743  0.1746  0.2642
   31CHL1  H27A 3472   4.005   4.880   4.775  1.5747  1.1697 -0.2361
   31CHL1  H27B 3473   4.104   4.733   4.835 -0.4341 -0.2554  1.2436
   31CHL1  H27C 3474   4.029   4.838   4.953 -0.7914  1.9924 -0.2325
   32CHL1    C3 3475   5.770   6.587   6.255  0.3417  0.1515 -0.1058
   32CHL1    H3 3476   5.871   6.541   6.252  0.5828  0.7272 -2.0788
   32CHL1    O3 3477   5.730   6.607   6.392 -0.1779  0.2721  0.3744
   32CHL1   H3' 3478   5.647   6.654   6.385 -0.1481  0.1091 -1.6680
   32CHL1    C4 3479   5.776   6.719   6.189 -0.1213  0.0024  0.6629
   32CHL1   H4A 3480   5.683   6.775   6.215 -0.7123 -1.8464  2.8069
   32CHL1   H4B 3481   5.856   6.782   6.233  0.6407  0.0564 -0.7679
   32CHL1    C5 3482   5.796   6.707   6.038 -0.0236 -0.5895  0.7262
   32CHL1    C6 3483   5.891   6.771   5.968 -0.9312 -0.2893 -0.2015
   32CHL1    H6 3484   5.951   6.846   6.021 -1.2772  0.9715 -1.5164
   32CHL1    C7 3485   5.897   6.772   5.815 -0.4229  0.3997 -0.1875
   32CHL1   H7A 3486   5.905   6.878   5.782  0.3382 -0.2502 -2.2540
   32CHL1   H7B 3487   5.993   6.727   5.782  0.0158  2.6848 -2.3609
   32CHL1    C8 3488   5.788   6.692   5.739 -0.0176  0.1048  0.4557
   32CHL1    H8 3489   5.700   6.757   5.724  0.8968  1.2651 -0.0068
   32CHL1   C14 3490   5.837   6.659   5.599  0.1427 -0.0717  0.3627
   32CHL1   H14 3491   5.923   6.589   5.607  0.5286  0.4972  1.4544
   32CHL1   C15 3492   5.897   6.770   5.511 -0.5159  0.8140  0.3755
   32CHL1  H15A 3493   5.838   6.863   5.532 -1.6581  0.2023 -0.0535
   32CHL1  H15B 3494   6.003   6.784   5.540 -0.6504 -1.1005  2.0131
   32CHL1   C16 3495   5.873   6.717   5.369 -1.0081  0.3596  0.2385
   32CHL1  H16A 3496   5.807   6.795   5.325  0.2980  0.3679 -1.8566
   32CHL1  H16B 3497   5.958   6.695   5.300  0.9227 -0.1139  2.6430
   32CHL1   C17 3498   5.797   6.578   5.372  0.4957  0.2044  0.1683
   32CHL1   H17 3499   5.883   6.507   5.378 -1.0018 -1.7647 -0.7254
   32CHL1   C13 3500   5.731   6.579   5.514  0.1486 -0.1894 -0.2232
   32CHL1   C18 3501   5.606   6.663   5.500  0.1851 -0.5798 -0.2555
   32CHL1  H18A 3502   5.636   6.758   5.451 -0.4069  0.3760  1.1535
   32CHL1  H18B 3503   5.525   6.627   5.432  0.0433  1.7731 -1.4453
   32CHL1  H18C 3504   5.563   6.691   5.599 -0.5440  0.9048 -0.9518
   32CHL1   C12 3505   5.705   6.454   5.588 -0.2664  0.0839 -0.3251
   32CHL1  H12A 3506   5.626   6.390   5.542 -2.1683  0.8665  1.6390
   32CHL1  H12B 3507   5.800   6.398   5.605 -0.5550  0.4421  3.4990
   32CHL1   C11 3508   5.647   6.481   5.727 -0.5396 -0.8483 -0.0831
   32CHL1  H11A 3509   5.543   6.518   5.711  0.4689  0.9855 -3.1447
   32CHL1  H11B 3510   5.645   6.382   5.776 -0.4380 -0.9778 -0.3421
   32CHL1    C9 3511   5.745   6.573   5.817 -0.0474  0.7910 -0.0035
   32CHL1    H9 3512   5.832   6.505   5.831 -1.4440 -0.4819  3.7743
   32CHL1   C10 3513   5.703   6.605   5.964  0.7853  0.5389 -0.5669
   32CHL1   C19 3514   5.564   6.669   5.960  0.1354  0.3305 -0.6868
   32CHL1  H19A 3515   5.530   6.701   6.061 -0.0246  1.2055 -1.0018
   32CHL1  H19B 3516   5.555   6.760   5.897 -1.5184  1.1380  0.6255
   32CHL1  H19C 3517   5.492   6.598   5.914 -1.5902  1.8899 -0.5265
   32CHL1    C1 3518   5.707   6.475   6.044  0.0792 -0.3935  0.0715
   32CHL1   H1A 3519   5.627   6.415   5.996 -1.0544  1.4992 -0.4946
   32CHL1   H1B 3520   5.795   6.409   6.026 -0.5038 -0.9634 -0.7628
   32CHL1    C2 3521   5.673   6.492   6.192 -0.2269  0.0198 -0.7122
   32CHL1   H2A 3522   5.678   6.393   6.243  1.1043  0.4151 -0.0414
   32CHL1   H2B 3523   5.570   6.532   6.205 -0.4313 -1.0458  1.4459
   32CHL1   C20 3524   5.705   6.546   5.245 -0.3626 -0.4077 -0.1952
   32CHL1   H20 3525   5.605   6.592   5.256 -0.5213 -1.0422  1.2047
   32CHL1   C21 3526   5.699   6.385   5.248 -0.1951 -0.0386 -0.7783
   32CHL1  H21A 3527   5.649   6.338   5.161 -0.1412  2.2362 -2.1370
   32CHL1  H21B 3528   5.652   6.352   5.342 -2.6744  1.3141 -1.4661
   32CHL1  H21C 3529   5.799   6.336   5.252 -1.0092 -1.7630 -0.8620
   32CHL1   C22 3530   5.764   6.592   5.113  0.3060 -0.3028  0.0058
   32CHL1  H22A 3531   5.784   6.701   5.122 -0.0978 -0.1876 -0.4214
   32CHL1  H22B 3532   5.863   6.544   5.099  0.0579 -0.4422 -1.3637
   32CHL1   C23 3533   5.681   6.562   4.988 -0.0591  0.2291 -0.2926
   32CHL1  H23A 3534   5.663   6.452   4.994  2.2667 -0.1357  1.1609
   32CHL1  H23B 3535   5.585   6.617   4.988 -0.5091 -0.5112  1.2045
   32CHL1   C24 3536   5.757   6.602   4.855 -0.1808 -0.5368 -0.1261
   32CHL1  H24A 3537   5.765   6.713   4.847  1.3952 -0.6523 -0.7086
   32CHL1  H24B 3538   5.862   6.564   4.859  0.0167 -0.3530 -2.3101
   32CHL1   C25 3539   5.693   6.528   4.734 -0.1603  0.1360  0.1376
   32CHL1   H25 3540   5.743   6.570   4.644 -0.6412  1.2267  0.3591
   32CHL1   C26 3541   5.731   6.377   4.721 -0.2132 -0.4931  0.3201
   32CHL1  H26A 3542   5.714   6.349   4.616  1.6315 -0.7766  0.0557
   32CHL1  H26B 3543   5.840   6.367   4.743 -0.6879 -0.2682  3.2204
   32CHL1  H26C 3544   5.674   6.313   4.791 -1.0610  1.0511  1.1131
   32CHL1   C27 3545   5.542   6.554   4.728  0.1293 -0.4600 -0.5067
   32CHL1  H27A 3546   5.510   6.655   4.762 -0.0514 -0.4854 -0.5991
   32CHL1  H27B 3547   5.506   6.538   4.624 -1.4616 -0.4160  0.0147
   32CHL1  H27C 3548   5.498   6.480   4.798 -0.4885  0.4220  0.0596
   33CHL1    C3 3549   3.812   2.045   6.304 -0.0033  0.1043 -0.3659
   33CHL1    H3 3550   3.743   2.125   6.270  0.0843 -0.5372 -2.1597
   33CHL1    O3 3551   3.822   2.036   6.448  0.4705  0.0226 -0.1214
   33CHL1   H3' 3552   3.871   1.954   6.458 -0.4905 -0.3182  2.2660
   33CHL1    C4 3553   3.765   1.901   6.255 -0.3206 -0.0844  0.2610
   33CHL1   H4A 3554   3.817   1.813   6.298 -0.0064 -0.2184 -0.3930
   33CHL1   H4B 3555   3.661   1.896   6.295 -1.1626 -1.6797 -1.9498
   33CHL1    C5 3556   3.760   1.898   6.102  0.4226  0.1237 -0.0871
   33CHL1    C6 3557   3.641   1.874   6.044 -0.1880 -0.1455  0.0050
   33CHL1    H6 3558   3.558   1.857   6.114  1.4762 -1.4796  1.7404
   33CHL1    C7 3559   3.618   1.867   5.891 -0.6168 -0.4237 -0.5294
   33CHL1   H7A 3560   3.553   1.778   5.875 -0.3261 -0.8143  0.3777
   33CHL1   H7B 3561   3.579   1.966   5.858 -3.7652 -1.2415  0.3669
   33CHL1    C8 3562   3.752   1.855   5.810 -0.1575  0.1639  0.0487
   33CHL1    H8 3563   3.780   1.748   5.821 -1.5139 -0.3457 -1.1673
   33CHL1   C14 3564   3.747   1.895   5.664 -0.3703  0.1763 -0.0682
   33CHL1   H14 3565   3.749   2.006   5.664 -0.0287  0.1698  0.5170
   33CHL1   C15 3566   3.622   1.852   5.584 -0.3575 -0.0927  0.1446
   33CHL1  H15A 3567   3.585   1.752   5.615  1.1840 -1.1230 -1.1958
   33CHL1  H15B 3568   3.543   1.928   5.604  0.7408  0.8857  0.9213
   33CHL1   C16 3569   3.669   1.847   5.440  0.7692 -0.2716  0.1107
   33CHL1  H16A 3570   3.669   1.737   5.428  2.6665 -0.6121  2.4925
   33CHL1  H16B 3571   3.597   1.894   5.370  0.4664  0.4857  0.9131
   33CHL1   C17 3572   3.819   1.901   5.440  0.8027  0.7676 -0.0982
   33CHL1   H17 3573   3.816   2.012   5.441 -1.6285  0.8249  2.9263
   33CHL1   C13 3574   3.866   1.856   5.583  0.1983  0.1986  0.2962
   33CHL1   C18 3575   3.888   1.701   5.569  0.6151  0.9098 -0.6805
   33CHL1  H18A 3576   3.957   1.671   5.487  1.2028 -0.1083  0.1602
   33CHL1  H18B 3577   3.934   1.643   5.652  0.1666  0.5329 -0.6912
   33CHL1  H18C 3578   3.794   1.648   5.544  0.3201  1.9074 -1.7953
   33CHL1   C12 3579   3.987   1.929   5.639 -0.1360 -0.4016 -0.5685
   33CHL1  H12A 3580   4.084   1.899   5.595  2.5199  5.1003  0.7468
   33CHL1  H12B 3581   3.992   2.036   5.609  2.3477 -0.7429 -1.6140
   33CHL1   C11 3582   4.007   1.919   5.793  0.1949 -0.2067  0.6367
   33CHL1  H11A 3583   4.039   1.815   5.812  2.5446 -0.1930 -2.4516
   33CHL1  H11B 3584   4.081   1.983   5.845 -0.7297  0.3410  1.3036
   33CHL1    C9 3585   3.871   1.935   5.874 -0.0050 -0.4811 -0.4856
   33CHL1    H9 3586   3.847   2.042   5.861 -0.6179 -0.1276  2.7296
   33CHL1   C10 3587   3.891   1.926   6.030 -0.5589 -0.2509 -0.1977
   33CHL1   C19 3588   3.986   1.805   6.069  0.3707  0.3056  0.1654
   33CHL1  H19A 3589   4.091   1.822   6.035  0.5810  2.4158  1.6587
   33CHL1  H19B 3590   3.986   1.790   6.179 -1.3980  0.2291  0.1834
   33CHL1  H19C 3591   3.951   1.711   6.022  0.6037 -0.1175  0.8194
   33CHL1    C1 3592   3.945   2.060   6.095  0.0628 -0.1475 -0.3904
   33CHL1   H1A 3593   4.042   2.075   6.043  0.9185 -0.2146  1.1212
   33CHL1   H1B 3594   3.879   2.147   6.074 -0.6325 -0.8633 -1.2893
   33CHL1    C2 3595   3.953   2.067   6.247  0.3357 -0.0301 -0.3286
   33CHL1   H2A 3596   3.995   2.162   6.287 -1.5286  1.3680 -1.4713
   33CHL1   H2B 3597   4.009   1.989   6.302  1.4891  0.8677 -0.2033
   33CHL1   C20 3598   3.898   1.849   5.315  0.5595  0.3204  0.0891
   33CHL1   H20 3599   3.891   1.738   5.316  0.3876  0.3346  0.7089
   33CHL1   C21 3600   4.046   1.888   5.323 -0.1087 -0.3274 -0.4080
   33CHL1  H21A 3601   4.102   1.820   5.390 -0.4911  1.1419  1.4680
   33CHL1  H21B 3602   4.038   1.984   5.377 -0.6417 -0.3856 -0.3790
   33CHL1  H21C 3603   4.098   1.897   5.225  0.4236  0.0712 -0.0891
   33CHL1   C22 3604   3.844   1.900   5.178 -0.2110  0.0753 -0.0224
   33CHL1  H22A 3605   3.733   1.905   5.178 -0.1476  2.1440  0.2408
   33CHL1  H22B 3606   3.878   2.006   5.171  1.6864 -0.5672 -1.2931
   33CHL1   C23 3607   3.896   1.817   5.058 -0.0528  0.4055  0.1437
   33CHL1  H23A 3608   3.998   1.844   5.025  0.2021 -1.8761 -1.1236
   33CHL1  H23B 3609   3.903   1.707   5.076  0.0932  0.4755  0.5203
   33CHL1   C24 3610   3.813   1.827   4.930  0.3937  0.4657  0.0905
   33CHL1  H24A 3611   3.781   1.933   4.918 -0.6258  0.0853 -0.7021
   33CHL1  H24B 3612   3.875   1.806   4.841 -2.4957 -1.8098 -1.5502
   33CHL1   C25 3613   3.692   1.736   4.923 -0.7470  0.2714  0.3440
   33CHL1   H25 3614   3.615   1.775   4.993  1.9131  4.7990  1.1575
   33CHL1   C26 3615   3.629   1.748   4.788 -0.1049 -0.0164  0.6467
   33CHL1  H26A 3616   3.536   1.687   4.784 -0.7857  0.9794  0.9377
   33CHL1  H26B 3617   3.599   1.845   4.744  0.3792 -0.4007 -0.5912
   33CHL1  H26C 3618   3.707   1.701   4.724 -1.3852  1.2296 -1.9559
   33CHL1   C27 3619   3.722   1.585   4.957 -0.1638 -0.9874  0.1615
   33CHL1  H27A 3620   3.759   1.575   5.061  2.0701 -3.4602 -0.7692
   33CHL1  H27B 3621   3.629   1.525   4.948 -0.1600 -0.8281 -1.2176
   33CHL1  H27C 3622   3.800   1.543   4.890 -0.0196  1.1127 -1.0994
   34CHL1    C3 3623   5.226   3.276   6.220  0.2495 -0.3321 -0.5806
   34CHL1    H3 3624   5.128   3.243   6.182 -0.5913 -0.0573  1.2393
   34CHL1    O3 3625   5.232   3.281   6.358 -0.3510 -0.2074 -0.6467
   34CHL1   H3' 3626   5.297   3.217   6.389  1.4329  2.1913  0.8742
   34CHL1    C4 3627   5.334   3.173   6.177  0.2292  0.5134 -0.1708
   34CHL1   H4A 3628   5.436   3.208   6.204 -0.6300  2.2134  1.0439
   34CHL1   H4B 3629   5.316   3.076   6.226  1.9126  0.7740  1.0820
   34CHL1    C5 3630   5.325   3.170   6.027 -0.0393  0.1142 -0.1103
   34CHL1    C6 3631   5.313   3.054   5.965 -0.1102 -1.0761  0.2455
   34CHL1    H6 3632   5.306   2.965   6.030  1.4271 -2.0962 -0.9029
   34CHL1    C7 3633   5.291   3.033   5.820  0.1242 -0.2564  0.3487
   34CHL1   H7A 3634   5.341   2.941   5.785  0.8355 -0.6330  2.2533
   34CHL1   H7B 3635   5.185   3.021   5.788  0.3997 -1.9387 -0.0336
   34CHL1    C8 3636   5.344   3.161   5.736  0.2829 -0.0104 -0.5871
   34CHL1    H8 3637   5.451   3.142   5.758  0.8534 -0.0672 -3.1264
   34CHL1   C14 3638   5.304   3.154   5.593 -0.3981 -0.3062  0.0983
   34CHL1   H14 3639   5.194   3.171   5.593 -0.5178 -1.0502 -0.0699
   34CHL1   C15 3640   5.340   3.033   5.507 -0.0633 -0.7222 -1.1003
   34CHL1  H15A 3641   5.443   3.001   5.536  1.0980  2.3187 -1.4773
   34CHL1  H15B 3642   5.269   2.949   5.520  0.8722 -1.1519  1.9885
   34CHL1   C16 3643   5.321   3.078   5.360 -0.0613 -0.0595 -0.0880
   34CHL1  H16A 3644   5.416   3.058   5.306 -0.7620 -0.3549 -1.2391
   34CHL1  H16B 3645   5.237   3.025   5.310 -1.5450  0.7131  1.4823
   34CHL1   C17 3646   5.304   3.234   5.367  0.6770  0.1675  0.1762
   34CHL1   H17 3647   5.193   3.239   5.367  0.6193 -0.8661  0.2248
   34CHL1   C13 3648   5.357   3.268   5.508 -0.0796 -0.6571  0.5470
   34CHL1   C18 3649   5.516   3.269   5.524  0.0225  0.1130  0.3345
   34CHL1  H18A 3650   5.560   3.213   5.438 -1.2665 -0.7949  0.2339
   34CHL1  H18B 3651   5.557   3.372   5.511  0.8794 -0.0676  1.5107
   34CHL1  H18C 3652   5.565   3.234   5.617  2.3786  3.2755  0.4688
   34CHL1   C12 3653   5.297   3.399   5.568  0.4648  0.2875  0.2009
   34CHL1  H12A 3654   5.334   3.487   5.510  2.5823 -0.9798 -0.5043
   34CHL1  H12B 3655   5.188   3.397   5.546  0.7415  1.8474 -1.5951
   34CHL1   C11 3656   5.320   3.420   5.722 -0.4632  0.5468 -0.3458
   34CHL1  H11A 3657   5.424   3.459   5.730 -0.3855  0.0176  1.9298
   34CHL1  H11B 3658   5.244   3.493   5.757  0.0026  0.4988  0.8092
   34CHL1    C9 3659   5.295   3.290   5.809 -0.2489  0.2305  0.7993
   34CHL1    H9 3660   5.184   3.287   5.804 -0.2592  1.1721  0.2393
   34CHL1   C10 3661   5.333   3.301   5.954  0.4259  0.6494  0.3195
   34CHL1   C19 3662   5.476   3.353   5.962 -0.4307  0.3353  0.1030
   34CHL1  H19A 3663   5.472   3.464   5.960  0.7780  0.4378 -3.0497
   34CHL1  H19B 3664   5.525   3.324   6.057  0.1502  1.3117  0.1178
   34CHL1  H19C 3665   5.540   3.310   5.881 -3.4288 -1.6338 -1.4258
   34CHL1    C1 3666   5.226   3.399   6.023 -0.3965 -0.1799 -0.4279
   34CHL1   H1A 3667   5.244   3.500   5.980  0.3092  0.3211  1.0071
   34CHL1   H1B 3668   5.128   3.360   5.988 -0.1144  0.4381 -1.9927
   34CHL1    C2 3669   5.251   3.414   6.170 -0.4436 -0.5496  0.7377
   34CHL1   H2A 3670   5.182   3.483   6.223 -0.2377 -0.0972  0.4277
   34CHL1   H2B 3671   5.356   3.448   6.184 -1.3930  2.6726  0.9607
   34CHL1   C20 3672   5.370   3.300   5.234 -0.1395  0.1623  0.3527
   34CHL1   H20 3673   5.480   3.282   5.224 -0.3382 -1.3385  0.7253
   34CHL1   C21 3674   5.350   3.459   5.248  0.2055  0.1951  0.4630
   34CHL1  H21A 3675   5.374   3.520   5.159 -2.1069 -1.0835 -1.1514
   34CHL1  H21B 3676   5.412   3.502   5.329  1.5638  0.8373 -0.8853
   34CHL1  H21C 3677   5.245   3.488   5.271  0.9083  2.2969  1.2221
   34CHL1   C22 3678   5.307   3.249   5.104  0.2323 -0.2237 -0.4300
   34CHL1  H22A 3679   5.330   3.141   5.091  0.6070 -0.0409 -1.2904
   34CHL1  H22B 3680   5.198   3.250   5.128  0.1073 -4.3770 -0.0824
   34CHL1   C23 3681   5.347   3.315   4.972  0.5500 -0.0372  0.7193
   34CHL1  H23A 3682   5.336   3.425   4.971 -1.8919 -0.2089 -1.5161
   34CHL1  H23B 3683   5.453   3.292   4.946  0.0356 -0.5094 -1.1329
   34CHL1   C24 3684   5.257   3.272   4.855  0.1018 -0.0442 -0.6683
   34CHL1  H24A 3685   5.150   3.298   4.868 -0.2344  0.5953 -3.9208
   34CHL1  H24B 3686   5.283   3.328   4.763 -2.3002 -1.1707 -2.1253
   34CHL1   C25 3687   5.270   3.119   4.811  0.5194 -0.4576 -0.4189
   34CHL1   H25 3688   5.226   3.058   4.892  1.2323 -0.4009  0.0240
   34CHL1   C26 3689   5.203   3.095   4.674  0.1042 -0.2263 -0.1689
   34CHL1  H26A 3690   5.200   2.985   4.660 -3.2922 -0.0836 -1.4717
   34CHL1  H26B 3691   5.094   3.118   4.668  0.2643  0.5590 -0.1913
   34CHL1  H26C 3692   5.260   3.150   4.596  0.6965 -0.1600  0.3080
   34CHL1   C27 3693   5.416   3.076   4.781  0.7755 -0.7968 -0.4852
   34CHL1  H27A 3694   5.479   3.155   4.733 -0.8572  1.1988  0.4998
   34CHL1  H27B 3695   5.462   3.052   4.879 -0.3208  1.7252  0.7504
   34CHL1  H27C 3696   5.414   2.983   4.720 -3.3400 -0.2456 -1.4808
   35CHL1    C3 3697   5.523   3.682   6.304  0.0629 -0.7068 -0.2893
   35CHL1    H3 3698   5.532   3.576   6.274 -0.5795 -1.7700  2.9448
   35CHL1    O3 3699   5.528   3.667   6.443  0.9686 -0.2746  0.8530
   35CHL1   H3' 3700   5.582   3.741   6.470  2.6604 -0.5673 -1.3560
   35CHL1    C4 3701   5.633   3.773   6.264 -0.6374 -0.7303  0.6458
   35CHL1   H4A 3702   5.623   3.872   6.312  1.6498 -0.2360  0.1958
   35CHL1   H4B 3703   5.735   3.739   6.290  0.4633  1.8723 -0.0010
   35CHL1    C5 3704   5.639   3.774   6.113  0.0002  0.1609  0.1259
   35CHL1    C6 3705   5.735   3.715   6.041 -0.4942  0.4268 -0.1258
   35CHL1    H6 3706   5.817   3.661   6.090  0.5988  1.0824 -1.1676
   35CHL1    C7 3707   5.741   3.713   5.894  0.3078 -0.3682 -0.4158
   35CHL1   H7A 3708   5.838   3.755   5.860 -0.2086 -0.9070 -2.6679
   35CHL1   H7B 3709   5.713   3.614   5.853 -0.8250  0.2464 -1.1588
   35CHL1    C8 3710   5.636   3.818   5.834  0.0631  0.9746  0.1499
   35CHL1    H8 3711   5.674   3.919   5.858  0.2384  0.6004  1.5322
   35CHL1   C14 3712   5.642   3.805   5.683 -0.1447  0.3886  0.3086
   35CHL1   H14 3713   5.615   3.700   5.659 -0.1129 -0.0099  1.8888
   35CHL1   C15 3714   5.780   3.826   5.620  0.0996 -0.0037  0.0709
   35CHL1  H15A 3715   5.831   3.918   5.656  0.0605  0.9442 -2.1491
   35CHL1  H15B 3716   5.846   3.737   5.615 -1.4669 -1.1771 -0.9686
   35CHL1   C16 3717   5.738   3.848   5.470  0.5309 -0.5383  0.0794
   35CHL1  H16A 3718   5.788   3.936   5.424 -0.6705 -0.8278 -1.8759
   35CHL1  H16B 3719   5.766   3.768   5.399 -2.2465 -1.0140 -0.6061
   35CHL1   C17 3720   5.575   3.858   5.463 -0.8760  0.6451  0.8339
   35CHL1   H17 3721   5.541   3.756   5.436  0.3287  1.1208 -3.0058
   35CHL1   C13 3722   5.535   3.887   5.603 -0.2336  0.0080 -0.6285
   35CHL1   C18 3723   5.549   4.039   5.633  0.3998  0.8445 -0.5132
   35CHL1  H18A 3724   5.647   4.076   5.595  0.9623  0.1406  0.2158
   35CHL1  H18B 3725   5.463   4.095   5.590  1.2136  2.3813 -0.2206
   35CHL1  H18C 3726   5.554   4.055   5.743  3.6021  0.0756 -0.4598
   35CHL1   C12 3727   5.399   3.840   5.661  0.0366 -0.2957 -0.0204
   35CHL1  H12A 3728   5.321   3.900   5.610  2.3221  1.3195 -1.7922
   35CHL1  H12B 3729   5.372   3.735   5.638 -0.3148 -0.3620  0.6770
   35CHL1   C11 3730   5.385   3.863   5.816 -0.3460 -0.0839  0.0415
   35CHL1  H11A 3731   5.382   3.972   5.839 -0.8093 -0.4344  1.7428
   35CHL1  H11B 3732   5.289   3.819   5.853 -1.1034  0.8024 -0.7955
   35CHL1    C9 3733   5.498   3.798   5.899 -0.4312  0.2866  0.8439
   35CHL1    H9 3734   5.477   3.689   5.902  2.4694 -0.5388 -2.3919
   35CHL1   C10 3735   5.510   3.836   6.043 -1.2481 -0.2070 -0.0619
   35CHL1   C19 3736   5.517   3.987   6.073 -0.1283 -0.5851  0.9450
   35CHL1  H19A 3737   5.491   4.009   6.179 -0.9195 -0.4024  0.7223
   35CHL1  H19B 3738   5.620   4.027   6.061 -0.1874 -0.5502  0.5585
   35CHL1  H19C 3739   5.438   4.046   6.022 -0.2698  0.2490  2.0844
   35CHL1    C1 3740   5.384   3.775   6.116  0.5523  0.0440  0.0920
   35CHL1   H1A 3741   5.300   3.845   6.097 -0.0115 -0.0017  2.1327
   35CHL1   H1B 3742   5.362   3.682   6.060  0.4007  0.9222 -1.3589
   35CHL1    C2 3743   5.389   3.739   6.267  0.0856  0.6858  0.3635
   35CHL1   H2A 3744   5.315   3.661   6.295  0.2224 -0.7931 -2.9490
   35CHL1   H2B 3745   5.359   3.828   6.327 -1.3465 -0.1988  1.0283
   35CHL1   C20 3746   5.526   3.934   5.342 -0.1236  0.1854  0.5512
   35CHL1   H20 3747   5.543   4.041   5.365  2.5443 -0.3663  1.5361
   35CHL1   C21 3748   5.379   3.907   5.327  0.0611  0.3716  0.2385
   35CHL1  H21A 3749   5.336   3.981   5.255  0.4573 -0.3029 -0.7176
   35CHL1  H21B 3750   5.316   3.915   5.418  0.9865 -0.0454  0.9165
   35CHL1  H21C 3751   5.356   3.806   5.288  0.7091  0.2426  0.1831
   35CHL1   C22 3752   5.589   3.898   5.206 -0.0118 -0.7840  0.3748
   35CHL1  H22A 3753   5.697   3.911   5.232 -0.1963  0.3524  0.6481
   35CHL1  H22B 3754   5.555   3.796   5.178  1.6363 -1.4692  0.7315
   35CHL1   C23 3755   5.557   3.998   5.087 -0.2945 -0.5577 -0.7289
   35CHL1  H23A 3756   5.451   3.983   5.060  0.0575 -2.8024 -1.0479
   35CHL1  H23B 3757   5.580   4.104   5.111  1.6317 -0.5972 -2.1652
   35CHL1   C24 3758   5.641   3.972   4.958  0.4806  0.0893  0.1582
   35CHL1  H24A 3759   5.744   4.002   4.987  0.2123  2.4961 -1.1140
   35CHL1  H24B 3760   5.643   3.868   4.921  1.1696  0.3624 -0.6109
   35CHL1   C25 3761   5.594   4.052   4.836 -0.2547  0.2731  0.5588
   35CHL1   H25 3762   5.485   4.036   4.822 -0.0458 -0.7969  0.0524
   35CHL1   C26 3763   5.631   4.196   4.866 -0.0865 -0.1528 -0.2268
   35CHL1  H26A 3764   5.570   4.253   4.939  0.1121 -0.9115  0.5475
   35CHL1  H26B 3765   5.728   4.212   4.917 -0.9739  1.7931  0.9781
   35CHL1  H26C 3766   5.626   4.254   4.771  0.2798 -1.8304 -1.3112
   35CHL1   C27 3767   5.662   3.991   4.711 -1.2523 -0.5223  0.5770
   35CHL1  H27A 3768   5.633   3.883   4.711  0.1519 -1.0589  4.3136
   35CHL1  H27B 3769   5.634   4.029   4.611 -0.2059  1.3563  0.9613
   35CHL1  H27C 3770   5.772   3.987   4.719 -1.4288 -1.9142  3.5036
   36CHL1    C3 3771   3.766   3.014   6.331 -0.0582  0.1787  0.1295
   36CHL1    H3 3772   3.692   3.097   6.331 -0.3150 -0.0479  0.2242
   36CHL1    O3 3773   3.794   2.986   6.468 -0.1937  0.6763  0.3927
   36CHL1   H3' 3774   3.836   2.900   6.469 -1.7269 -0.1267 -0.5152
   36CHL1    C4 3775   3.702   2.886   6.278 -0.1477 -0.0139 -0.5951
   36CHL1   H4A 3776   3.768   2.802   6.310  0.4212  0.6318 -0.0402
   36CHL1   H4B 3777   3.602   2.872   6.323  0.3640 -0.8116  0.3394
   36CHL1    C5 3778   3.690   2.874   6.127 -0.9516 -0.2069  0.3560
   36CHL1    C6 3779   3.576   2.838   6.073 -0.1260  0.2827 -0.5782
   36CHL1    H6 3780   3.506   2.797   6.147  1.0027 -0.6458 -0.0049
   36CHL1    C7 3781   3.539   2.835   5.927 -0.1919 -0.1332  0.1621
   36CHL1   H7A 3782   3.480   2.744   5.903 -0.2796  0.2125 -1.0421
   36CHL1   H7B 3783   3.464   2.915   5.914 -1.4638 -1.0624  1.5299
   36CHL1    C8 3784   3.661   2.844   5.842 -0.4536  0.2372  0.1925
   36CHL1    H8 3785   3.708   2.744   5.843 -0.5426  0.1995  0.6500
   36CHL1   C14 3786   3.636   2.879   5.691 -0.2252  0.2835 -0.5500
   36CHL1   H14 3787   3.586   2.978   5.690 -0.2878  0.2907 -3.1673
   36CHL1   C15 3788   3.540   2.798   5.605 -0.7007  0.0584  0.1524
   36CHL1  H15A 3789   3.562   2.689   5.604  0.2222  0.2374  0.4963
   36CHL1  H15B 3790   3.436   2.825   5.635  0.3118  2.6093  1.6302
   36CHL1   C16 3791   3.562   2.862   5.464 -0.3315 -0.1167 -0.2628
   36CHL1  H16A 3792   3.551   2.787   5.383  0.7965 -1.3230  0.6431
   36CHL1  H16B 3793   3.489   2.941   5.438 -0.9588 -0.7904 -0.5952
   36CHL1   C17 3794   3.692   2.948   5.472 -0.4480  0.4782 -0.7452
   36CHL1   H17 3795   3.664   3.055   5.486  0.0746  0.3738  1.3819
   36CHL1   C13 3796   3.758   2.900   5.607 -0.7263  0.1476  0.9827
   36CHL1   C18 3797   3.820   2.763   5.582 -0.5109  0.1151 -0.7515
   36CHL1  H18A 3798   3.774   2.703   5.501  0.8206  0.5486 -1.8605
   36CHL1  H18B 3799   3.919   2.772   5.534 -0.5769  0.8603 -0.7608
   36CHL1  H18C 3800   3.818   2.693   5.668  0.7202 -1.4385 -1.9208
   36CHL1   C12 3801   3.849   3.011   5.657  0.0124 -0.4093 -0.3302
   36CHL1  H12A 3802   3.941   3.018   5.597  0.8748  0.5225  1.0369
   36CHL1  H12B 3803   3.801   3.111   5.665 -1.9175 -1.3528  0.7469
   36CHL1   C11 3804   3.892   2.967   5.801 -0.7571  0.0025 -0.7063
   36CHL1  H11A 3805   3.951   2.873   5.802  1.8419  1.5320  0.1646
   36CHL1  H11B 3806   3.956   3.047   5.844  0.1640 -0.1960 -1.6800
   36CHL1    C9 3807   3.764   2.949   5.895  0.1604 -0.6466  0.4014
   36CHL1    H9 3808   3.713   3.047   5.889 -0.5245 -1.0697 -0.8900
   36CHL1   C10 3809   3.815   2.925   6.043  0.7737 -0.1534  0.0818
   36CHL1   C19 3810   3.918   2.811   6.051 -0.2101 -0.5554  0.3952
   36CHL1  H19A 3811   4.012   2.828   5.994  1.0883 -1.3260  2.1756
   36CHL1  H19B 3812   3.957   2.794   6.154  0.5676 -2.6052 -0.1925
   36CHL1  H19C 3813   3.869   2.723   6.004  0.5896 -0.3091 -0.9547
   36CHL1    C1 3814   3.869   3.053   6.102 -0.1569  1.0401 -0.3572
   36CHL1   H1A 3815   3.971   3.077   6.065  0.1637  0.7505  0.3327
   36CHL1   H1B 3816   3.798   3.136   6.079  0.2643  1.7489  0.8161
   36CHL1    C2 3817   3.896   3.050   6.261  0.6343 -0.1897 -0.5122
   36CHL1   H2A 3818   3.939   3.146   6.296 -0.7962 -0.2663  1.6638
   36CHL1   H2B 3819   3.973   2.970   6.270  0.7065 -0.1556 -0.8015
   36CHL1   C20 3820   3.790   2.952   5.355 -0.2145 -0.5866 -0.5202
   36CHL1   H20 3821   3.888   2.993   5.386 -1.4335  2.5946 -0.4712
   36CHL1   C21 3822   3.739   3.063   5.270  0.5560  0.2067 -0.2151
   36CHL1  H21A 3823   3.806   3.079   5.183  1.7772 -0.8805  0.4707
   36CHL1  H21B 3824   3.751   3.160   5.321 -1.8383 -0.8943  2.7639
   36CHL1  H21C 3825   3.634   3.050   5.235  0.3140  2.0824 -0.2847
   36CHL1   C22 3826   3.786   2.820   5.261 -0.2324 -0.5988 -0.3915
   36CHL1  H22A 3827   3.809   2.723   5.308  2.1000 -0.3018 -0.7914
   36CHL1  H22B 3828   3.686   2.819   5.212 -0.7132  0.9229  0.4832
   36CHL1   C23 3829   3.900   2.826   5.165 -0.1613 -0.2023 -0.2730
   36CHL1  H23A 3830   3.921   2.932   5.136 -1.7912  0.6241  1.3227
   36CHL1  H23B 3831   3.995   2.790   5.211 -0.7136 -1.8973 -0.4288
   36CHL1   C24 3832   3.885   2.743   5.041  0.3011 -0.5674 -0.1830
   36CHL1  H24A 3833   3.878   2.635   5.064 -0.9581 -0.5124 -0.2743
   36CHL1  H24B 3834   3.787   2.772   4.998  1.3277  1.0130 -1.6068
   36CHL1   C25 3835   3.992   2.759   4.926 -0.5182 -1.0674  0.0327
   36CHL1   H25 3836   4.093   2.749   4.971 -0.4038  0.0315  0.0592
   36CHL1   C26 3837   3.978   2.653   4.809 -0.1448  0.0707  0.3040
   36CHL1  H26A 3838   3.870   2.646   4.785 -0.1618 -1.5015  0.7554
   36CHL1  H26B 3839   4.038   2.696   4.726  0.9365  0.9150  1.4886
   36CHL1  H26C 3840   4.009   2.552   4.843  2.3771  1.4460  2.4737
   36CHL1   C27 3841   3.993   2.897   4.860 -0.0335  0.0122  0.0999
   36CHL1  H27A 3842   4.025   2.973   4.934 -0.1594 -0.2757  0.4549
   36CHL1  H27B 3843   4.061   2.899   4.772  1.3308 -0.2126  1.1037
   36CHL1  H27C 3844   3.891   2.911   4.819  0.4532 -0.8940 -1.4942
   37CHL1    C3 3845   3.974   0.154   6.551  0.6625  0.3832 -0.0394
   37CHL1    H3 3846   3.915   0.231   6.496 -0.1818  0.7581  1.3362
   37CHL1    O3 3847   3.938   0.168   6.686  0.0942 -0.2065 -0.2283
   37CHL1   H3' 3848   3.976   0.250   6.718 -0.9208 -0.6086  2.2715
   37CHL1    C4 3849   3.953   0.007   6.514  0.3956  0.3911  0.6219
   37CHL1   H4A 3850   4.019  -0.058   6.576  0.8663  0.2799  0.0220
   37CHL1   H4B 3851   3.851  -0.032   6.535 -0.3361  2.7480  1.7336
   37CHL1    C5 3852   3.973  -0.007   6.366 -0.2762 -0.3888  0.0467
   37CHL1    C6 3853   3.883  -0.042   6.280 -0.0033  0.8935  0.6065
   37CHL1    H6 3854   3.781  -0.069   6.310  0.2643 -0.8013  0.0887
   37CHL1    C7 3855   3.924  -0.076   6.136 -0.5220 -0.2174  0.1446
   37CHL1   H7A 3856   3.867  -0.167   6.106 -0.2407 -0.4222  0.2300
   37CHL1   H7B 3857   3.889  -0.000   6.063 -3.1612 -2.6678 -1.3553
   37CHL1    C8 3858   4.080  -0.093   6.115  0.1961 -0.0878 -0.2223
   37CHL1    H8 3859   4.102  -0.192   6.160 -1.1372  0.2755  1.3359
   37CHL1   C14 3860   4.118  -0.094   5.972  0.1148  0.4828 -0.0891
   37CHL1   H14 3861   4.082   0.004   5.934  1.9912  0.8344 -1.0906
   37CHL1   C15 3862   4.048  -0.199   5.880 -0.2833  0.3458 -0.0423
   37CHL1  H15A 3863   4.052  -0.301   5.923  1.2722  0.3440 -0.1196
   37CHL1  H15B 3864   3.943  -0.180   5.851 -0.8862 -2.0216  0.4064
   37CHL1   C16 3865   4.126  -0.183   5.746 -0.4873  0.2128  0.5567
   37CHL1  H16A 3866   4.166  -0.282   5.714  0.7328  0.3509  1.5824
   37CHL1  H16B 3867   4.058  -0.145   5.667 -1.0607  0.0465  0.9682
   37CHL1   C17 3868   4.252  -0.093   5.770  0.2109  0.2012 -0.4173
   37CHL1   H17 3869   4.207   0.004   5.741 -0.4743  0.1050  0.3017
   37CHL1   C13 3870   4.267  -0.090   5.932  0.3410  0.4840 -0.0643
   37CHL1   C18 3871   4.333  -0.224   6.000  0.1943  0.0641  0.7010
   37CHL1  H18A 3872   4.443  -0.228   6.010  0.2207  0.1448  0.4566
   37CHL1  H18B 3873   4.292  -0.241   6.102 -1.0666 -2.2017 -0.1271
   37CHL1  H18C 3874   4.310  -0.305   5.928  0.3389 -0.3430  1.1067
   37CHL1   C12 3875   4.328   0.030   6.001 -0.2761 -0.0811 -0.0727
   37CHL1  H12A 3876   4.437   0.041   5.981  0.3941 -0.9623  2.6492
   37CHL1  H12B 3877   4.286   0.123   5.958  0.6189 -0.5298 -2.0721
   37CHL1   C11 3878   4.305   0.030   6.149 -0.2738  0.3020  0.0429
   37CHL1  H11A 3879   4.358  -0.060   6.186 -1.7006 -0.1830  0.9759
   37CHL1  H11B 3880   4.343   0.124   6.194  0.9568 -0.3089  0.3363
   37CHL1    C9 3881   4.148   0.017   6.181  0.1276 -0.4426 -0.2314
   37CHL1    H9 3882   4.109   0.110   6.136  0.5921  0.5683  1.3449
   37CHL1   C10 3883   4.121   0.025   6.334  0.4049 -0.2374 -0.3096
   37CHL1   C19 3884   4.222  -0.071   6.405 -0.0702  0.1584 -0.0290
   37CHL1  H19A 3885   4.241  -0.163   6.346 -1.0464  0.6173 -1.0917
   37CHL1  H19B 3886   4.324  -0.028   6.409  0.4764 -0.9006 -1.6915
   37CHL1  H19C 3887   4.193  -0.111   6.505  0.8807  0.8318  0.5330
   37CHL1    C1 3888   4.156   0.167   6.383  0.5082  0.1777  0.1667
   37CHL1   H1A 3889   4.260   0.200   6.363  1.0826 -2.2845 -1.3281
   37CHL1   H1B 3890   4.084   0.240   6.339  1.9518  1.8639  0.4899
   37CHL1    C2 3891   4.123   0.187   6.534  0.7378 -0.2616 -0.3036
   37CHL1   H2A 3892   4.142   0.296   6.545  0.8287 -0.4404  1.7456
   37CHL1   H2B 3893   4.196   0.126   6.592 -1.4668 -2.0809  0.6912
   37CHL1   C20 3894   4.375  -0.132   5.691 -0.0003 -0.2628 -0.5648
   37CHL1   H20 3895   4.396  -0.239   5.712  1.8627 -0.0984 -1.3733
   37CHL1   C21 3896   4.496  -0.046   5.734  0.2996  0.7081  0.3654
   37CHL1  H21A 3897   4.548  -0.079   5.826 -2.1221  1.2398  2.0133
   37CHL1  H21B 3898   4.460   0.057   5.750  2.2805  1.8000 -1.5784
   37CHL1  H21C 3899   4.567  -0.043   5.648  0.8759  0.2975  0.8188
   37CHL1   C22 3900   4.348  -0.120   5.540  0.0717  0.1924  0.1088
   37CHL1  H22A 3901   4.261  -0.184   5.517 -0.7737  1.4412 -0.3146
   37CHL1  H22B 3902   4.322  -0.013   5.523 -0.3228 -0.0662 -0.9568
   37CHL1   C23 3903   4.454  -0.178   5.454 -0.4303  0.5473  0.5198
   37CHL1  H23A 3904   4.554  -0.129   5.453 -0.3662  0.4108 -0.1455
   37CHL1  H23B 3905   4.476  -0.280   5.492 -2.3449 -1.0744 -2.3559
   37CHL1   C24 3906   4.411  -0.171   5.310  0.0540  0.5747  0.0653
   37CHL1  H24A 3907   4.308  -0.214   5.309 -0.6691  2.0499  2.2836
   37CHL1  H24B 3908   4.399  -0.063   5.286  1.1717  1.1715  1.9633
   37CHL1   C25 3909   4.507  -0.218   5.200 -0.6252  0.2347 -0.0140
   37CHL1   H25 3910   4.548  -0.317   5.230 -1.9160 -1.1068 -2.3768
   37CHL1   C26 3911   4.447  -0.218   5.057  0.0079 -0.4002 -1.0383
   37CHL1  H26A 3912   4.406  -0.118   5.032  2.3673  1.0784  0.4819
   37CHL1  H26B 3913   4.521  -0.241   4.977  0.8358  0.2837 -0.4999
   37CHL1  H26C 3914   4.367  -0.294   5.066 -1.4630  1.2616  1.0270
   37CHL1   C27 3915   4.632  -0.130   5.192  0.4885 -0.0763 -0.4425
   37CHL1  H27A 3916   4.704  -0.148   5.109  1.5887 -0.9226  0.6710
   37CHL1  H27B 3917   4.593  -0.026   5.189 -0.4379 -0.3984 -0.1092
   37CHL1  H27C 3918   4.688  -0.157   5.284 -1.8769 -1.0088  0.8065
   38CHL1    C3 3919   4.715   1.029   6.205 -0.0313  0.1023 -0.5332
   38CHL1    H3 3920   4.713   1.140   6.201  0.7661  0.1789  0.5926
   38CHL1    O3 3921   4.741   0.983   6.341 -0.3337 -0.1274 -0.4144
   38CHL1   H3' 3922   4.660   0.970   6.392  0.1285 -0.0377  0.3474
   38CHL1    C4 3923   4.586   0.968   6.156  0.2641  0.1403  0.0895
   38CHL1   H4A 3924   4.588   0.860   6.185 -0.6074  0.3268  0.8879
   38CHL1   H4B 3925   4.504   1.011   6.216  0.6644  0.5774  0.3297
   38CHL1    C5 3926   4.563   1.000   6.007 -0.0179  0.4314 -0.1820
   38CHL1    C6 3927   4.451   1.069   5.977  0.2613  0.2358 -0.2873
   38CHL1    H6 3928   4.375   1.082   6.056 -1.8287 -1.7808 -1.8314
   38CHL1    C7 3929   4.405   1.096   5.837  0.1487  0.1212 -0.6130
   38CHL1   H7A 3930   4.297   1.081   5.813  0.4343 -0.9851 -1.2713
   38CHL1   H7B 3931   4.434   1.194   5.795  2.3288 -1.0002 -1.9292
   38CHL1    C8 3932   4.490   1.005   5.731  0.2796 -1.0210 -0.0424
   38CHL1    H8 3933   4.457   0.899   5.740  0.2950 -0.9303  1.2945
   38CHL1   C14 3934   4.464   1.066   5.596 -1.0615  0.1943 -0.2640
   38CHL1   H14 3935   4.478   1.176   5.604 -1.0558  0.0459  2.9820
   38CHL1   C15 3936   4.324   1.047   5.537 -0.0195  0.4631  0.0929
   38CHL1  H15A 3937   4.288   0.943   5.552 -1.4158  0.7790 -0.9163
   38CHL1  H15B 3938   4.246   1.117   5.575  1.0108  1.2711  0.7766
   38CHL1   C16 3939   4.341   1.067   5.391 -0.2041  0.0785 -0.2851
   38CHL1  H16A 3940   4.302   0.974   5.345 -1.4863  0.2290  0.4361
   38CHL1  H16B 3941   4.289   1.160   5.363 -1.1980  0.0682  1.3725
   38CHL1   C17 3942   4.493   1.060   5.361 -0.1206  0.2986 -0.9462
   38CHL1   H17 3943   4.527   1.166   5.362 -2.5066  1.1332  0.6152
   38CHL1   C13 3944   4.552   1.001   5.489  0.5480  0.3090  0.8666
   38CHL1   C18 3945   4.536   0.844   5.472  0.6180  0.2390 -0.0628
   38CHL1  H18A 3946   4.594   0.801   5.387 -1.4141 -1.9273 -0.4488
   38CHL1  H18B 3947   4.563   0.793   5.567  0.1701  0.3330  0.1165
   38CHL1  H18C 3948   4.430   0.824   5.449 -0.2711  1.6823  2.3909
   38CHL1   C12 3949   4.694   1.040   5.525  0.2427  0.0217 -0.2387
   38CHL1  H12A 3950   4.770   1.007   5.451  0.6226  0.9731 -0.2803
   38CHL1  H12B 3951   4.697   1.151   5.517  2.1374  0.1307  1.3743
   38CHL1   C11 3952   4.743   0.988   5.662 -0.1922  0.5645 -0.1452
   38CHL1  H11A 3953   4.754   0.878   5.648 -1.8975  0.2167  0.9110
   38CHL1  H11B 3954   4.840   1.041   5.665  0.3821 -0.4692 -0.0046
   38CHL1    C9 3955   4.640   1.021   5.769  0.0984 -0.2569 -0.2595
   38CHL1    H9 3956   4.655   1.131   5.779 -3.0466  0.0782  2.9399
   38CHL1   C10 3957   4.672   0.962   5.912 -0.3531  0.0496  0.6119
   38CHL1   C19 3958   4.686   0.802   5.887 -0.8780 -0.3586  0.2634
   38CHL1  H19A 3959   4.788   0.775   5.853 -1.5465 -0.6083 -1.7044
   38CHL1  H19B 3960   4.685   0.754   5.987  2.4691  2.4502  1.8212
   38CHL1  H19C 3961   4.601   0.770   5.821 -0.6043  0.0135 -0.2779
   38CHL1    C1 3962   4.806   1.023   5.966 -0.2537  0.8342  0.5392
   38CHL1   H1A 3963   4.889   0.985   5.902 -2.3034 -0.2861 -1.5839
   38CHL1   H1B 3964   4.802   1.132   5.948  0.6936  0.8404  0.2834
   38CHL1    C2 3965   4.835   0.988   6.115 -0.5624  0.0795 -0.1974
   38CHL1   H2A 3966   4.929   1.033   6.154 -0.9101 -0.3996  1.2770
   38CHL1   H2B 3967   4.844   0.879   6.132 -2.0789  0.0127  0.3794
   38CHL1   C20 3968   4.533   1.008   5.219 -0.6011 -0.1491 -0.6504
   38CHL1   H20 3969   4.499   0.902   5.209  1.4030 -1.0714  1.4550
   38CHL1   C21 3970   4.688   1.011   5.188  0.2280 -0.7746  0.2479
   38CHL1  H21A 3971   4.701   0.960   5.090 -0.9842  2.3547 -1.7058
   38CHL1  H21B 3972   4.758   0.952   5.251  2.3502  2.2785  0.9484
   38CHL1  H21C 3973   4.719   1.117   5.182 -1.9066 -0.1757 -2.4671
   38CHL1   C22 3974   4.448   1.091   5.114 -0.0212 -0.4535  0.6261
   38CHL1  H22A 3975   4.338   1.101   5.129 -0.2246 -0.1998 -0.8455
   38CHL1  H22B 3976   4.479   1.197   5.124 -1.3250  0.0594 -0.5083
   38CHL1   C23 3977   4.476   1.057   4.972 -0.6800  0.0378  0.6449
   38CHL1  H23A 3978   4.406   1.122   4.915  1.4942  2.3214  0.3489
   38CHL1  H23B 3979   4.580   1.080   4.939 -0.3754 -0.1221  1.4674
   38CHL1   C24 3980   4.436   0.910   4.928 -0.0340 -0.0885  0.0450
   38CHL1  H24A 3981   4.525   0.846   4.943 -0.6275 -1.8702 -3.1285
   38CHL1  H24B 3982   4.357   0.876   4.999 -0.4220 -2.0388 -1.2388
   38CHL1   C25 3983   4.386   0.890   4.787 -0.2055 -0.1920 -0.4046
   38CHL1   H25 3984   4.295   0.949   4.761  1.4576  2.4987 -0.5711
   38CHL1   C26 3985   4.485   0.935   4.682 -0.1817  0.0805  0.7592
   38CHL1  H26A 3986   4.585   0.890   4.696 -0.7899 -1.7989 -0.4207
   38CHL1  H26B 3987   4.448   0.896   4.584  1.4585 -1.4544  0.7073
   38CHL1  H26C 3988   4.497   1.045   4.674  2.0511 -0.2054 -0.8968
   38CHL1   C27 3989   4.361   0.738   4.759  0.3977  0.4748 -0.1483
   38CHL1  H27A 3990   4.361   0.709   4.652 -0.7619 -0.1089 -0.0090
   38CHL1  H27B 3991   4.445   0.692   4.815 -0.5015  2.3260  2.9305
   38CHL1  H27C 3992   4.261   0.716   4.803 -0.0671  1.1306 -0.8363
   39CHL1    C3 3993   6.494   4.934   6.483  0.1319  0.0539  0.0458
   39CHL1    H3 3994   6.453   4.836   6.451  0.0892  0.1271 -0.1300
   39CHL1    O3 3995   6.500   4.935   6.621 -0.7051  0.0072 -0.7725
   39CHL1   H3' 3996   6.541   5.020   6.638 -2.1551  1.0160 -1.9644
   39CHL1    C4 3997   6.629   4.952   6.412 -0.2301 -0.0291 -0.5528
   39CHL1   H4A 3998   6.667   5.054   6.435  0.6588 -0.3430 -0.5769
   39CHL1   H4B 3999   6.698   4.874   6.450 -1.8282 -1.5571 -0.6642
   39CHL1    C5 4000   6.614   4.939   6.260  0.1462 -0.7044  0.2737
   39CHL1    C6 4001   6.682   4.843   6.191 -0.7474 -0.5724  0.6675
   39CHL1    H6 4002   6.759   4.785   6.244 -0.2274  0.5538  1.1877
   39CHL1    C7 4003   6.668   4.831   6.039  0.1116 -0.1346  0.0364
   39CHL1   H7A 4004   6.766   4.814   5.990  0.2695  0.8062 -0.0000
   39CHL1   H7B 4005   6.604   4.742   6.023 -0.5989 -0.2403  2.9007
   39CHL1    C8 4006   6.607   4.954   5.973  0.2339 -0.3716  0.9974
   39CHL1    H8 4007   6.687   5.031   5.974  1.6066 -1.7238  0.3296
   39CHL1   C14 4008   6.564   4.920   5.827 -0.8054  0.3497 -0.0015
   39CHL1   H14 4009   6.486   4.843   5.845 -2.8893  2.0288 -1.2907
   39CHL1   C15 4010   6.663   4.857   5.726 -0.2961 -0.4474 -0.3590
   39CHL1  H15A 4011   6.752   4.924   5.721 -0.8059  0.6646  2.8843
   39CHL1  H15B 4012   6.689   4.753   5.755 -1.5023 -0.5813  0.2848
   39CHL1   C16 4013   6.600   4.864   5.592  0.2453  0.1770  0.5325
   39CHL1  H16A 4014   6.672   4.900   5.515 -0.0606  1.8222  0.9672
   39CHL1  H16B 4015   6.568   4.762   5.563 -1.0426  0.6316  0.3069
   39CHL1   C17 4016   6.469   4.951   5.616 -0.1386  0.3044 -0.3053
   39CHL1   H17 4017   6.387   4.877   5.629  1.6755 -1.9123 -0.7926
   39CHL1   C13 4018   6.486   5.025   5.755 -0.3359 -0.1570 -0.0316
   39CHL1   C18 4019   6.575   5.152   5.731  0.2706 -0.9779  0.3312
   39CHL1  H18A 4020   6.650   5.146   5.649  1.8302 -0.9281  1.6916
   39CHL1  H18B 4021   6.507   5.234   5.701  0.9995 -0.8425 -1.0508
   39CHL1  H18C 4022   6.619   5.180   5.829  1.6101 -1.3344 -0.1370
   39CHL1   C12 4023   6.361   5.073   5.832 -0.0311  0.4540  0.4957
   39CHL1  H12A 4024   6.306   5.157   5.785 -0.3529  0.3224  0.6359
   39CHL1  H12B 4025   6.293   4.985   5.838  1.1022 -0.6108 -1.1218
   39CHL1   C11 4026   6.388   5.096   5.984 -0.3121  0.2238  0.3682
   39CHL1  H11A 4027   6.426   5.199   6.000  2.2086 -0.8768  2.2400
   39CHL1  H11B 4028   6.287   5.090   6.030 -0.8190  0.2020 -0.7090
   39CHL1    C9 4029   6.483   5.000   6.054  0.1092 -0.0771  0.0491
   39CHL1    H9 4030   6.428   4.905   6.064 -0.6823  0.4668  0.9682
   39CHL1   C10 4031   6.518   5.036   6.198 -0.5685 -0.6786  0.5402
   39CHL1   C19 4032   6.598   5.171   6.195  0.4466  0.6953 -0.3870
   39CHL1  H19A 4033   6.610   5.212   6.298 -0.0251  2.4411 -0.9944
   39CHL1  H19B 4034   6.699   5.159   6.149  0.6136  0.5281  0.0195
   39CHL1  H19C 4035   6.533   5.246   6.145  0.0771  1.5238  1.2774
   39CHL1    C1 4036   6.388   5.050   6.277 -0.0622  0.1112  0.2014
   39CHL1   H1A 4037   6.328   5.136   6.241 -0.4302 -0.1211  0.2523
   39CHL1   H1B 4038   6.327   4.958   6.265  0.8662 -0.6069  0.8212
   39CHL1    C2 4039   6.400   5.048   6.433 -0.4721 -0.1332 -1.4647
   39CHL1   H2A 4040   6.309   5.047   6.497 -0.0611 -1.6438 -0.8828
   39CHL1   H2B 4041   6.453   5.145   6.449  2.0116 -1.3698 -1.8166
   39CHL1   C20 4042   6.436   5.032   5.492  0.2363  0.3232  0.0433
   39CHL1   H20 4043   6.523   5.100   5.477  1.0742 -0.5870  0.6579
   39CHL1   C21 4044   6.314   5.114   5.519 -0.1639  0.2504  0.0121
   39CHL1  H21A 4045   6.272   5.166   5.430 -0.7002 -1.0228 -0.5076
   39CHL1  H21B 4046   6.339   5.199   5.585 -1.2004  1.9949 -1.7378
   39CHL1  H21C 4047   6.230   5.054   5.560 -0.9420  0.3676 -1.3577
   39CHL1   C22 4048   6.410   4.941   5.369 -0.9586  0.1929  0.0051
   39CHL1  H22A 4049   6.499   4.876   5.356 -0.2726  1.0678  0.2113
   39CHL1  H22B 4050   6.327   4.870   5.387 -0.7609 -0.5260 -1.7547
   39CHL1   C23 4051   6.388   5.024   5.239 -0.4289 -0.5283  0.2102
   39CHL1  H23A 4052   6.281   5.054   5.241 -0.0792  0.8002 -0.1321
   39CHL1  H23B 4053   6.458   5.109   5.252  0.8822 -1.3453 -1.2181
   39CHL1   C24 4054   6.409   4.942   5.108 -0.6089 -1.0331 -0.4064
   39CHL1  H24A 4055   6.517   4.914   5.111 -0.4353 -0.3014  0.5272
   39CHL1  H24B 4056   6.347   4.850   5.100  0.1688 -1.8400  2.1010
   39CHL1   C25 4057   6.412   5.026   4.978  0.0164  0.1194 -0.3715
   39CHL1   H25 4058   6.484   5.111   4.984  1.8951 -1.4338  0.2085
   39CHL1   C26 4059   6.463   4.946   4.852  0.6613  0.6558  0.8833
   39CHL1  H26A 4060   6.415   4.846   4.844  1.7597  0.2542 -1.5823
   39CHL1  H26B 4061   6.450   5.006   4.760  0.0369 -1.2887 -0.3343
   39CHL1  H26C 4062   6.567   4.911   4.866  0.3110  0.1733  2.5370
   39CHL1   C27 4063   6.269   5.080   4.958 -0.3641  0.9279  0.1491
   39CHL1  H27A 4064   6.193   5.009   4.919  0.1647  2.1886 -3.5972
   39CHL1  H27B 4065   6.236   5.134   5.049 -2.0658  0.2695 -0.0401
   39CHL1  H27C 4066   6.264   5.152   4.873  2.3236 -0.0986 -1.0024
   40CHL1    C3 4067   4.891   3.949   6.371 -0.0002  0.5683  0.2570
   40CHL1    H3 4068   4.967   4.029   6.354  1.3617 -0.7133  0.0532
   40CHL1    O3 4069   4.853   3.948   6.500 -0.3402 -0.3781 -0.2361
   40CHL1   H3' 4070   4.795   3.872   6.498 -0.8338 -0.0436  0.8853
   40CHL1    C4 4071   4.773   3.965   6.285 -0.1325 -0.1396  0.1773
   40CHL1   H4A 4072   4.692   3.891   6.302 -0.4317 -0.1087 -1.0184
   40CHL1   H4B 4073   4.733   4.064   6.316  1.6906  0.8717 -0.5705
   40CHL1    C5 4074   4.806   3.974   6.138 -0.7865  0.8623 -0.3742
   40CHL1    C6 4075   4.786   4.076   6.059 -0.8897  0.3855 -0.3222
   40CHL1    H6 4076   4.728   4.158   6.104 -0.5630  0.1566  0.5346
   40CHL1    C7 4077   4.819   4.084   5.915  0.4806  0.1136  0.2141
   40CHL1   H7A 4078   4.730   4.129   5.865 -0.0039 -1.8510 -0.8039
   40CHL1   H7B 4079   4.909   4.146   5.895 -0.2978  0.8966 -0.9834
   40CHL1    C8 4080   4.843   3.948   5.854  0.4677  0.1852  0.5182
   40CHL1    H8 4081   4.738   3.911   5.852 -0.9475  3.7841 -1.7434
   40CHL1   C14 4082   4.887   3.964   5.703  0.1429  0.1126 -0.6434
   40CHL1   H14 4083   4.985   4.017   5.704  0.1489  0.1027 -0.0431
   40CHL1   C15 4084   4.794   4.032   5.602 -0.1863 -0.3447 -0.4871
   40CHL1  H15A 4085   4.692   3.998   5.630  0.7414 -2.5501  0.4361
   40CHL1  H15B 4086   4.798   4.143   5.607 -2.2297 -0.2391 -0.2415
   40CHL1   C16 4087   4.850   3.992   5.462  0.1978  0.2213 -0.0847
   40CHL1  H16A 4088   4.764   3.966   5.398  1.5017 -1.8418 -1.1308
   40CHL1  H16B 4089   4.907   4.073   5.411  0.8406  0.4874  1.0164
   40CHL1   C17 4090   4.945   3.866   5.490 -0.4691 -0.4510  0.0746
   40CHL1   H17 4091   5.045   3.915   5.487 -1.4167  1.6100  0.4496
   40CHL1   C13 4092   4.911   3.826   5.635 -0.1688  0.3383 -0.4818
   40CHL1   C18 4093   4.786   3.744   5.630 -0.0533  0.4175 -0.7221
   40CHL1  H18A 4094   4.814   3.642   5.596 -0.8585 -1.1233  2.7086
   40CHL1  H18B 4095   4.747   3.738   5.734  0.2879  0.4874 -0.5864
   40CHL1  H18C 4096   4.709   3.783   5.561 -1.7514  0.6770  1.2276
   40CHL1   C12 4097   5.024   3.769   5.723 -0.2265  0.4264  0.1203
   40CHL1  H12A 4098   5.037   3.671   5.673  0.2676  0.2201  0.6490
   40CHL1  H12B 4099   5.113   3.835   5.711 -0.8449  0.8903 -2.4148
   40CHL1   C11 4100   4.985   3.745   5.863  0.4050 -0.6848 -0.3289
   40CHL1  H11A 4101   4.902   3.671   5.864 -0.0058 -0.2738 -1.6722
   40CHL1  H11B 4102   5.077   3.707   5.912 -0.6338 -0.3911  1.9816
   40CHL1    C9 4103   4.942   3.865   5.939  0.0910 -0.0454 -0.1112
   40CHL1    H9 4104   5.027   3.936   5.944 -1.3274  1.6212  1.3817
   40CHL1   C10 4105   4.886   3.847   6.090 -0.5737  0.0588  0.5028
   40CHL1   C19 4106   4.790   3.724   6.087  0.2731 -0.9966 -0.5557
   40CHL1  H19A 4107   4.843   3.632   6.056 -1.1731 -2.3006  0.7138
   40CHL1  H19B 4108   4.754   3.705   6.190 -4.4526  2.0259 -1.3472
   40CHL1  H19C 4109   4.703   3.740   6.019  0.2012 -0.5472 -0.3618
   40CHL1    C1 4110   5.001   3.811   6.186 -0.1749 -0.7400  0.5779
   40CHL1   H1A 4111   5.041   3.708   6.169  1.6160  0.0274 -0.1591
   40CHL1   H1B 4112   5.071   3.896   6.167 -2.0117  0.6769 -0.0716
   40CHL1    C2 4113   4.962   3.817   6.331 -0.6698  1.0069 -0.2839
   40CHL1   H2A 4114   5.050   3.794   6.395 -1.2743 -2.8414 -0.5968
   40CHL1   H2B 4115   4.884   3.741   6.350 -0.4572  0.3280 -1.9170
   40CHL1   C20 4116   4.949   3.771   5.373 -0.3557 -0.1274  0.6239
   40CHL1   H20 4117   4.850   3.719   5.378  0.7856 -2.6005 -0.6053
   40CHL1   C21 4118   5.069   3.668   5.405  0.4231  0.3798 -0.1004
   40CHL1  H21A 4119   5.073   3.595   5.321  1.7579 -0.3027  0.5109
   40CHL1  H21B 4120   5.059   3.618   5.504 -0.6215  1.8815  0.5728
   40CHL1  H21C 4121   5.168   3.718   5.402  2.8163 -3.6699  2.2426
   40CHL1   C22 4122   4.965   3.842   5.230 -0.2986 -0.0625 -0.2387
   40CHL1  H22A 4123   4.859   3.857   5.201 -0.0916 -1.6332 -2.0314
   40CHL1  H22B 4124   5.011   3.941   5.249 -0.1847 -0.4215  1.5390
   40CHL1   C23 4125   5.046   3.768   5.123  0.5651  0.2887 -0.2304
   40CHL1  H23A 4126   5.154   3.762   5.152  1.3735  2.7534 -2.3302
   40CHL1  H23B 4127   5.008   3.665   5.106  0.3163  0.5134 -1.1023
   40CHL1   C24 4128   5.040   3.829   4.987  0.7375  0.1820  0.1880
   40CHL1  H24A 4129   4.933   3.840   4.959 -0.0506 -4.6602  0.4639
   40CHL1  H24B 4130   5.079   3.933   4.990 -0.7392  0.7797 -0.4537
   40CHL1   C25 4131   5.097   3.757   4.869  0.1368 -0.1267 -0.1701
   40CHL1   H25 4132   5.081   3.814   4.775 -1.6162  1.1627  0.8697
   40CHL1   C26 4133   5.249   3.727   4.884  0.1219 -0.1197 -0.5626
   40CHL1  H26A 4134   5.286   3.676   4.792 -0.1850  1.3922 -1.5723
   40CHL1  H26B 4135   5.292   3.828   4.902 -3.2746  1.1924  1.0116
   40CHL1  H26C 4136   5.268   3.672   4.978  0.8049  5.6358  3.2149
   40CHL1   C27 4137   5.014   3.632   4.845  0.6469  0.2100 -0.3098
   40CHL1  H27A 4138   4.907   3.660   4.853  0.3306 -1.0254  0.0369
   40CHL1  H27B 4139   5.047   3.580   4.753  3.5485  2.7048 -0.8614
   40CHL1  H27C 4140   5.029   3.562   4.930  1.3806  2.6193  1.6695
   41CHL1    C3 4141   2.790   1.617   6.404  0.2799  0.3327  0.3784
   41CHL1    H3 4142   2.900   1.610   6.387  0.2264 -1.3942  0.6355
   41CHL1    O3 4143   2.774   1.563   6.534  0.3312  0.3992  0.0920
   41CHL1   H3' 4144   2.717   1.623   6.583  0.0631 -0.2751  0.6211
   41CHL1    C4 4145   2.725   1.755   6.393  0.0547  0.3359  0.3212
   41CHL1   H4A 4146   2.617   1.753   6.420 -0.2845  0.9107 -0.9328
   41CHL1   H4B 4147   2.776   1.814   6.472 -0.7090 -0.8175  1.7242
   41CHL1    C5 4148   2.750   1.813   6.259  0.0666 -0.8136  0.4759
   41CHL1    C6 4149   2.825   1.926   6.234 -0.2706  0.4940  0.1957
   41CHL1    H6 4150   2.857   1.989   6.318 -0.4722  0.9981 -0.0996
   41CHL1    C7 4151   2.851   1.981   6.093  0.5118 -0.5833  0.0864
   41CHL1   H7A 4152   2.866   2.090   6.083  1.2553 -0.7581 -0.8971
   41CHL1   H7B 4153   2.955   1.950   6.067  1.0854  1.0105  0.3475
   41CHL1    C8 4154   2.751   1.926   5.994 -0.2020  0.1661  0.1696
   41CHL1    H8 4155   2.648   1.960   6.017 -1.1974 -2.2387 -0.3653
   41CHL1   C14 4156   2.790   1.962   5.860  1.0542  0.1163  1.0236
   41CHL1   H14 4157   2.896   1.930   5.850  1.1065  0.3372  0.8540
   41CHL1   C15 4158   2.798   2.117   5.832 -0.1806  0.2532 -0.1265
   41CHL1  H15A 4159   2.707   2.167   5.871 -0.2585  0.0975 -0.1091
   41CHL1  H15B 4160   2.891   2.161   5.873 -0.4989  2.1601 -1.2909
   41CHL1   C16 4161   2.794   2.117   5.681 -0.6852 -0.4957 -0.1466
   41CHL1  H16A 4162   2.709   2.179   5.646 -1.1398 -2.2625 -2.4374
   41CHL1  H16B 4163   2.889   2.160   5.644 -0.8872 -0.7149 -0.9463
   41CHL1   C17 4164   2.779   1.973   5.625 -0.2666 -0.0126  0.4692
   41CHL1   H17 4165   2.883   1.940   5.602 -0.4509  0.9222 -2.0387
   41CHL1   C13 4166   2.719   1.896   5.741  0.2567 -0.3670  0.5401
   41CHL1   C18 4167   2.575   1.935   5.738  0.2329 -0.1854  0.1885
   41CHL1  H18A 4168   2.528   1.900   5.643  0.6141  1.0413 -0.4773
   41CHL1  H18B 4169   2.521   1.873   5.812 -0.3653 -0.9790 -0.8891
   41CHL1  H18C 4170   2.550   2.043   5.754 -2.8233 -0.3723 -2.2685
   41CHL1   C12 4171   2.743   1.748   5.749  0.5822  0.6305 -0.5130
   41CHL1  H12A 4172   2.689   1.699   5.665  1.5007  0.3805 -0.9733
   41CHL1  H12B 4173   2.853   1.731   5.743  0.4728 -1.0891  1.4675
   41CHL1   C11 4174   2.686   1.695   5.888  0.4650 -0.5833 -0.1288
   41CHL1  H11A 4175   2.575   1.700   5.887  0.5034  0.3795  0.1223
   41CHL1  H11B 4176   2.701   1.585   5.888 -0.2819 -0.6991  1.2443
   41CHL1    C9 4177   2.748   1.773   6.009  0.2303 -0.4883  0.3472
   41CHL1    H9 4178   2.857   1.751   6.007  0.3899  0.2480  0.6323
   41CHL1   C10 4179   2.694   1.724   6.143 -0.7040 -0.1143  0.2090
   41CHL1   C19 4180   2.542   1.737   6.138 -0.0505  0.6708 -1.3615
   41CHL1  H19A 4181   2.505   1.651   6.079  0.9598 -1.0144  0.3523
   41CHL1  H19B 4182   2.506   1.725   6.242 -0.7647 -2.2953 -1.8733
   41CHL1  H19C 4183   2.507   1.832   6.091  1.0441  1.4590 -0.6443
   41CHL1    C1 4184   2.733   1.576   6.148  0.5663  0.7069 -0.3013
   41CHL1   H1A 4185   2.652   1.523   6.095  0.3995  0.6308  0.0235
   41CHL1   H1B 4186   2.835   1.541   6.121 -1.3322 -4.0414 -2.3825
   41CHL1    C2 4187   2.720   1.525   6.299  0.3495  0.1927 -0.1154
   41CHL1   H2A 4188   2.771   1.428   6.315 -0.9342 -0.1119  2.6941
   41CHL1   H2B 4189   2.615   1.495   6.319  1.7627 -4.2754  1.7372
   41CHL1   C20 4190   2.730   1.961   5.482  0.2585 -0.1891  0.1001
   41CHL1   H20 4191   2.628   2.003   5.466  0.5761 -0.0973 -1.9233
   41CHL1   C21 4192   2.724   1.812   5.437  0.0293 -0.1289  0.5838
   41CHL1  H21A 4193   2.711   1.804   5.327  0.1582 -2.1829  0.6915
   41CHL1  H21B 4194   2.638   1.756   5.479 -0.8227  0.3013 -0.5253
   41CHL1  H21C 4195   2.820   1.760   5.456  1.4182  1.7930 -0.6842
   41CHL1   C22 4196   2.819   2.052   5.385  0.8135 -0.1105  0.7506
   41CHL1  H22A 4197   2.820   2.158   5.416 -1.1930  1.0723 -2.6604
   41CHL1  H22B 4198   2.924   2.014   5.381  0.1180 -2.0739 -0.2753
   41CHL1   C23 4199   2.780   2.059   5.231 -0.0283 -0.3573  0.2446
   41CHL1  H23A 4200   2.834   2.145   5.187 -0.5148  0.1052  0.5377
   41CHL1  H23B 4201   2.811   1.961   5.188  1.4669 -0.3918  1.3259
   41CHL1   C24 4202   2.626   2.081   5.222 -0.0594  0.6513  1.5049
   41CHL1  H24A 4203   2.582   1.981   5.243 -0.0846  0.1142 -0.7762
   41CHL1  H24B 4204   2.600   2.150   5.304  1.3815  1.3891  1.3705
   41CHL1   C25 4205   2.575   2.138   5.088 -0.1365 -0.1434  0.6476
   41CHL1   H25 4206   2.642   2.226   5.080 -0.5393 -0.0059 -1.8380
   41CHL1   C26 4207   2.619   2.058   4.968  0.0923 -0.4804  0.3645
   41CHL1  H26A 4208   2.728   2.036   4.971  0.0044 -0.7910  2.1378
   41CHL1  H26B 4209   2.564   1.961   4.964  2.0536 -1.6360 -2.6566
   41CHL1  H26C 4210   2.590   2.109   4.874 -0.9982 -1.0093  0.3999
   41CHL1   C27 4211   2.432   2.188   5.091 -0.7818 -0.4410  1.0707
   41CHL1  H27A 4212   2.362   2.103   5.075  0.1579 -0.7886 -1.6611
   41CHL1  H27B 4213   2.401   2.245   5.181  1.0559  0.6150  1.0762
   41CHL1  H27C 4214   2.411   2.258   5.008 -0.6811 -1.7412 -0.0877
   42CHL1    C3 4215   2.396   4.262   6.385 -0.4245  0.5696  0.1761
   42CHL1    H3 4216   2.458   4.351   6.360 -0.0888  0.1232 -0.6166
   42CHL1    O3 4217   2.392   4.235   6.524 -0.0145 -0.3220 -0.2407
   42CHL1   H3' 4218   2.327   4.165   6.528  0.0559 -0.5947 -2.7257
   42CHL1    C4 4219   2.248   4.287   6.337 -0.9901 -1.0069  0.1391
   42CHL1   H4A 4220   2.181   4.210   6.381 -0.5113 -0.3396  2.1813
   42CHL1   H4B 4221   2.216   4.382   6.385 -0.8842  0.6384 -2.8260
   42CHL1    C5 4222   2.239   4.294   6.185 -0.2828  0.6607 -0.7794
   42CHL1    C6 4223   2.180   4.395   6.120  0.4877 -0.2068 -0.2737
   42CHL1    H6 4224   2.137   4.474   6.183 -0.8600 -0.5909 -0.6727
   42CHL1    C7 4225   2.162   4.409   5.972 -0.7598  0.2368  0.1150
   42CHL1   H7A 4226   2.065   4.455   5.944 -1.4161 -1.3150 -0.2063
   42CHL1   H7B 4227   2.237   4.479   5.928 -3.2225  1.9781 -1.5891
   42CHL1    C8 4228   2.189   4.267   5.906 -0.3037 -0.0056  0.0884
   42CHL1    H8 4229   2.101   4.202   5.923  0.0387  0.0367  2.3101
   42CHL1   C14 4230   2.193   4.289   5.757 -0.2585  0.1025  0.3087
   42CHL1   H14 4231   2.278   4.356   5.732  1.1873 -1.8570 -0.2750
   42CHL1   C15 4232   2.077   4.362   5.687  0.1336  0.6589  0.5169
   42CHL1  H15A 4233   1.981   4.313   5.712  0.8584 -0.4162  1.2230
   42CHL1  H15B 4234   2.073   4.471   5.712 -0.6716  1.0594 -1.1703
   42CHL1   C16 4235   2.112   4.348   5.536 -0.0094 -0.0243 -0.0347
   42CHL1  H16A 4236   2.018   4.330   5.479  0.8072  1.2255 -1.8656
   42CHL1  H16B 4237   2.153   4.449   5.517  0.4572 -0.6347 -2.7469
   42CHL1   C17 4238   2.216   4.226   5.529 -0.0599 -0.1703  0.7562
   42CHL1   H17 4239   2.316   4.266   5.502  0.1928 -1.7829 -0.9268
   42CHL1   C13 4240   2.228   4.167   5.677  0.4779  0.0560  0.1364
   42CHL1   C18 4241   2.120   4.052   5.688  0.3978 -0.0411 -0.6141
   42CHL1  H18A 4242   2.110   4.023   5.794  1.6374 -0.4375 -0.5859
   42CHL1  H18B 4243   2.028   4.089   5.638 -0.7461 -0.2379  1.2749
   42CHL1  H18C 4244   2.148   3.959   5.634  0.5279 -0.5359  0.2978
   42CHL1   C12 4245   2.366   4.121   5.718 -0.2019  0.2878  0.3903
   42CHL1  H12A 4246   2.408   4.036   5.659  2.0256  1.4403  0.1926
   42CHL1  H12B 4247   2.446   4.194   5.695  0.9589 -0.1721  2.6649
   42CHL1   C11 4248   2.367   4.088   5.867  0.0659  0.4586 -0.2820
   42CHL1  H11A 4249   2.315   3.989   5.875 -0.8130  0.8291 -1.1778
   42CHL1  H11B 4250   2.473   4.070   5.893  0.0638  0.5826 -0.1891
   42CHL1    C9 4251   2.316   4.199   5.958 -0.2282 -0.5744 -0.6717
   42CHL1    H9 4252   2.388   4.284   5.956  1.2481 -1.7514  0.4604
   42CHL1   C10 4253   2.312   4.173   6.108  0.0972  0.7580 -0.4320
   42CHL1   C19 4254   2.228   4.047   6.132  0.4886 -1.2123  0.3815
   42CHL1  H19A 4255   2.138   4.051   6.067  2.1071 -1.9599 -2.0459
   42CHL1  H19B 4256   2.289   3.960   6.100  1.7561  0.1695 -1.1299
   42CHL1  H19C 4257   2.188   4.017   6.232 -3.3524 -3.6779 -1.6130
   42CHL1    C1 4258   2.455   4.148   6.162 -0.1547 -0.0933 -0.0049
   42CHL1   H1A 4259   2.493   4.049   6.131  1.6995  0.5485  0.1358
   42CHL1   H1B 4260   2.525   4.232   6.140  1.1298 -0.7128  1.5587
   42CHL1    C2 4261   2.464   4.138   6.316  0.5145 -0.3270 -0.1010
   42CHL1   H2A 4262   2.571   4.118   6.339  1.3433  1.4852 -2.0447
   42CHL1   H2B 4263   2.405   4.048   6.346 -0.9055  0.2681 -1.0312
   42CHL1   C20 4264   2.187   4.130   5.411  0.8271 -0.6965  0.0946
   42CHL1   H20 4265   2.087   4.081   5.415  0.1963  0.6008  0.6255
   42CHL1   C21 4266   2.290   4.012   5.405  0.0429 -0.3968  0.4988
   42CHL1  H21A 4267   2.395   4.048   5.420 -0.5496  2.1887 -1.0441
   42CHL1  H21B 4268   2.269   3.952   5.314  0.0119  0.7580 -0.2734
   42CHL1  H21C 4269   2.274   3.945   5.492  1.0203  0.1874  1.1613
   42CHL1   C22 4270   2.209   4.203   5.278 -0.0522  0.6785 -0.3115
   42CHL1  H22A 4271   2.184   4.311   5.272  0.1197  0.6995 -0.6839
   42CHL1  H22B 4272   2.318   4.205   5.256  0.1307  3.1514  0.5204
   42CHL1   C23 4273   2.140   4.141   5.156  0.2416 -0.4436  0.2418
   42CHL1  H23A 4274   2.156   4.031   5.148 -1.2785 -0.6051 -1.3480
   42CHL1  H23B 4275   2.030   4.146   5.171  0.4001  0.9345  1.0700
   42CHL1   C24 4276   2.182   4.209   5.022 -0.5446  0.0467 -0.2847
   42CHL1  H24A 4277   2.149   4.314   5.037 -0.3355  0.3318 -1.6824
   42CHL1  H24B 4278   2.293   4.206   5.019 -0.3268 -0.8845  3.4275
   42CHL1   C25 4279   2.115   4.162   4.892 -0.0824  0.3273 -0.7987
   42CHL1   H25 4280   2.013   4.126   4.918 -0.9348  1.6213 -2.2039
   42CHL1   C26 4281   2.105   4.277   4.794 -0.6403 -0.6266  0.4305
   42CHL1  H26A 4282   2.057   4.238   4.701  1.5654 -2.0134 -0.1882
   42CHL1  H26B 4283   2.038   4.355   4.837  0.1500 -0.5527  1.5693
   42CHL1  H26C 4284   2.203   4.322   4.768 -1.2315  1.2846  1.3811
   42CHL1   C27 4285   2.184   4.041   4.828 -0.1878  0.2844  0.8512
   42CHL1  H27A 4286   2.134   4.005   4.736  1.6842 -0.1148 -0.0635
   42CHL1  H27B 4287   2.290   4.070   4.809  0.2612 -0.7777  1.6094
   42CHL1  H27C 4288   2.180   3.969   4.913  3.3204  0.2154  1.0957
   43CHL1    C3 4289   4.299   0.669   6.291 -0.4951  0.0189  0.3751
   43CHL1    H3 4290   4.400   0.622   6.281  0.5589  2.2526 -0.2683
   43CHL1    O3 4291   4.310   0.752   6.403  0.1797 -0.3805  0.1249
   43CHL1   H3' 4292   4.225   0.794   6.414  2.0049  3.2466  2.4185
   43CHL1    C4 4293   4.275   0.759   6.165 -1.0113  0.9603 -1.0069
   43CHL1   H4A 4294   4.195   0.828   6.199 -0.2762 -0.2575  3.8476
   43CHL1   H4B 4295   4.363   0.826   6.154  0.0977 -0.3528 -0.3488
   43CHL1    C5 4296   4.255   0.679   6.043  0.1498  0.9220  0.5428
   43CHL1    C6 4297   4.326   0.700   5.932 -0.0360 -0.0642 -0.4860
   43CHL1    H6 4298   4.411   0.769   5.931 -0.5912  0.6953 -2.9654
   43CHL1    C7 4299   4.305   0.635   5.799 -0.3890  0.9192 -0.0361
   43CHL1   H7A 4300   4.289   0.708   5.717 -0.5443  1.5430  0.5442
   43CHL1   H7B 4301   4.389   0.569   5.769 -1.7651 -0.0149 -2.0822
   43CHL1    C8 4302   4.182   0.553   5.796  0.2803  0.0168 -0.9791
   43CHL1    H8 4303   4.089   0.611   5.781  0.4965  1.6865  2.9132
   43CHL1   C14 4304   4.193   0.452   5.679  0.8177 -0.6925 -0.2261
   43CHL1   H14 4305   4.270   0.379   5.710  1.7622 -1.0465 -3.0877
   43CHL1   C15 4306   4.229   0.507   5.542 -0.0335 -0.2960 -0.1383
   43CHL1  H15A 4307   4.166   0.597   5.526  0.3445 -0.0710 -0.3914
   43CHL1  H15B 4308   4.333   0.545   5.532 -0.4565  0.8958 -0.2326
   43CHL1   C16 4309   4.208   0.388   5.449 -0.9882  0.5969 -0.2670
   43CHL1  H16A 4310   4.169   0.434   5.356  1.0056  1.5072 -0.7195
   43CHL1  H16B 4311   4.305   0.345   5.415  0.3532  3.2505 -0.0316
   43CHL1   C17 4312   4.120   0.281   5.522  0.5414 -0.6665 -0.3194
   43CHL1   H17 4313   4.185   0.199   5.557  0.5324 -0.3429  0.4776
   43CHL1   C13 4314   4.074   0.360   5.653 -0.7362 -0.8602 -0.0251
   43CHL1   C18 4315   3.942   0.448   5.619  0.3479 -0.2569  0.8431
   43CHL1  H18A 4316   3.923   0.523   5.699  2.0077  0.4326  0.6380
   43CHL1  H18B 4317   3.965   0.509   5.529  2.2480 -1.6125  0.3612
   43CHL1  H18C 4318   3.858   0.376   5.611  0.2827 -0.1470  0.5011
   43CHL1   C12 4319   4.049   0.284   5.790 -0.2363  0.0271  0.6400
   43CHL1  H12A 4320   3.958   0.221   5.779 -0.7294  0.6159  1.2612
   43CHL1  H12B 4321   4.133   0.213   5.806 -0.6537 -0.4810  0.5994
   43CHL1   C11 4322   4.035   0.377   5.910  0.7677 -0.1385 -0.7076
   43CHL1  H11A 4323   3.948   0.445   5.901  1.8282  1.2415 -0.9067
   43CHL1  H11B 4324   4.015   0.314   6.000 -0.2206  0.5739 -0.4120
   43CHL1    C9 4325   4.162   0.480   5.929  0.7014 -0.1006  0.2152
   43CHL1    H9 4326   4.247   0.412   5.952 -0.0600 -0.6012  1.6633
   43CHL1   C10 4327   4.153   0.570   6.053  0.2670  0.4152  0.2426
   43CHL1   C19 4328   4.009   0.639   6.056 -0.2524 -0.3298 -0.1148
   43CHL1  H19A 4329   4.000   0.717   6.134  1.6449 -1.4650  1.3489
   43CHL1  H19B 4330   3.995   0.680   5.954  0.4229  0.9809  0.2994
   43CHL1  H19C 4331   3.941   0.556   6.088 -0.2739 -0.3565 -0.2297
   43CHL1    C1 4332   4.176   0.480   6.184  0.1697 -0.1066 -0.5956
   43CHL1   H1A 4333   4.082   0.423   6.198 -0.3505  1.1439  1.2632
   43CHL1   H1B 4334   4.255   0.405   6.160 -1.5705 -1.2998 -2.9923
   43CHL1    C2 4335   4.196   0.566   6.313 -0.8268  0.1711 -0.0323
   43CHL1   H2A 4336   4.232   0.503   6.397 -0.9954 -0.6691 -0.5819
   43CHL1   H2B 4337   4.095   0.609   6.330  0.0058  3.3643 -2.1654
   43CHL1   C20 4338   4.003   0.222   5.446 -0.0030 -0.8174  0.4710
   43CHL1   H20 4339   3.936   0.304   5.415 -3.5157 -2.9811  1.7323
   43CHL1   C21 4340   3.920   0.118   5.531 -0.0447  0.5285 -0.8590
   43CHL1  H21A 4341   3.850   0.180   5.592 -1.0692  3.0543 -4.2834
   43CHL1  H21B 4342   3.988   0.075   5.608 -0.5363  1.1282 -0.0760
   43CHL1  H21C 4343   3.869   0.043   5.468  1.8996 -1.4552 -0.2197
   43CHL1   C22 4344   4.065   0.161   5.319  0.3613  0.9556  0.3818
   43CHL1  H22A 4345   4.124   0.244   5.274  0.2679  1.1214  0.5685
   43CHL1  H22B 4346   4.131   0.077   5.349 -1.8377 -1.2897 -0.6935
   43CHL1   C23 4347   3.967   0.107   5.215  0.7704 -0.1847 -0.0259
   43CHL1  H23A 4348   3.931   0.007   5.246 -0.7216  0.5506  0.7615
   43CHL1  H23B 4349   3.875   0.170   5.218  0.7668 -0.1876 -0.0730
   43CHL1   C24 4350   4.021   0.111   5.068 -0.1140 -0.3382  0.1881
   43CHL1  H24A 4351   4.034   0.221   5.051 -2.8691  0.1538  0.7445
   43CHL1  H24B 4352   4.117   0.056   5.062 -0.2344 -0.3917 -2.1101
   43CHL1   C25 4353   3.912   0.076   4.964 -0.6119 -0.1291  0.0141
   43CHL1   H25 4354   3.828   0.148   4.963 -0.2741  0.2878  0.5683
   43CHL1   C26 4355   3.976   0.079   4.829  0.5102 -0.3667  0.1349
   43CHL1  H26A 4356   4.078   0.034   4.831  1.4198  1.5151 -1.1016
   43CHL1  H26B 4357   3.909   0.019   4.764 -2.1052  2.1757  0.2890
   43CHL1  H26C 4358   3.969   0.172   4.769 -3.1145 -2.3010 -2.9003
   43CHL1   C27 4359   3.864  -0.067   4.995  0.1325 -0.1942  0.1396
   43CHL1  H27A 4360   3.944  -0.144   4.990  0.8766  0.4534  1.5691
   43CHL1  H27B 4361   3.808  -0.080   5.091 -2.1570 -1.3605 -1.2464
   43CHL1  H27C 4362   3.777  -0.088   4.929 -0.4970  1.0802  0.5331
   44CHL1    C3 4363   4.751   3.192   6.015 -0.5004 -0.0876 -1.0368
   44CHL1    H3 4364   4.669   3.121   5.991 -2.0675  2.2024 -2.9033
   44CHL1    O3 4365   4.776   3.206   6.158 -0.0803  0.1061 -0.1552
   44CHL1   H3' 4366   4.845   3.270   6.179  0.9594 -1.0242 -0.0213
   44CHL1    C4 4367   4.885   3.146   5.950 -0.4723  0.1724  0.1147
   44CHL1   H4A 4368   4.960   3.221   5.981 -0.5095  0.7700 -1.1890
   44CHL1   H4B 4369   4.906   3.047   5.996  1.5206  0.3727 -0.2468
   44CHL1    C5 4370   4.872   3.135   5.804 -0.0706  0.5299  0.2651
   44CHL1    C6 4371   4.913   3.032   5.731 -0.0112 -0.4002  0.4994
   44CHL1    H6 4372   4.967   2.946   5.774  1.5628  0.0684 -0.4677
   44CHL1    C7 4373   4.911   3.026   5.578 -0.2360  1.0409  0.0183
   44CHL1   H7A 4374   5.015   2.993   5.556  0.4710  0.8856  3.1031
   44CHL1   H7B 4375   4.835   2.951   5.548  0.3770  0.1053  0.7331
   44CHL1    C8 4376   4.886   3.157   5.512  0.9701 -0.4583 -0.8762
   44CHL1    H8 4377   4.980   3.217   5.507  2.1233 -2.1199 -0.0617
   44CHL1   C14 4378   4.831   3.136   5.367 -0.0186 -0.2606 -0.1499
   44CHL1   H14 4379   4.735   3.082   5.376  0.2276 -0.8948 -1.1924
   44CHL1   C15 4380   4.911   3.047   5.278  0.0548  0.6595  0.7926
   44CHL1  H15A 4381   5.021   3.055   5.294 -0.2822  1.9895  2.9328
   44CHL1  H15B 4382   4.883   2.940   5.289 -1.0991  0.9289  0.5297
   44CHL1   C16 4383   4.881   3.093   5.132  0.5343  0.7232 -0.2318
   44CHL1  H16A 4384   4.972   3.136   5.086  1.0075  0.3983  0.3799
   44CHL1  H16B 4385   4.848   3.012   5.064 -0.1232  2.1027 -1.6086
   44CHL1   C17 4386   4.782   3.207   5.145 -1.1695  0.8935 -1.0036
   44CHL1   H17 4387   4.688   3.148   5.151 -1.1873  0.9788 -0.3778
   44CHL1   C13 4388   4.805   3.266   5.292  0.2893  0.5659  0.1744
   44CHL1   C18 4389   4.920   3.365   5.289  0.7467  0.2372  0.5930
   44CHL1  H18A 4390   4.890   3.457   5.234 -0.9796 -0.4807  0.2591
   44CHL1  H18B 4391   4.939   3.399   5.393 -0.1254 -0.2951  0.9305
   44CHL1  H18C 4392   5.011   3.328   5.235 -0.1255 -0.6638 -0.3070
   44CHL1   C12 4393   4.684   3.335   5.361  0.2238  0.4892  0.4428
   44CHL1  H12A 4394   4.659   3.424   5.301 -2.1399  0.8922  1.8995
   44CHL1  H12B 4395   4.596   3.270   5.347 -0.5943  1.6136  0.2763
   44CHL1   C11 4396   4.721   3.365   5.509 -1.0719 -0.1475 -0.0715
   44CHL1  H11A 4397   4.792   3.451   5.507 -1.5107  0.2134 -1.7164
   44CHL1  H11B 4398   4.634   3.419   5.552 -1.8012  0.1345 -1.8151
   44CHL1    C9 4399   4.773   3.242   5.582 -0.0554 -0.3656  0.5605
   44CHL1    H9 4400   4.686   3.173   5.584 -1.2937  1.0645 -0.9875
   44CHL1   C10 4401   4.809   3.262   5.739 -0.1440  0.2711 -0.2810
   44CHL1   C19 4402   4.929   3.368   5.735  0.2149  0.0105  1.4102
   44CHL1  H19A 4403   5.005   3.324   5.667 -0.1150 -2.0094  2.2808
   44CHL1  H19B 4404   4.890   3.465   5.698 -0.6655 -1.0765 -0.6907
   44CHL1  H19C 4405   4.975   3.389   5.834 -0.4692  0.4811  1.6343
   44CHL1    C1 4406   4.690   3.318   5.812 -1.1305  0.0992 -0.1273
   44CHL1   H1A 4407   4.650   3.415   5.776  1.4393  1.7917  1.2233
   44CHL1   H1B 4408   4.608   3.245   5.795 -1.5301  0.6345 -0.5010
   44CHL1    C2 4409   4.723   3.328   5.964 -0.2935  0.8106 -0.5972
   44CHL1   H2A 4410   4.628   3.368   6.006 -0.7290  1.3138 -2.0223
   44CHL1   H2B 4411   4.806   3.400   5.976  1.7809 -0.5511 -4.9499
   44CHL1   C20 4412   4.774   3.288   5.019  0.3245 -0.0617  0.2220
   44CHL1   H20 4413   4.874   3.335   5.008  0.2024  0.7358  2.0821
   44CHL1   C21 4414   4.670   3.401   5.018  1.0398  0.2072 -0.4212
   44CHL1  H21A 4415   4.573   3.362   5.056  2.1781 -2.0667  0.3548
   44CHL1  H21B 4416   4.635   3.440   4.921  0.6676 -1.0203 -0.7918
   44CHL1  H21C 4417   4.708   3.476   5.092 -1.5860 -0.0955  1.3553
   44CHL1   C22 4418   4.739   3.200   4.896 -0.3243 -0.0922 -1.7531
   44CHL1  H22A 4419   4.779   3.097   4.908 -2.8097 -0.8382  1.5223
   44CHL1  H22B 4420   4.630   3.180   4.890 -0.3781  0.1482 -1.5773
   44CHL1   C23 4421   4.792   3.257   4.764  0.0876 -0.1858 -0.1045
   44CHL1  H23A 4422   4.791   3.368   4.760  0.1833 -0.2106 -0.9328
   44CHL1  H23B 4423   4.896   3.222   4.750  0.9307 -0.0434  4.2262
   44CHL1   C24 4424   4.704   3.191   4.648  0.6642 -0.1135  0.0626
   44CHL1  H24A 4425   4.715   3.080   4.644 -2.5542 -0.5211 -3.9741
   44CHL1  H24B 4426   4.600   3.210   4.681  0.5133 -1.3857  0.3942
   44CHL1   C25 4427   4.734   3.245   4.508 -0.8344  0.3123 -0.8782
   44CHL1   H25 4428   4.737   3.356   4.513  1.3141  0.2604  0.6054
   44CHL1   C26 4429   4.878   3.205   4.468 -0.0271 -0.0659  0.4909
   44CHL1  H26A 4430   4.907   3.115   4.526  0.2249  1.1006  2.2726
   44CHL1  H26B 4431   4.896   3.174   4.363  1.4319 -0.4250  0.8163
   44CHL1  H26C 4432   4.951   3.287   4.490  2.9839 -2.5823  0.6330
   44CHL1   C27 4433   4.628   3.208   4.405  0.4225  0.2941 -0.1458
   44CHL1  H27A 4434   4.626   3.098   4.391 -0.9596  0.2479  0.2522
   44CHL1  H27B 4435   4.529   3.243   4.439  1.0382  1.3324  0.6375
   44CHL1  H27C 4436   4.660   3.262   4.313 -0.1809 -1.0996 -1.2111
   45CHL1    C3 4437   4.349   2.427   6.171 -0.4912  0.2594 -0.4366
   45CHL1    H3 4438   4.450   2.449   6.130 -0.3550 -2.5684 -1.8390
   45CHL1    O3 4439   4.339   2.434   6.313 -0.7038  0.3389 -1.1850
   45CHL1   H3' 4440   4.253   2.468   6.337 -0.5111  0.3423 -0.4551
   45CHL1    C4 4441   4.258   2.540   6.118 -0.3373  0.4833  0.5202
   45CHL1   H4A 4442   4.164   2.540   6.177 -0.1487  2.8001  0.9180
   45CHL1   H4B 4443   4.311   2.636   6.138 -1.1651  1.4228 -1.4873
   45CHL1    C5 4444   4.236   2.530   5.968 -0.9183 -0.5497 -0.0192
   45CHL1    C6 4445   4.249   2.637   5.891  0.0744  0.1098  0.6724
   45CHL1    H6 4446   4.272   2.736   5.934  2.4002 -0.9793  2.1776
   45CHL1    C7 4447   4.232   2.638   5.740 -0.6114 -0.3108 -0.5299
   45CHL1   H7A 4448   4.166   2.722   5.710 -0.4859 -0.4497 -1.2354
   45CHL1   H7B 4449   4.327   2.660   5.687  0.2078 -1.4621  0.4145
   45CHL1    C8 4450   4.169   2.510   5.679 -0.4649 -0.7957 -0.1855
   45CHL1    H8 4451   4.059   2.515   5.696 -0.5916  0.0948 -1.1807
   45CHL1   C14 4452   4.203   2.503   5.533 -0.1735 -0.0419  0.3990
   45CHL1   H14 4453   4.310   2.474   5.526 -0.2449 -0.3712  0.6510
   45CHL1   C15 4454   4.187   2.621   5.448  0.4762  1.1910  0.4654
   45CHL1  H15A 4455   4.083   2.650   5.422  0.2697 -1.0403 -1.5588
   45CHL1  H15B 4456   4.237   2.714   5.483  1.1573  0.7612  0.6617
   45CHL1   C16 4457   4.245   2.558   5.317 -0.4678 -0.0405 -0.0982
   45CHL1  H16A 4458   4.225   2.617   5.225 -1.0651 -0.1771 -0.0595
   45CHL1  H16B 4459   4.356   2.554   5.324 -0.5246 -0.5163  0.5525
   45CHL1   C17 4460   4.188   2.409   5.312 -0.1956 -0.4782 -0.4026
   45CHL1   H17 4461   4.278   2.344   5.312 -1.0099 -1.7758  2.2422
   45CHL1   C13 4462   4.129   2.393   5.459 -0.1305  0.4206 -0.0300
   45CHL1   C18 4463   3.979   2.408   5.454  0.4355 -0.7867 -0.0680
   45CHL1  H18A 4464   3.934   2.318   5.407 -1.5902 -0.1258  0.5122
   45CHL1  H18B 4465   3.926   2.416   5.552 -1.6687  1.5404 -1.2596
   45CHL1  H18C 4466   3.950   2.500   5.399  2.0812  1.2678  2.2588
   45CHL1   C12 4467   4.166   2.261   5.523  0.6524  0.2223  0.4602
   45CHL1  H12A 4468   4.111   2.174   5.482  1.2064  0.4896 -0.9154
   45CHL1  H12B 4469   4.275   2.249   5.504  0.4582 -0.2853 -0.3679
   45CHL1   C11 4470   4.147   2.265   5.677  0.3261 -0.5768 -0.2817
   45CHL1  H11A 4471   4.039   2.261   5.702  0.7905 -0.5428  1.9780
   45CHL1  H11B 4472   4.188   2.168   5.713  1.0452  0.2424  1.2336
   45CHL1    C9 4473   4.219   2.382   5.750 -0.0466 -0.3090  0.0601
   45CHL1    H9 4474   4.329   2.377   5.733  0.4244  2.5307  1.5659
   45CHL1   C10 4475   4.204   2.393   5.911  0.5050 -0.0372 -0.1352
   45CHL1   C19 4476   4.051   2.356   5.948  1.0064 -0.3075  0.2701
   45CHL1  H19A 4477   3.978   2.427   5.903  1.3544 -0.1743 -0.0826
   45CHL1  H19B 4478   4.004   2.261   5.915  2.6619 -1.7407  1.8651
   45CHL1  H19C 4479   4.044   2.367   6.058 -0.0903 -0.2736  0.2117
   45CHL1    C1 4480   4.298   2.284   5.965 -0.8263 -0.7875 -0.0938
   45CHL1   H1A 4481   4.261   2.183   5.935 -1.2803 -0.6220 -0.1016
   45CHL1   H1B 4482   4.397   2.297   5.917 -1.3947 -1.2024 -1.4361
   45CHL1    C2 4483   4.310   2.286   6.120 -0.0359 -0.5634  0.5272
   45CHL1   H2A 4484   4.391   2.216   6.149 -0.0080 -0.5741  0.4237
   45CHL1   H2B 4485   4.230   2.237   6.180  0.1570 -2.8118 -0.9293
   45CHL1   C20 4486   4.096   2.369   5.187  0.4857  0.4741 -0.7859
   45CHL1   H20 4487   3.996   2.415   5.199 -1.1449 -2.8788 -0.5542
   45CHL1   C21 4488   4.074   2.214   5.192 -0.0826  0.5370  0.3561
   45CHL1  H21A 4489   4.016   2.173   5.107  0.5292 -2.7856  1.3830
   45CHL1  H21B 4490   4.019   2.173   5.279  2.3259 -0.7618  1.3827
   45CHL1  H21C 4491   4.172   2.161   5.197 -0.7479 -0.9646 -1.3325
   45CHL1   C22 4492   4.156   2.420   5.049  0.2775 -0.1117 -1.2017
   45CHL1  H22A 4493   4.117   2.348   4.974  1.8008 -0.6612 -1.5115
   45CHL1  H22B 4494   4.129   2.524   5.022 -2.4429 -0.6996 -1.0344
   45CHL1   C23 4495   4.299   2.380   5.025 -0.3874  0.5497 -0.0360
   45CHL1  H23A 4496   4.372   2.427   5.095  0.5206  0.2497 -0.7529
   45CHL1  H23B 4497   4.308   2.275   5.058 -0.1396  1.2324  2.2058
   45CHL1   C24 4498   4.340   2.398   4.884  0.3731  0.0082  0.0540
   45CHL1  H24A 4499   4.260   2.380   4.809  3.3899 -3.9434 -2.6175
   45CHL1  H24B 4500   4.346   2.508   4.871 -0.5363 -0.1151 -1.6558
   45CHL1   C25 4501   4.476   2.341   4.842  0.2091  0.9423 -0.0781
   45CHL1   H25 4502   4.478   2.232   4.863 -0.7154  0.7853 -0.7593
   45CHL1   C26 4503   4.490   2.354   4.693 -0.5071  0.5381  0.2155
   45CHL1  H26A 4504   4.598   2.346   4.671 -0.5183 -0.6769  0.5432
   45CHL1  H26B 4505   4.443   2.270   4.637  0.1506  0.6035 -0.4423
   45CHL1  H26C 4506   4.446   2.451   4.660 -4.7094 -0.2713  2.6136
   45CHL1   C27 4507   4.588   2.403   4.921  0.3189  0.1601  0.0687
   45CHL1  H27A 4508   4.579   2.357   5.022  0.5729  0.4375  0.2195
   45CHL1  H27B 4509   4.683   2.398   4.863 -1.2689 -0.7516 -2.6119
   45CHL1  H27C 4510   4.581   2.513   4.928 -1.6915  0.0766 -0.1746
   46CHL1    C3 4511   3.678   3.889   6.332 -0.3005  0.0755  0.5495
   46CHL1    H3 4512   3.787   3.896   6.351 -0.3278  1.1700  0.3680
   46CHL1    O3 4513   3.605   3.879   6.453  0.1298  0.5608 -0.0538
   46CHL1   H3' 4514   3.512   3.871   6.430 -0.2548  1.9860  0.8423
   46CHL1    C4 4515   3.639   4.017   6.254  0.1522  0.1647 -0.1160
   46CHL1   H4A 4516   3.530   3.998   6.239  0.3803 -0.7746 -0.6991
   46CHL1   H4B 4517   3.640   4.114   6.308 -0.8516  0.4034 -0.4925
   46CHL1    C5 4518   3.693   4.015   6.110  0.2712  0.6436  0.1557
   46CHL1    C6 4519   3.767   4.113   6.064 -0.0787 -0.2215  0.1328
   46CHL1    H6 4520   3.790   4.194   6.134 -0.7403  0.2736 -0.2188
   46CHL1    C7 4521   3.819   4.126   5.924  0.5746 -0.2664  0.4860
   46CHL1   H7A 4522   3.812   4.230   5.886 -0.8101 -0.3655  0.4222
   46CHL1   H7B 4523   3.924   4.090   5.925  0.6589 -0.0260  0.3657
   46CHL1    C8 4524   3.735   4.035   5.834  0.3717  0.5542 -0.0946
   46CHL1    H8 4525   3.632   4.077   5.830  0.6247  1.1857 -0.0882
   46CHL1   C14 4526   3.797   4.041   5.693  0.4006  0.2958 -0.1644
   46CHL1   H14 4527   3.906   4.022   5.705  0.0030 -0.8758  2.3839
   46CHL1   C15 4528   3.789   4.176   5.628  0.7580 -0.3001 -0.0281
   46CHL1  H15A 4529   3.687   4.219   5.633  0.1164 -0.9390 -4.0673
   46CHL1  H15B 4530   3.855   4.248   5.681 -0.5231  0.0086  1.2002
   46CHL1   C16 4531   3.826   4.145   5.481  0.2722 -0.2813 -0.2217
   46CHL1  H16A 4532   3.762   4.183   5.398  0.2680 -0.7552 -0.4349
   46CHL1  H16B 4533   3.929   4.180   5.459  0.4910 -0.8027 -0.0405
   46CHL1   C17 4534   3.823   3.988   5.465 -0.6347 -0.0497 -0.6230
   46CHL1   H17 4535   3.929   3.957   5.478 -1.3811 -2.4871  0.2545
   46CHL1   C13 4536   3.747   3.936   5.595 -0.3340 -0.5184  1.0361
   46CHL1   C18 4537   3.589   3.955   5.572  0.0008 -0.0983 -0.2764
   46CHL1  H18A 4538   3.570   4.050   5.518  3.4713 -0.9267 -3.3770
   46CHL1  H18B 4539   3.547   3.870   5.514 -0.2112 -0.8188  0.9114
   46CHL1  H18C 4540   3.538   3.952   5.671 -1.3801  3.5800 -0.7057
   46CHL1   C12 4541   3.782   3.798   5.660  0.3287 -0.3639 -0.6499
   46CHL1  H12A 4542   3.752   3.715   5.593  0.0729 -1.3266  0.6052
   46CHL1  H12B 4543   3.890   3.798   5.685  0.1359 -0.3381  0.2209
   46CHL1   C11 4544   3.714   3.782   5.795  0.3330  0.0405  0.7287
   46CHL1  H11A 4545   3.604   3.785   5.774  0.8771  0.6051 -2.5640
   46CHL1  H11B 4546   3.741   3.680   5.830 -0.5213 -0.5629 -0.3032
   46CHL1    C9 4547   3.744   3.891   5.891  0.8721 -0.3265 -0.2693
   46CHL1    H9 4548   3.848   3.879   5.928  0.0544  0.1447  2.4497
   46CHL1   C10 4549   3.669   3.886   6.027  0.8266  0.1540 -0.6492
   46CHL1   C19 4550   3.512   3.862   5.995 -0.3361 -0.5672  0.3080
   46CHL1  H19A 4551   3.479   3.940   5.923 -0.0419 -1.2473 -0.5709
   46CHL1  H19B 4552   3.501   3.759   5.957  0.6565 -0.1011 -1.3521
   46CHL1  H19C 4553   3.454   3.869   6.090  0.4750 -1.8540  0.9357
   46CHL1    C1 4554   3.707   3.767   6.112  0.0900 -0.7590 -0.1512
   46CHL1   H1A 4555   3.672   3.673   6.064  1.3171 -1.2398 -0.1510
   46CHL1   H1B 4556   3.818   3.755   6.119 -0.0607 -2.3927 -0.1043
   46CHL1    C2 4557   3.647   3.755   6.255 -0.9929 -0.2211 -0.4014
   46CHL1   H2A 4558   3.687   3.669   6.312  0.7152  0.6598 -0.2250
   46CHL1   H2B 4559   3.536   3.754   6.250 -1.0293  1.7438 -0.8573
   46CHL1   C20 4560   3.773   3.940   5.331 -0.4634  0.1594 -0.0930
   46CHL1   H20 4561   3.675   3.985   5.305 -1.4017 -1.2711  0.8122
   46CHL1   C21 4562   3.763   3.785   5.347  0.1827  0.2273 -0.1964
   46CHL1  H21A 4563   3.860   3.738   5.371 -0.1021 -0.5364 -0.4877
   46CHL1  H21B 4564   3.726   3.749   5.248 -1.1684  1.7551 -0.3046
   46CHL1  H21C 4565   3.686   3.739   5.412  1.5406  0.1040  1.3842
   46CHL1   C22 4566   3.867   3.975   5.213 -0.4183 -0.2449  0.2972
   46CHL1  H22A 4567   3.878   4.085   5.224  0.2687 -0.2600 -0.1597
   46CHL1  H22B 4568   3.972   3.943   5.224  0.0807  1.6557  1.6929
   46CHL1   C23 4569   3.808   3.947   5.068  0.2288  0.1568 -0.6942
   46CHL1  H23A 4570   3.767   3.844   5.065 -0.1446  0.2402  0.9496
   46CHL1  H23B 4571   3.719   4.013   5.059 -1.1351 -1.5391 -0.1538
   46CHL1   C24 4572   3.897   3.981   4.948 -0.0289  0.3375 -0.0434
   46CHL1  H24A 4573   3.918   4.089   4.964  2.3076 -0.1988  0.9285
   46CHL1  H24B 4574   3.996   3.934   4.970  0.5632  1.1689 -0.8688
   46CHL1   C25 4575   3.831   3.947   4.813  0.8329  0.4836 -0.8257
   46CHL1   H25 4576   3.800   3.840   4.805  0.2880  0.7052 -1.8465
   46CHL1   C26 4577   3.712   4.041   4.780 -0.1862  0.4767 -0.0891
   46CHL1  H26A 4578   3.756   4.141   4.756  1.1674 -0.4288 -1.5605
   46CHL1  H26B 4579   3.655   4.011   4.690 -0.8326 -2.1092  1.0689
   46CHL1  H26C 4580   3.649   4.056   4.871 -2.2325 -0.3430 -1.3178
   46CHL1   C27 4581   3.937   3.952   4.711  0.2591  0.4731  0.3700
   46CHL1  H27A 4582   4.007   3.866   4.717 -1.1868 -0.7787 -0.0403
   46CHL1  H27B 4583   3.891   3.955   4.610  0.8302  0.1416  0.0914
   46CHL1  H27C 4584   3.993   4.047   4.725  3.5432 -0.8789 -2.0899
   47CHL1    C3 4585   6.570   3.452   6.116  0.4557  0.5237  0.0548
   47CHL1    H3 4586   6.553   3.343   6.103 -0.9388  0.1711  3.6146
   47CHL1    O3 4587   6.586   3.460   6.254 -0.2342 -0.3440  0.6357
   47CHL1   H3' 4588   6.645   3.532   6.278  0.0064 -0.9175  1.8282
   47CHL1    C4 4589   6.699   3.499   6.050 -0.3923 -0.2436 -0.3851
   47CHL1   H4A 4590   6.706   3.606   6.078 -3.2964  0.2663 -1.3041
   47CHL1   H4B 4591   6.792   3.446   6.080 -0.6854 -0.8895 -0.5897
   47CHL1    C5 4592   6.680   3.481   5.897 -0.1771 -0.3022  0.3519
   47CHL1    C6 4593   6.761   3.405   5.823  0.1783  0.9973 -0.7627
   47CHL1    H6 4594   6.842   3.362   5.884 -0.3678  3.2775  1.7822
   47CHL1    C7 4595   6.754   3.388   5.676  0.1672  0.2361  0.3027
   47CHL1   H7A 4596   6.858   3.378   5.640  0.2703  0.6503  0.4845
   47CHL1   H7B 4597   6.712   3.288   5.652 -1.2929 -0.1846  4.0014
   47CHL1    C8 4598   6.655   3.494   5.614 -0.0334 -0.6431 -0.1216
   47CHL1    H8 4599   6.710   3.588   5.594 -1.9598  0.9735  1.7618
   47CHL1   C14 4600   6.612   3.437   5.480 -0.2103 -0.0957 -0.3261
   47CHL1   H14 4601   6.559   3.342   5.504  0.1318 -0.0234  0.7761
   47CHL1   C15 4602   6.725   3.410   5.379  0.4326  0.2722 -0.2229
   47CHL1  H15A 4603   6.800   3.492   5.381 -0.2607  0.9197 -0.3263
   47CHL1  H15B 4604   6.768   3.310   5.403 -0.0677 -0.0775 -0.7635
   47CHL1   C16 4605   6.648   3.410   5.242  0.6497 -0.1346 -0.2482
   47CHL1  H16A 4606   6.684   3.498   5.185 -0.6840  0.9334  0.4910
   47CHL1  H16B 4607   6.663   3.323   5.174 -1.8443 -0.4943 -0.4557
   47CHL1   C17 4608   6.497   3.434   5.270  0.7309 -0.5356 -0.5854
   47CHL1   H17 4609   6.462   3.335   5.306  0.1494  0.4067  1.6601
   47CHL1   C13 4610   6.502   3.518   5.402 -1.7833 -0.5715 -0.2620
   47CHL1   C18 4611   6.568   3.662   5.376 -0.3278 -0.3087 -0.5983
   47CHL1  H18A 4612   6.482   3.728   5.351  0.3473  0.0465 -2.0686
   47CHL1  H18B 4613   6.636   3.693   5.458  0.1019 -3.6768  0.4575
   47CHL1  H18C 4614   6.628   3.668   5.283  0.6976 -2.7847 -0.1652
   47CHL1   C12 4615   6.383   3.542   5.482 -0.5025  1.0127 -0.8596
   47CHL1  H12A 4616   6.318   3.617   5.432 -1.9717 -0.0467 -0.6408
   47CHL1  H12B 4617   6.328   3.447   5.500  1.2379  0.0368 -0.4169
   47CHL1   C11 4618   6.427   3.605   5.620  0.1433  0.1599 -0.3300
   47CHL1  H11A 4619   6.444   3.714   5.611 -1.1232  0.3396 -0.6849
   47CHL1  H11B 4620   6.333   3.612   5.678 -1.1219 -0.5566 -2.2027
   47CHL1    C9 4621   6.532   3.517   5.696 -0.5645 -0.3746 -0.2235
   47CHL1    H9 4622   6.484   3.418   5.710 -0.0075 -0.7265 -0.7537
   47CHL1   C10 4623   6.562   3.565   5.838  0.1897  0.1710  0.2050
   47CHL1   C19 4624   6.590   3.716   5.847 -0.1956  0.5185  0.2059
   47CHL1  H19A 4625   6.640   3.747   5.942 -0.8450  1.7411  0.1667
   47CHL1  H19B 4626   6.651   3.748   5.760 -0.8533 -0.1574 -0.5107
   47CHL1  H19C 4627   6.494   3.771   5.839 -1.1092 -0.7866  1.6401
   47CHL1    C1 4628   6.430   3.530   5.920  0.6764  0.1769 -0.0772
   47CHL1   H1A 4629   6.350   3.600   5.891  0.0306 -0.6445 -0.3318
   47CHL1   H1B 4630   6.403   3.423   5.908  0.0287  0.4138 -0.7294
   47CHL1    C2 4631   6.453   3.545   6.071 -0.1976  0.1258 -0.0013
   47CHL1   H2A 4632   6.355   3.523   6.119  0.5654  0.1603  1.6669
   47CHL1   H2B 4633   6.488   3.649   6.092 -0.1158  0.2235 -0.6134
   47CHL1   C20 4634   6.426   3.474   5.144 -0.2239  0.0648  0.2687
   47CHL1   H20 4635   6.453   3.581   5.133 -1.2459  0.2584 -0.4508
   47CHL1   C21 4636   6.280   3.473   5.169  0.5845 -0.4651  0.1155
   47CHL1  H21A 4637   6.253   3.563   5.229  1.7818  0.5780 -0.8669
   47CHL1  H21B 4638   6.242   3.379   5.215  0.7251 -0.4288  0.3073
   47CHL1  H21C 4639   6.225   3.492   5.074  0.0103  1.5790  0.7841
   47CHL1   C22 4640   6.465   3.398   5.020  0.1318  1.1494 -0.7129
   47CHL1  H22A 4641   6.419   3.443   4.929 -1.4829 -1.3088 -1.2126
   47CHL1  H22B 4642   6.574   3.403   4.997  0.7550  1.1275  1.9257
   47CHL1   C23 4643   6.428   3.248   5.011  0.4273  0.3049 -0.0252
   47CHL1  H23A 4644   6.473   3.207   5.104 -1.7956 -4.0405 -0.6051
   47CHL1  H23B 4645   6.317   3.241   5.006  0.1866  1.6471  2.1222
   47CHL1   C24 4646   6.490   3.183   4.880 -0.1988 -0.1561  0.8025
   47CHL1  H24A 4647   6.458   3.231   4.784  1.0576  0.1638  0.5288
   47CHL1  H24B 4648   6.599   3.200   4.894 -0.2410  0.7821  0.1475
   47CHL1   C25 4649   6.474   3.032   4.867  0.7345 -0.4667 -0.2053
   47CHL1   H25 4650   6.504   2.980   4.960 -0.4040 -1.0632 -0.1448
   47CHL1   C26 4651   6.325   2.997   4.845 -0.1752  0.2729  0.3664
   47CHL1  H26A 4652   6.288   3.022   4.743 -2.6883  0.0590  1.1715
   47CHL1  H26B 4653   6.298   2.889   4.844  1.7364 -0.2497 -0.7365
   47CHL1  H26C 4654   6.261   3.057   4.912  0.7154  1.0537  0.5373
   47CHL1   C27 4655   6.547   2.960   4.752  0.2549 -0.4290 -0.2915
   47CHL1  H27A 4656   6.650   2.999   4.735  0.4668 -0.2968  1.1102
   47CHL1  H27B 4657   6.545   2.851   4.775  1.8540 -0.5664 -0.6831
   47CHL1  H27C 4658   6.500   2.977   4.653  0.4183  0.0960 -0.2847
   48CHL1    C3 4659   2.774   4.771   6.588  0.2216  0.4995 -0.2540
   48CHL1    H3 4660   2.865   4.735   6.536  0.0692  0.0459 -0.2147
   48CHL1    O3 4661   2.769   4.730   6.723  0.2065  0.1179 -0.4252
   48CHL1   H3' 4662   2.680   4.697   6.737 -1.6604  3.6559 -2.6148
   48CHL1    C4 4663   2.772   4.922   6.575 -0.7983  0.0607  0.6204
   48CHL1   H4A 4664   2.683   4.969   6.622 -1.0521  1.4497 -1.1415
   48CHL1   H4B 4665   2.861   4.953   6.633  0.8348  0.6742 -2.0445
   48CHL1    C5 4666   2.784   4.971   6.429 -0.4358  0.2580 -0.0914
   48CHL1    C6 4667   2.882   5.043   6.388 -0.6867  0.5439  0.1256
   48CHL1    H6 4668   2.961   5.078   6.457  0.5380  0.0633 -1.0007
   48CHL1    C7 4669   2.893   5.095   6.249 -0.4668 -0.3320 -0.5257
   48CHL1   H7A 4670   2.923   5.202   6.254 -0.2798 -0.3963 -0.2418
   48CHL1   H7B 4671   2.980   5.042   6.204 -0.0970 -0.9447  0.8711
   48CHL1    C8 4672   2.763   5.077   6.167  0.3780  0.5424 -0.2757
   48CHL1    H8 4673   2.690   5.158   6.187  0.6666  0.2187  2.4625
   48CHL1   C14 4674   2.801   5.084   6.022 -0.1162  0.5503 -0.0012
   48CHL1   H14 4675   2.883   5.009   6.015  0.7560  1.2803  1.8475
   48CHL1   C15 4676   2.878   5.198   5.961  0.1462 -0.4452  0.4894
   48CHL1  H15A 4677   2.844   5.297   5.999 -0.4974 -0.2493 -0.5530
   48CHL1  H15B 4678   2.982   5.197   6.001 -0.0042  2.2876  1.1675
   48CHL1   C16 4679   2.855   5.199   5.806  0.1986  0.2007 -0.6099
   48CHL1  H16A 4680   2.825   5.299   5.770  0.0476  0.5631  0.4688
   48CHL1  H16B 4681   2.950   5.174   5.755  1.1818  1.0818  0.7242
   48CHL1   C17 4682   2.755   5.090   5.788 -0.0069  1.0868 -0.6866
   48CHL1   H17 4683   2.811   4.997   5.766  1.1025  1.8341 -1.1211
   48CHL1   C13 4684   2.688   5.060   5.922 -0.7127  0.0575 -0.0353
   48CHL1   C18 4685   2.589   5.177   5.932  0.3107  0.0433  0.2869
   48CHL1  H18A 4686   2.534   5.185   6.028  0.4409 -1.9729  0.5774
   48CHL1  H18B 4687   2.630   5.278   5.915 -0.2682  0.5838  1.9060
   48CHL1  H18C 4688   2.508   5.163   5.857  0.1378  3.7086 -0.3610
   48CHL1   C12 4689   2.619   4.925   5.947  0.0550 -0.2918  0.2826
   48CHL1  H12A 4690   2.527   4.919   5.884  1.6024 -0.7767 -2.0518
   48CHL1  H12B 4691   2.688   4.846   5.909  1.5096  1.2578 -0.4003
   48CHL1   C11 4692   2.590   4.905   6.098 -0.6128 -0.6750  0.4560
   48CHL1  H11A 4693   2.513   4.983   6.114  2.1789  2.5252 -0.5356
   48CHL1  H11B 4694   2.550   4.801   6.102  0.3176 -1.0068  1.4934
   48CHL1    C9 4695   2.705   4.938   6.192  0.1427 -0.8780 -0.6409
   48CHL1    H9 4696   2.791   4.873   6.165  0.5966 -0.6533  0.2243
   48CHL1   C10 4697   2.675   4.909   6.340 -0.5472  0.6389 -0.4822
   48CHL1   C19 4698   2.541   4.972   6.387  0.4034  0.5191 -0.3481
   48CHL1  H19A 4699   2.520   4.959   6.495  2.8564  2.5244  0.4608
   48CHL1  H19B 4700   2.544   5.082   6.376 -0.2909  0.4100 -2.0162
   48CHL1  H19C 4701   2.457   4.922   6.334 -1.8344  2.2703  1.3539
   48CHL1    C1 4702   2.667   4.751   6.356 -0.8191  0.0205  0.0668
   48CHL1   H1A 4703   2.575   4.715   6.304  0.4254 -1.4081 -1.2539
   48CHL1   H1B 4704   2.756   4.707   6.307 -1.7100 -1.5123 -0.2387
   48CHL1    C2 4705   2.659   4.715   6.511  0.4686  0.0050 -0.1158
   48CHL1   H2A 4706   2.673   4.605   6.520  1.7094  0.2204  1.0461
   48CHL1   H2B 4707   2.564   4.739   6.563  0.6159  2.7057 -0.9730
   48CHL1   C20 4708   2.670   5.118   5.660 -0.6530 -0.0574 -0.2795
   48CHL1   H20 4709   2.612   5.212   5.678 -3.5662 -1.8268  0.3024
   48CHL1   C21 4710   2.566   5.013   5.636 -0.0551  0.0718 -0.2205
   48CHL1  H21A 4711   2.525   5.020   5.533  0.2207  0.6729 -0.2892
   48CHL1  H21B 4712   2.610   4.911   5.645  1.7619  0.6052 -2.2762
   48CHL1  H21C 4713   2.476   5.020   5.702  0.4973  0.5200  0.4938
   48CHL1   C22 4714   2.752   5.141   5.535  0.2576 -0.5977 -0.1147
   48CHL1  H22A 4715   2.687   5.174   5.452 -1.0837 -0.4362  0.9580
   48CHL1  H22B 4716   2.813   5.233   5.546 -0.9616  0.1854  0.4077
   48CHL1   C23 4717   2.831   5.012   5.477  0.3648  0.0378 -0.9697
   48CHL1  H23A 4718   2.911   5.001   5.554 -0.1422 -1.3231 -0.6195
   48CHL1  H23B 4719   2.760   4.927   5.487  1.1093 -0.3567  2.4526
   48CHL1   C24 4720   2.898   5.026   5.343 -0.2783 -0.4880  0.3981
   48CHL1  H24A 4721   2.950   5.124   5.352 -2.0089  0.6598 -1.3128
   48CHL1  H24B 4722   2.971   4.943   5.330  0.2235  0.1709 -1.3081
   48CHL1   C25 4723   2.803   5.030   5.227  0.1596 -0.1485 -0.0555
   48CHL1   H25 4724   2.730   5.114   5.239  1.1904  0.6893  0.5255
   48CHL1   C26 4725   2.874   5.057   5.097  0.4508  0.6220 -0.0670
   48CHL1  H26A 4726   2.941   4.975   5.064  0.1147 -0.5387  1.9338
   48CHL1  H26B 4727   2.806   5.068   5.010  0.5691 -2.6627 -0.6775
   48CHL1  H26C 4728   2.935   5.149   5.104  2.5749 -0.7759  0.7330
   48CHL1   C27 4729   2.725   4.906   5.221 -0.8538  0.2999 -0.3897
   48CHL1  H27A 4730   2.800   4.824   5.212  0.3527  1.3435 -0.1147
   48CHL1  H27B 4731   2.663   4.880   5.310  0.2391 -0.7527  0.0978
   48CHL1  H27C 4732   2.669   4.898   5.126  0.8346 -3.1770 -1.2556
   49CHL1    C3 4733   5.903   0.182   2.967 -0.2243  0.1517 -0.1700
   49CHL1    H3 4734   5.866   0.283   2.992 -1.0345  0.1223 -1.1895
   49CHL1    O3 4735   5.889   0.169   2.830  0.4746  0.7530  0.0595
   49CHL1   H3' 4736   5.924   0.081   2.814  0.6808  0.0410  3.5825
   49CHL1    C4 4737   6.048   0.166   3.008 -0.1114  0.0051  0.1056
   49CHL1   H4A 4738   6.077   0.070   2.960 -1.1960 -0.3136  0.0735
   49CHL1   H4B 4739   6.109   0.243   2.956 -2.2941  3.1095  1.7954
   49CHL1    C5 4740   6.069   0.166   3.156 -0.1111  0.1339  0.6569
   49CHL1    C6 4741   6.129   0.261   3.220  0.5632 -0.0052 -0.0985
   49CHL1    H6 4742   6.153   0.352   3.162  0.0180 -0.3066 -0.8193
   49CHL1    C7 4743   6.146   0.268   3.371 -0.6036  0.5573  0.1985
   49CHL1   H7A 4744   6.248   0.306   3.391  0.8064 -3.0916  0.7996
   49CHL1   H7B 4745   6.067   0.339   3.403  0.4375  1.4015  0.9559
   49CHL1    C8 4746   6.116   0.133   3.444  0.1438  0.2246 -0.0363
   49CHL1    H8 4747   6.208   0.073   3.426  0.5698  0.6557  0.6332
   49CHL1   C14 4748   6.104   0.157   3.589 -0.0824 -0.3522 -0.0531
   49CHL1   H14 4749   6.016   0.223   3.595  0.8205  0.9841 -1.0537
   49CHL1   C15 4750   6.229   0.218   3.659 -0.3250 -0.3844 -0.1227
   49CHL1  H15A 4751   6.327   0.170   3.636 -1.6958 -2.3684 -2.2250
   49CHL1  H15B 4752   6.237   0.328   3.642  1.3973 -0.6181 -1.1215
   49CHL1   C16 4753   6.205   0.183   3.811  0.0179 -0.4418  0.2031
   49CHL1  H16A 4754   6.293   0.131   3.854  0.3199  1.3334  1.9032
   49CHL1  H16B 4755   6.190   0.273   3.875  1.6713  0.6315 -0.8331
   49CHL1   C17 4756   6.077   0.093   3.820  0.2103 -0.0296  0.4757
   49CHL1   H17 4757   5.991   0.162   3.825 -0.4832 -0.4745 -3.1160
   49CHL1   C13 4758   6.063   0.033   3.674 -0.2207  0.0954 -0.0627
   49CHL1   C18 4759   6.162  -0.083   3.649 -0.0372  0.4321 -0.9659
   49CHL1  H18A 4760   6.265  -0.049   3.673 -0.3099  0.1690  0.6818
   49CHL1  H18B 4761   6.142  -0.165   3.720 -2.1078  1.2191 -0.5735
   49CHL1  H18C 4762   6.172  -0.122   3.545  2.9108 -1.0981 -0.2276
   49CHL1   C12 4763   5.922  -0.009   3.622 -0.0659  0.6402  0.4754
   49CHL1  H12A 4764   5.889  -0.104   3.669  0.2245  0.7259  0.8599
   49CHL1  H12B 4765   5.848   0.070   3.646  0.0500 -0.1336  3.8014
   49CHL1   C11 4766   5.927  -0.039   3.477 -0.5318 -0.6771 -0.2553
   49CHL1  H11A 4767   5.979  -0.134   3.451 -1.3458 -1.2990  0.3176
   49CHL1  H11B 4768   5.826  -0.059   3.435  0.2424 -1.4082 -1.8693
   49CHL1    C9 4769   5.981   0.079   3.388 -0.5150  0.7592  0.1339
   49CHL1    H9 4770   5.902   0.156   3.404 -1.2242 -0.0194  0.4070
   49CHL1   C10 4771   5.988   0.062   3.232 -0.2316 -0.0733  0.0029
   49CHL1   C19 4772   6.049  -0.075   3.203 -0.1373 -0.4052  0.8447
   49CHL1  H19A 4773   6.136  -0.090   3.270  0.6576  0.2833 -0.0021
   49CHL1  H19B 4774   5.978  -0.153   3.237 -1.6656 -0.6940 -2.6334
   49CHL1  H19C 4775   6.078  -0.100   3.099 -0.1064 -0.0154  0.7548
   49CHL1    C1 4776   5.836   0.063   3.180  0.4806  0.3341 -0.1789
   49CHL1   H1A 4777   5.791  -0.035   3.206  2.5473 -1.2134 -2.0366
   49CHL1   H1B 4778   5.793   0.154   3.227 -0.0367 -0.8222  1.6796
   49CHL1    C2 4779   5.824   0.074   3.024  0.4782 -0.7428  0.3798
   49CHL1   H2A 4780   5.719   0.097   2.993  0.9970 -0.1485 -0.9998
   49CHL1   H2B 4781   5.856  -0.026   2.988  1.4368 -0.7010  1.0734
   49CHL1   C20 4782   6.072  -0.001   3.942 -0.1364  0.3710 -0.5245
   49CHL1   H20 4783   6.133  -0.091   3.919  0.8840  1.2700 -1.4507
   49CHL1   C21 4784   5.927  -0.063   3.969 -0.0161  0.1862  0.5275
   49CHL1  H21A 4785   5.921  -0.145   4.043  0.2616 -1.8553 -1.5937
   49CHL1  H21B 4786   5.893  -0.104   3.872  0.8387  0.6880 -0.0005
   49CHL1  H21C 4787   5.854   0.014   4.001  1.5766  0.7610  3.1381
   49CHL1   C22 4788   6.126   0.065   4.063  0.5785 -0.7343 -0.7580
   49CHL1  H22A 4789   6.232   0.096   4.054  0.5171 -0.8546 -2.0821
   49CHL1  H22B 4790   6.066   0.155   4.085  1.2508  0.4381 -3.3464
   49CHL1   C23 4791   6.121  -0.033   4.184 -0.1661  0.2608  0.2952
   49CHL1  H23A 4792   6.014  -0.047   4.209  0.1438 -0.2823  1.3700
   49CHL1  H23B 4793   6.161  -0.129   4.146 -0.5779  0.2871 -0.2070
   49CHL1   C24 4794   6.190   0.024   4.314  0.7243 -0.0834 -0.3818
   49CHL1  H24A 4795   6.296   0.029   4.284  1.0447  1.2174  0.8627
   49CHL1  H24B 4796   6.148   0.119   4.353 -0.1933 -1.3621  1.9904
   49CHL1   C25 4797   6.181  -0.073   4.442 -0.8943 -0.3028  0.8027
   49CHL1   H25 4798   6.234  -0.019   4.523 -0.5195 -0.8790  0.9560
   49CHL1   C26 4799   6.043  -0.098   4.498 -0.2431  0.0164  0.3054
   49CHL1  H26A 4800   5.982  -0.148   4.420 -0.5597  1.3802 -0.3608
   49CHL1  H26B 4801   6.054  -0.163   4.587  1.7515 -0.5639 -0.2970
   49CHL1  H26C 4802   5.981  -0.007   4.510 -0.1412  0.2302 -0.6806
   49CHL1   C27 4803   6.254  -0.200   4.402  0.1433  0.2531 -0.8787
   49CHL1  H27A 4804   6.256  -0.264   4.493 -0.2801 -0.1311 -1.1376
   49CHL1  H27B 4805   6.195  -0.255   4.326  0.5233 -0.1859 -0.8584
   49CHL1  H27C 4806   6.359  -0.182   4.371  0.4162  2.0762  0.8667
   50CHL1    C3 4807   1.099   1.980   3.023  0.2312 -0.1749 -0.2482
   50CHL1    H3 4808   1.187   1.945   3.080  2.1946  2.5752 -1.3949
   50CHL1    O3 4809   1.101   1.939   2.889  0.6674  0.0606  0.5798
   50CHL1   H3' 4810   1.197   1.936   2.879  0.7645 -0.2294  1.5636
   50CHL1    C4 4811   0.968   1.919   3.076 -0.3800 -0.5240 -0.6319
   50CHL1   H4A 4812   0.883   1.958   3.017  1.0280  1.4166 -1.5034
   50CHL1   H4B 4813   0.967   1.808   3.063 -2.5488 -1.0070  2.4417
   50CHL1    C5 4814   0.972   1.958   3.223 -0.1526 -0.4909 -0.4074
   50CHL1    C6 4815   0.973   1.859   3.314  0.2933 -0.5890 -0.8629
   50CHL1    H6 4816   0.971   1.753   3.285 -1.0318 -0.8387  0.0676
   50CHL1    C7 4817   0.964   1.874   3.460 -0.2797  0.4376  0.3130
   50CHL1   H7A 4818   0.879   1.813   3.496 -0.1683 -1.2046 -1.9477
   50CHL1   H7B 4819   1.057   1.843   3.512 -1.1201 -1.6982  0.6400
   50CHL1    C8 4820   0.932   2.017   3.503  0.1486 -1.0828  0.1578
   50CHL1    H8 4821   0.824   2.041   3.495  0.3258  0.3631  1.4908
   50CHL1   C14 4822   0.959   2.035   3.657  0.3627 -0.0185 -0.5165
   50CHL1   H14 4823   1.067   2.022   3.674  0.2527 -0.2670  0.0087
   50CHL1   C15 4824   0.890   1.927   3.747 -0.6646 -0.1964 -0.0936
   50CHL1  H15A 4825   0.784   1.906   3.724 -0.9890 -2.3491  2.7167
   50CHL1  H15B 4826   0.940   1.827   3.751  0.1736  0.1663 -1.1766
   50CHL1   C16 4827   0.890   1.994   3.884 -0.8457 -0.6355 -0.8562
   50CHL1  H16A 4828   0.786   1.983   3.919 -0.9419  1.0418 -0.5474
   50CHL1  H16B 4829   0.971   1.956   3.950  0.0920  2.8665  0.2170
   50CHL1   C17 4830   0.942   2.140   3.859 -0.0735 -1.1751  0.5059
   50CHL1   H17 4831   1.052   2.149   3.876 -0.2450 -1.2831  1.7670
   50CHL1   C13 4832   0.917   2.169   3.709  0.1454 -0.5625 -0.2193
   50CHL1   C18 4833   0.766   2.199   3.690  0.0795  0.0115  0.3629
   50CHL1  H18A 4834   0.723   2.286   3.744 -1.3951  1.4810 -2.9057
   50CHL1  H18B 4835   0.751   2.219   3.581 -0.0864  1.6890  0.6747
   50CHL1  H18C 4836   0.705   2.108   3.709 -0.7827  0.1840 -1.3498
   50CHL1   C12 4837   1.012   2.274   3.638  0.4313 -0.1315 -0.4830
   50CHL1  H12A 4838   1.017   2.379   3.671  1.4519 -0.6308  1.0660
   50CHL1  H12B 4839   1.113   2.242   3.671  1.1596  2.5154  0.0554
   50CHL1   C11 4840   0.991   2.260   3.484 -0.0913  0.0543  0.3329
   50CHL1  H11A 4841   0.889   2.298   3.460 -0.6834 -1.2073  0.7711
   50CHL1  H11B 4842   1.070   2.317   3.431 -0.4427  1.2892  1.0882
   50CHL1    C9 4843   1.010   2.117   3.425  0.0092 -0.0054 -0.2871
   50CHL1    H9 4844   1.118   2.097   3.438  0.0360 -0.7868 -1.5451
   50CHL1   C10 4845   0.985   2.106   3.271 -0.3044  0.6155  0.1809
   50CHL1   C19 4846   0.846   2.172   3.242  0.2130  0.3516  0.1014
   50CHL1  H19A 4847   0.768   2.135   3.312  0.2940  0.6019  0.3236
   50CHL1  H19B 4848   0.864   2.281   3.249  4.1122 -0.1385 -0.1468
   50CHL1  H19C 4849   0.823   2.148   3.136  2.1448 -1.6181  0.0609
   50CHL1    C1 4850   1.091   2.173   3.180 -0.0641 -0.1116  0.4881
   50CHL1   H1A 4851   1.078   2.283   3.187 -1.5393 -0.2543  0.2717
   50CHL1   H1B 4852   1.182   2.142   3.234  0.3580 -1.4113 -0.8857
   50CHL1    C2 4853   1.087   2.133   3.035 -0.3331  0.0608 -0.1566
   50CHL1   H2A 4854   1.181   2.168   2.986 -0.2493  0.0814  0.0202
   50CHL1   H2B 4855   1.003   2.164   2.969  0.0653 -2.3525 -1.9513
   50CHL1   C20 4856   0.889   2.237   3.968 -0.1767  0.0075  0.1647
   50CHL1   H20 4857   0.779   2.234   3.953 -0.0725  2.5672 -1.9508
   50CHL1   C21 4858   0.946   2.372   3.943 -0.8196 -0.1260 -0.1623
   50CHL1  H21A 4859   0.916   2.440   4.026  0.1420 -0.0588  0.1415
   50CHL1  H21B 4860   0.917   2.428   3.851  1.0881 -0.7403 -1.2048
   50CHL1  H21C 4861   1.057   2.373   3.945 -0.7927 -0.3477  3.0261
   50CHL1   C22 4862   0.923   2.198   4.114 -0.3641  0.1344 -0.0609
   50CHL1  H22A 4863   0.917   2.088   4.127  0.0058 -0.1434 -1.9147
   50CHL1  H22B 4864   1.033   2.217   4.118 -0.3202  1.3030 -3.2513
   50CHL1   C23 4865   0.845   2.270   4.226 -0.3579 -0.0866 -0.7001
   50CHL1  H23A 4866   0.856   2.380   4.214 -0.9737  0.3090  1.7238
   50CHL1  H23B 4867   0.734   2.261   4.223 -0.5891  1.0825  1.5312
   50CHL1   C24 4868   0.909   2.220   4.363  0.0062 -1.2034 -0.5135
   50CHL1  H24A 4869   0.882   2.116   4.393  2.5953 -1.8321 -0.1511
   50CHL1  H24B 4870   1.016   2.221   4.336  0.1601  1.0903  0.0478
   50CHL1   C25 4871   0.871   2.306   4.485 -0.5737 -0.1885  0.7252
   50CHL1   H25 4872   0.903   2.411   4.468 -0.2860 -0.3396  0.3035
   50CHL1   C26 4873   0.718   2.304   4.505 -0.5863  0.0926  0.4325
   50CHL1  H26A 4874   0.686   2.202   4.475  0.5038 -0.2834  0.5220
   50CHL1  H26B 4875   0.693   2.311   4.613  0.8176  1.9470  0.6882
   50CHL1  H26C 4876   0.666   2.384   4.447 -0.4002 -0.3021 -0.2886
   50CHL1   C27 4877   0.955   2.275   4.612 -0.6725 -0.2811  0.4425
   50CHL1  H27A 4878   1.063   2.282   4.586 -0.4113 -0.9271  1.3162
   50CHL1  H27B 4879   0.949   2.356   4.688  0.0405 -0.1456  0.3582
   50CHL1  H27C 4880   0.926   2.178   4.657  0.9244  0.4751  3.3822
   51CHL1    C3 4881   4.007   3.335   2.890 -0.8946  0.0853 -0.0007
   51CHL1    H3 4882   4.096   3.398   2.910  0.4042 -1.5650 -0.3230
   51CHL1    O3 4883   4.000   3.299   2.752 -0.0630  0.1211  0.0085
   51CHL1   H3' 4884   4.088   3.265   2.735 -0.0386  0.5780 -0.8680
   51CHL1    C4 4885   4.026   3.201   2.971 -0.5042 -0.5988  0.6094
   51CHL1   H4A 4886   3.951   3.122   2.946 -0.1789 -0.4392 -0.9527
   51CHL1   H4B 4887   4.125   3.166   2.936  0.1609  1.2272  0.5374
   51CHL1    C5 4888   4.040   3.237   3.117  1.0603  0.3917  0.9013
   51CHL1    C6 4889   4.152   3.213   3.186  0.1866  0.4048 -0.5447
   51CHL1    H6 4890   4.233   3.155   3.139 -0.6136 -2.1172  0.9807
   51CHL1    C7 4891   4.171   3.229   3.331  0.4937 -0.2823  0.0559
   51CHL1   H7A 4892   4.203   3.142   3.392 -1.0818 -0.3448  0.8561
   51CHL1   H7B 4893   4.243   3.311   3.350  0.5501  0.2153 -2.0644
   51CHL1    C8 4894   4.033   3.267   3.399  0.3015 -0.1994  0.0023
   51CHL1    H8 4895   3.976   3.173   3.413 -1.4936  0.5908 -1.5547
   51CHL1   C14 4896   4.056   3.326   3.536 -0.5510  0.2582 -0.2623
   51CHL1   H14 4897   4.104   3.425   3.518  0.3736  0.5630  3.0646
   51CHL1   C15 4898   4.167   3.262   3.629  0.2376 -0.2606  0.1059
   51CHL1  H15A 4899   4.167   3.151   3.626  0.1618 -0.3279  1.8130
   51CHL1  H15B 4900   4.270   3.298   3.608  0.6189 -0.5982  1.3150
   51CHL1   C16 4901   4.125   3.312   3.770  0.7769 -0.3348 -0.0490
   51CHL1  H16A 4902   4.095   3.221   3.825  1.1380 -1.2015 -1.2359
   51CHL1  H16B 4903   4.201   3.380   3.814 -0.2886  1.0244 -0.2509
   51CHL1   C17 4904   4.003   3.411   3.749  0.3119  0.6628 -0.2832
   51CHL1   H17 4905   4.043   3.514   3.735  2.0706  0.4515  2.4954
   51CHL1   C13 4906   3.927   3.364   3.618  0.1293 -0.4046 -0.1449
   51CHL1   C18 4907   3.835   3.236   3.646  0.7419  0.0423  0.0199
   51CHL1  H18A 4908   3.734   3.267   3.678  0.7921  0.3059 -0.0782
   51CHL1  H18B 4909   3.826   3.205   3.539 -2.3351  3.6748 -0.9733
   51CHL1  H18C 4910   3.882   3.153   3.703 -0.6414 -2.0188 -1.6777
   51CHL1   C12 4911   3.868   3.473   3.533 -0.3413  0.1797  0.1742
   51CHL1  H12A 4912   3.769   3.505   3.572 -1.1153 -0.2124 -1.3645
   51CHL1  H12B 4913   3.933   3.562   3.518  0.4398 -0.2027  1.2175
   51CHL1   C11 4914   3.829   3.421   3.385 -0.4484  0.0334  0.0677
   51CHL1  H11A 4915   3.752   3.343   3.400  2.4024 -2.6664  1.9159
   51CHL1  H11B 4916   3.786   3.506   3.328  1.7799  1.1808  0.0049
   51CHL1    C9 4917   3.951   3.366   3.311 -0.0200 -0.0996 -0.9896
   51CHL1    H9 4918   4.020   3.453   3.297 -0.8814  0.9750  0.9576
   51CHL1   C10 4919   3.915   3.308   3.170 -0.4820  0.0659  0.3027
   51CHL1   C19 4920   3.804   3.203   3.185 -0.2368 -0.4607 -0.1174
   51CHL1  H19A 4921   3.773   3.158   3.088  0.8703 -2.3417  0.3358
   51CHL1  H19B 4922   3.847   3.122   3.248  0.3956 -0.8428 -1.0075
   51CHL1  H19C 4923   3.715   3.239   3.241 -1.7772 -1.7741 -1.5690
   51CHL1    C1 4924   3.868   3.417   3.078 -0.0926 -0.3960 -0.0953
   51CHL1   H1A 4925   3.764   3.454   3.091 -0.1867  0.1494 -1.9564
   51CHL1   H1B 4926   3.929   3.509   3.095  1.2818 -1.1835 -0.5800
   51CHL1    C2 4927   3.878   3.392   2.928  0.1115 -0.0130  0.2252
   51CHL1   H2A 4928   3.858   3.484   2.869  0.0389 -0.5172 -0.5501
   51CHL1   H2B 4929   3.792   3.326   2.904 -0.4328 -0.5976  3.4151
   51CHL1   C20 4930   3.917   3.421   3.876 -0.7746 -0.3964 -0.7302
   51CHL1   H20 4931   3.871   3.322   3.898 -1.2991  0.3570  1.8321
   51CHL1   C21 4932   3.804   3.525   3.852 -0.4835  0.9874 -0.2143
   51CHL1  H21A 4933   3.736   3.538   3.939 -0.1964 -0.0471  0.1906
   51CHL1  H21B 4934   3.734   3.489   3.775  1.0310 -1.0623 -0.7172
   51CHL1  H21C 4935   3.852   3.621   3.823 -1.2949  1.6409  0.5500
   51CHL1   C22 4936   4.006   3.468   3.991  0.3502  0.5593  0.2504
   51CHL1  H22A 4937   4.090   3.399   4.012 -1.1597 -1.2189  0.7791
   51CHL1  H22B 4938   4.050   3.567   3.968  3.8891 -1.2438 -1.3676
   51CHL1   C23 4939   3.940   3.486   4.125 -0.3070 -0.5291 -0.3141
   51CHL1  H23A 4940   3.857   3.560   4.120 -1.2472 -1.5704 -0.3648
   51CHL1  H23B 4941   3.907   3.388   4.164  0.3473 -0.6829 -0.1327
   51CHL1   C24 4942   4.048   3.530   4.228 -0.0374 -0.3820 -0.5960
   51CHL1  H24A 4943   4.115   3.442   4.244  1.6040  1.1221  1.3591
   51CHL1  H24B 4944   4.112   3.612   4.188  0.9354 -0.9941 -0.3397
   51CHL1   C25 4945   3.990   3.564   4.365  0.5606 -0.7998  0.3631
   51CHL1   H25 4946   3.902   3.627   4.340 -0.3157 -1.2737  2.1085
   51CHL1   C26 4947   3.943   3.434   4.440  0.5760  0.6878  0.2678
   51CHL1  H26A 4948   4.035   3.375   4.461  1.9191  2.4901 -0.3163
   51CHL1  H26B 4949   3.888   3.456   4.533 -0.7008 -0.9962 -0.0369
   51CHL1  H26C 4950   3.883   3.381   4.363  1.1213  0.1543  0.1991
   51CHL1   C27 4951   4.079   3.646   4.452  0.2049  0.0147  0.1374
   51CHL1  H27A 4952   4.097   3.738   4.392 -1.1650 -1.8960 -3.5452
   51CHL1  H27B 4953   4.028   3.690   4.540 -0.6079  0.4461 -0.5329
   51CHL1  H27C 4954   4.174   3.606   4.494 -0.2558 -0.1132  1.0774
   52CHL1    C3 4955   5.308   4.631   2.876 -0.8862 -0.3484  0.2175
   52CHL1    H3 4956   5.400   4.690   2.900 -0.2112 -1.7814  1.2975
   52CHL1    O3 4957   5.251   4.691   2.764  0.0307  0.1353 -0.5902
   52CHL1   H3' 4958   5.167   4.647   2.747 -0.3382 -0.0942  1.5988
   52CHL1    C4 4959   5.340   4.484   2.853  1.1002 -0.4283 -0.2641
   52CHL1   H4A 4960   5.251   4.429   2.816 -0.6528  0.9341  1.7059
   52CHL1   H4B 4961   5.409   4.500   2.767  1.2423  2.4051  0.2916
   52CHL1    C5 4962   5.396   4.418   2.982  0.2534  0.6529 -0.3819
   52CHL1    C6 4963   5.507   4.346   2.971 -0.5806 -0.1318 -1.0488
   52CHL1    H6 4964   5.566   4.329   2.880  0.6222 -2.7096  0.1057
   52CHL1    C7 4965   5.574   4.269   3.087 -0.7332  0.1729 -0.1467
   52CHL1   H7A 4966   5.591   4.161   3.068 -1.4327 -0.7755  3.7202
   52CHL1   H7B 4967   5.669   4.317   3.119 -0.5500 -1.3557  1.7854
   52CHL1    C8 4968   5.489   4.271   3.214 -0.0481 -0.4100 -0.4996
   52CHL1    H8 4969   5.422   4.183   3.203  0.3930 -0.8575  0.3112
   52CHL1   C14 4970   5.576   4.257   3.343 -1.0078  0.3081 -0.1941
   52CHL1   H14 4971   5.639   4.348   3.354  0.9281 -0.8536 -1.2091
   52CHL1   C15 4972   5.677   4.136   3.348  0.2190  0.4396  0.9585
   52CHL1  H15A 4973   5.641   4.046   3.294 -3.7286  2.6578 -0.5189
   52CHL1  H15B 4974   5.770   4.179   3.305 -0.1259  1.6643  1.4080
   52CHL1   C16 4975   5.698   4.108   3.502 -0.0333 -0.0804  0.8103
   52CHL1  H16A 4976   5.668   4.003   3.522  0.9412 -0.1926  1.7992
   52CHL1  H16B 4977   5.807   4.102   3.522  0.1761 -1.8876 -0.7012
   52CHL1   C17 4978   5.605   4.206   3.575  0.0491  0.4068 -0.2751
   52CHL1   H17 4979   5.665   4.301   3.578  2.1496 -0.7141 -2.7276
   52CHL1   C13 4980   5.499   4.233   3.470  0.4764 -0.1135 -0.4034
   52CHL1   C18 4981   5.407   4.106   3.463  0.2259 -0.3027  0.2074
   52CHL1  H18A 4982   5.337   4.120   3.378  0.9089  2.9787  0.0742
   52CHL1  H18B 4983   5.468   4.015   3.444  3.2059  1.6436 -0.1493
   52CHL1  H18C 4984   5.348   4.098   3.557  1.1913  0.3130  0.8816
   52CHL1   C12 4985   5.406   4.352   3.491  0.3421  0.3129  0.7054
   52CHL1  H12A 4986   5.343   4.349   3.582 -0.4597  0.4072  0.1665
   52CHL1  H12B 4987   5.480   4.435   3.504  2.2900 -1.5634  2.3764
   52CHL1   C11 4988   5.321   4.383   3.368 -0.2804 -0.1976  0.3098
   52CHL1  H11A 4989   5.243   4.305   3.353  1.1582 -1.2654 -2.5149
   52CHL1  H11B 4990   5.264   4.477   3.381  2.5566  1.7915 -0.7899
   52CHL1    C9 4991   5.401   4.395   3.234 -0.3971 -0.7013  0.5234
   52CHL1    H9 4992   5.464   4.483   3.257 -2.2077  0.5517  0.9280
   52CHL1   C10 4993   5.316   4.436   3.113  0.3966 -0.4330 -0.2844
   52CHL1   C19 4994   5.197   4.348   3.097  0.0068  0.7085  0.2411
   52CHL1  H19A 4995   5.240   4.247   3.081  1.1470  1.2989 -0.5802
   52CHL1  H19B 4996   5.131   4.332   3.185 -0.1395 -1.0879 -0.1602
   52CHL1  H19C 4997   5.134   4.370   3.009 -0.1502 -2.1828 -0.4721
   52CHL1    C1 4998   5.268   4.592   3.124 -0.8981  0.2354 -0.1849
   52CHL1   H1A 4999   5.189   4.593   3.203 -0.9700 -1.7785 -0.1700
   52CHL1   H1B 5000   5.351   4.661   3.150 -1.2935  1.5555 -2.2098
   52CHL1    C2 5001   5.207   4.644   2.991  0.9550  0.2403 -0.2668
   52CHL1   H2A 5002   5.181   4.751   3.000  0.7937  0.1024  0.9813
   52CHL1   H2B 5003   5.116   4.581   2.979  0.6865  0.7071 -0.7186
   52CHL1   C20 5004   5.565   4.146   3.712  0.3762 -0.3073 -0.6073
   52CHL1   H20 5005   5.500   4.056   3.703  2.5746 -2.3077  1.8493
   52CHL1   C21 5006   5.472   4.239   3.799  0.2327 -0.1725 -0.3857
   52CHL1  H21A 5007   5.447   4.193   3.897  0.0085 -2.1882 -1.3406
   52CHL1  H21B 5008   5.374   4.243   3.746 -0.7783  1.4652  1.4910
   52CHL1  H21C 5009   5.517   4.338   3.820  0.8244 -0.9515  2.3861
   52CHL1   C22 5010   5.690   4.103   3.797 -0.5605 -0.3201  1.1598
   52CHL1  H22A 5011   5.778   4.150   3.750 -1.9604  0.5187 -0.7513
   52CHL1  H22B 5012   5.682   4.153   3.896  1.9836  0.7433  0.9001
   52CHL1   C23 5013   5.719   3.950   3.821  0.3501  0.3817 -0.9858
   52CHL1  H23A 5014   5.711   3.893   3.726 -2.8288  0.5359 -0.9058
   52CHL1  H23B 5015   5.824   3.932   3.854  0.9486  2.3416 -1.6527
   52CHL1   C24 5016   5.630   3.891   3.930  0.1012  0.1249  0.2995
   52CHL1  H24A 5017   5.636   3.927   4.036 -1.0917  1.4985 -0.0532
   52CHL1  H24B 5018   5.529   3.916   3.891  0.3620 -1.6764 -1.6614
   52CHL1   C25 5019   5.627   3.735   3.922 -0.4958  0.1024 -0.2860
   52CHL1   H25 5020   5.595   3.701   3.822  0.8698  0.4785 -0.8743
   52CHL1   C26 5021   5.778   3.680   3.937  0.5228 -0.3203 -0.2682
   52CHL1  H26A 5022   5.785   3.569   3.944  1.5770 -0.3059 -0.9074
   52CHL1  H26B 5023   5.834   3.717   3.849 -0.4515 -0.8843 -1.1502
   52CHL1  H26C 5024   5.823   3.719   4.031  0.6314 -0.2162 -0.3634
   52CHL1   C27 5025   5.558   3.673   4.043 -0.1718  0.7755  0.7985
   52CHL1  H27A 5026   5.603   3.709   4.137 -1.7374  0.0216  1.8781
   52CHL1  H27B 5027   5.449   3.694   4.047 -0.5148 -0.2919 -1.3212
   52CHL1  H27C 5028   5.571   3.562   4.041 -0.0524  0.7927  0.2753
   53CHL1    C3 5029   4.112   4.328   2.916  0.3806  0.5100  0.2869
   53CHL1    H3 5030   4.189   4.401   2.947 -0.2239  1.4416 -0.3906
   53CHL1    O3 5031   4.131   4.295   2.783 -0.2125  0.2365 -0.1048
   53CHL1   H3' 5032   4.054   4.248   2.749 -1.8087  1.3979  1.6698
   53CHL1    C4 5033   4.135   4.200   3.000  0.2439  0.1468 -0.1855
   53CHL1   H4A 5034   4.062   4.118   2.984  0.3928 -0.0889  0.3201
   53CHL1   H4B 5035   4.228   4.151   2.962  0.9762  1.0940  0.3438
   53CHL1    C5 5036   4.124   4.232   3.143  0.1089 -0.3250  0.4363
   53CHL1    C6 5037   4.232   4.219   3.223 -0.1272 -0.3766  0.3233
   53CHL1    H6 5038   4.323   4.168   3.187  1.0373  0.0501  2.4421
   53CHL1    C7 5039   4.221   4.242   3.368  0.3251 -0.6347  0.0489
   53CHL1   H7A 5040   4.269   4.155   3.419  1.6381  0.3311  0.5085
   53CHL1   H7B 5041   4.275   4.330   3.409 -2.6099  0.5664  1.6057
   53CHL1    C8 5042   4.076   4.261   3.416 -0.1008 -0.2468  0.1955
   53CHL1    H8 5043   4.025   4.162   3.416  2.2287 -1.5409  1.8461
   53CHL1   C14 5044   4.081   4.319   3.557  0.1338  0.2690 -0.3787
   53CHL1   H14 5045   4.134   4.417   3.559  0.9415 -0.1594  1.3271
   53CHL1   C15 5046   4.169   4.243   3.657 -0.5944  0.0508  0.0615
   53CHL1  H15A 5047   4.146   4.134   3.655  0.5397 -0.3326  3.0407
   53CHL1  H15B 5048   4.277   4.257   3.635 -0.8964  1.8509 -0.3722
   53CHL1   C16 5049   4.124   4.297   3.796  0.1019  0.0911 -0.1785
   53CHL1  H16A 5050   4.097   4.211   3.862 -1.5095 -0.2722 -1.2505
   53CHL1  H16B 5051   4.200   4.362   3.844  2.2257  0.5109 -3.7665
   53CHL1   C17 5052   3.991   4.380   3.770  0.1490  0.7406 -0.3172
   53CHL1   H17 5053   4.028   4.484   3.754  0.8018  0.3441 -1.5353
   53CHL1   C13 5054   3.944   4.342   3.620 -0.6431  0.1764  0.2744
   53CHL1   C18 5055   3.863   4.216   3.628  1.4839 -0.0489  0.4314
   53CHL1  H18A 5056   3.842   4.170   3.528  0.8285 -0.9411  0.9677
   53CHL1  H18B 5057   3.911   4.137   3.689  1.6907 -0.4754 -0.2666
   53CHL1  H18C 5058   3.768   4.240   3.681  0.7634 -4.5426  1.5909
   53CHL1   C12 5059   3.871   4.452   3.542 -0.0622  0.6863  0.2606
   53CHL1  H12A 5060   3.769   4.463   3.587 -0.0968  1.3704  0.0235
   53CHL1  H12B 5061   3.936   4.542   3.537  1.2800 -0.3006 -0.5620
   53CHL1   C11 5062   3.857   4.410   3.394  0.7322 -0.0714 -0.0936
   53CHL1  H11A 5063   3.793   4.319   3.394  0.3633  0.1610 -1.4540
   53CHL1  H11B 5064   3.810   4.487   3.330  0.5471 -1.1364 -1.2769
   53CHL1    C9 5065   3.997   4.349   3.327  0.7453 -1.0312  0.9977
   53CHL1    H9 5066   4.060   4.440   3.316  0.7373 -1.2120 -1.1242
   53CHL1   C10 5067   3.989   4.297   3.183  0.3564  0.1966  0.5109
   53CHL1   C19 5068   3.885   4.185   3.180  0.5511 -0.1325  0.4169
   53CHL1  H19A 5069   3.792   4.234   3.217  3.0975  1.4984  5.6950
   53CHL1  H19B 5070   3.871   4.160   3.073 -0.1150  2.3801 -0.1426
   53CHL1  H19C 5071   3.913   4.101   3.248 -0.7852 -0.2110  0.8939
   53CHL1    C1 5072   3.948   4.412   3.088 -0.0638 -0.5893  0.4718
   53CHL1   H1A 5073   3.840   4.439   3.099  0.4586  1.5204  0.7891
   53CHL1   H1B 5074   4.010   4.500   3.114 -1.7340  0.9120 -0.4065
   53CHL1    C2 5075   3.975   4.384   2.934 -0.3941  0.3172 -0.5079
   53CHL1   H2A 5076   3.958   4.482   2.885 -3.1031 -0.1763 -0.7361
   53CHL1   H2B 5077   3.894   4.321   2.892  0.0550  1.2539 -2.9651
   53CHL1   C20 5078   3.885   4.375   3.881  0.7847 -0.0486 -0.3277
   53CHL1   H20 5079   3.843   4.273   3.886 -0.7225  0.5140 -0.7704
   53CHL1   C21 5080   3.770   4.479   3.853  0.3541 -0.3899 -0.2650
   53CHL1  H21A 5081   3.704   4.439   3.774  0.8956  0.3643 -1.1103
   53CHL1  H21B 5082   3.817   4.573   3.819 -0.5284 -0.5742 -2.1060
   53CHL1  H21C 5083   3.697   4.499   3.935 -0.1978  0.2162 -0.9009
   53CHL1   C22 5084   3.940   4.406   4.023 -0.4343  0.3423 -0.4884
   53CHL1  H22A 5085   4.028   4.339   4.035 -0.3222  0.6566  0.6404
   53CHL1  H22B 5086   3.976   4.512   4.026  0.2837  0.0993 -0.2801
   53CHL1   C23 5087   3.845   4.386   4.139  0.2956  0.8578 -0.5856
   53CHL1  H23A 5088   3.764   4.461   4.133  0.0059  0.5975 -0.0130
   53CHL1  H23B 5089   3.797   4.287   4.124  1.8035 -0.3977  2.1692
   53CHL1   C24 5090   3.920   4.403   4.270 -0.9115  0.7029 -0.4813
   53CHL1  H24A 5091   4.009   4.337   4.278 -0.9960  0.2863 -2.4103
   53CHL1  H24B 5092   3.959   4.507   4.278  0.7925  0.0600 -0.1710
   53CHL1   C25 5093   3.834   4.374   4.398 -0.0170 -0.3345  0.5730
   53CHL1   H25 5094   3.739   4.432   4.392  1.2136  1.6435 -2.3067
   53CHL1   C26 5095   3.799   4.225   4.419 -0.2454  0.2617  0.1262
   53CHL1  H26A 5096   3.732   4.189   4.338  1.7120 -1.3272 -0.8703
   53CHL1  H26B 5097   3.894   4.174   4.393  0.4077  2.3481 -1.9891
   53CHL1  H26C 5098   3.743   4.200   4.512 -1.9756  2.5187 -0.1959
   53CHL1   C27 5099   3.904   4.438   4.523 -0.2903  0.1127  0.3946
   53CHL1  H27A 5100   3.927   4.546   4.520 -1.2954  0.3320 -1.4720
   53CHL1  H27B 5101   3.843   4.417   4.613 -0.3105 -1.7029 -0.0094
   53CHL1  H27C 5102   3.996   4.380   4.544 -1.2017 -1.2959  0.6153
   54CHL1    C3 5103   5.385   0.606   2.873 -0.1447 -0.4958  0.3136
   54CHL1    H3 5104   5.492   0.634   2.864 -0.6708  1.0750 -1.7063
   54CHL1    O3 5105   5.334   0.631   2.747  0.1771 -0.2687  0.4376
   54CHL1   H3' 5106   5.391   0.578   2.691  0.0646  1.3116 -1.2696
   54CHL1    C4 5107   5.356   0.467   2.916  0.0795  0.3043 -0.1669
   54CHL1   H4A 5108   5.245   0.457   2.910 -0.0663  1.6098  0.0194
   54CHL1   H4B 5109   5.407   0.394   2.849  1.3702 -0.0233  1.1270
   54CHL1    C5 5110   5.423   0.457   3.051  0.3380 -0.2511  0.0304
   54CHL1    C6 5111   5.522   0.373   3.068  0.0097 -0.0170 -0.5186
   54CHL1    H6 5112   5.555   0.306   2.987 -0.5849  0.3742 -1.0939
   54CHL1    C7 5113   5.597   0.365   3.199  0.4602 -0.1795  0.0592
   54CHL1   H7A 5114   5.615   0.257   3.218  1.0927 -0.2226 -0.7035
   54CHL1   H7B 5115   5.695   0.416   3.191 -0.7911  2.2836 -0.6814
   54CHL1    C8 5116   5.518   0.419   3.321 -0.6319 -0.2637  0.1928
   54CHL1    H8 5117   5.431   0.354   3.344 -0.3046 -0.3326  1.3259
   54CHL1   C14 5118   5.603   0.427   3.446 -0.6308 -0.0013 -0.8185
   54CHL1   H14 5119   5.681   0.503   3.423 -0.8195 -0.2938 -2.5472
   54CHL1   C15 5120   5.691   0.312   3.490 -0.3461  0.2328  0.1791
   54CHL1  H15A 5121   5.633   0.218   3.479 -1.5472  0.6518  2.4392
   54CHL1  H15B 5122   5.784   0.318   3.430 -0.6293  1.1518 -0.1805
   54CHL1   C16 5123   5.721   0.342   3.636 -0.2133  0.1161 -0.1520
   54CHL1  H16A 5124   5.722   0.245   3.690  2.0410  0.4645  0.5387
   54CHL1  H16B 5125   5.829   0.365   3.648 -0.1078 -0.2849 -0.3004
   54CHL1   C17 5126   5.646   0.469   3.672 -0.4164  0.2618 -0.0774
   54CHL1   H17 5127   5.718   0.552   3.657  2.0423 -1.5970  0.6512
   54CHL1   C13 5128   5.533   0.482   3.570 -0.1626 -0.2938  0.7531
   54CHL1   C18 5129   5.420   0.387   3.608 -0.2085  0.4941 -0.2595
   54CHL1  H18A 5130   5.383   0.404   3.712  3.6738 -3.5040  2.1066
   54CHL1  H18B 5131   5.343   0.384   3.528 -0.6080  0.9937  0.1037
   54CHL1  H18C 5132   5.465   0.286   3.621  0.4389  0.7565 -0.4374
   54CHL1   C12 5133   5.477   0.622   3.546 -0.1006  0.6606  0.2114
   54CHL1  H12A 5134   5.423   0.674   3.629 -0.3690 -0.2404  0.6185
   54CHL1  H12B 5135   5.560   0.692   3.523 -0.2181  0.9646  0.6852
   54CHL1   C11 5136   5.391   0.620   3.417  0.6835 -0.3925 -0.2486
   54CHL1  H11A 5137   5.304   0.561   3.453  0.1264  1.0381  0.8501
   54CHL1  H11B 5138   5.357   0.721   3.386  2.2273  0.4827  0.7900
   54CHL1    C9 5139   5.461   0.560   3.292 -0.4624  0.1131 -1.0838
   54CHL1    H9 5140   5.556   0.609   3.263  0.2922 -0.6991 -0.0502
   54CHL1   C10 5141   5.380   0.555   3.163  0.6166  0.1331 -0.0420
   54CHL1   C19 5142   5.239   0.501   3.202 -0.7943 -0.1376 -0.0080
   54CHL1  H19A 5143   5.160   0.499   3.124 -1.3002  1.4631  0.4153
   54CHL1  H19B 5144   5.224   0.410   3.263 -1.6375  0.6439  0.9955
   54CHL1  H19C 5145   5.198   0.585   3.262  0.6060 -0.1736  1.0570
   54CHL1    C1 5146   5.381   0.700   3.108 -0.1745 -0.0543 -0.4672
   54CHL1   H1A 5147   5.337   0.775   3.176  0.6218 -0.9675  1.1056
   54CHL1   H1B 5148   5.486   0.736   3.103 -0.2906  1.0083  2.7743
   54CHL1    C2 5149   5.316   0.705   2.966 -0.1457  0.0423  0.3069
   54CHL1   H2A 5150   5.321   0.808   2.925  1.9336  0.7221  2.0735
   54CHL1   H2B 5151   5.208   0.691   2.985 -0.9790  1.5095 -2.7009
   54CHL1   C20 5152   5.620   0.478   3.825 -0.0563  0.5092 -0.3781
   54CHL1   H20 5153   5.535   0.412   3.855 -0.8809  0.8843 -1.7800
   54CHL1   C21 5154   5.590   0.629   3.866  0.0739  0.4397 -0.1847
   54CHL1  H21A 5155   5.684   0.688   3.866  2.2830 -2.8225 -0.6091
   54CHL1  H21B 5156   5.547   0.641   3.968  0.6356 -1.8718  0.3903
   54CHL1  H21C 5157   5.515   0.678   3.801 -0.6051 -2.8213 -2.0478
   54CHL1   C22 5158   5.734   0.405   3.908 -0.0326  0.0254  0.4795
   54CHL1  H22A 5159   5.737   0.295   3.888 -1.9456  0.0486 -0.2340
   54CHL1  H22B 5160   5.827   0.461   3.887 -1.1358  1.4892 -0.7324
   54CHL1   C23 5161   5.700   0.406   4.059  0.5385 -0.2207 -0.1910
   54CHL1  H23A 5162   5.699   0.512   4.092 -0.8066 -0.2393 -0.1123
   54CHL1  H23B 5163   5.599   0.361   4.067  1.0546 -1.7060 -1.3577
   54CHL1   C24 5164   5.796   0.324   4.152  0.0391  0.1485 -0.2133
   54CHL1  H24A 5165   5.798   0.224   4.103 -0.5764 -0.4999  1.0324
   54CHL1  H24B 5166   5.902   0.359   4.148  0.2952 -0.6906 -1.3598
   54CHL1   C25 5167   5.749   0.317   4.302  0.0821 -1.1355  0.5424
   54CHL1   H25 5168   5.786   0.413   4.344 -1.3161 -0.1649 -0.3396
   54CHL1   C26 5169   5.596   0.311   4.324  0.4155  0.3973 -0.4251
   54CHL1  H26A 5170   5.548   0.218   4.285 -0.2950  1.4907 -2.2891
   54CHL1  H26B 5171   5.576   0.305   4.433  1.1588 -0.7357 -0.3304
   54CHL1  H26C 5172   5.543   0.398   4.280 -1.7976 -0.7180 -0.1286
   54CHL1   C27 5173   5.822   0.212   4.382  0.1681 -0.0775  0.2726
   54CHL1  H27A 5174   5.765   0.117   4.381 -0.3665  0.2232 -1.3495
   54CHL1  H27B 5175   5.921   0.192   4.335 -0.2516 -0.8949 -0.2896
   54CHL1  H27C 5176   5.838   0.245   4.487  0.9513  0.4649 -0.0063
   55CHL1    C3 5177   1.833   2.198   3.180 -0.3808 -0.5190  0.6135
   55CHL1    H3 5178   1.766   2.262   3.240  1.2690  0.7753  1.1689
   55CHL1    O3 5179   1.800   2.204   3.044 -0.1095  0.4087  0.0292
   55CHL1   H3' 5180   1.883   2.180   3.003 -0.4825  2.5568 -2.2502
   55CHL1    C4 5181   1.976   2.242   3.207 -0.4388  0.0352  0.5957
   55CHL1   H4A 5182   2.060   2.189   3.159  1.9894  1.7255  2.6934
   55CHL1   H4B 5183   1.976   2.344   3.162 -5.0034 -0.4188 -0.9782
   55CHL1    C5 5184   1.998   2.247   3.352  1.0961  0.5111 -0.5177
   55CHL1    C6 5185   2.033   2.362   3.415  0.7915 -0.2794 -0.2743
   55CHL1    H6 5186   2.036   2.457   3.360 -3.4149  0.1379 -0.1376
   55CHL1    C7 5187   2.060   2.375   3.565  0.2896  0.5783 -0.5682
   55CHL1   H7A 5188   2.151   2.436   3.583  0.7355 -0.6164  1.5491
   55CHL1   H7B 5189   1.989   2.439   3.621  0.1556  0.5028 -0.6499
   55CHL1    C8 5190   2.075   2.235   3.632  0.1900  0.0576  0.7548
   55CHL1    H8 5191   2.179   2.196   3.624  0.2261  0.2663  0.1665
   55CHL1   C14 5192   2.063   2.259   3.776 -1.1000  0.3472 -1.0285
   55CHL1   H14 5193   1.960   2.290   3.801 -0.5904  0.2262  1.5027
   55CHL1   C15 5194   2.152   2.367   3.839 -0.6904 -0.8456  0.3614
   55CHL1  H15A 5195   2.244   2.383   3.778 -0.5911  0.3871  0.8091
   55CHL1  H15B 5196   2.085   2.456   3.842  2.3521  1.6420 -0.3775
   55CHL1   C16 5197   2.185   2.313   3.979  0.1264  0.7323 -0.0492
   55CHL1  H16A 5198   2.295   2.299   3.991 -0.1094  0.7947  2.7623
   55CHL1  H16B 5199   2.161   2.397   4.047  0.7413  0.6394  0.2931
   55CHL1   C17 5200   2.101   2.186   4.007  0.2121 -0.5700 -0.1629
   55CHL1   H17 5201   2.003   2.226   4.039 -0.0877 -0.7854 -0.7914
   55CHL1   C13 5202   2.089   2.131   3.861 -0.6529  0.5697 -0.1297
   55CHL1   C18 5203   2.226   2.069   3.831  0.1317 -0.0844 -0.2643
   55CHL1  H18A 5204   2.247   1.979   3.892 -2.3074 -1.3810 -1.2355
   55CHL1  H18B 5205   2.231   2.030   3.727  0.2789 -1.1225  0.1218
   55CHL1  H18C 5206   2.313   2.135   3.854 -0.0255 -0.3607  1.2053
   55CHL1   C12 5207   1.968   2.040   3.819  0.7518 -0.4533  0.2872
   55CHL1  H12A 5208   1.981   1.942   3.870  0.8445  0.8425  2.8938
   55CHL1  H12B 5209   1.872   2.078   3.860  0.3428 -0.0305 -1.0225
   55CHL1   C11 5210   1.962   2.010   3.667  0.0840  0.0943 -0.3650
   55CHL1  H11A 5211   2.041   1.932   3.652  0.4424  0.2923  0.4413
   55CHL1  H11B 5212   1.863   1.966   3.645  0.5440 -0.4192 -1.4630
   55CHL1    C9 5213   1.968   2.134   3.579 -0.1540  0.6095  1.0073
   55CHL1    H9 5214   1.872   2.187   3.598 -1.4533 -1.9881  2.3176
   55CHL1   C10 5215   1.970   2.115   3.425  0.5658 -0.5703 -0.4910
   55CHL1   C19 5216   2.073   2.018   3.381  0.0008 -0.1261  0.0878
   55CHL1  H19A 5217   2.166   2.014   3.443  0.8767  0.8643 -1.1052
   55CHL1  H19B 5218   2.040   1.912   3.377  2.7689 -1.0923  0.4997
   55CHL1  H19C 5219   2.112   2.024   3.277 -1.2289 -0.2021 -0.3853
   55CHL1    C1 5220   1.841   2.058   3.374  0.4330 -0.1409 -0.2961
   55CHL1   H1A 5221   1.823   1.955   3.412 -2.2917 -0.2756 -1.6492
   55CHL1   H1B 5222   1.758   2.120   3.416 -1.1780 -0.4949 -2.7117
   55CHL1    C2 5223   1.812   2.059   3.227 -0.2453  0.4350  0.0327
   55CHL1   H2A 5224   1.706   2.032   3.210  0.0526 -0.5420 -0.3273
   55CHL1   H2B 5225   1.887   1.987   3.188  1.1115  1.4069  0.7545
   55CHL1   C20 5226   2.160   2.102   4.113 -0.1101  0.2664 -0.3348
   55CHL1   H20 5227   2.252   2.049   4.081  1.4195  1.8690  1.1991
   55CHL1   C21 5228   2.057   1.990   4.153  0.3037 -0.1971  0.1139
   55CHL1  H21A 5229   2.113   1.943   4.237  1.9883  1.0422 -0.2582
   55CHL1  H21B 5230   2.038   1.905   4.084 -1.9239  0.7792 -0.5768
   55CHL1  H21C 5231   1.957   2.030   4.181  0.9935 -0.3846  3.2521
   55CHL1   C22 5232   2.216   2.161   4.242 -0.5293 -0.2148  0.0368
   55CHL1  H22A 5233   2.255   2.077   4.303 -0.1459 -0.9425 -1.1840
   55CHL1  H22B 5234   2.304   2.225   4.222 -1.7969  1.3743 -0.6559
   55CHL1   C23 5235   2.129   2.261   4.326  0.1554  0.5670  0.4115
   55CHL1  H23A 5236   2.128   2.363   4.282  0.8383  1.8068  3.0288
   55CHL1  H23B 5237   2.025   2.223   4.313 -0.1266  1.6914 -0.8004
   55CHL1   C24 5238   2.173   2.279   4.475  0.0378  0.2204  0.0267
   55CHL1  H24A 5239   2.277   2.316   4.470  0.3753 -0.3847  1.7925
   55CHL1  H24B 5240   2.108   2.355   4.523 -1.6681 -0.9497 -0.3245
   55CHL1   C25 5241   2.178   2.149   4.554  0.2500  0.5349  0.1375
   55CHL1   H25 5242   2.249   2.083   4.499  1.9312  2.6966 -0.4247
   55CHL1   C26 5243   2.226   2.170   4.701  0.1764 -0.0374  0.5271
   55CHL1  H26A 5244   2.180   2.256   4.754 -2.2502  0.1249 -1.6587
   55CHL1  H26B 5245   2.211   2.081   4.767  3.3645 -1.7894 -0.8562
   55CHL1  H26C 5246   2.337   2.172   4.705  0.2885 -2.2220  0.0039
   55CHL1   C27 5247   2.040   2.083   4.543  0.3389  0.6662  0.1301
   55CHL1  H27A 5248   1.966   2.162   4.568 -3.0579 -1.2609 -2.7452
   55CHL1  H27B 5249   2.013   2.055   4.439 -0.7308  0.6712  0.3945
   55CHL1  H27C 5250   2.032   2.003   4.620 -2.8288  1.0420  0.3234
   56CHL1    C3 5251   3.035   2.973   3.146 -0.6255 -0.1664 -0.3755
   56CHL1    H3 5252   3.120   2.902   3.153 -0.7966 -0.5129 -1.5537
   56CHL1    O3 5253   3.012   3.005   3.010 -0.4225 -0.3591  0.9349
   56CHL1   H3' 5254   2.958   3.084   3.013  1.5849  1.0803  2.0031
   56CHL1    C4 5255   2.906   2.901   3.188 -0.6468  0.3201  0.1134
   56CHL1   H4A 5256   2.810   2.952   3.167  0.4042  1.3511 -2.4593
   56CHL1   H4B 5257   2.903   2.812   3.121  1.4912  0.9232 -0.8809
   56CHL1    C5 5258   2.902   2.869   3.334 -0.1112 -0.6693  0.8021
   56CHL1    C6 5259   2.878   2.744   3.377 -0.3435  0.2772 -0.3870
   56CHL1    H6 5260   2.847   2.667   3.305 -1.4922 -0.0716  0.4552
   56CHL1    C7 5261   2.895   2.697   3.519  0.1640 -0.0239 -0.1527
   56CHL1   H7A 5262   2.816   2.623   3.545  2.5633 -2.8906 -0.5095
   56CHL1   H7B 5263   2.992   2.644   3.504 -1.1845 -1.8125 -4.0634
   56CHL1    C8 5264   2.896   2.816   3.622  0.6762  0.1970 -0.0710
   56CHL1    H8 5265   2.798   2.868   3.628  1.8845  2.7228 -0.6778
   56CHL1   C14 5266   2.945   2.766   3.754 -0.2261  0.5909  0.4401
   56CHL1   H14 5267   3.047   2.726   3.737  0.1857  1.2794  1.1918
   56CHL1   C15 5268   2.874   2.649   3.826 -0.6310  0.2062 -0.1236
   56CHL1  H15A 5269   2.772   2.693   3.820 -0.8067 -0.1469  0.2358
   56CHL1  H15B 5270   2.892   2.548   3.783 -1.6152 -0.5404  1.1632
   56CHL1   C16 5271   2.925   2.647   3.965 -0.4891  0.0021  0.1162
   56CHL1  H16A 5272   2.837   2.658   4.032  0.0944  1.5626  0.6477
   56CHL1  H16B 5273   2.974   2.552   3.995  0.3971  0.4988  0.2454
   56CHL1   C17 5274   3.015   2.779   3.975  0.6178  0.1713  0.1748
   56CHL1   H17 5275   3.117   2.753   3.942  0.0041 -1.0379 -0.8523
   56CHL1   C13 5276   2.964   2.868   3.859 -0.6936 -0.1075  0.7323
   56CHL1   C18 5277   2.828   2.930   3.905  0.3466 -0.2395 -0.6422
   56CHL1  H18A 5278   2.849   3.022   3.964 -0.9191 -0.1080 -0.3587
   56CHL1  H18B 5279   2.751   2.948   3.827 -1.2754 -0.6994  0.8003
   56CHL1  H18C 5280   2.764   2.864   3.969 -2.0818  1.3643 -1.2863
   56CHL1   C12 5281   3.063   2.977   3.807  0.4537 -0.0145 -0.1915
   56CHL1  H12A 5282   3.068   3.052   3.889  1.4726  0.3072 -0.5263
   56CHL1  H12B 5283   3.168   2.944   3.789  0.6495  1.2071 -1.4837
   56CHL1   C11 5284   3.008   3.039   3.679  0.2467 -0.4049  0.1070
   56CHL1  H11A 5285   2.911   3.085   3.706  1.1632  2.4882 -1.1493
   56CHL1  H11B 5286   3.071   3.121   3.639 -1.3155  0.2754 -1.0734
   56CHL1    C9 5287   2.990   2.926   3.570  0.2836  0.2054  0.2412
   56CHL1    H9 5288   3.089   2.877   3.559  1.6913  2.7132  0.8744
   56CHL1   C10 5289   2.946   2.984   3.429 -0.2480  0.1437  0.3799
   56CHL1   C19 5290   2.818   3.073   3.434 -0.3410 -0.2935  0.4777
   56CHL1  H19A 5291   2.842   3.169   3.487  2.3562 -1.4158  1.4936
   56CHL1  H19B 5292   2.785   3.091   3.330  2.6752 -1.6992 -0.8686
   56CHL1  H19C 5293   2.746   3.024   3.503 -1.6740 -1.1928 -1.4927
   56CHL1    C1 5294   3.066   3.064   3.379  0.4930 -0.6576 -0.1949
   56CHL1   H1A 5295   3.070   3.158   3.438 -0.8219 -0.5879 -0.1735
   56CHL1   H1B 5296   3.163   3.013   3.398  1.3485  0.3519 -1.6072
   56CHL1    C2 5297   3.059   3.102   3.234  0.3243  0.0680  0.8643
   56CHL1   H2A 5298   3.149   3.155   3.197 -0.3940  0.4955 -0.3509
   56CHL1   H2B 5299   2.973   3.172   3.219 -0.3037 -0.9377 -0.4366
   56CHL1   C20 5300   3.020   2.827   4.130 -0.3627 -0.5583  0.7689
   56CHL1   H20 5301   2.914   2.850   4.153 -0.4428 -0.4001  0.2660
   56CHL1   C21 5302   3.097   2.962   4.149  0.3957 -0.3564 -0.0203
   56CHL1  H21A 5303   3.067   3.044   4.080 -0.9779  0.1550  1.1180
   56CHL1  H21B 5304   3.204   2.948   4.125  0.1388 -0.7596 -0.9662
   56CHL1  H21C 5305   3.082   2.998   4.253 -3.5908 -0.2384 -0.4765
   56CHL1   C22 5306   3.073   2.713   4.216 -0.7930  0.9460 -0.5142
   56CHL1  H22A 5307   2.990   2.641   4.229  0.0728 -0.0394 -0.3274
   56CHL1  H22B 5308   3.157   2.655   4.174  0.4938  0.9662  1.8363
   56CHL1   C23 5309   3.102   2.747   4.364  0.7735 -0.0431  1.0336
   56CHL1  H23A 5310   3.168   2.836   4.367 -2.8924  2.9159  2.2550
   56CHL1  H23B 5311   3.010   2.787   4.412  0.5589  0.1704  0.4549
   56CHL1   C24 5312   3.164   2.627   4.432  0.3010  0.1925  0.3599
   56CHL1  H24A 5313   3.091   2.544   4.421  0.1722  0.6319 -2.9150
   56CHL1  H24B 5314   3.262   2.609   4.383  0.5649  4.9722 -1.4188
   56CHL1   C25 5315   3.203   2.637   4.579  0.0695  0.7058 -0.0275
   56CHL1   H25 5316   3.236   2.535   4.608 -2.3093  0.0069  0.4251
   56CHL1   C26 5317   3.324   2.735   4.601 -0.5351  0.1428 -0.4525
   56CHL1  H26A 5318   3.324   2.742   4.711 -2.1063 -0.5799 -0.3697
   56CHL1  H26B 5319   3.419   2.692   4.565 -0.6546 -2.1265  1.7033
   56CHL1  H26C 5320   3.286   2.832   4.560 -1.0326 -0.2170 -0.8631
   56CHL1   C27 5321   3.078   2.663   4.668 -0.4582  0.3872 -0.3392
   56CHL1  H27A 5322   3.030   2.760   4.644  0.2051  1.3291  1.9639
   56CHL1  H27B 5323   2.999   2.586   4.651  1.1329 -1.4219  0.1650
   56CHL1  H27C 5324   3.108   2.655   4.774  0.2690 -1.3097 -0.6233
   57CHL1    C3 5325   1.646   2.707   3.374  0.9423  1.1287  0.0641
   57CHL1    H3 5326   1.681   2.812   3.363 -0.1873  1.7016  1.4522
   57CHL1    O3 5327   1.613   2.655   3.246 -0.1462  0.3596 -0.2010
   57CHL1   H3' 5328   1.533   2.602   3.253  0.0913  0.0068 -0.1322
   57CHL1    C4 5329   1.760   2.622   3.423  0.0455  0.2623  0.0005
   57CHL1   H4A 5330   1.732   2.516   3.406 -1.8774  0.9536 -1.6421
   57CHL1   H4B 5331   1.843   2.643   3.352  1.4828 -2.4286  0.7367
   57CHL1    C5 5332   1.799   2.653   3.569 -0.1303  0.4219 -1.2909
   57CHL1    C6 5333   1.926   2.689   3.601  0.6052 -0.3575  0.2550
   57CHL1    H6 5334   2.007   2.689   3.526  1.1565  2.2987  0.7512
   57CHL1    C7 5335   1.968   2.721   3.743  0.6073 -0.2606  0.2084
   57CHL1   H7A 5336   2.071   2.678   3.750  1.5201  1.0298 -3.2036
   57CHL1   H7B 5337   1.970   2.832   3.745 -0.3444 -0.1587 -1.6944
   57CHL1    C8 5338   1.870   2.668   3.853 -1.0772 -0.1827 -0.1016
   57CHL1    H8 5339   1.888   2.561   3.876 -0.4828 -0.1782 -0.5231
   57CHL1   C14 5340   1.904   2.745   3.984  1.0755  0.3134 -0.5250
   57CHL1   H14 5341   1.865   2.848   3.970 -3.0202 -0.8518  0.8872
   57CHL1   C15 5342   2.050   2.741   4.023 -0.1989  0.0623 -0.0314
   57CHL1  H15A 5343   2.094   2.639   4.012  0.4931  0.5451 -2.2507
   57CHL1  H15B 5344   2.126   2.808   3.979  1.7305 -2.0997 -0.1592
   57CHL1   C16 5345   2.042   2.772   4.177  0.4123  0.1431 -0.0179
   57CHL1  H16A 5346   2.098   2.690   4.228 -0.7378 -0.8849 -0.3800
   57CHL1  H16B 5347   2.088   2.867   4.212  2.3711 -0.9449  0.5307
   57CHL1   C17 5348   1.884   2.784   4.213  0.0186  0.0278  0.1176
   57CHL1   H17 5349   1.848   2.886   4.186  1.6629  0.9666  1.2438
   57CHL1   C13 5350   1.818   2.696   4.105  0.7255  0.3331  0.0014
   57CHL1   C18 5351   1.836   2.541   4.140 -0.1173 -0.2570 -0.0391
   57CHL1  H18A 5352   1.767   2.513   4.222  1.0972 -2.1117  0.4081
   57CHL1  H18B 5353   1.816   2.469   4.057  0.1804 -1.8938  1.2637
   57CHL1  H18C 5354   1.937   2.535   4.186 -0.4861  0.4707  0.9007
   57CHL1   C12 5355   1.669   2.723   4.068  0.0825  0.5246  0.3077
   57CHL1  H12A 5356   1.594   2.677   4.136 -0.9866 -2.8516 -2.8287
   57CHL1  H12B 5357   1.644   2.831   4.074 -0.0605  0.4432  1.4190
   57CHL1   C11 5358   1.633   2.664   3.925  0.4874 -1.0444 -0.8761
   57CHL1  H11A 5359   1.630   2.554   3.935 -0.4995 -0.9909 -0.4208
   57CHL1  H11B 5360   1.531   2.701   3.900  1.2433  0.0050 -2.5472
   57CHL1    C9 5361   1.729   2.708   3.810 -0.3418  0.5705 -0.0664
   57CHL1    H9 5362   1.733   2.819   3.804 -1.8115  0.8220  2.1548
   57CHL1   C10 5363   1.681   2.646   3.671 -0.5232  0.4660 -0.1474
   57CHL1   C19 5364   1.631   2.499   3.685  0.1591  0.4464 -0.8197
   57CHL1  H19A 5365   1.705   2.448   3.750  0.8337  1.1154 -1.0471
   57CHL1  H19B 5366   1.534   2.499   3.738  0.3933  0.1112 -0.3881
   57CHL1  H19C 5367   1.619   2.450   3.585 -1.7336 -0.4705 -0.1874
   57CHL1    C1 5368   1.562   2.726   3.618 -0.3299  0.4376  0.6933
   57CHL1   H1A 5369   1.480   2.692   3.686 -1.5958 -0.2086 -1.0937
   57CHL1   H1B 5370   1.586   2.832   3.643 -0.5348  0.5219  0.5324
   57CHL1    C2 5371   1.526   2.705   3.468  0.1952  0.1518 -0.2344
   57CHL1   H2A 5372   1.446   2.782   3.456 -0.4898 -0.4928  0.0813
   57CHL1   H2B 5373   1.471   2.609   3.457 -1.1675  0.9939 -1.2584
   57CHL1   C20 5374   1.846   2.760   4.353  0.0438 -0.1275  0.1416
   57CHL1   H20 5375   1.741   2.723   4.347  0.6432 -2.3055  1.7235
   57CHL1   C21 5376   1.845   2.897   4.419  0.7485 -0.8054 -0.2116
   57CHL1  H21A 5377   1.944   2.940   4.443  0.4191  0.1565 -0.5418
   57CHL1  H21B 5378   1.796   2.896   4.518  0.4908 -0.0769 -0.3285
   57CHL1  H21C 5379   1.787   2.970   4.359  0.8497  0.8028  1.5398
   57CHL1   C22 5380   1.931   2.671   4.439  0.3530 -0.0192 -0.5344
   57CHL1  H22A 5381   1.925   2.567   4.399  0.3762 -0.0123 -0.5550
   57CHL1  H22B 5382   2.036   2.708   4.441  0.1477  0.6733  2.4329
   57CHL1   C23 5383   1.889   2.656   4.590  0.2602 -0.0608  0.1326
   57CHL1  H23A 5384   1.885   2.755   4.640 -0.0893  0.0693 -0.1531
   57CHL1  H23B 5385   1.793   2.600   4.585  1.3519 -2.2245  1.6651
   57CHL1   C24 5386   1.981   2.569   4.676  0.5323  0.2774  0.2281
   57CHL1  H24A 5387   1.981   2.463   4.646  0.7312  0.9062 -2.1788
   57CHL1  H24B 5388   2.084   2.611   4.666 -0.0858  2.2113  1.3192
   57CHL1   C25 5389   1.947   2.566   4.828  0.8554  0.4562  0.2602
   57CHL1   H25 5390   2.026   2.509   4.881  0.4996  1.6202  2.1260
   57CHL1   C26 5391   1.946   2.702   4.902 -0.1368 -0.0757 -0.0962
   57CHL1  H26A 5392   1.851   2.752   4.873 -0.9863 -1.3416  0.4675
   57CHL1  H26B 5393   1.960   2.695   5.012  0.9849  2.3099 -0.0026
   57CHL1  H26C 5394   2.032   2.764   4.868 -0.8665  0.3499 -1.2478
   57CHL1   C27 5395   1.812   2.502   4.863 -0.2258  0.1496  0.0839
   57CHL1  H27A 5396   1.734   2.552   4.802 -0.8650 -0.8054  0.0928
   57CHL1  H27B 5397   1.803   2.391   4.854  0.5773  0.1203 -0.4812
   57CHL1  H27C 5398   1.781   2.519   4.968  1.1453  0.4744  0.4509
   58CHL1    C3 5399   1.015   1.027   2.818 -0.3060  0.5525 -0.3009
   58CHL1    H3 5400   1.098   1.100   2.833 -0.0410  0.1735  0.0868
   58CHL1    O3 5401   0.991   1.002   2.679 -0.8231 -0.5424 -0.3882
   58CHL1   H3' 5402   0.915   0.944   2.675 -1.2832  0.1043 -2.5078
   58CHL1    C4 5403   1.055   0.878   2.866 -0.6181 -0.4236 -1.0930
   58CHL1   H4A 5404   0.977   0.801   2.847 -0.4910 -1.0517  0.7077
   58CHL1   H4B 5405   1.143   0.853   2.804 -0.2704 -1.1228 -0.3301
   58CHL1    C5 5406   1.068   0.879   3.017 -0.3946 -0.2201 -0.2710
   58CHL1    C6 5407   1.175   0.838   3.076 -0.1337  0.5028 -0.2529
   58CHL1    H6 5408   1.253   0.795   3.011  1.8587  3.3851  0.0133
   58CHL1    C7 5409   1.196   0.848   3.223 -0.4367 -0.1149 -0.3388
   58CHL1   H7A 5410   1.255   0.758   3.248  1.1823  1.4850  2.1304
   58CHL1   H7B 5411   1.268   0.931   3.242 -1.0404 -0.0434  2.0327
   58CHL1    C8 5412   1.068   0.843   3.303  0.8648 -0.3611  0.5281
   58CHL1    H8 5413   1.015   0.747   3.287 -0.1653 -0.4543  3.8860
   58CHL1   C14 5414   1.103   0.871   3.445 -0.4684  0.1651  0.7562
   58CHL1   H14 5415   1.150   0.971   3.449 -1.6713  0.7609  0.4131
   58CHL1   C15 5416   1.200   0.771   3.511  0.5364 -1.1238 -0.6217
   58CHL1  H15A 5417   1.179   0.674   3.463 -0.5301 -0.2401 -2.0284
   58CHL1  H15B 5418   1.301   0.803   3.476 -0.1268  1.2735 -0.5153
   58CHL1   C16 5419   1.174   0.793   3.665  0.2449  0.0002 -0.2247
   58CHL1  H16A 5420   1.140   0.699   3.713  2.2604 -0.2497  0.8165
   58CHL1  H16B 5421   1.268   0.824   3.717  1.0361 -1.9122 -0.4588
   58CHL1   C17 5422   1.063   0.899   3.675  0.1508  0.0305 -0.7161
   58CHL1   H17 5423   1.102   1.003   3.675  1.5748 -0.3832  2.6404
   58CHL1   C13 5424   0.983   0.878   3.545 -0.6197  0.5830  0.2893
   58CHL1   C18 5425   0.902   0.749   3.553 -0.1668  0.1850  0.0901
   58CHL1  H18A 5426   0.970   0.665   3.581  1.2077  0.9292 -0.8486
   58CHL1  H18B 5427   0.832   0.766   3.638  0.4352  0.7628  0.4851
   58CHL1  H18C 5428   0.843   0.714   3.466  0.0884  1.0282 -0.4376
   58CHL1   C12 5429   0.892   0.998   3.495  0.0414  0.2592  1.0904
   58CHL1  H12A 5430   0.796   1.000   3.551  0.6058  0.1861  2.0711
   58CHL1  H12B 5431   0.938   1.099   3.499  0.7081  0.0427 -0.2664
   58CHL1   C11 5432   0.852   0.974   3.353 -0.1361  0.4809  0.4116
   58CHL1  H11A 5433   0.787   0.885   3.347  0.5008  0.0513 -0.3513
   58CHL1  H11B 5434   0.796   1.063   3.316 -0.4469  0.1977  0.1971
   58CHL1    C9 5435   0.975   0.952   3.253  0.5396  0.5166 -0.0548
   58CHL1    H9 5436   1.033   1.045   3.268 -1.3915  1.4657  2.2288
   58CHL1   C10 5437   0.946   0.934   3.098 -0.4072 -0.0985 -0.5770
   58CHL1   C19 5438   0.840   0.829   3.083 -0.3129  0.0806  0.6030
   58CHL1  H19A 5439   0.870   0.724   3.105 -1.1034  0.2884  2.9004
   58CHL1  H19B 5440   0.751   0.855   3.144  1.4213 -0.3090  3.4872
   58CHL1  H19C 5441   0.817   0.829   2.974  0.0825 -0.0284  0.5166
   58CHL1    C1 5442   0.901   1.074   3.044  0.2224 -0.6174  0.6040
   58CHL1   H1A 5443   0.806   1.106   3.091 -0.5173 -0.3363 -1.0463
   58CHL1   H1B 5444   0.981   1.147   3.070 -0.8347  0.4133  1.0124
   58CHL1    C2 5445   0.891   1.083   2.892  0.1383 -0.1392 -0.7832
   58CHL1   H2A 5446   0.862   1.184   2.855 -0.1662  0.3505  0.7308
   58CHL1   H2B 5447   0.805   1.025   2.850  0.9502 -1.4570 -0.6743
   58CHL1   C20 5448   0.995   0.895   3.811 -0.5347  0.7735 -0.6867
   58CHL1   H20 5449   0.945   0.796   3.818  2.4940 -0.9865 -2.0366
   58CHL1   C21 5450   0.893   1.008   3.814  0.7456 -0.0780 -0.4411
   58CHL1  H21A 5451   0.943   1.099   3.774 -0.1691  1.5305  1.8371
   58CHL1  H21B 5452   0.864   1.030   3.920 -1.6706  1.5852 -1.3519
   58CHL1  H21C 5453   0.795   0.982   3.768 -0.3859  1.4934  0.9398
   58CHL1   C22 5454   1.096   0.897   3.937 -1.0282  1.2585  0.3024
   58CHL1  H22A 5455   1.032   0.894   4.028 -1.3934 -0.7818  0.0303
   58CHL1  H22B 5456   1.153   0.801   3.939 -0.7900  1.3992  2.4867
   58CHL1   C23 5457   1.201   1.004   3.950 -0.0229 -0.2149 -0.2553
   58CHL1  H23A 5458   1.270   0.994   3.864  2.3996 -0.9403  1.6363
   58CHL1  H23B 5459   1.140   1.097   3.945 -0.0156 -0.2627 -1.4172
   58CHL1   C24 5460   1.279   0.995   4.079  0.0120 -0.1022 -0.1395
   58CHL1  H24A 5461   1.219   0.992   4.173  0.5359 -0.6807  0.1899
   58CHL1  H24B 5462   1.341   0.903   4.085 -0.8588 -0.6470  1.2562
   58CHL1   C25 5463   1.367   1.122   4.114  0.5669  0.4753  0.0317
   58CHL1   H25 5464   1.442   1.131   4.033  1.3682 -0.4270  0.6522
   58CHL1   C26 5465   1.296   1.256   4.117  0.3187  0.1235  0.7156
   58CHL1  H26A 5466   1.376   1.332   4.127  0.7942 -0.5020  1.8481
   58CHL1  H26B 5467   1.244   1.279   4.021  2.5061 -0.1815 -0.6249
   58CHL1  H26C 5468   1.229   1.261   4.205 -0.0579 -1.1651  0.5279
   58CHL1   C27 5469   1.437   1.092   4.248 -0.2106 -0.2201  0.7044
   58CHL1  H27A 5470   1.519   1.166   4.261 -0.9448  0.2797  2.8951
   58CHL1  H27B 5471   1.376   1.099   4.341 -0.5773  1.8919  0.3512
   58CHL1  H27C 5472   1.482   0.991   4.243  1.0833  0.2929  1.4234
   59CHL1    C3 5473   5.955   2.319   2.973 -0.4631 -0.0244  0.3037
   59CHL1    H3 5474   6.062   2.340   2.998 -0.2398 -0.5782 -0.1543
   59CHL1    O3 5475   5.907   2.324   2.837 -0.1325 -0.1161  0.2109
   59CHL1   H3' 5476   5.865   2.410   2.824 -2.7258 -1.1833  0.8973
   59CHL1    C4 5477   5.926   2.169   3.007  0.4845  0.5074 -0.1291
   59CHL1   H4A 5478   5.818   2.159   2.986  0.2442  1.3787  0.6223
   59CHL1   H4B 5479   5.994   2.111   2.940  1.9926  2.9422 -0.8575
   59CHL1    C5 5480   5.955   2.139   3.157 -0.2975  0.1502  0.2813
   59CHL1    C6 5481   6.051   2.049   3.195  0.1768  0.1310 -0.2882
   59CHL1    H6 5482   6.111   1.994   3.121 -1.3593 -2.4046  0.2503
   59CHL1    C7 5483   6.081   2.018   3.339  0.5984  0.1406 -0.2363
   59CHL1   H7A 5484   6.104   1.909   3.339  0.1042  0.0286 -0.8673
   59CHL1   H7B 5485   6.170   2.075   3.374  0.7490 -0.7209  0.8278
   59CHL1    C8 5486   5.955   2.048   3.430 -0.3396  0.5874  0.5197
   59CHL1    H8 5487   5.880   1.973   3.397  0.1717  0.0327  0.6028
   59CHL1   C14 5488   5.998   2.038   3.576  0.0348  0.3356 -0.0203
   59CHL1   H14 5489   6.084   2.107   3.593 -0.2848  0.1196  2.8552
   59CHL1   C15 5490   6.055   1.906   3.620 -0.1934 -0.1259 -0.2395
   59CHL1  H15A 5491   5.998   1.819   3.582 -0.1244 -0.3880  0.2493
   59CHL1  H15B 5492   6.162   1.897   3.592 -0.0180 -0.3854  0.4799
   59CHL1   C16 5493   6.053   1.917   3.773 -0.2042  0.7396  0.1009
   59CHL1  H16A 5494   6.008   1.819   3.801  0.6686  0.4164  0.4010
   59CHL1  H16B 5495   6.154   1.913   3.820 -1.3050  1.7891  2.7852
   59CHL1   C17 5496   5.968   2.044   3.807  0.3653  0.3093 -0.4273
   59CHL1   H17 5497   6.047   2.121   3.820  0.9260 -0.1813 -0.8738
   59CHL1   C13 5498   5.897   2.074   3.679  0.4403 -0.3064 -0.0018
   59CHL1   C18 5499   5.772   1.977   3.666  0.2514  0.2074 -0.1929
   59CHL1  H18A 5500   5.685   2.009   3.727  0.4804  0.2825  0.0949
   59CHL1  H18B 5501   5.746   1.956   3.560 -0.8722 -0.0309  0.1083
   59CHL1  H18C 5502   5.814   1.878   3.694  1.7591  0.5112 -1.2493
   59CHL1   C12 5503   5.861   2.226   3.648 -0.1871  0.8421 -0.9216
   59CHL1  H12A 5504   5.790   2.266   3.723  1.9762  0.6716  1.3684
   59CHL1  H12B 5505   5.956   2.281   3.665  0.1604 -0.3226  1.3364
   59CHL1   C11 5506   5.811   2.242   3.503  0.3256 -0.3658  0.0679
   59CHL1  H11A 5507   5.710   2.195   3.509  0.1191 -0.0185 -0.6023
   59CHL1  H11B 5508   5.796   2.350   3.483 -1.2536 -0.3928  0.9295
   59CHL1    C9 5509   5.908   2.190   3.403 -0.1854  0.1248  0.8280
   59CHL1    H9 5510   5.993   2.260   3.423  1.1704 -0.9750 -0.8180
   59CHL1   C10 5511   5.870   2.219   3.257  0.3143  0.7597 -0.2722
   59CHL1   C19 5512   5.719   2.182   3.247 -0.2455  0.0876  0.4057
   59CHL1  H19A 5513   5.706   2.073   3.265  2.6765 -0.6281 -1.2286
   59CHL1  H19B 5514   5.657   2.241   3.319 -1.3050  0.6798 -0.9444
   59CHL1  H19C 5515   5.681   2.205   3.145  1.8383 -1.6956 -0.8632
   59CHL1    C1 5516   5.898   2.367   3.219  0.2982  0.7614  0.6108
   59CHL1   H1A 5517   5.837   2.438   3.278 -0.0589  1.6823 -0.8121
   59CHL1   H1B 5518   5.997   2.406   3.253 -0.0106  1.0349  1.2075
   59CHL1    C2 5519   5.870   2.406   3.072  0.1096  0.4332 -0.5171
   59CHL1   H2A 5520   5.885   2.515   3.059  1.8706  0.3172  0.1820
   59CHL1   H2B 5521   5.761   2.397   3.051  0.5688 -0.3752 -2.8732
   59CHL1   C20 5522   5.884   2.031   3.935 -0.3735 -0.4807  0.2990
   59CHL1   H20 5523   5.801   1.962   3.911  1.4911 -2.7923  0.1011
   59CHL1   C21 5524   5.823   2.164   3.990  0.2738 -0.0633 -0.3932
   59CHL1  H21A 5525   5.905   2.215   4.046 -1.1585  0.6000  1.1632
   59CHL1  H21B 5526   5.739   2.141   4.058  0.1478  0.7379 -0.2717
   59CHL1  H21C 5527   5.783   2.232   3.912 -1.1998  0.8898  1.1350
   59CHL1   C22 5528   5.955   1.963   4.054  0.3429  0.2812 -0.0865
   59CHL1  H22A 5529   5.992   1.865   4.017 -2.3831 -0.2247 -1.7659
   59CHL1  H22B 5530   6.041   2.026   4.083  0.4897  0.8421 -1.6702
   59CHL1   C23 5531   5.875   1.915   4.183 -0.2181 -0.2643  0.3417
   59CHL1  H23A 5532   5.857   2.015   4.227 -0.8343  1.0407 -2.6349
   59CHL1  H23B 5533   5.777   1.869   4.159 -0.1659  0.2996 -1.0245
   59CHL1   C24 5534   5.940   1.832   4.291 -0.1426 -0.8394  0.6947
   59CHL1  H24A 5535   5.928   1.727   4.257 -0.8482  0.1434 -2.4283
   59CHL1  H24B 5536   6.050   1.847   4.296 -0.1725 -0.0373 -0.5534
   59CHL1   C25 5537   5.887   1.856   4.436 -0.2595  0.2560  0.3075
   59CHL1   H25 5538   5.940   1.785   4.504 -1.8556  1.0595  2.5101
   59CHL1   C26 5539   5.935   2.000   4.485 -0.1810 -0.1724 -0.1127
   59CHL1  H26A 5540   5.963   2.002   4.593 -0.5238 -0.5854 -0.0149
   59CHL1  H26B 5541   6.025   2.040   4.433 -0.0058  1.4044  1.2946
   59CHL1  H26C 5542   5.854   2.075   4.471  1.0631  1.1257 -0.6093
   59CHL1   C27 5543   5.737   1.835   4.451 -0.0841 -1.1162 -0.1411
   59CHL1  H27A 5544   5.682   1.920   4.406  1.5771  2.0965  3.4091
   59CHL1  H27B 5545   5.695   1.744   4.402 -0.6418 -0.1403 -1.5521
   59CHL1  H27C 5546   5.723   1.825   4.560 -1.5890 -0.8909 -0.2948
   60CHL1    C3 5547   0.658   5.746   3.226 -0.3633  0.6340  0.4520
   60CHL1    H3 5548   0.686   5.641   3.252 -0.6788  0.2156 -0.8497
   60CHL1    O3 5549   0.640   5.748   3.086 -0.1573 -0.4051 -0.0333
   60CHL1   H3' 5550   0.722   5.762   3.039 -1.1410  0.4982 -1.5580
   60CHL1    C4 5551   0.523   5.780   3.295  0.6125  0.0724 -0.0811
   60CHL1   H4A 5552   0.502   5.881   3.254  3.7499 -0.2529 -2.9264
   60CHL1   H4B 5553   0.446   5.704   3.272  0.4220  0.0553  0.5811
   60CHL1    C5 5554   0.545   5.785   3.446 -0.6785  0.7545  0.6582
   60CHL1    C6 5555   0.478   5.700   3.529 -0.6326 -0.4775  0.1821
   60CHL1    H6 5556   0.395   5.640   3.489 -1.5032 -0.3377  1.7147
   60CHL1    C7 5557   0.494   5.692   3.684  0.0227 -0.2774  0.4519
   60CHL1   H7A 5558   0.398   5.697   3.739  0.1747  0.0528  0.6907
   60CHL1   H7B 5559   0.550   5.599   3.710  1.4476  0.2006 -0.7623
   60CHL1    C8 5560   0.578   5.820   3.729 -0.3369  0.3910 -0.3730
   60CHL1    H8 5561   0.511   5.908   3.716  0.5216  0.8615 -1.8321
   60CHL1   C14 5562   0.625   5.810   3.873  0.6624  0.9009 -0.1957
   60CHL1   H14 5563   0.688   5.719   3.873 -1.0174 -0.3179 -1.5393
   60CHL1   C15 5564   0.508   5.782   3.972 -0.5666 -0.2473  0.2031
   60CHL1  H15A 5565   0.426   5.849   3.940 -0.3368  0.2036  0.5360
   60CHL1  H15B 5566   0.475   5.676   3.963 -0.1131 -0.5561  1.8289
   60CHL1   C16 5567   0.572   5.801   4.108  0.2131 -0.3729 -0.7383
   60CHL1  H16A 5568   0.503   5.858   4.174  0.4217  1.1943 -1.8117
   60CHL1  H16B 5569   0.599   5.704   4.155  0.6129 -0.3399 -0.8998
   60CHL1   C17 5570   0.706   5.878   4.082 -0.0645 -0.0793  0.7939
   60CHL1   H17 5571   0.786   5.801   4.084  0.3976  0.1492 -2.6579
   60CHL1   C13 5572   0.697   5.933   3.934  0.9915 -0.6982 -0.4481
   60CHL1   C18 5573   0.606   6.055   3.932 -0.0902  1.5799 -0.0092
   60CHL1  H18A 5574   0.529   6.039   4.010  0.1881 -0.8031 -0.1685
   60CHL1  H18B 5575   0.661   6.147   3.965  2.5326  0.4727 -0.9935
   60CHL1  H18C 5576   0.551   6.058   3.835  1.9677  1.5669 -1.2358
   60CHL1   C12 5577   0.827   5.959   3.851  0.0311  0.0562  0.1205
   60CHL1  H12A 5578   0.888   6.045   3.887  1.5284 -0.4786 -1.0484
   60CHL1  H12B 5579   0.889   5.867   3.858  1.0425  0.8081  1.5175
   60CHL1   C11 5580   0.787   5.970   3.700 -0.3825 -0.3048 -0.2125
   60CHL1  H11A 5581   0.724   6.062   3.700  0.6945  0.4492  1.0010
   60CHL1  H11B 5582   0.879   5.985   3.640  0.5227  0.7196  1.3779
   60CHL1    C9 5583   0.700   5.853   3.642  0.0649  0.1385 -0.2244
   60CHL1    H9 5584   0.768   5.766   3.653 -0.4188 -0.6420 -2.7538
   60CHL1   C10 5585   0.663   5.875   3.499  0.4949  0.0533  0.6034
   60CHL1   C19 5586   0.610   6.018   3.471  0.0015  0.1213 -0.0825
   60CHL1  H19A 5587   0.695   6.089   3.474  0.8965 -0.9319  0.9070
   60CHL1  H19B 5588   0.564   6.031   3.371 -1.1402  0.0904  0.4184
   60CHL1  H19C 5589   0.532   6.051   3.543  0.1622 -0.5679  0.4196
   60CHL1    C1 5590   0.791   5.847   3.421 -0.7045  0.8665  0.1509
   60CHL1   H1A 5591   0.870   5.922   3.445 -2.2430  2.1286  1.5443
   60CHL1   H1B 5592   0.833   5.747   3.447  3.5102  2.1267 -1.0466
   60CHL1    C2 5593   0.768   5.849   3.276 -0.8079 -0.0874  0.8421
   60CHL1   H2A 5594   0.863   5.836   3.222 -1.4605 -0.9194 -0.1459
   60CHL1   H2B 5595   0.736   5.953   3.251 -0.4744  0.6118  3.0930
   60CHL1   C20 5596   0.722   5.976   4.200 -0.8255 -0.2528 -0.1768
   60CHL1   H20 5597   0.636   6.045   4.205 -1.0059 -0.5672  2.4975
   60CHL1   C21 5598   0.858   6.065   4.187  0.1541  0.1119 -0.0318
   60CHL1  H21A 5599   0.942   5.994   4.198 -0.5728 -0.3905  3.1400
   60CHL1  H21B 5600   0.865   6.138   4.270  1.2029 -1.3031  1.1699
   60CHL1  H21C 5601   0.866   6.128   4.095 -1.0746  1.6133  0.8365
   60CHL1   C22 5602   0.720   5.913   4.344 -0.0115 -0.0133  0.1491
   60CHL1  H22A 5603   0.630   5.848   4.345 -1.0627  1.4006  0.3892
   60CHL1  H22B 5604   0.811   5.852   4.359 -0.3440 -0.6333 -0.3164
   60CHL1   C23 5605   0.705   6.004   4.465 -0.3879 -0.1777 -0.3176
   60CHL1  H23A 5606   0.777   6.089   4.470 -1.5869  1.0165 -2.0748
   60CHL1  H23B 5607   0.603   6.050   4.466  1.2450  3.8481 -0.8713
   60CHL1   C24 5608   0.718   5.921   4.598 -0.5831 -0.0879 -0.2628
   60CHL1  H24A 5609   0.640   5.843   4.596 -2.3361  1.5917 -0.4127
   60CHL1  H24B 5610   0.818   5.872   4.598  0.1946  1.3648 -2.1556
   60CHL1   C25 5611   0.710   5.996   4.731  0.0416 -0.0217 -0.0623
   60CHL1   H25 5612   0.624   6.065   4.747 -1.1269 -1.3152 -0.5703
   60CHL1   C26 5613   0.697   5.898   4.846  0.3043  0.3498  0.1624
   60CHL1  H26A 5614   0.668   5.937   4.946 -0.0385 -1.6406  0.8882
   60CHL1  H26B 5615   0.611   5.828   4.846  1.1553 -0.7775  2.0261
   60CHL1  H26C 5616   0.784   5.829   4.852  0.4139  0.2129 -2.0881
   60CHL1   C27 5617   0.819   6.102   4.755 -0.2384 -0.3741 -0.3484
   60CHL1  H27A 5618   0.813   6.144   4.858  1.9091  0.0597 -0.3541
   60CHL1  H27B 5619   0.920   6.055   4.745  0.8460  1.6149  0.6340
   60CHL1  H27C 5620   0.810   6.172   4.670 -0.1535 -1.6629 -1.4553
   61CHL1    C3 5621   1.527   3.286   3.382  0.0877  0.8225 -0.6989
   61CHL1    H3 5622   1.425   3.330   3.375  1.0535  3.4437  0.4821
   61CHL1    O3 5623   1.588   3.289   3.258 -0.0425  0.2541 -0.3791
   61CHL1   H3' 5624   1.585   3.200   3.223 -0.8165 -0.3359  1.0940
   61CHL1    C4 5625   1.607   3.359   3.483  0.4273  0.2501 -0.0012
   61CHL1   H4A 5626   1.716   3.343   3.477  0.2585 -0.6528 -0.7779
   61CHL1   H4B 5627   1.600   3.467   3.457  3.4498  1.0725  2.1372
   61CHL1    C5 5628   1.571   3.349   3.631 -0.4119 -0.4912  0.1538
   61CHL1    C6 5629   1.552   3.450   3.718  0.5684  0.9675 -0.9342
   61CHL1    H6 5630   1.557   3.553   3.681 -2.4313  0.8415 -2.0234
   61CHL1    C7 5631   1.512   3.433   3.861  0.4632  0.2236  0.1219
   61CHL1   H7A 5632   1.576   3.499   3.924  0.1626  0.9963 -0.3645
   61CHL1   H7B 5633   1.405   3.461   3.870  1.0046  3.3500 -1.6559
   61CHL1    C8 5634   1.525   3.295   3.913  0.0407  0.1513 -0.3101
   61CHL1    H8 5635   1.631   3.266   3.931  0.1758  0.2045 -0.9908
   61CHL1   C14 5636   1.450   3.280   4.050 -0.5140  0.1246 -1.1301
   61CHL1   H14 5637   1.344   3.299   4.026 -1.8741 -0.6751  3.3165
   61CHL1   C15 5638   1.481   3.379   4.162  0.5979  0.8215 -0.2089
   61CHL1  H15A 5639   1.584   3.398   4.199  0.0022 -0.1519  2.1696
   61CHL1  H15B 5640   1.445   3.478   4.129 -1.4333  0.3366  0.3487
   61CHL1   C16 5641   1.396   3.322   4.282  0.3996 -0.0447  0.4453
   61CHL1  H16A 5642   1.458   3.330   4.374  0.3135  1.4809  0.3826
   61CHL1  H16B 5643   1.295   3.366   4.296  1.8005  3.2011  1.0371
   61CHL1   C17 5644   1.373   3.169   4.240 -0.1860  0.8148 -1.0737
   61CHL1   H17 5645   1.267   3.168   4.206 -0.7089 -0.4196  0.4481
   61CHL1   C13 5646   1.459   3.141   4.118  0.4034  0.1594  0.2226
   61CHL1   C18 5647   1.606   3.107   4.159 -0.4007 -0.6945 -0.2450
   61CHL1  H18A 5648   1.614   3.003   4.197  0.9463 -0.9272 -1.0975
   61CHL1  H18B 5649   1.674   3.123   4.072  0.3745  2.1091  0.7480
   61CHL1  H18C 5650   1.640   3.174   4.241  0.1141 -0.0378 -0.9822
   61CHL1   C12 5651   1.398   3.047   4.005  0.7561  0.2444  0.4722
   61CHL1  H12A 5652   1.382   2.946   4.047  0.6894  0.1765  0.2808
   61CHL1  H12B 5653   1.293   3.078   3.986  0.9007  0.1993 -0.4442
   61CHL1   C11 5654   1.460   3.054   3.862  0.1665 -0.3312  0.4051
   61CHL1  H11A 5655   1.557   3.002   3.874 -0.2137 -0.8489  1.4079
   61CHL1  H11B 5656   1.402   2.988   3.793 -1.8783  1.3072  0.4420
   61CHL1    C9 5657   1.465   3.201   3.809  0.7648  0.4181 -0.0382
   61CHL1    H9 5658   1.361   3.234   3.791  0.4698 -1.3179 -1.7416
   61CHL1   C10 5659   1.544   3.202   3.676 -0.3157 -0.0292  0.4841
   61CHL1   C19 5660   1.684   3.139   3.695  0.4021 -0.5773 -0.2816
   61CHL1  H19A 5661   1.678   3.031   3.718 -0.2021 -0.5279 -0.1861
   61CHL1  H19B 5662   1.743   3.139   3.600 -1.3225  0.8202 -1.4310
   61CHL1  H19C 5663   1.739   3.194   3.774  0.2916  2.0845 -1.9172
   61CHL1    C1 5664   1.457   3.142   3.564 -0.3599  0.5368 -0.0988
   61CHL1   H1A 5665   1.432   3.037   3.590  2.9717 -0.3851 -0.1169
   61CHL1   H1B 5666   1.368   3.206   3.550  1.1410  2.2580 -3.0010
   61CHL1    C2 5667   1.514   3.136   3.425  0.3855 -0.6170 -0.1120
   61CHL1   H2A 5668   1.447   3.075   3.360 -2.5510 -1.1184  3.1001
   61CHL1   H2B 5669   1.614   3.087   3.419  0.5861 -0.0649 -2.0575
   61CHL1   C20 5670   1.374   3.077   4.368 -1.0411  0.0693 -0.4081
   61CHL1   H20 5671   1.474   3.092   4.415 -1.3755  2.0156 -0.2109
   61CHL1   C21 5672   1.369   2.929   4.336 -0.0276  0.3935  0.4131
   61CHL1  H21A 5673   1.269   2.908   4.291  0.0864 -0.8142  0.6904
   61CHL1  H21B 5674   1.374   2.858   4.421 -0.1611  0.6924  0.6713
   61CHL1  H21C 5675   1.453   2.904   4.267 -0.1850 -1.6368  0.8882
   61CHL1   C22 5676   1.270   3.120   4.479  0.2119  0.2960  0.3522
   61CHL1  H22A 5677   1.270   3.041   4.557 -1.3888  0.5425  0.6389
   61CHL1  H22B 5678   1.304   3.216   4.524  0.9385 -0.4474  1.4406
   61CHL1   C23 5679   1.126   3.134   4.424  0.2962 -0.3028 -0.2239
   61CHL1  H23A 5680   1.126   3.230   4.367  1.7272 -0.1579 -0.0147
   61CHL1  H23B 5681   1.101   3.048   4.359  1.9937 -0.6737 -0.4108
   61CHL1   C24 5682   1.025   3.152   4.541  0.8656 -0.0915 -1.0363
   61CHL1  H24A 5683   1.010   3.049   4.581  0.8538  0.6950  1.1118
   61CHL1  H24B 5684   1.060   3.220   4.622  1.5076  0.2452 -1.5885
   61CHL1   C25 5685   0.897   3.210   4.487 -0.0076 -0.3082  0.4046
   61CHL1   H25 5686   0.886   3.167   4.385  2.6496 -1.3149  0.4442
   61CHL1   C26 5687   0.778   3.169   4.582 -0.1104  1.2119 -0.1611
   61CHL1  H26A 5688   0.684   3.224   4.556 -0.9641 -1.2810 -2.9601
   61CHL1  H26B 5689   0.770   3.059   4.595  0.9307  1.3565  2.0584
   61CHL1  H26C 5690   0.811   3.206   4.681  2.5112  2.5784 -1.4320
   61CHL1   C27 5691   0.900   3.369   4.483  0.1191 -0.2992 -0.7868
   61CHL1  H27A 5692   0.800   3.406   4.451 -0.3961 -0.3001  0.7365
   61CHL1  H27B 5693   0.912   3.399   4.589  1.7553 -2.0487 -0.4248
   61CHL1  H27C 5694   0.988   3.404   4.426  0.4557 -0.2013 -0.2105
   62CHL1    C3 5695   2.690   0.491   3.004  0.1693 -0.3034 -0.3985
   62CHL1    H3 5696   2.795   0.453   3.001  0.9574  1.7939 -1.2824
   62CHL1    O3 5697   2.651   0.548   2.880 -0.5455 -0.8050  0.4324
   62CHL1   H3' 5698   2.557   0.564   2.891 -0.4434 -1.4360  2.7625
   62CHL1    C4 5699   2.596   0.382   3.054  0.8329 -0.1630  0.1240
   62CHL1   H4A 5700   2.489   0.412   3.050  0.5152 -1.1004  1.1052
   62CHL1   H4B 5701   2.603   0.295   2.985  0.7441  1.4488 -2.0236
   62CHL1    C5 5702   2.628   0.352   3.201  0.0747  0.3711 -0.0963
   62CHL1    C6 5703   2.648   0.229   3.242  0.0341 -0.4734  0.0201
   62CHL1    H6 5704   2.631   0.148   3.169 -3.6441  0.2582 -0.1315
   62CHL1    C7 5705   2.660   0.183   3.381 -0.5272 -0.4952 -0.6496
   62CHL1   H7A 5706   2.608   0.088   3.404  0.7163 -0.6206  2.0478
   62CHL1   H7B 5707   2.768   0.177   3.410 -0.6305  0.8933  0.0946
   62CHL1    C8 5708   2.606   0.287   3.480  0.2739 -0.0054  0.1272
   62CHL1    H8 5709   2.496   0.295   3.466  0.4644  1.0422 -0.8553
   62CHL1   C14 5710   2.643   0.252   3.624 -0.0577 -0.1243 -0.0091
   62CHL1   H14 5711   2.754   0.249   3.624 -0.0720 -0.8747  0.4092
   62CHL1   C15 5712   2.597   0.116   3.674  0.5131  0.0298  0.2616
   62CHL1  H15A 5713   2.499   0.081   3.634  1.2668 -0.5669 -1.1457
   62CHL1  H15B 5714   2.679   0.045   3.649  0.1282  0.5935 -3.0745
   62CHL1   C16 5715   2.584   0.134   3.823  0.3019 -0.0953  0.1362
   62CHL1  H16A 5716   2.476   0.131   3.848 -0.1792  0.5587 -1.7255
   62CHL1  H16B 5717   2.644   0.057   3.876 -1.1204 -0.7816  0.7804
   62CHL1   C17 5718   2.639   0.280   3.858  0.1957  0.4162 -0.8000
   62CHL1   H17 5719   2.748   0.256   3.866  0.1322 -0.4342 -2.1192
   62CHL1   C13 5720   2.607   0.353   3.729 -0.7191 -0.4711  0.3839
   62CHL1   C18 5721   2.459   0.388   3.726  0.1102  0.1164  0.0825
   62CHL1  H18A 5722   2.428   0.451   3.813  1.6840  0.6972  0.2475
   62CHL1  H18B 5723   2.432   0.451   3.639 -0.8601  2.4511  1.9611
   62CHL1  H18C 5724   2.397   0.297   3.739  1.4812 -0.8231  0.2713
   62CHL1   C12 5725   2.681   0.482   3.706  0.4600 -0.0164  0.8058
   62CHL1  H12A 5726   2.635   0.569   3.757 -0.1520  0.0478  0.1695
   62CHL1  H12B 5727   2.784   0.452   3.732 -0.5320 -3.9826  0.9039
   62CHL1   C11 5728   2.656   0.529   3.564 -0.6797  0.2526  0.0284
   62CHL1  H11A 5729   2.560   0.585   3.552 -0.3720  1.0218  1.0342
   62CHL1  H11B 5730   2.741   0.598   3.543 -0.0141 -0.4000  0.5272
   62CHL1    C9 5731   2.667   0.418   3.449 -0.3871 -0.4496  0.1072
   62CHL1    H9 5732   2.775   0.395   3.435 -0.6099 -0.8529 -1.1215
   62CHL1   C10 5733   2.623   0.464   3.304 -1.3058 -0.4592  0.4108
   62CHL1   C19 5734   2.480   0.521   3.304  0.2200  0.4239 -0.8361
   62CHL1  H19A 5735   2.450   0.552   3.201 -0.9565 -1.1790 -1.0147
   62CHL1  H19B 5736   2.416   0.437   3.339  0.4304  1.7203  3.0808
   62CHL1  H19C 5737   2.460   0.596   3.383 -1.1810 -0.0053 -0.7524
   62CHL1    C1 5738   2.731   0.561   3.249 -0.5833 -0.0635  0.5299
   62CHL1   H1A 5739   2.728   0.648   3.317  1.1148  1.3701 -1.1136
   62CHL1   H1B 5740   2.834   0.520   3.259 -0.3287  0.8237  1.6850
   62CHL1    C2 5741   2.689   0.606   3.108 -0.4055 -0.2029  0.6789
   62CHL1   H2A 5742   2.769   0.679   3.083 -1.0276  0.1490 -0.3791
   62CHL1   H2B 5743   2.593   0.662   3.106 -0.6554 -0.6219 -0.7540
   62CHL1   C20 5744   2.581   0.331   3.991 -0.5906 -0.1603  0.2133
   62CHL1   H20 5745   2.476   0.366   3.979 -1.6359 -2.1488  2.6245
   62CHL1   C21 5746   2.668   0.451   4.039  0.2700  0.0707 -0.5299
   62CHL1  H21A 5747   2.774   0.417   4.039 -0.2278 -1.5513 -0.8816
   62CHL1  H21B 5748   2.636   0.491   4.138  0.9016  3.4585 -1.5751
   62CHL1  H21C 5749   2.671   0.535   3.966 -0.9248  0.2616 -0.3845
   62CHL1   C22 5750   2.574   0.220   4.100  0.5704 -0.5807  0.6005
   62CHL1  H22A 5751   2.535   0.121   4.067  2.5498 -0.3129 -3.1845
   62CHL1  H22B 5752   2.677   0.211   4.140  1.5716  3.2316 -0.6345
   62CHL1   C23 5753   2.466   0.268   4.193 -0.2974  0.7089 -0.5694
   62CHL1  H23A 5754   2.494   0.370   4.227 -0.8028  0.7456 -0.2448
   62CHL1  H23B 5755   2.375   0.265   4.129 -0.2266  2.2084 -0.7653
   62CHL1   C24 5756   2.435   0.173   4.314  0.2927  0.7975  0.9261
   62CHL1  H24A 5757   2.338   0.212   4.353  0.9958  1.4924  2.0069
   62CHL1  H24B 5758   2.420   0.068   4.282 -1.6568  0.7544  1.8466
   62CHL1   C25 5759   2.531   0.170   4.427 -0.3878 -0.3260 -0.3934
   62CHL1   H25 5760   2.635   0.152   4.391 -0.8045 -0.9482 -1.3407
   62CHL1   C26 5761   2.526   0.303   4.511 -0.2369 -0.4995 -0.7379
   62CHL1  H26A 5762   2.421   0.321   4.541  0.7488  2.8538  1.1887
   62CHL1  H26B 5763   2.585   0.292   4.605 -1.3196 -0.4426 -0.0415
   62CHL1  H26C 5764   2.576   0.385   4.456  0.2090 -0.9741 -1.0545
   62CHL1   C27 5765   2.496   0.045   4.515  0.0051  0.2662 -0.1145
   62CHL1  H27A 5766   2.492  -0.042   4.447  0.0927  1.0667 -1.1727
   62CHL1  H27B 5767   2.579   0.029   4.587 -0.8491  1.4382  1.1907
   62CHL1  H27C 5768   2.400   0.048   4.570 -0.5746  0.2683 -1.1034
   63CHL1    C3 5769   6.077   5.692   3.196 -0.2121  0.2007  0.2733
   63CHL1    H3 5770   5.975   5.648   3.194 -1.5293  2.9232  1.2697
   63CHL1    O3 5771   6.108   5.740   3.062  0.1876  0.2907  0.1672
   63CHL1   H3' 5772   6.199   5.772   3.069 -0.7735  3.1464  1.3322
   63CHL1    C4 5773   6.072   5.817   3.285 -0.5413 -0.5276  0.3963
   63CHL1   H4A 5774   6.169   5.866   3.262 -1.0633  0.9374  1.1381
   63CHL1   H4B 5775   5.995   5.889   3.251  0.6035  0.5564  0.0325
   63CHL1    C5 5776   6.062   5.783   3.437 -0.1154 -0.3608  0.8929
   63CHL1    C6 5777   5.963   5.831   3.511  0.8957  0.8730  0.4014
   63CHL1    H6 5778   5.895   5.904   3.465  0.1745  0.7887  1.3207
   63CHL1    C7 5779   5.930   5.795   3.652  0.6108 -0.7487  0.0233
   63CHL1   H7A 5780   5.919   5.888   3.712  1.3816 -1.1664  0.8302
   63CHL1   H7B 5781   5.833   5.741   3.654  0.2423 -0.1467 -0.8161
   63CHL1    C8 5782   6.053   5.712   3.721 -0.6046  0.0778 -0.2506
   63CHL1    H8 5783   6.137   5.781   3.743 -0.8852  0.6696 -0.9748
   63CHL1   C14 5784   5.997   5.640   3.845 -0.2101  0.2065  0.7929
   63CHL1   H14 5785   5.934   5.559   3.802 -0.1932  1.2016 -1.1950
   63CHL1   C15 5786   5.915   5.710   3.955  0.3002 -0.1791  0.3117
   63CHL1  H15A 5787   5.967   5.807   3.972 -0.4436  0.2036  0.4198
   63CHL1  H15B 5788   5.809   5.733   3.934 -0.0201 -0.7438  1.2407
   63CHL1   C16 5789   5.914   5.619   4.078 -0.0723  0.1272  0.4171
   63CHL1  H16A 5790   5.961   5.676   4.161 -1.9003 -0.4907  1.9392
   63CHL1  H16B 5791   5.814   5.591   4.118  0.9858 -2.1982  1.6289
   63CHL1   C17 5792   6.013   5.497   4.034 -0.2979  0.0025 -0.6957
   63CHL1   H17 5793   5.951   5.415   3.992  1.4511 -1.5301 -0.4173
   63CHL1   C13 5794   6.103   5.555   3.921  0.0855  0.1389 -0.2567
   63CHL1   C18 5795   6.216   5.644   3.979 -0.7276 -0.2820  0.3003
   63CHL1  H18A 5796   6.265   5.712   3.906  0.4393 -0.4180  0.9264
   63CHL1  H18B 5797   6.159   5.701   4.055 -1.0915 -1.3944  0.8978
   63CHL1  H18C 5798   6.284   5.578   4.038 -0.3502 -0.5217 -0.3903
   63CHL1   C12 5799   6.170   5.459   3.818  0.1220 -0.2192 -0.3282
   63CHL1  H12A 5800   6.255   5.402   3.859  0.0250  0.7086  1.2555
   63CHL1  H12B 5801   6.092   5.384   3.794 -0.2293  0.8097 -2.7222
   63CHL1   C11 5802   6.222   5.528   3.696 -0.5218 -0.5821  0.4717
   63CHL1  H11A 5803   6.307   5.596   3.721  0.3350 -1.5997  0.4009
   63CHL1  H11B 5804   6.270   5.453   3.629  1.0069 -0.1940  1.0845
   63CHL1    C9 5805   6.115   5.609   3.622 -0.3030  0.2822  0.8185
   63CHL1    H9 5806   6.030   5.547   3.588  0.8584 -1.3851  0.8158
   63CHL1   C10 5807   6.155   5.674   3.483 -0.5158  1.3066 -0.3217
   63CHL1   C19 5808   6.288   5.740   3.511  0.0261 -0.1796 -0.3068
   63CHL1  H19A 5809   6.320   5.808   3.430  1.5754  1.2982  1.4413
   63CHL1  H19B 5810   6.271   5.811   3.595  0.7575  1.3190 -1.3992
   63CHL1  H19C 5811   6.369   5.667   3.533 -1.5502 -1.6747  0.8789
   63CHL1    C1 5812   6.168   5.551   3.381 -0.0887 -0.7404 -0.7353
   63CHL1   H1A 5813   6.243   5.475   3.412  0.1621 -0.5447 -0.8642
   63CHL1   H1B 5814   6.065   5.508   3.386 -1.7962  3.1164  2.8176
   63CHL1    C2 5815   6.191   5.595   3.233  0.2021 -1.0957  0.6117
   63CHL1   H2A 5816   6.181   5.512   3.160  1.4016  0.8806 -1.9955
   63CHL1   H2B 5817   6.289   5.645   3.219 -0.8996  1.0459  0.1506
   63CHL1   C20 5818   6.077   5.425   4.155  0.6233 -0.7666  0.2060
   63CHL1   H20 5819   6.169   5.477   4.188  1.5497 -2.8875  1.1923
   63CHL1   C21 5820   6.113   5.280   4.104  0.2161 -0.3551 -0.1766
   63CHL1  H21A 5821   6.022   5.225   4.070 -0.3291  0.1411  0.4499
   63CHL1  H21B 5822   6.168   5.220   4.179  3.1450 -0.1564 -1.9844
   63CHL1  H21C 5823   6.186   5.297   4.021  0.5814  1.7311  0.5008
   63CHL1   C22 5824   5.997   5.421   4.283 -0.3321 -0.0883  0.6629
   63CHL1  H22A 5825   5.950   5.519   4.306 -0.5918  0.3936 -1.7135
   63CHL1  H22B 5826   5.908   5.359   4.261  0.3310 -0.3164 -1.5710
   63CHL1   C23 5827   6.080   5.367   4.395  0.0663  0.3962 -0.5042
   63CHL1  H23A 5828   6.107   5.260   4.381 -1.2296 -0.1865  1.1778
   63CHL1  H23B 5829   6.175   5.424   4.389 -0.5152  1.2871 -1.4349
   63CHL1   C24 5830   6.006   5.399   4.525  0.4816  0.0044  0.3841
   63CHL1  H24A 5831   6.004   5.508   4.549 -0.7402 -0.3180  1.8406
   63CHL1  H24B 5832   5.903   5.359   4.517  0.6822 -0.2685 -1.1493
   63CHL1   C25 5833   6.074   5.320   4.640  0.5139 -0.5099 -0.4090
   63CHL1   H25 5834   6.184   5.333   4.631  0.4763  0.3437  0.1401
   63CHL1   C26 5835   6.031   5.356   4.783  0.0938  0.3582 -0.3365
   63CHL1  H26A 5836   6.048   5.460   4.818  0.8892 -1.0134  3.8885
   63CHL1  H26B 5837   5.928   5.319   4.801 -0.2168  1.5954  0.5780
   63CHL1  H26C 5838   6.091   5.298   4.857 -3.9144  0.1680  3.1357
   63CHL1   C27 5839   6.071   5.164   4.629  0.0126  0.1289 -0.4334
   63CHL1  H27A 5840   5.970   5.122   4.651  0.9968 -2.1809 -0.0058
   63CHL1  H27B 5841   6.114   5.124   4.535 -0.2798 -1.7372  0.1851
   63CHL1  H27C 5842   6.127   5.119   4.714 -3.1853  1.9205  2.9356
   64CHL1    C3 5843   5.090   6.388   2.841  1.0728  0.0327  0.7762
   64CHL1    H3 5844   5.190   6.433   2.860  0.7306  1.7320 -1.0927
   64CHL1    O3 5845   5.060   6.399   2.700  0.0776 -0.1685 -0.1115
   64CHL1   H3' 5846   5.004   6.323   2.683  0.1471 -0.2025 -0.1929
   64CHL1    C4 5847   5.096   6.238   2.875  0.0502  0.6167  0.1298
   64CHL1   H4A 5848   5.008   6.183   2.834 -0.1168  0.5524  0.5742
   64CHL1   H4B 5849   5.186   6.195   2.826  0.6024  0.7879  0.9791
   64CHL1    C5 5850   5.108   6.215   3.022  0.4365  0.3677 -0.7235
   64CHL1    C6 5851   5.213   6.148   3.082 -0.2542 -0.3674  0.2383
   64CHL1    H6 5852   5.281   6.101   3.009  0.0208 -1.5586  1.2273
   64CHL1    C7 5853   5.232   6.116   3.231  0.6537 -0.2899 -0.4755
   64CHL1   H7A 5854   5.244   6.006   3.243  2.0661  0.1362  2.7530
   64CHL1   H7B 5855   5.318   6.176   3.268  0.9396 -1.6745  1.2045
   64CHL1    C8 5856   5.094   6.144   3.309 -0.9353  0.2015 -0.2054
   64CHL1    H8 5857   5.034   6.054   3.287 -0.8499 -0.1658  1.0032
   64CHL1   C14 5858   5.129   6.166   3.448  0.4914  0.7871  0.3538
   64CHL1   H14 5859   5.172   6.268   3.441 -0.6504  1.2607  0.0159
   64CHL1   C15 5860   5.235   6.083   3.523  0.6747  0.2771 -0.2065
   64CHL1  H15A 5861   5.212   5.978   3.497 -1.5915  1.2747 -2.6961
   64CHL1  H15B 5862   5.339   6.098   3.487  0.9547  0.5360  0.6714
   64CHL1   C16 5863   5.198   6.110   3.671 -0.7442  0.3195  0.1317
   64CHL1  H16A 5864   5.186   6.011   3.721  1.0357 -0.0804 -0.1689
   64CHL1  H16B 5865   5.269   6.182   3.717  0.5087 -0.3084 -0.7445
   64CHL1   C17 5866   5.068   6.193   3.683  0.9158 -0.2222 -0.3522
   64CHL1   H17 5867   5.106   6.297   3.693  0.5684 -0.0147 -1.1020
   64CHL1   C13 5868   5.001   6.185   3.537  1.0560  0.2131 -0.7451
   64CHL1   C18 5869   4.926   6.051   3.527 -0.0424  1.2394 -0.3813
   64CHL1  H18A 5870   4.989   5.960   3.534  0.2443  1.4269 -0.5009
   64CHL1  H18B 5871   4.838   6.034   3.592  0.6833 -0.1892  0.2922
   64CHL1  H18C 5872   4.882   6.051   3.425  1.1673  1.8895 -0.9290
   64CHL1   C12 5873   4.923   6.309   3.504  0.3386 -1.0099  0.1631
   64CHL1  H12A 5874   4.827   6.317   3.560  0.6746 -1.7233  0.8544
   64CHL1  H12B 5875   4.980   6.403   3.524 -1.4846  0.1361  0.2197
   64CHL1   C11 5876   4.897   6.305   3.354  0.1851 -0.2971 -0.4118
   64CHL1  H11A 5877   4.824   6.221   3.345 -0.3828  0.2177 -0.7093
   64CHL1  H11B 5878   4.843   6.398   3.324 -0.1816 -0.1103  0.7875
   64CHL1    C9 5879   5.020   6.276   3.263 -0.7241  1.0961  0.5297
   64CHL1    H9 5880   5.097   6.355   3.281  2.2700 -1.8543  1.8185
   64CHL1   C10 5881   4.991   6.278   3.106 -0.3738 -0.0898 -1.2649
   64CHL1   C19 5882   4.865   6.194   3.079  0.0435 -0.7909  0.7866
   64CHL1  H19A 5883   4.874   6.091   3.120 -1.6268 -0.6752  1.5102
   64CHL1  H19B 5884   4.774   6.247   3.115 -0.6110 -1.0750 -0.3959
   64CHL1  H19C 5885   4.853   6.188   2.968  0.4143 -0.6954  0.7395
   64CHL1    C1 5886   4.985   6.429   3.069  0.3423 -0.0188 -0.0063
   64CHL1   H1A 5887   4.893   6.471   3.115  0.1348 -0.8494  0.3671
   64CHL1   H1B 5888   5.074   6.477   3.115  0.1181 -1.0620  1.5890
   64CHL1    C2 5889   4.976   6.461   2.914 -0.5194 -0.0742 -0.3586
   64CHL1   H2A 5890   4.991   6.571   2.902 -1.2940  0.2098  1.0012
   64CHL1   H2B 5891   4.874   6.440   2.875 -0.5931  1.6397 -1.2093
   64CHL1   C20 5892   4.971   6.166   3.799 -0.1868 -0.3895  0.0978
   64CHL1   H20 5893   4.887   6.099   3.770  1.2351 -1.4485 -1.8230
   64CHL1   C21 5894   4.913   6.302   3.842 -0.1855 -0.3271  0.3121
   64CHL1  H21A 5895   4.983   6.357   3.909  0.3085  0.8071 -1.0759
   64CHL1  H21B 5896   4.824   6.282   3.906 -0.1942 -0.5715  0.2232
   64CHL1  H21C 5897   4.880   6.355   3.750 -0.2785 -2.8729 -1.2294
   64CHL1   C22 5898   5.043   6.100   3.919  0.4241  0.3261 -0.4728
   64CHL1  H22A 5899   5.083   6.001   3.887  0.4702 -0.5558  2.0633
   64CHL1  H22B 5900   5.135   6.157   3.946  1.2074 -1.3961  0.7247
   64CHL1   C23 5901   4.952   6.084   4.043 -0.1157  0.3061  0.3313
   64CHL1  H23A 5902   4.911   6.185   4.062 -0.2819  0.7523 -2.0659
   64CHL1  H23B 5903   4.867   6.023   4.006 -0.7951  0.8388  0.9746
   64CHL1   C24 5904   5.020   6.029   4.168  0.1516  0.1228 -0.0590
   64CHL1  H24A 5905   5.059   5.929   4.140  0.5713  0.2921 -0.0790
   64CHL1  H24B 5906   5.110   6.090   4.190 -0.5491  1.7647 -1.5388
   64CHL1   C25 5907   4.933   6.025   4.298  0.2197  0.5090  0.6511
   64CHL1   H25 5908   4.843   5.963   4.278  0.5918  0.7529 -2.2551
   64CHL1   C26 5909   5.014   5.966   4.416  0.5888 -1.2213 -0.0798
   64CHL1  H26A 5910   4.945   5.951   4.502 -1.0113  1.7368 -0.7303
   64CHL1  H26B 5911   5.070   5.875   4.384  1.6208  0.4122 -3.3839
   64CHL1  H26C 5912   5.084   6.040   4.460 -0.3826 -1.5485  2.1219
   64CHL1   C27 5913   4.888   6.162   4.345 -0.1760  0.3604  0.0677
   64CHL1  H27A 5914   4.971   6.235   4.355 -0.6925  1.0070 -0.2848
   64CHL1  H27B 5915   4.814   6.208   4.276  1.7896  1.7268 -1.2259
   64CHL1  H27C 5916   4.844   6.139   4.444  1.5687  0.6049  0.9377
   65CHL1    C3 5917   3.043   0.775   2.837 -0.4489  0.5187 -0.8711
   65CHL1    H3 5918   2.935   0.749   2.834  0.2082 -2.7880 -0.5317
   65CHL1    O3 5919   3.106   0.775   2.707  0.0274 -0.2954 -0.2795
   65CHL1   H3' 5920   3.186   0.826   2.725 -0.6546  0.8299 -0.3646
   65CHL1    C4 5921   3.069   0.911   2.903 -0.0418 -0.2797  0.0250
   65CHL1   H4A 5922   3.174   0.940   2.880 -0.1857  1.5552  1.4182
   65CHL1   H4B 5923   2.999   0.984   2.856  1.4382  0.6290 -0.8454
   65CHL1    C5 5924   3.051   0.910   3.050 -0.2154  0.3718  0.6114
   65CHL1    C6 5925   2.965   0.988   3.113  0.1348 -0.4846 -0.2275
   65CHL1    H6 5926   2.906   1.062   3.056  0.7605 -0.6628 -1.1436
   65CHL1    C7 5927   2.959   1.008   3.266  0.2350  1.2219 -0.1712
   65CHL1   H7A 5928   2.975   1.116   3.290 -0.4874  1.0993  0.9201
   65CHL1   H7B 5929   2.856   0.978   3.294  0.3254 -1.2699 -2.1783
   65CHL1    C8 5930   3.053   0.913   3.345 -0.0993 -0.4698  0.0345
   65CHL1    H8 5931   3.146   0.973   3.354 -0.7175  0.5171 -0.0127
   65CHL1   C14 5932   2.995   0.897   3.485 -0.4109  0.6014 -0.6042
   65CHL1   H14 5933   2.904   0.837   3.465  0.5049 -0.0660 -3.0735
   65CHL1   C15 5934   2.963   1.029   3.564  0.2766  0.1473  0.2750
   65CHL1  H15A 5935   3.043   1.102   3.542 -0.6990  0.4322 -2.7387
   65CHL1  H15B 5936   2.869   1.079   3.534  1.2475  1.6890 -0.3198
   65CHL1   C16 5937   2.969   0.983   3.710  0.2988  0.4537 -0.4794
   65CHL1  H16A 5938   3.057   1.034   3.754 -0.2217  0.3333  0.7384
   65CHL1  H16B 5939   2.876   0.998   3.768 -0.3457  0.5222 -1.5200
   65CHL1   C17 5940   3.016   0.830   3.711  0.4514 -0.1994  0.0661
   65CHL1   H17 5941   2.915   0.786   3.694  0.4074  0.8969 -3.2782
   65CHL1   C13 5942   3.087   0.816   3.578  0.0774  0.5783  0.0909
   65CHL1   C18 5943   3.226   0.883   3.602 -0.4401 -0.0373  0.3726
   65CHL1  H18A 5944   3.222   0.981   3.655 -0.8260 -0.4056  1.0504
   65CHL1  H18B 5945   3.280   0.803   3.658  0.5445 -0.3032 -0.8990
   65CHL1  H18C 5946   3.276   0.898   3.504  1.3871  1.3073  1.4503
   65CHL1   C12 5947   3.103   0.671   3.514 -0.9073 -0.1049  0.3893
   65CHL1  H12A 5948   3.172   0.603   3.569  2.8823  2.2473 -1.0049
   65CHL1  H12B 5949   3.000   0.631   3.505 -0.9226  0.1613 -0.7436
   65CHL1   C11 5950   3.164   0.691   3.370  0.2434  0.2274 -0.6672
   65CHL1  H11A 5951   3.269   0.725   3.379  0.1470  1.2287 -2.7608
   65CHL1  H11B 5952   3.170   0.589   3.327 -0.5703  0.0642 -0.4050
   65CHL1    C9 5953   3.082   0.783   3.281 -0.3991 -0.3810  0.2313
   65CHL1    H9 5954   2.985   0.732   3.271  0.5563 -1.8973 -2.2741
   65CHL1   C10 5955   3.126   0.800   3.131  0.6035  0.8981 -0.9310
   65CHL1   C19 5956   3.274   0.835   3.123  0.4380  0.0164  0.2618
   65CHL1  H19A 5957   3.313   0.827   3.019  1.8645 -1.7186  0.8894
   65CHL1  H19B 5958   3.292   0.938   3.162  0.3825  0.2559 -0.3347
   65CHL1  H19C 5959   3.345   0.768   3.176 -1.4579 -1.8117  0.5993
   65CHL1    C1 5960   3.102   0.663   3.067  0.0706 -0.6524  1.3808
   65CHL1   H1A 5961   3.181   0.594   3.103  2.6068  2.2444  1.7940
   65CHL1   H1B 5962   3.000   0.624   3.086 -0.5131  0.2006  0.1494
   65CHL1    C2 5963   3.112   0.652   2.911  0.3280  0.9017  0.0482
   65CHL1   H2A 5964   3.072   0.553   2.881  2.9569  0.8722 -4.1113
   65CHL1   H2B 5965   3.217   0.646   2.877 -0.4032 -0.4063 -2.1804
   65CHL1   C20 5966   3.087   0.781   3.842 -0.1736 -0.2428  0.3580
   65CHL1   H20 5967   3.181   0.836   3.863  0.2443 -1.6835  2.5477
   65CHL1   C21 5968   3.125   0.637   3.839  0.0808 -0.3466  0.5592
   65CHL1  H21A 5969   3.044   0.575   3.795 -0.0952  0.3362 -0.1085
   65CHL1  H21B 5970   3.166   0.593   3.932  0.2797 -0.6774  0.3169
   65CHL1  H21C 5971   3.210   0.629   3.768 -1.1720 -0.2156 -1.0016
   65CHL1   C22 5972   2.994   0.809   3.969  0.2388 -0.0205 -0.1332
   65CHL1  H22A 5973   2.930   0.899   3.965  0.7961  0.3384 -2.6918
   65CHL1  H22B 5974   2.929   0.721   3.988  0.4989  0.2041  2.0372
   65CHL1   C23 5975   3.070   0.828   4.102 -0.6207  0.4767 -0.2416
   65CHL1  H23A 5976   3.007   0.784   4.182 -0.6908  0.3224 -0.3831
   65CHL1  H23B 5977   3.163   0.766   4.101  0.7548  2.4084  0.6418
   65CHL1   C24 5978   3.131   0.971   4.133  0.3547 -0.4157 -0.3419
   65CHL1  H24A 5979   3.209   0.989   4.056 -0.6143 -1.2717 -1.5697
   65CHL1  H24B 5980   3.052   1.043   4.105 -0.7014 -2.1593 -2.1673
   65CHL1   C25 5981   3.184   0.990   4.276 -0.2609  0.9931  0.0878
   65CHL1   H25 5982   3.232   1.090   4.280  0.5881  0.5664  0.9350
   65CHL1   C26 5983   3.080   0.986   4.391 -0.1169 -0.5409  0.1068
   65CHL1  H26A 5984   3.008   1.070   4.386 -0.7633 -1.0539  0.7069
   65CHL1  H26B 5985   3.018   0.896   4.372 -1.2821  0.9088 -4.2211
   65CHL1  H26C 5986   3.135   0.996   4.487 -0.5210  2.2728  0.1282
   65CHL1   C27 5987   3.295   0.888   4.301 -0.0538 -0.8030 -0.0960
   65CHL1  H27A 5988   3.360   0.873   4.212 -1.3754  0.3024 -1.3131
   65CHL1  H27B 5989   3.361   0.916   4.386  0.7136 -2.3356 -0.1518
   65CHL1  H27C 5990   3.258   0.784   4.316  0.0702 -0.7588  0.5343
   66CHL1    C3 5991   1.341   3.595   3.192 -0.2429  0.1225  0.8837
   66CHL1    H3 5992   1.391   3.501   3.224  0.0822  0.4012  1.1976
   66CHL1    O3 5993   1.352   3.612   3.048  0.0929  0.2650  0.2400
   66CHL1   H3' 5994   1.275   3.573   3.007 -0.7100  0.6511  1.3227
   66CHL1    C4 5995   1.192   3.606   3.238  0.4499  1.2362 -0.6022
   66CHL1   H4A 5996   1.149   3.697   3.193 -0.9442 -0.1382 -2.1449
   66CHL1   H4B 5997   1.133   3.520   3.201  0.0955  0.9337  0.6228
   66CHL1    C5 5998   1.199   3.614   3.385  0.6874 -0.0252 -0.3385
   66CHL1    C6 5999   1.131   3.520   3.453 -0.4136 -0.4782  0.2973
   66CHL1    H6 6000   1.072   3.446   3.397 -0.0561 -0.1801 -0.5044
   66CHL1    C7 6001   1.123   3.517   3.601  0.5445 -0.4432 -0.3208
   66CHL1   H7A 6002   1.024   3.481   3.635  0.8141 -2.8482 -1.8661
   66CHL1   H7B 6003   1.202   3.447   3.637  0.7399 -1.2617 -2.2193
   66CHL1    C8 6004   1.147   3.658   3.661 -0.6628 -0.0029  0.4521
   66CHL1    H8 6005   1.071   3.731   3.623  0.5080  0.5389 -0.9596
   66CHL1   C14 6006   1.150   3.647   3.812 -0.0370  0.2143  0.5890
   66CHL1   H14 6007   1.236   3.582   3.838  0.5744  0.7515 -0.0398
   66CHL1   C15 6008   1.028   3.577   3.882  0.1625  0.3962  0.1997
   66CHL1  H15A 6009   0.930   3.603   3.837  0.6569  0.5207 -0.8630
   66CHL1  H15B 6010   1.032   3.466   3.886 -0.6206  0.4093  2.8824
   66CHL1   C16 6011   1.039   3.628   4.025 -0.6827 -0.1891  0.5515
   66CHL1  H16A 6012   0.946   3.678   4.061  0.8044  3.4626 -0.3043
   66CHL1  H16B 6013   1.049   3.547   4.101  0.7795 -1.4677 -0.9473
   66CHL1   C17 6014   1.161   3.720   4.028 -0.0837 -0.4889 -0.8494
   66CHL1   H17 6015   1.247   3.656   4.058 -0.5544 -0.2316  1.1788
   66CHL1   C13 6016   1.183   3.779   3.887  0.0096  0.0808  0.5075
   66CHL1   C18 6017   1.072   3.885   3.857  0.2529  0.6590 -0.3571
   66CHL1  H18A 6018   1.057   3.902   3.748  1.3629  0.2263 -0.5907
   66CHL1  H18B 6019   0.967   3.858   3.881  0.5101  0.1925  0.2575
   66CHL1  H18C 6020   1.085   3.984   3.906 -1.3502  0.9953 -0.5465
   66CHL1   C12 6021   1.325   3.816   3.839 -0.1479 -0.1930  0.0022
   66CHL1  H12A 6022   1.364   3.911   3.882  0.4098  0.4377 -1.8371
   66CHL1  H12B 6023   1.395   3.733   3.867 -1.1369 -1.2341 -0.5448
   66CHL1   C11 6024   1.332   3.834   3.691 -0.4354  0.0037  0.2754
   66CHL1  H11A 6025   1.263   3.918   3.672 -1.4152 -0.1023  2.9903
   66CHL1  H11B 6026   1.434   3.862   3.655 -0.5422  0.3774  0.2638
   66CHL1    C9 6027   1.286   3.706   3.613  0.4106 -0.2549  0.1034
   66CHL1    H9 6028   1.351   3.620   3.639 -1.4832 -2.1473 -1.0984
   66CHL1   C10 6029   1.282   3.722   3.458  0.0698  0.4782  0.7992
   66CHL1   C19 6030   1.223   3.858   3.426 -0.5224 -0.1127 -0.5550
   66CHL1  H19A 6031   1.137   3.877   3.493 -1.0448 -0.8325 -0.9994
   66CHL1  H19B 6032   1.287   3.948   3.442 -0.0152 -0.4629 -0.5950
   66CHL1  H19C 6033   1.196   3.872   3.319  4.2111  1.3576 -1.8408
   66CHL1    C1 6034   1.426   3.712   3.404 -0.5795  0.3590  0.6135
   66CHL1   H1A 6035   1.480   3.804   3.434 -0.3999 -0.3233  2.5461
   66CHL1   H1B 6036   1.487   3.626   3.440  0.8197  0.9292 -0.3259
   66CHL1    C2 6037   1.429   3.706   3.244 -0.8193  0.4226 -0.7437
   66CHL1   H2A 6038   1.535   3.698   3.213 -0.4249 -2.6857  1.0372
   66CHL1   H2B 6039   1.385   3.801   3.205 -0.3509  0.5276 -1.0140
   66CHL1   C20 6040   1.158   3.817   4.154  0.6413 -0.5946  0.2737
   66CHL1   H20 6041   1.079   3.896   4.148 -0.7492 -1.9802 -0.4233
   66CHL1   C21 6042   1.291   3.896   4.159  0.3006  0.2855  0.4907
   66CHL1  H21A 6043   1.366   3.814   4.147  2.0622  2.0304 -1.1611
   66CHL1  H21B 6044   1.315   3.935   4.260 -0.0966 -0.4082  0.8584
   66CHL1  H21C 6045   1.304   3.969   4.077  0.6054 -2.8283 -2.4865
   66CHL1   C22 6046   1.139   3.749   4.291  0.2428 -0.1072 -0.9757
   66CHL1  H22A 6047   1.048   3.686   4.279 -0.2973  0.2449  0.9421
   66CHL1  H22B 6048   1.226   3.681   4.298  0.4022  0.2166  0.3753
   66CHL1   C23 6049   1.140   3.847   4.412  0.1209 -0.4205 -0.5062
   66CHL1  H23A 6050   1.241   3.853   4.456  0.1852  0.9072 -0.7750
   66CHL1  H23B 6051   1.098   3.947   4.386  0.6237 -0.0372  0.1388
   66CHL1   C24 6052   1.064   3.779   4.530  0.0280 -0.3723  0.0249
   66CHL1  H24A 6053   0.955   3.793   4.511  0.1192  1.9892  0.8839
   66CHL1  H24B 6054   1.091   3.675   4.555  0.5172 -0.1251  0.5347
   66CHL1   C25 6055   1.104   3.849   4.663 -0.0983 -0.0241 -0.3044
   66CHL1   H25 6056   1.214   3.840   4.675  0.0403  0.0402 -1.4230
   66CHL1   C26 6057   1.052   3.992   4.674 -0.3112 -0.5754  0.1108
   66CHL1  H26A 6058   1.106   4.054   4.600 -0.2363 -0.4689  0.2546
   66CHL1  H26B 6059   0.945   4.006   4.648  0.0256  2.0591 -0.0956
   66CHL1  H26C 6060   1.066   4.032   4.777  0.0704 -0.5456  0.0458
   66CHL1   C27 6061   1.029   3.783   4.779  0.6710  0.0604 -0.0560
   66CHL1  H27A 6062   0.923   3.774   4.746  0.7166  1.1666 -0.5332
   66CHL1  H27B 6063   1.041   3.847   4.870 -0.6445 -0.1257  0.2732
   66CHL1  H27C 6064   1.066   3.680   4.795 -1.1346 -0.5489  0.4790
   67CHL1    C3 6065   1.257   6.455   2.959  0.0375  0.6592  0.2935
   67CHL1    H3 6066   1.263   6.344   2.952  0.8229  0.7660 -0.8681
   67CHL1    O3 6067   1.266   6.517   2.830  0.5177 -0.0494  0.5776
   67CHL1   H3' 6068   1.276   6.613   2.833 -1.5059  0.3677 -2.1138
   67CHL1    C4 6069   1.127   6.501   3.022  0.3247  0.5272 -0.0547
   67CHL1   H4A 6070   1.122   6.612   3.012  0.2431  0.5309  0.0225
   67CHL1   H4B 6071   1.054   6.466   2.946 -0.5750 -0.5367  1.2446
   67CHL1    C5 6072   1.098   6.468   3.160  0.0567  0.8920 -0.3128
   67CHL1    C6 6073   0.983   6.409   3.204 -0.4198 -0.4497  0.1068
   67CHL1    H6 6074   0.902   6.387   3.133 -1.9121  2.3366  0.7923
   67CHL1    C7 6075   0.954   6.378   3.347 -0.7914  0.4730  0.5111
   67CHL1   H7A 6076   0.858   6.426   3.378 -0.6338  1.1080  0.0291
   67CHL1   H7B 6077   0.942   6.269   3.363 -1.5539  0.7668  2.1544
   67CHL1    C8 6078   1.055   6.435   3.449 -0.4029 -0.3396 -0.0342
   67CHL1    H8 6079   1.021   6.540   3.465 -2.8014 -1.2407  1.1876
   67CHL1   C14 6080   1.040   6.369   3.585 -0.6057 -0.0668 -0.7389
   67CHL1   H14 6081   1.055   6.260   3.568 -2.5734 -0.4434 -0.3390
   67CHL1   C15 6082   0.905   6.372   3.660  0.1495 -0.1441  0.1014
   67CHL1  H15A 6083   0.858   6.469   3.633 -0.7762 -0.4998  0.4015
   67CHL1  H15B 6084   0.834   6.292   3.634  0.3011 -0.0455 -0.6447
   67CHL1   C16 6085   0.942   6.353   3.807 -0.0751 -0.0946 -0.0139
   67CHL1  H16A 6086   0.906   6.436   3.872 -0.2213  1.3392 -1.8501
   67CHL1  H16B 6087   0.901   6.253   3.836 -0.6729  0.6870  1.9900
   67CHL1   C17 6088   1.094   6.339   3.811  0.0111 -0.5299  0.1332
   67CHL1   H17 6089   1.115   6.231   3.797 -2.0867 -0.9227 -0.3074
   67CHL1   C13 6090   1.147   6.410   3.690 -0.9288  0.3728  0.3393
   67CHL1   C18 6091   1.137   6.566   3.719  0.5129  0.3205  0.3571
   67CHL1  H18A 6092   1.209   6.596   3.798 -0.2028  0.6461  0.9000
   67CHL1  H18B 6093   1.151   6.623   3.625  1.3628 -1.0341 -0.3696
   67CHL1  H18C 6094   1.032   6.596   3.740  0.2356 -0.4163  0.0575
   67CHL1   C12 6095   1.285   6.371   3.632 -0.4278  0.3260  0.0788
   67CHL1  H12A 6096   1.354   6.411   3.710  0.3112  0.3030 -0.5479
   67CHL1  H12B 6097   1.306   6.263   3.618  2.1477  0.8806 -0.8609
   67CHL1   C11 6098   1.305   6.443   3.501 -0.5039  1.0172 -0.2752
   67CHL1  H11A 6099   1.328   6.548   3.528  1.7754  0.4539  0.2083
   67CHL1  H11B 6100   1.402   6.402   3.465 -1.0159 -0.0203 -0.5377
   67CHL1    C9 6101   1.198   6.420   3.396 -0.1665  0.1317  0.2539
   67CHL1    H9 6102   1.215   6.311   3.379  0.1990  0.2051  0.1247
   67CHL1   C10 6103   1.214   6.492   3.259 -0.2902  0.3667 -0.5176
   67CHL1   C19 6104   1.208   6.647   3.281  0.6466 -0.0244  0.0664
   67CHL1  H19A 6105   1.245   6.706   3.195  0.0010  1.1317  0.5562
   67CHL1  H19B 6106   1.107   6.684   3.312  1.3903  1.6542  0.6132
   67CHL1  H19C 6107   1.272   6.669   3.370 -0.5354  0.9272  0.7171
   67CHL1    C1 6108   1.347   6.448   3.190  0.1485  0.0302  0.1994
   67CHL1   H1A 6109   1.438   6.473   3.248 -0.1316 -0.1320  0.7171
   67CHL1   H1B 6110   1.354   6.337   3.179 -3.4767 -0.3355  0.3921
   67CHL1    C2 6111   1.366   6.503   3.052 -1.2842  0.6448  0.3900
   67CHL1   H2A 6112   1.465   6.464   3.020 -1.0665 -0.3366  2.1023
   67CHL1   H2B 6113   1.373   6.614   3.056  0.4597  0.6208 -0.7913
   67CHL1   C20 6114   1.159   6.366   3.956  0.0363  0.1525  0.2116
   67CHL1   H20 6115   1.166   6.475   3.977 -0.2620  0.2837 -0.3469
   67CHL1   C21 6116   1.310   6.321   3.966  0.0870 -0.6888  0.1724
   67CHL1  H21A 6117   1.373   6.395   4.020  2.1645 -1.0999 -1.5417
   67CHL1  H21B 6118   1.365   6.304   3.871  0.5115  2.8580 -0.3546
   67CHL1  H21C 6119   1.328   6.232   4.030 -0.7131 -0.2948  0.9583
   67CHL1   C22 6120   1.075   6.311   4.082  0.3812  0.1946 -0.2627
   67CHL1  H22A 6121   0.974   6.355   4.078  0.5191  0.5187 -4.0057
   67CHL1  H22B 6122   1.069   6.200   4.076 -3.6324  0.3061 -0.7547
   67CHL1   C23 6123   1.138   6.365   4.210  0.0451  0.6319  0.7153
   67CHL1  H23A 6124   1.233   6.311   4.226 -0.1364  0.2618  0.5597
   67CHL1  H23B 6125   1.162   6.474   4.203 -0.7867  0.8049  0.3861
   67CHL1   C24 6126   1.057   6.344   4.333  0.7168  0.6590 -0.4432
   67CHL1  H24A 6127   0.959   6.391   4.310 -0.1005 -0.9945 -0.5093
   67CHL1  H24B 6128   1.037   6.235   4.344 -0.9604  1.1228  1.8332
   67CHL1   C25 6129   1.120   6.399   4.460  0.1196  0.0438  0.7490
   67CHL1   H25 6130   1.132   6.508   4.443 -0.7766  0.3134  1.7530
   67CHL1   C26 6131   1.038   6.381   4.586  0.2875 -0.2584 -0.6546
   67CHL1  H26A 6132   0.944   6.439   4.579  1.0888  1.5016  1.5558
   67CHL1  H26B 6133   1.015   6.273   4.597 -0.7959  0.0375  0.0927
   67CHL1  H26C 6134   1.097   6.428   4.668 -1.0244  0.0206  0.1677
   67CHL1   C27 6135   1.264   6.361   4.494 -0.5638 -0.6145  0.6130
   67CHL1  H27A 6136   1.274   6.265   4.549  1.3388 -1.2392 -0.7014
   67CHL1  H27B 6137   1.344   6.361   4.417  0.1780 -0.9866  1.3694
   67CHL1  H27C 6138   1.305   6.439   4.561 -0.0611  0.2633 -0.6800
   68CHL1    C3 6139   3.266   6.110   2.847  0.4353 -1.0670  0.8083
   68CHL1    H3 6140   3.165   6.072   2.874 -1.2046  1.3898 -1.4200
   68CHL1    O3 6141   3.273   6.110   2.700 -0.0388 -0.4603 -0.5463
   68CHL1   H3' 6142   3.357   6.153   2.681 -0.2160  0.1771  0.0616
   68CHL1    C4 6143   3.277   6.257   2.893 -0.2939 -0.4097 -0.5175
   68CHL1   H4A 6144   3.362   6.306   2.841  0.8039 -2.1075 -0.3880
   68CHL1   H4B 6145   3.181   6.306   2.866  0.1968  2.1727  1.9616
   68CHL1    C5 6146   3.298   6.257   3.043  0.0649  0.2625  0.1363
   68CHL1    C6 6147   3.219   6.342   3.118  0.2500 -0.0727 -0.2124
   68CHL1    H6 6148   3.151   6.412   3.067  1.8748  1.9453  0.2200
   68CHL1    C7 6149   3.232   6.368   3.265 -0.6426 -0.0605 -0.1379
   68CHL1   H7A 6150   3.238   6.475   3.296  0.8844 -0.3923  0.8133
   68CHL1   H7B 6151   3.143   6.328   3.318  0.3510  1.2462  2.7581
   68CHL1    C8 6152   3.355   6.296   3.322  0.3007 -0.4933  0.1821
   68CHL1    H8 6153   3.437   6.365   3.292  1.4678 -1.7975  0.2661
   68CHL1   C14 6154   3.355   6.288   3.476  0.2096  0.5668 -0.4658
   68CHL1   H14 6155   3.258   6.238   3.495  1.1909 -0.7906  1.2217
   68CHL1   C15 6156   3.331   6.418   3.551 -0.0961 -0.5054 -0.3733
   68CHL1  H15A 6157   3.409   6.490   3.520 -2.4441  2.2612 -0.2703
   68CHL1  H15B 6158   3.230   6.464   3.541  1.5470  3.1452 -1.7508
   68CHL1   C16 6159   3.362   6.379   3.696 -0.4420  0.1077  0.0703
   68CHL1  H16A 6160   3.439   6.442   3.746 -2.2772  2.1108  0.5064
   68CHL1  H16B 6161   3.274   6.378   3.763 -1.1866 -1.3128 -0.8797
   68CHL1   C17 6162   3.412   6.231   3.693 -0.1739 -0.1526  0.3065
   68CHL1   H17 6163   3.328   6.158   3.704  0.8639 -1.7071 -1.5256
   68CHL1   C13 6164   3.469   6.210   3.544  0.2371  0.6189 -0.5125
   68CHL1   C18 6165   3.607   6.284   3.522  0.3008 -0.3150  0.1915
   68CHL1  H18A 6166   3.689   6.212   3.538 -1.0134 -1.6363  1.3717
   68CHL1  H18B 6167   3.608   6.327   3.419  1.2694 -1.2149 -0.1901
   68CHL1  H18C 6168   3.614   6.368   3.595  1.1195  0.9506 -1.2868
   68CHL1   C12 6169   3.463   6.070   3.482 -0.3090 -0.6503 -0.3639
   68CHL1  H12A 6170   3.541   6.006   3.529 -0.0552 -0.0661  0.0203
   68CHL1  H12B 6171   3.372   6.011   3.508  0.5806 -1.3221  1.4371
   68CHL1   C11 6172   3.496   6.078   3.332  0.2481 -0.3610  0.1805
   68CHL1  H11A 6173   3.596   6.117   3.305  0.2792 -0.7077 -0.1984
   68CHL1  H11B 6174   3.501   5.973   3.296 -1.4151 -0.2189 -0.5518
   68CHL1    C9 6175   3.381   6.156   3.261 -0.1459  0.7854 -0.1880
   68CHL1    H9 6176   3.293   6.092   3.280  1.5549 -1.5410  0.3633
   68CHL1   C10 6177   3.405   6.167   3.111 -0.0983  0.1560 -1.2343
   68CHL1   C19 6178   3.538   6.232   3.070 -0.3540  0.1355  0.1687
   68CHL1  H19A 6179   3.613   6.151   3.082 -0.3743  0.1850  0.6408
   68CHL1  H19B 6180   3.544   6.264   2.963  3.1145 -0.2599  0.1251
   68CHL1  H19C 6181   3.564   6.313   3.141 -0.2892  1.0236 -0.8314
   68CHL1    C1 6182   3.400   6.027   3.052  0.4099 -0.0950  0.3585
   68CHL1   H1A 6183   3.493   5.967   3.064 -1.1153 -2.4696  1.1153
   68CHL1   H1B 6184   3.321   5.969   3.105  2.9977 -1.7111  2.7611
   68CHL1    C2 6185   3.379   6.034   2.898  0.0662 -0.0657  0.0771
   68CHL1   H2A 6186   3.364   5.926   2.873 -3.7264  0.2631  0.2545
   68CHL1   H2B 6187   3.479   6.064   2.862  1.6708 -2.1401  2.4026
   68CHL1   C20 6188   3.520   6.199   3.800  0.2626 -0.1093  0.1485
   68CHL1   H20 6189   3.626   6.228   3.781  0.6245 -1.3533  0.1838
   68CHL1   C21 6190   3.533   6.041   3.809  0.0343  0.3159  0.0668
   68CHL1  H21A 6191   3.606   6.009   3.886  0.6595  0.2971 -0.5141
   68CHL1  H21B 6192   3.585   6.003   3.718 -0.0805 -0.2925  0.2544
   68CHL1  H21C 6193   3.439   5.984   3.820  0.0415  0.3226  0.1607
   68CHL1   C22 6194   3.485   6.241   3.941  0.6520 -0.0240 -0.0324
   68CHL1  H22A 6195   3.375   6.254   3.955  0.0116 -1.4196 -3.1029
   68CHL1  H22B 6196   3.511   6.156   4.008  0.3589  1.6894  2.4236
   68CHL1   C23 6197   3.565   6.362   4.000  0.0518 -0.3011 -0.5070
   68CHL1  H23A 6198   3.674   6.344   3.997  0.3467  1.2492 -0.2184
   68CHL1  H23B 6199   3.542   6.450   3.936  0.7513  0.2493 -0.0121
   68CHL1   C24 6200   3.524   6.388   4.144 -0.7017 -0.6601  0.3659
   68CHL1  H24A 6201   3.508   6.290   4.195  2.0084 -1.1965  0.3059
   68CHL1  H24B 6202   3.606   6.446   4.192 -0.3137  1.6706 -2.8124
   68CHL1   C25 6203   3.383   6.455   4.157 -0.1890  0.3269  0.1600
   68CHL1   H25 6204   3.316   6.420   4.075 -1.6612 -1.4417  2.0124
   68CHL1   C26 6205   3.314   6.431   4.291 -0.1532  0.0765  1.1169
   68CHL1  H26A 6206   3.369   6.487   4.369 -1.7378  0.3898  2.0406
   68CHL1  H26B 6207   3.207   6.461   4.289 -0.6601 -1.3780 -2.3780
   68CHL1  H26C 6208   3.318   6.322   4.314  1.5573  0.6419  3.9383
   68CHL1   C27 6209   3.413   6.602   4.138  0.6161 -0.4979 -0.0567
   68CHL1  H27A 6210   3.472   6.640   4.224  2.8558 -0.1542 -1.6600
   68CHL1  H27B 6211   3.475   6.632   4.051  0.0740  1.2768  0.1167
   68CHL1  H27C 6212   3.323   6.667   4.127 -0.3290 -1.6433  0.6503
   69CHL1    C3 6213   1.910   6.156   2.964  0.2452 -0.0349 -0.5354
   69CHL1    H3 6214   1.875   6.051   2.954 -0.5844  0.2137 -0.3147
   69CHL1    O3 6215   1.953   6.197   2.834 -0.3754 -0.1416 -0.7720
   69CHL1   H3' 6216   2.019   6.265   2.847  0.9831 -1.4626 -0.4618
   69CHL1    C4 6217   1.796   6.246   3.026  0.5243  0.4795  0.5168
   69CHL1   H4A 6218   1.835   6.351   3.032  1.6301  0.0853  0.5032
   69CHL1   H4B 6219   1.703   6.235   2.966  0.7825 -0.9314  0.3528
   69CHL1    C5 6220   1.773   6.212   3.167  0.1030 -0.5201  0.0718
   69CHL1    C6 6221   1.656   6.182   3.214  0.2953 -0.3276 -0.0966
   69CHL1    H6 6222   1.569   6.183   3.145 -0.6159 -0.6424  1.0170
   69CHL1    C7 6223   1.628   6.157   3.358  0.4270 -0.0646  0.0085
   69CHL1   H7A 6224   1.535   6.210   3.389 -0.6705 -1.2502 -1.1698
   69CHL1   H7B 6225   1.621   6.047   3.373  1.2058 -0.0275  0.7195
   69CHL1    C8 6226   1.741   6.209   3.456  0.4316  0.0436 -0.5657
   69CHL1    H8 6227   1.738   6.320   3.449 -1.8455  0.0123 -0.7683
   69CHL1   C14 6228   1.717   6.145   3.594  0.6362  0.8484  0.0701
   69CHL1   H14 6229   1.724   6.034   3.596 -2.4065  0.5405  2.6017
   69CHL1   C15 6230   1.584   6.164   3.659 -0.3202  0.5729 -0.4242
   69CHL1  H15A 6231   1.546   6.268   3.648  0.6139  1.1758  1.5530
   69CHL1  H15B 6232   1.511   6.089   3.623 -1.0423  0.4195  1.2731
   69CHL1   C16 6233   1.609   6.145   3.807  0.4714 -0.5036  0.2460
   69CHL1  H16A 6234   1.560   6.213   3.880 -0.5443 -1.7714  0.7855
   69CHL1  H16B 6235   1.563   6.048   3.834 -2.0178  0.3677 -0.5772
   69CHL1   C17 6236   1.768   6.130   3.823 -0.1282 -0.2794  0.1853
   69CHL1   H17 6237   1.799   6.024   3.821 -0.3164 -0.3930  1.8254
   69CHL1   C13 6238   1.830   6.193   3.696  0.7083  0.1875 -0.1825
   69CHL1   C18 6239   1.821   6.346   3.705 -0.8255 -0.1669  0.0318
   69CHL1  H18A 6240   1.914   6.383   3.754  0.2903  0.7837 -2.5988
   69CHL1  H18B 6241   1.828   6.400   3.608 -0.3187 -1.3479 -0.6029
   69CHL1  H18C 6242   1.730   6.390   3.750 -0.4904 -0.5331  1.0956
   69CHL1   C12 6243   1.972   6.162   3.643  0.4470  0.1478 -0.8757
   69CHL1  H12A 6244   2.052   6.196   3.712 -0.4135  0.6824 -0.1135
   69CHL1  H12B 6245   1.976   6.051   3.651 -0.4956  0.0826 -1.1849
   69CHL1   C11 6246   1.991   6.209   3.502  0.6558  0.4843  0.1737
   69CHL1  H11A 6247   2.014   6.317   3.516 -0.4738  0.5847  1.5065
   69CHL1  H11B 6248   2.090   6.173   3.468  0.2549 -0.7982  0.3038
   69CHL1    C9 6249   1.879   6.170   3.408  0.6200 -0.1072 -0.1325
   69CHL1    H9 6250   1.881   6.059   3.396 -2.7818 -0.2237 -0.6884
   69CHL1   C10 6251   1.904   6.219   3.262 -0.7619  0.7145  0.1881
   69CHL1   C19 6252   1.949   6.364   3.270 -0.4127 -0.1299  0.4679
   69CHL1  H19A 6253   1.965   6.409   3.169  0.8424 -0.7328  0.3815
   69CHL1  H19B 6254   1.891   6.430   3.338 -0.6075  1.3207 -1.0196
   69CHL1  H19C 6255   2.054   6.370   3.306 -1.1302  1.5250  2.5207
   69CHL1    C1 6256   2.001   6.118   3.189 -0.3948 -0.2374 -0.0834
   69CHL1   H1A 6257   2.097   6.112   3.245  0.8005 -0.8169 -2.0759
   69CHL1   H1B 6258   1.959   6.015   3.193  0.4661 -0.5994  0.0169
   69CHL1    C2 6259   2.038   6.156   3.043 -0.0165  0.4810 -0.5854
   69CHL1   H2A 6260   2.112   6.084   3.002 -1.2443 -2.0059  1.2912
   69CHL1   H2B 6261   2.080   6.259   3.037  1.4832 -0.1421 -1.3114
   69CHL1   C20 6262   1.814   6.171   3.968 -0.7718 -0.5526  0.1354
   69CHL1   H20 6263   1.798   6.279   3.989 -3.7545 -0.7531 -0.6485
   69CHL1   C21 6264   1.969   6.156   3.974 -1.1545 -0.0599  0.0188
   69CHL1  H21A 6265   1.995   6.050   3.951 -2.5434 -0.3602 -0.2411
   69CHL1  H21B 6266   2.004   6.172   4.078 -0.6461 -1.8886  0.1579
   69CHL1  H21C 6267   2.026   6.227   3.910  1.2339 -1.5223  0.4079
   69CHL1   C22 6268   1.751   6.081   4.083  0.6011  0.7116  0.1426
   69CHL1  H22A 6269   1.640   6.079   4.069  0.6575  0.9386 -0.3777
   69CHL1  H22B 6270   1.797   5.981   4.073  1.6842  1.2154  0.0036
   69CHL1   C23 6271   1.777   6.141   4.220 -0.8387  0.1062 -0.2986
   69CHL1  H23A 6272   1.875   6.104   4.258  0.7601  1.7147 -2.5038
   69CHL1  H23B 6273   1.783   6.251   4.205  0.9315  0.1156  0.1765
   69CHL1   C24 6274   1.657   6.119   4.312  0.2169 -0.1988 -0.0363
   69CHL1  H24A 6275   1.570   6.178   4.276  0.4916  0.8767  1.0066
   69CHL1  H24B 6276   1.638   6.009   4.305 -0.1448 -0.0740 -1.2789
   69CHL1   C25 6277   1.673   6.157   4.464 -0.2140 -0.0885 -0.3813
   69CHL1   H25 6278   1.755   6.086   4.489  1.1800  0.3841 -3.1809
   69CHL1   C26 6279   1.702   6.300   4.483 -0.5868  0.4737  0.6086
   69CHL1  H26A 6280   1.728   6.327   4.587  0.2075 -2.5530  1.3040
   69CHL1  H26B 6281   1.777   6.332   4.407  1.0372 -2.7810  0.6598
   69CHL1  H26C 6282   1.606   6.354   4.465 -1.2698 -1.0957 -0.9329
   69CHL1   C27 6283   1.548   6.109   4.540  0.1744  0.0240  0.4139
   69CHL1  H27A 6284   1.540   6.000   4.560  0.6160 -0.1446 -0.2885
   69CHL1  H27B 6285   1.542   6.158   4.640  2.6022 -0.8925  1.0884
   69CHL1  H27C 6286   1.462   6.150   4.482  1.7991  1.9359 -0.7610
   70CHL1    C3 6287   3.993   0.835   3.043 -0.4540 -0.4181  0.2788
   70CHL1    H3 6288   4.082   0.774   3.018 -0.6149 -1.0798  1.2407
   70CHL1    O3 6289   3.952   0.892   2.918  0.1310  0.0189  0.1640
   70CHL1   H3' 6290   3.929   0.815   2.866  0.5831 -0.3364  0.4828
   70CHL1    C4 6291   3.882   0.750   3.103  0.0252  0.3541 -0.1040
   70CHL1   H4A 6292   3.793   0.815   3.114 -0.6362 -0.5314 -0.0636
   70CHL1   H4B 6293   3.863   0.673   3.025  1.4277 -1.2369  1.0554
   70CHL1    C5 6294   3.921   0.680   3.232  0.0874  0.0405 -0.0111
   70CHL1    C6 6295   3.926   0.541   3.245  0.3092 -0.0334 -0.1004
   70CHL1    H6 6296   3.897   0.471   3.166  2.4749  0.1225 -1.1130
   70CHL1    C7 6297   3.967   0.462   3.368 -0.0433 -0.0570 -0.6027
   70CHL1   H7A 6298   3.896   0.377   3.386  0.3705 -0.3670 -0.4192
   70CHL1   H7B 6299   4.070   0.421   3.359 -0.0758 -0.4588  0.5970
   70CHL1    C8 6300   3.970   0.564   3.485 -0.1833  0.6095  0.1479
   70CHL1    H8 6301   3.865   0.587   3.510 -0.5941  0.1333 -1.0688
   70CHL1   C14 6302   4.040   0.506   3.604 -0.3019 -0.6930 -0.3991
   70CHL1   H14 6303   4.145   0.487   3.573  0.2364 -1.2739  1.6032
   70CHL1   C15 6304   4.009   0.357   3.639 -0.5257 -0.4782 -0.5158
   70CHL1  H15A 6305   3.904   0.325   3.621 -0.1649 -1.9163 -0.2461
   70CHL1  H15B 6306   4.067   0.295   3.568 -1.5677  0.2045 -2.0021
   70CHL1   C16 6307   4.064   0.342   3.780  0.2173  0.5335 -0.0126
   70CHL1  H16A 6308   3.979   0.316   3.847 -0.5740  0.8885 -0.8638
   70CHL1  H16B 6309   4.134   0.256   3.782 -2.2862 -1.6711  2.2703
   70CHL1   C17 6310   4.115   0.484   3.821  0.2522 -0.7083  0.1320
   70CHL1   H17 6311   4.226   0.485   3.810  0.1692 -1.0557 -0.7708
   70CHL1   C13 6312   4.043   0.586   3.733  0.5667  1.2453  0.1701
   70CHL1   C18 6313   3.898   0.613   3.778 -0.0066  0.0518  0.2175
   70CHL1  H18A 6314   3.847   0.514   3.788  0.5925 -0.2156  0.6887
   70CHL1  H18B 6315   3.888   0.650   3.882 -1.5378 -2.5588  1.1110
   70CHL1  H18C 6316   3.839   0.671   3.705 -0.1796 -1.2832 -0.7336
   70CHL1   C12 6317   4.122   0.714   3.700  0.4905 -0.0194 -0.3004
   70CHL1  H12A 6318   4.109   0.786   3.784  1.4887 -2.2406  1.8729
   70CHL1  H12B 6319   4.230   0.700   3.679  0.3156  0.2558 -1.4493
   70CHL1   C11 6320   4.059   0.775   3.580 -0.3715 -0.3425 -0.0847
   70CHL1  H11A 6321   3.960   0.807   3.619  0.7632  0.3750  2.4482
   70CHL1  H11B 6322   4.116   0.866   3.550  2.4758 -1.9265  0.2030
   70CHL1    C9 6323   4.042   0.695   3.450  0.0425  0.7480 -0.2299
   70CHL1    H9 6324   4.142   0.672   3.408 -0.9127 -2.6276 -0.9988
   70CHL1   C10 6325   3.974   0.776   3.337  0.3635  0.5159 -0.0698
   70CHL1   C19 6326   3.840   0.842   3.382  0.1181 -0.3008 -0.0072
   70CHL1  H19A 6327   3.788   0.876   3.290  0.1260 -1.4856 -0.4667
   70CHL1  H19B 6328   3.769   0.773   3.432 -0.1484  1.1872  1.8025
   70CHL1  H19C 6329   3.861   0.927   3.451  1.3259  0.7355 -1.5715
   70CHL1    C1 6330   4.075   0.880   3.286 -0.1697  0.5779  1.0965
   70CHL1   H1A 6331   4.092   0.962   3.360  1.7347  1.1497  0.0999
   70CHL1   H1B 6332   4.174   0.832   3.273 -0.8269 -1.0889  1.9157
   70CHL1    C2 6333   4.030   0.944   3.144 -0.6287 -0.0546 -0.4939
   70CHL1   H2A 6334   4.108   1.015   3.110 -0.8724  0.3159 -0.2887
   70CHL1   H2B 6335   3.936   1.001   3.161  0.0397  0.9897 -0.2478
   70CHL1   C20 6336   4.116   0.496   3.972  0.9740  0.7778 -0.0460
   70CHL1   H20 6337   4.011   0.480   4.004  1.3200 -0.0775  0.7072
   70CHL1   C21 6338   4.152   0.645   4.008 -1.3631 -0.3201 -0.4157
   70CHL1  H21A 6339   4.247   0.679   3.962 -1.7646  1.6796  0.1037
   70CHL1  H21B 6340   4.159   0.651   4.118  1.7757 -4.1137 -0.2103
   70CHL1  H21C 6341   4.073   0.706   3.959 -1.3856 -1.1063 -1.3956
   70CHL1   C22 6342   4.205   0.398   4.048  0.1218  0.0358  0.1210
   70CHL1  H22A 6343   4.190   0.296   4.006  0.0375 -0.1165  0.5245
   70CHL1  H22B 6344   4.308   0.438   4.038  0.0370  0.3051  0.3342
   70CHL1   C23 6345   4.175   0.379   4.195  0.5255 -0.2237  0.3855
   70CHL1  H23A 6346   4.182   0.479   4.244 -1.0412  0.8589 -1.4459
   70CHL1  H23B 6347   4.069   0.346   4.207  0.1729 -0.3039 -2.3707
   70CHL1   C24 6348   4.264   0.266   4.256  0.9541 -0.2401 -0.5380
   70CHL1  H24A 6349   4.261   0.185   4.180  0.3371 -0.5600 -0.1746
   70CHL1  H24B 6350   4.370   0.301   4.263  1.0677 -0.5724 -0.6084
   70CHL1   C25 6351   4.209   0.198   4.389  0.0843  0.5673 -0.2280
   70CHL1   H25 6352   4.101   0.177   4.376 -0.0802  2.0851 -1.7764
   70CHL1   C26 6353   4.281   0.064   4.417  0.8279 -0.3129  0.4135
   70CHL1  H26A 6354   4.300   0.010   4.322  0.6298  2.7999 -1.5362
   70CHL1  H26B 6355   4.372   0.083   4.478  0.9798 -0.8989  0.3750
   70CHL1  H26C 6356   4.216   0.004   4.485  1.9226 -1.1538  0.7487
   70CHL1   C27 6357   4.229   0.296   4.507  0.3785 -0.5925  0.2832
   70CHL1  H27A 6358   4.335   0.313   4.535  0.0970 -0.0199  1.0430
   70CHL1  H27B 6359   4.174   0.391   4.491  1.4148 -0.3912 -2.5188
   70CHL1  H27C 6360   4.185   0.262   4.603 -0.4739  2.4642  1.0934
   71CHL1    C3 6361   2.022   1.437   3.295 -0.1347  0.1523  0.1485
   71CHL1    H3 6362   1.920   1.448   3.339  0.6678 -0.1843  2.1599
   71CHL1    O3 6363   2.014   1.446   3.153  0.5174 -0.3072 -0.4348
   71CHL1   H3' 6364   2.105   1.461   3.130  1.2397 -2.2528  0.8024
   71CHL1    C4 6365   2.120   1.540   3.347 -0.4851  0.5507 -0.3737
   71CHL1   H4A 6366   2.216   1.540   3.291 -0.7760  0.3561 -0.8783
   71CHL1   H4B 6367   2.092   1.644   3.318  3.0539  2.2947  1.7770
   71CHL1    C5 6368   2.135   1.532   3.501 -0.1039 -0.3245  1.0494
   71CHL1    C6 6369   2.111   1.644   3.575 -0.5474  0.4569  0.0478
   71CHL1    H6 6370   2.074   1.736   3.528 -0.7270 -0.1053 -0.9526
   71CHL1    C7 6371   2.137   1.639   3.723 -0.2047  0.0563  0.0719
   71CHL1   H7A 6372   2.197   1.729   3.750  3.0422 -1.0891 -2.7340
   71CHL1   H7B 6373   2.047   1.650   3.787  0.0815  0.2432  0.4500
   71CHL1    C8 6374   2.217   1.524   3.777  0.5379  0.2967 -0.2377
   71CHL1    H8 6375   2.324   1.542   3.753  0.7850  1.0019  1.2799
   71CHL1   C14 6376   2.201   1.520   3.923 -0.3857  0.0235 -0.2947
   71CHL1   H14 6377   2.094   1.499   3.942 -0.7007 -0.6341 -2.5161
   71CHL1   C15 6378   2.238   1.646   4.004  0.5124  0.3594  0.1465
   71CHL1  H15A 6379   2.337   1.691   3.983  1.3453 -0.2374  2.5129
   71CHL1  H15B 6380   2.151   1.711   3.981 -0.8882 -1.7692 -0.9761
   71CHL1   C16 6381   2.259   1.590   4.142 -0.8115 -0.3298 -0.4776
   71CHL1  H16A 6382   2.359   1.626   4.175 -0.4045 -1.1740 -0.7513
   71CHL1  H16B 6383   2.185   1.629   4.214  0.1846  0.7716 -0.0192
   71CHL1   C17 6384   2.264   1.434   4.134  0.4875 -0.1756  1.3707
   71CHL1   H17 6385   2.164   1.393   4.159  0.9737 -0.7740  2.3758
   71CHL1   C13 6386   2.293   1.409   3.986  0.6852  0.5459  0.3910
   71CHL1   C18 6387   2.441   1.407   3.957  0.5070 -0.6594 -0.4719
   71CHL1  H18A 6388   2.465   1.405   3.848  1.3523 -1.9382 -0.2851
   71CHL1  H18B 6389   2.493   1.495   4.001 -0.9059 -0.2717  0.4755
   71CHL1  H18C 6390   2.476   1.309   3.995 -2.1479 -1.2423  0.6652
   71CHL1   C12 6391   2.229   1.275   3.936 -0.6554 -0.5766  0.3271
   71CHL1  H12A 6392   2.289   1.190   3.974 -1.2207 -1.0887  0.0826
   71CHL1  H12B 6393   2.124   1.281   3.971 -0.1958  0.3103  1.6095
   71CHL1   C11 6394   2.234   1.266   3.782 -0.8009 -0.2502  0.5816
   71CHL1  H11A 6395   2.341   1.270   3.750 -0.6738  0.0170  1.0301
   71CHL1  H11B 6396   2.194   1.169   3.746 -2.8760  0.5725  0.5674
   71CHL1    C9 6397   2.165   1.392   3.713  0.4669 -0.4536 -0.2829
   71CHL1    H9 6398   2.057   1.391   3.738  0.6369  0.3973  0.5184
   71CHL1   C10 6399   2.180   1.397   3.552 -0.4215  0.3258  0.0834
   71CHL1   C19 6400   2.328   1.380   3.514  0.3592  0.6448 -0.6994
   71CHL1  H19A 6401   2.351   1.427   3.416  1.6513  0.8467 -0.3217
   71CHL1  H19B 6402   2.389   1.429   3.593 -2.4040 -0.4406  2.3488
   71CHL1  H19C 6403   2.360   1.274   3.511 -0.0506  0.5308 -1.3023
   71CHL1    C1 6404   2.089   1.291   3.489 -0.1997  0.3477 -0.4161
   71CHL1   H1A 6405   2.123   1.189   3.519  0.8462  0.4010 -1.3433
   71CHL1   H1B 6406   1.987   1.295   3.534 -0.5943  0.1060 -1.2648
   71CHL1    C2 6407   2.080   1.300   3.335  0.4851  0.2848  0.6038
   71CHL1   H2A 6408   2.022   1.215   3.294  0.5304 -0.2594  1.6492
   71CHL1   H2B 6409   2.181   1.289   3.289  0.6832  1.5587  0.6868
   71CHL1   C20 6410   2.363   1.361   4.231 -0.9356 -0.3051  0.6328
   71CHL1   H20 6411   2.465   1.365   4.189 -0.7639 -1.9722  0.8174
   71CHL1   C21 6412   2.338   1.207   4.238  0.0277 -0.7236 -0.2553
   71CHL1  H21A 6413   2.390   1.153   4.156 -0.2715  1.4224 -1.9507
   71CHL1  H21B 6414   2.231   1.174   4.236 -0.4906  0.8321 -2.0553
   71CHL1  H21C 6415   2.377   1.169   4.334  3.2202  3.9660  0.6261
   71CHL1   C22 6416   2.362   1.416   4.371 -0.1658  0.8332  0.1418
   71CHL1  H22A 6417   2.445   1.363   4.424 -0.3418  1.1093  0.7090
   71CHL1  H22B 6418   2.403   1.519   4.385 -0.2168  0.8253  0.3658
   71CHL1   C23 6419   2.235   1.402   4.454  0.0886  0.3720  0.2897
   71CHL1  H23A 6420   2.154   1.453   4.397  0.0015 -0.5163 -0.3903
   71CHL1  H23B 6421   2.210   1.295   4.470 -1.0067  0.4259 -0.9326
   71CHL1   C24 6422   2.259   1.472   4.592 -0.7026  0.4040 -0.7312
   71CHL1  H24A 6423   2.201   1.416   4.668 -1.7515 -1.7947 -2.9774
   71CHL1  H24B 6424   2.362   1.459   4.629 -1.8150 -3.0143  1.5957
   71CHL1   C25 6425   2.213   1.625   4.583 -0.3785 -0.4634 -0.6890
   71CHL1   H25 6426   2.261   1.671   4.494  0.6288 -1.0591 -0.4658
   71CHL1   C26 6427   2.061   1.640   4.578  0.5589 -0.4212 -0.1396
   71CHL1  H26A 6428   2.007   1.581   4.655  1.5094 -0.4191  0.5398
   71CHL1  H26B 6429   2.032   1.746   4.594  1.4365  0.2807 -2.6820
   71CHL1  H26C 6430   2.037   1.626   4.470  0.9431  2.4423 -0.6992
   71CHL1   C27 6431   2.267   1.704   4.702 -0.0295  0.9076 -0.0148
   71CHL1  H27A 6432   2.372   1.669   4.715  0.2291  1.8959  0.6381
   71CHL1  H27B 6433   2.268   1.813   4.682  0.9928  0.6835 -1.3692
   71CHL1  H27C 6434   2.197   1.688   4.787 -0.1280 -2.1005 -0.5649
   72CHL1    C3 6435   2.632   5.063   3.104 -0.2431  0.3866 -0.3543
   72CHL1    H3 6436   2.620   5.161   3.156 -1.5962 -0.6978  1.5399
   72CHL1    O3 6437   2.620   5.085   2.968  0.0595  0.3229 -0.5034
   72CHL1   H3' 6438   2.643   5.000   2.930  0.0546 -0.5011  1.2049
   72CHL1    C4 6439   2.776   5.027   3.141 -0.5213  0.1402 -0.1245
   72CHL1   H4A 6440   2.819   4.937   3.091 -0.5139  0.8627 -1.4675
   72CHL1   H4B 6441   2.844   5.104   3.097  0.5917 -0.6343  0.1828
   72CHL1    C5 6442   2.806   5.013   3.286 -0.7318 -0.0909 -0.5174
   72CHL1    C6 6443   2.906   5.074   3.353  0.1036 -0.6007  0.1711
   72CHL1    H6 6444   2.971   5.141   3.295 -0.1651 -0.1070  0.4249
   72CHL1    C7 6445   2.941   5.060   3.503  0.3552  0.0600 -0.0539
   72CHL1   H7A 6446   3.051   5.044   3.505  0.2806 -0.5003 -0.2086
   72CHL1   H7B 6447   2.917   5.155   3.555 -1.7484  0.1183 -1.0277
   72CHL1    C8 6448   2.853   4.945   3.568  1.0927 -0.4148  0.3445
   72CHL1    H8 6449   2.905   4.853   3.532  1.5259 -0.7309  1.7066
   72CHL1   C14 6450   2.862   4.946   3.723 -0.5375  0.1902 -0.5018
   72CHL1   H14 6451   2.824   5.047   3.748  1.1591  0.3206  1.9147
   72CHL1   C15 6452   3.001   4.933   3.784  0.6805  0.2230 -0.0719
   72CHL1  H15A 6453   3.048   4.838   3.753 -2.4068 -2.0957  1.7785
   72CHL1  H15B 6454   3.065   5.023   3.775 -0.4318  1.1673  1.0377
   72CHL1   C16 6455   2.969   4.915   3.935  0.5530  0.8119  0.1615
   72CHL1  H16A 6456   3.028   4.831   3.980 -1.5541  1.3256  4.4258
   72CHL1  H16B 6457   2.982   5.005   3.999 -1.8323  0.5260  1.1532
   72CHL1   C17 6458   2.813   4.877   3.944  0.2469  0.7804  0.5278
   72CHL1   H17 6459   2.761   4.971   3.972 -0.7579  1.2923 -2.6211
   72CHL1   C13 6460   2.774   4.848   3.798  0.2658  0.7148  0.0898
   72CHL1   C18 6461   2.797   4.700   3.757 -0.5198 -0.1401 -0.7499
   72CHL1  H18A 6462   2.884   4.658   3.811 -0.9994 -2.0348 -1.3676
   72CHL1  H18B 6463   2.709   4.640   3.788 -0.1517 -0.1619  0.3027
   72CHL1  H18C 6464   2.808   4.690   3.647  2.5849  2.4311 -0.8194
   72CHL1   C12 6465   2.632   4.889   3.752  0.5103  0.0461  0.3256
   72CHL1  H12A 6466   2.557   4.834   3.813 -0.0504 -0.4366 -0.7677
   72CHL1  H12B 6467   2.620   5.000   3.758 -0.1339  0.0813 -1.1069
   72CHL1   C11 6468   2.605   4.874   3.595 -0.6859 -0.7417 -0.2226
   72CHL1  H11A 6469   2.614   4.764   3.579 -2.2933 -0.7084 -1.6763
   72CHL1  H11B 6470   2.499   4.909   3.590 -1.4310 -2.1920  2.9664
   72CHL1    C9 6471   2.706   4.958   3.513 -0.3254  0.4011  0.5393
   72CHL1    H9 6472   2.676   5.061   3.543 -1.1365 -0.0023  1.1567
   72CHL1   C10 6473   2.706   4.926   3.361 -0.1831  0.0449 -0.2032
   72CHL1   C19 6474   2.736   4.782   3.324  0.0087 -0.8103  0.7010
   72CHL1  H19A 6475   2.834   4.745   3.361  0.3670  0.3344  0.9583
   72CHL1  H19B 6476   2.660   4.722   3.378 -0.9018 -0.4262 -0.1271
   72CHL1  H19C 6477   2.730   4.778   3.213 -1.8700  1.2974  0.6544
   72CHL1    C1 6478   2.560   4.966   3.322  0.0835 -0.0452 -0.3512
   72CHL1   H1A 6479   2.494   4.886   3.360 -1.1490  1.5500  1.0282
   72CHL1   H1B 6480   2.542   5.066   3.368 -0.1291 -0.6075  0.8197
   72CHL1    C2 6481   2.535   4.969   3.168  0.0675 -0.2017 -0.4480
   72CHL1   H2A 6482   2.436   5.016   3.149  0.0515 -0.5568 -1.2921
   72CHL1   H2B 6483   2.557   4.867   3.128 -2.2688 -0.9074 -0.1123
   72CHL1   C20 6484   2.780   4.777   4.057  0.0678 -0.4145  0.1081
   72CHL1   H20 6485   2.801   4.678   4.010  0.5641 -0.9296  1.3835
   72CHL1   C21 6486   2.636   4.795   4.092  0.0441  0.4729 -0.6815
   72CHL1  H21A 6487   2.611   4.740   4.185 -0.3731  1.1706 -0.3755
   72CHL1  H21B 6488   2.563   4.764   4.014 -1.1535 -1.5855  1.1493
   72CHL1  H21C 6489   2.628   4.901   4.125  2.1669  0.2634  0.6833
   72CHL1   C22 6490   2.862   4.790   4.191 -0.3806  0.0491 -0.1763
   72CHL1  H22A 6491   2.821   4.708   4.252  1.3482 -1.1093 -0.5046
   72CHL1  H22B 6492   2.969   4.761   4.182 -1.2300 -5.4669  3.1647
   72CHL1   C23 6493   2.850   4.922   4.263 -0.1452  0.9510  0.2322
   72CHL1  H23A 6494   2.895   5.002   4.200  0.2014 -0.4762 -1.4211
   72CHL1  H23B 6495   2.743   4.942   4.288 -0.6370  1.7476 -2.2028
   72CHL1   C24 6496   2.932   4.908   4.390 -0.4071 -0.1952  0.1223
   72CHL1  H24A 6497   2.870   4.825   4.428 -0.3877 -0.8334 -1.1974
   72CHL1  H24B 6498   3.038   4.877   4.377 -0.6694 -0.5142 -1.3703
   72CHL1   C25 6499   2.922   5.025   4.493 -0.5601 -0.5167 -0.0745
   72CHL1   H25 6500   2.822   5.067   4.470  0.0258  0.3550 -1.1226
   72CHL1   C26 6501   2.928   4.960   4.639 -0.2083 -0.2703  0.1444
   72CHL1  H26A 6502   3.030   4.918   4.655  0.2006  0.3890 -0.5985
   72CHL1  H26B 6503   2.905   5.035   4.717 -0.0172  0.5159 -0.5366
   72CHL1  H26C 6504   2.850   4.882   4.650 -1.1297  0.8580  2.2679
   72CHL1   C27 6505   3.033   5.130   4.467  0.6519  0.5857  0.2886
   72CHL1  H27A 6506   3.133   5.081   4.467  0.8346  0.9037 -1.4149
   72CHL1  H27B 6507   3.020   5.159   4.361 -0.0960 -1.7467 -0.3012
   72CHL1  H27C 6508   3.017   5.213   4.540 -0.7328  0.1126  0.5420
   73CHL1    C3 6509   3.924   6.568   3.140  0.4720 -0.0225  0.1039
   73CHL1    H3 6510   3.864   6.655   3.175  0.4254  2.4804 -5.2332
   73CHL1    O3 6511   3.911   6.568   3.003  0.3877 -0.3956 -0.1122
   73CHL1   H3' 6512   3.820   6.541   2.990  0.0749  0.3060  0.5590
   73CHL1    C4 6513   4.075   6.585   3.189  0.3799  0.4783  0.4556
   73CHL1   H4A 6514   4.132   6.511   3.128 -2.3825 -2.4267  1.1159
   73CHL1   H4B 6515   4.092   6.691   3.161  1.6117 -0.0174 -0.7924
   73CHL1    C5 6516   4.087   6.561   3.338  0.3050  0.4218 -0.2929
   73CHL1    C6 6517   4.144   6.657   3.413 -0.4791  0.0153  0.5410
   73CHL1    H6 6518   4.177   6.749   3.363 -2.1088  0.5649  0.4056
   73CHL1    C7 6519   4.161   6.646   3.562  0.0747 -0.2179  0.1736
   73CHL1   H7A 6520   4.264   6.679   3.585 -0.0671  1.5084 -1.4238
   73CHL1   H7B 6521   4.100   6.730   3.602 -0.5897  0.4595 -2.0782
   73CHL1    C8 6522   4.138   6.509   3.624  0.4243 -0.1101 -0.2941
   73CHL1    H8 6523   4.230   6.448   3.613  0.7432  0.5762 -1.4803
   73CHL1   C14 6524   4.105   6.515   3.777 -0.4567  0.2487 -0.6584
   73CHL1   H14 6525   4.005   6.563   3.780 -0.7512 -0.3233 -1.1361
   73CHL1   C15 6526   4.200   6.594   3.874  0.5582  0.8950  0.7001
   73CHL1  H15A 6527   4.304   6.596   3.835 -0.1982 -0.9306 -1.7152
   73CHL1  H15B 6528   4.169   6.700   3.884  0.6326  1.0601 -0.6305
   73CHL1   C16 6529   4.185   6.523   4.012 -0.9117  0.0094  0.3110
   73CHL1  H16A 6530   4.279   6.479   4.052  1.3874  2.0441 -2.4152
   73CHL1  H16B 6531   4.145   6.595   4.087 -0.8136  0.5078 -0.1134
   73CHL1   C17 6532   4.070   6.416   3.986  0.0197 -0.1833 -0.0381
   73CHL1   H17 6533   3.972   6.467   3.994 -0.8602 -1.7272 -0.5773
   73CHL1   C13 6534   4.087   6.374   3.837 -0.4158 -1.2246  0.0811
   73CHL1   C18 6535   4.215   6.284   3.816  0.9602 -0.5868 -0.3604
   73CHL1  H18A 6536   4.210   6.245   3.712 -0.8645 -3.4123  0.6549
   73CHL1  H18B 6537   4.310   6.328   3.853  0.2905 -0.5779  1.4685
   73CHL1  H18C 6538   4.200   6.191   3.875  0.2206 -0.2463 -0.0104
   73CHL1   C12 6539   3.968   6.311   3.766  0.7858  0.3980 -0.3761
   73CHL1  H12A 6540   3.955   6.207   3.802  1.0646  0.5865  0.2873
   73CHL1  H12B 6541   3.873   6.368   3.781 -0.0634 -0.4974 -1.9889
   73CHL1   C11 6542   3.987   6.308   3.609 -0.0419 -0.5826 -0.1048
   73CHL1  H11A 6543   4.061   6.231   3.579  1.4676  1.8594 -3.2151
   73CHL1  H11B 6544   3.891   6.266   3.572 -0.3952 -0.5636  0.7570
   73CHL1    C9 6545   4.017   6.443   3.554 -0.7206 -0.4807  0.9685
   73CHL1    H9 6546   3.938   6.515   3.584 -0.9076  0.2173 -1.0195
   73CHL1   C10 6547   4.024   6.438   3.400 -0.2937  0.9043 -0.5318
   73CHL1   C19 6548   4.130   6.330   3.349  0.0405  0.1243 -0.3107
   73CHL1  H19A 6549   4.092   6.225   3.358  0.1097  0.0546 -0.8028
   73CHL1  H19B 6550   4.145   6.331   3.239 -0.0715 -1.5150 -0.3707
   73CHL1  H19C 6551   4.231   6.342   3.393 -0.5683 -0.1411  1.2074
   73CHL1    C1 6552   3.877   6.412   3.340 -0.6624  0.1400 -0.6739
   73CHL1   H1A 6553   3.839   6.308   3.353 -1.0937  0.3149 -0.5188
   73CHL1   H1B 6554   3.812   6.471   3.409  1.8688  1.5024  0.6968
   73CHL1    C2 6555   3.863   6.436   3.194 -0.2383  0.0892  0.2440
   73CHL1   H2A 6556   3.758   6.422   3.161 -0.6603  1.9289  0.7152
   73CHL1   H2B 6557   3.922   6.354   3.146 -0.9954 -0.4561  0.2226
   73CHL1   C20 6558   4.078   6.307   4.098 -0.3522 -0.6364  0.4630
   73CHL1   H20 6559   4.168   6.243   4.098 -0.8439 -1.3355  0.1487
   73CHL1   C21 6560   3.949   6.219   4.095  0.2011  0.4414  0.0705
   73CHL1  H21A 6561   3.940   6.144   4.176 -1.3245 -1.8285 -2.0630
   73CHL1  H21B 6562   3.953   6.155   4.004 -0.5404 -0.1259  0.4274
   73CHL1  H21C 6563   3.850   6.268   4.085  0.1602  0.8320  1.9943
   73CHL1   C22 6564   4.085   6.384   4.233 -0.8103 -1.1245 -0.9307
   73CHL1  H22A 6565   4.172   6.452   4.242 -0.6632 -0.9511 -3.2322
   73CHL1  H22B 6566   3.997   6.444   4.263 -1.0160 -2.7459  2.0905
   73CHL1   C23 6567   4.105   6.288   4.355 -1.0137 -0.5284  0.0857
   73CHL1  H23A 6568   4.021   6.214   4.361 -1.4273 -0.0636  0.0734
   73CHL1  H23B 6569   4.192   6.222   4.337 -1.2975 -1.0516  0.5655
   73CHL1   C24 6570   4.134   6.360   4.483 -0.4481 -0.1771  0.1630
   73CHL1  H24A 6571   4.241   6.389   4.479 -0.4157 -0.3492 -0.3071
   73CHL1  H24B 6572   4.067   6.448   4.479 -0.0769  0.1529  0.9033
   73CHL1   C25 6573   4.120   6.274   4.615 -0.0016 -0.5676  0.8337
   73CHL1   H25 6574   4.180   6.182   4.597 -0.4583 -0.7770  0.3182
   73CHL1   C26 6575   4.177   6.349   4.737 -0.3229 -0.3562  0.0733
   73CHL1  H26A 6576   4.268   6.404   4.706 -0.4543 -0.1191  0.1001
   73CHL1  H26B 6577   4.108   6.432   4.766 -1.2669 -0.9787 -0.3407
   73CHL1  H26C 6578   4.190   6.288   4.829  2.9373 -0.9555 -0.6637
   73CHL1   C27 6579   3.978   6.227   4.647  0.1798  0.7830 -0.2236
   73CHL1  H27A 6580   3.917   6.320   4.649 -1.0687 -0.0184  1.9216
   73CHL1  H27B 6581   3.943   6.157   4.568 -1.1269  1.4521 -0.2607
   73CHL1  H27C 6582   3.965   6.194   4.752 -0.1450  0.7505 -0.2731
   74CHL1    C3 6583   4.520   5.305   3.329 -0.4299  0.4846 -0.1805
   74CHL1    H3 6584   4.502   5.407   3.368  0.2830  0.1095  1.1920
   74CHL1    O3 6585   4.511   5.302   3.192  0.1390 -0.8613  0.2060
   74CHL1   H3' 6586   4.454   5.225   3.182 -0.2729 -0.5311 -0.0136
   74CHL1    C4 6587   4.651   5.248   3.369 -0.7111 -1.0251  0.1822
   74CHL1   H4A 6588   4.666   5.149   3.321  1.4123 -0.1856 -0.9987
   74CHL1   H4B 6589   4.732   5.311   3.326 -2.0936  0.0686 -0.9553
   74CHL1    C5 6590   4.663   5.249   3.522  0.9543  0.1360 -0.1420
   74CHL1    C6 6591   4.755   5.317   3.589  0.0448 -0.9045  0.2956
   74CHL1    H6 6592   4.842   5.358   3.536  1.1272  0.4959  2.9488
   74CHL1    C7 6593   4.778   5.297   3.735  0.6109 -0.0204 -0.1466
   74CHL1   H7A 6594   4.887   5.288   3.758  0.6970 -2.2360 -1.1585
   74CHL1   H7B 6595   4.739   5.387   3.786  0.3615 -1.0403  1.5608
   74CHL1    C8 6596   4.689   5.185   3.800 -0.7642  0.4970 -0.2232
   74CHL1    H8 6597   4.756   5.096   3.797 -0.6518  0.5757 -0.0543
   74CHL1   C14 6598   4.666   5.217   3.951  0.3238  0.9370  0.0557
   74CHL1   H14 6599   4.597   5.305   3.948 -1.7304 -0.5846  0.8019
   74CHL1   C15 6600   4.782   5.276   4.039 -0.2723 -0.0115  0.1148
   74CHL1  H15A 6601   4.868   5.206   4.034 -1.4443 -1.4214 -1.8426
   74CHL1  H15B 6602   4.814   5.380   4.017 -1.1962  0.2620  0.0380
   74CHL1   C16 6603   4.737   5.248   4.180  0.5079  0.5719  0.9720
   74CHL1  H16A 6604   4.822   5.196   4.229  1.7849 -0.0683 -1.7176
   74CHL1  H16B 6605   4.724   5.341   4.238  3.0724  1.8128 -0.2625
   74CHL1   C17 6606   4.603   5.176   4.169  0.4684  0.6332  0.0724
   74CHL1   H17 6607   4.527   5.256   4.184  1.4618  1.2497  2.3673
   74CHL1   C13 6608   4.602   5.109   4.034  0.3841  0.5234  0.2479
   74CHL1   C18 6609   4.692   4.972   4.032  0.4174  0.7188 -0.4314
   74CHL1  H18A 6610   4.799   4.995   4.050  0.0446  1.7412  0.5479
   74CHL1  H18B 6611   4.668   4.904   4.116  1.3206  1.3914  0.3880
   74CHL1  H18C 6612   4.675   4.917   3.936 -0.4282  1.2551 -0.5977
   74CHL1   C12 6613   4.457   5.093   3.970 -0.1942 -0.1319  0.3194
   74CHL1  H12A 6614   4.400   5.007   4.013 -1.6998 -0.2616 -1.7782
   74CHL1  H12B 6615   4.398   5.185   3.990 -2.0706 -1.1462 -0.2501
   74CHL1   C11 6616   4.461   5.066   3.816  0.3441  0.2660  0.0703
   74CHL1  H11A 6617   4.485   4.958   3.800 -0.1825  0.1122  0.2876
   74CHL1  H11B 6618   4.358   5.077   3.776  0.6876  2.7384 -0.2408
   74CHL1    C9 6619   4.547   5.168   3.736 -0.7005  0.0385  0.4255
   74CHL1    H9 6620   4.499   5.266   3.755 -1.1463  0.1927 -1.2960
   74CHL1   C10 6621   4.548   5.164   3.588  0.6212 -0.1004  0.0634
   74CHL1   C19 6622   4.579   5.014   3.541 -0.0822 -0.4047 -0.0896
   74CHL1  H19A 6623   4.686   4.993   3.560  0.4724 -0.0582 -2.4814
   74CHL1  H19B 6624   4.514   4.951   3.605 -1.0037 -0.3107 -0.9000
   74CHL1  H19C 6625   4.569   4.995   3.432  0.2410  0.1127 -0.2129
   74CHL1    C1 6626   4.408   5.210   3.535  0.4346 -0.0521 -0.3032
   74CHL1   H1A 6627   4.330   5.133   3.554 -0.3664  0.5169 -1.1717
   74CHL1   H1B 6628   4.370   5.307   3.574  1.1899 -0.4089  1.4130
   74CHL1    C2 6629   4.392   5.221   3.383 -0.2685  0.3770  0.2466
   74CHL1   H2A 6630   4.296   5.269   3.354 -0.7918 -1.2041 -0.7520
   74CHL1   H2B 6631   4.400   5.126   3.325 -2.8759 -0.6153  1.3834
   74CHL1   C20 6632   4.590   5.076   4.288  0.3221 -0.0719 -0.3792
   74CHL1   H20 6633   4.670   4.999   4.288 -0.5823 -1.0381  0.3910
   74CHL1   C21 6634   4.461   4.996   4.278  0.3440 -0.3852 -0.0788
   74CHL1  H21A 6635   4.450   4.942   4.374 -2.8118 -0.5348 -0.4106
   74CHL1  H21B 6636   4.459   4.919   4.199  0.6924 -1.2276  0.7130
   74CHL1  H21C 6637   4.369   5.059   4.271  0.7252  0.0436 -1.4129
   74CHL1   C22 6638   4.592   5.141   4.435 -0.7051  0.0749 -0.6959
   74CHL1  H22A 6639   4.624   5.247   4.444 -0.9818 -0.0424  2.9260
   74CHL1  H22B 6640   4.485   5.146   4.466 -0.8508  4.2924 -1.2553
   74CHL1   C23 6641   4.686   5.064   4.540  0.3661  0.2973  0.0262
   74CHL1  H23A 6642   4.636   4.966   4.552 -0.6974  0.7734 -0.4139
   74CHL1  H23B 6643   4.781   5.042   4.486  0.0916  0.2073 -0.4289
   74CHL1   C24 6644   4.690   5.134   4.672  0.1332  0.1145 -0.8464
   74CHL1  H24A 6645   4.710   5.243   4.658 -0.7885  0.1991 -1.5784
   74CHL1  H24B 6646   4.588   5.133   4.716 -0.0546  0.5756 -1.2573
   74CHL1   C25 6647   4.784   5.083   4.782 -0.7196  0.1516  0.2619
   74CHL1   H25 6648   4.785   5.152   4.869  0.0858  0.1543  0.2563
   74CHL1   C26 6649   4.728   4.951   4.833  0.5345 -0.2367  0.2717
   74CHL1  H26A 6650   4.744   4.868   4.760 -1.4921  0.1788 -0.7174
   74CHL1  H26B 6651   4.779   4.937   4.930  1.3967  0.5312 -0.0538
   74CHL1  H26C 6652   4.618   4.950   4.851  0.1966 -0.8732 -1.5514
   74CHL1   C27 6653   4.925   5.065   4.729 -0.4438 -0.4814  0.7911
   74CHL1  H27A 6654   4.969   5.145   4.665  0.8224 -1.0559  0.9226
   74CHL1  H27B 6655   4.990   5.066   4.819 -0.1750  1.4897  0.6268
   74CHL1  H27C 6656   4.927   4.969   4.673  0.6712  0.0983 -0.2120
   75CHL1    C3 6657   5.312   5.458   3.102 -0.1425  0.7145  0.5675
   75CHL1    H3 6658   5.415   5.479   3.138 -1.4483  5.3074  2.3024
   75CHL1    O3 6659   5.301   5.515   2.976 -0.0961  0.4102 -0.1523
   75CHL1   H3' 6660   5.211   5.503   2.942 -0.5789  0.9096  0.9002
   75CHL1    C4 6661   5.294   5.311   3.092 -0.1170  1.2024  0.3330
   75CHL1   H4A 6662   5.194   5.285   3.051 -0.0885 -1.7123  1.8593
   75CHL1   H4B 6663   5.359   5.258   3.020 -2.0406 -2.2256  0.8749
   75CHL1    C5 6664   5.307   5.256   3.228 -0.7433 -0.0185 -0.3791
   75CHL1    C6 6665   5.392   5.150   3.258  0.0014  0.7343  0.0925
   75CHL1    H6 6666   5.451   5.104   3.177  1.5361  3.4598 -0.4819
   75CHL1    C7 6667   5.413   5.094   3.393 -0.3529 -0.1193  0.2737
   75CHL1   H7A 6668   5.421   4.983   3.386 -1.6888 -0.3289  1.6037
   75CHL1   H7B 6669   5.509   5.134   3.430  0.2653 -1.4300  0.1544
   75CHL1    C8 6670   5.298   5.137   3.493 -0.3090 -0.4074  0.7118
   75CHL1    H8 6671   5.208   5.083   3.456 -0.6919  0.9940 -0.4910
   75CHL1   C14 6672   5.326   5.101   3.634 -0.1542 -0.3435 -0.0497
   75CHL1   H14 6673   5.412   5.167   3.656 -2.3776  2.5878  0.5218
   75CHL1   C15 6674   5.383   4.960   3.662  0.1880  0.0269 -0.1922
   75CHL1  H15A 6675   5.319   4.892   3.602  1.1822  0.6679 -2.0581
   75CHL1  H15B 6676   5.489   4.953   3.632  0.1672 -1.2837 -0.0154
   75CHL1   C16 6677   5.358   4.947   3.811 -0.0971 -0.7342  0.0029
   75CHL1  H16A 6678   5.304   4.857   3.848 -0.1120 -0.2848  1.1162
   75CHL1  H16B 6679   5.452   4.921   3.863 -0.2925  0.6363  1.1029
   75CHL1   C17 6680   5.288   5.075   3.860  0.5557 -0.7477 -0.3202
   75CHL1   H17 6681   5.374   5.140   3.888  0.1304 -0.8743  1.4323
   75CHL1   C13 6682   5.220   5.139   3.734  0.0698  0.5419 -0.2185
   75CHL1   C18 6683   5.085   5.064   3.706  0.1394  0.2572  0.5770
   75CHL1  H18A 6684   5.040   5.095   3.610  1.7092  0.7087 -0.0451
   75CHL1  H18B 6685   5.110   4.956   3.697  0.0044  0.1849  1.0057
   75CHL1  H18C 6686   5.013   5.084   3.789 -1.4474  0.7892 -0.8789
   75CHL1   C12 6687   5.200   5.291   3.736 -0.2393  0.1980  0.8075
   75CHL1  H12A 6688   5.106   5.316   3.791 -1.9519 -0.1374 -1.8220
   75CHL1  H12B 6689   5.285   5.324   3.800  0.7383 -0.0507 -0.3295
   75CHL1   C11 6690   5.187   5.348   3.590  0.9040  0.1757 -0.1186
   75CHL1  H11A 6691   5.080   5.349   3.563  0.2386  1.3451  2.2726
   75CHL1  H11B 6692   5.215   5.455   3.589 -2.2766  1.0870 -0.8670
   75CHL1    C9 6693   5.269   5.289   3.478 -0.3395  0.5093 -0.2619
   75CHL1    H9 6694   5.371   5.330   3.491  0.5918 -2.2066  2.0295
   75CHL1   C10 6695   5.220   5.323   3.334 -0.7982  0.0138 -0.2477
   75CHL1   C19 6696   5.070   5.284   3.311 -1.5623  0.0926 -0.1790
   75CHL1  H19A 6697   5.057   5.178   3.342  2.2340  0.0188  1.8541
   75CHL1  H19B 6698   5.010   5.347   3.380  0.6520  2.2618 -0.0942
   75CHL1  H19C 6699   5.039   5.305   3.207 -0.0120  1.3607 -0.4194
   75CHL1    C1 6700   5.229   5.482   3.329 -0.3271 -0.6614  0.4925
   75CHL1   H1A 6701   5.154   5.522   3.400  1.6822  1.1773  1.7132
   75CHL1   H1B 6702   5.327   5.511   3.371 -1.0670 -0.3900  2.1001
   75CHL1    C2 6703   5.215   5.534   3.181 -0.1646 -0.0363 -0.6970
   75CHL1   H2A 6704   5.238   5.643   3.181 -3.1289  0.6856  0.3203
   75CHL1   H2B 6705   5.113   5.536   3.138  0.3034  0.1710 -1.8293
   75CHL1   C20 6706   5.199   5.058   3.990  0.1275 -0.2055  0.0975
   75CHL1   H20 6707   5.123   4.986   3.953  1.2171 -1.4750  0.2414
   75CHL1   C21 6708   5.134   5.190   4.036 -0.3198  0.1760  0.5942
   75CHL1  H21A 6709   5.079   5.248   3.958  0.6943  0.5094  0.1109
   75CHL1  H21B 6710   5.217   5.261   4.058 -1.3949  2.1254 -1.2722
   75CHL1  H21C 6711   5.075   5.165   4.127 -0.4532 -1.8176  0.0070
   75CHL1   C22 6712   5.273   4.998   4.108 -1.0395 -0.2039  0.9325
   75CHL1  H22A 6713   5.349   4.925   4.072 -1.2724 -0.1152  0.2454
   75CHL1  H22B 6714   5.332   5.084   4.147  1.1654 -0.4915 -1.4641
   75CHL1   C23 6715   5.170   4.935   4.196 -0.1134  0.5137  0.1911
   75CHL1  H23A 6716   5.089   5.001   4.234 -1.0858 -0.1300 -0.7208
   75CHL1  H23B 6717   5.123   4.854   4.136 -1.0901  0.6901  0.7047
   75CHL1   C24 6718   5.240   4.866   4.316  0.1117  0.3054 -0.8293
   75CHL1  H24A 6719   5.281   4.768   4.285  1.4710  0.7198 -0.4271
   75CHL1  H24B 6720   5.320   4.929   4.360  1.8802 -1.6424 -1.1065
   75CHL1   C25 6721   5.143   4.843   4.438 -0.6725 -0.5096  0.0366
   75CHL1   H25 6722   5.094   4.937   4.472 -0.1820  0.0576 -0.7897
   75CHL1   C26 6723   5.029   4.751   4.411  1.0240  0.6782  0.2636
   75CHL1  H26A 6724   5.053   4.644   4.392  0.8573  0.9086 -1.4265
   75CHL1  H26B 6725   4.957   4.743   4.495  3.1028 -1.0016  1.9800
   75CHL1  H26C 6726   4.969   4.796   4.329 -0.0425  0.0443  0.6723
   75CHL1   C27 6727   5.225   4.806   4.564  0.1621  0.8884  0.1649
   75CHL1  H27A 6728   5.153   4.758   4.635  0.1062 -0.8428 -1.0011
   75CHL1  H27B 6729   5.301   4.734   4.528 -0.1992  0.6702 -0.1735
   75CHL1  H27C 6730   5.274   4.896   4.606  0.3740  0.7084  0.3085
   76CHL1    C3 6731   1.084   5.454   3.229 -0.0267  0.0786 -0.2697
   76CHL1    H3 6732   1.185   5.438   3.273 -0.0616  0.2865 -0.1141
   76CHL1    O3 6733   1.093   5.478   3.091 -0.1020  0.0559  0.3914
   76CHL1   H3' 6734   1.004   5.469   3.057  0.2554  0.5554 -0.7062
   76CHL1    C4 6735   1.005   5.330   3.260 -0.3088 -0.8967  0.2100
   76CHL1   H4A 6736   0.902   5.341   3.221  0.2655  0.9592 -0.9561
   76CHL1   H4B 6737   1.050   5.243   3.207 -1.0905 -2.6719  2.3261
   76CHL1    C5 6738   1.005   5.301   3.405  0.1406 -0.8345 -0.0858
   76CHL1    C6 6739   1.063   5.185   3.456 -0.2548 -0.1166 -0.1512
   76CHL1    H6 6740   1.109   5.107   3.392  1.0941 -0.3438  1.0591
   76CHL1    C7 6741   1.053   5.158   3.600 -0.1420 -0.5785  0.2285
   76CHL1   H7A 6742   1.015   5.054   3.606 -1.1157 -0.2410  0.0458
   76CHL1   H7B 6743   1.153   5.157   3.649 -0.0690 -0.9661  0.0800
   76CHL1    C8 6744   0.957   5.244   3.680 -0.0649 -0.0166  0.0296
   76CHL1    H8 6745   0.852   5.219   3.653 -0.0489  0.5290 -0.5470
   76CHL1   C14 6746   0.973   5.220   3.823 -0.3600  0.0644 -0.5982
   76CHL1   H14 6747   1.081   5.242   3.842  0.4073 -1.4432 -2.7735
   76CHL1   C15 6748   0.956   5.075   3.879  0.8387  0.5048  0.1732
   76CHL1  H15A 6749   0.879   5.021   3.821  1.0576  0.8695 -0.4734
   76CHL1  H15B 6750   1.053   5.021   3.875  0.3364 -0.4324  0.4814
   76CHL1   C16 6751   0.914   5.087   4.028 -0.2720  0.2832  0.0364
   76CHL1  H16A 6752   0.812   5.044   4.034 -0.2751 -0.2747 -2.6358
   76CHL1  H16B 6753   0.986   5.034   4.094  0.9076  0.4665 -1.0705
   76CHL1   C17 6754   0.907   5.235   4.057  0.1948 -0.1234  0.0347
   76CHL1   H17 6755   1.009   5.268   4.085  0.2679  0.0483 -0.4296
   76CHL1   C13 6756   0.884   5.304   3.920  0.3391 -0.3060 -0.1890
   76CHL1   C18 6757   0.737   5.277   3.882  0.7851  0.3613 -0.2204
   76CHL1  H18A 6758   0.675   5.325   3.961  1.6095 -0.6863  1.1073
   76CHL1  H18B 6759   0.710   5.318   3.783 -0.8386 -1.4611 -0.6036
   76CHL1  H18C 6760   0.702   5.172   3.887 -4.4197  1.7013 -2.5462
   76CHL1   C12 6761   0.918   5.452   3.902 -0.3032  0.1802 -0.6502
   76CHL1  H12A 6762   0.851   5.518   3.961  1.2239  0.8178  0.4452
   76CHL1  H12B 6763   1.025   5.461   3.930  0.2257 -0.4431 -2.3389
   76CHL1   C11 6764   0.912   5.489   3.750  0.4588 -0.3844 -0.2866
   76CHL1  H11A 6765   0.806   5.505   3.720  0.1173 -0.1977  0.9666
   76CHL1  H11B 6766   0.960   5.588   3.735 -1.1255  0.5715  0.6934
   76CHL1    C9 6767   0.977   5.391   3.644 -0.7335 -0.5604 -0.4873
   76CHL1    H9 6768   1.083   5.418   3.661 -0.7662 -0.9001  0.2848
   76CHL1   C10 6769   0.952   5.422   3.495  0.5901 -0.3953  0.8021
   76CHL1   C19 6770   0.794   5.437   3.477 -0.0918 -0.6400  0.0068
   76CHL1  H19A 6771   0.761   5.536   3.516  1.5308 -0.2301  0.3898
   76CHL1  H19B 6772   0.773   5.431   3.368 -1.5544  1.6795  0.1046
   76CHL1  H19C 6773   0.740   5.363   3.541  1.2800 -0.3312  1.5832
   76CHL1    C1 6774   1.020   5.553   3.450 -0.5740  0.3819  0.2433
   76CHL1   H1A 6775   0.992   5.639   3.514  0.3762  1.1123 -0.3045
   76CHL1   H1B 6776   1.127   5.539   3.479 -0.3146  1.1456 -0.3071
   76CHL1    C2 6777   1.024   5.578   3.300 -0.4419 -0.2841 -1.2894
   76CHL1   H2A 6778   1.100   5.656   3.276 -2.0453  1.8309  0.1095
   76CHL1   H2B 6779   0.929   5.625   3.267 -0.2885  0.4627 -0.6954
   76CHL1   C20 6780   0.821   5.274   4.177  0.6274 -0.1438 -0.1291
   76CHL1   H20 6781   0.722   5.225   4.168  0.2885 -0.1696  2.8745
   76CHL1   C21 6782   0.799   5.427   4.191  0.4712 -1.0641 -0.7640
   76CHL1  H21A 6783   0.767   5.456   4.293 -0.2360 -0.9540 -1.0126
   76CHL1  H21B 6784   0.721   5.469   4.124  0.6030  2.2770  0.9481
   76CHL1  H21C 6785   0.895   5.475   4.160 -0.0470  0.3374 -0.2817
   76CHL1   C22 6786   0.881   5.203   4.307 -0.4518 -1.1997  0.1528
   76CHL1  H22A 6787   0.905   5.095   4.299 -2.0563 -1.5382 -0.5654
   76CHL1  H22B 6788   0.980   5.249   4.327 -0.4807 -0.7311 -0.7089
   76CHL1   C23 6789   0.783   5.212   4.435  0.1142  0.4788  0.2535
   76CHL1  H23A 6790   0.757   5.320   4.435  0.7054  0.6302  0.6865
   76CHL1  H23B 6791   0.701   5.144   4.405  1.3389 -0.7975 -0.3436
   76CHL1   C24 6792   0.852   5.156   4.559 -0.6598 -0.0500  0.9328
   76CHL1  H24A 6793   0.882   5.053   4.528 -0.9454  0.0499  0.3230
   76CHL1  H24B 6794   0.939   5.213   4.600  0.2183 -0.8756  0.2762
   76CHL1   C25 6795   0.765   5.147   4.681  0.7361  0.1373 -0.5523
   76CHL1   H25 6796   0.833   5.094   4.752  0.1567  0.2706  0.1207
   76CHL1   C26 6797   0.727   5.278   4.737  0.4278  0.4463  0.0987
   76CHL1  H26A 6798   0.654   5.314   4.661 -2.2713  1.8317  3.1246
   76CHL1  H26B 6799   0.668   5.267   4.831  0.1341  0.3729 -0.0912
   76CHL1  H26C 6800   0.811   5.349   4.750  0.1696  0.4979  1.7593
   76CHL1   C27 6801   0.651   5.045   4.653 -0.0570  0.1659 -0.4691
   76CHL1  H27A 6802   0.692   4.959   4.596 -2.6227 -0.5463 -1.3781
   76CHL1  H27B 6803   0.594   5.019   4.746 -0.1900 -0.9163 -0.8365
   76CHL1  H27C 6804   0.576   5.093   4.587 -0.3726 -0.4761 -0.5841
   77SOPE     N 6805   0.217   2.892   7.182 -0.1323 -0.3489 -0.5254
   77SOPE   HN1 6806   0.270   2.803   7.182  0.9817  0.2079  2.1471
   77SOPE   HN2 6807   0.265   2.941   7.260  0.4910 -2.7814  0.6952
   77SOPE   HN3 6808   0.126   2.855   7.215 -1.5975  1.4853 -2.2188
   77SOPE   C12 6809   0.197   2.958   7.042  0.1144 -1.0426 -0.1259
   77SOPE  H12A 6810   0.285   3.018   7.011 -0.0076 -0.7257  0.1407
   77SOPE  H12B 6811   0.122   3.039   7.056 -0.2671 -1.5737  1.0287
   77SOPE   C11 6812   0.172   2.859   6.930  0.5756  0.1517 -0.8747
   77SOPE  H11A 6813   0.268   2.804   6.926  1.9360  2.0698  1.9162
   77SOPE  H11B 6814   0.175   2.910   6.832 -0.7231  0.6648 -0.6664
   77SOPE     P 6815  -0.076   2.770   6.877 -0.5039 -0.0497  0.0412
   77SOPE   O13 6816  -0.175   2.877   6.901 -0.4118  0.3622 -0.1589
   77SOPE   O14 6817  -0.127   2.638   6.913 -0.3444 -0.5934 -0.5207
   77SOPE   O12 6818   0.057   2.784   6.959  0.7305  0.1777  0.0771
   77SOPE   O11 6819  -0.033   2.769   6.721  0.4882  0.3049 -0.5657
   77SOPE    C1 6820   0.070   2.688   6.666 -0.6447 -0.1885 -0.5328
   77SOPE    HA 6821   0.118   2.631   6.749  0.7623  4.2836  2.0647
   77SOPE    HB 6822   0.147   2.747   6.612 -0.8347 -0.8354 -1.5353
   77SOPE    C2 6823   0.023   2.574   6.558  0.3784 -0.2653  0.2298
   77SOPE    HS 6824   0.104   2.499   6.548  0.6039  0.1527 -1.4551
   77SOPE   O21 6825  -0.007   2.635   6.431 -0.0046 -0.0808  0.2569
   77SOPE   C21 6826   0.093   2.661   6.348 -0.5844 -0.1292  0.4101
   77SOPE   O22 6827   0.209   2.632   6.366  0.2693  0.1273 -0.0619
   77SOPE   C22 6828   0.045   2.756   6.237  0.5505 -0.4032 -0.4206
   77SOPE   H2R 6829  -0.003   2.849   6.274  0.9288 -0.6722  0.7685
   77SOPE   H2S 6830  -0.049   2.709   6.200 -0.4121 -1.4492  3.0098
   77SOPE    C3 6831  -0.104   2.500   6.601 -0.1017 -0.3078  0.0544
   77SOPE    HX 6832  -0.187   2.573   6.614  0.2846  0.0263  0.7091
   77SOPE    HY 6833  -0.086   2.466   6.705 -1.1081 -1.2830 -0.0705
   77SOPE   O31 6834  -0.138   2.393   6.518  0.3497  0.1812  0.5734
   77SOPE   C31 6835  -0.215   2.416   6.419  0.0353 -0.8619 -0.4045
   77SOPE   O32 6836  -0.277   2.518   6.393 -0.4988  0.2592 -0.2977
   77SOPE   C32 6837  -0.229   2.283   6.341 -0.0979 -0.9080 -0.3058
   77SOPE   H2X 6838  -0.306   2.217   6.387 -1.3842  0.2332 -0.7327
   77SOPE   H2Y 6839  -0.132   2.232   6.354  0.7183  0.1884 -1.8346
   77SOPE   C23 6840   0.146   2.806   6.135  0.2074 -0.8743 -0.0456
   77SOPE   H3R 6841   0.231   2.734   6.130 -0.4578 -1.6372 -0.5099
   77SOPE   H3S 6842   0.194   2.904   6.153 -0.1628 -0.8200  0.6781
   77SOPE   C24 6843   0.082   2.802   5.995 -0.6394 -0.0361  0.0216
   77SOPE   H4R 6844   0.031   2.704   5.993  1.4998 -1.2393  0.8532
   77SOPE   H4S 6845   0.007   2.882   5.979 -0.5455  0.1119  0.3077
   77SOPE   C25 6846   0.190   2.804   5.892 -0.4578  0.2308  0.2956
   77SOPE   H5R 6847   0.266   2.723   5.899 -0.7759 -0.1139 -0.1934
   77SOPE   H5S 6848   0.127   2.791   5.802 -1.3442  0.1548  0.9132
   77SOPE   C26 6849   0.258   2.940   5.878 -1.0928 -0.8515  0.5459
   77SOPE   H6R 6850   0.172   3.011   5.880  0.2124  0.8100 -0.3225
   77SOPE   H6S 6851   0.321   2.965   5.966 -1.5890 -1.4879  1.1032
   77SOPE   C27 6852   0.342   2.957   5.750  0.1611 -0.0297  0.2046
   77SOPE   H7R 6853   0.435   3.013   5.774 -0.7704  1.6063  0.1919
   77SOPE   H7S 6854   0.373   2.853   5.724 -2.8766 -1.2466  1.0768
   77SOPE   C28 6855   0.272   3.024   5.630  0.4215 -0.4955  0.6967
   77SOPE   H8R 6856   0.178   2.966   5.623  1.3585 -2.0945  0.7504
   77SOPE   H8S 6857   0.240   3.123   5.668 -0.5112 -0.6691  0.3951
   77SOPE   C29 6858   0.345   3.015   5.497 -0.4184  0.3120 -1.0053
   77SOPE   H91 6859   0.445   3.060   5.503  0.4146 -1.6328  1.6595
   77SOPE  C210 6860   0.303   2.967   5.376  1.0597 -0.2814 -0.2157
   77SOPE  H101 6861   0.362   2.972   5.282  0.8495 -0.4794 -0.3591
   77SOPE  C211 6862   0.171   2.899   5.354 -0.3717 -0.8064  0.5941
   77SOPE  H11R 6863   0.128   2.923   5.255  1.9077 -0.6493 -0.4138
   77SOPE  H11S 6864   0.093   2.934   5.425  0.3945 -0.2943  1.2038
   77SOPE  C212 6865   0.183   2.748   5.366  0.0058 -0.0387 -0.1061
   77SOPE  H12R 6866   0.080   2.706   5.368  0.4654 -1.2454  2.5823
   77SOPE  H12S 6867   0.222   2.722   5.467 -0.7928 -0.2237  0.1594
   77SOPE  C213 6868   0.270   2.689   5.253 -0.0771 -0.9508  0.1935
   77SOPE  H13R 6869   0.272   2.579   5.266 -0.4440 -0.9514  0.2699
   77SOPE  H13S 6870   0.367   2.741   5.239 -0.7470  0.7254  1.4761
   77SOPE  C214 6871   0.215   2.699   5.106  0.2190  0.2177  0.3020
   77SOPE  H14R 6872   0.184   2.803   5.083  1.5542  0.7185  0.6773
   77SOPE  H14S 6873   0.124   2.636   5.098  0.8141 -0.6551  0.2101
   77SOPE  C215 6874   0.316   2.635   5.010  0.2550 -0.2197 -0.3151
   77SOPE  H15R 6875   0.339   2.529   5.031  0.8764 -0.0442 -0.1099
   77SOPE  H15S 6876   0.410   2.692   5.027 -0.2658  0.8130 -0.8002
   77SOPE  C216 6877   0.273   2.641   4.864  0.1742 -0.2259  0.7964
   77SOPE  H16R 6878   0.235   2.745   4.851  1.7953  0.4939  1.5335
   77SOPE  H16S 6879   0.194   2.564   4.848  0.9515 -0.5533 -1.8383
   77SOPE  C217 6880   0.384   2.628   4.757 -0.2895  0.1266 -0.4614
   77SOPE  H17R 6881   0.350   2.574   4.666  0.5236 -3.4790  1.1901
   77SOPE  H17S 6882   0.457   2.561   4.807  0.6473  0.5960 -1.1534
   77SOPE  C218 6883   0.464   2.755   4.713 -0.0112  0.6892  0.1633
   77SOPE  H18R 6884   0.535   2.734   4.630 -0.9771 -0.6572 -0.3631
   77SOPE  H18S 6885   0.528   2.795   4.794  0.3238  0.6172 -0.0615
   77SOPE  H18T 6886   0.397   2.834   4.673  1.0484  0.6049 -1.9681
   77SOPE   C33 6887  -0.265   2.295   6.197  0.5175 -0.4211  0.1344
   77SOPE   H3X 6888  -0.362   2.346   6.180  0.0065 -1.9097 -1.8418
   77SOPE   H3Y 6889  -0.288   2.191   6.167 -0.6129 -0.3130  0.5574
   77SOPE   C34 6890  -0.146   2.361   6.119  0.2515 -0.0543  0.4603
   77SOPE   H4X 6891  -0.059   2.293   6.106  0.8615  0.9629 -1.0720
   77SOPE   H4Y 6892  -0.109   2.457   6.160 -1.6950  0.4661  1.0724
   77SOPE   C35 6893  -0.185   2.388   5.980  0.5445 -0.0105  0.3505
   77SOPE   H5X 6894  -0.096   2.431   5.930  0.6660 -0.9704 -0.2960
   77SOPE   H5Y 6895  -0.267   2.462   5.970  1.1310  0.4753 -1.1455
   77SOPE   C36 6896  -0.234   2.254   5.912  0.4795 -0.1854  0.1858
   77SOPE   H6X 6897  -0.339   2.236   5.945 -0.0584  3.4473  0.9192
   77SOPE   H6Y 6898  -0.165   2.169   5.930  1.0411 -0.3565 -2.4049
   77SOPE   C37 6899  -0.248   2.270   5.760 -0.3092 -0.1791 -0.2131
   77SOPE   H7X 6900  -0.163   2.325   5.714 -0.3311  0.0633  0.0368
   77SOPE   H7Y 6901  -0.334   2.340   5.746 -1.0421 -0.3050  3.0012
   77SOPE   C38 6902  -0.270   2.138   5.686  0.1264  0.1153 -0.0383
   77SOPE   H8X 6903  -0.368   2.097   5.718  0.6740 -0.5542  0.8102
   77SOPE   H8Y 6904  -0.192   2.062   5.708 -0.9153 -1.2694 -0.9553
   77SOPE   C39 6905  -0.288   2.176   5.544  0.1987 -0.0240  0.1118
   77SOPE   H9X 6906  -0.193   2.216   5.501  1.8341 -2.3787  1.3117
   77SOPE   H9Y 6907  -0.362   2.258   5.537  0.7899  0.3881 -2.6108
   77SOPE  C310 6908  -0.330   2.059   5.452 -0.0572  0.3049  0.5983
   77SOPE  H10X 6909  -0.429   2.027   5.491  1.0099 -1.6082  1.8982
   77SOPE  H10Y 6910  -0.259   1.974   5.452 -1.6895 -1.1356 -0.5949
   77SOPE  C311 6911  -0.348   2.103   5.305  0.1763  0.1144 -0.0370
   77SOPE  H11X 6912  -0.255   2.158   5.277  0.0155  0.6687  0.4824
   77SOPE  H11Y 6913  -0.426   2.181   5.293  0.8434  0.4449 -2.9541
   77SOPE  C312 6914  -0.374   1.983   5.210 -0.8484 -0.2573  0.0088
   77SOPE  H12X 6915  -0.464   1.929   5.247  1.0590 -2.1425  2.1785
   77SOPE  H12Y 6916  -0.284   1.923   5.235 -0.1258  1.2490  1.2273
   77SOPE  C313 6917  -0.378   2.017   5.060  1.1472  0.7663 -0.1519
   77SOPE  H13X 6918  -0.468   2.082   5.053  1.2534  0.9578  0.2131
   77SOPE  H13Y 6919  -0.407   1.931   4.995 -2.5622 -0.3038  2.5624
   77SOPE  C314 6920  -0.262   2.107   5.013  0.1886 -0.1329  0.2937
   77SOPE  H14X 6921  -0.166   2.051   5.024  0.6705 -0.4060 -3.8609
   77SOPE  H14Y 6922  -0.256   2.200   5.074 -0.9457  0.0628  0.1199
   77SOPE  C315 6923  -0.284   2.140   4.865  0.2889  0.8108 -0.0568
   77SOPE  H15X 6924  -0.319   2.245   4.862  0.6698  0.9864  1.2113
   77SOPE  H15Y 6925  -0.357   2.074   4.814 -0.6101  2.6251 -1.2341
   77SOPE  C316 6926  -0.155   2.120   4.783 -0.1921 -0.1369  0.4756
   77SOPE  H16X 6927  -0.118   2.017   4.802 -0.7817 -0.5990 -0.7627
   77SOPE  H16Y 6928  -0.082   2.191   4.827 -0.0968 -0.6874  1.2210
   77SOPE  C317 6929  -0.165   2.152   4.641  0.0171 -0.5464 -0.0759
   77SOPE  H17X 6930  -0.210   2.253   4.630  0.3654 -0.3913 -0.0992
   77SOPE  H17Y 6931  -0.247   2.094   4.594 -0.8814 -0.2624  1.1087
   77SOPE  C318 6932  -0.040   2.132   4.556  0.4574 -0.7340  0.7995
   77SOPE  H18X 6933  -0.048   2.180   4.456 -0.5451 -3.5349 -0.5706
   77SOPE  H18Y 6934  -0.029   2.024   4.535 -1.8179 -1.0485  1.0457
   77SOPE  H18Z 6935   0.047   2.168   4.614 -0.2307 -1.5918  2.4315
   78SOPE     N 6936   5.857   2.767   6.983  0.1233  0.1905  0.6410
   78SOPE   HN1 6937   5.936   2.748   6.918 -0.6079  2.2196 -0.9431
   78SOPE   HN2 6938   5.811   2.854   6.949 -2.4386 -1.0866  0.5530
   78SOPE   HN3 6939   5.896   2.769   7.079  1.0752  0.3242  0.2601
   78SOPE   C12 6940   5.738   2.670   6.984 -0.5158  0.4877 -0.3605
   78SOPE  H12A 6941   5.666   2.708   7.060 -0.7804  0.5160 -0.6224
   78SOPE  H12B 6942   5.778   2.573   7.019 -0.4518  0.5143 -0.3600
   78SOPE   C11 6943   5.668   2.653   6.846  0.1219  0.5505 -0.1625
   78SOPE  H11A 6944   5.590   2.574   6.845  1.1263 -0.4665 -1.6762
   78SOPE  H11B 6945   5.733   2.609   6.767  2.2648 -0.4474  1.9918
   78SOPE     P 6946   5.676   2.881   6.727 -0.4009 -0.2820  0.1399
   78SOPE   O13 6947   5.791   2.942   6.805  0.2984  0.0438  0.5463
   78SOPE   O14 6948   5.565   2.975   6.692  0.3362  0.0650  1.0057
   78SOPE   O12 6949   5.606   2.771   6.808 -0.0045 -0.3156 -0.2668
   78SOPE   O11 6950   5.719   2.816   6.591  0.2999 -0.1361  0.3176
   78SOPE    C1 6951   5.623   2.726   6.527 -0.6356 -0.6375 -0.6629
   78SOPE    HA 6952   5.519   2.757   6.553  0.1825  1.4516  0.3454
   78SOPE    HB 6953   5.643   2.623   6.563  0.4406 -0.0536  0.4892
   78SOPE    C2 6954   5.620   2.754   6.377 -1.2553 -0.0685  0.3394
   78SOPE    HS 6955   5.532   2.698   6.339 -1.6968  1.4219 -0.9662
   78SOPE   O21 6956   5.740   2.721   6.302 -0.4315  0.1374 -0.2631
   78SOPE   C21 6957   5.778   2.590   6.306  1.5278  0.3560  0.4661
   78SOPE   O22 6958   5.702   2.495   6.324  0.4063  0.2746 -0.2075
   78SOPE   C22 6959   5.920   2.566   6.267 -0.0237 -0.3924  0.4366
   78SOPE   H2R 6960   5.975   2.595   6.360 -0.8133 -1.2920  1.2014
   78SOPE   H2S 6961   5.950   2.644   6.194  0.5261  0.1116  1.1822
   78SOPE    C3 6962   5.586   2.897   6.346  0.7054 -0.3907 -0.2178
   78SOPE    HX 6963   5.663   2.968   6.383  0.3159  0.7840 -1.6025
   78SOPE    HY 6964   5.491   2.919   6.400  0.7904 -1.1618  0.2605
   78SOPE   O31 6965   5.556   2.911   6.208 -0.0382  0.8768  0.3983
   78SOPE   C31 6966   5.665   2.959   6.138  0.5451 -0.3728  0.6172
   78SOPE   O32 6967   5.770   2.999   6.182 -0.4496 -0.1215  0.2517
   78SOPE   C32 6968   5.631   2.956   5.986  0.9075 -0.5460  0.6244
   78SOPE   H2X 6969   5.591   3.057   5.962 -1.1738 -0.9478  2.1456
   78SOPE   H2Y 6970   5.545   2.888   5.973 -0.7888  1.3862  1.1962
   78SOPE   C23 6971   5.959   2.423   6.223 -0.3897 -0.4301  0.0494
   78SOPE   H3R 6972   5.931   2.352   6.303 -1.2820  2.1461  2.1521
   78SOPE   H3S 6973   6.070   2.422   6.220 -0.3586 -2.0145  1.0253
   78SOPE   C24 6974   5.899   2.366   6.098  0.4678  0.5964 -0.1954
   78SOPE   H4R 6975   5.932   2.261   6.082 -1.4204 -0.1507  0.4333
   78SOPE   H4S 6976   5.793   2.354   6.128  0.9188 -1.4013  0.7630
   78SOPE   C25 6977   5.929   2.463   5.979  0.5612  0.0907 -0.3854
   78SOPE   H5R 6978   5.848   2.538   5.966  0.5576  0.3153  0.8225
   78SOPE   H5S 6979   6.014   2.529   6.008  1.3008 -2.3992  4.0159
   78SOPE   C26 6980   5.966   2.387   5.853  0.0563 -0.3966  0.5933
   78SOPE   H6R 6981   6.039   2.308   5.882 -0.0392 -0.0965  1.6969
   78SOPE   H6S 6982   5.873   2.337   5.821 -1.1003  1.3717  1.0526
   78SOPE   C27 6983   6.010   2.478   5.732  0.2741  0.6491 -0.7561
   78SOPE   H7R 6984   6.082   2.552   5.773  1.9917 -2.1254  1.5603
   78SOPE   H7S 6985   6.080   2.425   5.664  1.4867 -3.0043  2.9332
   78SOPE   C28 6986   5.887   2.554   5.658 -0.4735 -0.4523  0.6009
   78SOPE   H8R 6987   5.849   2.607   5.748  2.2492  1.1895  0.9063
   78SOPE   H8S 6988   5.928   2.628   5.586 -1.3136 -1.0185 -0.4803
   78SOPE   C29 6989   5.789   2.459   5.591  0.4044 -0.3035 -0.0236
   78SOPE   H91 6990   5.705   2.428   5.655 -0.3619 -0.4881 -1.0906
   78SOPE  C210 6991   5.794   2.401   5.467 -0.7017 -0.1373  0.7866
   78SOPE  H101 6992   5.719   2.328   5.438 -0.6653 -0.6762  1.9828
   78SOPE  C211 6993   5.903   2.437   5.365  0.4761 -0.0393  0.2307
   78SOPE  H11R 6994   5.972   2.360   5.326  0.0092 -0.5405  0.3854
   78SOPE  H11S 6995   5.966   2.522   5.400 -0.4508 -0.0442  2.0061
   78SOPE  C212 6996   5.828   2.490   5.236  0.3140  0.2368  0.5602
   78SOPE  H12R 6997   5.763   2.572   5.274 -2.4241 -1.5808  0.0278
   78SOPE  H12S 6998   5.748   2.417   5.215 -2.6952  2.9001  1.9393
   78SOPE  C213 6999   5.902   2.517   5.105  0.1135 -0.9151  0.4818
   78SOPE  H13R 7000   5.984   2.443   5.096  0.1487 -0.8568  0.3258
   78SOPE  H13S 7001   5.958   2.612   5.115  0.2641 -1.1148  1.7510
   78SOPE  C214 7002   5.814   2.514   4.977 -0.5928  0.6594  0.2850
   78SOPE  H14R 7003   5.744   2.428   4.977 -2.3747  2.0412 -0.0768
   78SOPE  H14S 7004   5.878   2.499   4.887 -1.7596 -1.2235 -0.2869
   78SOPE  C215 7005   5.727   2.638   4.942  0.4787 -0.2658 -0.5895
   78SOPE  H15R 7006   5.790   2.718   4.898  1.9435 -0.3122  1.3124
   78SOPE  H15S 7007   5.689   2.677   5.039  3.6139 -1.9463  1.5257
   78SOPE  C216 7008   5.615   2.594   4.845 -0.2178  0.6962 -0.3679
   78SOPE  H16R 7009   5.544   2.529   4.901  0.2343  0.7514  0.2808
   78SOPE  H16S 7010   5.653   2.531   4.762  2.2780  0.0756  1.1386
   78SOPE  C217 7011   5.537   2.710   4.780  0.1279 -0.3134 -1.0772
   78SOPE  H17R 7012   5.600   2.781   4.722  0.0114 -0.1518 -1.0078
   78SOPE  H17S 7013   5.493   2.773   4.860  1.4761  0.1868 -0.7012
   78SOPE  C218 7014   5.416   2.664   4.695  0.3794  0.2908 -0.5092
   78SOPE  H18R 7015   5.373   2.752   4.642 -0.9307  0.1919  0.3412
   78SOPE  H18S 7016   5.341   2.596   4.742 -0.8002  0.6699 -1.7696
   78SOPE  H18T 7017   5.458   2.592   4.621  0.3463  0.0035 -0.2506
   78SOPE   C33 7018   5.755   2.921   5.891 -0.0518 -0.0070 -0.1802
   78SOPE   H3X 7019   5.778   2.813   5.888 -3.2616 -0.8982  1.9544
   78SOPE   H3Y 7020   5.847   2.976   5.918  1.0850 -0.4148 -2.8433
   78SOPE   C34 7021   5.717   2.957   5.754 -0.5315  0.1535 -0.0925
   78SOPE   H4X 7022   5.700   3.067   5.754 -3.1202 -0.1850 -0.7299
   78SOPE   H4Y 7023   5.618   2.911   5.732 -0.7768  0.1819  0.9025
   78SOPE   C35 7024   5.816   2.919   5.645  0.0494 -0.4365 -0.4740
   78SOPE   H5X 7025   5.845   2.813   5.661 -1.0724 -0.5615  1.0107
   78SOPE   H5Y 7026   5.907   2.982   5.655 -1.2286  1.7637 -1.8083
   78SOPE   C36 7027   5.749   2.933   5.512  0.0541 -0.1443  0.2827
   78SOPE   H6X 7028   5.689   3.027   5.509 -1.7077 -1.2342 -2.3425
   78SOPE   H6Y 7029   5.685   2.846   5.488 -1.9096  1.3513 -0.1616
   78SOPE   C37 7030   5.845   2.950   5.387 -0.0663  0.2526  0.1307
   78SOPE   H7X 7031   5.897   2.858   5.353 -1.3271  0.4542 -2.6341
   78SOPE   H7Y 7032   5.932   3.016   5.408  0.9202 -0.6759 -0.8994
   78SOPE   C38 7033   5.776   2.997   5.262 -0.2897 -0.7598  0.4229
   78SOPE   H8X 7034   5.765   3.108   5.263  1.7763 -0.4807 -0.9666
   78SOPE   H8Y 7035   5.676   2.954   5.240 -0.7725 -0.1112  1.2894
   78SOPE   C39 7036   5.874   2.975   5.141 -0.1915  0.6453 -0.4161
   78SOPE   H9X 7037   5.894   2.865   5.135 -0.2167  0.4374  2.1118
   78SOPE   H9Y 7038   5.973   3.022   5.162 -0.4313  1.5669 -1.3030
   78SOPE  C310 7039   5.817   3.042   5.018 -0.1835 -0.3269 -0.4723
   78SOPE  H10X 7040   5.796   3.150   5.036 -0.7819 -0.6371  0.7649
   78SOPE  H10Y 7041   5.719   3.003   4.984  0.2843 -1.2422 -0.7925
   78SOPE  C311 7042   5.911   3.029   4.900 -0.4248  0.0901 -0.1548
   78SOPE  H11X 7043   5.956   2.928   4.907  1.3577  0.9387  1.6225
   78SOPE  H11Y 7044   5.995   3.098   4.926  0.4779 -0.5917 -1.1540
   78SOPE  C312 7045   5.854   3.056   4.762 -0.2739  0.5306 -0.4019
   78SOPE  H12X 7046   5.801   3.153   4.753 -1.5645 -0.1666 -0.4771
   78SOPE  H12Y 7047   5.781   2.973   4.745 -0.4350  0.6193 -0.1372
   78SOPE  C313 7048   5.949   3.047   4.641  0.1310 -0.3506  0.0492
   78SOPE  H13X 7049   6.014   2.959   4.655  0.9485  0.1000 -0.8594
   78SOPE  H13Y 7050   6.010   3.140   4.634 -0.7169  0.2718  0.6187
   78SOPE  C314 7051   5.874   3.034   4.504  0.5345  0.3245 -0.1112
   78SOPE  H14X 7052   5.812   3.123   4.483  0.0138 -0.0665 -0.2443
   78SOPE  H14Y 7053   5.788   2.965   4.519 -2.0286  2.9977 -1.5267
   78SOPE  C315 7054   5.953   2.980   4.383  0.1348 -0.5428 -0.2017
   78SOPE  H15X 7055   5.996   2.882   4.413  1.3089  0.2939  0.9678
   78SOPE  H15Y 7056   6.040   3.046   4.365 -0.3419 -0.0637 -0.7861
   78SOPE  C316 7057   5.855   2.963   4.268  0.5373 -0.2125  0.0857
   78SOPE  H16X 7058   5.771   2.896   4.293  1.2976 -0.8674  0.9669
   78SOPE  H16Y 7059   5.904   2.917   4.179 -0.3692 -0.8360 -0.0990
   78SOPE  C317 7060   5.807   3.092   4.200 -0.3288  0.0905 -0.4708
   78SOPE  H17X 7061   5.896   3.150   4.167  0.3929 -0.4373  0.4879
   78SOPE  H17Y 7062   5.755   3.151   4.279  3.1887  2.6638  0.1863
   78SOPE  C318 7063   5.709   3.084   4.078 -0.2099 -0.6943  0.3906
   78SOPE  H18X 7064   5.625   3.017   4.106 -1.6830  0.0590 -1.9849
   78SOPE  H18Y 7065   5.755   3.048   3.984 -1.4541  1.1536 -1.0158
   78SOPE  H18Z 7066   5.671   3.187   4.057 -1.7100 -0.9668  1.5334
   79SOPE     N 7067   6.123   0.450   7.130 -0.2404 -0.2827  0.1904
   79SOPE   HN1 7068   6.079   0.359   7.157  1.4403 -0.9130  0.9378
   79SOPE   HN2 7069   6.182   0.466   7.214 -0.1813  1.3737 -0.1437
   79SOPE   HN3 7070   6.045   0.517   7.116  1.0732  1.5132  1.1067
   79SOPE   C12 7071   6.205   0.444   7.009  0.6012  0.2926  0.1135
   79SOPE  H12A 7072   6.272   0.356   7.020  1.7550  1.1837  0.4521
   79SOPE  H12B 7073   6.273   0.532   7.007  1.0764 -0.0805 -0.5946
   79SOPE   C11 7074   6.112   0.460   6.882 -0.5881  0.0997  0.5579
   79SOPE  H11A 7075   6.066   0.362   6.858  0.5578 -0.5580  0.9557
   79SOPE  H11B 7076   6.170   0.487   6.791 -0.4293 -0.2684  0.5465
   79SOPE     P 7077   5.911   0.606   6.787 -0.3541  0.2282  0.2472
   79SOPE   O13 7078   5.972   0.728   6.724 -0.6137 -0.1381 -0.0905
   79SOPE   O14 7079   5.768   0.598   6.821  0.1162 -0.3592  0.6241
   79SOPE   O12 7080   6.005   0.557   6.907  0.2305  0.4304  0.3988
   79SOPE   O11 7081   5.923   0.494   6.687 -0.3527 -0.2616  0.4860
   79SOPE    C1 7082   5.830   0.467   6.583 -0.3535  0.4790  0.6093
   79SOPE    HA 7083   5.725   0.461   6.620 -0.6387  0.3016 -0.2021
   79SOPE    HB 7084   5.859   0.371   6.536 -0.3048  1.4444 -1.4593
   79SOPE    C2 7085   5.830   0.569   6.464  0.4141 -0.0231  0.0465
   79SOPE    HS 7086   5.808   0.674   6.496 -0.0350 -0.1245  0.0842
   79SOPE   O21 7087   5.751   0.510   6.363  0.1826 -0.3939 -0.0046
   79SOPE   C21 7088   5.619   0.536   6.376 -0.3822  0.4914  0.2263
   79SOPE   O22 7089   5.574   0.621   6.452  0.1240  0.4820  0.4571
   79SOPE   C22 7090   5.552   0.470   6.260  0.2161  0.3909 -0.3710
   79SOPE   H2R 7091   5.442   0.471   6.274  0.4420  0.2746  1.9422
   79SOPE   H2S 7092   5.582   0.363   6.262 -3.0661 -0.6186  0.2481
   79SOPE    C3 7093   5.976   0.590   6.409 -0.1835 -0.0778  0.5846
   79SOPE    HX 7094   6.034   0.498   6.433 -2.2218 -1.1157  1.7474
   79SOPE    HY 7095   6.014   0.671   6.476  0.2564 -0.6133  0.9878
   79SOPE   O31 7096   5.988   0.639   6.278  0.0268  0.3012 -0.2524
   79SOPE   C31 7097   5.994   0.547   6.187  0.2842 -0.5521 -0.2270
   79SOPE   O32 7098   5.999   0.428   6.210 -0.0891  0.1864 -0.2660
   79SOPE   C32 7099   5.990   0.627   6.051  0.0281 -1.1711 -0.2325
   79SOPE   H2X 7100   6.079   0.694   6.049 -3.8974  4.8262 -2.3687
   79SOPE   H2Y 7101   5.902   0.694   6.046 -0.9546 -2.4963 -2.7494
   79SOPE   C23 7102   5.601   0.522   6.126 -0.9280  0.1625 -0.7131
   79SOPE   H3R 7103   5.711   0.519   6.120 -0.7070  0.5155  2.1020
   79SOPE   H3S 7104   5.574   0.629   6.115 -0.3487  0.2563 -1.2753
   79SOPE   C24 7105   5.535   0.439   6.010  0.7577 -0.5480 -0.3758
   79SOPE   H4R 7106   5.521   0.335   6.047  0.6528 -0.5763 -0.4970
   79SOPE   H4S 7107   5.435   0.487   5.998  0.5680 -0.5440  1.0340
   79SOPE   C25 7108   5.613   0.432   5.881  0.8488 -0.0446  0.2822
   79SOPE   H5R 7109   5.657   0.531   5.853  0.9844 -0.5758 -1.5383
   79SOPE   H5S 7110   5.694   0.357   5.893  2.1130  1.0844 -0.7757
   79SOPE   C26 7111   5.526   0.405   5.756  0.2480 -0.3109 -0.5014
   79SOPE   H6R 7112   5.484   0.304   5.776 -1.7674  0.5031 -0.4464
   79SOPE   H6S 7113   5.440   0.474   5.758  1.4269  1.1947  0.9624
   79SOPE   C27 7114   5.599   0.431   5.621 -1.0244 -0.6135  0.1707
   79SOPE   H7R 7115   5.657   0.525   5.628 -2.2609  0.0967  1.2256
   79SOPE   H7S 7116   5.669   0.346   5.607  0.3849  0.4125  0.7696
   79SOPE   C28 7117   5.503   0.450   5.506 -0.7038 -0.5496 -0.5921
   79SOPE   H8R 7118   5.446   0.356   5.491  1.2338 -1.7933 -0.5649
   79SOPE   H8S 7119   5.428   0.526   5.537  0.0992 -0.3521  0.9910
   79SOPE   C29 7120   5.565   0.487   5.368 -0.0257  0.6433 -0.3803
   79SOPE   H91 7121   5.619   0.583   5.376 -0.1639  0.6424  0.6483
   79SOPE  C210 7122   5.554   0.416   5.252 -0.0181 -0.1273 -0.0002
   79SOPE  H101 7123   5.594   0.460   5.159 -0.8827  2.9369  0.9530
   79SOPE  C211 7124   5.471   0.291   5.228 -0.2088  0.3141  0.0449
   79SOPE  H11R 7125   5.410   0.265   5.317  1.2456 -1.1266  0.6639
   79SOPE  H11S 7126   5.535   0.201   5.216 -1.3886 -0.6702  0.9127
   79SOPE  C212 7127   5.376   0.302   5.108 -0.6081  0.9882 -0.4025
   79SOPE  H12R 7128   5.314   0.391   5.131 -0.4672  1.1058 -0.4719
   79SOPE  H12S 7129   5.306   0.216   5.111  0.5255  0.0648  0.4610
   79SOPE  C213 7130   5.444   0.318   4.974 -0.2664  0.2723  0.9597
   79SOPE  H13R 7131   5.534   0.255   4.964 -1.4519 -1.3366 -0.2552
   79SOPE  H13S 7132   5.477   0.424   4.969 -1.3641  0.5814 -1.7225
   79SOPE  C214 7133   5.341   0.289   4.859 -0.3155  0.2070  0.1971
   79SOPE  H14R 7134   5.251   0.355   4.858 -0.5445 -0.1090 -0.1304
   79SOPE  H14S 7135   5.301   0.186   4.858 -2.4139  0.9496 -1.9466
   79SOPE  C215 7136   5.411   0.306   4.722 -0.0485 -0.1721  0.1561
   79SOPE  H15R 7137   5.511   0.259   4.709 -0.4052 -2.2628  3.7114
   79SOPE  H15S 7138   5.431   0.415   4.713  3.1412 -0.6052  0.8469
   79SOPE  C216 7139   5.326   0.272   4.596  0.1349 -0.8953  0.1403
   79SOPE  H16R 7140   5.298   0.165   4.590  1.4965 -1.2001 -1.3687
   79SOPE  H16S 7141   5.397   0.282   4.511  1.1933 -0.8340  1.0199
   79SOPE  C217 7142   5.196   0.357   4.588 -0.4974 -0.2064 -0.5066
   79SOPE  H17R 7143   5.209   0.468   4.592  1.3779 -0.4099  0.1796
   79SOPE  H17S 7144   5.134   0.334   4.677  1.4832 -1.5606  0.6109
   79SOPE  C218 7145   5.113   0.342   4.460 -0.3213 -0.6543 -0.1592
   79SOPE  H18R 7146   5.085   0.235   4.450  1.0842 -0.8890 -2.1734
   79SOPE  H18S 7147   5.160   0.379   4.367 -2.2714  0.1146 -0.9063
   79SOPE  H18T 7148   5.021   0.405   4.471 -0.6797 -1.1396 -0.3485
   79SOPE   C33 7149   5.992   0.538   5.930  0.1195 -0.4591 -0.5700
   79SOPE   H3X 7150   5.913   0.464   5.952 -0.8562  1.2459  2.0451
   79SOPE   H3Y 7151   6.094   0.496   5.914 -0.7427 -2.7074 -0.5197
   79SOPE   C34 7152   5.954   0.608   5.805  0.1653 -0.1153  0.6348
   79SOPE   H4X 7153   6.040   0.679   5.801  0.2455 -0.2657 -0.6080
   79SOPE   H4Y 7154   5.851   0.649   5.801 -0.3024 -1.3576 -0.7957
   79SOPE   C35 7155   5.978   0.515   5.680 -0.3360 -0.0998 -0.3764
   79SOPE   H5X 7156   5.907   0.432   5.701 -1.5825  1.4123  1.7718
   79SOPE   H5Y 7157   6.077   0.466   5.695 -1.1504 -1.0145  2.8192
   79SOPE   C36 7158   5.973   0.589   5.542  0.2448 -0.4452  0.2845
   79SOPE   H6X 7159   6.058   0.657   5.522  0.3419 -0.9291 -1.0577
   79SOPE   H6Y 7160   5.895   0.666   5.558 -0.3965 -1.2805  1.3446
   79SOPE   C37 7161   5.934   0.505   5.422  0.6880  0.3941 -0.2462
   79SOPE   H7X 7162   5.852   0.433   5.445  1.6268  0.0095  2.2459
   79SOPE   H7Y 7163   6.019   0.438   5.398  0.6103  0.6074 -1.1274
   79SOPE   C38 7164   5.903   0.581   5.295 -0.3633  0.2712  1.3097
   79SOPE   H8X 7165   5.860   0.683   5.309 -1.0353  0.6355 -2.3731
   79SOPE   H8Y 7166   5.825   0.524   5.240  0.6675  1.1587 -1.2716
   79SOPE   C39 7167   6.030   0.603   5.210 -0.0258  0.5787  0.1268
   79SOPE   H9X 7168   6.077   0.503   5.193 -2.3764 -0.7397  0.8316
   79SOPE   H9Y 7169   6.111   0.661   5.257 -0.9166  2.0709 -0.1028
   79SOPE  C310 7170   5.998   0.678   5.078  0.9637 -0.1603 -0.3151
   79SOPE  H10X 7171   5.944   0.771   5.106  2.6501  0.4076  1.2631
   79SOPE  H10Y 7172   5.937   0.617   5.008  2.7682  0.2552 -2.3386
   79SOPE  C311 7173   6.127   0.728   5.014  0.5424 -0.1656 -0.3326
   79SOPE  H11X 7174   6.180   0.798   5.083 -0.8329  1.6834 -1.0599
   79SOPE  H11Y 7175   6.111   0.791   4.924  0.1329 -2.3580 -1.8911
   79SOPE  C312 7176   6.223   0.614   4.978 -0.6437  0.0099 -0.9859
   79SOPE  H12X 7177   6.182   0.529   4.919  0.7378  0.6208 -2.9193
   79SOPE  H12Y 7178   6.252   0.566   5.074  0.2477 -0.4013 -1.4500
   79SOPE  C313 7179   6.342   0.676   4.901 -0.3726  0.2090  1.0146
   79SOPE  H13X 7180   6.391   0.744   4.974  0.6773  0.8415 -0.2295
   79SOPE  H13Y 7181   6.301   0.725   4.810  0.4984  0.2715  0.6441
   79SOPE  C314 7182   6.446   0.580   4.850  0.2733  0.2397  0.0786
   79SOPE  H14X 7183   6.393   0.520   4.773 -0.8339  0.1271  0.9075
   79SOPE  H14Y 7184   6.472   0.508   4.931 -1.5646 -0.2007  0.3087
   79SOPE  C315 7185   6.570   0.655   4.795  0.5432  0.4997 -0.4593
   79SOPE  H15X 7186   6.635   0.574   4.754 -0.6299 -2.0065  2.3005
   79SOPE  H15Y 7187   6.630   0.702   4.875 -2.3915  1.9080  1.0536
   79SOPE  C316 7188   6.529   0.759   4.693 -0.3583  0.0763 -0.2808
   79SOPE  H16X 7189   6.481   0.838   4.754  1.3258  0.9235  0.0161
   79SOPE  H16Y 7190   6.451   0.717   4.626 -2.1976 -0.9731  2.3556
   79SOPE  C317 7191   6.659   0.810   4.634 -0.5148  0.5325 -0.2535
   79SOPE  H17X 7192   6.696   0.724   4.573 -0.2827 -0.9289  1.8584
   79SOPE  H17Y 7193   6.730   0.840   4.714 -1.3710 -1.6010  1.3893
   79SOPE  C318 7194   6.627   0.927   4.538  0.4217  0.2004  0.2872
   79SOPE  H18X 7195   6.575   1.002   4.600 -2.1410 -2.4516  1.5238
   79SOPE  H18Y 7196   6.559   0.895   4.456 -0.6020 -0.9849  1.5677
   79SOPE  H18Z 7197   6.716   0.959   4.480  0.2129 -2.1868 -1.5258
   80SOPE     N 7198   6.616   2.218   7.372 -0.0231 -0.0369  0.2282
   80SOPE   HN1 7199   6.512   2.218   7.379 -0.0950 -0.2608 -0.7682
   80SOPE   HN2 7200   6.663   2.132   7.408  0.8527  0.1803 -0.3674
   80SOPE   HN3 7201   6.640   2.301   7.430  1.7864 -0.3956  0.0438
   80SOPE   C12 7202   6.644   2.226   7.220 -0.1580  0.4218  0.0261
   80SOPE  H12A 7203   6.737   2.286   7.215 -0.0551  0.2986  0.3915
   80SOPE  H12B 7204   6.554   2.266   7.169  0.1550 -0.6950 -1.4598
   80SOPE   C11 7205   6.666   2.077   7.170 -0.1442 -0.2535  0.2245
   80SOPE  H11A 7206   6.752   2.031   7.224 -0.5639 -2.0615 -0.5611
   80SOPE  H11B 7207   6.685   2.086   7.061  1.4980  1.2721  0.5980
   80SOPE     P 7208   6.492   1.862   7.158  0.3361 -0.2311 -0.4882
   80SOPE   O13 7209   6.360   1.837   7.228  0.1988 -0.6594  0.1058
   80SOPE   O14 7210   6.593   1.756   7.178 -0.5033 -0.9254  0.7846
   80SOPE   O12 7211   6.546   2.006   7.208  0.2160 -0.3611  0.8456
   80SOPE   O11 7212   6.470   1.901   7.006  0.1062 -0.4549 -0.1562
   80SOPE    C1 7213   6.390   2.012   6.972  0.2737 -0.1286 -0.0802
   80SOPE    HA 7214   6.449   2.106   6.980  2.1546 -1.1964 -0.8337
   80SOPE    HB 7215   6.302   2.020   7.040 -0.6786 -0.5518 -1.2161
   80SOPE    C2 7216   6.336   1.998   6.823 -0.2638  0.2119 -0.6617
   80SOPE    HS 7217   6.242   1.939   6.830 -1.3068  1.7065 -1.4943
   80SOPE   O21 7218   6.442   1.932   6.748 -0.1896  0.4798 -0.0942
   80SOPE   C21 7219   6.403   1.807   6.696 -0.4060  0.1164 -0.7203
   80SOPE   O22 7220   6.289   1.769   6.703  0.7875  0.4328  0.3727
   80SOPE   C22 7221   6.529   1.719   6.660  0.1008  0.0071  0.1747
   80SOPE   H2R 7222   6.566   1.674   6.755 -1.7516 -2.4134 -0.1351
   80SOPE   H2S 7223   6.599   1.790   6.612  0.8836 -0.1716  1.0049
   80SOPE    C3 7224   6.309   2.136   6.764  0.3293 -0.1353 -0.4240
   80SOPE    HX 7225   6.406   2.190   6.754  0.1679  0.3740  0.5886
   80SOPE    HY 7226   6.254   2.190   6.844 -1.0555  0.1997 -1.5585
   80SOPE   O31 7227   6.248   2.129   6.634  0.4185 -0.4090  0.9368
   80SOPE   C31 7228   6.115   2.116   6.641  0.5671 -0.5741 -0.1434
   80SOPE   O32 7229   6.050   2.108   6.748 -0.0601 -0.3590 -0.4432
   80SOPE   C32 7230   6.068   2.099   6.498  0.7964  0.4931 -0.1703
   80SOPE   H2X 7231   6.075   2.193   6.438  0.7956  0.2478 -0.5561
   80SOPE   H2Y 7232   5.959   2.086   6.511  1.0920 -2.7962 -0.1836
   80SOPE   C23 7233   6.489   1.605   6.560 -0.2478  0.2433  0.3032
   80SOPE   H3R 7234   6.411   1.540   6.605 -0.0299 -0.4802 -0.3363
   80SOPE   H3S 7235   6.573   1.533   6.543 -0.2319  0.5462 -1.0033
   80SOPE   C24 7236   6.447   1.663   6.420 -0.2284  0.3122 -0.0635
   80SOPE   H4R 7237   6.408   1.574   6.367 -0.4430  1.1614 -1.3686
   80SOPE   H4S 7238   6.359   1.731   6.417  0.1905  0.8171 -1.1466
   80SOPE   C25 7239   6.559   1.718   6.324 -0.1987  0.2854  0.2710
   80SOPE   H5R 7240   6.624   1.796   6.370  2.3377 -0.8572 -1.1291
   80SOPE   H5S 7241   6.637   1.646   6.291 -2.1008 -0.4747 -2.8310
   80SOPE   C26 7242   6.502   1.767   6.184  0.6811 -0.5817  0.1252
   80SOPE   H6R 7243   6.474   1.691   6.108 -2.0350 -0.0704  0.5178
   80SOPE   H6S 7244   6.403   1.815   6.196  0.5778  0.5291 -3.7527
   80SOPE   C27 7245   6.590   1.873   6.111  0.3605  0.5032 -0.1061
   80SOPE   H7R 7246   6.531   1.965   6.127 -1.5209 -0.7872  0.7204
   80SOPE   H7S 7247   6.687   1.887   6.163 -0.2564  0.1602  1.1742
   80SOPE   C28 7248   6.624   1.834   5.970 -0.0407  0.0164  0.5372
   80SOPE   H8R 7249   6.684   1.741   5.974 -0.4225 -0.3803 -1.7727
   80SOPE   H8S 7250   6.522   1.812   5.933  0.1972  0.7051 -0.5921
   80SOPE   C29 7251   6.681   1.940   5.883  0.8798 -0.1436  0.6317
   80SOPE   H91 7252   6.706   2.032   5.937 -2.2115  0.8595  0.5715
   80SOPE  C210 7253   6.691   1.934   5.750 -0.0161  0.3888 -0.9606
   80SOPE  H101 7254   6.731   2.021   5.696 -0.0672  0.0479 -1.5590
   80SOPE  C211 7255   6.640   1.826   5.661  0.4763  0.1926 -0.7465
   80SOPE  H11R 7256   6.536   1.797   5.688  0.3204  1.5649  0.2519
   80SOPE  H11S 7257   6.700   1.734   5.676  0.9710 -0.0631 -3.7854
   80SOPE  C212 7258   6.628   1.857   5.506 -0.0596 -0.1261 -0.4517
   80SOPE  H12R 7259   6.730   1.882   5.471 -0.1191 -1.0582 -1.3203
   80SOPE  H12S 7260   6.562   1.945   5.489  0.8057  0.3732 -1.3668
   80SOPE  C213 7261   6.567   1.742   5.424 -0.2522  0.4930 -0.3109
   80SOPE  H13R 7262   6.460   1.722   5.445 -0.6376 -0.4372 -2.8081
   80SOPE  H13S 7263   6.623   1.651   5.455 -1.0646  0.3417  0.7668
   80SOPE  C214 7264   6.591   1.758   5.276 -0.3895  0.5493 -0.2635
   80SOPE  H14R 7265   6.700   1.746   5.256 -0.2298 -1.9668  1.6281
   80SOPE  H14S 7266   6.549   1.855   5.243 -2.0960 -0.7299 -2.1048
   80SOPE  C215 7267   6.519   1.648   5.196  0.4583  0.1061 -0.3850
   80SOPE  H15R 7268   6.412   1.667   5.217  0.9188  0.7565  1.6017
   80SOPE  H15S 7269   6.563   1.550   5.224  1.9264  1.1842  1.2872
   80SOPE  C216 7270   6.550   1.667   5.043 -0.1182  0.5076 -0.0812
   80SOPE  H16R 7271   6.523   1.772   5.018 -1.3826  0.5648  1.4144
   80SOPE  H16S 7272   6.487   1.596   4.986  1.4877  0.9290 -2.5845
   80SOPE  C217 7273   6.698   1.636   4.998 -0.0075 -0.0895 -0.9692
   80SOPE  H17R 7274   6.711   1.528   5.016 -1.0111  0.1176  1.3120
   80SOPE  H17S 7275   6.770   1.693   5.061 -1.1284  1.1843 -0.7970
   80SOPE  C218 7276   6.734   1.685   4.858  0.5471  0.4120  0.8812
   80SOPE  H18R 7277   6.759   1.793   4.859 -1.9280  1.1540 -2.3650
   80SOPE  H18S 7278   6.650   1.661   4.789 -0.3023 -0.2430  2.0859
   80SOPE  H18T 7279   6.830   1.642   4.821 -1.0533 -1.1903 -1.7453
   80SOPE   C33 7280   6.124   1.969   6.428 -0.0770  0.1020  0.7691
   80SOPE   H3X 7281   6.091   1.882   6.489  0.7938 -0.0814  0.9917
   80SOPE   H3Y 7282   6.232   1.983   6.408 -0.0298 -2.8519 -2.0200
   80SOPE   C34 7283   6.058   1.956   6.290 -0.0491  0.1735  0.2980
   80SOPE   H4X 7284   6.071   1.859   6.239 -1.8099 -0.8563  1.6943
   80SOPE   H4Y 7285   6.102   2.028   6.217 -0.6623 -0.5455 -0.8083
   80SOPE   C35 7286   5.908   1.964   6.299 -0.5303 -0.1450 -0.0106
   80SOPE   H5X 7287   5.865   2.065   6.317  0.1170  0.1217  0.0665
   80SOPE   H5Y 7288   5.886   1.907   6.392 -1.6232  1.4295  0.7441
   80SOPE   C36 7289   5.836   1.900   6.175 -0.3522  0.4470  0.0230
   80SOPE   H6X 7290   5.727   1.898   6.198 -0.3473  1.4700  0.1784
   80SOPE   H6Y 7291   5.856   1.791   6.165  0.7776  0.7230 -0.9813
   80SOPE   C37 7292   5.847   1.969   6.042  0.4434 -0.3775  0.6762
   80SOPE   H7X 7293   5.952   1.987   6.011 -0.0819 -0.0488 -0.9997
   80SOPE   H7Y 7294   5.799   2.069   6.052  1.1551  0.2307 -1.4512
   80SOPE   C38 7295   5.778   1.888   5.932 -0.1685  0.1254  0.2190
   80SOPE   H8X 7296   5.668   1.873   5.941 -0.2309 -0.2218 -0.9287
   80SOPE   H8Y 7297   5.816   1.784   5.925 -0.2920  0.1903 -3.0851
   80SOPE   C39 7298   5.810   1.942   5.797  0.0458  0.0502 -0.0516
   80SOPE   H9X 7299   5.911   1.901   5.776 -0.3874 -0.4150 -1.2811
   80SOPE   H9Y 7300   5.816   2.053   5.797 -0.0098  0.0680  1.0867
   80SOPE  C310 7301   5.709   1.902   5.689 -0.3834 -0.1103 -0.3417
   80SOPE  H10X 7302   5.625   1.975   5.682 -0.1082  0.0806 -2.0498
   80SOPE  H10Y 7303   5.681   1.795   5.704  0.1555 -0.9482 -4.2703
   80SOPE  C311 7304   5.763   1.902   5.543  0.5486 -0.7514  0.0953
   80SOPE  H11X 7305   5.679   1.882   5.474  1.1472 -0.4239 -0.7394
   80SOPE  H11Y 7306   5.841   1.822   5.541  1.6606  0.3147 -1.1733
   80SOPE  C312 7307   5.830   2.032   5.505  0.3689  0.4237 -0.1582
   80SOPE  H12X 7308   5.923   2.030   5.565  1.2723 -0.5971 -1.5064
   80SOPE  H12Y 7309   5.765   2.118   5.530  1.3374  2.0997 -2.9270
   80SOPE  C313 7310   5.879   2.035   5.357 -0.1013 -0.6088  0.4862
   80SOPE  H13X 7311   5.952   1.953   5.338 -0.3203 -0.6101 -0.4351
   80SOPE  H13Y 7312   5.931   2.131   5.335  0.0036 -1.1317 -1.9168
   80SOPE  C314 7313   5.774   2.022   5.248  0.6283 -0.0494 -0.2371
   80SOPE  H14X 7314   5.723   2.119   5.266 -0.0661 -0.4973  0.2394
   80SOPE  H14Y 7315   5.710   1.938   5.282  0.5220  0.2964  0.4443
   80SOPE  C315 7316   5.822   2.016   5.103  0.7616  0.4852  0.2815
   80SOPE  H15X 7317   5.745   1.971   5.037  1.5834 -0.6782  0.0822
   80SOPE  H15Y 7318   5.913   1.951   5.098  0.6787  0.2956  1.0154
   80SOPE  C316 7319   5.849   2.156   5.053 -0.3179 -0.4252  0.0825
   80SOPE  H16X 7320   5.942   2.193   5.101 -0.0811  1.3693 -1.5851
   80SOPE  H16Y 7321   5.774   2.232   5.083  1.7117  2.0983 -0.8589
   80SOPE  C317 7322   5.882   2.167   4.896 -0.0140 -0.4940  0.2506
   80SOPE  H17X 7323   5.964   2.106   4.855  0.3476  1.5079 -2.2630
   80SOPE  H17Y 7324   5.914   2.272   4.874  1.8380 -1.1242 -0.2159
   80SOPE  C318 7325   5.762   2.139   4.804  0.4387  0.8757  0.0805
   80SOPE  H18X 7326   5.682   2.216   4.813  0.2463  0.6534  0.3013
   80SOPE  H18Y 7327   5.722   2.038   4.827  0.0404  0.4248 -2.3713
   80SOPE  H18Z 7328   5.792   2.145   4.697  0.9085  0.7440  0.2019
   81SOPE     N 7329   2.236   5.501   7.232 -0.4324 -0.1533 -0.4032
   81SOPE   HN1 7330   2.220   5.411   7.282 -1.2217 -0.4195 -1.1117
   81SOPE   HN2 7331   2.328   5.540   7.259 -0.4035 -0.5670  0.1279
   81SOPE   HN3 7332   2.157   5.562   7.262  0.4120  1.2302 -0.9188
   81SOPE   C12 7333   2.238   5.484   7.085  0.2804  0.1084  0.0821
   81SOPE  H12A 7334   2.320   5.413   7.064  3.1317  2.2109  3.0472
   81SOPE  H12B 7335   2.266   5.582   7.041 -0.0263  0.2543  0.2016
   81SOPE   C11 7336   2.101   5.443   7.039  0.4909  0.1442  0.1900
   81SOPE  H11A 7337   2.102   5.423   6.929 -1.2173  0.6535  0.0543
   81SOPE  H11B 7338   2.029   5.526   7.053 -1.1081 -0.8674 -1.5644
   81SOPE     P 7339   1.910   5.264   7.079  0.0473 -0.3162  0.2921
   81SOPE   O13 7340   1.800   5.358   7.101 -0.3367  0.3830 -0.1397
   81SOPE   O14 7341   1.908   5.127   7.140 -1.0714 -0.9067 -0.2108
   81SOPE   O12 7342   2.049   5.333   7.109 -0.0335  0.2263 -0.0630
   81SOPE   O11 7343   1.936   5.230   6.922  0.1657 -0.2023 -0.0152
   81SOPE    C1 7344   2.034   5.127   6.882  0.8438  0.0759 -0.8098
   81SOPE    HA 7345   2.000   5.030   6.923 -1.4289  1.9261  2.0713
   81SOPE    HB 7346   2.141   5.146   6.907  0.7792 -0.9964  0.3540
   81SOPE    C2 7347   2.020   5.093   6.725 -0.2500  0.0912  0.8840
   81SOPE    HS 7348   2.059   4.989   6.720  0.0865  0.2708 -0.8021
   81SOPE   O21 7349   2.099   5.183   6.639 -0.1873 -0.0653  0.2661
   81SOPE   C21 7350   2.220   5.143   6.611  0.2869  0.3968 -0.2227
   81SOPE   O22 7351   2.273   5.045   6.665  0.3806 -0.1011  0.1705
   81SOPE   C22 7352   2.284   5.240   6.508 -0.5266  0.4345  0.1535
   81SOPE   H2R 7353   2.380   5.192   6.478 -0.4363  0.2626  0.7036
   81SOPE   H2S 7354   2.295   5.339   6.556  1.3779  0.2597  0.1416
   81SOPE    C3 7355   1.874   5.092   6.669  0.3425 -0.2163 -0.7355
   81SOPE    HX 7356   1.830   5.189   6.700 -0.6853 -1.5291  2.2902
   81SOPE    HY 7357   1.812   5.017   6.722  2.7098 -2.5197 -0.9956
   81SOPE   O31 7358   1.868   5.079   6.527  0.6957 -0.1161 -0.5364
   81SOPE   C31 7359   1.745   5.075   6.478  0.1911  0.9300  0.2239
   81SOPE   O32 7360   1.646   5.114   6.540 -0.6413 -0.0007 -0.0852
   81SOPE   C32 7361   1.746   5.019   6.331  1.0099  1.0083  0.2237
   81SOPE   H2X 7362   1.638   5.006   6.308  0.8544  2.5559 -0.0107
   81SOPE   H2Y 7363   1.803   4.924   6.326 -2.2708 -1.0898 -2.0615
   81SOPE   C23 7364   2.198   5.255   6.383  0.4433  0.2600  0.0261
   81SOPE   H3R 7365   2.099   5.302   6.404 -0.5026 -0.7598 -1.9175
   81SOPE   H3S 7366   2.178   5.149   6.355  2.1765 -0.3562  0.9318
   81SOPE   C24 7367   2.259   5.320   6.258 -0.3676 -0.6710 -0.3605
   81SOPE   H4R 7368   2.274   5.428   6.278 -3.6064 -0.5254  1.9732
   81SOPE   H4S 7369   2.361   5.280   6.240  0.1756 -0.1093  1.3390
   81SOPE   C25 7370   2.175   5.306   6.133  0.5384 -0.8113  0.2145
   81SOPE   H5R 7371   2.151   5.203   6.099 -0.7516 -1.0248  1.6150
   81SOPE   H5S 7372   2.076   5.354   6.154 -0.1485 -2.5926  1.2668
   81SOPE   C26 7373   2.239   5.394   6.020  0.6151  0.1553 -0.5001
   81SOPE   H6R 7374   2.236   5.501   6.046  1.2708  0.2463 -0.7861
   81SOPE   H6S 7375   2.343   5.358   6.006  0.1148 -0.9630 -1.6403
   81SOPE   C27 7376   2.168   5.376   5.884  0.0225  0.8062  0.0124
   81SOPE   H7R 7377   2.172   5.267   5.861  0.8924  0.9517 -0.6073
   81SOPE   H7S 7378   2.062   5.407   5.893 -0.5943 -0.3129 -2.4088
   81SOPE   C28 7379   2.241   5.448   5.770 -0.1726 -0.0341  0.7691
   81SOPE   H8R 7380   2.267   5.553   5.792 -0.0703 -0.2147  1.5471
   81SOPE   H8S 7381   2.336   5.391   5.759 -0.2507  0.0696 -0.6001
   81SOPE   C29 7382   2.156   5.456   5.646 -0.7039  0.5335  0.8178
   81SOPE   H91 7383   2.082   5.537   5.639  1.3910  2.4545 -1.4278
   81SOPE  C210 7384   2.169   5.380   5.532 -0.0609 -0.2563  0.1147
   81SOPE  H101 7385   2.115   5.421   5.445  2.8090  1.9490 -0.8000
   81SOPE  C211 7386   2.254   5.261   5.502 -0.8385  0.7585 -0.8110
   81SOPE  H11R 7387   2.218   5.167   5.548  2.5075  0.2870  1.2124
   81SOPE  H11S 7388   2.357   5.273   5.543 -1.1010 -1.8465  0.8422
   81SOPE  C212 7389   2.289   5.226   5.345  0.0181 -0.4837 -0.0925
   81SOPE  H12R 7390   2.198   5.208   5.284 -0.1475 -1.4762  0.4207
   81SOPE  H12S 7391   2.348   5.133   5.332  3.3829  1.7334 -2.5499
   81SOPE  C213 7392   2.374   5.349   5.283  0.5000 -0.2827  0.1936
   81SOPE  H13R 7393   2.468   5.349   5.342  0.0476  2.0627  1.0270
   81SOPE  H13S 7394   2.332   5.449   5.307 -2.6733 -1.4916  0.1832
   81SOPE  C214 7395   2.403   5.340   5.135  0.2900  0.5435  0.3294
   81SOPE  H14R 7396   2.454   5.428   5.090 -0.4739 -0.8321 -3.6231
   81SOPE  H14S 7397   2.302   5.340   5.089 -0.1017 -0.6149  1.1498
   81SOPE  C215 7398   2.475   5.211   5.085 -0.0191 -0.0178 -0.4439
   81SOPE  H15R 7399   2.445   5.125   5.148  0.0526 -0.8910 -1.5665
   81SOPE  H15S 7400   2.582   5.225   5.110 -0.6849  0.3221  2.5175
   81SOPE  C216 7401   2.427   5.177   4.944 -0.2129  0.3174  0.1349
   81SOPE  H16R 7402   2.390   5.264   4.886  0.3058  1.2555  1.1888
   81SOPE  H16S 7403   2.340   5.109   4.955  0.3454 -0.7017 -1.3899
   81SOPE  C217 7404   2.529   5.091   4.863  0.4079  0.9781  0.0791
   81SOPE  H17R 7405   2.631   5.112   4.902 -0.3291  0.4797  2.4451
   81SOPE  H17S 7406   2.526   5.128   4.759 -0.3421 -0.7819 -0.5574
   81SOPE  C218 7407   2.513   4.939   4.866  0.5122 -0.0417 -0.1003
   81SOPE  H18R 7408   2.411   4.917   4.827  0.2116  0.7798  0.2068
   81SOPE  H18S 7409   2.510   4.903   4.971  2.5310  2.2080  0.8230
   81SOPE  H18T 7410   2.584   4.874   4.809 -0.3997  0.8108 -2.3369
   81SOPE   C33 7411   1.797   5.130   6.235  0.1211 -0.4404 -0.2572
   81SOPE   H3X 7412   1.905   5.143   6.255 -0.0666  0.5977  0.1318
   81SOPE   H3Y 7413   1.747   5.228   6.251 -0.6237 -0.9283  0.4708
   81SOPE   C34 7414   1.775   5.090   6.083 -0.1724  0.2506  0.8468
   81SOPE   H4X 7415   1.670   5.054   6.084 -0.5199  1.0251 -1.1843
   81SOPE   H4Y 7416   1.842   5.004   6.060  0.1152  0.8392 -0.6451
   81SOPE   C35 7417   1.781   5.201   5.984  0.4854 -0.2235  0.3519
   81SOPE   H5X 7418   1.880   5.251   5.987  0.5052 -0.2695  0.4630
   81SOPE   H5Y 7419   1.726   5.291   6.019  1.1538  0.1329  0.4990
   81SOPE   C36 7420   1.741   5.167   5.839 -0.3008 -0.3595  0.1273
   81SOPE   H6X 7421   1.652   5.101   5.831  0.8271 -2.2103  1.8416
   81SOPE   H6Y 7422   1.832   5.112   5.805  0.7415  0.6146  1.2598
   81SOPE   C37 7423   1.738   5.287   5.746 -0.5710  0.5775 -0.0172
   81SOPE   H7X 7424   1.790   5.374   5.792  2.6997 -1.3703  0.3140
   81SOPE   H7Y 7425   1.633   5.318   5.730 -0.9887 -2.0371 -3.4854
   81SOPE   C38 7426   1.803   5.275   5.608 -0.2017  0.0401  0.2909
   81SOPE   H8X 7427   1.913   5.270   5.623  0.0282 -0.1628 -1.2626
   81SOPE   H8Y 7428   1.778   5.373   5.561  1.0303  0.2688  0.0910
   81SOPE   C39 7429   1.745   5.150   5.526 -0.9070 -0.2234 -0.6398
   81SOPE   H9X 7430   1.637   5.166   5.503 -1.0083 -1.3256 -0.9854
   81SOPE   H9Y 7431   1.753   5.058   5.587 -1.2574  0.5723  0.6409
   81SOPE  C310 7432   1.825   5.143   5.399  0.2271 -0.3944  0.4967
   81SOPE  H10X 7433   1.808   5.046   5.349 -0.6874 -1.0061  1.9414
   81SOPE  H10Y 7434   1.934   5.154   5.419  0.8891 -0.5781 -2.4369
   81SOPE  C311 7435   1.792   5.256   5.297 -0.2165  0.4582  0.5487
   81SOPE  H11X 7436   1.781   5.359   5.337 -0.4011  0.1132  1.4167
   81SOPE  H11Y 7437   1.692   5.231   5.257  1.2315 -0.6482 -2.8148
   81SOPE  C312 7438   1.896   5.261   5.188  0.0868  0.1427  0.7350
   81SOPE  H12X 7439   1.901   5.164   5.133  0.4817  0.3343  0.4273
   81SOPE  H12Y 7440   1.993   5.277   5.240 -0.0177  0.5845  0.7938
   81SOPE  C313 7441   1.864   5.372   5.083 -0.1336  0.1309  0.0987
   81SOPE  H13X 7442   1.877   5.473   5.128 -0.7082  0.8237 -1.2419
   81SOPE  H13Y 7443   1.768   5.349   5.032  0.1191 -1.0933  0.1481
   81SOPE  C314 7444   1.979   5.370   4.977 -0.0753  0.1589  0.3733
   81SOPE  H14X 7445   1.951   5.297   4.898  0.0137 -0.2899  0.7518
   81SOPE  H14Y 7446   2.070   5.318   5.015 -0.4233 -1.4110 -0.8232
   81SOPE  C315 7447   2.020   5.510   4.919  0.1882 -0.2426  1.1459
   81SOPE  H15X 7448   2.050   5.586   4.994  3.3509 -2.6735  2.5621
   81SOPE  H15Y 7449   1.939   5.557   4.859  2.6648  2.7314 -0.0933
   81SOPE  C316 7450   2.137   5.500   4.822 -0.3306  0.0604 -0.2948
   81SOPE  H16X 7451   2.222   5.479   4.891 -1.3290  2.9315  1.9945
   81SOPE  H16Y 7452   2.148   5.597   4.769 -1.8106  1.3854  1.7115
   81SOPE  C317 7453   2.120   5.387   4.716  0.5439  0.3257 -0.7643
   81SOPE  H17X 7454   2.020   5.387   4.668  0.2192 -2.3189 -0.2109
   81SOPE  H17Y 7455   2.118   5.289   4.768  2.8475  1.8183  2.5228
   81SOPE  C318 7456   2.237   5.384   4.614  0.1389  0.2420  0.2216
   81SOPE  H18X 7457   2.209   5.301   4.546 -1.1960  0.8548 -0.0234
   81SOPE  H18Y 7458   2.335   5.361   4.660  0.0030 -2.7876 -0.7959
   81SOPE  H18Z 7459   2.237   5.483   4.562  0.3707 -0.5470 -1.3192
   82SOPE     N 7460   4.245   4.276   6.873  0.1185 -0.2392 -0.1515
   82SOPE   HN1 7461   4.270   4.337   6.953  2.0827 -3.0009  1.5011
   82SOPE   HN2 7462   4.178   4.333   6.818  0.2959  0.8821  0.7619
   82SOPE   HN3 7463   4.189   4.198   6.914  0.2291 -0.9216 -1.2524
   82SOPE   C12 7464   4.359   4.234   6.789  0.3129  0.5626  0.3918
   82SOPE  H12A 7465   4.321   4.162   6.712 -0.0117 -0.2530  1.2982
   82SOPE  H12B 7466   4.436   4.185   6.851 -0.5262 -2.0952 -0.5113
   82SOPE   C11 7467   4.432   4.357   6.731  0.1702 -0.2458 -0.3098
   82SOPE  H11A 7468   4.356   4.425   6.688 -0.6603 -0.5387  0.6398
   82SOPE  H11B 7469   4.505   4.322   6.655  0.3803 -0.4061 -0.0388
   82SOPE     P 7470   4.656   4.437   6.844  0.1502  0.0855 -0.3974
   82SOPE   O13 7471   4.708   4.316   6.903 -0.7538  0.4961  0.9879
   82SOPE   O14 7472   4.700   4.558   6.924 -0.3127 -0.1783  0.2327
   82SOPE   O12 7473   4.499   4.423   6.839 -0.2541  0.1564  0.0400
   82SOPE   O11 7474   4.706   4.450   6.696 -0.0803 -0.0168  0.6157
   82SOPE    C1 7475   4.770   4.339   6.630  0.5576 -0.4374  0.1893
   82SOPE    HA 7476   4.710   4.329   6.537 -1.3744 -0.8753  1.4244
   82SOPE    HB 7477   4.758   4.245   6.689 -1.0442  0.9910  2.2853
   82SOPE    C2 7478   4.922   4.368   6.616 -0.2586  0.5011 -0.3433
   82SOPE    HS 7479   4.972   4.420   6.700 -0.2291  0.4356 -0.3193
   82SOPE   O21 7480   4.933   4.457   6.500 -0.5100  0.4218  0.1274
   82SOPE   C21 7481   5.031   4.548   6.493 -0.2582 -0.4018  0.7079
   82SOPE   O22 7482   5.125   4.559   6.572 -0.0821  0.1814 -0.9425
   82SOPE   C22 7483   5.023   4.641   6.370 -0.1779 -0.2056  0.4150
   82SOPE   H2R 7484   5.107   4.713   6.374  0.0256 -0.2472 -1.7688
   82SOPE   H2S 7485   4.928   4.697   6.380 -0.6083 -0.8987  0.3061
   82SOPE    C3 7486   4.997   4.236   6.605 -0.1200 -0.6123 -0.1848
   82SOPE    HX 7487   4.955   4.190   6.513  0.7227 -0.1345 -0.8232
   82SOPE    HY 7488   4.982   4.173   6.696  1.5772  0.1637  0.6871
   82SOPE   O31 7489   5.135   4.269   6.584 -0.1654 -0.2060  0.2083
   82SOPE   C31 7490   5.223   4.168   6.604  0.2058  0.0485 -0.0550
   82SOPE   O32 7491   5.198   4.062   6.659 -0.1106  0.7626  0.0309
   82SOPE   C32 7492   5.359   4.208   6.539  0.1252  0.1327  0.7165
   82SOPE   H2X 7493   5.427   4.121   6.522  0.6256  0.7127 -0.3388
   82SOPE   H2Y 7494   5.422   4.264   6.612  1.9898 -2.5562  1.3434
   82SOPE   C23 7495   5.037   4.556   6.246 -0.0525  0.4697  0.2124
   82SOPE   H3R 7496   4.964   4.472   6.247  0.9045 -0.3888  1.3227
   82SOPE   H3S 7497   5.131   4.496   6.240 -1.3587 -1.5725 -0.9238
   82SOPE   C24 7498   5.006   4.625   6.110 -0.0482 -0.2441 -0.7737
   82SOPE   H4R 7499   4.911   4.683   6.112 -0.6315 -1.1904  0.4539
   82SOPE   H4S 7500   5.088   4.698   6.095  1.2447 -1.5948 -0.4991
   82SOPE   C25 7501   5.004   4.525   5.990  0.4128  0.3925  0.4908
   82SOPE   H5R 7502   5.112   4.506   5.972  1.2272  2.2654  2.8154
   82SOPE   H5S 7503   4.949   4.433   6.018  0.1979  0.5942  0.7339
   82SOPE   C26 7504   4.941   4.589   5.866 -0.2967 -0.7743  0.2544
   82SOPE   H6R 7505   4.839   4.616   5.898  0.8016  3.6075  0.6301
   82SOPE   H6S 7506   5.003   4.680   5.856  0.5833 -1.3823  0.0209
   82SOPE   C27 7507   4.953   4.507   5.740 -0.4765 -0.1188 -0.0717
   82SOPE   H7R 7508   5.060   4.493   5.711 -0.4516 -2.2795  0.8189
   82SOPE   H7S 7509   4.914   4.409   5.776 -0.4238  0.1827  0.8517
   82SOPE   C28 7510   4.882   4.546   5.618  0.7770  0.5278  0.7659
   82SOPE   H8R 7511   4.903   4.471   5.539 -0.8606  0.3089  0.5129
   82SOPE   H8S 7512   4.772   4.536   5.632  0.7924 -3.4496 -0.8200
   82SOPE   C29 7513   4.931   4.680   5.573  0.4878 -0.4800 -0.2819
   82SOPE   H91 7514   4.926   4.751   5.657  1.2330 -0.8461  0.0770
   82SOPE  C210 7515   4.978   4.717   5.448  0.4409  1.3334  0.2408
   82SOPE  H101 7516   5.009   4.821   5.429 -0.7839  1.3998 -1.7061
   82SOPE  C211 7517   5.005   4.625   5.336  0.5441  0.1299  0.3451
   82SOPE  H11R 7518   5.005   4.520   5.375 -1.2969  0.2356  0.7395
   82SOPE  H11S 7519   5.098   4.655   5.283 -0.6889  0.9320 -1.4476
   82SOPE  C212 7520   4.893   4.636   5.227  0.6019 -0.1031 -0.1044
   82SOPE  H12R 7521   4.851   4.739   5.217 -0.7496 -0.6790 -0.6581
   82SOPE  H12S 7522   4.804   4.582   5.265 -3.7142  4.7637 -2.0113
   82SOPE  C213 7523   4.934   4.568   5.092 -0.8230  0.1506 -0.4528
   82SOPE  H13R 7524   4.958   4.459   5.092 -0.5824  0.2037 -0.0638
   82SOPE  H13S 7525   5.025   4.618   5.054  1.1653 -2.1611  0.9821
   82SOPE  C214 7526   4.821   4.585   4.987 -0.3093  0.5137 -0.4909
   82SOPE  H14R 7527   4.805   4.694   4.975 -0.7086  0.4166 -0.8562
   82SOPE  H14S 7528   4.729   4.534   5.021 -0.4170  0.3593 -1.0172
   82SOPE  C215 7529   4.843   4.536   4.844 -0.0492  0.2982 -0.4291
   82SOPE  H15R 7530   4.859   4.426   4.840 -1.4443  0.1188 -2.7893
   82SOPE  H15S 7531   4.942   4.565   4.801 -1.0793  1.3817 -2.1566
   82SOPE  C216 7532   4.725   4.556   4.756  0.2665  0.7242  0.0660
   82SOPE  H16R 7533   4.688   4.661   4.754 -1.8381  0.0652  0.9963
   82SOPE  H16S 7534   4.642   4.495   4.798  0.3025 -0.8371 -2.0098
   82SOPE  C217 7535   4.754   4.520   4.611 -0.8988 -0.0120 -0.3724
   82SOPE  H17R 7536   4.775   4.411   4.605 -0.4720 -0.0944  1.7525
   82SOPE  H17S 7537   4.852   4.568   4.588  0.1423 -2.0349 -0.4225
   82SOPE  C218 7538   4.637   4.554   4.507 -0.2741 -0.1873 -0.6815
   82SOPE  H18R 7539   4.692   4.535   4.413 -0.2135 -0.7555 -0.5352
   82SOPE  H18S 7540   4.604   4.660   4.515  1.7795  0.8122 -3.7037
   82SOPE  H18T 7541   4.555   4.481   4.522 -0.9724  0.9110  1.3029
   82SOPE   C33 7542   5.341   4.299   6.411  0.0414  1.1736 -0.8957
   82SOPE   H3X 7543   5.444   4.311   6.372 -0.3256  0.4715 -2.1038
   82SOPE   H3Y 7544   5.306   4.403   6.431 -3.7340  0.4031 -2.6920
   82SOPE   C34 7545   5.259   4.226   6.303 -0.5995  0.0210  0.0421
   82SOPE   H4X 7546   5.152   4.242   6.326 -0.3242  1.0977  0.6042
   82SOPE   H4Y 7547   5.280   4.117   6.298  2.4256  0.5330 -0.4415
   82SOPE   C35 7548   5.299   4.279   6.160 -0.1389 -0.3806 -0.4220
   82SOPE   H5X 7549   5.405   4.246   6.152  0.4844  0.9568  1.6396
   82SOPE   H5Y 7550   5.284   4.388   6.149 -2.2130 -0.5548  0.3343
   82SOPE   C36 7551   5.218   4.222   6.040  0.7186 -1.2635  0.5351
   82SOPE   H6X 7552   5.116   4.265   6.049  0.3231 -2.3170  1.2659
   82SOPE   H6Y 7553   5.209   4.111   6.037  2.6757 -1.4643  0.2427
   82SOPE   C37 7554   5.276   4.273   5.911  0.4887 -0.2377 -0.3083
   82SOPE   H7X 7555   5.382   4.241   5.903  1.3601  2.3693 -0.3279
   82SOPE   H7Y 7556   5.273   4.384   5.912 -1.6050 -0.2472  1.6781
   82SOPE   C38 7557   5.190   4.218   5.794 -0.7813  0.1415 -0.4862
   82SOPE   H8X 7558   5.082   4.243   5.797 -0.6166  0.8530  0.0081
   82SOPE   H8Y 7559   5.202   4.108   5.801 -0.0625  0.2893  1.1170
   82SOPE   C39 7560   5.239   4.274   5.651  0.2859  0.8014  0.2837
   82SOPE   H9X 7561   5.349   4.261   5.641  0.5371  2.6437  0.3330
   82SOPE   H9Y 7562   5.223   4.384   5.662  0.4705  0.8672 -0.0919
   82SOPE  C310 7563   5.162   4.209   5.530 -0.4508 -0.0342 -0.6714
   82SOPE  H10X 7564   5.055   4.238   5.533 -0.9259 -1.7148  1.4279
   82SOPE  H10Y 7565   5.159   4.099   5.546 -1.6460 -0.0739 -1.0376
   82SOPE  C311 7566   5.238   4.243   5.403  0.0324 -0.0620  0.3661
   82SOPE  H11X 7567   5.316   4.165   5.391  0.7159  0.7280 -0.4421
   82SOPE  H11Y 7568   5.286   4.343   5.407 -0.5305  0.3456 -1.7895
   82SOPE  C312 7569   5.163   4.243   5.273  0.6469 -0.1056 -0.5212
   82SOPE  H12X 7570   5.068   4.302   5.275  0.6517 -0.0565  2.2378
   82SOPE  H12Y 7571   5.122   4.141   5.256 -2.3943  0.8775  0.2759
   82SOPE  C313 7572   5.253   4.277   5.152  0.8391 -0.3479  0.8429
   82SOPE  H13X 7573   5.339   4.207   5.152 -0.6656 -2.2958  0.5148
   82SOPE  H13Y 7574   5.282   4.384   5.150 -1.4283  0.3124  0.5184
   82SOPE  C314 7575   5.170   4.262   5.021 -0.0135 -0.3852  0.0120
   82SOPE  H14X 7576   5.070   4.309   5.032  1.7373  3.2459  2.7291
   82SOPE  H14Y 7577   5.150   4.154   5.006 -3.1286  0.2490 -1.0929
   82SOPE  C315 7578   5.252   4.307   4.900  0.3046  0.1142  0.4661
   82SOPE  H15X 7579   5.357   4.271   4.902  0.7443  1.3782  1.3288
   82SOPE  H15Y 7580   5.261   4.417   4.885  1.4672 -0.0875 -0.4493
   82SOPE  C316 7581   5.182   4.254   4.769  0.0872 -0.0726  0.0394
   82SOPE  H16X 7582   5.076   4.288   4.772  0.8097  2.2789  0.3938
   82SOPE  H16Y 7583   5.177   4.143   4.773  1.5853 -0.2294 -1.6839
   82SOPE  C317 7584   5.253   4.303   4.636  0.2211  0.1485  0.1065
   82SOPE  H17X 7585   5.200   4.259   4.549 -0.2646  2.1415 -0.6589
   82SOPE  H17Y 7586   5.359   4.271   4.648  0.5945  2.0617  3.0110
   82SOPE  C318 7587   5.236   4.456   4.613 -0.2829 -0.5312  0.4126
   82SOPE  H18X 7588   5.307   4.487   4.533  0.4831 -1.0157  0.8920
   82SOPE  H18Y 7589   5.249   4.523   4.700 -0.1960  0.1409 -0.1072
   82SOPE  H18Z 7590   5.135   4.470   4.570  0.1840  0.3040 -0.4535
   83SOPE     N 7591   4.103   5.716   2.528 -0.5857  0.1301  0.2394
   83SOPE   HN1 7592   4.149   5.809   2.527 -1.2909  0.5195  1.7870
   83SOPE   HN2 7593   4.177   5.648   2.504 -0.6214  0.0659  0.3095
   83SOPE   HN3 7594   4.037   5.718   2.447  1.4562  2.7928 -1.5396
   83SOPE   C12 7595   4.022   5.706   2.650 -0.0045  0.0610  0.0551
   83SOPE  H12A 7596   4.089   5.698   2.738 -0.4833 -0.6206  0.3724
   83SOPE  H12B 7597   3.951   5.621   2.641 -2.1611  1.4555  2.3103
   83SOPE   C11 7598   3.933   5.831   2.670 -0.4854 -0.4869  0.1899
   83SOPE  H11A 7599   3.894   5.829   2.774 -1.2458  0.5785 -0.0554
   83SOPE  H11B 7600   3.843   5.823   2.606 -0.2339 -0.0043 -0.2284
   83SOPE     P 7601   3.949   6.093   2.595 -0.1298  0.1592  0.3858
   83SOPE   O13 7602   3.826   6.062   2.526  0.2687 -0.2394  0.8146
   83SOPE   O14 7603   4.053   6.155   2.504  0.2268 -0.1321  0.1597
   83SOPE   O12 7604   4.013   5.954   2.651 -0.4539 -0.3993 -0.4088
   83SOPE   O11 7605   3.934   6.183   2.732  0.8221  0.8662  0.1146
   83SOPE    C1 7606   3.916   6.126   2.864 -0.3397  0.9086  0.6729
   83SOPE    HA 7607   3.844   6.041   2.858  0.8208 -0.0933  0.5794
   83SOPE    HB 7608   3.860   6.201   2.925  0.0556  1.5539  0.2514
   83SOPE    C2 7609   4.042   6.093   2.929 -0.4463 -0.4826  0.0517
   83SOPE    HS 7610   4.069   5.989   2.899 -2.8724 -0.7303 -1.5349
   83SOPE   O21 7611   4.025   6.106   3.073  0.2257  0.1809  0.5889
   83SOPE   C21 7612   3.960   5.997   3.121 -0.2935  0.2427  0.0637
   83SOPE   O22 7613   3.917   5.901   3.060  0.4350  0.6592 -0.0635
   83SOPE   C22 7614   3.964   6.014   3.276  0.3689  0.3068 -0.1469
   83SOPE   H2R 7615   3.896   6.101   3.293 -0.8183 -0.7217  0.4805
   83SOPE   H2S 7616   4.064   6.048   3.310 -0.4621  3.0066 -0.1374
   83SOPE    C3 7617   4.163   6.192   2.886  0.2940  0.0228 -0.5823
   83SOPE    HX 7618   4.113   6.291   2.899 -0.5914 -0.5649  0.7229
   83SOPE    HY 7619   4.194   6.175   2.781 -0.0416  0.1198 -0.6968
   83SOPE   O31 7620   4.271   6.194   2.976 -0.0052 -0.1281  0.2299
   83SOPE   C31 7621   4.348   6.085   2.966 -0.7033  0.8690  0.6591
   83SOPE   O32 7622   4.335   5.987   2.896  0.0611 -0.8094  0.0149
   83SOPE   C32 7623   4.462   6.082   3.072 -0.7033 -0.9297  0.0065
   83SOPE   H2X 7624   4.501   6.186   3.070 -0.2895 -1.0709  0.4491
   83SOPE   H2Y 7625   4.535   6.001   3.051 -0.7636 -1.3745  1.3692
   83SOPE   C23 7626   3.907   5.887   3.344  0.1141 -1.1827  0.4427
   83SOPE   H3R 7627   3.958   5.801   3.296  0.3490 -0.5066 -0.5641
   83SOPE   H3S 7628   3.798   5.885   3.322  0.1002 -1.7631  0.5537
   83SOPE   C24 7629   3.941   5.891   3.497  0.3432  0.1517  0.5848
   83SOPE   H4R 7630   4.045   5.932   3.499  1.7286 -3.0427  0.3177
   83SOPE   H4S 7631   3.878   5.967   3.548 -1.5397 -0.6494 -0.4920
   83SOPE   C25 7632   3.920   5.759   3.567 -0.5897 -0.4435  0.0237
   83SOPE   H5R 7633   3.810   5.741   3.561 -0.3374 -2.0176 -0.2258
   83SOPE   H5S 7634   3.976   5.684   3.507 -3.2774 -2.1864 -0.5031
   83SOPE   C26 7635   3.973   5.759   3.706 -0.0214 -0.4860 -1.7830
   83SOPE   H6R 7636   3.941   5.664   3.753  0.0496  1.0425  1.6965
   83SOPE   H6S 7637   4.083   5.761   3.717 -0.2702  0.5099  2.4400
   83SOPE   C27 7638   3.907   5.873   3.791 -0.2979  0.2925 -0.0245
   83SOPE   H7R 7639   3.939   5.975   3.759  1.1586 -0.2208 -0.2576
   83SOPE   H7S 7640   3.798   5.874   3.768  0.0946  0.6116 -2.0539
   83SOPE   C28 7641   3.911   5.856   3.947  0.3105  0.6677 -0.4088
   83SOPE   H8R 7642   4.016   5.851   3.983 -0.1619 -1.6575  0.8323
   83SOPE   H8S 7643   3.866   5.947   3.993  1.4170  1.6217 -1.1601
   83SOPE   C29 7644   3.850   5.732   4.005  0.5439  0.2519  0.3462
   83SOPE   H91 7645   3.848   5.649   3.933  2.8540  2.1629 -2.1227
   83SOPE  C210 7646   3.792   5.716   4.132  0.1487 -0.0521 -0.5423
   83SOPE  H101 7647   3.750   5.617   4.154  3.0782 -1.0315  1.2932
   83SOPE  C211 7648   3.787   5.819   4.240  0.0319 -0.5391  0.1112
   83SOPE  H11R 7649   3.854   5.899   4.203  1.9721 -0.9031  2.5573
   83SOPE  H11S 7650   3.818   5.778   4.339 -1.0556 -0.6827  0.4052
   83SOPE  C212 7651   3.654   5.895   4.256  0.0726  0.5293  0.3787
   83SOPE  H12R 7652   3.579   5.828   4.303 -0.0642 -2.2076 -3.2448
   83SOPE  H12S 7653   3.616   5.924   4.155  0.5069  0.6011  0.2296
   83SOPE  C213 7654   3.650   6.029   4.336 -0.1831 -0.6222 -0.0749
   83SOPE  H13R 7655   3.545   6.060   4.316  0.1859 -0.3914 -1.7581
   83SOPE  H13S 7656   3.712   6.108   4.290 -1.2503  1.1333  1.3581
   83SOPE  C214 7657   3.680   6.012   4.487  0.7926  0.6814  0.6668
   83SOPE  H14R 7658   3.787   5.984   4.499  0.4793 -0.4303  1.0447
   83SOPE  H14S 7659   3.611   5.931   4.521  0.0655  1.1519  0.3221
   83SOPE  C215 7660   3.648   6.136   4.582  0.7906  0.6318  0.4135
   83SOPE  H15R 7661   3.704   6.216   4.529  1.1924 -0.8144 -1.4347
   83SOPE  H15S 7662   3.693   6.126   4.683  0.9109  0.8405  0.3812
   83SOPE  C216 7663   3.495   6.175   4.590 -0.2283  0.9675 -0.5765
   83SOPE  H16R 7664   3.449   6.167   4.489 -0.1754  2.3859 -0.7366
   83SOPE  H16S 7665   3.495   6.283   4.614  1.5090  0.5213  1.8119
   83SOPE  C217 7666   3.414   6.100   4.697 -0.1518 -0.4355 -0.2359
   83SOPE  H17R 7667   3.473   6.089   4.790 -0.9417  0.9637  0.4585
   83SOPE  H17S 7668   3.394   5.996   4.662 -0.7006 -0.8099  1.1522
   83SOPE  C218 7669   3.282   6.173   4.738  0.2231 -0.3252 -0.1475
   83SOPE  H18R 7670   3.219   6.192   4.648 -0.5311  1.9726  0.7831
   83SOPE  H18S 7671   3.309   6.273   4.779 -0.7510  1.3930 -3.3053
   83SOPE  H18T 7672   3.221   6.111   4.807  1.3309 -1.4199 -0.1075
   83SOPE   C33 7673   4.410   6.059   3.224  1.0358 -0.0870  0.0963
   83SOPE   H3X 7674   4.407   5.950   3.244  0.6134 -0.0134  0.4439
   83SOPE   H3Y 7675   4.306   6.095   3.240 -0.0249 -2.1846 -1.4597
   83SOPE   C34 7676   4.496   6.121   3.330  0.6069 -0.2053 -0.1134
   83SOPE   H4X 7677   4.503   6.231   3.317  1.9215 -0.4913 -2.4887
   83SOPE   H4Y 7678   4.598   6.086   3.301  0.5536  0.2537 -0.8629
   83SOPE   C35 7679   4.451   6.070   3.467 -0.2890  0.2658  0.2220
   83SOPE   H5X 7680   4.482   5.963   3.470 -1.5707 -0.1351  0.0951
   83SOPE   H5Y 7681   4.340   6.062   3.472 -0.1736 -1.0315  2.1963
   83SOPE   C36 7682   4.507   6.151   3.582 -0.4262  0.6033  0.6390
   83SOPE   H6X 7683   4.468   6.252   3.606 -1.8063  0.2112  0.1480
   83SOPE   H6Y 7684   4.616   6.162   3.562 -0.4868  1.9674  0.9500
   83SOPE   C37 7685   4.500   6.079   3.719  0.3968 -0.2571  1.1233
   83SOPE   H7X 7686   4.548   5.979   3.705  0.7350 -0.3097  2.4714
   83SOPE   H7Y 7687   4.395   6.064   3.751  0.1956 -4.0057 -0.6993
   83SOPE   C38 7688   4.562   6.156   3.828  0.3611  0.2762  0.2998
   83SOPE   H8X 7689   4.515   6.255   3.850  1.8084  0.8984  0.7593
   83SOPE   H8Y 7690   4.670   6.162   3.804  0.7992 -0.1133  1.9942
   83SOPE   C39 7691   4.562   6.084   3.964 -0.2801 -0.0290  0.3216
   83SOPE   H9X 7692   4.611   6.145   4.043 -1.3374  2.8663 -1.1266
   83SOPE   H9Y 7693   4.616   5.987   3.958  1.1255  0.5644  2.2376
   83SOPE  C310 7694   4.424   6.061   4.027  0.2923  0.7986 -0.2423
   83SOPE  H10X 7695   4.364   6.005   3.951  0.2526 -0.6421  0.8150
   83SOPE  H10Y 7696   4.383   6.163   4.046  0.0746  0.6290  0.2243
   83SOPE  C311 7697   4.422   5.997   4.162 -0.0864  0.4872  0.3280
   83SOPE  H11X 7698   4.470   6.071   4.229 -1.4158  2.4411 -0.7806
   83SOPE  H11Y 7699   4.487   5.908   4.149  1.2038  1.5661 -0.8302
   83SOPE  C312 7700   4.282   5.954   4.216 -0.1525 -0.8573  0.3961
   83SOPE  H12X 7701   4.251   5.870   4.150 -2.4522 -0.4080  0.8017
   83SOPE  H12Y 7702   4.215   6.042   4.205 -0.4866 -1.2257 -0.5890
   83SOPE  C313 7703   4.288   5.912   4.364 -0.1714 -0.0651 -0.1765
   83SOPE  H13X 7704   4.331   5.983   4.438  1.0096 -0.0397 -0.8682
   83SOPE  H13Y 7705   4.340   5.814   4.366 -0.4601 -0.2174  0.1256
   83SOPE  C314 7706   4.145   5.877   4.410 -0.0722 -0.3317  0.5329
   83SOPE  H14X 7707   4.103   5.812   4.330 -1.0694 -1.3250  1.8134
   83SOPE  H14Y 7708   4.083   5.969   4.405 -2.5241 -1.9187 -0.4318
   83SOPE  C315 7709   4.138   5.817   4.548 -0.2950 -0.0962 -0.0535
   83SOPE  H15X 7710   4.032   5.801   4.575 -0.5891 -0.2379 -1.2590
   83SOPE  H15Y 7711   4.202   5.882   4.613  0.7018 -0.1733 -0.9191
   83SOPE  C316 7712   4.202   5.670   4.557 -0.1414 -0.2315 -0.4897
   83SOPE  H16X 7713   4.306   5.669   4.516 -0.1350 -0.0827 -0.4785
   83SOPE  H16Y 7714   4.143   5.603   4.492 -2.1517 -2.0378  2.9132
   83SOPE  C317 7715   4.201   5.607   4.695  0.0204 -0.0872 -0.5709
   83SOPE  H17X 7716   4.244   5.681   4.765 -0.7577 -0.0132 -0.1555
   83SOPE  H17Y 7717   4.264   5.517   4.682 -0.5619 -0.9635  2.0005
   83SOPE  C318 7718   4.057   5.577   4.751 -0.4227  0.1070  0.0198
   83SOPE  H18X 7719   4.073   5.524   4.848  0.3367 -0.6488 -0.5045
   83SOPE  H18Y 7720   3.992   5.510   4.693 -1.0890  0.8926 -0.1590
   83SOPE  H18Z 7721   3.994   5.667   4.767 -0.7154  0.0571 -0.8558
   84SOPE     N 7722   4.366   2.710   2.155 -0.0695  0.2943 -0.3026
   84SOPE   HN1 7723   4.306   2.634   2.117 -1.2526 -0.5349  2.8740
   84SOPE   HN2 7724   4.464   2.676   2.167 -0.3768 -0.5917 -0.2455
   84SOPE   HN3 7725   4.332   2.706   2.253  1.4995 -2.4276  0.2444
   84SOPE   C12 7726   4.338   2.833   2.075 -0.2027 -0.3422  0.5465
   84SOPE  H12A 7727   4.395   2.817   1.981  0.7690 -2.3556  1.4241
   84SOPE  H12B 7728   4.372   2.927   2.124 -2.0227  0.1593  0.9375
   84SOPE   C11 7729   4.190   2.839   2.038  0.2674 -0.4671  0.0503
   84SOPE  H11A 7730   4.157   2.743   1.994  2.8077 -1.6678  0.6029
   84SOPE  H11B 7731   4.184   2.917   1.959 -0.8369  0.6927  1.2287
   84SOPE     P 7732   4.010   2.987   2.163 -0.2061 -0.0668 -0.0623
   84SOPE   O13 7733   3.884   2.942   2.099  0.9743  0.0620 -0.3250
   84SOPE   O14 7734   4.063   3.116   2.117 -0.9387 -0.2476  0.6167
   84SOPE   O12 7735   4.111   2.876   2.160  0.1718  0.1142 -0.2788
   84SOPE   O11 7736   3.989   3.013   2.316  0.0292  0.1666 -0.5504
   84SOPE    C1 7737   4.055   2.947   2.421  0.1158  0.5923 -0.3122
   84SOPE    HA 7738   4.030   2.838   2.424 -1.5648  0.9321  2.8921
   84SOPE    HB 7739   4.008   2.974   2.518  0.5737  0.2263  0.0189
   84SOPE    C2 7740   4.204   2.991   2.438  0.1481  0.1061  0.2275
   84SOPE    HS 7741   4.263   2.964   2.348  1.0821  0.8639  0.5883
   84SOPE   O21 7742   4.262   2.935   2.556 -0.0323  0.5348 -0.7881
   84SOPE   C21 7743   4.311   2.815   2.542 -0.1556 -0.5153  0.0782
   84SOPE   O22 7744   4.327   2.759   2.434 -0.2636  0.6163 -0.2546
   84SOPE   C22 7745   4.331   2.749   2.677 -0.4260  0.2672  0.0513
   84SOPE   H2R 7746   4.438   2.719   2.677 -0.8081 -1.1692  0.2016
   84SOPE   H2S 7747   4.273   2.655   2.669 -1.0342  0.5479  0.9808
   84SOPE    C3 7748   4.206   3.146   2.440 -0.1407  0.4117 -0.1323
   84SOPE    HX 7749   4.113   3.185   2.487  0.1481  1.9758 -0.7809
   84SOPE    HY 7750   4.191   3.181   2.336  2.5706 -0.8865 -1.0605
   84SOPE   O31 7751   4.330   3.198   2.484 -0.4962 -0.3590  0.2420
   84SOPE   C31 7752   4.328   3.248   2.609 -0.3118 -0.2733  0.6007
   84SOPE   O32 7753   4.240   3.245   2.688  0.0614 -0.6955  0.4385
   84SOPE   C32 7754   4.468   3.316   2.632 -0.5608 -0.2911  0.1441
   84SOPE   H2X 7755   4.495   3.360   2.534 -0.9681 -1.2439 -0.4127
   84SOPE   H2Y 7756   4.538   3.233   2.655 -1.5755 -0.7492  1.7166
   84SOPE   C23 7757   4.295   2.835   2.795  0.0152 -0.1843  0.3577
   84SOPE   H3R 7758   4.190   2.868   2.781 -0.2297  0.5683  3.3232
   84SOPE   H3S 7759   4.363   2.923   2.791  0.6881 -0.6505  1.1399
   84SOPE   C24 7760   4.321   2.772   2.932 -0.1147 -0.5705  1.0697
   84SOPE   H4R 7761   4.263   2.678   2.949  0.2251 -0.8177  0.8828
   84SOPE   H4S 7762   4.427   2.747   2.953 -0.2149 -0.2169  2.0105
   84SOPE   C25 7763   4.292   2.877   3.034 -0.0693 -0.8967  0.3850
   84SOPE   H5R 7764   4.367   2.956   3.014 -0.3378 -1.4278 -3.4027
   84SOPE   H5S 7765   4.189   2.919   3.029  0.4130  0.2758 -0.0247
   84SOPE   C26 7766   4.297   2.820   3.184  0.2583  0.1768  0.6114
   84SOPE   H6R 7767   4.244   2.882   3.260  1.5504 -0.3153  1.9694
   84SOPE   H6S 7768   4.254   2.718   3.194  1.3124 -0.3862 -0.4475
   84SOPE   C27 7769   4.448   2.809   3.234  1.4907 -0.0896  0.5897
   84SOPE   H7R 7770   4.504   2.744   3.164  2.7684  2.5254 -0.9824
   84SOPE   H7S 7771   4.492   2.910   3.228  0.5898  0.4349  2.1462
   84SOPE   C28 7772   4.464   2.763   3.377  0.4486  0.0367 -0.2152
   84SOPE   H8R 7773   4.389   2.821   3.435  2.1175 -0.1330  2.2436
   84SOPE   H8S 7774   4.416   2.663   3.379 -0.2738  0.2874 -2.5852
   84SOPE   C29 7775   4.606   2.768   3.427  0.3035 -1.4512 -0.4549
   84SOPE   H91 7776   4.674   2.730   3.350  0.8836 -0.5182 -0.4216
   84SOPE  C210 7777   4.655   2.842   3.532  0.6612 -0.4810  0.3323
   84SOPE  H101 7778   4.765   2.844   3.544  0.9602  0.3125 -1.9547
   84SOPE  C211 7779   4.570   2.914   3.635 -0.4103 -1.0569 -0.3194
   84SOPE  H11R 7780   4.474   2.953   3.597  0.2942 -0.0062 -1.0715
   84SOPE  H11S 7781   4.636   2.993   3.675  0.8959 -2.3930  0.2688
   84SOPE  C212 7782   4.532   2.815   3.748  0.2972 -0.3020 -0.4296
   84SOPE  H12R 7783   4.456   2.745   3.707 -0.9317  0.6929  0.1120
   84SOPE  H12S 7784   4.481   2.866   3.833 -3.0410 -0.9778 -1.8688
   84SOPE  C213 7785   4.659   2.740   3.801  0.6280 -0.2078  0.2349
   84SOPE  H13R 7786   4.731   2.807   3.853 -1.3632  2.1279  0.1955
   84SOPE  H13S 7787   4.707   2.696   3.711 -1.7685 -0.2218 -1.1369
   84SOPE  C214 7788   4.613   2.638   3.903  0.2818  0.6803  0.1205
   84SOPE  H14R 7789   4.525   2.579   3.868  0.5151 -0.7995  1.8849
   84SOPE  H14S 7790   4.593   2.705   3.989 -0.6942  1.0907 -0.4088
   84SOPE  C215 7791   4.714   2.526   3.940  0.2339 -0.3350 -0.0332
   84SOPE  H15R 7792   4.811   2.574   3.965  0.5179  0.6031 -2.6156
   84SOPE  H15S 7793   4.731   2.454   3.858  0.7754 -0.5578  0.2744
   84SOPE  C216 7794   4.668   2.453   4.064  0.2551 -0.0908  0.0544
   84SOPE  H16R 7795   4.571   2.399   4.055 -0.8126  2.0296 -2.0551
   84SOPE  H16S 7796   4.655   2.527   4.146  1.0416  0.7087 -0.5192
   84SOPE  C217 7797   4.778   2.351   4.114 -0.1396 -0.0941 -0.2454
   84SOPE  H17R 7798   4.880   2.393   4.099  0.4127 -1.1737  0.3635
   84SOPE  H17S 7799   4.773   2.261   4.049  0.0379 -0.0223 -0.3592
   84SOPE  C218 7800   4.759   2.304   4.261 -0.2865  0.6755  0.1219
   84SOPE  H18R 7801   4.802   2.371   4.338  1.4439 -0.2604  0.0312
   84SOPE  H18S 7802   4.815   2.208   4.269  0.0456  1.0137  2.2781
   84SOPE  H18T 7803   4.653   2.279   4.284 -0.0686  0.0075  0.4121
   84SOPE   C33 7804   4.460   3.426   2.741  0.5031 -0.1372 -0.7511
   84SOPE   H3X 7805   4.427   3.375   2.834  0.8187 -0.4225 -0.7954
   84SOPE   H3Y 7806   4.375   3.497   2.732  0.5557  0.4031  2.0402
   84SOPE   C34 7807   4.595   3.490   2.775  0.1626 -0.1292 -0.5969
   84SOPE   H4X 7808   4.633   3.534   2.680  1.1945  1.1424  0.3612
   84SOPE   H4Y 7809   4.666   3.409   2.802  1.4721  0.6215 -1.6837
   84SOPE   C35 7810   4.614   3.595   2.884  0.2445  0.0903 -0.0073
   84SOPE   H5X 7811   4.555   3.687   2.862  1.5234  0.6754 -1.1428
   84SOPE   H5Y 7812   4.717   3.633   2.896  0.5105 -0.4179 -0.6268
   84SOPE   C36 7813   4.570   3.549   3.026  0.3091  0.5121  0.1940
   84SOPE   H6X 7814   4.591   3.440   3.028 -2.4744 -0.1156 -0.4948
   84SOPE   H6Y 7815   4.460   3.552   3.035  0.1304  0.2372 -1.5324
   84SOPE   C37 7816   4.632   3.622   3.145 -0.0350 -0.5658  0.3756
   84SOPE   H7X 7817   4.629   3.732   3.128  1.4091 -0.2265  1.9808
   84SOPE   H7Y 7818   4.732   3.583   3.174 -1.4507 -3.8561  1.2756
   84SOPE   C38 7819   4.561   3.618   3.283  0.5051 -0.1399 -0.3268
   84SOPE   H8X 7820   4.545   3.513   3.317  1.7384 -0.1857  0.1762
   84SOPE   H8Y 7821   4.459   3.661   3.292  0.5390 -0.2043  0.4088
   84SOPE   C39 7822   4.640   3.690   3.391 -0.3562 -0.7897 -0.3805
   84SOPE   H9X 7823   4.637   3.796   3.359  1.3395 -0.4246  0.6024
   84SOPE   H9Y 7824   4.750   3.676   3.389 -0.0612  0.9574  1.2432
   84SOPE  C310 7825   4.604   3.671   3.535  0.4852 -0.6529 -0.6703
   84SOPE  H10X 7826   4.595   3.564   3.564 -1.1245 -0.6461 -1.0866
   84SOPE  H10Y 7827   4.500   3.710   3.544  1.7229  2.6304  1.1643
   84SOPE  C311 7828   4.666   3.758   3.643 -0.3779  0.1963 -0.2512
   84SOPE  H11X 7829   4.662   3.865   3.614 -0.2728 -0.0201 -1.0667
   84SOPE  H11Y 7830   4.768   3.715   3.649 -0.3871 -0.5785 -3.6544
   84SOPE  C312 7831   4.585   3.749   3.775 -0.2363 -0.2468 -0.3841
   84SOPE  H12X 7832   4.495   3.813   3.764  0.6926  1.5868  1.8608
   84SOPE  H12Y 7833   4.655   3.782   3.855 -1.7761 -1.8365  1.7465
   84SOPE  C313 7834   4.544   3.600   3.817  0.1964 -0.8211 -0.5064
   84SOPE  H13X 7835   4.622   3.523   3.801  1.5799  0.1405  1.2623
   84SOPE  H13Y 7836   4.466   3.572   3.742 -2.5320  1.4979  1.2654
   84SOPE  C314 7837   4.486   3.601   3.962 -0.8812 -0.5313  0.4300
   84SOPE  H14X 7838   4.376   3.614   3.959 -1.0051 -0.8215  2.5019
   84SOPE  H14Y 7839   4.529   3.686   4.020 -0.9184  0.1289 -0.4838
   84SOPE  C315 7840   4.515   3.481   4.050  0.5838 -0.0347  0.6509
   84SOPE  H15X 7841   4.470   3.513   4.147 -1.0327 -0.1343 -0.0229
   84SOPE  H15Y 7842   4.621   3.452   4.066  1.0309  1.9510  1.6224
   84SOPE  C316 7843   4.430   3.366   4.010  0.5789  0.0325  0.2861
   84SOPE  H16X 7844   4.438   3.353   3.900  1.4992 -1.1802  0.4774
   84SOPE  H16Y 7845   4.325   3.393   4.037  0.0776 -1.0758 -0.4541
   84SOPE  C317 7846   4.457   3.230   4.084 -0.1448 -0.7822 -0.2344
   84SOPE  H17X 7847   4.458   3.264   4.189  3.5991 -1.2884  0.0182
   84SOPE  H17Y 7848   4.558   3.187   4.068 -0.4805 -1.3829 -0.8188
   84SOPE  C318 7849   4.361   3.122   4.057  0.0137 -0.3497 -0.7701
   84SOPE  H18X 7850   4.374   3.087   3.952 -1.2680  1.6931 -1.6969
   84SOPE  H18Y 7851   4.257   3.162   4.046  0.5573  1.0732 -0.9980
   84SOPE  H18Z 7852   4.365   3.041   4.132  0.5727  0.7045  0.3803
   85SOPE     N 7853   4.731   5.717   2.686  0.0254 -0.1872  0.6469
   85SOPE   HN1 7854   4.707   5.651   2.763 -1.2677 -1.4181 -0.7657
   85SOPE   HN2 7855   4.698   5.681   2.595  0.3817 -0.6890  0.7128
   85SOPE   HN3 7856   4.835   5.713   2.676  0.2658  1.4658  1.9865
   85SOPE   C12 7857   4.700   5.851   2.731 -0.6526 -0.4395  0.3388
   85SOPE  H12A 7858   4.736   5.868   2.835  0.7853 -0.9704 -0.0464
   85SOPE  H12B 7859   4.590   5.868   2.723 -0.6892 -0.5220  0.6374
   85SOPE   C11 7860   4.761   5.955   2.630 -0.0316 -0.4663 -0.7531
   85SOPE  H11A 7861   4.723   6.055   2.660  1.5286 -0.2092  0.5415
   85SOPE  H11B 7862   4.742   5.934   2.523 -0.6355  0.5518 -0.8664
   85SOPE     P 7863   4.989   6.043   2.558 -0.0714 -0.0589  0.1117
   85SOPE   O13 7864   4.946   6.181   2.569  0.3222 -0.3947 -0.2996
   85SOPE   O14 7865   4.991   5.971   2.426 -0.4533  0.1654 -0.1589
   85SOPE   O12 7866   4.899   5.961   2.664 -0.2644 -0.1271 -0.2598
   85SOPE   O11 7867   5.133   6.025   2.620 -0.0443  0.2305 -0.5440
   85SOPE    C1 7868   5.196   5.901   2.626 -0.5445 -0.4015  0.5363
   85SOPE    HA 7869   5.269   5.887   2.544 -1.6247 -1.0409 -0.3583
   85SOPE    HB 7870   5.125   5.817   2.609  0.3120 -0.8510 -1.0142
   85SOPE    C2 7871   5.269   5.887   2.760  0.4555  1.1445  0.0041
   85SOPE    HS 7872   5.297   5.780   2.753 -1.1093  0.6870  0.2438
   85SOPE   O21 7873   5.187   5.894   2.880  0.1044 -0.2707 -0.3253
   85SOPE   C21 7874   5.086   5.813   2.885 -0.0243 -0.2072  0.4438
   85SOPE   O22 7875   5.052   5.716   2.819  0.2705 -0.2366  0.2875
   85SOPE   C22 7876   5.012   5.865   3.007  0.2367 -0.2102 -0.4400
   85SOPE   H2R 7877   4.972   5.966   2.982  3.1528  1.5849  1.6343
   85SOPE   H2S 7878   5.097   5.870   3.078  1.3038  3.4885 -1.7518
   85SOPE    C3 7879   5.391   5.971   2.773  0.2115 -0.3163  0.0026
   85SOPE    HX 7880   5.363   6.078   2.773  0.5233 -0.2326 -0.3124
   85SOPE    HY 7881   5.462   5.964   2.688  2.1620  0.0510  1.5284
   85SOPE   O31 7882   5.457   5.947   2.899 -0.6931  0.0986 -0.0800
   85SOPE   C31 7883   5.529   5.844   2.901  0.6657 -0.0539  0.4377
   85SOPE   O32 7884   5.539   5.761   2.814 -0.3899  0.5007 -0.7796
   85SOPE   C32 7885   5.609   5.840   3.033 -0.0377 -0.1533  0.1497
   85SOPE   H2X 7886   5.675   5.928   3.041  0.9346 -0.6277 -2.0428
   85SOPE   H2Y 7887   5.669   5.746   3.031  1.5055  0.7855  0.7709
   85SOPE   C23 7888   4.901   5.773   3.047  0.8365  0.0667  0.3152
   85SOPE   H3R 7889   4.923   5.665   3.038 -3.5814 -0.9052 -1.9520
   85SOPE   H3S 7890   4.814   5.791   2.980  2.5918  0.8729 -1.8725
   85SOPE   C24 7891   4.861   5.802   3.188 -0.3767  0.4288 -1.2433
   85SOPE   H4R 7892   4.952   5.789   3.250  0.5344  1.3196 -2.3487
   85SOPE   H4S 7893   4.810   5.899   3.205  0.6194  0.6858  0.4779
   85SOPE   C25 7894   4.765   5.692   3.243 -0.8186 -0.1434 -0.0808
   85SOPE   H5R 7895   4.670   5.715   3.190 -0.8677  0.3092  0.1989
   85SOPE   H5S 7896   4.809   5.594   3.216  3.4483  1.4022  0.4992
   85SOPE   C26 7897   4.746   5.690   3.397 -0.9840 -0.6283  0.3994
   85SOPE   H6R 7898   4.713   5.793   3.423  1.0283 -0.1026  1.0577
   85SOPE   H6S 7899   4.668   5.618   3.427 -1.7006  0.5737  1.4942
   85SOPE   C27 7900   4.872   5.652   3.484 -0.6920  0.2877 -0.0162
   85SOPE   H7R 7901   4.908   5.558   3.438 -0.0203 -0.3831  1.7790
   85SOPE   H7S 7902   4.958   5.722   3.486  0.2186 -0.7841 -0.3622
   85SOPE   C28 7903   4.831   5.621   3.628 -0.0624 -1.3554 -0.6014
   85SOPE   H8R 7904   4.731   5.575   3.642 -0.4143 -0.5807 -0.5451
   85SOPE   H8S 7905   4.892   5.539   3.671  0.0068 -0.2646  1.5106
   85SOPE   C29 7906   4.847   5.749   3.713 -0.3982  1.1157 -0.1951
   85SOPE   H91 7907   4.763   5.820   3.712 -1.7042 -0.3172 -2.2128
   85SOPE  C210 7908   4.947   5.762   3.797 -0.9566 -0.5913  0.2889
   85SOPE  H101 7909   4.947   5.852   3.860 -3.0574 -0.9616  0.9017
   85SOPE  C211 7910   5.068   5.674   3.824 -1.0769  0.6494  0.0279
   85SOPE  H11R 7911   5.157   5.737   3.841 -1.0825  1.0792 -1.3997
   85SOPE  H11S 7912   5.093   5.625   3.727 -1.3688  1.5726 -0.5279
   85SOPE  C212 7913   5.061   5.569   3.940 -0.1508  0.4352  0.6741
   85SOPE  H12R 7914   5.151   5.503   3.938  0.1869  0.7771  2.6515
   85SOPE  H12S 7915   4.978   5.496   3.930  0.2073  0.0034  0.8420
   85SOPE  C213 7916   5.065   5.638   4.073  0.4264 -0.0378  0.1217
   85SOPE  H13R 7917   4.981   5.709   4.090 -0.0336 -0.6650  0.4974
   85SOPE  H13S 7918   5.158   5.695   4.091 -0.7911  0.9668  4.5312
   85SOPE  C214 7919   5.070   5.540   4.186 -0.1788  0.3628 -0.8146
   85SOPE  H14R 7920   5.162   5.477   4.192 -1.7290 -1.8420  1.1984
   85SOPE  H14S 7921   4.987   5.467   4.181 -0.1006  0.3308 -2.2768
   85SOPE  C215 7922   5.068   5.627   4.313 -0.2981  0.0972 -0.3373
   85SOPE  H15R 7923   4.979   5.694   4.311 -0.2279  0.2389  0.9057
   85SOPE  H15S 7924   5.166   5.679   4.308  1.0407 -2.3306 -0.4460
   85SOPE  C216 7925   5.052   5.524   4.426 -0.0755 -0.0530  0.0135
   85SOPE  H16R 7926   5.143   5.461   4.419  0.2038  0.1001  1.7955
   85SOPE  H16S 7927   4.964   5.459   4.410  1.6913 -2.5204 -0.3275
   85SOPE  C217 7928   5.037   5.597   4.565 -0.6917  0.0302 -0.6589
   85SOPE  H17R 7929   4.942   5.651   4.581 -0.8869 -0.5698  0.2297
   85SOPE  H17S 7930   5.110   5.679   4.584 -0.8896  0.4201 -1.5316
   85SOPE  C218 7931   5.057   5.502   4.682 -0.4881 -0.0030  0.5839
   85SOPE  H18R 7932   5.016   5.549   4.774  0.4256 -0.1142  1.0589
   85SOPE  H18S 7933   5.161   5.470   4.701 -0.6030 -0.1682  0.9609
   85SOPE  H18T 7934   4.993   5.414   4.656  0.1466  0.4882 -3.2504
   85SOPE   C33 7935   5.502   5.827   3.149 -0.3844 -0.1322 -0.1108
   85SOPE   H3X 7936   5.432   5.746   3.118  1.8767 -2.0288 -0.5310
   85SOPE   H3Y 7937   5.452   5.923   3.174 -0.2616 -0.0974 -0.0018
   85SOPE   C34 7938   5.562   5.787   3.287 -0.3823 -0.7704  0.4584
   85SOPE   H4X 7939   5.650   5.852   3.304 -1.5142  1.3503 -1.2892
   85SOPE   H4Y 7940   5.607   5.686   3.272 -1.6247 -1.3428  0.4052
   85SOPE   C35 7941   5.462   5.799   3.404  0.2834 -0.0540  0.3552
   85SOPE   H5X 7942   5.390   5.715   3.415 -1.6525  1.7539  2.5435
   85SOPE   H5Y 7943   5.396   5.889   3.401  0.0785 -0.2287 -0.9084
   85SOPE   C36 7944   5.527   5.801   3.535 -0.4978 -0.1819  0.4780
   85SOPE   H6X 7945   5.592   5.891   3.535 -1.3467  0.4537 -0.5104
   85SOPE   H6Y 7946   5.593   5.712   3.534  0.8076  0.7044 -1.7154
   85SOPE   C37 7947   5.437   5.807   3.657  0.2393 -0.3188  0.1941
   85SOPE   H7X 7948   5.393   5.706   3.665 -0.2901 -0.0689  0.5042
   85SOPE   H7Y 7949   5.353   5.877   3.638  1.1043  0.6567 -0.1344
   85SOPE   C38 7950   5.510   5.848   3.788  0.6045  0.4985 -0.2922
   85SOPE   H8X 7951   5.544   5.954   3.797  1.4935  0.2360 -0.4670
   85SOPE   H8Y 7952   5.601   5.785   3.785  0.4601  0.1224  1.8273
   85SOPE   C39 7953   5.413   5.816   3.910 -0.6624 -0.1633  0.1623
   85SOPE   H9X 7954   5.386   5.708   3.909 -1.1306 -0.0643 -1.7879
   85SOPE   H9Y 7955   5.318   5.871   3.890 -0.6003  0.2176  0.8685
   85SOPE  C310 7956   5.480   5.865   4.041 -0.4878 -0.5691  0.5119
   85SOPE  H10X 7957   5.493   5.975   4.037 -1.1500 -0.3936  2.5152
   85SOPE  H10Y 7958   5.587   5.834   4.038  1.3332  4.7843 -1.7541
   85SOPE  C311 7959   5.410   5.827   4.173 -1.2433  0.3349 -0.7326
   85SOPE  H11X 7960   5.356   5.732   4.153  1.1988 -2.2197  3.4538
   85SOPE  H11Y 7961   5.326   5.899   4.186 -0.9920  0.0728  4.1695
   85SOPE  C312 7962   5.504   5.827   4.286  0.1611  0.1784 -0.6263
   85SOPE  H12X 7963   5.545   5.930   4.300 -1.1897  0.6702 -0.1247
   85SOPE  H12Y 7964   5.594   5.764   4.268  2.5212  2.6621  1.4667
   85SOPE  C313 7965   5.433   5.782   4.418  0.6738 -0.4892  0.1362
   85SOPE  H13X 7966   5.415   5.673   4.411  0.4593 -0.4639  0.2972
   85SOPE  H13Y 7967   5.339   5.841   4.426  1.1911  0.3323  0.2852
   85SOPE  C314 7968   5.521   5.812   4.541  0.2245  0.4601 -0.0577
   85SOPE  H14X 7969   5.543   5.921   4.546 -0.8437  0.6448  1.5063
   85SOPE  H14Y 7970   5.613   5.750   4.535 -0.0322  0.1441 -0.8811
   85SOPE  C315 7971   5.457   5.782   4.678 -0.7998 -0.4802  0.0176
   85SOPE  H15X 7972   5.408   5.682   4.673 -1.2700 -0.4094  2.2140
   85SOPE  H15Y 7973   5.376   5.857   4.686  1.3129  2.2419 -2.1112
   85SOPE  C316 7974   5.554   5.788   4.798 -0.5495 -0.0932  0.4358
   85SOPE  H16X 7975   5.485   5.804   4.883 -0.0712  2.5770  0.4172
   85SOPE  H16Y 7976   5.612   5.883   4.786 -2.1179  0.6903 -1.6620
   85SOPE  C317 7977   5.646   5.664   4.810 -0.1126  0.1131  0.0249
   85SOPE  H17X 7978   5.690   5.635   4.712  0.7275 -0.9655  0.6985
   85SOPE  H17Y 7979   5.601   5.571   4.851  0.6645  0.0021  0.6331
   85SOPE  C318 7980   5.773   5.696   4.891 -0.6841 -0.6812 -0.2545
   85SOPE  H18X 7981   5.753   5.773   4.969  0.1842  1.4589 -2.0427
   85SOPE  H18Y 7982   5.848   5.747   4.828 -0.6267  3.1592  2.5380
   85SOPE  H18Z 7983   5.816   5.603   4.932  0.4961 -1.5829 -3.2792
   86SOPE     N 7984   1.828   2.769   2.597  0.0538 -0.0267  0.2787
   86SOPE   HN1 7985   1.923   2.743   2.565  0.9998 -0.5290  3.2520
   86SOPE   HN2 7986   1.836   2.861   2.645  0.7666  0.8996 -1.5045
   86SOPE   HN3 7987   1.784   2.696   2.656  1.2920  0.0318  1.3003
   86SOPE   C12 7988   1.730   2.779   2.484 -0.2621 -0.7654  0.7215
   86SOPE  H12A 7989   1.774   2.842   2.404 -0.4901 -0.2122  1.0181
   86SOPE  H12B 7990   1.644   2.837   2.525 -0.5414 -0.5608 -0.1453
   86SOPE   C11 7991   1.670   2.648   2.436 -0.5628 -0.3360 -0.2733
   86SOPE  H11A 7992   1.751   2.584   2.393 -0.0992 -0.7209  1.1215
   86SOPE  H11B 7993   1.593   2.678   2.362 -1.4419  1.5007  1.3290
   86SOPE     P 7994   1.491   2.516   2.569  0.1626 -0.2913 -0.1666
   86SOPE   O13 7995   1.468   2.407   2.464 -0.6415 -0.1929 -0.1006
   86SOPE   O14 7996   1.407   2.641   2.570 -0.3138  0.1103 -0.2618
   86SOPE   O12 7997   1.633   2.573   2.546 -0.1162 -0.1929  0.3711
   86SOPE   O11 7998   1.493   2.454   2.711 -0.1008  0.8948  0.2291
   86SOPE    C1 7999   1.558   2.503   2.832 -0.2939  0.7712  0.6655
   86SOPE    HA 8000   1.598   2.607   2.829  0.7617  0.3597 -0.2080
   86SOPE    HB 8001   1.650   2.446   2.854 -1.2902 -0.9884  0.4618
   86SOPE    C2 8002   1.455   2.505   2.950 -0.1201 -0.6502 -0.0276
   86SOPE    HS 8003   1.471   2.589   3.020 -1.5206 -0.4617  0.1085
   86SOPE   O21 8004   1.469   2.376   3.017  0.2233  0.5553 -0.4735
   86SOPE   C21 8005   1.436   2.380   3.150 -0.7615 -0.2187 -0.2393
   86SOPE   O22 8006   1.394   2.479   3.204  0.0453  0.0688  0.1535
   86SOPE   C22 8007   1.457   2.241   3.214 -0.3844 -0.1138  0.1219
   86SOPE   H2R 8008   1.545   2.195   3.164  1.3527  0.0679  2.8049
   86SOPE   H2S 8009   1.361   2.196   3.181 -0.5559 -0.7888  1.5064
   86SOPE    C3 8010   1.305   2.505   2.900  0.4054 -0.1858  0.8639
   86SOPE    HX 8011   1.298   2.419   2.830 -2.2197 -1.4447  2.5243
   86SOPE    HY 8012   1.292   2.587   2.826 -0.9084 -0.2476  1.0037
   86SOPE   O31 8013   1.197   2.511   2.993 -0.2206 -0.2889 -0.0578
   86SOPE   C31 8014   1.177   2.632   3.046  1.2712 -0.1703  0.2315
   86SOPE   O32 8015   1.233   2.735   3.029  0.0473 -0.4024  0.4098
   86SOPE   C32 8016   1.060   2.611   3.152  0.9703 -0.1186  0.4695
   86SOPE   H2X 8017   1.114   2.616   3.249 -1.2363 -0.6199  1.8095
   86SOPE   H2Y 8018   1.039   2.502   3.141 -0.0859  0.0384  0.7657
   86SOPE   C23 8019   1.472   2.235   3.370  0.4656 -0.3085  0.1986
   86SOPE   H3R 8020   1.405   2.304   3.426  0.4841  0.5894 -0.8636
   86SOPE   H3S 8021   1.572   2.268   3.406  0.7483 -1.2796  0.3168
   86SOPE   C24 8022   1.448   2.093   3.418 -0.4710 -0.1449  0.0170
   86SOPE   H4R 8023   1.340   2.074   3.401 -0.1671 -0.9224 -1.1898
   86SOPE   H4S 8024   1.502   2.019   3.356 -2.4199  0.0314 -2.0347
   86SOPE   C25 8025   1.490   2.069   3.563  0.0604 -0.5384  0.3110
   86SOPE   H5R 8026   1.470   1.964   3.591 -0.6391  0.0640  2.2214
   86SOPE   H5S 8027   1.593   2.097   3.593  0.1983  0.6338 -1.1221
   86SOPE   C26 8028   1.388   2.147   3.660  0.3078 -0.1941  0.1271
   86SOPE   H6R 8029   1.414   2.255   3.671 -1.4703  0.1120  1.8567
   86SOPE   H6S 8030   1.291   2.137   3.606 -0.3282  1.6993  0.8389
   86SOPE   C27 8031   1.387   2.096   3.801 -0.5629 -0.6931  0.8245
   86SOPE   H7R 8032   1.315   2.165   3.849 -0.9434 -0.0980 -0.5469
   86SOPE   H7S 8033   1.336   1.997   3.801 -0.4697 -0.7449 -0.0373
   86SOPE   C28 8034   1.519   2.081   3.868  0.5695 -0.0967  0.6423
   86SOPE   H8R 8035   1.512   2.017   3.959 -1.3932  0.4758  0.9457
   86SOPE   H8S 8036   1.602   2.044   3.804 -1.0562 -1.2776 -0.8724
   86SOPE   C29 8037   1.556   2.215   3.920  0.3812 -0.0727  0.4163
   86SOPE   H91 8038   1.590   2.282   3.840  2.0062 -0.3381  0.8405
   86SOPE  C210 8039   1.579   2.258   4.049  0.9760  0.3281 -0.3522
   86SOPE  H101 8040   1.634   2.353   4.052  2.4260 -0.4016 -1.5965
   86SOPE  C211 8041   1.574   2.184   4.181  0.2631 -0.0445 -0.4383
   86SOPE  H11R 8042   1.601   2.077   4.171  0.9298  0.0315  0.5035
   86SOPE  H11S 8043   1.475   2.195   4.231  0.5982 -1.1211  0.4867
   86SOPE  C212 8044   1.674   2.239   4.279  0.0598  0.1202 -0.1937
   86SOPE  H12R 8045   1.632   2.334   4.319  0.2290 -0.7093  2.1586
   86SOPE  H12S 8046   1.764   2.256   4.216  0.4646  0.1404  0.3703
   86SOPE  C213 8047   1.705   2.150   4.403  0.0610 -0.2578 -0.2858
   86SOPE  H13R 8048   1.798   2.192   4.448  0.0321 -0.3245 -0.1645
   86SOPE  H13S 8049   1.709   2.042   4.375  0.5341 -1.3512  3.4961
   86SOPE  C214 8050   1.589   2.163   4.506 -0.0428 -0.8153  0.3580
   86SOPE  H14R 8051   1.504   2.128   4.443  0.6316 -0.8378 -0.5468
   86SOPE  H14S 8052   1.573   2.272   4.525  1.0145 -0.3439 -1.3158
   86SOPE  C215 8053   1.614   2.085   4.637  0.0726 -0.0166  0.3459
   86SOPE  H15R 8054   1.714   2.097   4.684  0.9658 -2.1278 -0.8891
   86SOPE  H15S 8055   1.588   1.981   4.611 -0.9865 -0.0060  1.2672
   86SOPE  C216 8056   1.504   2.139   4.738  0.3842  0.1935  0.1864
   86SOPE  H16R 8057   1.404   2.133   4.691  1.1921 -3.1629 -1.3857
   86SOPE  H16S 8058   1.537   2.244   4.757  0.2673  0.4254 -0.8201
   86SOPE  C217 8059   1.504   2.050   4.863 -0.2849  0.5501 -0.3058
   86SOPE  H17R 8060   1.460   2.110   4.945  1.3926  1.7488 -0.2277
   86SOPE  H17S 8061   1.613   2.045   4.884 -0.1881 -1.2832 -1.0447
   86SOPE  C218 8062   1.442   1.909   4.841  0.0939 -0.6387 -0.7145
   86SOPE  H18R 8063   1.477   1.844   4.758  0.8689 -1.0115 -0.1100
   86SOPE  H18S 8064   1.334   1.917   4.815  0.0492 -0.2667 -0.4288
   86SOPE  H18T 8065   1.449   1.844   4.931  0.7437 -3.6749 -2.7931
   86SOPE   C33 8066   0.934   2.701   3.134 -0.5990 -0.2122  0.4184
   86SOPE   H3X 8067   0.876   2.663   3.047 -0.3765  0.0060  0.1712
   86SOPE   H3Y 8068   0.968   2.806   3.122 -1.0768 -0.2549 -1.8522
   86SOPE   C34 8069   0.840   2.706   3.257 -0.3032 -0.1862  0.5185
   86SOPE   H4X 8070   0.748   2.758   3.222 -0.0111 -0.6259 -0.9485
   86SOPE   H4Y 8071   0.888   2.753   3.346  0.5086 -2.0239  1.1041
   86SOPE   C35 8072   0.790   2.566   3.309 -0.3807 -0.6494 -0.7057
   86SOPE   H5X 8073   0.882   2.517   3.345  2.2113  2.5035 -2.4795
   86SOPE   H5Y 8074   0.744   2.517   3.220 -0.6160  2.1347 -2.2327
   86SOPE   C36 8075   0.689   2.574   3.428 -0.3693 -0.0289  0.1066
   86SOPE   H6X 8076   0.676   2.466   3.451 -1.3922  0.1282  0.3253
   86SOPE   H6Y 8077   0.589   2.614   3.399 -0.8805 -0.9859  0.4969
   86SOPE   C37 8078   0.741   2.642   3.556  0.8258 -0.6873  0.2118
   86SOPE   H7X 8079   0.738   2.752   3.540  3.5385 -0.5968 -0.0514
   86SOPE   H7Y 8080   0.846   2.611   3.574  0.3596 -2.4951  0.0483
   86SOPE   C38 8081   0.657   2.607   3.685  0.1955  0.1887  0.2527
   86SOPE   H8X 8082   0.642   2.497   3.677 -1.4557  0.3021  1.2760
   86SOPE   H8Y 8083   0.551   2.632   3.662 -0.3002 -1.9810 -0.0878
   86SOPE   C39 8084   0.710   2.650   3.821  1.3151 -0.8496  0.2451
   86SOPE   H9X 8085   0.718   2.760   3.806 -1.3349 -0.7148 -0.6734
   86SOPE   H9Y 8086   0.813   2.609   3.830  1.2415 -1.5503 -1.5852
   86SOPE  C310 8087   0.624   2.616   3.947  0.1187 -0.4886  1.0706
   86SOPE  H10X 8088   0.596   2.512   3.923 -0.3236 -0.3901  1.1612
   86SOPE  H10Y 8089   0.530   2.675   3.954 -0.7558 -1.1168 -2.8331
   86SOPE  C311 8090   0.694   2.638   4.085 -0.5352 -0.5997  0.3047
   86SOPE  H11X 8091   0.803   2.627   4.067 -0.3492  0.1566  0.9036
   86SOPE  H11Y 8092   0.665   2.564   4.162  2.2313 -3.6078 -1.2723
   86SOPE  C312 8093   0.663   2.778   4.136 -0.1722 -0.1587  0.1910
   86SOPE  H12X 8094   0.569   2.769   4.194 -0.6236  1.6553 -0.2039
   86SOPE  H12Y 8095   0.641   2.849   4.054 -1.1743 -0.3925  0.2478
   86SOPE  C313 8096   0.773   2.829   4.231 -0.2775 -0.1960 -0.1628
   86SOPE  H13X 8097   0.762   2.935   4.262 -0.3582  0.2292 -1.6084
   86SOPE  H13Y 8098   0.871   2.821   4.181  1.0733 -0.9676  2.4151
   86SOPE  C314 8099   0.775   2.752   4.359 -0.3901 -0.0699 -0.7356
   86SOPE  H14X 8100   0.808   2.648   4.337  0.3715  0.0883 -0.3746
   86SOPE  H14Y 8101   0.674   2.754   4.406  1.2762 -1.6609  3.4212
   86SOPE  C315 8102   0.866   2.808   4.472  0.0418 -0.5830  0.6417
   86SOPE  H15X 8103   0.822   2.905   4.503  0.6992 -1.2525  4.0483
   86SOPE  H15Y 8104   0.975   2.811   4.448 -0.4875 -1.3396 -2.2916
   86SOPE  C316 8105   0.872   2.722   4.600  1.3743 -0.3280 -1.2620
   86SOPE  H16X 8106   0.902   2.620   4.566  2.2643 -0.4298 -0.2089
   86SOPE  H16Y 8107   0.771   2.709   4.646  2.6919  0.5307  2.1535
   86SOPE  C317 8108   0.967   2.787   4.699 -0.4475  1.1635 -0.0670
   86SOPE  H17X 8109   0.924   2.878   4.746 -0.3706 -0.2621  3.0513
   86SOPE  H17Y 8110   1.065   2.810   4.652  0.7992 -2.0453  0.6824
   86SOPE  C318 8111   1.005   2.694   4.819 -0.0069  0.4291  0.0547
   86SOPE  H18X 8112   0.922   2.695   4.891  0.1625  0.9144  0.2493
   86SOPE  H18Y 8113   1.097   2.718   4.877  0.2640 -2.2833  0.8843
   86SOPE  H18Z 8114   1.012   2.590   4.779  3.0781  0.7258 -0.4317
   87SOPE     N 8115   1.752   0.440   2.343  0.7200  0.3643 -0.2308
   87SOPE   HN1 8116   1.741   0.512   2.269  2.1508  2.6103  1.6291
   87SOPE   HN2 8117   1.719   0.348   2.306  0.4408  1.0453 -1.7330
   87SOPE   HN3 8118   1.687   0.468   2.418 -0.6808  0.0790 -1.2893
   87SOPE   C12 8119   1.896   0.427   2.376  0.6025  0.4578  0.7733
   87SOPE  H12A 8120   1.950   0.515   2.337  0.8585  0.5301  1.2770
   87SOPE  H12B 8121   1.937   0.340   2.321 -0.8355 -0.0715  0.5063
   87SOPE   C11 8122   1.918   0.417   2.527 -0.1848  0.4846 -0.5470
   87SOPE  H11A 8123   2.028   0.420   2.541 -0.2644 -3.3404  2.3605
   87SOPE  H11B 8124   1.885   0.321   2.571 -1.1414  0.6749 -0.8246
   87SOPE     P 8125   1.717   0.518   2.670  0.0948  0.6406 -0.2901
   87SOPE   O13 8126   1.607   0.493   2.574  0.7423  0.3090  0.7592
   87SOPE   O14 8127   1.699   0.641   2.745  0.2384  0.2031 -0.3800
   87SOPE   O12 8128   1.850   0.526   2.594 -0.2914  0.3988 -0.0156
   87SOPE   O11 8129   1.729   0.394   2.768 -0.6754  0.1449  0.4357
   87SOPE    C1 8130   1.780   0.410   2.899 -0.9313  0.3490  0.3932
   87SOPE    HA 8131   1.762   0.322   2.963 -1.1039  0.1031  0.0134
   87SOPE    HB 8132   1.713   0.484   2.948 -2.2595 -0.9149  0.5349
   87SOPE    C2 8133   1.930   0.444   2.914 -0.7422 -0.5908  0.4880
   87SOPE    HS 8134   1.952   0.533   2.851 -0.2282  0.5941  2.2707
   87SOPE   O21 8135   1.992   0.331   2.854  0.1458  0.1817 -0.1186
   87SOPE   C21 8136   2.121   0.341   2.838  0.3630  0.2867 -0.1364
   87SOPE   O22 8137   2.181   0.447   2.840  0.3971 -0.3673  0.1940
   87SOPE   C22 8138   2.184   0.210   2.809  0.5701  0.3296 -0.5469
   87SOPE   H2R 8139   2.212   0.226   2.702  0.2638  1.5633 -0.4583
   87SOPE   H2S 8140   2.107   0.130   2.815 -1.0486  1.6894 -2.1368
   87SOPE    C3 8141   1.977   0.467   3.056  0.5120  0.1992  0.0647
   87SOPE    HX 8142   2.079   0.510   3.055 -0.0176  1.4900 -0.5738
   87SOPE    HY 8143   1.985   0.372   3.112  1.3023  1.0778  1.5160
   87SOPE   O31 8144   1.894   0.568   3.111 -0.0178 -0.3610 -0.1177
   87SOPE   C31 8145   1.847   0.548   3.233  0.0903 -0.3183 -0.1179
   87SOPE   O32 8146   1.880   0.459   3.309 -0.0718  0.4457 -0.4097
   87SOPE   C32 8147   1.741   0.656   3.260  0.6576 -0.5787 -0.5796
   87SOPE   H2X 8148   1.673   0.665   3.172  0.2181  0.6494 -0.1296
   87SOPE   H2Y 8149   1.785   0.757   3.268  0.4325 -0.5716  0.8461
   87SOPE   C23 8150   2.314   0.185   2.895  0.5519 -0.0784 -0.5608
   87SOPE   H3R 8151   2.393   0.262   2.886  0.6418  0.0298  0.9030
   87SOPE   H3S 8152   2.352   0.085   2.867  0.2034 -0.5421  0.5433
   87SOPE   C24 8153   2.287   0.188   3.047  0.5317 -0.0016 -0.0678
   87SOPE   H4R 8154   2.386   0.158   3.089 -0.4055 -1.2125  1.3692
   87SOPE   H4S 8155   2.261   0.293   3.068 -0.1634 -0.4580  1.4871
   87SOPE   C25 8156   2.177   0.101   3.097 -0.0983  0.8842 -0.1402
   87SOPE   H5R 8157   2.080   0.153   3.080 -2.7443 -3.6268 -0.6167
   87SOPE   H5S 8158   2.177   0.002   3.047  1.8542  0.0632  1.3561
   87SOPE   C26 8159   2.186   0.086   3.245 -0.3949  0.1911 -1.4701
   87SOPE   H6R 8160   2.138  -0.008   3.278 -0.8937  0.9363  0.0370
   87SOPE   H6S 8161   2.291   0.080   3.282 -0.2815  2.0139 -1.3795
   87SOPE   C27 8162   2.135   0.202   3.327 -0.1767  0.8693 -0.0933
   87SOPE   H7R 8163   2.183   0.297   3.294 -0.2939  1.5378  1.5557
   87SOPE   H7S 8164   2.029   0.210   3.295 -0.0916 -0.9698 -0.9129
   87SOPE   C28 8165   2.152   0.184   3.486  0.0874  0.1863 -0.0620
   87SOPE   H8R 8166   2.080   0.110   3.524 -1.1379  1.1746 -0.3874
   87SOPE   H8S 8167   2.256   0.157   3.514  1.2093  1.0249 -2.9973
   87SOPE   C29 8168   2.112   0.321   3.539 -0.9469 -0.9000  0.2005
   87SOPE   H91 8169   2.096   0.406   3.472  1.0008 -0.5275  0.1602
   87SOPE  C210 8170   2.097   0.336   3.674 -0.3246 -0.0850  0.0155
   87SOPE  H101 8171   2.079   0.439   3.710  0.2057 -0.3089  0.9521
   87SOPE  C211 8172   2.108   0.226   3.791  0.5335 -0.7474 -0.0754
   87SOPE  H11R 8173   2.201   0.165   3.784  1.2289  0.0352  1.7823
   87SOPE  H11S 8174   2.021   0.157   3.789  1.4310 -1.9866  1.2829
   87SOPE  C212 8175   2.118   0.277   3.933  0.0992  0.6783  0.3644
   87SOPE  H12R 8176   2.210   0.326   3.974 -0.6316  1.4730  1.0917
   87SOPE  H12S 8177   2.101   0.178   3.981  0.3965 -2.5513 -5.3459
   87SOPE  C213 8178   1.996   0.358   3.984 -0.3169  0.1717 -0.1861
   87SOPE  H13R 8179   1.908   0.348   3.917  0.0918  1.0142 -0.8635
   87SOPE  H13S 8180   2.013   0.468   3.977 -1.6885  0.3225 -2.0507
   87SOPE  C214 8181   1.961   0.319   4.129  0.8633  0.7792 -0.2323
   87SOPE  H14R 8182   2.057   0.329   4.183  0.6212  0.3407  0.2814
   87SOPE  H14S 8183   1.931   0.213   4.117  0.5990  0.9624 -1.3045
   87SOPE  C215 8184   1.843   0.394   4.192 -0.3641 -0.2808 -0.3828
   87SOPE  H15R 8185   1.750   0.360   4.141 -0.7221 -0.1119  0.1474
   87SOPE  H15S 8186   1.860   0.503   4.189 -5.5515  0.7532 -0.9537
   87SOPE  C216 8187   1.827   0.360   4.344 -0.7315  0.1300  0.0377
   87SOPE  H16R 8188   1.920   0.340   4.402  0.7957 -0.5754 -2.4876
   87SOPE  H16S 8189   1.777   0.261   4.346 -1.8989  0.5759 -2.7483
   87SOPE  C217 8190   1.749   0.469   4.422  0.4273 -0.3196  1.1917
   87SOPE  H17R 8191   1.649   0.484   4.376  1.0474  4.6072  0.9283
   87SOPE  H17S 8192   1.797   0.568   4.405  1.0773 -0.9829 -1.1535
   87SOPE  C218 8193   1.748   0.446   4.567  0.4445  0.7749 -0.2414
   87SOPE  H18R 8194   1.715   0.342   4.589  0.8601  0.7061  0.0756
   87SOPE  H18S 8195   1.665   0.493   4.624 -0.2105 -0.8181  0.1604
   87SOPE  H18T 8196   1.849   0.461   4.609  1.5770 -0.9883 -2.1256
   87SOPE   C33 8197   1.656   0.638   3.384  0.0999  0.2632  0.6139
   87SOPE   H3X 8198   1.625   0.533   3.405  0.2524 -0.0781 -0.7948
   87SOPE   H3Y 8199   1.564   0.694   3.358  1.0197  1.1762 -0.8123
   87SOPE   C34 8200   1.706   0.705   3.512  0.3898 -0.1944 -0.3124
   87SOPE   H4X 8201   1.731   0.811   3.490 -1.6823  0.3304 -0.3974
   87SOPE   H4Y 8202   1.803   0.666   3.550  1.2904  1.7588 -0.4627
   87SOPE   C35 8203   1.606   0.677   3.621  0.2770  0.0535  0.0658
   87SOPE   H5X 8204   1.579   0.569   3.621 -3.6918  0.8586 -0.7556
   87SOPE   H5Y 8205   1.508   0.715   3.585  2.0663  2.4468 -2.6502
   87SOPE   C36 8206   1.654   0.719   3.760  0.3198 -0.0291  0.6196
   87SOPE   H6X 8207   1.685   0.825   3.761 -0.1138  0.1009  0.8736
   87SOPE   H6Y 8208   1.744   0.666   3.797 -0.4791 -1.9735 -0.0704
   87SOPE   C37 8209   1.535   0.706   3.865 -0.2039  0.2966  0.4877
   87SOPE   H7X 8210   1.467   0.622   3.840  2.2422 -1.4143 -0.9212
   87SOPE   H7Y 8211   1.476   0.799   3.852 -1.2213 -0.3979  0.0233
   87SOPE   C38 8212   1.589   0.688   4.007 -0.9511 -0.0297 -0.1144
   87SOPE   H8X 8213   1.656   0.599   4.009 -0.0916  0.6022  0.1865
   87SOPE   H8Y 8214   1.508   0.670   4.081 -0.8001 -0.1011  0.0350
   87SOPE   C39 8215   1.675   0.810   4.061 -0.0548 -0.7800  0.1141
   87SOPE   H9X 8216   1.615   0.902   4.048  2.4223  0.7306 -1.4377
   87SOPE   H9Y 8217   1.761   0.808   3.991  0.2772 -0.1309  0.4889
   87SOPE  C310 8218   1.725   0.793   4.205 -0.5707  0.1149 -0.1186
   87SOPE  H10X 8219   1.759   0.687   4.192  1.5786  0.7782 -0.3179
   87SOPE  H10Y 8220   1.636   0.773   4.267 -1.0690 -1.0207 -1.1447
   87SOPE  C311 8221   1.827   0.889   4.251  0.5364 -0.2592  0.2014
   87SOPE  H11X 8222   1.779   0.984   4.283  0.5300  1.2021 -3.6470
   87SOPE  H11Y 8223   1.900   0.908   4.170  0.1281 -0.3206 -0.1789
   87SOPE  C312 8224   1.913   0.828   4.363  0.0289  0.4797  0.5009
   87SOPE  H12X 8225   1.954   0.727   4.342  1.4290  1.4429 -1.7502
   87SOPE  H12Y 8226   1.848   0.809   4.451  0.2107 -2.7266  0.0349
   87SOPE  C313 8227   2.021   0.917   4.410  0.1331 -0.6736  0.7557
   87SOPE  H13X 8228   2.000   1.015   4.361 -0.3032 -1.0305  0.2217
   87SOPE  H13Y 8229   2.112   0.878   4.361  1.2886  1.3879  1.1376
   87SOPE  C314 8230   2.039   0.911   4.568  0.0171  0.0779  0.6917
   87SOPE  H14X 8231   2.051   0.803   4.591  0.4277  0.1907  1.0192
   87SOPE  H14Y 8232   1.945   0.935   4.620  0.5985  2.5236  0.7421
   87SOPE  C315 8233   2.151   1.008   4.612  0.3364  0.5421 -0.5392
   87SOPE  H15X 8234   2.138   1.110   4.568 -1.2796  0.4179 -0.3883
   87SOPE  H15Y 8235   2.246   0.968   4.570 -0.4062 -1.2475 -0.5859
   87SOPE  C316 8236   2.146   1.023   4.763  0.7385  0.0898  0.2873
   87SOPE  H16X 8237   2.182   0.931   4.813 -0.9812 -0.4722  0.5534
   87SOPE  H16Y 8238   2.042   1.047   4.792  0.1059 -1.3407 -0.6579
   87SOPE  C317 8239   2.260   1.121   4.806 -0.0428  0.4640  0.2597
   87SOPE  H17X 8240   2.248   1.219   4.755 -0.5326 -0.5618 -1.6946
   87SOPE  H17Y 8241   2.357   1.082   4.768  0.5636  2.2260 -0.1314
   87SOPE  C318 8242   2.271   1.133   4.959  0.2364  0.0736  0.2346
   87SOPE  H18X 8243   2.370   1.169   4.994 -0.8884 -0.0167  3.8960
   87SOPE  H18Y 8244   2.247   1.037   5.009 -0.9167  0.3294  0.2141
   87SOPE  H18Z 8245   2.194   1.204   4.996  0.4231 -0.1509  1.0710
   88SOPE     N 8246   2.642   0.889   2.562 -0.3253 -0.5180 -0.2710
   88SOPE   HN1 8247   2.719   0.863   2.497  0.0824  0.9711 -0.4272
   88SOPE   HN2 8248   2.563   0.942   2.520 -0.4622  1.5251  2.3086
   88SOPE   HN3 8249   2.692   0.946   2.633 -0.6405 -0.4116 -0.1314
   88SOPE   C12 8250   2.598   0.748   2.605 -0.1876  0.1659  0.0418
   88SOPE  H12A 8251   2.521   0.749   2.686  1.1399  0.4163  1.3443
   88SOPE  H12B 8252   2.687   0.691   2.638 -2.8155 -2.6602  2.9341
   88SOPE   C11 8253   2.535   0.681   2.484 -0.1553  0.3879 -0.1596
   88SOPE  H11A 8254   2.525   0.574   2.512  0.6681  0.3289 -0.0713
   88SOPE  H11B 8255   2.603   0.685   2.397 -2.3447 -1.2400 -2.0542
   88SOPE     P 8256   2.285   0.646   2.473  0.0466  0.2365  0.4123
   88SOPE   O13 8257   2.311   0.508   2.424 -0.6511 -0.5523 -0.0442
   88SOPE   O14 8258   2.163   0.708   2.424  0.0802 -0.1102 -0.5537
   88SOPE   O12 8259   2.414   0.741   2.441 -0.0179 -0.3453  0.0347
   88SOPE   O11 8260   2.283   0.652   2.630 -0.0497  0.5049 -0.1724
   88SOPE    C1 8261   2.175   0.733   2.696 -0.4891  0.3421  0.4287
   88SOPE    HA 8262   2.164   0.693   2.799  0.3222  1.8145  1.1141
   88SOPE    HB 8263   2.076   0.720   2.646  0.0887  2.0790 -1.2938
   88SOPE    C2 8264   2.224   0.878   2.720 -0.3544  0.5344  0.3108
   88SOPE    HS 8265   2.251   0.922   2.621 -1.3559  1.8030  0.5812
   88SOPE   O21 8266   2.342   0.864   2.803 -0.1022 -0.1592 -0.3065
   88SOPE   C21 8267   2.398   0.982   2.849 -0.4330 -0.5515 -0.0927
   88SOPE   O22 8268   2.380   1.094   2.805 -0.1723  0.0123 -0.3451
   88SOPE   C22 8269   2.490   0.936   2.958  0.6216 -0.7325  0.4182
   88SOPE   H2R 8270   2.584   0.901   2.910  1.5495  0.0196  1.6194
   88SOPE   H2S 8271   2.447   0.846   3.007  0.1496 -0.7279  0.0126
   88SOPE    C3 8272   2.109   0.971   2.768  0.0904  0.1571  0.6585
   88SOPE    HX 8273   2.023   0.963   2.698  0.7258 -0.5026 -0.0731
   88SOPE    HY 8274   2.146   1.075   2.753 -2.0022  0.5356 -3.5905
   88SOPE   O31 8275   2.060   0.928   2.894  0.1822 -0.0797  0.0513
   88SOPE   C31 8276   2.090   1.008   2.993 -0.1868 -0.4796 -0.5688
   88SOPE   O32 8277   2.151   1.109   2.980 -0.1880 -0.0090 -0.3949
   88SOPE   C32 8278   2.044   0.942   3.123 -0.1934 -0.1179  0.1883
   88SOPE   H2X 8279   1.971   0.860   3.110 -1.1445  0.7490 -0.0945
   88SOPE   H2Y 8280   1.982   1.021   3.170  0.2065  1.6679 -2.0911
   88SOPE   C23 8281   2.514   1.044   3.067 -0.2546  0.2087  0.1040
   88SOPE   H3R 8282   2.415   1.081   3.099 -0.9288 -1.4971  0.1100
   88SOPE   H3S 8283   2.582   1.127   3.037 -0.4705  0.8349  1.2686
   88SOPE   C24 8284   2.567   0.976   3.199  0.4001  0.4005  0.1426
   88SOPE   H4R 8285   2.508   0.884   3.221 -1.0831  0.9673 -1.2724
   88SOPE   H4S 8286   2.675   0.952   3.190  0.7330  1.4679  1.0220
   88SOPE   C25 8287   2.558   1.062   3.322  0.2813 -0.0634  0.3748
   88SOPE   H5R 8288   2.613   1.158   3.305 -1.6732  0.7245 -2.2112
   88SOPE   H5S 8289   2.456   1.099   3.346 -0.8891 -2.8054 -0.0315
   88SOPE   C26 8290   2.592   0.978   3.452  0.0484  0.3330  0.0893
   88SOPE   H6R 8291   2.524   0.890   3.450 -0.6529  0.8440 -2.4629
   88SOPE   H6S 8292   2.697   0.943   3.455 -0.0964 -0.0918  0.1558
   88SOPE   C27 8293   2.566   1.057   3.583 -0.7803 -0.3269 -0.0377
   88SOPE   H7R 8294   2.639   1.140   3.594  0.5823 -1.2191 -1.8618
   88SOPE   H7S 8295   2.460   1.091   3.579 -1.5565 -2.6163 -1.2319
   88SOPE   C28 8296   2.579   0.970   3.712  0.3862 -0.4577 -0.5363
   88SOPE   H8R 8297   2.500   0.892   3.719  0.2517 -0.3807 -1.1740
   88SOPE   H8S 8298   2.676   0.915   3.717  0.2297 -0.8892 -1.9889
   88SOPE   C29 8299   2.571   1.042   3.842 -0.2662  0.0463  0.8406
   88SOPE   H91 8300   2.568   1.149   3.819  0.9593 -0.4375 -1.9032
   88SOPE  C210 8301   2.559   1.001   3.968  0.0449  0.1620 -0.4845
   88SOPE  H101 8302   2.552   1.081   4.043  1.7594  1.6320 -1.7789
   88SOPE  C211 8303   2.527   0.859   4.005  0.0361  0.0365  0.6396
   88SOPE  H11R 8304   2.534   0.796   3.914 -2.3599  0.4560  0.0879
   88SOPE  H11S 8305   2.417   0.860   4.025 -0.4461  0.5479 -1.6861
   88SOPE  C212 8306   2.610   0.805   4.121 -0.0303 -0.3425  0.2843
   88SOPE  H12R 8307   2.716   0.796   4.091 -0.6408  0.9125 -2.5415
   88SOPE  H12S 8308   2.575   0.701   4.138 -1.5972  0.3325  1.5731
   88SOPE  C213 8309   2.593   0.877   4.255 -0.2281 -0.5148 -0.1190
   88SOPE  H13R 8310   2.509   0.824   4.305 -1.2478 -0.9249 -2.1881
   88SOPE  H13S 8311   2.558   0.982   4.247 -0.2178 -0.5249 -0.2940
   88SOPE  C214 8312   2.724   0.891   4.341 -0.1469  0.1228  1.0727
   88SOPE  H14R 8313   2.810   0.906   4.273 -0.3850 -3.1006 -0.0980
   88SOPE  H14S 8314   2.747   0.798   4.398  4.5879  1.7639  2.2864
   88SOPE  C215 8315   2.725   1.011   4.441  0.1297  0.1105  0.8024
   88SOPE  H15R 8316   2.700   1.103   4.383  0.3862 -0.2216  0.1537
   88SOPE  H15S 8317   2.827   1.018   4.485  0.9221 -1.8302 -0.5883
   88SOPE  C216 8318   2.625   1.001   4.556  0.2215  0.1940 -0.4658
   88SOPE  H16R 8319   2.523   0.987   4.513  0.0709  1.1287 -0.4377
   88SOPE  H16S 8320   2.633   1.094   4.616  0.3788 -0.6809  0.9278
   88SOPE  C217 8321   2.664   0.882   4.652 -0.5652 -0.7667  0.4851
   88SOPE  H17R 8322   2.762   0.851   4.611 -0.6260  0.4048 -0.6105
   88SOPE  H17S 8323   2.590   0.801   4.637 -1.9622  0.5014  0.3860
   88SOPE  C218 8324   2.683   0.938   4.794  0.0011  0.4792 -0.3496
   88SOPE  H18R 8325   2.788   0.975   4.805 -0.3100  0.7682  2.5690
   88SOPE  H18S 8326   2.667   0.860   4.871 -0.0960  1.4992  0.6886
   88SOPE  H18T 8327   2.615   1.019   4.828 -2.4749 -1.6856  0.1040
   88SOPE   C33 8328   2.155   0.896   3.215  0.6783 -0.9918 -0.0243
   88SOPE   H3X 8329   2.230   0.975   3.237  0.4759 -1.0587  0.9388
   88SOPE   H3Y 8330   2.224   0.828   3.160  0.3069 -1.3075 -0.1029
   88SOPE   C34 8331   2.098   0.824   3.342  0.6598 -0.3205 -0.2430
   88SOPE   H4X 8332   2.028   0.743   3.313 -0.9698  0.7476  0.5588
   88SOPE   H4Y 8333   2.046   0.901   3.404 -0.9020  0.7254 -2.7166
   88SOPE   C35 8334   2.222   0.756   3.413 -0.2841  0.6653  0.0824
   88SOPE   H5X 8335   2.299   0.835   3.423 -0.2983  0.4248  3.1837
   88SOPE   H5Y 8336   2.252   0.663   3.360 -0.7532 -0.4158  1.6289
   88SOPE   C36 8337   2.189   0.721   3.557  0.7432 -0.5011 -0.3456
   88SOPE   H6X 8338   2.262   0.658   3.612 -1.3346 -3.1985 -0.4101
   88SOPE   H6Y 8339   2.104   0.649   3.562  1.9152 -1.8464  1.4050
   88SOPE   C37 8340   2.154   0.839   3.648 -0.8170  0.4608 -0.3010
   88SOPE   H7X 8341   2.093   0.921   3.604 -0.7897  1.6214  1.7093
   88SOPE   H7Y 8342   2.254   0.884   3.666  0.9975 -2.9283 -1.0843
   88SOPE   C38 8343   2.095   0.792   3.784  0.9160 -0.1003  0.5141
   88SOPE   H8X 8344   2.010   0.728   3.752  0.1932  1.1368 -0.1130
   88SOPE   H8Y 8345   2.038   0.867   3.843  0.4629 -0.0750  0.0457
   88SOPE   C39 8346   2.187   0.702   3.873 -0.7528  0.2483  0.5312
   88SOPE   H9X 8347   2.290   0.734   3.849 -0.4238 -1.4077 -0.4631
   88SOPE   H9Y 8348   2.181   0.596   3.839 -2.1910  0.1594  0.9811
   88SOPE  C310 8349   2.157   0.716   4.019 -0.4729  0.3412 -0.5181
   88SOPE  H10X 8350   2.052   0.689   4.041  0.3478 -2.7399  0.1038
   88SOPE  H10Y 8351   2.173   0.814   4.069 -1.3262  0.0289  0.3840
   88SOPE  C311 8352   2.254   0.621   4.091  0.6354  0.0664  0.4246
   88SOPE  H11X 8353   2.355   0.663   4.071  0.3034  2.0008  2.3216
   88SOPE  H11Y 8354   2.236   0.528   4.033  1.4698 -0.6166  1.2314
   88SOPE  C312 8355   2.221   0.586   4.236  0.4085  0.9260 -0.4234
   88SOPE  H12X 8356   2.230   0.475   4.237  2.7733  1.0596 -0.7785
   88SOPE  H12Y 8357   2.118   0.620   4.261  1.6694  3.3364  2.0549
   88SOPE  C313 8358   2.311   0.652   4.334  0.1180  0.0083 -0.6055
   88SOPE  H13X 8359   2.296   0.762   4.331  2.1447  0.3879  1.1082
   88SOPE  H13Y 8360   2.420   0.650   4.312 -0.0273  0.2293 -1.3966
   88SOPE  C314 8361   2.258   0.627   4.473 -0.0819  0.5408 -0.2553
   88SOPE  H14X 8362   2.236   0.518   4.479 -1.6461  0.7574 -1.4149
   88SOPE  H14Y 8363   2.155   0.668   4.482 -1.3621 -1.8478 -2.8328
   88SOPE  C315 8364   2.349   0.672   4.589  0.3392  0.3231  0.6495
   88SOPE  H15X 8365   2.358   0.782   4.581 -1.8865  0.5467  0.7527
   88SOPE  H15Y 8366   2.453   0.633   4.578  0.1188  0.1874 -1.3770
   88SOPE  C316 8367   2.300   0.636   4.725  0.8280 -0.1231 -0.4834
   88SOPE  H16X 8368   2.192   0.611   4.736  0.8354  0.9393  3.4303
   88SOPE  H16Y 8369   2.314   0.726   4.787  1.5940  1.6308 -3.0490
   88SOPE  C317 8370   2.387   0.532   4.792  0.5887 -0.3209  0.7630
   88SOPE  H17X 8371   2.492   0.556   4.767  0.9078 -1.3540  1.0694
   88SOPE  H17Y 8372   2.374   0.441   4.729 -0.4693  1.1237 -1.2045
   88SOPE  C318 8373   2.359   0.511   4.942  0.4133  0.2005  0.1248
   88SOPE  H18X 8374   2.377   0.596   5.011  0.1489  0.2649  0.1161
   88SOPE  H18Y 8375   2.420   0.427   4.982  0.8145  0.2292 -0.4067
   88SOPE  H18Z 8376   2.252   0.485   4.959  0.7321 -2.1501 -1.0670
   89SAPC     N 8377   0.959   6.381   7.678  0.3304 -0.3911 -0.1694
   89SAPC   C12 8378   0.928   6.385   7.527 -0.1231 -1.2449  0.2542
   89SAPC  H12A 8379   0.871   6.296   7.501 -2.5938  0.8698 -2.1910
   89SAPC  H12B 8380   1.011   6.385   7.458 -2.0669  2.9619 -2.4743
   89SAPC   C13 8381   0.835   6.411   7.759 -0.4784 -0.5080 -0.2320
   89SAPC  H13A 8382   0.856   6.393   7.863 -0.9030  1.4917  0.2406
   89SAPC  H13B 8383   0.812   6.516   7.746 -1.3669 -0.5258  1.0010
   89SAPC  H13C 8384   0.747   6.357   7.728 -1.1623  0.5580 -0.2047
   89SAPC   C14 8385   1.016   6.246   7.710  0.9374  0.8678  0.0942
   89SAPC  H14A 8386   1.089   6.218   7.634  0.6943  0.6441 -0.0579
   89SAPC  H14B 8387   1.048   6.244   7.813  0.5026 -0.7016  0.2276
   89SAPC  H14C 8388   0.947   6.165   7.698 -1.0706  2.3873  0.8731
   89SAPC   C15 8389   1.065   6.484   7.714  0.0848 -0.5507 -0.1133
   89SAPC  H15A 8390   1.162   6.468   7.668 -0.0699  0.9360 -1.0383
   89SAPC  H15B 8391   1.021   6.574   7.675 -2.3060 -0.7407  1.9068
   89SAPC  H15C 8392   1.080   6.498   7.820  2.6538 -0.9241 -0.3579
   89SAPC   C11 8393   0.845   6.510   7.472  0.4240  0.2929 -0.8712
   89SAPC  H11A 8394   0.847   6.499   7.361 -1.3040  1.9667 -1.1149
   89SAPC  H11B 8395   0.886   6.612   7.486 -2.0752  1.2399  0.0812
   89SAPC     P 8396   0.600   6.597   7.492  0.2338 -0.3718  0.2264
   89SAPC   O13 8397   0.474   6.530   7.529 -0.2671  0.3162  0.2144
   89SAPC   O14 8398   0.626   6.726   7.554 -0.1781 -0.0939 -0.3252
   89SAPC   O12 8399   0.715   6.501   7.526 -1.2209  0.0549 -0.0232
   89SAPC   O11 8400   0.606   6.607   7.337  0.8326 -0.0725  0.4281
   89SAPC    C1 8401   0.512   6.549   7.245 -0.8423  0.3287 -0.0150
   89SAPC    HA 8402   0.406   6.567   7.275 -1.6948 -1.9852 -1.3511
   89SAPC    HB 8403   0.523   6.604   7.149 -0.6045 -1.3151 -0.9665
   89SAPC    C2 8404   0.540   6.399   7.242 -0.0788  0.2608  0.1789
   89SAPC    HS 8405   0.534   6.370   7.349 -0.7613  0.6920  0.2652
   89SAPC   O21 8406   0.669   6.374   7.192 -0.0377  0.6507 -0.2939
   89SAPC   C21 8407   0.716   6.248   7.214 -0.1279 -0.3557  0.6059
   89SAPC   O22 8408   0.659   6.165   7.284  0.3912 -0.6398  0.4247
   89SAPC   C22 8409   0.855   6.218   7.146  0.2515  0.5935 -0.1138
   89SAPC   H2R 8410   0.869   6.288   7.061  0.3101  0.5827 -0.1134
   89SAPC   H2S 8411   0.930   6.250   7.221  0.3444 -0.1095  0.1034
   89SAPC    C3 8412   0.418   6.318   7.175 -0.3313  0.3054 -0.0555
   89SAPC    HX 8413   0.330   6.359   7.228 -1.9295 -3.4215  0.5023
   89SAPC    HY 8414   0.428   6.211   7.203 -1.1038  0.5477  1.2032
   89SAPC   O31 8415   0.413   6.349   7.030 -0.0098 -0.4344  0.3292
   89SAPC   C31 8416   0.430   6.237   6.956  0.1380 -0.1534  0.1877
   89SAPC   O32 8417   0.439   6.123   6.993  0.2149  0.1259  0.7588
   89SAPC   C32 8418   0.436   6.296   6.807 -0.0127  0.5211  0.2374
   89SAPC   H2X 8419   0.528   6.358   6.806 -0.3592  1.0330 -1.0003
   89SAPC   H2Y 8420   0.362   6.378   6.800  1.8554  2.1691 -1.6924
   89SAPC   C23 8421   0.870   6.076   7.094 -0.4802  0.3614  0.0616
   89SAPC   H3R 8422   0.809   6.079   7.002  0.8561  0.5823 -0.8532
   89SAPC   H3S 8423   0.830   5.995   7.158 -1.5804  0.6249 -0.2733
   89SAPC   C24 8424   1.011   6.040   7.048  0.0933  0.3073 -0.3259
   89SAPC   H4R 8425   1.073   6.043   7.139  1.5905 -2.0341 -1.1640
   89SAPC   H4S 8426   1.067   6.112   6.984 -0.0225 -2.6488 -4.1059
   89SAPC   C25 8427   1.019   5.899   6.984  0.1377  0.8968 -0.6324
   89SAPC   H5R 8428   1.056   5.819   7.049 -0.1198 -1.7851 -3.5321
   89SAPC   C26 8429   0.988   5.863   6.856  0.4613  0.3571 -0.8825
   89SAPC   H6R 8430   0.988   5.757   6.829  0.6471 -0.4403  1.9243
   89SAPC   C27 8431   0.939   5.957   6.753  0.1339 -0.6113 -0.6433
   89SAPC   H7R 8432   1.004   5.943   6.665  0.2336 -0.3669 -0.6098
   89SAPC   H7S 8433   0.947   6.065   6.779 -1.1475 -0.2823 -1.5166
   89SAPC   C28 8434   0.798   5.923   6.718  0.2206  0.1228 -0.1341
   89SAPC   H8R 8435   0.733   5.909   6.806 -0.8856 -0.8614 -1.0711
   89SAPC   C29 8436   0.748   5.892   6.595  0.0221 -1.1287 -0.1158
   89SAPC   H9R 8437   0.642   5.865   6.588 -0.3620  0.4019 -0.4323
   89SAPC  C210 8438   0.840   5.898   6.472 -0.5372 -0.4714 -1.5532
   89SAPC  H10R 8439   0.913   5.824   6.510 -1.3374 -1.1469 -1.3171
   89SAPC  H10S 8440   0.886   6.000   6.478  0.9459 -1.1902  1.9326
   89SAPC  C211 8441   0.777   5.843   6.346  0.3387 -0.6353 -0.2636
   89SAPC  H11R 8442   0.667   5.837   6.345  0.1448  1.9058 -1.7680
   89SAPC  C212 8443   0.839   5.783   6.241  0.0671 -0.2504 -0.1271
   89SAPC  H12R 8444   0.772   5.753   6.160 -2.8632  0.9407  1.6991
   89SAPC  C213 8445   0.991   5.775   6.212  0.2396 -0.0125 -0.1347
   89SAPC  H13R 8446   1.015   5.695   6.139 -0.4501 -1.8764  1.5665
   89SAPC  H13S 8447   1.048   5.743   6.302 -1.9086  0.2904  1.3973
   89SAPC  C214 8448   1.043   5.908   6.160 -0.3975  0.7957  0.2058
   89SAPC  H14R 8449   1.059   5.982   6.240  1.7095  0.3078  0.2719
   89SAPC  C215 8450   1.072   5.948   6.031 -0.0078 -0.1838  0.0022
   89SAPC  H15R 8451   1.110   6.050   6.016 -0.4900 -0.1175 -0.8207
   89SAPC  C216 8452   1.060   5.860   5.909  0.0469  0.2161 -0.0718
   89SAPC  H16R 8453   1.051   5.754   5.943  1.8765  0.5865  1.7582
   89SAPC  H16S 8454   1.153   5.883   5.854  1.8714 -2.1983  1.7479
   89SAPC  C217 8455   0.938   5.904   5.829  0.7142  0.5330  0.2830
   89SAPC  H17R 8456   0.944   6.009   5.792  1.7319  1.0481  1.8338
   89SAPC  H17S 8457   0.844   5.906   5.888 -1.1478  3.2821 -2.4306
   89SAPC  C218 8458   0.906   5.816   5.698 -0.1935  1.2155  0.1328
   89SAPC  H18R 8459   0.804   5.835   5.659 -0.2433  0.0512 -0.3504
   89SAPC  H18S 8460   0.917   5.709   5.729 -0.4874  0.5869 -1.7798
   89SAPC  C219 8461   1.007   5.848   5.588  0.1745 -0.0655 -0.2950
   89SAPC  H19R 8462   1.106   5.805   5.616  0.9424 -0.3106 -3.0473
   89SAPC  H19S 8463   1.017   5.958   5.585  1.7931 -0.2035 -1.3676
   89SAPC  C220 8464   0.991   5.792   5.441 -0.4311 -0.1482 -0.1686
   89SAPC  H20R 8465   0.907   5.838   5.385 -0.8766  0.1571  0.7263
   89SAPC  H20S 8466   0.954   5.688   5.451 -2.8886  0.8394  2.4343
   89SAPC  H20T 8467   1.091   5.795   5.394  0.3302  1.3232  1.4218
   89SAPC   C33 8468   0.409   6.197   6.693 -0.2290 -0.6684 -0.4104
   89SAPC   H3X 8469   0.306   6.161   6.716 -1.0633  1.9175  0.1979
   89SAPC   H3Y 8470   0.471   6.105   6.696  1.1342  0.1996 -1.1059
   89SAPC   C34 8471   0.408   6.259   6.553 -0.1247  0.5843 -0.4597
   89SAPC   H4X 8472   0.486   6.339   6.558  1.8262 -1.2632  0.4294
   89SAPC   H4Y 8473   0.315   6.308   6.516  0.6982  1.3665 -1.5593
   89SAPC   C35 8474   0.450   6.156   6.452 -0.6425  0.5944 -0.0488
   89SAPC   H5X 8475   0.403   6.056   6.449 -0.6980  0.6384 -1.8400
   89SAPC   H5Y 8476   0.554   6.125   6.477 -1.6533 -3.1372 -0.0331
   89SAPC   C36 8477   0.439   6.210   6.305 -0.6426  0.3984 -0.2518
   89SAPC   H6X 8478   0.491   6.308   6.297  1.5033 -0.7595 -1.5023
   89SAPC   H6Y 8479   0.333   6.234   6.284 -0.8559  1.2265  1.5277
   89SAPC   C37 8480   0.507   6.117   6.200 -0.0433  0.0895 -0.0569
   89SAPC   H7X 8481   0.467   6.014   6.213  1.8797 -0.6431  0.2565
   89SAPC   H7Y 8482   0.616   6.129   6.211 -0.4050  2.9144  1.3507
   89SAPC   C38 8483   0.487   6.170   6.054 -0.1602 -0.6846  0.2379
   89SAPC   H8X 8484   0.528   6.273   6.048 -1.0001 -0.3754 -0.5809
   89SAPC   H8Y 8485   0.377   6.168   6.039 -0.6748  2.2837  2.6355
   89SAPC   C39 8486   0.571   6.093   5.952  0.0400  0.6723 -0.1920
   89SAPC   H9X 8487   0.522   5.993   5.961  0.2406  0.7142  1.9679
   89SAPC   H9Y 8488   0.678   6.089   5.983 -0.3363  0.7440  1.1992
   89SAPC  C310 8489   0.559   6.157   5.809 -0.6995  0.8184  0.1958
   89SAPC  H10X 8490   0.598   6.260   5.819 -0.0634  0.7557 -1.3508
   89SAPC  H10Y 8491   0.454   6.179   5.777 -0.1175  3.9347  0.1466
   89SAPC  C311 8492   0.639   6.089   5.694 -0.2993 -0.8904 -0.2625
   89SAPC  H11X 8493   0.585   6.001   5.651  2.9151 -2.3455 -1.6832
   89SAPC  H11Y 8494   0.733   6.052   5.740  0.6229  1.3436 -0.2511
   89SAPC  C312 8495   0.656   6.179   5.576  0.0462 -0.5452 -0.6877
   89SAPC  H12X 8496   0.699   6.276   5.606  1.7719 -0.5480 -2.8819
   89SAPC  H12Y 8497   0.557   6.205   5.533 -0.5091 -2.6402 -0.7981
   89SAPC  C313 8498   0.734   6.104   5.474  0.3275 -0.1821  0.3483
   89SAPC  H13X 8499   0.676   6.017   5.436  0.6957 -0.1623 -0.2877
   89SAPC  H13Y 8500   0.825   6.063   5.522  0.5310  1.8361  1.7698
   89SAPC  C314 8501   0.780   6.182   5.357 -0.0935 -0.4852  0.6040
   89SAPC  H14X 8502   0.855   6.124   5.300  0.8364  0.8250  0.4591
   89SAPC  H14Y 8503   0.829   6.278   5.384 -1.8579  1.4588 -2.4893
   89SAPC  C315 8504   0.681   6.217   5.243  0.4130  0.6418 -0.1102
   89SAPC  H15X 8505   0.594   6.280   5.273  1.1275  0.4400  2.6697
   89SAPC  H15Y 8506   0.650   6.114   5.216  2.8331 -0.6437  1.6000
   89SAPC  C316 8507   0.760   6.283   5.134  0.5255  0.0385  0.5212
   89SAPC  H16X 8508   0.839   6.208   5.111  0.1971 -0.6086  1.4209
   89SAPC  H16Y 8509   0.798   6.381   5.170  0.3615 -0.5585  2.4721
   89SAPC  C317 8510   0.660   6.304   5.021 -0.4301  0.0239  0.0813
   89SAPC  H17X 8511   0.613   6.206   4.996 -0.2204  0.1398 -0.7737
   89SAPC  H17Y 8512   0.719   6.323   4.929  2.3607 -3.4587  0.9418
   89SAPC  C318 8513   0.550   6.415   5.037 -0.4467  0.3501  0.0146
   89SAPC  H18X 8514   0.495   6.438   4.944  2.0058  4.0372 -0.7014
   89SAPC  H18Y 8515   0.593   6.515   5.056 -2.4151  1.3637 -0.5644
   89SAPC  H18Z 8516   0.476   6.392   5.118 -0.6209  0.7786 -0.0229
   90SAPC     N 8517   4.684   0.376   6.924  0.1438  0.4775  0.1226
   90SAPC   C12 8518   4.682   0.240   6.848  0.1326  0.1881 -0.6605
   90SAPC  H12A 8519   4.757   0.245   6.770 -0.7579  1.7525 -1.4682
   90SAPC  H12B 8520   4.591   0.236   6.791  0.0523 -1.8669 -0.4665
   90SAPC   C13 8521   4.807   0.376   7.017  0.0894 -0.0938  0.3609
   90SAPC  H13A 8522   4.888   0.377   6.945  0.0048 -0.2336  0.2620
   90SAPC  H13B 8523   4.810   0.463   7.081 -2.4606 -0.4593  1.1003
   90SAPC  H13C 8524   4.804   0.288   7.079 -0.1600 -0.8412 -0.6896
   90SAPC   C14 8525   4.692   0.482   6.823  0.0517 -0.6974 -0.3871
   90SAPC  H14A 8526   4.622   0.483   6.740  0.4418  0.9531 -0.7373
   90SAPC  H14B 8527   4.688   0.578   6.872  0.4464 -0.3126 -1.0976
   90SAPC  H14C 8528   4.789   0.480   6.777  0.6701  2.2358  0.6250
   90SAPC   C15 8529   4.558   0.391   7.000 -0.1340 -0.0130 -0.4821
   90SAPC  H15A 8530   4.535   0.492   7.029 -0.8415  0.2458 -1.8351
   90SAPC  H15B 8531   4.471   0.368   6.940 -2.2432  1.7264  1.7241
   90SAPC  H15C 8532   4.544   0.323   7.082 -1.4001 -0.5478 -1.1033
   90SAPC   C11 8533   4.686   0.111   6.925 -0.9591 -0.2155 -0.4742
   90SAPC  H11A 8534   4.777   0.117   6.989 -2.0566  0.9864  1.0586
   90SAPC  H11B 8535   4.683   0.027   6.853  0.6795 -0.1129 -0.6930
   90SAPC     P 8536   4.426   0.063   6.942 -0.2412 -0.1654 -0.1148
   90SAPC   O13 8537   4.332   0.028   7.048 -0.0403  0.1949 -0.1667
   90SAPC   O14 8538   4.386   0.185   6.872 -0.1294  0.5633  0.5267
   90SAPC   O12 8539   4.571   0.095   7.005  0.3329 -0.0149 -0.3045
   90SAPC   O11 8540   4.437  -0.044   6.831  0.1694 -0.2105 -0.0365
   90SAPC    C1 8541   4.482  -0.177   6.860 -0.0285 -0.5398 -0.0305
   90SAPC    HA 8542   4.591  -0.183   6.842  0.3545  2.9150  0.3269
   90SAPC    HB 8543   4.450  -0.210   6.961 -2.3262  4.0687  1.0526
   90SAPC    C2 8544   4.406  -0.279   6.765 -0.6245  0.0822  0.3284
   90SAPC    HS 8545   4.442  -0.380   6.796 -1.2572 -0.0398  0.6988
   90SAPC   O21 8546   4.433  -0.257   6.626  0.2303  0.4289  0.2033
   90SAPC   C21 8547   4.553  -0.265   6.584 -0.8430 -0.0808  0.5154
   90SAPC   O22 8548   4.642  -0.316   6.651 -0.1479  0.7561  0.1695
   90SAPC   C22 8549   4.565  -0.205   6.437  0.1849  0.4890  0.3518
   90SAPC   H2R 8550   4.504  -0.271   6.371  1.0964  0.0082 -0.0326
   90SAPC   H2S 8551   4.526  -0.101   6.443  1.4656  0.9766  0.4226
   90SAPC    C3 8552   4.252  -0.278   6.776 -0.2894 -0.2238 -0.3276
   90SAPC    HX 8553   4.215  -0.181   6.736 -1.9675 -0.5873  0.2681
   90SAPC    HY 8554   4.225  -0.274   6.884  0.8928  1.5655 -0.0487
   90SAPC   O31 8555   4.195  -0.380   6.686 -0.4750  0.0033 -0.1727
   90SAPC   C31 8556   4.074  -0.361   6.640 -0.0990  0.7826  0.3809
   90SAPC   O32 8557   3.994  -0.283   6.685  0.0012 -0.2214 -0.2031
   90SAPC   C32 8558   4.048  -0.470   6.547 -0.5202 -0.1189  0.1812
   90SAPC   H2X 8559   3.996  -0.556   6.593  0.1390 -1.1979 -1.0186
   90SAPC   H2Y 8560   4.146  -0.513   6.518 -0.0385  1.9111 -1.4032
   90SAPC   C23 8561   4.708  -0.201   6.393  0.2968  0.6139 -0.2288
   90SAPC   H3R 8562   4.756  -0.302   6.389  0.1789  0.5914 -1.1000
   90SAPC   H3S 8563   4.767  -0.138   6.464  2.3233 -0.7558 -0.6153
   90SAPC   C24 8564   4.728  -0.144   6.250 -0.2734  0.4699 -0.0604
   90SAPC   H4R 8565   4.718  -0.034   6.256 -0.6220  0.4379 -0.0299
   90SAPC   H4S 8566   4.646  -0.177   6.183  0.6702 -1.3293 -0.3818
   90SAPC   C25 8567   4.857  -0.188   6.196 -0.2878 -0.2877 -0.0373
   90SAPC   H5R 8568   4.946  -0.189   6.261  0.2031  1.6727 -0.6158
   90SAPC   C26 8569   4.879  -0.247   6.078  0.2807 -0.3406 -0.1532
   90SAPC   H6R 8570   4.978  -0.276   6.042  0.8875  2.7553 -1.3175
   90SAPC   C27 8571   4.773  -0.270   5.972  0.1878 -0.3860 -0.5035
   90SAPC   H7R 8572   4.812  -0.265   5.868  2.8861 -0.8328  0.4044
   90SAPC   H7S 8573   4.691  -0.196   5.976  1.2120  0.8701 -1.8709
   90SAPC   C28 8574   4.712  -0.409   5.998  0.0611  0.0039 -0.3512
   90SAPC   H8R 8575   4.685  -0.439   6.100 -1.6956 -3.0963 -1.5872
   90SAPC   C29 8576   4.665  -0.496   5.904 -0.3141  0.3067  0.5659
   90SAPC   H9R 8577   4.627  -0.593   5.939 -1.5047  0.6986  0.4117
   90SAPC  C210 8578   4.677  -0.483   5.753  0.0779  0.0594 -0.3381
   90SAPC  H10R 8579   4.761  -0.416   5.725  0.3515 -1.1871 -2.6935
   90SAPC  H10S 8580   4.586  -0.431   5.716  0.6069 -0.0759 -1.8709
   90SAPC  C211 8581   4.692  -0.598   5.661 -0.1993  0.4673 -0.2415
   90SAPC  H11R 8582   4.648  -0.695   5.689  0.3605 -0.5700 -2.7512
   90SAPC  C212 8583   4.759  -0.604   5.548 -0.1564 -0.9395  0.6181
   90SAPC  H12R 8584   4.746  -0.698   5.493  0.8853 -0.7192 -0.0160
   90SAPC  C213 8585   4.832  -0.493   5.476  0.1896 -0.6993  0.4553
   90SAPC  H13R 8586   4.874  -0.418   5.547 -1.1124  1.6870 -1.1801
   90SAPC  H13S 8587   4.767  -0.434   5.409 -0.5594 -0.2707  1.5264
   90SAPC  C214 8588   4.941  -0.560   5.396 -0.6482 -0.2432 -0.3015
   90SAPC  H14R 8589   5.005  -0.628   5.454 -0.9471 -1.6463 -1.5678
   90SAPC  C215 8590   4.965  -0.548   5.261  0.1559  0.1387 -0.7989
   90SAPC  H15R 8591   5.051  -0.603   5.220  1.7063  1.6114  0.2867
   90SAPC  C216 8592   4.882  -0.468   5.161 -0.3949 -0.6309  0.0848
   90SAPC  H16R 8593   4.926  -0.368   5.140 -1.6866 -0.5693 -2.9082
   90SAPC  H16S 8594   4.779  -0.454   5.199 -0.7940 -1.2708 -0.7247
   90SAPC  C217 8595   4.866  -0.549   5.030 -0.7556  0.5179  0.1367
   90SAPC  H17R 8596   4.793  -0.515   4.954  3.2374  0.4748 -4.1852
   90SAPC  H17S 8597   4.825  -0.649   5.057  0.2234 -0.1318 -0.7095
   90SAPC  C218 8598   5.001  -0.563   4.950  0.5510 -0.0885  0.5856
   90SAPC  H18R 8599   5.075  -0.610   5.017  2.6770  1.7643 -0.3504
   90SAPC  H18S 8600   5.038  -0.460   4.927  1.0772 -0.2083  0.8932
   90SAPC  C219 8601   4.983  -0.644   4.818  0.5876 -0.6623  0.4946
   90SAPC  H19R 8602   4.935  -0.585   4.736  1.7107  1.7513  1.4576
   90SAPC  H19S 8603   4.920  -0.732   4.841  0.9703 -0.8507  0.8114
   90SAPC  C220 8604   5.119  -0.687   4.757  0.8107 -0.2418  0.0874
   90SAPC  H20R 8605   5.192  -0.717   4.834  0.5703 -1.2557 -0.0759
   90SAPC  H20S 8606   5.164  -0.597   4.708 -0.1091  0.4240  0.4189
   90SAPC  H20T 8607   5.095  -0.771   4.688 -0.6592  0.1351  0.0880
   90SAPC   C33 8608   3.968  -0.429   6.424  0.0757  0.0211 -0.3946
   90SAPC   H3X 8609   4.027  -0.368   6.351  0.8714 -2.7596 -2.2441
   90SAPC   H3Y 8610   3.878  -0.373   6.458  0.3604 -0.7813  1.8268
   90SAPC   C34 8611   3.921  -0.553   6.343  0.6397  0.1012 -0.4464
   90SAPC   H4X 8612   3.858  -0.628   6.395  1.7265 -1.5845 -1.4544
   90SAPC   H4Y 8613   4.011  -0.611   6.311  0.1285 -1.2979  0.5425
   90SAPC   C35 8614   3.842  -0.496   6.213  0.4896  0.0943  0.0048
   90SAPC   H5X 8615   3.894  -0.407   6.174  1.2197 -0.6449 -0.7605
   90SAPC   H5Y 8616   3.747  -0.460   6.257 -0.2032 -1.2948 -0.2736
   90SAPC   C36 8617   3.831  -0.600   6.102  0.3004  0.1396  0.1306
   90SAPC   H6X 8618   3.766  -0.684   6.136 -2.6409  2.8357  1.7070
   90SAPC   H6Y 8619   3.934  -0.639   6.085  0.1489  0.4015 -1.6161
   90SAPC   C37 8620   3.773  -0.548   5.971  0.4916  0.5770  0.1308
   90SAPC   H7X 8621   3.837  -0.463   5.938  0.9104  0.6497  1.0883
   90SAPC   H7Y 8622   3.674  -0.501   5.987  0.4366  0.3832  0.3703
   90SAPC   C38 8623   3.772  -0.655   5.867  0.4459  0.2074  0.5362
   90SAPC   H8X 8624   3.695  -0.723   5.909  0.4707 -0.4132 -0.3859
   90SAPC   H8Y 8625   3.870  -0.707   5.867  1.0686  1.3455  1.8185
   90SAPC   C39 8626   3.724  -0.609   5.728  0.3867  0.2355 -0.1118
   90SAPC   H9X 8627   3.807  -0.547   5.686 -0.7057  1.1226 -1.0080
   90SAPC   H9Y 8628   3.634  -0.546   5.743  2.8065  3.9349  0.3410
   90SAPC  C310 8629   3.693  -0.717   5.622  0.4584 -0.2128 -0.1285
   90SAPC  H10X 8630   3.604  -0.772   5.658 -1.4726  1.7632 -1.6112
   90SAPC  H10Y 8631   3.775  -0.790   5.606  2.2794  1.2255  2.0840
   90SAPC  C311 8632   3.667  -0.649   5.483 -0.1827  0.0471  0.7088
   90SAPC  H11X 8633   3.739  -0.569   5.452  0.8349 -1.5663 -1.2887
   90SAPC  H11Y 8634   3.561  -0.620   5.472 -0.8070 -2.2836  0.2961
   90SAPC  C312 8635   3.686  -0.755   5.371 -0.2243 -0.4026  0.1915
   90SAPC  H12X 8636   3.601  -0.828   5.372 -0.9674  0.2918 -2.4615
   90SAPC  H12Y 8637   3.781  -0.812   5.371  1.2457  1.7541 -2.7019
   90SAPC  C313 8638   3.684  -0.697   5.229  0.5503 -0.4482 -0.2569
   90SAPC  H13X 8639   3.755  -0.613   5.215  1.4539 -0.9413  1.1264
   90SAPC  H13Y 8640   3.580  -0.666   5.207 -0.1341 -1.9801  0.6914
   90SAPC  C314 8641   3.719  -0.802   5.126  0.8774  0.2953  0.5997
   90SAPC  H14X 8642   3.696  -0.906   5.158  0.5475 -0.3981 -1.7188
   90SAPC  H14Y 8643   3.827  -0.797   5.101  0.2239  0.8498 -2.5424
   90SAPC  C315 8644   3.650  -0.779   4.995 -1.3624 -0.5062  0.7851
   90SAPC  H15X 8645   3.645  -0.673   4.960 -0.8797 -0.5044  0.7158
   90SAPC  H15Y 8646   3.544  -0.813   5.003 -0.7217 -2.9251 -0.0554
   90SAPC  C316 8647   3.713  -0.870   4.889  0.1820  0.2257  0.5168
   90SAPC  H16X 8648   3.710  -0.973   4.929 -1.4073  0.1029  0.1716
   90SAPC  H16Y 8649   3.817  -0.833   4.877 -0.1315  0.9487 -0.1152
   90SAPC  C317 8650   3.646  -0.872   4.750  0.0113  0.6511  0.2417
   90SAPC  H17X 8651   3.706  -0.817   4.674  1.2799 -1.2958 -0.2433
   90SAPC  H17Y 8652   3.539  -0.844   4.744  0.2093  1.8173  1.7732
   90SAPC  C318 8653   3.661  -1.017   4.686 -0.1509 -0.3239 -0.9098
   90SAPC  H18X 8654   3.601  -1.094   4.738  1.7719 -0.2468  1.6039
   90SAPC  H18Y 8655   3.769  -1.044   4.692  0.5018  2.3038  1.2437
   90SAPC  H18Z 8656   3.634  -1.009   4.578  0.6602 -0.0406 -1.0978
   91SAPC     N 8657   0.521   5.330   7.450  0.2849 -0.3702 -0.0227
   91SAPC   C12 8658   0.533   5.461   7.526 -0.6406  0.3451 -0.2516
   91SAPC  H12A 8659   0.458   5.472   7.603  1.9761 -1.0649  2.6907
   91SAPC  H12B 8660   0.525   5.545   7.458 -0.9201  1.1935  0.8064
   91SAPC   C13 8661   0.379   5.341   7.387  0.2697 -0.5777 -0.3781
   91SAPC  H13A 8662   0.296   5.361   7.453  1.2989  3.4209 -0.0483
   91SAPC  H13B 8663   0.375   5.419   7.312 -1.2109 -0.7264 -0.4782
   91SAPC  H13C 8664   0.355   5.250   7.334  0.5746 -1.4849  0.9875
   91SAPC   C14 8665   0.614   5.326   7.335  0.5770 -1.0733 -0.0487
   91SAPC  H14A 8666   0.585   5.396   7.258  2.0262  2.5860  2.4616
   91SAPC  H14B 8667   0.709   5.357   7.375 -1.0699  0.3977  3.0103
   91SAPC  H14C 8668   0.624   5.225   7.297 -0.3587 -0.9154 -0.7511
   91SAPC   C15 8669   0.540   5.207   7.535  0.7886 -1.1245  0.1249
   91SAPC  H15A 8670   0.644   5.187   7.558  1.2480  0.1734 -0.7178
   91SAPC  H15B 8671   0.472   5.219   7.619  2.6607 -2.2556  1.8848
   91SAPC  H15C 8672   0.505   5.121   7.481 -0.9251 -0.4517  0.1069
   91SAPC   C11 8673   0.673   5.490   7.597  0.4041 -0.4146 -0.2685
   91SAPC  H11A 8674   0.698   5.403   7.661 -0.0560 -0.6697 -0.4311
   91SAPC  H11B 8675   0.647   5.574   7.664  1.3448  2.7534 -3.5634
   91SAPC     P 8676   0.786   5.659   7.433 -0.5297  0.0129 -0.0314
   91SAPC   O13 8677   0.675   5.738   7.483  0.0059  0.2384  0.1455
   91SAPC   O14 8678   0.926   5.715   7.438  0.0692 -0.7997 -0.1201
   91SAPC   O12 8679   0.779   5.514   7.501  0.9809  0.0726  0.2747
   91SAPC   O11 8680   0.758   5.617   7.276 -0.1242  0.1652 -0.0296
   91SAPC    C1 8681   0.866   5.565   7.198  1.0819  0.3608 -0.2524
   91SAPC    HA 8682   0.929   5.654   7.181 -0.4793  1.7536  0.9250
   91SAPC    HB 8683   0.919   5.478   7.242 -0.2737 -1.3606 -1.8318
   91SAPC    C2 8684   0.817   5.532   7.057 -0.3045  0.1358 -0.3743
   91SAPC    HS 8685   0.751   5.443   7.055  1.1638 -1.0372  1.0660
   91SAPC   O21 8686   0.935   5.511   6.980 -0.2537 -0.4177  0.3204
   91SAPC   C21 8687   0.913   5.437   6.867 -0.4999  0.9196  0.0308
   91SAPC   O22 8688   0.812   5.386   6.828  0.0260 -0.2301 -0.4450
   91SAPC   C22 8689   1.048   5.432   6.788  0.6122  0.3530  0.2050
   91SAPC   H2R 8690   1.128   5.487   6.841  1.2658  1.5010 -1.8538
   91SAPC   H2S 8691   1.078   5.325   6.787  0.7000  0.3774  0.1656
   91SAPC    C3 8692   0.720   5.645   7.005 -0.0350 -0.0954  0.9617
   91SAPC    HX 8693   0.785   5.734   7.017  1.7121 -0.7945 -2.1428
   91SAPC    HY 8694   0.630   5.666   7.065 -1.6969  1.6272 -1.8932
   91SAPC   O31 8695   0.689   5.627   6.869 -0.0285 -0.2673 -0.0780
   91SAPC   C31 8696   0.583   5.552   6.826 -0.0916 -1.1900 -0.3018
   91SAPC   O32 8697   0.516   5.483   6.898  0.2166 -0.2541  0.4388
   91SAPC   C32 8698   0.551   5.576   6.676  1.1050  0.4810  0.3909
   91SAPC   H2X 8699   0.546   5.474   6.632  0.2097  1.1355 -1.0843
   91SAPC   H2Y 8700   0.631   5.638   6.630  1.5279  0.3588  0.9513
   91SAPC   C23 8701   1.038   5.490   6.641 -0.6011  1.0429 -0.3003
   91SAPC   H3R 8702   1.140   5.458   6.611 -0.5966  1.0169 -0.2569
   91SAPC   H3S 8703   1.025   5.601   6.636 -1.9964  0.8640 -0.9854
   91SAPC   C24 8704   0.937   5.415   6.546  0.5028 -0.6005  0.1809
   91SAPC   H4R 8705   0.833   5.447   6.569  1.4648  2.1235  1.1605
   91SAPC   H4S 8706   0.937   5.309   6.576 -2.3717 -0.1941  2.0129
   91SAPC   C25 8707   0.982   5.446   6.413 -0.6447 -0.1374  0.0095
   91SAPC   H5R 8708   1.082   5.491   6.420 -0.3285 -0.5942 -1.3021
   91SAPC   C26 8709   0.912   5.425   6.297  0.5423 -0.5244 -0.4376
   91SAPC   H6R 8710   0.982   5.442   6.214  0.7942  1.2136  0.0710
   91SAPC   C27 8711   0.785   5.361   6.273  0.2722  0.0834  0.2545
   91SAPC   H7R 8712   0.731   5.439   6.217  1.3276  0.4064 -0.3440
   91SAPC   H7S 8713   0.727   5.349   6.367 -0.4226 -0.2897 -0.2162
   91SAPC   C28 8714   0.780   5.228   6.204  0.1344 -0.6670 -0.6670
   91SAPC   H8R 8715   0.820   5.143   6.262 -0.1246  1.0377  2.1882
   91SAPC   C29 8716   0.753   5.205   6.067 -0.0849 -0.1253  0.5046
   91SAPC   H9R 8717   0.747   5.104   6.026  0.3593  0.1478 -0.2441
   91SAPC  C210 8718   0.722   5.319   5.970 -0.4038  0.2072 -0.4050
   91SAPC  H10R 8719   0.676   5.399   6.032  1.6469  0.3344  1.0594
   91SAPC  H10S 8720   0.641   5.283   5.904 -1.0200 -1.3787  1.1364
   91SAPC  C211 8721   0.840   5.384   5.906 -0.0969 -0.1938  0.0693
   91SAPC  H11R 8722   0.933   5.374   5.964 -0.0240  0.3543  0.0534
   91SAPC  C212 8723   0.853   5.420   5.775 -0.2033 -0.2660 -0.3486
   91SAPC  H12R 8724   0.943   5.477   5.749  1.5185 -1.5788  2.2658
   91SAPC  C213 8725   0.746   5.420   5.670  0.2339 -0.9201 -0.0534
   91SAPC  H13R 8726   0.758   5.498   5.592 -1.6151  1.8728  2.2418
   91SAPC  H13S 8727   0.653   5.455   5.720 -0.3379 -1.7368 -0.5076
   91SAPC  C214 8728   0.724   5.276   5.615  0.2200 -0.7709  1.1508
   91SAPC  H14R 8729   0.657   5.216   5.677 -1.3311 -0.2826  0.0004
   91SAPC  C215 8730   0.784   5.234   5.503  0.7215 -0.0068 -0.1733
   91SAPC  H15R 8731   0.756   5.130   5.481 -0.1178  0.6482 -2.3891
   91SAPC  C216 8732   0.876   5.307   5.401  0.4499 -0.2493  0.0756
   91SAPC  H16R 8733   0.971   5.250   5.409  0.6337  0.2319  1.8446
   91SAPC  H16S 8734   0.909   5.407   5.437  0.2790  0.6980 -2.2330
   91SAPC  C217 8735   0.828   5.341   5.259 -0.0504  0.9672  0.3043
   91SAPC  H17R 8736   0.890   5.427   5.227 -0.5481  1.3702  0.3984
   91SAPC  H17S 8737   0.723   5.376   5.270  0.2148  1.0862  3.6449
   91SAPC  C218 8738   0.841   5.220   5.160  0.5643 -0.3519  0.0317
   91SAPC  H18R 8739   0.787   5.242   5.065 -0.3949 -0.8245  0.4494
   91SAPC  H18S 8740   0.794   5.135   5.213 -1.7049  0.9209  0.2289
   91SAPC  C219 8741   0.986   5.190   5.131 -1.1480  0.5485  0.3741
   91SAPC  H19R 8742   1.035   5.196   5.230 -0.1416  0.5093 -0.1087
   91SAPC  H19S 8743   1.030   5.267   5.064 -1.5034  0.9570  0.6089
   91SAPC  C220 8744   1.001   5.058   5.049  0.1439  0.1190  0.2220
   91SAPC  H20R 8745   0.977   4.969   5.111  2.4901 -2.9413 -2.8777
   91SAPC  H20S 8746   1.101   5.052   5.001 -0.7711 -0.2818 -1.7110
   91SAPC  H20T 8747   0.920   5.061   4.974  0.6407 -0.4242 -0.3428
   91SAPC   C33 8748   0.416   5.640   6.655 -0.2418 -0.1941  0.3272
   91SAPC   H3X 8749   0.412   5.723   6.729  0.8960  0.6483 -0.5178
   91SAPC   H3Y 8750   0.328   5.576   6.677 -2.3710  2.3489 -0.1678
   91SAPC   C34 8751   0.397   5.695   6.511 -0.2081  0.1634  0.6952
   91SAPC   H4X 8752   0.469   5.779   6.505 -1.2611  1.0243 -0.6744
   91SAPC   H4Y 8753   0.293   5.735   6.517 -0.8034 -1.3938  1.3581
   91SAPC   C35 8754   0.420   5.608   6.384 -0.3694  0.9454  0.1056
   91SAPC   H5X 8755   0.352   5.520   6.391  1.3136 -0.3373  1.2052
   91SAPC   H5Y 8756   0.522   5.562   6.385 -0.1471  1.4112 -0.5914
   91SAPC   C36 8757   0.396   5.687   6.258  0.0844  0.2726  0.5101
   91SAPC   H6X 8758   0.466   5.772   6.269  1.3256 -0.6160 -0.2003
   91SAPC   H6Y 8759   0.289   5.717   6.265 -0.4131 -1.4009  0.6565
   91SAPC   C37 8760   0.428   5.609   6.129  0.0695 -0.5731 -0.6808
   91SAPC   H7X 8761   0.375   5.512   6.123  0.8501 -0.9155 -3.4436
   91SAPC   H7Y 8762   0.536   5.586   6.141  0.1376  0.5607  1.3865
   91SAPC   C38 8763   0.405   5.699   6.012  0.0870  0.6216  0.2497
   91SAPC   H8X 8764   0.464   5.783   6.054  0.5717  0.6827 -0.5325
   91SAPC   H8Y 8765   0.304   5.740   5.986 -0.3062 -0.4817 -0.0190
   91SAPC   C39 8766   0.461   5.633   5.888  0.3546 -0.4195 -0.0780
   91SAPC   H9X 8767   0.420   5.529   5.886 -3.1834  0.7844  1.4817
   91SAPC   H9Y 8768   0.572   5.627   5.892  0.2621 -1.7823  1.3100
   91SAPC  C310 8769   0.420   5.720   5.765 -0.3912  0.6857 -0.0684
   91SAPC  H10X 8770   0.448   5.825   5.792  1.8532  0.1804 -0.1994
   91SAPC  H10Y 8771   0.310   5.716   5.757 -0.3269 -0.8029 -0.4073
   91SAPC  C311 8772   0.480   5.682   5.625  0.1783 -0.2006 -0.2208
   91SAPC  H11X 8773   0.460   5.573   5.624  1.1362 -0.3827 -0.5581
   91SAPC  H11Y 8774   0.589   5.700   5.633  0.2794 -0.9683  0.1390
   91SAPC  C312 8775   0.425   5.766   5.510  0.2115  0.2999 -0.6071
   91SAPC  H12X 8776   0.455   5.870   5.534 -1.7090  1.2435 -2.0147
   91SAPC  H12Y 8777   0.315   5.780   5.509 -0.1459 -1.9049 -2.0907
   91SAPC  C313 8778   0.466   5.726   5.369 -0.5961  0.1069  0.1406
   91SAPC  H13X 8779   0.449   5.812   5.301  2.3723 -2.2811 -4.0686
   91SAPC  H13Y 8780   0.397   5.643   5.345  0.4772 -0.3968 -1.3906
   91SAPC  C314 8781   0.609   5.673   5.326  0.2465  0.1502  0.0844
   91SAPC  H14X 8782   0.621   5.572   5.372 -0.6532  0.2417  0.5490
   91SAPC  H14Y 8783   0.678   5.740   5.381  0.2845  0.1070  0.0901
   91SAPC  C315 8784   0.627   5.673   5.175  0.0006  0.4009  0.2304
   91SAPC  H15X 8785   0.735   5.661   5.153 -0.2174  1.7112 -1.8190
   91SAPC  H15Y 8786   0.598   5.768   5.126 -0.4875  0.8280  1.3115
   91SAPC  C316 8787   0.546   5.555   5.112 -0.1729 -0.4215  0.1274
   91SAPC  H16X 8788   0.452   5.536   5.167  0.7094  2.1981  2.7822
   91SAPC  H16Y 8789   0.604   5.460   5.113  1.4768  0.5442 -0.0962
   91SAPC  C317 8790   0.505   5.584   4.965 -0.9162 -0.7128  0.0725
   91SAPC  H17X 8791   0.597   5.593   4.903  0.1814  2.1302  1.9083
   91SAPC  H17Y 8792   0.455   5.682   4.951  3.5235  1.5973 -1.7463
   91SAPC  C318 8793   0.406   5.475   4.914  0.1875 -0.4684 -0.4673
   91SAPC  H18X 8794   0.442   5.371   4.925 -0.6862 -0.5569  2.6535
   91SAPC  H18Y 8795   0.393   5.488   4.805  0.7162 -1.1337 -0.6096
   91SAPC  H18Z 8796   0.303   5.473   4.957  0.0210 -0.8324 -0.8790
   92SAPC     N 8797   2.953   3.915   7.144 -0.1674  0.4857 -0.4773
   92SAPC   C12 8798   3.056   3.813   7.088  0.2392  0.0164 -0.2655
   92SAPC  H12A 8799   3.003   3.739   7.030  1.8215  0.0821 -1.8749
   92SAPC  H12B 8800   3.101   3.760   7.171 -1.5167  1.0950  1.4748
   92SAPC   C13 8801   3.027   4.031   7.205  0.1589 -0.4357  1.2090
   92SAPC  H13A 8802   3.108   4.005   7.271  2.1203  1.6181 -0.2423
   92SAPC  H13B 8803   3.072   4.076   7.118 -0.3355 -0.9127  0.6965
   92SAPC  H13C 8804   2.970   4.115   7.243 -0.0704  1.1434 -2.2365
   92SAPC   C14 8805   2.851   3.951   7.044 -0.2200  0.4956  0.0666
   92SAPC  H14A 8806   2.780   3.873   7.022 -0.5478  0.7576  0.1851
   92SAPC  H14B 8807   2.790   4.032   7.082  0.5999  0.0190  2.5980
   92SAPC  H14C 8808   2.905   3.989   6.959  2.3270 -1.9724  0.4533
   92SAPC   C15 8809   2.889   3.840   7.260  0.1877 -0.6223 -0.2011
   92SAPC  H15A 8810   2.964   3.796   7.323 -0.8930 -0.9139  0.9357
   92SAPC  H15B 8811   2.829   3.906   7.322 -0.7987 -0.7473 -0.9995
   92SAPC  H15C 8812   2.829   3.753   7.238 -0.6936 -0.7112  2.1712
   92SAPC   C11 8813   3.164   3.872   6.991  0.4497  0.1313 -0.5233
   92SAPC  H11A 8814   3.243   3.794   6.988  0.5265  0.1406  0.7412
   92SAPC  H11B 8815   3.216   3.962   7.031 -0.8791 -0.0151  1.6748
   92SAPC     P 8816   3.128   3.788   6.751  0.1037  0.0163  0.0882
   92SAPC   O13 8817   3.224   3.840   6.651  0.0308 -1.1778  0.3855
   92SAPC   O14 8818   3.158   3.654   6.809 -0.2944 -0.2657 -0.5597
   92SAPC   O12 8819   3.104   3.901   6.857  0.2584  0.5808  0.2443
   92SAPC   O11 8820   2.991   3.778   6.680  0.4095  0.6044  0.3212
   92SAPC    C1 8821   2.892   3.882   6.662  0.5232 -0.6226 -0.0889
   92SAPC    HA 8822   2.813   3.875   6.739  0.2905  1.0579 -0.1524
   92SAPC    HB 8823   2.938   3.983   6.669 -0.8662  0.0493 -0.3010
   92SAPC    C2 8824   2.829   3.876   6.517  0.5062 -0.2788 -0.2342
   92SAPC    HS 8825   2.760   3.963   6.514 -1.0673 -1.4923 -0.9357
   92SAPC   O21 8826   2.753   3.757   6.494 -0.3480  0.3191  0.4009
   92SAPC   C21 8827   2.635   3.741   6.552 -0.3306 -0.0387 -0.1565
   92SAPC   O22 8828   2.578   3.817   6.626 -0.1227 -0.3737  0.4034
   92SAPC   C22 8829   2.573   3.611   6.497 -1.0357 -1.1231 -0.7769
   92SAPC   H2R 8830   2.595   3.522   6.561 -0.8257  0.5991  1.6749
   92SAPC   H2S 8831   2.463   3.624   6.488 -0.8733  0.9182 -0.2722
   92SAPC    C3 8832   2.951   3.881   6.413  0.4254 -0.7992 -0.1912
   92SAPC    HX 8833   2.991   3.778   6.405  0.3815 -0.8835  0.5663
   92SAPC    HY 8834   3.025   3.944   6.468 -0.2780 -1.0257  1.0558
   92SAPC   O31 8835   2.916   3.949   6.288 -0.2371 -0.2316  0.2526
   92SAPC   C31 8836   3.022   3.994   6.219  0.2705  0.9854  0.1911
   92SAPC   O32 8837   3.141   3.984   6.262 -0.2919 -0.1801  0.0937
   92SAPC   C32 8838   2.977   4.052   6.090 -0.5878 -0.6322  0.0660
   92SAPC   H2X 8839   3.061   4.037   6.020 -1.5697 -1.1212 -1.0376
   92SAPC   H2Y 8840   2.957   4.160   6.104 -0.5095 -0.6016 -0.0639
   92SAPC   C23 8841   2.621   3.590   6.349 -0.2126  0.4452 -0.8456
   92SAPC   H3R 8842   2.583   3.496   6.303  1.7666  0.2558 -2.2031
   92SAPC   H3S 8843   2.731   3.576   6.356 -0.5042 -1.5107  0.8033
   92SAPC   C24 8844   2.597   3.710   6.251  0.4549 -0.4249 -0.2666
   92SAPC   H4R 8845   2.635   3.685   6.150 -1.4395 -0.9838 -0.8868
   92SAPC   H4S 8846   2.641   3.806   6.284  0.6984 -0.0212 -1.7246
   92SAPC   C25 8847   2.443   3.716   6.242 -0.3881  0.0918 -0.4493
   92SAPC   H5R 8848   2.391   3.753   6.332 -1.9196  3.4115 -2.4935
   92SAPC   C26 8849   2.380   3.683   6.122  0.4855  0.0513 -0.0330
   92SAPC   H6R 8850   2.271   3.676   6.115  0.5098  0.0028 -0.4265
   92SAPC   C27 8851   2.446   3.645   5.986 -0.0070  1.2100 -0.3651
   92SAPC   H7R 8852   2.459   3.535   5.971 -0.2042  0.6497  2.8907
   92SAPC   H7S 8853   2.552   3.678   5.988  0.5973 -0.6337  0.0561
   92SAPC   C28 8854   2.388   3.717   5.871 -0.2533  0.7042  1.0863
   92SAPC   H8R 8855   2.289   3.763   5.887  0.3656  2.0356  1.2522
   92SAPC   C29 8856   2.434   3.717   5.748 -0.2231 -0.1780  0.5745
   92SAPC   H9R 8857   2.383   3.786   5.678  0.9405 -2.2509 -2.5237
   92SAPC  C210 8858   2.562   3.671   5.683  0.4460  0.0208 -0.0956
   92SAPC  H10R 8859   2.540   3.598   5.602 -0.6023  1.4198 -1.1044
   92SAPC  H10S 8860   2.623   3.607   5.751 -0.5082 -1.7215 -0.8028
   92SAPC  C211 8861   2.651   3.781   5.627 -0.1921 -0.3518  0.5331
   92SAPC  H11R 8862   2.646   3.877   5.681 -0.4604 -0.0305 -0.0639
   92SAPC  C212 8863   2.725   3.781   5.516  0.1544 -0.9636 -0.3416
   92SAPC  H12R 8864   2.790   3.869   5.506 -0.3117 -0.4168  1.2515
   92SAPC  C213 8865   2.727   3.676   5.413 -0.1060 -0.2590 -0.2247
   92SAPC  H13R 8866   2.652   3.712   5.340  0.1635  1.4150  0.2943
   92SAPC  H13S 8867   2.697   3.577   5.454  2.5558 -1.7246 -1.5534
   92SAPC  C214 8868   2.863   3.639   5.353  0.0051  0.3418 -0.3083
   92SAPC  H14R 8869   2.928   3.585   5.424 -0.8956  0.9762  1.0286
   92SAPC  C215 8870   2.914   3.675   5.236  0.2885  0.2555  0.1372
   92SAPC  H15R 8871   3.016   3.645   5.208  0.6592  1.1348  0.5294
   92SAPC  C216 8872   2.835   3.757   5.124 -1.0976  0.7795  0.1401
   92SAPC  H16R 8873   2.895   3.847   5.099 -0.0812  0.4933  1.4594
   92SAPC  H16S 8874   2.728   3.769   5.151 -1.5102 -1.6057 -0.1634
   92SAPC  C217 8875   2.836   3.676   4.990  0.0917  0.3574 -0.0839
   92SAPC  H17R 8876   2.732   3.684   4.951 -0.8047  1.3781  2.3013
   92SAPC  H17S 8877   2.860   3.571   5.016  0.3087  0.1357 -1.1387
   92SAPC  C218 8878   2.927   3.728   4.877 -0.3891  0.3986 -0.3947
   92SAPC  H18R 8879   3.027   3.735   4.926 -1.6052 -1.8725  2.7316
   92SAPC  H18S 8880   2.893   3.833   4.866  1.6577  1.2027  0.3940
   92SAPC  C219 8881   2.910   3.655   4.747  0.0920  0.2896 -0.6665
   92SAPC  H19R 8882   2.963   3.714   4.670  0.8480  0.5751  0.0544
   92SAPC  H19S 8883   2.805   3.659   4.711  0.2587  1.8091 -1.0253
   92SAPC  C220 8884   2.965   3.513   4.754 -0.1464 -0.6169 -0.2188
   92SAPC  H20R 8885   2.901   3.465   4.831  0.2978  0.5530  0.9095
   92SAPC  H20S 8886   3.075   3.516   4.772  0.0019 -1.6758 -0.8200
   92SAPC  H20T 8887   2.959   3.458   4.658 -0.1188  0.5537 -0.9072
   92SAPC   C33 8888   2.856   3.980   6.013  0.6403  0.1302  0.0133
   92SAPC   H3X 8889   2.767   3.999   6.076  1.9093  1.0660  1.6131
   92SAPC   H3Y 8890   2.873   3.870   6.019  2.1472  0.4086  1.3250
   92SAPC   C34 8891   2.840   4.030   5.870  0.2798  0.0021  0.5935
   92SAPC   H4X 8892   2.758   3.971   5.823 -0.0421 -0.2776  1.4951
   92SAPC   H4Y 8893   2.931   3.996   5.816 -0.4661  1.2314 -1.5359
   92SAPC   C35 8894   2.826   4.182   5.857 -0.0205  1.0342  0.8144
   92SAPC   H5X 8895   2.905   4.239   5.911  2.0606 -0.3551 -0.5892
   92SAPC   H5Y 8896   2.722   4.214   5.881 -0.5349 -0.3400  0.4815
   92SAPC   C36 8897   2.842   4.213   5.707  0.0613  0.0858 -0.0043
   92SAPC   H6X 8898   2.914   4.141   5.664 -0.5232  0.8123 -2.3594
   92SAPC   H6Y 8899   2.890   4.310   5.684 -0.2741 -0.1793 -1.9823
   92SAPC   C37 8900   2.714   4.200   5.616  0.4433 -0.1794 -0.1571
   92SAPC   H7X 8901   2.653   4.293   5.615 -1.3088 -1.2183  1.6097
   92SAPC   H7Y 8902   2.651   4.118   5.658 -0.1778 -0.3541 -1.3724
   92SAPC   C38 8903   2.749   4.188   5.470 -0.1457  0.4338  0.0629
   92SAPC   H8X 8904   2.831   4.114   5.456  2.4685  2.7835  1.8505
   92SAPC   H8Y 8905   2.786   4.284   5.428 -0.9663  1.3057  1.2618
   92SAPC   C39 8906   2.641   4.135   5.374 -0.0644 -0.6897 -0.5336
   92SAPC   H9X 8907   2.550   4.190   5.406  0.3137  0.3432 -1.1544
   92SAPC   H9Y 8908   2.622   4.026   5.379  1.0873 -0.8575  0.6729
   92SAPC  C310 8909   2.661   4.192   5.233 -0.0489  0.0109 -0.2964
   92SAPC  H10X 8910   2.767   4.193   5.199 -0.3614 -0.6558 -1.3409
   92SAPC  H10Y 8911   2.611   4.291   5.223 -3.3249 -1.4725 -0.0263
   92SAPC  C311 8912   2.593   4.113   5.121 -0.3991  0.8905 -0.2648
   92SAPC  H11X 8913   2.488   4.095   5.153 -0.5589  2.4978  0.1930
   92SAPC  H11Y 8914   2.654   4.021   5.106  0.2430  1.3634 -0.6490
   92SAPC  C312 8915   2.598   4.181   4.993  0.0267 -0.0791  0.4801
   92SAPC  H12X 8916   2.681   4.255   4.997  0.4096 -0.3858 -0.9347
   92SAPC  H12Y 8917   2.508   4.246   4.992 -0.1417 -0.3068  0.9563
   92SAPC  C313 8918   2.615   4.089   4.872 -0.8000  0.9740  0.2597
   92SAPC  H13X 8919   2.533   4.013   4.871  0.1992 -0.1645  1.1764
   92SAPC  H13Y 8920   2.713   4.038   4.886  0.2272  3.1521  1.4511
   92SAPC  C314 8921   2.621   4.165   4.741 -0.2482 -0.3993 -0.4881
   92SAPC  H14X 8922   2.613   4.089   4.660  1.7134  0.8291 -1.9241
   92SAPC  H14Y 8923   2.719   4.211   4.713  0.0256  0.2804  1.4389
   92SAPC  C315 8924   2.506   4.252   4.704  0.0236 -0.1324  0.6548
   92SAPC  H15X 8925   2.494   4.338   4.772  0.1981  0.4032  0.0207
   92SAPC  H15Y 8926   2.409   4.200   4.689 -0.8811  1.1933  1.6647
   92SAPC  C316 8927   2.549   4.322   4.568  0.8746  0.1188  0.3029
   92SAPC  H16X 8928   2.568   4.244   4.492 -0.7666  0.4625 -0.5022
   92SAPC  H16Y 8929   2.649   4.369   4.582 -0.0234  2.5048 -0.6481
   92SAPC  C317 8930   2.450   4.422   4.507 -0.2062 -0.4840  0.3474
   92SAPC  H17X 8931   2.446   4.514   4.569  0.6072  0.6577 -1.2247
   92SAPC  H17Y 8932   2.345   4.386   4.507 -0.1000 -0.8002  0.5783
   92SAPC  C318 8933   2.490   4.466   4.360 -0.2170  0.2128  0.1602
   92SAPC  H18X 8934   2.573   4.539   4.361  0.9198 -0.9243 -2.2301
   92SAPC  H18Y 8935   2.400   4.506   4.307 -0.1047 -0.3705 -0.4808
   92SAPC  H18Z 8936   2.524   4.374   4.308  1.8661  0.5228  0.8777
   93SAPC     N 8937   2.681   6.066   7.261 -0.3816 -0.4808 -0.0127
   93SAPC   C12 8938   2.573   5.972   7.304  0.4374  0.3643  0.2429
   93SAPC  H12A 8939   2.514   6.015   7.383  0.5168 -0.7963  0.9632
   93SAPC  H12B 8940   2.622   5.887   7.350  1.3022  1.0694  0.6651
   93SAPC   C13 8941   2.772   6.077   7.383  0.1227 -0.0514 -0.3757
   93SAPC  H13A 8942   2.720   6.124   7.465  0.3693  0.5771 -0.5712
   93SAPC  H13B 8943   2.790   5.977   7.419  0.6057 -0.2488 -1.1284
   93SAPC  H13C 8944   2.862   6.133   7.361  0.1948  0.8684  1.9753
   93SAPC   C14 8945   2.749   6.001   7.146  0.2105  0.1410  0.0365
   93SAPC  H14A 8946   2.707   6.042   7.055 -1.1530 -0.4512  0.3821
   93SAPC  H14B 8947   2.854   6.027   7.138  0.3003  0.3127  1.5487
   93SAPC  H14C 8948   2.740   5.894   7.141 -0.4664  0.2342 -1.4386
   93SAPC   C15 8949   2.636   6.210   7.239 -0.3461 -0.0560  0.3614
   93SAPC  H15A 8950   2.537   6.211   7.196  0.5510  1.0589 -1.8174
   93SAPC  H15B 8951   2.630   6.260   7.334 -0.1092 -1.8879  1.3889
   93SAPC  H15C 8952   2.699   6.264   7.170  0.7196  0.1115  1.4242
   93SAPC   C11 8953   2.474   5.924   7.193 -0.5885 -0.1472  0.4907
   93SAPC  H11A 8954   2.407   5.842   7.226 -1.3277 -0.3735 -1.4204
   93SAPC  H11B 8955   2.538   5.872   7.119 -0.4642 -2.3952  2.0884
   93SAPC     P 8956   2.270   6.081   7.210 -0.2873 -0.3811 -0.6640
   93SAPC   O13 8957   2.223   5.986   7.311  0.2869  0.0311  0.1976
   93SAPC   O14 8958   2.306   6.216   7.255 -0.6049 -0.3553 -0.0955
   93SAPC   O12 8959   2.394   6.031   7.129 -0.3973  0.3369 -0.0832
   93SAPC   O11 8960   2.155   6.088   7.097 -0.3182  0.0159 -0.5859
   93SAPC    C1 8961   2.164   6.171   6.985 -0.0233  0.6045 -0.3395
   93SAPC    HA 8962   2.114   6.270   6.995 -2.1866 -0.4467 -0.2150
   93SAPC    HB 8963   2.272   6.186   6.963  0.0854  1.4013  0.6614
   93SAPC    C2 8964   2.111   6.091   6.860  0.1844 -0.6195 -1.3641
   93SAPC    HS 8965   2.178   6.004   6.843  1.6489  0.6874 -2.6202
   93SAPC   O21 8966   2.098   6.173   6.747  0.3720  0.0573  0.3613
   93SAPC   C21 8967   2.214   6.219   6.689  0.2002  0.7590 -0.5324
   93SAPC   O22 8968   2.325   6.189   6.733  0.1405  0.2872  0.2337
   93SAPC   C22 8969   2.188   6.283   6.551 -0.2940  0.5420  0.3971
   93SAPC   H2R 8970   2.276   6.302   6.486 -0.0592  1.0134  0.8398
   93SAPC   H2S 8971   2.135   6.203   6.494  0.6523  0.1088  0.1047
   93SAPC    C3 8972   1.971   6.025   6.875  0.5899 -0.2617 -0.0158
   93SAPC    HX 8973   1.898   6.105   6.898  0.2584 -1.1580  2.3794
   93SAPC    HY 8974   1.973   5.962   6.967  2.8857 -0.7139 -0.3071
   93SAPC   O31 8975   1.932   5.951   6.759 -0.1037 -0.2132  0.6343
   93SAPC   C31 8976   1.978   5.823   6.758  0.2750  0.1953 -0.1852
   93SAPC   O32 8977   2.028   5.767   6.853  0.0309  0.0785  0.2162
   93SAPC   C32 8978   1.956   5.758   6.625  0.0377 -0.1413 -0.9979
   93SAPC   H2X 8979   2.021   5.822   6.560  1.0774  0.9329  1.0139
   93SAPC   H2Y 8980   1.849   5.768   6.598 -0.3151  1.3523  0.7557
   93SAPC   C23 8981   2.098   6.407   6.575 -0.4080  0.0498 -0.3473
   93SAPC   H3R 8982   2.134   6.471   6.658 -1.7369  0.5705 -0.1394
   93SAPC   H3S 8983   1.993   6.376   6.592 -0.3400 -1.2743 -2.0320
   93SAPC   C24 8984   2.107   6.506   6.457  0.1954  1.0990 -0.2913
   93SAPC   H4R 8985   2.211   6.542   6.444  1.6402 -2.3077  0.8458
   93SAPC   H4S 8986   2.047   6.596   6.483 -0.4846  0.4493  0.4441
   93SAPC   C25 8987   2.062   6.429   6.330  1.0221  0.2190  0.5660
   93SAPC   H5R 8988   1.968   6.372   6.336  0.7612  0.5697 -0.1969
   93SAPC   C26 8989   2.124   6.426   6.209  0.4933  0.0240  0.3073
   93SAPC   H6R 8990   2.071   6.384   6.123  1.8882  0.9688 -1.0705
   93SAPC   C27 8991   2.255   6.491   6.176 -0.7625 -0.3170  0.0675
   93SAPC   H7R 8992   2.309   6.523   6.268 -0.5563 -0.5727  0.0374
   93SAPC   H7S 8993   2.244   6.585   6.117  0.0574  0.0653  0.5007
   93SAPC   C28 8994   2.348   6.397   6.096 -0.5067 -0.1729  0.2847
   93SAPC   H8R 8995   2.412   6.327   6.152 -0.7551  0.0851  0.9071
   93SAPC   C29 8996   2.351   6.400   5.962 -0.5214 -0.0965  0.7761
   93SAPC   H9R 8997   2.430   6.348   5.907 -0.8057 -0.1869  0.4466
   93SAPC  C210 8998   2.266   6.489   5.869  0.3732  0.0533 -0.2392
   93SAPC  H10R 8999   2.339   6.563   5.829  0.8486 -0.1831  0.1884
   93SAPC  H10S 9000   2.179   6.534   5.922  0.5591 -1.7485  1.7160
   93SAPC  C211 9001   2.216   6.397   5.759 -0.3062  0.2008 -0.1446
   93SAPC  H11R 9002   2.142   6.325   5.796  1.5438 -0.1213  3.4153
   93SAPC  C212 9003   2.254   6.395   5.631  0.0798 -0.1079  0.2166
   93SAPC  H12R 9004   2.201   6.326   5.565 -2.9376  2.1375  0.0953
   93SAPC  C213 9005   2.352   6.481   5.555 -0.3840  0.4569 -0.0315
   93SAPC  H13R 9006   2.425   6.414   5.504  1.7984  2.4264  0.3536
   93SAPC  H13S 9007   2.413   6.555   5.611 -1.2154  1.4872 -0.4718
   93SAPC  C214 9008   2.289   6.565   5.445  0.2525 -0.5151 -0.0665
   93SAPC  H14R 9009   2.180   6.574   5.452  0.2685 -1.1360  1.3805
   93SAPC  C215 9010   2.356   6.624   5.341 -0.8520  0.3196  0.6231
   93SAPC  H15R 9011   2.303   6.696   5.277 -1.5755 -0.4366  0.3469
   93SAPC  C216 9012   2.505   6.612   5.320  0.1197  0.4992 -0.2479
   93SAPC  H16R 9013   2.545   6.569   5.415 -2.0124  0.7443  0.8320
   93SAPC  H16S 9014   2.549   6.714   5.314  0.6690  0.2213 -1.1239
   93SAPC  C217 9015   2.548   6.537   5.192 -0.1125  0.6889  0.3367
   93SAPC  H17R 9016   2.544   6.429   5.220  0.1115 -0.1388 -2.4633
   93SAPC  H17S 9017   2.657   6.541   5.170  0.2657  1.6292  2.2212
   93SAPC  C218 9018   2.476   6.584   5.067  0.0378  0.1431  0.8348
   93SAPC  H18R 9019   2.470   6.694   5.058  1.4442  0.1610 -0.1189
   93SAPC  H18S 9020   2.373   6.546   5.082 -0.8761  2.0608 -0.2588
   93SAPC  C219 9021   2.535   6.530   4.944  0.6955 -0.1512 -0.1431
   93SAPC  H19R 9022   2.585   6.432   4.959  1.3717 -0.4369 -3.4234
   93SAPC  H19S 9023   2.606   6.606   4.904 -0.9759  0.7064 -1.6641
   93SAPC  C220 9024   2.425   6.514   4.836  0.0315  0.0728  0.2999
   93SAPC  H20R 9025   2.378   6.613   4.818  1.4201  0.5473 -0.8870
   93SAPC  H20S 9026   2.333   6.460   4.869 -0.8257  0.7389 -0.8920
   93SAPC  H20T 9027   2.467   6.484   4.738  0.9129 -0.8866  0.9517
   93SAPC   C33 9028   2.008   5.614   6.616 -0.2171  0.6226  0.0152
   93SAPC   H3X 9029   1.989   5.554   6.707  5.0154  1.2620  1.8665
   93SAPC   H3Y 9030   2.117   5.601   6.598 -0.1125  1.4108  0.0495
   93SAPC   C34 9031   1.930   5.544   6.507 -0.4054  0.0893  0.1038
   93SAPC   H4X 9032   1.823   5.550   6.534  0.1785 -1.2831  3.2135
   93SAPC   H4Y 9033   1.944   5.434   6.510 -1.2057 -0.0060  0.7903
   93SAPC   C35 9034   1.962   5.592   6.364 -0.4922 -0.2954  0.1477
   93SAPC   H5X 9035   2.064   5.561   6.331  0.3508  0.5994  1.7937
   93SAPC   H5Y 9036   1.958   5.703   6.360  0.3563 -0.2866 -1.5208
   93SAPC   C36 9037   1.875   5.542   6.254  0.5675  0.2223  0.3906
   93SAPC   H6X 9038   1.768   5.559   6.275 -0.2105 -1.9251 -1.4413
   93SAPC   H6Y 9039   1.900   5.434   6.252  0.3843  0.1873 -0.0639
   93SAPC   C37 9040   1.915   5.593   6.121  0.2321  0.2420  0.4777
   93SAPC   H7X 9041   1.904   5.510   6.048 -0.3785  0.6487  0.0999
   93SAPC   H7Y 9042   2.020   5.628   6.132  1.2501 -2.1413 -0.9449
   93SAPC   C38 9043   1.834   5.714   6.067 -0.0046  0.7732  0.5160
   93SAPC   H8X 9044   1.855   5.799   6.135  0.8532  1.4948 -0.6086
   93SAPC   H8Y 9045   1.728   5.684   6.067  0.9119 -3.0809  2.1933
   93SAPC   C39 9046   1.865   5.744   5.920  0.7522 -0.0226  0.3453
   93SAPC   H9X 9047   1.933   5.672   5.869  0.6777 -1.0414  1.6567
   93SAPC   H9Y 9048   1.921   5.838   5.942 -0.8240  0.3164  3.4998
   93SAPC  C310 9049   1.735   5.776   5.839 -0.0952  0.0147  0.6893
   93SAPC  H10X 9050   1.682   5.856   5.894  0.0970  0.9172 -0.4144
   93SAPC  H10Y 9051   1.675   5.682   5.836  0.1399 -0.1678  1.4504
   93SAPC  C311 9052   1.750   5.833   5.695 -0.8804  0.3125 -0.7338
   93SAPC  H11X 9053   1.815   5.922   5.710  0.2442 -0.5489 -0.3953
   93SAPC  H11Y 9054   1.644   5.850   5.665 -1.0035  0.3824 -0.2692
   93SAPC  C312 9055   1.815   5.740   5.596 -0.0156  0.3647  0.2982
   93SAPC  H12X 9056   1.747   5.656   5.571  0.0526  0.4744 -0.2724
   93SAPC  H12Y 9057   1.904   5.690   5.641 -1.2192 -0.7420  1.5254
   93SAPC  C313 9058   1.850   5.800   5.465 -0.7152 -0.8526  0.3560
   93SAPC  H13X 9059   1.913   5.737   5.399  0.6553 -0.0884  0.8866
   93SAPC  H13Y 9060   1.915   5.890   5.476 -1.6129  0.1876 -2.1224
   93SAPC  C314 9061   1.737   5.847   5.374  0.8525 -0.2977  0.3056
   93SAPC  H14X 9062   1.672   5.920   5.426  0.5091 -1.6451  1.8271
   93SAPC  H14Y 9063   1.670   5.761   5.352 -0.8195  1.2530 -0.9989
   93SAPC  C315 9064   1.783   5.911   5.244 -0.9194  0.1346  0.2365
   93SAPC  H15X 9065   1.845   5.840   5.185  0.7911 -0.0711  2.1954
   93SAPC  H15Y 9066   1.837   6.008   5.254 -0.5973  0.3670 -2.7811
   93SAPC  C316 9067   1.661   5.938   5.154  0.7357  0.3893 -0.0888
   93SAPC  H16X 9068   1.597   6.015   5.201 -0.4067 -0.3544 -0.3951
   93SAPC  H16Y 9069   1.611   5.840   5.147  0.0960  0.5665  1.5519
   93SAPC  C317 9070   1.701   5.987   5.016  0.0853  0.2707 -0.2047
   93SAPC  H17X 9071   1.610   5.992   4.954 -0.3675 -2.1509  0.1399
   93SAPC  H17Y 9072   1.753   5.902   4.966  1.6155  1.8475 -1.4124
   93SAPC  C318 9073   1.776   6.116   4.994 -0.6078  0.3751 -0.2881
   93SAPC  H18X 9074   1.794   6.130   4.886  0.2161  0.6187 -0.1221
   93SAPC  H18Y 9075   1.876   6.113   5.043 -1.6947 -1.4214  2.0808
   93SAPC  H18Z 9076   1.715   6.199   5.036 -3.3959 -0.9514 -1.4543
   94SAPC     N 9077   1.419   3.472   6.942 -1.0642  0.0851  0.1251
   94SAPC   C12 9078   1.491   3.357   6.887 -0.8759  0.0797 -0.0057
   94SAPC  H12A 9079   1.441   3.304   6.806  0.6221  1.1668 -1.7285
   94SAPC  H12B 9080   1.511   3.283   6.963  0.0049 -0.9909 -1.2305
   94SAPC   C13 9081   1.281   3.427   6.979 -0.8668 -0.3660 -0.3988
   94SAPC  H13A 9082   1.220   3.394   6.896 -0.3827  0.4141 -1.0800
   94SAPC  H13B 9083   1.286   3.343   7.047 -2.1167  1.3275  1.9227
   94SAPC  H13C 9084   1.227   3.503   7.033 -2.4428  0.1536 -2.5992
   94SAPC   C14 9085   1.490   3.522   7.067  0.5982 -0.1562  0.1326
   94SAPC  H14A 9086   1.435   3.602   7.114  1.3687  1.5421 -1.6868
   94SAPC  H14B 9087   1.515   3.441   7.133  1.5947 -0.4327 -0.5568
   94SAPC  H14C 9088   1.587   3.566   7.052  0.8913 -0.6721  0.4787
   94SAPC   C15 9089   1.398   3.583   6.849 -0.1087 -0.0856  0.7625
   94SAPC  H15A 9090   1.338   3.659   6.896 -1.0493  0.5379 -1.2993
   94SAPC  H15B 9091   1.492   3.611   6.804  0.4342 -0.4012  1.6804
   94SAPC  H15C 9092   1.335   3.558   6.764 -1.3451  1.9312  1.0237
   94SAPC   C11 9093   1.633   3.383   6.829 -0.4082  0.4173 -0.4609
   94SAPC  H11A 9094   1.611   3.460   6.752 -0.9210  0.4687 -0.2705
   94SAPC  H11B 9095   1.677   3.299   6.771  1.2907  0.0457  1.2850
   94SAPC     P 9096   1.783   3.323   7.046  0.0457 -0.0921  0.0777
   94SAPC   O13 9097   1.872   3.401   7.128 -0.0314  0.6479  0.0844
   94SAPC   O14 9098   1.675   3.244   7.114 -0.0151  0.4306 -0.1053
   94SAPC   O12 9099   1.727   3.427   6.932  0.2012  0.2499  0.8962
   94SAPC   O11 9100   1.873   3.217   6.972 -0.7697  0.0875  0.5706
   94SAPC    C1 9101   2.004   3.257   6.917 -0.0021  0.0742  0.1907
   94SAPC    HA 9102   2.042   3.353   6.956  0.9743 -0.7814  1.4234
   94SAPC    HB 9103   2.082   3.179   6.932  0.1556 -0.2786 -2.0461
   94SAPC    C2 9104   2.003   3.272   6.763 -0.6798 -0.3195 -1.3425
   94SAPC    HS 9105   1.904   3.311   6.729 -1.7066  1.0295  2.6448
   94SAPC   O21 9106   2.028   3.141   6.708  0.0383 -0.3469  0.1124
   94SAPC   C21 9107   1.920   3.064   6.690  0.1162 -0.2395 -0.6700
   94SAPC   O22 9108   1.804   3.093   6.702  0.5282  0.2289 -0.3545
   94SAPC   C22 9109   1.974   2.930   6.626  0.0232 -0.0868  0.1706
   94SAPC   H2R 9110   2.064   2.955   6.566  1.5462 -0.1360  2.3365
   94SAPC   H2S 9111   2.006   2.865   6.710  0.8258  0.9744  0.7100
   94SAPC    C3 9112   2.116   3.368   6.715 -0.5095  0.1674 -0.4189
   94SAPC    HX 9113   2.212   3.331   6.755  0.8415 -1.7038 -4.7760
   94SAPC    HY 9114   2.104   3.471   6.755 -0.8973 -0.2492  0.5698
   94SAPC   O31 9115   2.106   3.375   6.574  0.2314  0.4133 -0.1440
   94SAPC   C31 9116   2.210   3.330   6.503 -0.2145  0.3895 -0.1280
   94SAPC   O32 9117   2.319   3.302   6.544 -0.3195 -0.6033 -0.6748
   94SAPC   C32 9118   2.169   3.312   6.356 -0.1422 -0.2016  0.4979
   94SAPC   H2X 9119   2.197   3.403   6.299 -1.3862  0.8122  1.4255
   94SAPC   H2Y 9120   2.059   3.311   6.338  0.2847  0.9064 -2.6922
   94SAPC   C23 9121   1.876   2.854   6.533 -0.2062 -0.2029 -0.2600
   94SAPC   H3R 9122   1.776   2.870   6.578  0.6464  1.5098  1.1540
   94SAPC   H3S 9123   1.906   2.750   6.553 -0.2096  0.0704  1.2301
   94SAPC   C24 9124   1.895   2.894   6.395 -0.2226 -0.0579  0.4752
   94SAPC   H4R 9125   1.993   2.854   6.362 -0.2165 -0.1203  0.5673
   94SAPC   H4S 9126   1.888   3.004   6.378 -1.1143 -0.4451 -2.0123
   94SAPC   C25 9127   1.781   2.838   6.307 -0.7558 -0.2274  0.6776
   94SAPC   H5R 9128   1.682   2.857   6.350  0.3805  3.2465  2.0465
   94SAPC   C26 9129   1.794   2.763   6.194  0.3772  0.4402 -0.0031
   94SAPC   H6R 9130   1.713   2.706   6.145  0.9547  0.8156 -1.4712
   94SAPC   C27 9131   1.931   2.737   6.138 -0.4020  0.0757  0.1091
   94SAPC   H7R 9132   1.978   2.667   6.210 -1.6321 -0.0206  0.8585
   94SAPC   H7S 9133   1.991   2.830   6.139 -2.4641  1.4814  1.2821
   94SAPC   C28 9134   1.928   2.674   6.004 -0.1590  0.0543 -0.1258
   94SAPC   H8R 9135   1.955   2.568   6.012 -0.2821  0.1449  2.1197
   94SAPC   C29 9136   1.889   2.725   5.882  0.2860 -0.2545  0.6078
   94SAPC   H9R 9137   1.891   2.653   5.798 -0.2671 -0.8604  1.0942
   94SAPC  C210 9138   1.837   2.863   5.860 -0.7633 -0.3708  0.2035
   94SAPC  H10R 9139   1.904   2.929   5.799 -1.3534 -1.4697 -1.7220
   94SAPC  H10S 9140   1.822   2.913   5.958  0.4698 -1.1615  0.8256
   94SAPC  C211 9141   1.719   2.854   5.773  0.0903  0.2114 -0.6390
   94SAPC  H11R 9142   1.626   2.868   5.830  0.9562 -1.2782  1.2400
   94SAPC  C212 9143   1.717   2.841   5.642 -0.3448  0.2104 -0.3082
   94SAPC  H12R 9144   1.625   2.852   5.584  0.5128  0.4953 -1.6803
   94SAPC  C213 9145   1.834   2.818   5.546  0.2030 -0.1363 -0.1157
   94SAPC  H13R 9146   1.928   2.837   5.602  0.1304 -3.3744  1.3412
   94SAPC  H13S 9147   1.826   2.897   5.469 -0.2203 -0.4019 -0.3513
   94SAPC  C214 9148   1.830   2.690   5.478  0.5141 -0.5125 -0.3978
   94SAPC  H14R 9149   1.732   2.639   5.472  0.1024 -0.0323  1.5396
   94SAPC  C215 9150   1.934   2.624   5.417 -0.4913  0.2722  0.4526
   94SAPC  H15R 9151   1.913   2.529   5.366 -0.7944  0.2569  0.6012
   94SAPC  C216 9152   2.077   2.663   5.403  0.1460 -0.0821  0.1713
   94SAPC  H16R 9153   2.144   2.583   5.441 -0.6537 -0.6749  0.3533
   94SAPC  H16S 9154   2.102   2.762   5.447  0.4015  0.4910 -1.2078
   94SAPC  C217 9155   2.107   2.687   5.254 -0.2369 -0.4431  0.2414
   94SAPC  H17R 9156   2.046   2.771   5.214 -1.8108 -1.0842  1.1880
   94SAPC  H17S 9157   2.087   2.586   5.210  1.3577 -1.1528  1.0778
   94SAPC  C218 9158   2.259   2.706   5.236 -0.3237 -0.6851  0.0717
   94SAPC  H18R 9159   2.319   2.635   5.298  1.6520  1.3160  0.5920
   94SAPC  H18S 9160   2.295   2.798   5.286 -1.3976  0.2845 -0.8927
   94SAPC  C219 9161   2.310   2.726   5.089 -0.3148 -0.7463 -0.1856
   94SAPC  H19R 9162   2.259   2.654   5.021 -0.4297 -0.5914 -0.2642
   94SAPC  H19S 9163   2.418   2.700   5.091  0.3438  1.7122  0.1408
   94SAPC  C220 9164   2.286   2.865   5.022  0.4317  0.1732  0.0917
   94SAPC  H20R 9165   2.320   2.861   4.917 -0.6122 -0.4912 -0.2270
   94SAPC  H20S 9166   2.352   2.927   5.087 -2.5102  3.6754  0.0824
   94SAPC  H20T 9167   2.182   2.900   5.036  0.7421  1.3400 -0.4158
   94SAPC   C33 9168   2.226   3.188   6.287 -0.5269 -0.6578 -0.1609
   94SAPC   H3X 9169   2.169   3.104   6.333  2.5885 -2.1916  1.2243
   94SAPC   H3Y 9170   2.332   3.167   6.315 -1.3716 -2.3621  2.0746
   94SAPC   C34 9171   2.195   3.172   6.142  0.2191 -0.2137 -0.2820
   94SAPC   H4X 9172   2.086   3.177   6.124  0.5720 -0.1564 -2.8255
   94SAPC   H4Y 9173   2.223   3.069   6.111 -1.7458 -0.5993 -0.9236
   94SAPC   C35 9174   2.258   3.274   6.051 -0.1156 -0.5679 -0.3283
   94SAPC   H5X 9175   2.368   3.280   6.067 -0.1488 -1.0381  0.0959
   94SAPC   H5Y 9176   2.224   3.378   6.070 -2.7041 -1.0601 -1.8286
   94SAPC   C36 9177   2.235   3.247   5.901 -0.3944 -0.8661  0.1534
   94SAPC   H6X 9178   2.131   3.216   5.879 -1.2230 -0.3576  2.8581
   94SAPC   H6Y 9179   2.300   3.164   5.867 -0.0533 -0.6994  0.3894
   94SAPC   C37 9180   2.270   3.371   5.813  0.1479  0.3459 -0.2538
   94SAPC   H7X 9181   2.379   3.380   5.828  0.1693  0.1587 -0.2859
   94SAPC   H7Y 9182   2.214   3.458   5.853  0.9572  0.4999  0.5582
   94SAPC   C38 9183   2.236   3.335   5.669 -0.4615 -0.2216 -0.2627
   94SAPC   H8X 9184   2.128   3.310   5.662 -1.0719  1.0230  2.8744
   94SAPC   H8Y 9185   2.298   3.250   5.633 -1.1359  0.0685 -2.2281
   94SAPC   C39 9186   2.268   3.455   5.583  0.1538  0.0418 -0.4569
   94SAPC   H9X 9187   2.378   3.461   5.568  0.5471 -2.5360  0.9526
   94SAPC   H9Y 9188   2.224   3.549   5.622 -2.7018 -0.5699 -1.8881
   94SAPC  C310 9189   2.219   3.417   5.447 -0.2737  0.0122 -0.4317
   94SAPC  H10X 9190   2.109   3.401   5.451 -0.0657 -1.5253 -0.1769
   94SAPC  H10Y 9191   2.272   3.325   5.415  2.1479  1.4693 -0.8090
   94SAPC  C311 9192   2.275   3.511   5.340  0.6146 -0.4212 -0.3513
   94SAPC  H11X 9193   2.386   3.517   5.348  0.6817 -2.1956  0.5275
   94SAPC  H11Y 9194   2.234   3.609   5.371 -1.0911 -1.1739 -0.1044
   94SAPC  C312 9195   2.237   3.462   5.199  0.0552  0.3595  0.4994
   94SAPC  H12X 9196   2.130   3.432   5.199  0.4924 -1.5214 -2.0111
   94SAPC  H12Y 9197   2.303   3.377   5.174  1.4947  2.0124 -1.6287
   94SAPC  C313 9198   2.257   3.572   5.106  0.7321 -0.3134 -0.1993
   94SAPC  H13X 9199   2.183   3.649   5.136 -0.5512 -1.7457  0.4610
   94SAPC  H13Y 9200   2.240   3.527   5.006  1.1238 -2.3753  0.5996
   94SAPC  C314 9201   2.388   3.639   5.102  0.5731  0.0481 -0.2187
   94SAPC  H14X 9202   2.473   3.568   5.102  1.4849  1.1029 -0.2589
   94SAPC  H14Y 9203   2.396   3.700   5.195  0.9766  0.2231 -0.3613
   94SAPC  C315 9204   2.398   3.736   4.983  0.0713  0.6827 -0.4889
   94SAPC  H15X 9205   2.479   3.809   5.003  0.7428 -0.6002  1.7936
   94SAPC  H15Y 9206   2.300   3.788   4.974 -0.0274  1.1182  2.3967
   94SAPC  C316 9207   2.432   3.654   4.852  0.5604 -0.4433  0.0539
   94SAPC  H16X 9208   2.336   3.614   4.813 -0.2867  2.1704 -0.7226
   94SAPC  H16Y 9209   2.488   3.561   4.875  2.3379  0.7900  0.9744
   94SAPC  C317 9210   2.517   3.728   4.750  0.1155  0.6882  0.1600
   94SAPC  H17X 9211   2.616   3.749   4.795  0.3060  2.2807 -0.8694
   94SAPC  H17Y 9212   2.465   3.821   4.716 -1.0827 -0.4077 -1.1436
   94SAPC  C318 9213   2.543   3.643   4.618  0.2358 -0.2172  0.1796
   94SAPC  H18X 9214   2.608   3.699   4.548 -0.6885 -2.5528 -2.7743
   94SAPC  H18Y 9215   2.453   3.634   4.553  0.7497 -1.8809 -0.3762
   94SAPC  H18Z 9216   2.582   3.540   4.635  2.6694  0.7460  0.8645
   95SAPC     N 9217   5.036   3.455   1.746 -0.0651  0.7188 -0.6674
   95SAPC   C12 9218   5.034   3.438   1.894 -0.0297 -0.5900  0.3570
   95SAPC  H12A 9219   4.969   3.516   1.930 -0.5012 -0.9180  0.2189
   95SAPC  H12B 9220   5.140   3.447   1.916 -0.1435  0.2245  0.5818
   95SAPC   C13 9221   4.899   3.442   1.696 -0.1388 -0.3235  0.0595
   95SAPC  H13A 9222   4.891   3.450   1.589  0.2986 -2.9313 -0.2399
   95SAPC  H13B 9223   4.855   3.347   1.721 -3.3290  0.8350 -0.6139
   95SAPC  H13C 9224   4.832   3.516   1.738  0.1495  0.8743 -1.5036
   95SAPC   C14 9225   5.084   3.590   1.710  0.3065  0.1827  0.3984
   95SAPC  H14A 9226   5.094   3.605   1.603 -0.2269  4.6074  0.8150
   95SAPC  H14B 9227   5.014   3.671   1.720  0.2559  0.5233 -2.0912
   95SAPC  H14C 9228   5.175   3.615   1.763  0.3909  0.1031  0.2926
   95SAPC   C15 9229   5.115   3.347   1.680 -0.5552  0.1097 -0.8592
   95SAPC  H15A 9230   5.125   3.367   1.574 -0.9918 -1.3861 -1.2050
   95SAPC  H15B 9231   5.214   3.349   1.723 -1.3118  0.7860  0.9629
   95SAPC  H15C 9232   5.071   3.251   1.701  3.8348 -2.5452 -2.3159
   95SAPC   C11 9233   4.988   3.301   1.945  0.0999 -0.2246 -0.9712
   95SAPC  H11A 9234   5.001   3.313   2.055  1.7469  1.1477 -1.2585
   95SAPC  H11B 9235   5.066   3.225   1.923 -0.5226 -0.2881 -3.1232
   95SAPC     P 9236   4.748   3.212   2.013  0.2588  0.2474  0.3553
   95SAPC   O13 9237   4.696   3.339   2.073  0.5893  0.5781 -0.3860
   95SAPC   O14 9238   4.643   3.140   1.935  0.5744  0.3905  0.2918
   95SAPC   O12 9239   4.862   3.252   1.911  0.6440  0.0173  0.0566
   95SAPC   O11 9240   4.813   3.109   2.115 -0.1240  0.2427 -0.2318
   95SAPC    C1 9241   4.841   2.974   2.080 -0.1098  0.8113  0.6007
   95SAPC    HA 9242   4.788   2.940   1.988 -3.0989 -0.7163  2.6865
   95SAPC    HB 9243   4.949   2.965   2.056 -0.2539  0.1957  0.1567
   95SAPC    C2 9244   4.786   2.881   2.186 -0.3224 -0.5945 -0.6458
   95SAPC    HS 9245   4.676   2.888   2.174 -0.7267  1.8789  3.0808
   95SAPC   O21 9246   4.813   2.948   2.309  0.1437  0.1640 -0.3798
   95SAPC   C21 9247   4.726   2.946   2.412 -0.2034 -0.7989 -0.1786
   95SAPC   O22 9248   4.609   2.909   2.404 -0.0470  0.0956 -0.6658
   95SAPC   C22 9249   4.805   2.988   2.538 -0.4043  0.2459  0.6632
   95SAPC   H2R 9250   4.904   2.939   2.524 -1.1968 -1.2196 -0.0881
   95SAPC   H2S 9251   4.810   3.098   2.529  1.5885  0.0911 -0.8172
   95SAPC    C3 9252   4.844   2.738   2.175  0.2238 -0.1492  0.2242
   95SAPC    HX 9253   4.954   2.755   2.167 -0.1424  2.4359 -0.0339
   95SAPC    HY 9254   4.807   2.691   2.081  2.4197  0.3022 -0.9309
   95SAPC   O31 9255   4.819   2.659   2.293 -0.1441 -0.2565  0.0202
   95SAPC   C31 9256   4.694   2.606   2.290  0.0972 -0.5865 -0.4868
   95SAPC   O32 9257   4.611   2.637   2.208  0.0539 -0.1093  0.0508
   95SAPC   C32 9258   4.690   2.499   2.399 -0.0162  0.4353  0.1554
   95SAPC   H2X 9259   4.791   2.471   2.436  0.2102 -1.0678 -1.4466
   95SAPC   H2Y 9260   4.640   2.410   2.355  1.0447 -0.5825  0.9545
   95SAPC   C23 9261   4.742   2.929   2.658 -0.1117  0.0073 -0.2104
   95SAPC   H3R 9262   4.719   2.822   2.637 -0.1051  0.1369 -0.8955
   95SAPC   H3S 9263   4.645   2.983   2.661  0.2790  0.8169 -1.5117
   95SAPC   C24 9264   4.822   2.949   2.786  0.4990  0.1507  0.5577
   95SAPC   H4R 9265   4.839   3.059   2.790 -1.1054  0.3983  1.2859
   95SAPC   H4S 9266   4.919   2.898   2.768  0.4790  0.3977 -0.3087
   95SAPC   C25 9267   4.744   2.889   2.909  0.4505  0.3662  0.6006
   95SAPC   H5R 9268   4.735   2.780   2.912  0.1036  0.4126  2.5050
   95SAPC   C26 9269   4.693   2.953   3.021 -0.2811 -0.3902 -0.1378
   95SAPC   H6R 9270   4.652   2.894   3.104 -1.0377  0.8563  0.3868
   95SAPC   C27 9271   4.709   3.097   3.053 -0.0411  0.0676 -0.4466
   95SAPC   H7R 9272   4.717   3.156   2.959 -0.2436  1.8264  0.5975
   95SAPC   H7S 9273   4.798   3.121   3.115 -0.0520  1.2515 -0.8647
   95SAPC   C28 9274   4.592   3.170   3.119  0.4452  0.0295 -0.1506
   95SAPC   H8R 9275   4.519   3.208   3.046 -1.6111 -1.1469  1.1813
   95SAPC   C29 9276   4.580   3.216   3.247  0.1834 -0.3729  0.4317
   95SAPC   H9R 9277   4.505   3.293   3.272 -0.9132 -1.2873  0.0545
   95SAPC  C210 9278   4.668   3.182   3.364  0.5364  0.1443 -0.0795
   95SAPC  H10R 9279   4.727   3.089   3.347  0.6904  0.1321  0.5025
   95SAPC  H10S 9280   4.607   3.155   3.453 -1.0142 -1.0100 -1.4428
   95SAPC  C211 9281   4.764   3.291   3.391 -0.6443 -0.6477 -0.8354
   95SAPC  H11R 9282   4.787   3.355   3.304 -1.8772 -1.8132 -2.0666
   95SAPC  C212 9283   4.812   3.338   3.515  0.5701  0.5711 -0.0754
   95SAPC  H12R 9284   4.876   3.426   3.518  4.9395 -2.1029 -2.9783
   95SAPC  C213 9285   4.776   3.278   3.649  0.6060 -0.4448 -0.3057
   95SAPC  H13R 9286   4.666   3.265   3.653  0.6722 -1.8579 -1.8096
   95SAPC  H13S 9287   4.810   3.357   3.719 -0.9678  0.1207 -0.1581
   95SAPC  C214 9288   4.845   3.150   3.686  0.6716 -0.4996 -0.4881
   95SAPC  H14R 9289   4.868   3.088   3.598 -1.3760  1.4243 -2.5029
   95SAPC  C215 9290   4.855   3.102   3.809  0.6817  0.9093  0.7266
   95SAPC  H15R 9291   4.915   3.010   3.811 -0.8603 -0.3214 -2.7495
   95SAPC  C216 9292   4.803   3.166   3.936 -0.1700 -0.4213 -0.4178
   95SAPC  H16R 9293   4.698   3.130   3.941 -0.2731 -0.0634 -0.0382
   95SAPC  H16S 9294   4.814   3.276   3.936 -3.3921  0.0054  0.9945
   95SAPC  C217 9295   4.874   3.110   4.066 -0.5468  0.4931  0.2530
   95SAPC  H17R 9296   4.849   3.185   4.143 -0.6486 -0.3934  1.1113
   95SAPC  H17S 9297   4.983   3.105   4.041 -1.1186 -0.2168 -2.4304
   95SAPC  C218 9298   4.813   2.974   4.095 -0.5488 -0.1518 -0.5847
   95SAPC  H18R 9299   4.864   2.908   4.021 -0.8910 -1.5006  0.3448
   95SAPC  H18S 9300   4.702   2.971   4.095 -0.6759  2.1272  1.0557
   95SAPC  C219 9301   4.865   2.925   4.224 -0.3976  0.1494 -0.6077
   95SAPC  H19R 9302   4.825   2.984   4.309 -1.0325 -1.2074  0.0762
   95SAPC  H19S 9303   4.973   2.948   4.232 -0.3100  0.0868 -1.4623
   95SAPC  C220 9304   4.833   2.782   4.248 -0.0934  0.3717 -0.3028
   95SAPC  H20R 9305   4.860   2.718   4.161  0.9752 -1.3291  1.2095
   95SAPC  H20S 9306   4.724   2.766   4.264  0.1834 -2.6577 -0.7758
   95SAPC  H20T 9307   4.884   2.748   4.341  0.3027  0.1703 -0.5900
   95SAPC   C33 9308   4.617   2.547   2.528  0.3360  0.5323 -0.3060
   95SAPC   H3X 9309   4.523   2.490   2.542 -0.4703  2.2716  1.7067
   95SAPC   H3Y 9310   4.599   2.656   2.539 -1.1547  0.1745  1.1513
   95SAPC   C34 9311   4.695   2.505   2.657  0.3380  0.3176  0.3801
   95SAPC   H4X 9312   4.800   2.540   2.650  0.3744  0.1587  0.0841
   95SAPC   H4Y 9313   4.701   2.394   2.656 -1.5700  0.1732 -1.5118
   95SAPC   C35 9314   4.630   2.536   2.794  0.9060 -0.1873  0.8319
   95SAPC   H5X 9315   4.541   2.470   2.784  1.8608 -1.4006 -0.0568
   95SAPC   H5Y 9316   4.614   2.644   2.813  4.0175  0.0927  2.5333
   95SAPC   C36 9317   4.709   2.478   2.919 -0.4086 -0.2039  0.6944
   95SAPC   H6X 9318   4.810   2.523   2.923 -0.6335  0.3325  0.4725
   95SAPC   H6Y 9319   4.713   2.368   2.905  0.7736 -0.0138 -0.6457
   95SAPC   C37 9320   4.636   2.504   3.047  0.4978  0.2886  0.3196
   95SAPC   H7X 9321   4.532   2.468   3.037  1.4767 -2.8929  0.3855
   95SAPC   H7Y 9322   4.622   2.614   3.053 -1.9780  0.1189 -1.0184
   95SAPC   C38 9323   4.689   2.438   3.175  0.3318 -0.3614  0.6288
   95SAPC   H8X 9324   4.662   2.331   3.167 -1.7362  0.1625 -0.3055
   95SAPC   H8Y 9325   4.620   2.474   3.255 -1.6956  2.3382 -2.1063
   95SAPC   C39 9326   4.841   2.460   3.200 -0.1066  0.2754  0.0191
   95SAPC   H9X 9327   4.879   2.560   3.169 -1.7377  1.0092  0.2963
   95SAPC   H9Y 9328   4.885   2.385   3.130 -1.0069  1.0017 -1.3663
   95SAPC  C310 9329   4.875   2.432   3.347  0.5742 -0.0684 -0.4943
   95SAPC  H10X 9330   4.827   2.504   3.417 -0.4928 -1.8680  0.6766
   95SAPC  H10Y 9331   4.982   2.459   3.361  0.2311  0.5439  1.1695
   95SAPC  C311 9332   4.837   2.293   3.402  0.0552 -0.0893  0.2092
   95SAPC  H11X 9333   4.866   2.207   3.337 -1.6957 -1.0930  0.7059
   95SAPC  H11Y 9334   4.727   2.284   3.410 -0.1265  1.5786 -0.0293
   95SAPC  C312 9335   4.893   2.275   3.541 -0.7200  0.5572 -0.5094
   95SAPC  H12X 9336   4.848   2.347   3.613  2.3837  1.4242  0.7499
   95SAPC  H12Y 9337   5.000   2.302   3.525 -1.1663  1.6687 -1.8286
   95SAPC  C313 9338   4.868   2.131   3.593  1.0996 -0.9674  0.6467
   95SAPC  H13X 9339   4.886   2.061   3.508  0.3214 -1.4229  0.8463
   95SAPC  H13Y 9340   4.765   2.109   3.630 -0.1123  0.9294 -1.2776
   95SAPC  C314 9341   4.957   2.096   3.714  0.3091  0.2800  0.0026
   95SAPC  H14X 9342   4.968   2.189   3.773  1.1239  0.9514 -1.1577
   95SAPC  H14Y 9343   5.061   2.092   3.675  0.8472  1.6623  1.2144
   95SAPC  C315 9344   4.923   1.977   3.805  0.2830 -0.1241  0.2291
   95SAPC  H15X 9345   4.907   1.888   3.740 -1.4984  1.5231 -1.7654
   95SAPC  H15Y 9346   4.829   2.001   3.859  0.9328 -0.0168  1.3448
   95SAPC  C316 9347   5.037   1.949   3.905  0.1039  0.5751 -0.3043
   95SAPC  H16X 9348   5.066   2.045   3.953 -0.7101  0.6639  0.0218
   95SAPC  H16Y 9349   5.123   1.905   3.852 -0.5049  0.8313 -1.5443
   95SAPC  C317 9350   5.001   1.842   4.013 -0.0330 -0.3886  0.0190
   95SAPC  H17X 9351   4.902   1.877   4.050 -0.5298 -0.3441 -1.2774
   95SAPC  H17Y 9352   5.072   1.842   4.098 -1.4683 -0.8295  1.2704
   95SAPC  C318 9353   4.981   1.698   3.966 -0.0523 -0.4466 -0.1834
   95SAPC  H18X 9354   4.946   1.646   4.057  0.1024  2.5096  1.6916
   95SAPC  H18Y 9355   5.084   1.660   3.950 -0.6256 -1.5050 -1.5091
   95SAPC  H18Z 9356   4.923   1.698   3.871  0.2777  2.9004 -0.5179
   96SAPC     N 9357   4.800   1.603   2.213  0.3383 -0.2778  0.2128
   96SAPC   C12 9358   4.774   1.522   2.083 -0.4570 -0.1084 -0.7660
   96SAPC  H12A 9359   4.763   1.418   2.112  0.1155  0.1113  0.2910
   96SAPC  H12B 9360   4.865   1.518   2.024 -0.6494 -3.1736 -1.0255
   96SAPC   C13 9361   4.828   1.752   2.182 -0.1959  0.7996  0.9733
   96SAPC  H13A 9362   4.853   1.815   2.266  1.2016  0.6425  0.7080
   96SAPC  H13B 9363   4.911   1.760   2.113  0.6140 -1.8988  1.5223
   96SAPC  H13C 9364   4.745   1.784   2.120  1.7028  2.7901 -0.7212
   96SAPC   C14 9365   4.677   1.605   2.303  0.1575  0.5599 -0.4551
   96SAPC  H14A 9366   4.686   1.652   2.400 -1.4602 -0.5227  0.2654
   96SAPC  H14B 9367   4.601   1.656   2.245 -1.1550 -0.2718  0.4907
   96SAPC  H14C 9368   4.642   1.505   2.320  2.0743  0.1679  1.6431
   96SAPC   C15 9369   4.912   1.538   2.289 -0.7516  0.3124  0.7327
   96SAPC  H15A 9370   4.879   1.450   2.343 -2.1583  1.0306  1.0814
   96SAPC  H15B 9371   4.987   1.501   2.220 -0.7330 -1.2194  1.5307
   96SAPC  H15C 9372   4.966   1.600   2.359  0.9425 -1.3233  0.9804
   96SAPC   C11 9373   4.653   1.561   1.989  0.0273 -0.1058 -1.0024
   96SAPC  H11A 9374   4.560   1.538   2.045  1.8569  0.3468  2.5128
   96SAPC  H11B 9375   4.654   1.492   1.902 -0.8931  0.0208 -1.1240
   96SAPC     P 9376   4.644   1.753   1.805  0.0870  0.0825 -0.3384
   96SAPC   O13 9377   4.768   1.825   1.764  0.1314  0.1631  0.0690
   96SAPC   O14 9378   4.596   1.636   1.720  0.3147 -0.1030  0.3392
   96SAPC   O12 9379   4.658   1.704   1.955  0.3629  0.3556 -0.2211
   96SAPC   O11 9380   4.535   1.867   1.820  0.2963  0.0874  0.0329
   96SAPC    C1 9381   4.559   1.980   1.907 -0.2183 -0.2476  0.2475
   96SAPC    HA 9382   4.667   2.004   1.918  0.4125 -1.8481 -1.8662
   96SAPC    HB 9383   4.508   2.074   1.876 -0.7014 -0.4007  0.5563
   96SAPC    C2 9384   4.508   1.958   2.052  0.2280  0.1292 -0.2236
   96SAPC    HS 9385   4.585   1.896   2.103  2.0396  1.0926 -1.6554
   96SAPC   O21 9386   4.374   1.895   2.042  0.0656  0.2023  0.3325
   96SAPC   C21 9387   4.349   1.822   2.151  0.3207  0.3621 -0.4541
   96SAPC   O22 9388   4.422   1.808   2.246 -0.0158 -0.1412  0.3517
   96SAPC   C22 9389   4.218   1.745   2.129 -0.3414  0.5191 -0.1172
   96SAPC   H2R 9390   4.134   1.816   2.114 -0.4887 -0.1546 -3.3776
   96SAPC   H2S 9391   4.235   1.691   2.033  1.4790 -0.9531  0.9819
   96SAPC    C3 9392   4.509   2.096   2.129  0.1952  0.4454  0.6650
   96SAPC    HX 9393   4.409   2.143   2.113  0.5347  1.2194  0.7616
   96SAPC    HY 9394   4.572   2.173   2.079 -1.5421  1.0898 -0.6352
   96SAPC   O31 9395   4.521   2.090   2.269 -0.1715  0.0853  0.1410
   96SAPC   C31 9396   4.646   2.061   2.304 -0.5608 -0.1910  0.2330
   96SAPC   O32 9397   4.741   2.055   2.230 -0.3961 -0.0269  0.7972
   96SAPC   C32 9398   4.655   2.044   2.455 -0.0589 -0.7967 -0.5790
   96SAPC   H2X 9399   4.639   1.935   2.470  0.4043 -0.6615  1.1113
   96SAPC   H2Y 9400   4.579   2.101   2.512  2.0292 -0.7911  2.4451
   96SAPC   C23 9401   4.177   1.651   2.243  0.1238 -0.2124 -0.1536
   96SAPC   H3R 9402   4.075   1.611   2.226  1.0610 -1.9154 -2.4283
   96SAPC   H3S 9403   4.175   1.702   2.341  2.8432  0.6659 -0.4586
   96SAPC   C24 9404   4.270   1.529   2.245 -0.8020 -0.2968 -0.1952
   96SAPC   H4R 9405   4.374   1.552   2.274 -0.5064  0.2716 -1.6171
   96SAPC   H4S 9406   4.288   1.497   2.140 -0.1460 -1.1408  0.1630
   96SAPC   C25 9407   4.223   1.421   2.333 -0.3675  0.0965 -1.2963
   96SAPC   H5R 9408   4.171   1.333   2.291  1.1451 -0.9737 -1.0227
   96SAPC   C26 9409   4.253   1.400   2.459  0.0964 -0.4991  0.2071
   96SAPC   H6R 9410   4.214   1.317   2.520 -0.5843 -0.6768 -0.4503
   96SAPC   C27 9411   4.342   1.491   2.539 -0.7914 -0.2053 -0.2055
   96SAPC   H7R 9412   4.303   1.509   2.641  0.0837 -1.8915  0.4747
   96SAPC   H7S 9413   4.362   1.587   2.487  0.8816 -0.5979 -0.3205
   96SAPC   C28 9414   4.484   1.434   2.557 -0.0783  0.2791  0.0397
   96SAPC   H8R 9415   4.492   1.329   2.525 -0.8673  1.0224 -2.8143
   96SAPC   C29 9416   4.591   1.497   2.604  0.3040  0.9609 -0.4242
   96SAPC   H9R 9417   4.688   1.446   2.607  0.2497  0.8822  0.1093
   96SAPC  C210 9418   4.587   1.640   2.652  0.0804 -0.1055  0.5891
   96SAPC  H10R 9419   4.486   1.677   2.681 -0.0298  0.5671 -0.5808
   96SAPC  H10S 9420   4.604   1.705   2.563 -2.4220 -1.9124 -1.3329
   96SAPC  C211 9421   4.697   1.651   2.752 -0.3349  0.2280  0.1142
   96SAPC  H11R 9422   4.783   1.712   2.720 -0.5188  1.3079  1.5382
   96SAPC  C212 9423   4.710   1.601   2.873  0.3050  0.4081 -0.6348
   96SAPC  H12R 9424   4.805   1.602   2.930  0.2990 -1.7448 -0.5020
   96SAPC  C213 9425   4.592   1.531   2.945  0.5707  0.2232 -0.6125
   96SAPC  H13R 9426   4.610   1.425   2.974 -1.1932 -0.6211 -2.4340
   96SAPC  H13S 9427   4.504   1.527   2.878  0.7393 -0.9571 -0.7817
   96SAPC  C214 9428   4.543   1.610   3.062  0.2306 -0.3509 -0.6270
   96SAPC  H14R 9429   4.519   1.712   3.028 -0.1200  0.2319  1.2709
   96SAPC  C215 9430   4.541   1.573   3.193  0.4221 -0.3606 -0.3080
   96SAPC  H15R 9431   4.506   1.639   3.274  0.8867 -0.5280  0.0396
   96SAPC  C216 9432   4.569   1.440   3.249  0.5248  0.4621 -0.2110
   96SAPC  H16R 9433   4.665   1.443   3.303 -0.6573 -0.4649  2.0622
   96SAPC  H16S 9434   4.578   1.366   3.166  1.9264  1.4245 -0.9608
   96SAPC  C217 9435   4.455   1.399   3.347  0.7463 -0.3109 -0.4443
   96SAPC  H17R 9436   4.361   1.390   3.288 -0.2593  1.9260  0.6565
   96SAPC  H17S 9437   4.444   1.485   3.417  0.7938 -1.5661  1.1695
   96SAPC  C218 9438   4.479   1.272   3.430  0.4275  0.9199 -0.3934
   96SAPC  H18R 9439   4.399   1.266   3.507 -0.6997 -1.1138 -1.6325
   96SAPC  H18S 9440   4.580   1.269   3.475 -0.1400  2.6744  1.0807
   96SAPC  C219 9441   4.447   1.148   3.344 -0.4908 -0.1915 -0.6463
   96SAPC  H19R 9442   4.535   1.147   3.276  1.4995 -1.2046  1.7951
   96SAPC  H19S 9443   4.351   1.172   3.293  0.4818 -0.2711 -2.6395
   96SAPC  C220 9444   4.430   1.007   3.411 -0.0748  0.4319 -0.0797
   96SAPC  H20R 9445   4.519   0.971   3.466  0.3592 -3.2333 -2.8362
   96SAPC  H20S 9446   4.409   0.923   3.341  0.4356  0.8558 -0.7532
   96SAPC  H20T 9447   4.352   1.010   3.491  2.2330  0.1147  2.3293
   96SAPC   C33 9448   4.797   2.070   2.516  0.3892  0.2284  0.1329
   96SAPC   H3X 9449   4.810   2.181   2.517  3.3697  0.0441 -2.5603
   96SAPC   H3Y 9450   4.881   2.039   2.450  0.2726  0.4082 -0.1023
   96SAPC   C34 9451   4.825   2.003   2.661  0.4116 -0.3769 -0.5659
   96SAPC   H4X 9452   4.920   2.037   2.708  0.2913  0.5032 -0.9469
   96SAPC   H4Y 9453   4.829   1.892   2.646  0.2835 -0.8155  2.1845
   96SAPC   C35 9454   4.711   2.024   2.763  0.1490  0.3532 -0.3457
   96SAPC   H5X 9455   4.617   1.971   2.735 -0.0558  1.5912 -2.2061
   96SAPC   H5Y 9456   4.679   2.130   2.754 -1.2631 -0.0963 -0.9169
   96SAPC   C36 9457   4.748   2.005   2.915 -0.5681 -0.4209  0.5479
   96SAPC   H6X 9458   4.813   2.091   2.943 -1.2704 -0.2029  1.5919
   96SAPC   H6Y 9459   4.795   1.907   2.935  1.9619  0.9591  1.8914
   96SAPC   C37 9460   4.624   2.017   3.009  0.1991  0.4172  0.4863
   96SAPC   H7X 9461   4.554   1.942   2.967  0.6078  0.1613  0.2530
   96SAPC   H7Y 9462   4.587   2.122   3.005 -1.1771 -0.0150  1.2427
   96SAPC   C38 9463   4.651   1.969   3.158 -0.0468 -0.4336 -0.3127
   96SAPC   H8X 9464   4.754   1.994   3.191 -0.6465 -0.9569  2.1293
   96SAPC   H8Y 9465   4.636   1.859   3.162  0.3808 -0.5037  3.9540
   96SAPC   C39 9466   4.550   2.021   3.260 -0.1528  0.2474  0.0063
   96SAPC   H9X 9467   4.448   2.009   3.219  0.2398 -0.2909 -0.8389
   96SAPC   H9Y 9468   4.564   2.130   3.276  1.5397  0.5926 -3.0523
   96SAPC  C310 9469   4.567   1.942   3.391  1.0689  0.0168 -0.3616
   96SAPC  H10X 9470   4.676   1.936   3.415  0.7734  1.5334  1.6032
   96SAPC  H10Y 9471   4.535   1.839   3.365 -0.9999  0.5246  0.0348
   96SAPC  C311 9472   4.507   1.997   3.519  0.4571 -0.4493 -0.3783
   96SAPC  H11X 9473   4.397   2.016   3.519  0.4049 -0.4655  2.0588
   96SAPC  H11Y 9474   4.554   2.096   3.537 -0.7888 -0.1207  1.3798
   96SAPC  C312 9475   4.541   1.905   3.643  0.0032  0.2614  0.2653
   96SAPC  H12X 9476   4.649   1.929   3.655 -0.0803  0.2546  1.1241
   96SAPC  H12Y 9477   4.528   1.799   3.613 -1.8879  0.0595  1.6415
   96SAPC  C313 9478   4.469   1.949   3.764  0.4903 -0.4966 -0.2010
   96SAPC  H13X 9479   4.366   1.909   3.758  0.3095  0.0888 -1.2725
   96SAPC  H13Y 9480   4.460   2.059   3.767  0.4636 -0.4640 -1.1465
   96SAPC  C314 9481   4.538   1.893   3.889  0.4272 -0.1038 -0.2840
   96SAPC  H14X 9482   4.629   1.954   3.904  0.5541 -0.5220  0.7196
   96SAPC  H14Y 9483   4.568   1.787   3.877 -0.1233 -0.0626 -2.3906
   96SAPC  C315 9484   4.444   1.910   4.018 -0.1306  0.0165 -0.3434
   96SAPC  H15X 9485   4.357   1.842   4.017  0.4004 -0.7109  0.9585
   96SAPC  H15Y 9486   4.405   2.013   4.004  1.7741  0.5927 -1.7693
   96SAPC  C316 9487   4.518   1.880   4.158 -0.3893 -0.7211 -0.4429
   96SAPC  H16X 9488   4.617   1.931   4.158 -0.9958  0.5352  1.4689
   96SAPC  H16Y 9489   4.546   1.773   4.175 -0.9657 -0.8828 -0.5023
   96SAPC  C317 9490   4.437   1.932   4.279  1.2942 -0.4158 -0.6980
   96SAPC  H17X 9491   4.346   1.872   4.301  2.2752 -2.0582 -0.9918
   96SAPC  H17Y 9492   4.417   2.037   4.246 -2.4849 -0.5854  0.4960
   96SAPC  C318 9493   4.528   1.925   4.406 -0.1870 -0.0596  0.0593
   96SAPC  H18X 9494   4.475   1.980   4.487 -0.9669  1.3199 -1.3289
   96SAPC  H18Y 9495   4.627   1.969   4.381  0.0020 -0.6371 -0.2437
   96SAPC  H18Z 9496   4.550   1.821   4.437  0.3534  0.0613  0.0886
   97SAPC     N 9497   6.163   2.516   2.098  0.0041 -0.1399  0.2098
   97SAPC   C12 9498   6.026   2.526   2.155  0.1754  0.2959 -0.4924
   97SAPC  H12A 9499   5.997   2.429   2.194  2.9824 -0.7974 -0.8918
   97SAPC  H12B 9500   5.962   2.545   2.071  2.0772 -0.3184 -2.1455
   97SAPC   C13 9501   6.270   2.496   2.207 -0.4181  0.2223 -0.3672
   97SAPC  H13A 9502   6.246   2.413   2.272  2.8134  1.2643  2.3934
   97SAPC  H13B 9503   6.361   2.465   2.157  1.0585  0.5897  1.9629
   97SAPC  H13C 9504   6.293   2.585   2.263  0.9572  0.7442 -1.6670
   97SAPC   C14 9505   6.172   2.396   2.011 -0.0490 -0.0153  0.7335
   97SAPC  H14A 9506   6.249   2.400   1.935 -0.5332 -0.2963  0.2181
   97SAPC  H14B 9507   6.180   2.303   2.065  0.0715 -1.3414 -1.4369
   97SAPC  H14C 9508   6.083   2.381   1.950  1.1604 -0.3426 -1.0197
   97SAPC   C15 9509   6.188   2.631   2.013  0.4904 -0.3635  0.0094
   97SAPC  H15A 9510   6.121   2.625   1.929  0.3211 -1.9536  0.2275
   97SAPC  H15B 9511   6.175   2.726   2.063 -0.5157 -0.8476  0.7051
   97SAPC  H15C 9512   6.286   2.630   1.969 -0.1288 -1.4074 -1.4101
   97SAPC   C11 9513   6.007   2.634   2.268 -0.1179  0.4577  0.4482
   97SAPC  H11A 9514   6.078   2.603   2.348 -0.0295  0.4729  0.3760
   97SAPC  H11B 9515   5.910   2.614   2.318 -0.8142 -1.1222 -1.3968
   97SAPC     P 9516   5.920   2.859   2.179 -0.0266  0.0898 -0.3167
   97SAPC   O13 9517   5.978   2.983   2.117 -0.1412  0.0020 -0.3027
   97SAPC   O14 9518   5.822   2.783   2.100  0.1213 -0.3056 -0.0989
   97SAPC   O12 9519   6.040   2.767   2.213 -0.1280  0.3235 -0.0044
   97SAPC   O11 9520   5.856   2.890   2.322  0.1080  0.2109  0.1311
   97SAPC    C1 9521   5.926   2.954   2.427 -0.0068  0.5384 -0.1648
   97SAPC    HA 9522   6.035   2.932   2.424 -0.6174 -2.7673 -1.8159
   97SAPC    HB 9523   5.907   3.064   2.421  2.2511  1.0698  1.2322
   97SAPC    C2 9524   5.880   2.910   2.570  0.4064  0.4175  0.0450
   97SAPC    HS 9525   5.911   2.803   2.571  0.1054  0.3353  0.5483
   97SAPC   O21 9526   5.735   2.936   2.570 -0.0514 -0.6414  0.5588
   97SAPC   C21 9527   5.674   2.868   2.665  0.3732 -0.6828 -0.7553
   97SAPC   O22 9528   5.722   2.789   2.740 -0.6558 -0.1323 -0.8096
   97SAPC   C22 9529   5.527   2.898   2.665  0.2656  0.0490  0.4659
   97SAPC   H2R 9530   5.517   3.008   2.678  0.7584  0.0916  0.4820
   97SAPC   H2S 9531   5.494   2.874   2.562 -1.7742  0.4598  0.9825
   97SAPC    C3 9532   5.957   2.982   2.686 -0.2655 -0.3769  0.3584
   97SAPC    HX 9533   5.917   3.085   2.677 -2.3462 -1.2963 -1.9143
   97SAPC    HY 9534   6.065   2.999   2.664 -0.2019  2.4594  2.3258
   97SAPC   O31 9535   5.941   2.932   2.818 -0.1356  0.2234 -0.1528
   97SAPC   C31 9536   6.032   2.838   2.858  0.0212 -0.2144  0.2031
   97SAPC   O32 9537   6.132   2.804   2.797 -0.0355 -0.7345 -0.5227
   97SAPC   C32 9538   5.981   2.803   2.999 -0.4237 -0.1383  0.4055
   97SAPC   H2X 9539   5.893   2.738   2.980 -0.3555  0.2566 -1.4209
   97SAPC   H2Y 9540   5.957   2.896   3.054  1.8664  2.1212 -2.0988
   97SAPC   C23 9541   5.442   2.821   2.765 -0.6161 -0.0619 -0.0876
   97SAPC   H3R 9542   5.482   2.831   2.869  1.0258  0.8411 -0.7679
   97SAPC   H3S 9543   5.448   2.714   2.735  0.4702  0.5777 -2.3621
   97SAPC   C24 9544   5.285   2.856   2.759 -0.9428 -0.2684 -0.3436
   97SAPC   H4R 9545   5.227   2.776   2.811  0.2042 -1.2626 -0.5274
   97SAPC   H4S 9546   5.250   2.838   2.655 -1.9901  0.1870 -0.0839
   97SAPC   C25 9547   5.238   2.991   2.818  0.3853  0.6238 -0.1614
   97SAPC   H5R 9548   5.219   3.073   2.747 -1.2598  0.5732  0.1973
   97SAPC   C26 9549   5.193   3.020   2.942  0.4439  0.6087 -0.0846
   97SAPC   H6R 9550   5.175   3.127   2.963 -0.8116  0.7078 -1.4668
   97SAPC   C27 9551   5.181   2.933   3.060  0.1094  0.3963 -0.6376
   97SAPC   H7R 9552   5.233   2.978   3.147 -1.9566 -0.1421  0.9539
   97SAPC   H7S 9553   5.222   2.832   3.039 -0.5880  0.0876 -0.5376
   97SAPC   C28 9554   5.033   2.926   3.100  0.1955  0.2107 -0.6019
   97SAPC   H8R 9555   4.961   2.966   3.026  0.0091 -1.2963 -1.2675
   97SAPC   C29 9556   4.993   2.864   3.215  0.2842 -0.2712 -0.0591
   97SAPC   H9R 9557   4.885   2.857   3.237 -0.2104 -0.5666 -2.3300
   97SAPC  C210 9558   5.083   2.809   3.322 -0.6106 -0.1316 -0.5160
   97SAPC  H10R 9559   5.188   2.792   3.287  0.4190  1.1672  1.6980
   97SAPC  H10S 9560   5.056   2.706   3.356 -0.4092 -0.5528 -1.5736
   97SAPC  C211 9561   5.104   2.901   3.442  0.0433 -0.4461 -0.0614
   97SAPC  H11R 9562   5.147   3.000   3.421 -0.4344 -0.4232 -1.0170
   97SAPC  C212 9563   5.084   2.870   3.572  0.2862  0.3377  0.5087
   97SAPC  H12R 9564   5.115   2.945   3.647  0.4811  0.0814  0.6854
   97SAPC  C213 9565   5.025   2.742   3.627  0.1055 -0.2409  0.4933
   97SAPC  H13R 9566   4.968   2.685   3.551 -0.3855 -0.2113  0.8323
   97SAPC  H13S 9567   4.957   2.765   3.712  3.1843  0.4996  2.9446
   97SAPC  C214 9568   5.135   2.644   3.660  0.1676  0.5594 -1.2095
   97SAPC  H14R 9569   5.179   2.606   3.566  1.7694  2.3317 -1.2448
   97SAPC  C215 9570   5.176   2.608   3.787 -0.4765 -0.1833  1.2319
   97SAPC  H15R 9571   5.258   2.537   3.799 -0.0406  0.1363  0.2358
   97SAPC  C216 9572   5.124   2.680   3.907  0.5400  1.1887 -0.2092
   97SAPC  H16R 9573   5.156   2.621   3.995 -0.1893  0.9604 -0.0918
   97SAPC  H16S 9574   5.013   2.679   3.907  0.4791  2.7543 -1.6213
   97SAPC  C217 9575   5.174   2.824   3.930  0.5683  0.4658 -0.3675
   97SAPC  H17R 9576   5.091   2.885   3.972 -0.3632 -1.7743  1.2953
   97SAPC  H17S 9577   5.199   2.867   3.831  1.0709 -0.7768 -0.7988
   97SAPC  C218 9578   5.292   2.833   4.030 -0.1588 -0.3723  0.3411
   97SAPC  H18R 9579   5.332   2.936   4.024 -1.7238  0.2320 -0.1510
   97SAPC  H18S 9580   5.379   2.766   4.009  0.1696 -0.6256  2.3009
   97SAPC  C219 9581   5.248   2.805   4.180 -0.2149  1.0404 -0.0982
   97SAPC  H19R 9582   5.210   2.700   4.184  0.3748  0.7792 -0.9945
   97SAPC  H19S 9583   5.162   2.871   4.199 -0.8651  0.6078 -1.3798
   97SAPC  C220 9584   5.354   2.822   4.280  0.1328 -0.1992 -1.2544
   97SAPC  H20R 9585   5.399   2.921   4.258 -1.7418  1.0404  0.1152
   97SAPC  H20S 9586   5.430   2.741   4.267 -0.9497 -0.8834 -4.1220
   97SAPC  H20T 9587   5.313   2.823   4.383 -0.5606  3.4193 -1.4606
   97SAPC   C33 9588   6.088   2.715   3.078  0.2182 -0.4482  0.4264
   97SAPC   H3X 9589   6.185   2.766   3.056  0.5681 -1.7094 -1.1540
   97SAPC   H3Y 9590   6.100   2.620   3.023  0.5665  0.7784 -1.7685
   97SAPC   C34 9591   6.067   2.695   3.225 -0.0760  0.3538  0.1845
   97SAPC   H4X 9592   6.160   2.642   3.257 -0.8075 -0.8731  0.3372
   97SAPC   H4Y 9593   5.986   2.623   3.248  0.3805 -0.4005 -0.5108
   97SAPC   C35 9594   6.048   2.824   3.303 -0.0089 -0.3494 -0.0116
   97SAPC   H5X 9595   5.940   2.848   3.295  0.1976  1.0599  1.0361
   97SAPC   H5Y 9596   6.102   2.915   3.269 -1.1682  0.5314  0.4718
   97SAPC   C36 9597   6.079   2.800   3.452  0.0307  0.3062 -0.4155
   97SAPC   H6X 9598   6.178   2.751   3.466 -0.4961 -0.4380  0.8754
   97SAPC   H6Y 9599   6.005   2.727   3.491 -1.4592  0.8012 -2.1563
   97SAPC   C37 9600   6.076   2.930   3.532 -0.2213 -0.5929 -0.0063
   97SAPC   H7X 9601   5.983   2.991   3.528 -1.3832 -2.3428 -0.9937
   97SAPC   H7Y 9602   6.157   2.998   3.497  0.2007 -0.9289  0.3181
   97SAPC   C38 9603   6.086   2.910   3.684 -0.5252  1.2333  0.1270
   97SAPC   H8X 9604   6.179   2.851   3.696 -0.1659  1.8115  0.2468
   97SAPC   H8Y 9605   6.002   2.847   3.719  1.0377 -1.5501 -0.8413
   97SAPC   C39 9606   6.083   3.037   3.757  0.4030 -0.2378  0.1173
   97SAPC   H9X 9607   6.000   3.104   3.725 -1.6731 -2.2919  0.8429
   97SAPC   H9Y 9608   6.184   3.078   3.737 -0.0815  0.7546 -0.3540
   97SAPC  C310 9609   6.080   3.014   3.907 -0.6001  0.6146  0.9363
   97SAPC  H10X 9610   6.009   2.929   3.914 -0.0872  0.1648  0.7077
   97SAPC  H10Y 9611   6.040   3.100   3.965  1.7250 -0.0503  3.7610
   97SAPC  C311 9612   6.216   2.953   3.961  0.0778  0.4999 -0.3257
   97SAPC  H11X 9613   6.293   3.024   3.924 -0.8923  0.5174 -2.4621
   97SAPC  H11Y 9614   6.225   2.855   3.909  0.7405  0.7490 -0.6892
   97SAPC  C312 9615   6.209   2.932   4.113 -0.1227 -0.4016  0.2832
   97SAPC  H12X 9616   6.118   2.879   4.150 -0.2525  0.4571  1.2442
   97SAPC  H12Y 9617   6.209   3.033   4.161 -0.5164 -0.1249 -0.2939
   97SAPC  C313 9618   6.332   2.847   4.148 -0.6170  0.1947  0.5983
   97SAPC  H13X 9619   6.429   2.896   4.122  0.6722 -3.3811 -2.2412
   97SAPC  H13Y 9620   6.328   2.751   4.093 -1.3361  1.3025 -1.4008
   97SAPC  C314 9621   6.335   2.807   4.296  0.2180  0.0027  0.1845
   97SAPC  H14X 9622   6.250   2.742   4.324  0.3547  0.2657  1.2467
   97SAPC  H14Y 9623   6.320   2.897   4.360 -1.6707  0.5670 -0.9815
   97SAPC  C315 9624   6.467   2.728   4.338  0.0294  0.8076  0.9506
   97SAPC  H15X 9625   6.562   2.773   4.302 -0.0718  0.1975 -0.1478
   97SAPC  H15Y 9626   6.459   2.630   4.286 -0.0303  2.1333 -1.7409
   97SAPC  C316 9627   6.477   2.713   4.486 -0.3349 -0.0074  0.2359
   97SAPC  H16X 9628   6.411   2.625   4.504 -1.5972  0.6497 -0.9253
   97SAPC  H16Y 9629   6.440   2.803   4.540  2.0454  1.3917 -0.3067
   97SAPC  C317 9630   6.616   2.683   4.540 -0.4389  0.9967  0.0965
   97SAPC  H17X 9631   6.616   2.648   4.645  0.5760  3.3354  0.9504
   97SAPC  H17Y 9632   6.674   2.778   4.542  0.1721  0.6073  1.8041
   97SAPC  C318 9633   6.688   2.574   4.456  0.3211 -0.8136 -0.4315
   97SAPC  H18X 9634   6.701   2.605   4.350 -0.6030 -2.2410 -0.9819
   97SAPC  H18Y 9635   6.629   2.481   4.442  1.0271 -1.1278 -1.4293
   97SAPC  H18Z 9636   6.785   2.554   4.506 -0.0189  1.6155  1.3695
   98SAPC     N 9637   0.477   4.187   1.820  0.0933  0.1340  0.6562
   98SAPC   C12 9638   0.472   4.258   1.957 -0.5548  0.1757 -0.1233
   98SAPC  H12A 9639   0.395   4.214   2.017 -0.2293 -1.3492 -0.7774
   98SAPC  H12B 9640   0.437   4.359   1.940 -0.5025  0.1787 -0.2150
   98SAPC   C13 9641   0.520   4.041   1.839  0.2548 -0.9546 -0.6151
   98SAPC  H13A 9642   0.541   3.986   1.749  0.7711  1.3539 -1.9769
   98SAPC  H13B 9643   0.618   4.040   1.885 -0.5154 -0.9886  1.1379
   98SAPC  H13C 9644   0.449   3.988   1.901  1.1993 -0.4649  0.9560
   98SAPC   C14 9645   0.338   4.193   1.764  0.7538 -0.3574  0.6203
   98SAPC  H14A 9646   0.265   4.127   1.810 -0.0917 -0.0770 -0.2998
   98SAPC  H14B 9647   0.287   4.288   1.768 -0.0966 -0.8181  1.7142
   98SAPC  H14C 9648   0.327   4.156   1.663 -0.5679  1.6673 -0.0343
   98SAPC   C15 9649   0.569   4.255   1.725  0.1029 -0.1583  1.3230
   98SAPC  H15A 9650   0.542   4.359   1.708  1.0879 -0.0080  0.5546
   98SAPC  H15B 9651   0.674   4.256   1.748  0.1726  1.3866  1.0886
   98SAPC  H15C 9652   0.564   4.219   1.623 -1.1277  1.2303  0.8548
   98SAPC   C11 9653   0.612   4.270   2.039  0.1440  0.6708  0.4485
   98SAPC  H11A 9654   0.596   4.326   2.133  0.4818 -2.1036  2.2837
   98SAPC  H11B 9655   0.692   4.317   1.979  0.6917 -0.2125  0.4697
   98SAPC     P 9656   0.597   4.062   2.197  0.2323 -0.3213 -0.3424
   98SAPC   O13 9657   0.498   4.146   2.266 -0.0071  0.6355  0.2779
   98SAPC   O14 9658   0.565   3.923   2.149  0.6515 -0.3317 -0.1385
   98SAPC   O12 9659   0.661   4.140   2.078  0.2531 -0.3115  0.5163
   98SAPC   O11 9660   0.726   4.054   2.290  0.5920  0.0136  0.2204
   98SAPC    C1 9661   0.805   4.173   2.315  0.7364  0.1243 -0.1067
   98SAPC    HA 9662   0.851   4.211   2.222 -1.3660 -0.1714 -1.3314
   98SAPC    HB 9663   0.734   4.251   2.350  1.0439 -0.5881  2.2955
   98SAPC    C2 9664   0.910   4.155   2.435  0.2834  0.0390  0.0350
   98SAPC    HS 9665   0.969   4.248   2.450 -0.0168  0.0659  1.1021
   98SAPC   O21 9666   0.998   4.043   2.407 -0.1263 -0.1487  0.0046
   98SAPC   C21 9667   1.099   4.075   2.320  0.5963 -0.0029 -0.6640
   98SAPC   O22 9668   1.101   4.183   2.260 -0.1837  0.0271  0.6646
   98SAPC   C22 9669   1.206   3.964   2.313  0.0082 -0.1388 -0.6832
   98SAPC   H2R 9670   1.183   3.901   2.402 -2.4601 -1.0149 -1.8596
   98SAPC   H2S 9671   1.190   3.898   2.226  0.0553  0.0237 -0.8159
   98SAPC    C3 9672   0.846   4.128   2.565 -0.3335  0.4000  0.5647
   98SAPC    HX 9673   0.802   4.026   2.559  0.8636 -0.1352  0.5162
   98SAPC    HY 9674   0.766   4.200   2.592 -0.4799 -0.0626  1.4094
   98SAPC   O31 9675   0.945   4.119   2.673  0.0066 -0.8431  0.9351
   98SAPC   C31 9676   0.977   4.235   2.724  0.5071  0.5395  0.4998
   98SAPC   O32 9677   0.935   4.344   2.692  0.4476  0.0400  0.3312
   98SAPC   C32 9678   1.084   4.210   2.820 -0.7954  0.0979  0.7160
   98SAPC   H2X 9679   1.178   4.218   2.762 -0.8280 -2.2605  0.2087
   98SAPC   H2Y 9680   1.086   4.102   2.846 -2.1552 -0.2856 -0.6057
   98SAPC   C23 9681   1.350   4.020   2.320  0.0241  0.3438  0.4530
   98SAPC   H3R 9682   1.361   4.110   2.255  1.2578 -1.7435 -2.4605
   98SAPC   H3S 9683   1.415   3.944   2.272 -0.1282  1.3555 -1.4722
   98SAPC   C24 9684   1.393   4.047   2.469  0.2767  0.5626 -0.2116
   98SAPC   H4R 9685   1.315   4.097   2.531 -0.9441 -0.6516 -0.7126
   98SAPC   H4S 9686   1.483   4.110   2.460  2.3513 -2.3111 -1.0522
   98SAPC   C25 9687   1.425   3.915   2.529 -0.2866 -0.6925 -0.1018
   98SAPC   H5R 9688   1.522   3.873   2.498  0.1514  0.6471 -0.6353
   98SAPC   C26 9689   1.357   3.853   2.631  0.1266  0.1296 -0.1860
   98SAPC   H6R 9690   1.391   3.752   2.659 -2.0121 -1.1405 -1.8902
   98SAPC   C27 9691   1.238   3.907   2.700  0.3041  0.8029  0.4238
   98SAPC   H7R 9692   1.142   3.882   2.649  0.2515  0.3274  0.7568
   98SAPC   H7S 9693   1.233   4.018   2.696  0.8982  0.8055 -2.3797
   98SAPC   C28 9694   1.231   3.850   2.842  0.7098 -0.5125 -0.8681
   98SAPC   H8R 9695   1.330   3.823   2.880  0.3112 -2.7555 -1.2872
   98SAPC   C29 9696   1.122   3.806   2.910 -0.2355  0.7617 -0.0181
   98SAPC   H9R 9697   1.149   3.780   3.013  1.3768 -0.5278 -0.7141
   98SAPC  C210 9698   0.975   3.786   2.867  0.1433  0.3614  0.1573
   98SAPC  H10R 9699   0.969   3.765   2.758  0.6703 -1.0678  0.3853
   98SAPC  H10S 9700   0.924   3.882   2.890 -1.8009 -0.8151  1.0445
   98SAPC  C211 9701   0.920   3.666   2.941  0.5446 -0.1703 -0.1747
   98SAPC  H11R 9702   0.967   3.575   2.900 -0.6963 -0.8717 -0.0963
   98SAPC  C212 9703   0.848   3.661   3.059  0.4058 -0.2129  0.1338
   98SAPC  H12R 9704   0.830   3.559   3.098 -3.0049 -0.3575 -1.4566
   98SAPC  C213 9705   0.789   3.762   3.153  0.0800  0.6647  0.2761
   98SAPC  H13R 9706   0.765   3.703   3.244  3.1720  0.8900  1.3454
   98SAPC  H13S 9707   0.696   3.807   3.110  0.1554 -1.7165 -2.7645
   98SAPC  C214 9708   0.870   3.876   3.206 -1.0822  0.2121 -0.4369
   98SAPC  H14R 9709   0.937   3.920   3.130 -0.8238 -0.1762 -0.4403
   98SAPC  C215 9710   0.862   3.924   3.333 -0.0263 -0.3967 -0.4634
   98SAPC  H15R 9711   0.923   4.012   3.358 -0.5641 -0.3403  0.7263
   98SAPC  C216 9712   0.784   3.864   3.448 -0.1964 -1.0781 -0.6405
   98SAPC  H16R 9713   0.814   3.908   3.546 -0.8878 -0.8808 -0.5118
   98SAPC  H16S 9714   0.788   3.753   3.457 -0.0867 -1.1119 -1.0936
   98SAPC  C217 9715   0.631   3.890   3.439  0.0946  0.2797 -0.1998
   98SAPC  H17R 9716   0.588   3.819   3.512  0.3880  1.8933  1.6027
   98SAPC  H17S 9717   0.597   3.857   3.338 -1.8920 -4.3425  1.7175
   98SAPC  C218 9718   0.584   4.039   3.448  0.3253  0.2357 -0.0072
   98SAPC  H18R 9719   0.646   4.106   3.385 -0.7947  0.0408 -1.3713
   98SAPC  H18S 9720   0.607   4.074   3.551 -0.7666  0.0893  0.2967
   98SAPC  C219 9721   0.446   4.065   3.405  0.0380  0.4989  0.0748
   98SAPC  H19R 9722   0.430   4.174   3.415 -0.1803  0.3991  0.8394
   98SAPC  H19S 9723   0.371   4.025   3.477  0.1179  2.2643  1.1726
   98SAPC  C220 9724   0.406   4.025   3.262 -0.2129 -0.0043 -0.0023
   98SAPC  H20R 9725   0.473   4.068   3.185  1.0829 -1.0880  0.4934
   98SAPC  H20S 9726   0.307   4.066   3.231  0.3487  0.8956 -0.6691
   98SAPC  H20T 9727   0.409   3.914   3.259 -1.2910 -0.0733  0.8453
   98SAPC   C33 9728   1.078   4.303   2.940 -0.4918  0.2322  0.0671
   98SAPC   H3X 9729   1.051   4.406   2.909 -0.0632  0.1608 -0.5662
   98SAPC   H3Y 9730   1.175   4.316   2.993 -0.1575  2.1636 -0.9558
   98SAPC   C34 9731   0.976   4.234   3.030 -0.1439  0.1769 -0.5051
   98SAPC   H4X 9732   1.019   4.139   3.067  0.5172  0.3478 -0.8198
   98SAPC   H4Y 9733   0.873   4.223   2.990  0.4860 -1.6707 -1.7399
   98SAPC   C35 9734   0.952   4.326   3.153  0.3296 -0.0930 -0.7579
   98SAPC   H5X 9735   0.876   4.279   3.218  0.0983 -1.3406 -1.8865
   98SAPC   H5Y 9736   0.906   4.425   3.129 -0.7159 -0.1618  0.8382
   98SAPC   C36 9737   1.071   4.345   3.245 -0.5661  0.4805 -0.3409
   98SAPC   H6X 9738   1.149   4.409   3.199  1.2920  0.9338  3.1555
   98SAPC   H6Y 9739   1.113   4.243   3.253 -1.5043  0.1389  0.5011
   98SAPC   C37 9740   1.043   4.409   3.387 -0.4280  0.5655  0.3140
   98SAPC   H7X 9741   0.969   4.492   3.380 -0.4201  0.6972  1.6268
   98SAPC   H7Y 9742   1.137   4.458   3.418 -1.0647  1.6788  0.5419
   98SAPC   C38 9743   0.994   4.308   3.486  0.6447  0.0682  0.5031
   98SAPC   H8X 9744   1.061   4.220   3.485  0.5931 -0.0036  1.7029
   98SAPC   H8Y 9745   0.896   4.273   3.448  0.1076  2.9372 -1.0543
   98SAPC   C39 9746   0.979   4.352   3.637  0.8761  0.0239  0.5299
   98SAPC   H9X 9747   0.917   4.444   3.639 -0.0497 -0.5837  1.0269
   98SAPC   H9Y 9748   1.080   4.369   3.681  0.6426 -2.9047  2.5597
   98SAPC  C310 9749   0.920   4.233   3.721 -0.2076 -0.2921 -0.4202
   98SAPC  H10X 9750   0.976   4.138   3.706 -0.6345 -0.6515  0.2190
   98SAPC  H10Y 9751   0.825   4.199   3.673  0.4178 -4.5679  0.8837
   98SAPC  C311 9752   0.891   4.275   3.864  0.4674 -0.7202  0.4017
   98SAPC  H11X 9753   0.850   4.186   3.915 -1.3423 -0.9815 -1.3575
   98SAPC  H11Y 9754   0.805   4.345   3.848 -0.0127 -1.4819 -0.4514
   98SAPC  C312 9755   1.011   4.318   3.940  0.2275  0.4988 -0.1563
   98SAPC  H12X 9756   1.062   4.403   3.890  3.6516 -1.5849 -0.5254
   98SAPC  H12Y 9757   1.085   4.235   3.930  0.4783  0.9415 -2.6572
   98SAPC  C313 9758   1.002   4.345   4.096  0.1808 -1.2828  0.0115
   98SAPC  H13X 9759   0.925   4.423   4.110  1.3449 -0.2304  0.6603
   98SAPC  H13Y 9760   1.098   4.390   4.129 -0.2569 -1.0880  1.0457
   98SAPC  C314 9761   0.970   4.217   4.168 -0.1397  0.4470 -0.1791
   98SAPC  H14X 9762   1.030   4.130   4.133  0.5394  0.7049  0.3423
   98SAPC  H14Y 9763   0.866   4.190   4.139  0.1100 -0.7054 -0.0601
   98SAPC  C315 9764   0.991   4.230   4.320 -0.1497  0.0181  0.2478
   98SAPC  H15X 9765   1.088   4.264   4.362  0.7063 -3.8282  1.8235
   98SAPC  H15Y 9766   0.987   4.127   4.362 -0.5467  0.1474  0.5372
   98SAPC  C316 9767   0.887   4.316   4.397  0.4402 -0.7992  0.4270
   98SAPC  H16X 9768   0.790   4.263   4.389 -0.5436  0.9108  0.5301
   98SAPC  H16Y 9769   0.870   4.406   4.335 -2.6484  0.3134  2.6448
   98SAPC  C317 9770   0.929   4.360   4.543  0.3408 -0.2463  0.7789
   98SAPC  H17X 9771   0.967   4.272   4.599 -0.0512  0.0504  1.5239
   98SAPC  H17Y 9772   0.839   4.398   4.597 -1.5919 -0.9448 -1.7407
   98SAPC  C318 9773   1.043   4.454   4.543  0.2353  0.0476 -1.0937
   98SAPC  H18X 9774   1.036   4.530   4.462 -1.9210 -1.7437 -2.7136
   98SAPC  H18Y 9775   1.143   4.408   4.530  0.9710  1.4267 -0.5728
   98SAPC  H18Z 9776   1.048   4.506   4.641  0.6056 -0.2213 -0.9665
   99SAPC     N 9777   6.226   0.357   1.990 -0.6293 -0.9944 -0.2421
   99SAPC   C12 9778   6.229   0.486   2.075  0.2517 -1.3308 -0.2991
   99SAPC  H12A 9779   6.140   0.544   2.053  0.5528 -1.4876 -2.0678
   99SAPC  H12B 9780   6.310   0.549   2.043 -1.3380 -0.7665 -3.6762
   99SAPC   C13 9781   6.103   0.277   2.022 -0.0043  0.5818  0.2092
   99SAPC  H13A 9782   6.102   0.191   1.957  1.2760 -0.4886  1.5523
   99SAPC  H13B 9783   6.098   0.262   2.128 -1.1085  1.0637  0.2418
   99SAPC  H13C 9784   6.016   0.335   1.996 -0.5179 -0.0210  0.5609
   99SAPC   C14 9785   6.222   0.401   1.851  0.0838 -0.4877 -0.5967
   99SAPC  H14A 9786   6.312   0.458   1.835 -0.6997  1.1340  0.4842
   99SAPC  H14B 9787   6.217   0.327   1.773 -3.7009 -1.2739  0.1992
   99SAPC  H14C 9788   6.139   0.468   1.832  0.1321 -0.5602 -1.0853
   99SAPC   C15 9789   6.349   0.281   2.014  0.5908 -0.1810 -0.3048
   99SAPC  H15A 9790   6.436   0.345   2.010 -0.0830  0.9747  1.7640
   99SAPC  H15B 9791   6.338   0.245   2.115  1.8807  1.1556  0.3461
   99SAPC  H15C 9792   6.360   0.196   1.948 -0.6920  1.3183 -2.5601
   99SAPC   C11 9793   6.231   0.470   2.229 -0.2697  0.6358  0.3291
   99SAPC  H11A 9794   6.249   0.573   2.268 -0.0905  0.8868 -0.4107
   99SAPC  H11B 9795   6.318   0.404   2.252 -1.7767 -2.3109 -1.7443
   99SAPC     P 9796   5.980   0.509   2.303  0.0948 -0.6211  0.1207
   99SAPC   O13 9797   5.990   0.625   2.216  0.2387 -0.0852  0.2463
   99SAPC   O14 9798   5.855   0.437   2.298  0.4136  0.4705  0.1965
   99SAPC   O12 9799   6.109   0.408   2.271  0.8635 -0.0980  0.5065
   99SAPC   O11 9800   5.996   0.549   2.452  0.0091  0.0954  0.2010
   99SAPC    C1 9801   6.094   0.654   2.485 -0.0979 -0.1543 -0.7975
   99SAPC    HA 9802   6.200   0.630   2.464  0.7652  1.3531  1.4148
   99SAPC    HB 9803   6.065   0.754   2.447 -1.5441 -0.1863  0.1104
   99SAPC    C2 9804   6.084   0.683   2.641  0.6978  0.3631  0.3445
   99SAPC    HS 9805   6.141   0.774   2.672 -0.7497  1.0801  1.0049
   99SAPC   O21 9806   6.133   0.569   2.719 -0.0138  0.8911 -0.3095
   99SAPC   C21 9807   6.264   0.560   2.730  0.4055 -0.0303  0.0778
   99SAPC   O22 9808   6.349   0.640   2.684  0.5496  0.1445  0.0530
   99SAPC   C22 9809   6.292   0.435   2.816  0.1307 -0.4491  0.3233
   99SAPC   H2R 9810   6.217   0.359   2.785 -0.5272  0.9053 -1.5904
   99SAPC   H2S 9811   6.396   0.402   2.797  0.6654  1.0014  0.6010
   99SAPC    C3 9812   5.932   0.708   2.683 -0.2296  0.0223  0.6488
   99SAPC    HX 9813   5.878   0.628   2.628  0.6180 -0.2807  0.2436
   99SAPC    HY 9814   5.925   0.807   2.632  0.8775 -0.2910 -0.1758
   99SAPC   O31 9815   5.901   0.719   2.825 -0.0537 -0.3411 -0.4814
   99SAPC   C31 9816   5.858   0.606   2.886 -0.7977 -0.4857 -0.4393
   99SAPC   O32 9817   5.842   0.499   2.831  0.7194  0.9216  0.5015
   99SAPC   C32 9818   5.814   0.648   3.027 -0.5703  0.4503  0.1359
   99SAPC   H2X 9819   5.715   0.602   3.043 -1.6601  1.9020 -1.9932
   99SAPC   H2Y 9820   5.792   0.757   3.035 -0.3908  0.3998  1.7907
   99SAPC   C23 9821   6.275   0.465   2.965  0.0687 -0.0354  1.0779
   99SAPC   H3R 9822   6.283   0.368   3.017 -2.6633 -1.3610 -0.7433
   99SAPC   H3S 9823   6.173   0.495   2.996  0.0779 -1.3641  2.5045
   99SAPC   C24 9824   6.383   0.561   3.021  0.1409  0.3268  0.7674
   99SAPC   H4R 9825   6.357   0.594   3.124  2.1384  0.5123  1.2512
   99SAPC   H4S 9826   6.385   0.655   2.961 -1.9208 -0.3253 -0.4428
   99SAPC   C25 9827   6.519   0.494   3.020  0.7798  0.3241  0.1831
   99SAPC   H5R 9828   6.557   0.452   2.926 -0.0732  0.5477 -0.2768
   99SAPC   C26 9829   6.599   0.495   3.134  0.0128 -0.2423 -0.3655
   99SAPC   H6R 9830   6.694   0.441   3.128  0.7866  1.0175  0.2233
   99SAPC   C27 9831   6.565   0.555   3.270  0.3404  0.2946 -0.1309
   99SAPC   H7R 9832   6.457   0.541   3.290  0.8259 -3.5165  0.4865
   99SAPC   H7S 9833   6.597   0.661   3.265  0.1640  0.4173  1.0055
   99SAPC   C28 9834   6.641   0.491   3.385  0.4742 -0.6388  0.0639
   99SAPC   H8R 9835   6.746   0.467   3.362  1.3604  2.4722  0.3855
   99SAPC   C29 9836   6.592   0.477   3.510  0.8990 -0.0114 -0.6505
   99SAPC   H9R 9837   6.662   0.428   3.580  0.6823 -0.2442 -0.5960
   99SAPC  C210 9838   6.458   0.510   3.567  0.5536  0.1397 -0.1624
   99SAPC  H10R 9839   6.417   0.426   3.627 -1.2223  0.4898 -0.8359
   99SAPC  H10S 9840   6.391   0.513   3.479  1.7225  1.6962 -1.0726
   99SAPC  C211 9841   6.437   0.634   3.650 -1.0982 -0.7558 -0.0291
   99SAPC  H11R 9842   6.454   0.722   3.587 -0.5284 -1.6844 -1.2154
   99SAPC  C212 9843   6.408   0.655   3.781  0.0155 -0.2429  0.2325
   99SAPC  H12R 9844   6.398   0.756   3.823  3.0316 -0.3273  1.3690
   99SAPC  C213 9845   6.392   0.554   3.890 -0.0100  0.0809 -0.3351
   99SAPC  H13R 9846   6.371   0.451   3.854 -1.7771  0.4559 -0.4773
   99SAPC  H13S 9847   6.300   0.579   3.947  0.5388  0.4327  0.4102
   99SAPC  C214 9848   6.513   0.534   3.983  0.2886 -0.0327  0.3496
   99SAPC  H14R 9849   6.609   0.557   3.935  0.1546  0.0322  0.1118
   99SAPC  C215 9850   6.521   0.469   4.101  0.2620  0.2625  0.2173
   99SAPC  H15R 9851   6.622   0.464   4.144 -0.4385  1.8436  2.1613
   99SAPC  C216 9852   6.400   0.406   4.170 -0.3138 -0.0294  0.4637
   99SAPC  H16R 9853   6.424   0.306   4.212  0.0457  0.0928  0.5582
   99SAPC  H16S 9854   6.317   0.392   4.097 -1.5147  3.7440  0.8862
   99SAPC  C217 9855   6.333   0.485   4.288 -0.4880 -0.5199  0.1187
   99SAPC  H17R 9856   6.280   0.573   4.245 -1.0499  0.4195  2.5725
   99SAPC  H17S 9857   6.406   0.525   4.362 -0.4073  0.0570 -0.2686
   99SAPC  C218 9858   6.219   0.416   4.351 -0.3732  0.8958 -0.6749
   99SAPC  H18R 9859   6.263   0.361   4.436 -0.2646  1.8473 -0.0956
   99SAPC  H18S 9860   6.182   0.336   4.283  2.2337 -0.1569 -0.9739
   99SAPC  C219 9861   6.096   0.507   4.398 -0.1152 -0.3728 -0.1815
   99SAPC  H19R 9862   6.030   0.443   4.461 -0.5568  0.3323  0.0907
   99SAPC  H19S 9863   6.049   0.548   4.307 -1.6413  0.9902  1.1445
   99SAPC  C220 9864   6.129   0.627   4.478  0.1971  0.1225  0.4164
   99SAPC  H20R 9865   6.172   0.706   4.412 -2.4433  1.9174  0.6672
   99SAPC  H20S 9866   6.208   0.593   4.548 -0.4308 -0.5985  0.7800
   99SAPC  H20T 9867   6.036   0.663   4.526 -0.3319  0.1019 -0.5784
   99SAPC   C33 9868   5.914   0.605   3.136  0.3036  0.1118 -0.2262
   99SAPC   H3X 9869   6.012   0.639   3.095 -0.0693 -0.1779 -1.3931
   99SAPC   H3Y 9870   5.918   0.495   3.146 -0.2421  0.1584  0.5244
   99SAPC   C34 9871   5.873   0.670   3.273  0.2855 -0.0129 -0.5416
   99SAPC   H4X 9872   5.765   0.657   3.296  0.3607  1.1494  0.5944
   99SAPC   H4Y 9873   5.880   0.780   3.263 -1.6964  0.3876  1.6842
   99SAPC   C35 9874   5.948   0.614   3.388 -0.0665 -0.0387  0.0256
   99SAPC   H5X 9875   6.058   0.614   3.379 -0.1608 -1.3791 -1.5912
   99SAPC   H5Y 9876   5.933   0.507   3.416  0.3053  0.4550  2.3529
   99SAPC   C36 9877   5.933   0.695   3.517  1.2180 -0.1217  0.0875
   99SAPC   H6X 9878   5.826   0.685   3.546  1.0481 -1.0226 -0.7736
   99SAPC   H6Y 9879   5.961   0.801   3.497  0.2234  0.0091 -0.7562
   99SAPC   C37 9880   6.018   0.637   3.625 -0.2286 -0.1673  0.0861
   99SAPC   H7X 9881   6.124   0.640   3.592 -0.3219 -0.0298 -0.2052
   99SAPC   H7Y 9882   5.992   0.532   3.651 -1.0945  0.3143  1.2433
   99SAPC   C38 9883   6.013   0.695   3.770  0.9574 -0.2573 -0.0311
   99SAPC   H8X 9884   6.069   0.620   3.829  1.2886  0.7499  0.9549
   99SAPC   H8Y 9885   5.908   0.695   3.807  1.1816 -0.1739  0.6060
   99SAPC   C39 9886   6.095   0.826   3.792  0.0421 -0.0218 -0.5140
   99SAPC   H9X 9887   6.026   0.901   3.749  1.1583  1.7087  0.5831
   99SAPC   H9Y 9888   6.189   0.824   3.733  0.2758 -0.3025 -0.1371
   99SAPC  C310 9889   6.125   0.862   3.944 -0.9402  0.6819 -0.1218
   99SAPC  H10X 9890   6.141   0.970   3.964  0.0286  0.5158  0.0330
   99SAPC  H10Y 9891   6.217   0.808   3.976  0.8673  2.4287 -2.1045
   99SAPC  C311 9892   5.995   0.831   4.028  0.6932  0.7314 -0.3326
   99SAPC  H11X 9893   5.969   0.727   4.001  1.4458  0.6483 -0.7737
   99SAPC  H11Y 9894   5.905   0.884   3.989 -0.0953 -1.3276 -1.4521
   99SAPC  C312 9895   6.006   0.848   4.180  0.2593 -0.3365  0.6017
   99SAPC  H12X 9896   6.031   0.954   4.201  2.1582 -0.4400 -0.8733
   99SAPC  H12Y 9897   6.088   0.779   4.208  1.4491  0.9826  0.4264
   99SAPC  C313 9898   5.875   0.834   4.249  0.2536 -0.9848  0.7004
   99SAPC  H13X 9899   5.896   0.783   4.345 -0.4879 -0.1161  1.3527
   99SAPC  H13Y 9900   5.805   0.763   4.201 -1.4484  2.1511 -1.8452
   99SAPC  C314 9901   5.805   0.973   4.289  0.4565  0.1082 -0.5856
   99SAPC  H14X 9902   5.841   1.055   4.222 -0.1101  0.0939 -0.9111
   99SAPC  H14Y 9903   5.829   0.990   4.396  0.9276  0.1042 -0.6873
   99SAPC  C315 9904   5.652   0.966   4.264  0.2962  0.3326 -0.0577
   99SAPC  H15X 9905   5.626   0.950   4.157 -0.4447 -0.3415  0.2066
   99SAPC  H15Y 9906   5.625   1.071   4.288  1.1955  0.5043  0.2594
   99SAPC  C316 9907   5.587   0.871   4.367 -0.3115 -0.7074 -0.2082
   99SAPC  H16X 9908   5.593   0.914   4.469  0.5926  0.4905 -0.7328
   99SAPC  H16Y 9909   5.631   0.770   4.357  1.4607 -0.0650  0.6505
   99SAPC  C317 9910   5.441   0.851   4.360  0.7808 -0.0183  0.7824
   99SAPC  H17X 9911   5.428   0.825   4.253  0.9262 -0.1046  0.7854
   99SAPC  H17Y 9912   5.385   0.946   4.377 -0.1155 -0.0420 -1.6582
   99SAPC  C318 9913   5.397   0.735   4.443  0.4412 -0.0956  0.3776
   99SAPC  H18X 9914   5.307   0.686   4.402  0.0317  0.1470  0.9703
   99SAPC  H18Y 9915   5.366   0.754   4.548 -1.0904  0.2291 -0.1111
   99SAPC  H18Z 9916   5.473   0.655   4.456  0.5024 -0.1940 -0.5098
  100SAPC     N 9917   4.838   6.206   1.740 -0.4763 -0.0647 -0.0707
  100SAPC   C12 9918   4.780   6.340   1.783 -0.1726 -0.1556  0.1904
  100SAPC  H12A 9919   4.692   6.318   1.842 -1.2212 -1.4222 -1.7305
  100SAPC  H12B 9920   4.749   6.398   1.697 -0.2669  2.6769  2.0060
  100SAPC   C13 9921   4.889   6.123   1.850 -0.1174  0.5814  0.4573
  100SAPC  H13A 9922   4.818   6.085   1.922 -0.6926  0.2346 -0.2720
  100SAPC  H13B 9923   4.953   6.043   1.816  0.9514  1.5261  0.1782
  100SAPC  H13C 9924   4.950   6.181   1.916 -1.9384  2.4132  0.6347
  100SAPC   C14 9925   4.730   6.133   1.666 -0.2898 -0.0321  0.3367
  100SAPC  H14A 9926   4.769   6.038   1.633  2.1249  0.4888  1.4253
  100SAPC  H14B 9927   4.641   6.119   1.727 -0.8207  0.9059 -0.1928
  100SAPC  H14C 9928   4.711   6.186   1.574 -2.5941  0.2750  0.9362
  100SAPC   C15 9929   4.943   6.233   1.652 -1.0036  0.3683 -0.3535
  100SAPC  H15A 9930   5.026   6.277   1.705 -0.1797 -1.4736 -0.0067
  100SAPC  H15B 9931   4.971   6.137   1.612 -1.3758  0.9401 -2.0656
  100SAPC  H15C 9932   4.920   6.302   1.572  1.0483 -0.4069 -1.7123
  100SAPC   C11 9933   4.873   6.436   1.860  0.6607  0.3971 -0.5697
  100SAPC  H11A 9934   4.821   6.533   1.876  1.6779  1.0846 -1.2844
  100SAPC  H11B 9935   4.955   6.457   1.788  2.1505 -0.0951  0.9165
  100SAPC     P 9936   4.818   6.382   2.109  0.1820 -0.0856  0.3785
  100SAPC   O13 9937   4.689   6.304   2.088 -0.2027 -0.2968  0.1223
  100SAPC   O14 9938   4.895   6.333   2.225 -0.8111  0.0986 -0.1381
  100SAPC   O12 9939   4.924   6.388   1.986  0.3158 -0.5943  0.2038
  100SAPC   O11 9940   4.783   6.533   2.143 -0.0155  0.6797 -0.2380
  100SAPC    C1 9941   4.878   6.632   2.167 -0.2070 -0.0453 -0.7823
  100SAPC    HA 9942   4.951   6.605   2.246  1.2002 -2.0624 -2.6287
  100SAPC    HB 9943   4.931   6.657   2.072  0.9364 -1.8605 -0.6718
  100SAPC    C2 9944   4.807   6.758   2.225 -0.0613  0.5107 -0.4554
  100SAPC    HS 9945   4.880   6.824   2.278 -0.0337 -0.4107  0.6814
  100SAPC   O21 9946   4.705   6.722   2.321 -0.2722 -0.7365 -0.3909
  100SAPC   C21 9947   4.745   6.642   2.423  0.6053 -0.1096  0.6158
  100SAPC   O22 9948   4.857   6.621   2.460 -0.1285  1.6478  0.0976
  100SAPC   C22 9949   4.619   6.576   2.488 -0.0379 -0.2855 -0.0355
  100SAPC   H2R 9950   4.535   6.647   2.474  1.4805  2.4537  3.3293
  100SAPC   H2S 9951   4.579   6.497   2.420 -3.6383  1.8505 -0.6498
  100SAPC    C3 9952   4.749   6.829   2.107  0.4202 -0.2182  0.1002
  100SAPC    HX 9953   4.709   6.750   2.041  1.4716 -0.0404 -0.7606
  100SAPC    HY 9954   4.828   6.880   2.048  0.0344  0.2120 -0.0502
  100SAPC   O31 9955   4.643   6.915   2.160  0.4371 -0.0985  0.0927
  100SAPC   C31 9956   4.685   7.029   2.215 -0.8574 -0.9301  0.0156
  100SAPC   O32 9957   4.798   7.075   2.220  0.3986 -0.0007  0.3502
  100SAPC   C32 9958   4.566   7.101   2.274  0.1139 -0.3640  0.0471
  100SAPC   H2X 9959   4.469   7.052   2.255 -0.5485  1.5916 -2.1159
  100SAPC   H2Y 9960   4.554   7.194   2.214 -2.3101 -0.6633 -0.0049
  100SAPC   C23 9961   4.652   6.520   2.624  0.3630  0.2886 -0.1073
  100SAPC   H3R 9962   4.686   6.604   2.688  0.1279  2.5704 -2.7849
  100SAPC   H3S 9963   4.736   6.448   2.610  0.6107  0.9378 -2.2849
  100SAPC   C24 9964   4.535   6.445   2.686 -0.4965  0.0376 -0.2321
  100SAPC   H4R 9965   4.488   6.367   2.621 -3.0179  0.6113  0.7819
  100SAPC   H4S 9966   4.456   6.517   2.715 -0.4452 -0.2596  0.6836
  100SAPC   C25 9967   4.586   6.370   2.805  0.1529  0.4708  0.2766
  100SAPC   H5R 9968   4.604   6.263   2.787  0.7021  0.3390  1.5055
  100SAPC   C26 9969   4.610   6.423   2.930  0.4566 -0.5417 -0.7634
  100SAPC   H6R 9970   4.636   6.351   3.010  1.0974  0.7156  0.2034
  100SAPC   C27 9971   4.578   6.560   2.990  0.1745  0.2886  0.0130
  100SAPC   H7R 9972   4.551   6.635   2.913  0.5045  0.8160  0.4069
  100SAPC   H7S 9973   4.668   6.605   3.036 -1.3518  2.2289  1.2296
  100SAPC   C28 9974   4.461   6.538   3.078 -0.0693  0.3322 -0.4288
  100SAPC   H8R 9975   4.365   6.506   3.035 -0.7084  0.7077  0.6574
  100SAPC   C29 9976   4.458   6.556   3.218 -0.0106 -0.1059  0.4809
  100SAPC   H9R 9977   4.360   6.547   3.268  0.5644 -2.0863  1.3510
  100SAPC  C210 9978   4.578   6.591   3.309  0.2673  0.3445 -0.8490
  100SAPC  H10R 9979   4.597   6.700   3.305  0.1700  0.5980  2.5096
  100SAPC  H10S 9980   4.676   6.546   3.285  1.5206  0.7272  2.8368
  100SAPC  C211 9981   4.557   6.548   3.451  0.4318  0.0069 -0.0793
  100SAPC  H11R 9982   4.549   6.439   3.464  0.9853 -0.0775 -0.4153
  100SAPC  C212 9983   4.564   6.632   3.558 -0.4627  0.3277  0.7577
  100SAPC  H12R 9984   4.562   6.578   3.654  1.2914 -0.9152  0.1542
  100SAPC  C213 9985   4.587   6.778   3.572  0.6524  0.8611  0.9382
  100SAPC  H13R 9986   4.584   6.829   3.474  0.2206 -0.0772  0.4508
  100SAPC  H13S 9987   4.687   6.794   3.616 -0.1660  0.9991  2.8901
  100SAPC  C214 9988   4.478   6.837   3.650 -0.0163 -1.1766 -0.0959
  100SAPC  H14R 9989   4.391   6.878   3.597 -0.4909  0.1216  1.5791
  100SAPC  C215 9990   4.469   6.851   3.784  0.4580  0.0862 -0.5516
  100SAPC  H15R 9991   4.380   6.897   3.829  1.5948  1.4799  0.3809
  100SAPC  C216 9992   4.575   6.818   3.890 -0.5953  0.0773  0.1332
  100SAPC  H16R 9993   4.574   6.900   3.964 -0.3058 -0.8593  1.2037
  100SAPC  H16S 9994   4.677   6.802   3.848  0.5482 -3.5602  3.6772
  100SAPC  C217 9995   4.538   6.682   3.946 -0.5574 -0.8077 -0.7644
  100SAPC  H17R 9996   4.531   6.603   3.869 -0.8240 -1.6204  0.0746
  100SAPC  H17S 9997   4.437   6.684   3.992 -0.7609 -4.3154 -0.8167
  100SAPC  C218 9998   4.656   6.628   4.032 -0.0564 -0.3567  0.3172
  100SAPC  H18R 9999   4.681   6.712   4.101 -0.2488  0.0648 -0.1219
  100SAPC  H18S10000   4.745   6.622   3.966 -0.2972  1.1912 -0.1977
  100SAPC  C21910001   4.632   6.497   4.105  0.2583  0.2887 -0.1807
  100SAPC  H19R10002   4.727   6.441   4.121  0.4857  1.2249  2.3096
  100SAPC  H19S10003   4.570   6.433   4.039 -3.1131  2.0455  1.0316
  100SAPC  C22010004   4.559   6.514   4.243 -0.3804  0.9167  0.5368
  100SAPC  H20R10005   4.615   6.582   4.311  0.0800 -0.1633  1.2547
  100SAPC  H20S10006   4.558   6.415   4.291  0.7812  0.2510 -0.7594
  100SAPC  H20T10007   4.455   6.553   4.233 -1.7084 -1.9572  2.1985
  100SAPC   C3310008   4.597   7.122   2.422  0.2976 -0.0502  0.7633
  100SAPC   H3X10009   4.501   7.162   2.461 -1.5766 -0.5044 -2.9746
  100SAPC   H3Y10010   4.662   7.211   2.438 -0.9096  1.0102  0.0294
  100SAPC   C3410011   4.647   7.004   2.508  0.3343 -0.6318 -0.2164
  100SAPC   H4X10012   4.736   6.959   2.461  0.1527  0.1548 -1.3580
  100SAPC   H4Y10013   4.570   6.925   2.522 -0.4625  0.2787  0.6952
  100SAPC   C3510014   4.695   7.063   2.646  0.1763 -0.2594 -0.2030
  100SAPC   H5X10015   4.599   7.104   2.686 -1.2854 -0.9970 -2.7410
  100SAPC   H5Y10016   4.765   7.150   2.638  0.3004 -0.3557 -0.1617
  100SAPC   C3610017   4.736   6.950   2.740 -0.1397 -0.5601 -0.3326
  100SAPC   H6X10018   4.787   6.866   2.690  0.1346 -2.2375  2.5224
  100SAPC   H6Y10019   4.649   6.904   2.793 -0.2219 -1.0271 -0.8705
  100SAPC   C3710020   4.811   7.003   2.857 -0.4805 -0.1470  0.2944
  100SAPC   H7X10021   4.768   7.100   2.890  1.7192  0.2110  2.3359
  100SAPC   H7Y10022   4.916   7.030   2.833 -1.1562  1.6202 -0.8915
  100SAPC   C3810023   4.809   6.912   2.980  0.9185 -0.3115  0.1186
  100SAPC   H8X10024   4.875   6.825   2.958 -0.4545 -0.7758 -2.6129
  100SAPC   H8Y10025   4.704   6.894   3.012  0.6242  2.8101  1.2715
  100SAPC   C3910026   4.873   6.982   3.097 -0.3468  0.2096  0.5901
  100SAPC   H9X10027   4.840   7.087   3.112  0.2787  0.3296  1.2010
  100SAPC   H9Y10028   4.981   7.009   3.095 -0.6647  1.5359  0.1215
  100SAPC  C31010029   4.844   6.906   3.228 -0.3122 -0.5232 -0.1969
  100SAPC  H10X10030   4.743   6.860   3.238 -0.4878 -0.0426  0.2894
  100SAPC  H10Y10031   4.858   6.975   3.314  0.1516 -0.3214 -0.4310
  100SAPC  C31110032   4.951   6.796   3.251 -0.1414 -0.6167  0.0602
  100SAPC  H11X10033   5.051   6.845   3.252 -0.9592  1.1317  1.6813
  100SAPC  H11Y10034   4.941   6.719   3.172  0.2020  1.1392 -1.7572
  100SAPC  C31210035   4.924   6.738   3.391  0.6265  0.2903 -0.4644
  100SAPC  H12X10036   4.842   6.663   3.389  0.1689  0.7926 -1.3744
  100SAPC  H12Y10037   4.891   6.818   3.461  1.1765 -1.4058  1.8453
  100SAPC  C31310038   5.051   6.684   3.455  0.3827 -0.5735 -0.5385
  100SAPC  H13X10039   5.134   6.746   3.415 -0.8760  0.4343 -1.6772
  100SAPC  H13Y10040   5.079   6.579   3.432  1.5177 -0.2299 -0.7998
  100SAPC  C31410041   5.049   6.700   3.609  0.1251 -0.2818 -0.0344
  100SAPC  H14X10042   5.109   6.620   3.659  0.2811 -0.5300 -0.6082
  100SAPC  H14Y10043   4.944   6.683   3.642  0.3407 -1.1168  0.2706
  100SAPC  C31510044   5.104   6.838   3.642  0.2782 -0.2528 -0.3803
  100SAPC  H15X10045   5.044   6.919   3.596 -1.3835 -0.1771  1.7772
  100SAPC  H15Y10046   5.209   6.841   3.606  1.4000  2.2507  2.6682
  100SAPC  C31610047   5.119   6.864   3.791  0.1152 -0.2452 -0.0418
  100SAPC  H16X10048   5.147   6.969   3.811 -0.2610  0.0787 -1.1341
  100SAPC  H16Y10049   5.193   6.795   3.838 -1.5086 -1.1033  1.3488
  100SAPC  C31710050   4.982   6.851   3.862 -0.4887  0.0007 -0.9379
  100SAPC  H17X10051   4.958   6.743   3.879  0.9313 -0.5219 -2.1207
  100SAPC  H17Y10052   4.901   6.894   3.801 -2.0163  0.9882  1.6086
  100SAPC  C31810053   4.979   6.924   3.998  0.0335 -0.7446  0.8914
  100SAPC  H18X10054   4.986   7.034   3.988 -1.3607 -0.6623  0.6593
  100SAPC  H18Y10055   5.057   6.887   4.068  1.4687 -2.8330 -1.6181
  100SAPC  H18Z10056   4.884   6.896   4.048 -0.2502 -2.5168 -0.5339
  101OSM      N10057   1.525   0.256   6.971  1.3555  0.3954 -0.4750
  101OSM    C1510058   1.667   0.298   7.001  0.2000 -0.5526  0.2787
  101OSM   H15A10059   1.678   0.404   7.017  1.3554 -1.0651  3.7695
  101OSM   H15B10060   1.736   0.258   6.929  1.2206  0.4232  0.6996
  101OSM   H15C10061   1.711   0.250   7.087  2.1084 -1.2502 -1.0494
  101OSM    C1410062   1.437   0.362   7.026 -0.7022 -0.5913  0.7979
  101OSM   H14A10063   1.429   0.369   7.134  1.0626  4.5601  0.9055
  101OSM   H14B10064   1.340   0.353   6.980 -0.0126  0.8419 -1.0708
  101OSM   H14C10065   1.477   0.458   6.995  0.6068 -1.7186 -1.2616
  101OSM    C1310066   1.505   0.244   6.822  0.2602  0.1612 -0.2236
  101OSM   H13A10067   1.521   0.334   6.763  0.8518 -1.0552 -1.9902
  101OSM   H13B10068   1.407   0.202   6.804  1.3098 -2.2869 -0.5291
  101OSM   H13C10069   1.582   0.173   6.794 -0.1491 -0.7320  0.8600
  101OSM    C1210070   1.498   0.120   7.035 -0.0515  0.4120  0.0606
  101OSM   H12A10071   1.534   0.117   7.137 -1.8122 -0.1833  0.6994
  101OSM   H12B10072   1.558   0.047   6.983  1.9293  1.6910  0.4304
  101OSM    C1110073   1.353   0.066   7.048 -0.0608  0.3683  0.1273
  101OSM   H11A10074   1.376  -0.034   7.091  1.4816  1.2011  1.3206
  101OSM   H11B10075   1.306   0.055   6.947 -3.0005 -0.4075  1.4747
  101OSM      P10076   1.145   0.103   7.199 -0.4521  0.1050  0.0049
  101OSM    O1310077   1.171  -0.002   7.301 -0.5003  0.1897  0.4332
  101OSM    O1410078   1.063   0.223   7.238  0.0354  0.1032 -0.7265
  101OSM    O1110079   1.074   0.033   7.079 -0.0588  0.0617  0.2763
  101OSM    O1210080   1.283   0.151   7.130 -0.1404 -0.7076 -0.1314
  101OSM    C1S10081   1.043   0.118   6.966 -0.7471  0.5980 -0.0228
  101OSM    H1S10082   1.137   0.169   6.937 -0.2414  1.8459  3.2802
  101OSM    H1T10083   0.979   0.207   6.985 -1.2362 -0.3261  3.2796
  101OSM     NF10084   1.038   0.120   6.720 -0.1896 -0.3446 -0.1230
  101OSM    HNF10085   0.963   0.175   6.685 -0.8127 -0.0310  1.5907
  101OSM    C2S10086   1.004   0.036   6.843 -0.6644 -0.8825  0.2246
  101OSM    H2S10087   1.072  -0.052   6.839 -0.9440 -1.1054  0.3726
  101OSM    C3S10088   0.854  -0.015   6.852  0.0946  0.1420 -0.0696
  101OSM    H3S10089   0.794   0.078   6.843  0.0867  0.3230  1.5825
  101OSM     O310090   0.827  -0.077   6.978  0.0677 -0.1619  0.0195
  101OSM    HO310091   0.906  -0.063   7.030 -0.2463  0.0566  0.4422
  101OSM    C4S10092   0.823  -0.114   6.741 -0.4408  0.6890 -0.3051
  101OSM    H4S10093   0.782  -0.069   6.650 -1.7903 -0.9327 -0.5401
  101OSM    C5S10094   0.849  -0.246   6.735  0.5435  0.2943  0.4100
  101OSM    H5S10095   0.905  -0.287   6.820  1.3008  0.4091 -0.0204
  101OSM    C6S10096   0.823  -0.338   6.616  0.6450 -0.3143  0.5867
  101OSM    H6S10097   0.728  -0.388   6.646  0.7840  0.3068  2.1873
  101OSM    H6T10098   0.895  -0.423   6.612 -2.1098 -2.8302  0.1121
  101OSM    C7S10099   0.811  -0.273   6.478  0.5457  0.7594  0.9132
  101OSM    H7S10100   0.887  -0.193   6.466  0.0910  1.0046 -0.5597
  101OSM    H7T10101   0.716  -0.218   6.469 -0.2585 -0.6953  0.1495
  101OSM    C8S10102   0.826  -0.367   6.366  0.1662 -0.3945  0.4291
  101OSM    H8S10103   0.747  -0.445   6.364  0.5199 -0.7811  1.4407
  101OSM    H8T10104   0.925  -0.416   6.359  1.1777  1.6303 -0.4719
  101OSM    C9S10105   0.815  -0.293   6.234 -0.3785 -0.4398 -0.1252
  101OSM    H9S10106   0.871  -0.198   6.251 -1.1129 -0.3330  2.0691
  101OSM    H9T10107   0.714  -0.248   6.225  0.0477  1.1058  2.0493
  101OSM   C10S10108   0.884  -0.359   6.115  0.1522 -0.3321  0.2025
  101OSM   H10S10109   0.827  -0.448   6.081 -2.3880  0.2689  2.4824
  101OSM   H10T10110   0.986  -0.391   6.144  0.3169  0.2690  0.3089
  101OSM   C11S10111   0.889  -0.270   5.989  0.4259 -0.3463  0.5985
  101OSM   H11S10112   0.931  -0.173   6.024 -0.0291 -0.3522  1.1738
  101OSM   H11T10113   0.788  -0.245   5.948  1.2512  1.0042 -0.6771
  101OSM   C12S10114   0.980  -0.334   5.881  0.2886 -0.5779 -0.3448
  101OSM   H12S10115   0.923  -0.426   5.855 -1.4677  0.0991  0.8939
  101OSM   H12T10116   1.077  -0.354   5.931  1.3620  0.3750 -1.9579
  101OSM   C13S10117   0.989  -0.245   5.762  0.4997  1.0634 -0.0710
  101OSM   H13S10118   1.043  -0.150   5.782  0.3481  1.1942 -0.2819
  101OSM   H13T10119   0.882  -0.238   5.734  0.0632 -0.5803  1.0172
  101OSM   C14S10120   1.062  -0.305   5.638 -0.5435  0.0689  0.3569
  101OSM   H14S10121   1.014  -0.403   5.618  0.1081 -0.2111  0.1210
  101OSM   H14T10122   1.171  -0.315   5.658 -0.1948 -1.7155 -1.9759
  101OSM   C15S10123   1.042  -0.220   5.516 -0.3307  0.8803 -0.4800
  101OSM   H15S10124   1.090  -0.120   5.529 -0.4292  0.8514  0.1767
  101OSM   H15T10125   0.936  -0.210   5.485 -0.0722 -2.2742 -2.7977
  101OSM   C16S10126   1.104  -0.285   5.389  0.1250  0.1315  0.4777
  101OSM   H16S10127   1.053  -0.379   5.359  1.2515 -0.3355 -0.0448
  101OSM   H16T10128   1.211  -0.308   5.409  0.6154 -0.1170 -2.0940
  101OSM   C17S10129   1.119  -0.198   5.270  0.0398 -0.0769 -0.1666
  101OSM   H17S10130   1.194  -0.119   5.293  0.0991 -0.3691  0.7205
  101OSM   H17T10131   1.016  -0.159   5.263 -0.0237 -0.0178  0.8473
  101OSM   C18S10132   1.154  -0.271   5.141 -0.3505  0.0414  0.1602
  101OSM   H18S10133   1.248  -0.331   5.146  0.8529  1.7600 -0.8799
  101OSM   H18T10134   1.153  -0.203   5.054  0.8836 -1.1223 -0.8094
  101OSM   H18U10135   1.086  -0.358   5.128 -0.9632  0.7421 -1.6043
  101OSM    C1F10136   1.159   0.157   6.687  0.3536 -0.3736  0.0547
  101OSM     OF10137   1.263   0.097   6.721 -0.2451  0.3405 -0.3762
  101OSM    C2F10138   1.165   0.276   6.602  0.4964  0.5029 -0.3451
  101OSM    H2F10139   1.204   0.360   6.663  0.0914 -0.1465  0.8310
  101OSM    H2G10140   1.059   0.293   6.574  0.0090  0.1854  1.2263
  101OSM    C3F10141   1.257   0.245   6.481  0.1372  0.3100  0.6334
  101OSM    H3F10142   1.264   0.138   6.452 -2.9690  0.7193 -2.3342
  101OSM    H3G10143   1.355   0.272   6.525 -0.5207  0.9658  1.7489
  101OSM    C4F10144   1.215   0.321   6.350  0.0303 -0.3347  0.0112
  101OSM    H4F10145   1.298   0.324   6.277 -0.3731  3.3517 -0.5230
  101OSM    H4G10146   1.186   0.425   6.380 -2.0184 -0.5810 -0.9360
  101OSM    C5F10147   1.091   0.260   6.290  1.1311  0.2371 -0.3578
  101OSM    H5F10148   1.005   0.237   6.356  2.4531 -2.4536  0.5724
  101OSM    H5G10149   1.116   0.162   6.245 -0.5929  1.1816 -3.6905
  101OSM    C6F10150   1.022   0.343   6.172  0.6630  0.2140  0.0853
  101OSM    H6F10151   0.980   0.436   6.216 -1.4724 -0.6226 -0.0459
  101OSM    H6G10152   0.937   0.287   6.127  1.1943 -1.3425  0.9178
  101OSM    C7F10153   1.110   0.398   6.057  0.2363  0.0076 -0.2545
  101OSM    H7F10154   1.169   0.480   6.103  1.0031 -0.6809  0.0131
  101OSM    H7G10155   1.042   0.454   5.988 -0.2433  0.8250  0.8526
  101OSM    C8F10156   1.197   0.298   5.985  0.6378 -0.3763 -0.6251
  101OSM    H8F10157   1.266   0.249   6.057 -0.7739 -0.1704  0.9322
  101OSM    H8G10158   1.253   0.353   5.906 -0.0026  0.8326 -0.2678
  101OSM    C9F10159   1.109   0.195   5.929  0.4334  0.6871  0.0285
  101OSM    H9F10160   1.087   0.114   5.999 -0.1214  0.6905 -0.1393
  101OSM   C10F10161   1.048   0.200   5.809  0.1676 -0.0449  0.0362
  101OSM   H10F10162   0.985   0.117   5.774  0.0996  0.9123 -2.2746
  101OSM   C11F10163   1.075   0.298   5.697 -0.7185 -0.0602 -0.1844
  101OSM   H11F10164   1.160   0.368   5.706  0.6375 -1.8316  1.7643
  101OSM   H11G10165   0.981   0.354   5.682 -0.9242  0.1793  1.7625
  101OSM   C12F10166   1.101   0.215   5.559 -0.0293 -0.8846  0.0012
  101OSM   H12F10167   1.015   0.147   5.548  0.0053 -1.0730  0.7959
  101OSM   H12G10168   1.201   0.165   5.566  0.4126 -0.1680 -0.9340
  101OSM   C13F10169   1.106   0.320   5.445 -0.2937 -0.3260  0.1361
  101OSM   H13F10170   1.189   0.388   5.473 -0.6153 -0.4913  1.5661
  101OSM   H13G10171   1.006   0.367   5.450  0.5980  1.7463 -0.2553
  101OSM   C14F10172   1.139   0.263   5.307 -0.1368  0.5874 -0.3976
  101OSM   H14F10173   1.236   0.209   5.311  0.4352  1.0022 -4.5220
  101OSM   H14G10174   1.154   0.356   5.247 -0.5018  0.2568 -1.0099
  101OSM   C15F10175   1.024   0.186   5.249 -0.2935 -0.2316 -0.2636
  101OSM   H15F10176   0.931   0.246   5.259 -1.4788 -2.2282  1.5623
  101OSM   H15G10177   1.004   0.091   5.303  1.5699 -0.8705 -0.6408
  101OSM   C16F10178   1.035   0.158   5.101 -0.1494 -0.4619  0.0848
  101OSM   H16F10179   1.129   0.097   5.099  0.2247  0.0703 -2.5812
  101OSM   H16G10180   1.049   0.249   5.040 -1.1284 -0.8020 -0.6701
  101OSM   C17F10181   0.927   0.072   5.035 -0.0899  0.9527  0.4579
  101OSM   H17F10182   0.831   0.127   5.025 -0.6404 -0.3202 -2.3810
  101OSM   H17G10183   0.913  -0.009   5.109  0.8124  0.3361 -0.0199
  101OSM   C18F10184   0.964   0.036   4.889 -0.2447  0.2692  1.4503
  101OSM   H18F10185   1.040  -0.045   4.885 -0.3723  0.1881 -0.3085
  101OSM   H18G10186   0.993   0.115   4.817  1.9347 -3.3194 -2.0363
  101OSM   H18H10187   0.871  -0.010   4.848  0.2776  0.2708  0.2236
  102OSM      N10188   6.364   1.180   7.303 -0.0407  0.1699  0.5351
  102OSM    C1510189   6.323   1.073   7.203  0.2122  0.2199 -0.7676
  102OSM   H15A10190   6.372   1.067   7.107  1.7913  2.6121 -0.2055
  102OSM   H15B10191   6.216   1.060   7.198  0.1806 -0.4818  1.1166
  102OSM   H15C10192   6.344   0.977   7.247  0.2931  0.6238  0.1013
  102OSM    C1410193   6.314   1.320   7.272 -0.6851 -0.1291  0.2919
  102OSM   H14A10194   6.326   1.377   7.363 -0.5214  3.3870 -1.7447
  102OSM   H14B10195   6.214   1.330   7.232 -0.7470 -3.0958 -0.5370
  102OSM   H14C10196   6.377   1.367   7.198 -2.4397 -1.9727 -2.5875
  102OSM    C1310197   6.309   1.132   7.432 -0.2559 -0.0561  0.1387
  102OSM   H13A10198   6.352   1.185   7.515 -0.4117 -1.0352  0.8699
  102OSM   H13B10199   6.337   1.029   7.452 -1.9687 -0.2129  2.0181
  102OSM   H13C10200   6.201   1.141   7.432 -0.3452 -0.8389  1.4351
  102OSM    C1210201   6.517   1.195   7.318 -0.5065  0.8329  0.3525
  102OSM   H12A10202   6.549   1.106   7.370  0.1926  1.6306  1.3377
  102OSM   H12B10203   6.538   1.271   7.391  2.3426 -0.0844  0.5999
  102OSM    C1110204   6.603   1.221   7.189 -0.3703 -0.4745 -0.3264
  102OSM   H11A10205   6.574   1.139   7.120 -1.4084 -1.0800  0.7846
  102OSM   H11B10206   6.708   1.213   7.225 -0.6007  1.7929  1.0620
  102OSM      P10207   6.586   1.387   6.989 -0.0811  0.1278  0.1726
  102OSM    O1310208   6.480   1.485   6.952  0.2305  0.3537 -0.0610
  102OSM    O1410209   6.721   1.434   6.949  0.0276 -0.1718 -0.4061
  102OSM    O1110210   6.543   1.244   6.923  0.5144 -0.3522  0.2569
  102OSM    O1210211   6.580   1.351   7.144 -0.6202  0.2562  0.1917
  102OSM    C1S10212   6.417   1.246   6.843 -0.4203 -0.6236  0.2187
  102OSM    H1S10213   6.430   1.328   6.770 -0.6419 -2.0364 -1.4579
  102OSM    H1T10214   6.326   1.267   6.905 -0.0434  1.7432  0.0292
  102OSM     NF10215   6.286   1.150   6.658  0.3524 -0.1967 -0.3699
  102OSM    HNF10216   6.213   1.083   6.667 -0.6648  0.9048 -0.3459
  102OSM    C2S10217   6.402   1.129   6.738  0.2628 -0.2475 -0.1898
  102OSM    H2S10218   6.488   1.139   6.668  0.3859  0.8577  0.1125
  102OSM    C3S10219   6.421   0.993   6.801 -0.4073  0.3625  0.0486
  102OSM    H3S10220   6.340   0.983   6.877 -0.4610  3.9524  0.6530
  102OSM     O310221   6.535   0.983   6.888  0.2417  0.4747 -0.1239
  102OSM    HO310222   6.558   1.072   6.915 -0.0642  0.5241 -0.0190
  102OSM    C4S10223   6.430   0.879   6.704  0.3428  0.4039  0.6679
  102OSM    H4S10224   6.519   0.864   6.641  0.4700 -1.5436  1.2516
  102OSM    C5S10225   6.330   0.790   6.692  0.0131  0.3546  0.3210
  102OSM    H5S10226   6.243   0.793   6.759 -0.0425 -0.4202  0.2927
  102OSM    C6S10227   6.313   0.680   6.584 -0.2062 -0.4317  0.7471
  102OSM    H6S10228   6.205   0.659   6.567 -0.6217  0.5674  2.0252
  102OSM    H6T10229   6.356   0.584   6.617 -0.3640  0.0386  2.3746
  102OSM    C7S10230   6.356   0.725   6.448 -0.4500 -0.2076 -0.8318
  102OSM    H7S10231   6.460   0.763   6.459 -0.3702 -0.5913 -0.2521
  102OSM    H7T10232   6.291   0.806   6.407 -0.1031  0.3121 -0.3735
  102OSM    C8S10233   6.362   0.611   6.345 -0.3348  0.5963 -0.4901
  102OSM    H8S10234   6.261   0.577   6.315  0.8466 -3.8233 -0.1637
  102OSM    H8T10235   6.402   0.516   6.385 -1.2762 -0.6495 -2.3497
  102OSM    C9S10236   6.422   0.653   6.210 -0.2937 -0.7600  0.9292
  102OSM    H9S10237   6.414   0.561   6.148 -0.6602 -0.8200  1.0641
  102OSM    H9T10238   6.528   0.679   6.230 -0.7730  1.2660  1.0636
  102OSM   C10S10239   6.351   0.765   6.140  0.0577  0.1085  0.2805
  102OSM   H10S10240   6.399   0.865   6.151  0.5394 -0.1431  0.4886
  102OSM   H10T10241   6.245   0.774   6.173 -0.4095  1.0650 -1.3017
  102OSM   C11S10242   6.341   0.749   5.986  0.8070 -0.0660 -0.7844
  102OSM   H11S10243   6.269   0.830   5.961 -0.1825 -0.4516  0.6968
  102OSM   H11T10244   6.301   0.649   5.957 -0.0193 -0.0433  0.2205
  102OSM   C12S10245   6.477   0.768   5.917  0.2915 -0.0231 -0.1323
  102OSM   H12S10246   6.550   0.686   5.935  1.6032  0.7011 -1.8724
  102OSM   H12T10247   6.521   0.862   5.957  0.4511 -0.0876 -0.1531
  102OSM   C13S10248   6.481   0.772   5.764 -0.2783 -0.5139 -0.0577
  102OSM   H13S10249   6.580   0.796   5.720 -1.2905  2.0015 -1.1699
  102OSM   H13T10250   6.425   0.856   5.719  0.0919 -0.0338  0.3738
  102OSM   C14S10251   6.426   0.643   5.697  0.2634  0.6116  0.3232
  102OSM   H14S10252   6.335   0.613   5.753  0.6228 -1.8841 -0.3129
  102OSM   H14T10253   6.503   0.564   5.711  0.2189  0.0196 -2.2269
  102OSM   C15S10254   6.404   0.651   5.545 -0.1559 -0.3725 -0.7682
  102OSM   H15S10255   6.334   0.735   5.526  0.4722 -0.3894 -3.5344
  102OSM   H15T10256   6.359   0.555   5.513 -1.5049  0.0036 -0.0848
  102OSM   C16S10257   6.523   0.679   5.463 -0.5238  0.3759 -0.6902
  102OSM   H16S10258   6.582   0.586   5.457 -0.6890  0.2369 -0.1945
  102OSM   H16T10259   6.584   0.754   5.518 -4.5647  1.7992  2.3715
  102OSM   C17S10260   6.483   0.731   5.320 -0.3271 -0.6463  0.4961
  102OSM   H17S10261   6.445   0.835   5.321  0.4499 -0.3614  1.3321
  102OSM   H17T10262   6.411   0.656   5.281 -1.5166 -0.5737  2.4057
  102OSM   C18S10263   6.612   0.735   5.239  0.3674  0.3103 -0.0644
  102OSM   H18S10264   6.663   0.637   5.253  0.1458  0.1917 -0.0764
  102OSM   H18T10265   6.681   0.812   5.279  0.6169 -0.3580  0.8386
  102OSM   H18U10266   6.594   0.756   5.132  2.4829 -0.1139 -0.5517
  102OSM    C1F10267   6.267   1.249   6.568 -0.8805 -0.6892 -0.8026
  102OSM     OF10268   6.373   1.307   6.534  0.3509  0.5444  0.4035
  102OSM    C2F10269   6.129   1.279   6.510 -0.2945  0.4308  0.7450
  102OSM    H2F10270   6.133   1.376   6.456  2.1824 -0.1633 -0.2658
  102OSM    H2G10271   6.063   1.290   6.599  0.2334 -0.6401  1.2850
  102OSM    C3F10272   6.074   1.171   6.415 -0.9007  0.0929 -0.0268
  102OSM    H3F10273   5.969   1.193   6.385 -1.5381 -0.1131  1.9094
  102OSM    H3G10274   6.066   1.072   6.465  0.5131 -1.1284 -2.0519
  102OSM    C4F10275   6.156   1.158   6.284 -0.5609 -0.1914  0.5709
  102OSM    H4F10276   6.263   1.129   6.285  0.1506  1.7361 -3.0299
  102OSM    H4G10277   6.161   1.261   6.242  1.3344  0.2875  1.8418
  102OSM    C5F10278   6.087   1.063   6.184  0.3645  0.3795  0.1401
  102OSM    H5F10279   5.985   1.089   6.148  0.7815 -0.2247 -1.5639
  102OSM    H5G10280   6.088   0.958   6.220  0.4827 -0.7130 -2.8198
  102OSM    C6F10281   6.149   1.071   6.041 -0.5365 -0.6379 -0.0988
  102OSM    H6F10282   6.254   1.034   6.054 -0.2970 -0.6305 -1.7930
  102OSM    H6G10283   6.158   1.178   6.012 -0.0120 -0.7273 -0.2891
  102OSM    C7F10284   6.063   1.002   5.933  0.7779 -0.1351  0.7193
  102OSM    H7F10285   5.975   1.069   5.922  1.1531 -0.0887 -3.5575
  102OSM    H7G10286   6.021   0.902   5.958 -0.0620 -0.1998 -0.8189
  102OSM    C8F10287   6.137   1.003   5.793  0.0748 -1.0871  0.4695
  102OSM    H8F10288   6.087   0.939   5.718  0.8826  1.5936 -2.6022
  102OSM    H8G10289   6.236   0.956   5.810 -1.0449 -3.6021  0.4171
  102OSM    C9F10290   6.155   1.145   5.737  0.1575  0.1280 -0.0103
  102OSM    H9F10291   6.215   1.210   5.802 -0.8971  1.1675 -0.0446
  102OSM   C10F10292   6.102   1.196   5.625  0.4101 -0.4373  0.2111
  102OSM   H10F10293   6.114   1.299   5.589  2.3991 -0.8462 -0.4190
  102OSM   C11F10294   6.005   1.120   5.537 -0.7073  0.4506 -0.1950
  102OSM   H11F10295   5.910   1.172   5.514 -0.6078 -0.1138 -2.0319
  102OSM   H11G10296   5.971   1.026   5.585  4.2774 -1.7351 -0.2615
  102OSM   C12F10297   6.058   1.072   5.390  0.3068  0.2622  0.0024
  102OSM   H12F10298   5.984   0.998   5.353 -0.2121  0.9310 -0.3019
  102OSM   H12G10299   6.159   1.028   5.409  0.6967 -0.3716 -3.0907
  102OSM   C13F10300   6.075   1.187   5.297 -0.1972  0.1405  1.1224
  102OSM   H13F10301   6.136   1.266   5.346  0.0091  0.8671 -0.2547
  102OSM   H13G10302   5.983   1.243   5.271  0.9300  1.8169  0.5971
  102OSM   C14F10303   6.150   1.146   5.173  0.3469  0.8235 -0.0265
  102OSM   H14F10304   6.077   1.082   5.119 -0.1576  2.3454 -1.2402
  102OSM   H14G10305   6.240   1.083   5.189 -0.7648 -0.7991  0.0634
  102OSM   C15F10306   6.191   1.268   5.091  0.3212 -0.0446  0.4546
  102OSM   H15F10307   6.228   1.347   5.160 -0.2365 -1.5137  2.5336
  102OSM   H15G10308   6.097   1.306   5.046  0.0996  0.7986  1.5800
  102OSM   C16F10309   6.288   1.238   4.979 -0.0897  0.4276 -0.6173
  102OSM   H16F10310   6.283   1.129   4.959 -0.1323 -0.6210  3.9245
  102OSM   H16G10311   6.379   1.251   5.042 -1.3015 -0.3973  1.4052
  102OSM   C17F10312   6.273   1.320   4.848 -0.9188  0.0082  0.2751
  102OSM   H17F10313   6.300   1.427   4.858  1.0687 -0.5457  1.2676
  102OSM   H17G10314   6.166   1.323   4.819 -0.9408 -1.5027  0.1080
  102OSM   C18F10315   6.354   1.257   4.735 -0.0375  0.3671  0.1957
  102OSM   H18F10316   6.364   1.329   4.651  2.4007  0.1658  0.2324
  102OSM   H18G10317   6.305   1.171   4.683 -0.2083  0.4124  0.2809
  102OSM   H18H10318   6.451   1.214   4.766 -0.7102 -0.5105  1.1417
  103OSM      N10319   0.500   1.420   7.037  0.0663  0.5899 -0.4966
  103OSM    C1510320   0.597   1.329   7.085  0.0674 -0.4494  0.1336
  103OSM   H15A10321   0.659   1.290   7.005 -0.2789 -0.1475 -0.2874
  103OSM   H15B10322   0.554   1.239   7.127 -0.8116 -0.1793 -0.1637
  103OSM   H15C10323   0.655   1.370   7.166 -1.1386  2.1646 -0.2327
  103OSM    C1410324   0.470   1.383   6.893 -0.3209 -0.3228  0.0097
  103OSM   H14A10325   0.551   1.411   6.827 -1.3178  0.3995 -0.9365
  103OSM   H14B10326   0.387   1.431   6.844 -1.0834  0.5696  2.0562
  103OSM   H14C10327   0.446   1.278   6.896 -1.7767  0.0011  0.6957
  103OSM    C1310328   0.375   1.404   7.114  0.0023  0.1703 -0.5910
  103OSM   H13A10329   0.329   1.306   7.116 -0.8103  0.5434  1.2248
  103OSM   H13B10330   0.293   1.471   7.093 -1.0920 -1.1190 -0.5953
  103OSM   H13C10331   0.409   1.399   7.217  0.5021 -5.3992 -0.7096
  103OSM    C1210332   0.549   1.561   7.038 -0.0354  0.0784 -0.5025
  103OSM   H12A10333   0.468   1.621   6.999  0.3880  0.4062 -0.8833
  103OSM   H12B10334   0.635   1.560   6.973  1.0518  2.2384  0.8142
  103OSM    C1110335   0.574   1.620   7.183 -0.3249  0.0516  0.0016
  103OSM   H11A10336   0.483   1.624   7.247  0.5749 -0.3505  1.3490
  103OSM   H11B10337   0.597   1.729   7.175  1.8447 -0.3270  0.4160
  103OSM      P10338   0.831   1.576   7.227 -0.3694 -0.2056 -0.2469
  103OSM    O1310339   0.868   1.719   7.259 -0.3417  0.5620 -0.3925
  103OSM    O1410340   0.902   1.475   7.309 -0.3064  0.2851  0.4650
  103OSM    O1110341   0.858   1.537   7.076  0.5359 -0.0372  0.5286
  103OSM    O1210342   0.676   1.548   7.252  0.3753  0.1654  0.1413
  103OSM    C1S10343   0.898   1.625   6.969  0.2824  0.4132  0.0362
  103OSM    H1S10344   0.973   1.695   7.010 -1.2058  0.0514  3.7809
  103OSM    H1T10345   0.807   1.682   6.941 -0.2112  0.2158  1.1547
  103OSM     NF10346   1.018   1.647   6.759 -0.3032 -0.2178  0.4575
  103OSM    HNF10347   0.956   1.668   6.683 -1.4349 -2.6395  0.5968
  103OSM    C2S10348   0.954   1.551   6.846  0.5767 -0.2668  0.3610
  103OSM    H2S10349   1.024   1.479   6.894  1.6741 -0.5105 -1.5236
  103OSM    C3S10350   0.855   1.448   6.774  0.2297  0.3509  0.3008
  103OSM    H3S10351   0.773   1.494   6.715  1.1765 -0.7556 -2.0331
  103OSM     O310352   0.789   1.360   6.862  0.4779  0.1771  0.3557
  103OSM    HO310353   0.805   1.402   6.947 -1.6542  2.1158 -0.1038
  103OSM    C4S10354   0.924   1.366   6.670  0.4423 -0.9244 -0.7604
  103OSM    H4S10355   0.962   1.275   6.718 -0.4161 -0.4947  0.8083
  103OSM    C5S10356   0.955   1.409   6.548 -0.7540 -0.5695 -0.4398
  103OSM    H5S10357   0.909   1.504   6.516  0.7954 -0.4448 -2.5183
  103OSM    C6S10358   1.030   1.330   6.444  0.0464 -0.5316 -0.2942
  103OSM    H6S10359   1.040   1.226   6.482  1.1539  0.3559  2.0050
  103OSM    H6T10360   1.132   1.373   6.441 -0.4613  0.8215  0.7634
  103OSM    C7S10361   0.959   1.340   6.310 -0.2058  0.1171  0.6469
  103OSM    H7S10362   0.948   1.445   6.278  2.4273  0.0709 -0.6952
  103OSM    H7T10363   0.864   1.285   6.326  1.0638 -1.9767  1.5443
  103OSM    C8S10364   1.031   1.262   6.197 -0.0891  0.4561  0.7245
  103OSM    H8S10365   1.010   1.153   6.197 -0.7310  0.5649  1.9360
  103OSM    H8T10366   1.142   1.267   6.205  0.1138 -0.6021 -0.9073
  103OSM    C9S10367   0.991   1.305   6.052 -0.0694 -0.6564  0.3507
  103OSM    H9S10368   1.023   1.407   6.022 -1.2744 -0.4689 -0.3733
  103OSM    H9T10369   0.880   1.310   6.047  0.0056  1.0303 -0.2979
  103OSM   C10S10370   1.045   1.213   5.944  0.0797  0.4883 -0.0870
  103OSM   H10S10371   1.021   1.105   5.946  2.6626 -0.1822 -1.0295
  103OSM   H10T10372   1.155   1.222   5.960  0.1744  0.0770 -0.4942
  103OSM   C11S10373   1.009   1.257   5.795 -0.2444 -0.4668  0.3876
  103OSM   H11S10374   1.026   1.365   5.775 -1.3370  0.0370  1.9818
  103OSM   H11T10375   0.898   1.263   5.785 -0.0511  1.7988 -1.3023
  103OSM   C12S10376   1.044   1.167   5.675 -0.0044  0.1874  0.5082
  103OSM   H12S10377   1.003   1.067   5.698  1.0779 -0.2025  0.8111
  103OSM   H12T10378   1.155   1.158   5.674  0.0839  1.0832 -0.8538
  103OSM   C13S10379   1.009   1.238   5.539  0.2908 -0.4091  1.2543
  103OSM   H13S10380   1.095   1.304   5.514  0.4254  0.0182  2.7431
  103OSM   H13T10381   0.914   1.294   5.550  0.3851  0.2302 -0.7268
  103OSM   C14S10382   0.998   1.147   5.414  0.3093 -0.4143 -0.6430
  103OSM   H14S10383   0.914   1.078   5.438  0.7995 -0.6714  0.4231
  103OSM   H14T10384   1.090   1.084   5.411  0.1604 -0.6712  0.0373
  103OSM   C15S10385   0.976   1.226   5.285 -0.6695 -0.2190 -0.2164
  103OSM   H15S10386   1.048   1.309   5.275 -1.7007  0.7615  0.2764
  103OSM   H15T10387   0.872   1.266   5.288 -1.5697 -2.2701 -1.3477
  103OSM   C16S10388   0.982   1.132   5.164 -0.2533 -0.9133  0.3133
  103OSM   H16S10389   0.899   1.061   5.181 -1.0059 -0.0773  0.2225
  103OSM   H16T10390   1.073   1.069   5.164 -0.4159 -1.1928 -1.2409
  103OSM   C17S10391   0.958   1.199   5.028 -0.3468 -0.3358 -0.0455
  103OSM   H17S10392   0.978   1.125   4.947  0.4219 -0.2024  0.0233
  103OSM   H17T10393   1.038   1.275   5.020 -0.3261  0.1498  3.4829
  103OSM   C18S10394   0.824   1.251   5.011 -0.2783  0.2208 -0.1851
  103OSM   H18S10395   0.743   1.175   5.021 -0.4480  0.5351  1.0448
  103OSM   H18T10396   0.817   1.286   4.906 -0.7815  1.2594  0.1843
  103OSM   H18U10397   0.816   1.341   5.076  0.4640  0.5367 -0.5204
  103OSM    C1F10398   1.127   1.721   6.788  0.7455  0.1404  0.0864
  103OSM     OF10399   1.189   1.698   6.884 -0.6630  0.0484  0.0115
  103OSM    C2F10400   1.146   1.835   6.692  0.4005 -0.1369  0.1175
  103OSM    H2F10401   1.158   1.926   6.755 -0.9262  0.2026 -0.0799
  103OSM    H2G10402   1.064   1.838   6.618 -0.0887  0.4541  0.6705
  103OSM    C3F10403   1.264   1.816   6.599  0.1564  1.0554 -0.1676
  103OSM    H3F10404   1.363   1.816   6.650  0.3018  2.9000 -0.3665
  103OSM    H3G10405   1.270   1.902   6.529 -2.6377  0.2023 -1.6056
  103OSM    C4F10406   1.251   1.693   6.509 -0.3974 -0.2568 -0.1353
  103OSM    H4F10407   1.175   1.724   6.435  2.0597 -0.6992 -3.0108
  103OSM    H4G10408   1.228   1.600   6.565  0.8005 -1.3879 -1.4521
  103OSM    C5F10409   1.378   1.677   6.429 -0.2388 -0.3702  0.1338
  103OSM    H5F10410   1.472   1.672   6.489  0.4874  0.9938 -0.8158
  103OSM    H5G10411   1.400   1.764   6.363  0.6483 -0.4660  0.2835
  103OSM    C6F10412   1.391   1.554   6.344  0.1491 -0.1594  0.0228
  103OSM    H6F10413   1.365   1.465   6.405 -3.0680  1.9080  1.9433
  103OSM    H6G10414   1.497   1.543   6.312 -0.0606 -0.3239 -0.6333
  103OSM    C7F10415   1.302   1.545   6.220 -0.1714 -0.6189  0.3644
  103OSM    H7F10416   1.198   1.570   6.251  0.4406  0.4632  1.6592
  103OSM    H7G10417   1.305   1.446   6.171  0.2633 -0.7277  0.6021
  103OSM    C8F10418   1.327   1.658   6.109 -0.2210  0.5985  1.3981
  103OSM    H8F10419   1.423   1.635   6.059 -1.0347  2.6707 -1.3710
  103OSM    H8G10420   1.333   1.756   6.161  0.1622  0.8162  0.9460
  103OSM    C9F10421   1.220   1.657   6.006 -0.1363 -0.0884 -0.1505
  103OSM    H9F10422   1.128   1.710   6.035  0.2607  1.2254 -1.1890
  103OSM   C10F10423   1.227   1.601   5.883 -0.3238 -0.4653  0.2564
  103OSM   H10F10424   1.152   1.622   5.805 -0.8574  0.0042  0.8829
  103OSM   C11F10425   1.334   1.537   5.806  0.5409 -0.0586 -0.5733
  103OSM   H11F10426   1.297   1.436   5.778 -1.9485 -0.2565  2.8067
  103OSM   H11G10427   1.424   1.519   5.869 -0.1801 -1.8021  0.0048
  103OSM   C12F10428   1.384   1.616   5.687  0.5608  0.6770  0.5904
  103OSM   H12F10429   1.487   1.586   5.659 -0.2179 -2.3262  0.5967
  103OSM   H12G10430   1.387   1.723   5.717  0.0184  0.8192  0.1665
  103OSM   C13F10431   1.284   1.593   5.571 -0.1427  0.6535  0.3618
  103OSM   H13F10432   1.185   1.629   5.606 -0.6182 -0.0258 -0.2585
  103OSM   H13G10433   1.270   1.485   5.552 -0.2035  0.7121  0.0685
  103OSM   C14F10434   1.327   1.665   5.452 -0.7360  0.1305  0.2878
  103OSM   H14F10435   1.431   1.640   5.424 -0.7443  0.4817 -0.0550
  103OSM   H14G10436   1.319   1.775   5.457 -4.6266 -0.0226  0.2794
  103OSM   C15F10437   1.229   1.638   5.338  0.1451 -0.0287 -0.1904
  103OSM   H15F10438   1.126   1.672   5.361  0.1230  0.0365 -0.3780
  103OSM   H15G10439   1.226   1.529   5.317 -3.3383 -0.2877  1.0055
  103OSM   C16F10440   1.261   1.713   5.204 -0.4943 -0.0276  0.2230
  103OSM   H16F10441   1.366   1.687   5.176 -0.2672  2.1932 -1.1989
  103OSM   H16G10442   1.257   1.821   5.228 -1.8261  0.0268 -0.1734
  103OSM   C17F10443   1.160   1.694   5.093 -0.0090  0.0652 -0.1768
  103OSM   H17F10444   1.188   1.765   5.012  2.0481  0.2136  0.6263
  103OSM   H17G10445   1.062   1.722   5.138 -0.7562  0.1302 -1.7691
  103OSM   C18F10446   1.153   1.557   5.031 -0.1612  0.2027 -0.3073
  103OSM   H18F10447   1.251   1.523   4.990 -0.0021 -0.4273  0.5541
  103OSM   H18G10448   1.074   1.551   4.954  0.6279 -1.3111 -1.0497
  103OSM   H18H10449   1.133   1.484   5.112 -0.9220 -1.4180 -1.8818
  104OSM      N10450   2.276   0.537   7.101 -0.9375 -0.2754  0.4404
  104OSM    C1510451   2.393   0.629   7.131 -0.5579 -0.5578 -0.3247
  104OSM   H15A10452   2.433   0.624   7.231  0.6287  1.1454 -0.6635
  104OSM   H15B10453   2.352   0.729   7.123  1.2883  0.2203 -0.5104
  104OSM   H15C10454   2.461   0.604   7.051 -0.7385  0.8079 -0.9347
  104OSM    C1410455   2.324   0.398   7.076 -0.0563  0.3532 -0.0043
  104OSM   H14A10456   2.359   0.373   6.977  4.2038 -1.6120  1.7432
  104OSM   H14B10457   2.253   0.323   7.108  0.5490  0.2079  1.0758
  104OSM   H14C10458   2.415   0.375   7.130 -0.2824  0.9270  0.6427
  104OSM    C1310459   2.194   0.542   7.222  0.4337  0.2431 -0.6501
  104OSM   H13A10460   2.101   0.487   7.221  1.6736 -2.0025 -0.5307
  104OSM   H13B10461   2.169   0.642   7.254  1.2939  0.6858 -1.3406
  104OSM   H13C10462   2.255   0.496   7.299  0.1893 -1.5717 -1.4813
  104OSM    C1210463   2.189   0.586   6.988 -0.8227  0.0354  0.3534
  104OSM   H12A10464   2.251   0.611   6.903  0.8438 -2.2678  0.7850
  104OSM   H12B10465   2.158   0.685   7.016  0.7388  1.3614 -2.2417
  104OSM    C1110466   2.061   0.512   6.943 -0.0821 -0.2296  0.0836
  104OSM   H11A10467   2.089   0.413   6.901  1.1983  0.7995 -1.6198
  104OSM   H11B10468   2.023   0.560   6.851 -1.1400 -1.5140 -0.1937
  104OSM      P10469   1.877   0.630   7.079 -0.3277 -0.0069  0.2567
  104OSM    O1310470   1.803   0.601   7.199 -0.7367 -0.0982  0.3646
  104OSM    O1410471   1.962   0.751   7.080 -0.4786  0.1179  0.7310
  104OSM    O1110472   1.774   0.644   6.957  0.2753 -0.0234 -0.0761
  104OSM    O1210473   1.965   0.503   7.046  0.4002 -0.0392 -0.0553
  104OSM    C1S10474   1.728   0.766   6.898  0.1998  0.2935 -0.1911
  104OSM    H1S10475   1.790   0.857   6.915 -0.5709  1.4594 -2.9277
  104OSM    H1T10476   1.625   0.779   6.939 -0.8023 -1.2099 -2.0437
  104OSM     NF10477   1.695   0.894   6.686  0.0724 -0.2160  0.7091
  104OSM    HNF10478   1.608   0.924   6.648  0.5566  0.0137 -0.2568
  104OSM    C2S10479   1.706   0.761   6.741  0.1116  0.2409  0.3928
  104OSM    H2S10480   1.803   0.720   6.704 -0.6627  1.2976 -3.1377
  104OSM    C3S10481   1.598   0.655   6.708  0.1944  0.2208 -0.0345
  104OSM    H3S10482   1.504   0.675   6.764  0.1538  1.1518 -0.4142
  104OSM     O310483   1.631   0.527   6.760  0.0793 -0.0358  0.3014
  104OSM    HO310484   1.684   0.551   6.836  1.8935 -1.1225 -0.5496
  104OSM    C4S10485   1.575   0.646   6.563  0.1224  0.6963 -0.2231
  104OSM    H4S10486   1.510   0.726   6.526 -0.8019  1.1973  2.3092
  104OSM    C5S10487   1.633   0.563   6.472 -0.0644  0.2284  0.2008
  104OSM    H5S10488   1.715   0.499   6.506  0.8930  0.7809 -0.9932
  104OSM    C6S10489   1.602   0.561   6.323  0.5735  0.3587  0.1678
  104OSM    H6S10490   1.691   0.605   6.274  1.3211  0.2765  1.4148
  104OSM    H6T10491   1.509   0.614   6.292  1.2460  0.7371 -1.3060
  104OSM    C7S10492   1.576   0.414   6.285  0.2874 -0.0240 -0.0445
  104OSM    H7S10493   1.491   0.377   6.347 -1.6758  0.7218 -2.1496
  104OSM    H7T10494   1.669   0.356   6.306 -0.8486 -1.2862  1.8209
  104OSM    C8S10495   1.526   0.407   6.141 -0.4821  0.0045  0.1431
  104OSM    H8S10496   1.433   0.467   6.135  0.5704  1.7117 -0.1236
  104OSM    H8T10497   1.519   0.300   6.114  0.9403 -0.4202  1.2926
  104OSM    C9S10498   1.628   0.463   6.046  0.6242  0.5870  0.0834
  104OSM    H9S10499   1.728   0.438   6.086  1.1195  1.3320 -0.6705
  104OSM    H9T10500   1.629   0.573   6.029 -1.7094  0.3576 -2.1428
  104OSM   C10S10501   1.627   0.411   5.898  0.3595  0.4784  0.3124
  104OSM   H10S10502   1.598   0.305   5.910  2.8650 -0.1887  1.0073
  104OSM   H10T10503   1.732   0.416   5.863  0.5240  0.5224  0.7978
  104OSM   C11S10504   1.523   0.488   5.815  0.2622  0.1776 -0.4380
  104OSM   H11S10505   1.540   0.598   5.808 -1.8905  0.5245 -0.8376
  104OSM   H11T10506   1.430   0.473   5.873  1.0948 -0.2673  0.8096
  104OSM   C12S10507   1.497   0.430   5.672  0.6319 -0.1199  0.4526
  104OSM   H12S10508   1.417   0.487   5.620 -0.2451 -0.3512  1.5101
  104OSM   H12T10509   1.474   0.321   5.676  1.0137 -0.1946  0.7392
  104OSM   C13S10510   1.619   0.445   5.585 -0.4057  0.4465 -0.4084
  104OSM   H13S10511   1.696   0.372   5.618 -1.2891 -0.0016  0.7200
  104OSM   H13T10512   1.653   0.550   5.599 -1.9064  0.9814 -0.6283
  104OSM   C14S10513   1.584   0.426   5.436 -0.0076  0.3032 -0.1358
  104OSM   H14S10514   1.547   0.325   5.411 -0.8241  0.6818 -0.5115
  104OSM   H14T10515   1.685   0.429   5.390  0.3175 -2.5746  0.2341
  104OSM   C15S10516   1.509   0.546   5.372 -0.1921  0.6512  0.4889
  104OSM   H15S10517   1.536   0.649   5.406  1.4692  1.9661 -4.0358
  104OSM   H15T10518   1.402   0.522   5.394 -0.1998 -1.1670 -1.2959
  104OSM   C16S10519   1.535   0.552   5.215 -0.3746 -0.0424  0.7938
  104OSM   H16S10520   1.640   0.571   5.188 -1.3562  0.0398 -3.7450
  104OSM   H16T10521   1.478   0.638   5.172  1.8908  0.2203 -1.9381
  104OSM   C17S10522   1.501   0.421   5.139 -0.6382  0.2423 -0.2549
  104OSM   H17S10523   1.393   0.396   5.151 -1.0742  1.5613 -1.2553
  104OSM   H17T10524   1.555   0.333   5.180 -2.0145 -0.7908 -0.6085
  104OSM   C18S10525   1.548   0.426   4.997  0.5451  0.3557  0.1177
  104OSM   H18S10526   1.527   0.528   4.958 -1.1794  0.4550  1.2249
  104OSM   H18T10527   1.495   0.352   4.933  2.5429 -1.0939  0.0400
  104OSM   H18U10528   1.657   0.407   4.984  0.4207  0.0988 -0.5893
  104OSM    C1F10529   1.792   0.989   6.677 -0.0316  0.0410 -0.4736
  104OSM     OF10530   1.905   0.973   6.733  0.0262 -0.3880  0.0294
  104OSM    C2F10531   1.758   1.105   6.583  0.0807 -0.2008 -0.6422
  104OSM    H2F10532   1.673   1.070   6.521 -0.3208  0.8578 -0.7088
  104OSM    H2G10533   1.843   1.124   6.514  1.4112  1.2909  1.2813
  104OSM    C3F10534   1.735   1.226   6.669  0.2276 -0.8437 -0.3624
  104OSM    H3F10535   1.684   1.197   6.763 -1.1925 -1.4112 -1.2751
  104OSM    H3G10536   1.670   1.286   6.602  0.4098 -1.1087 -0.7809
  104OSM    C4F10537   1.864   1.312   6.693 -0.7479  0.1610 -0.1002
  104OSM    H4F10538   1.933   1.237   6.736 -1.0667 -0.1538 -0.1339
  104OSM    H4G10539   1.823   1.384   6.768 -1.2759 -0.8464  0.6012
  104OSM    C5F10540   1.922   1.376   6.566  0.0448 -0.0085 -0.7407
  104OSM    H5F10541   1.935   1.298   6.488 -0.3899 -1.7448  0.8611
  104OSM    H5G10542   2.017   1.426   6.594 -0.1067 -0.0070 -0.2166
  104OSM    C6F10543   1.832   1.489   6.505 -0.4575  0.3414  0.0832
  104OSM    H6F10544   1.828   1.577   6.573 -0.7555 -1.9129  3.2093
  104OSM    H6G10545   1.728   1.450   6.504 -0.4177 -0.2721  4.0785
  104OSM    C7F10546   1.857   1.539   6.358  0.0004  0.0141 -0.2507
  104OSM    H7F10547   1.950   1.599   6.350 -0.0348 -0.1502 -3.2010
  104OSM    H7G10548   1.774   1.610   6.337  1.6250  1.4221 -2.2330
  104OSM    C8F10549   1.867   1.426   6.249 -0.6307 -0.5604 -0.2066
  104OSM    H8F10550   1.956   1.368   6.281 -1.5854 -1.6094  0.6122
  104OSM    H8G10551   1.876   1.488   6.157 -2.4043  1.5831  0.9753
  104OSM    C9F10552   1.747   1.336   6.242  0.0055  0.9456  0.0431
  104OSM    H9F10553   1.721   1.283   6.335 -0.9541 -0.6463 -1.0869
  104OSM   C10F10554   1.677   1.299   6.134 -0.2589  0.5675 -0.0123
  104OSM   H10F10555   1.607   1.214   6.144  0.2979  0.3146  1.9450
  104OSM   C11F10556   1.698   1.347   5.998  0.6530  0.5582 -0.4401
  104OSM   H11F10557   1.713   1.457   5.994  2.3322  0.3887  0.1182
  104OSM   H11G10558   1.618   1.321   5.926 -0.9107  0.7018  1.1851
  104OSM   C12F10559   1.823   1.279   5.928  0.7598 -0.1475 -0.0219
  104OSM   H12F10560   1.799   1.171   5.925 -2.0930  0.4211 -0.7180
  104OSM   H12G10561   1.916   1.293   5.987 -0.0859  2.6393  0.8101
  104OSM   C13F10562   1.855   1.335   5.790  0.0206 -0.2874  0.3342
  104OSM   H13F10563   1.873   1.444   5.804 -2.4875  0.3142 -0.4557
  104OSM   H13G10564   1.771   1.322   5.718  1.8581  0.2757 -2.0271
  104OSM   C14F10565   1.975   1.260   5.734 -0.0420 -0.2139  0.1678
  104OSM   H14F10566   1.942   1.154   5.727  0.5632 -0.3875 -0.0876
  104OSM   H14G10567   2.053   1.261   5.813 -0.8023  1.3789  0.9626
  104OSM   C15F10568   2.017   1.310   5.599 -0.5993 -0.7724  0.5542
  104OSM   H15F10569   2.064   1.410   5.615 -1.8703  0.0144 -0.3784
  104OSM   H15G10570   1.929   1.332   5.535 -0.0569 -0.4392 -0.0911
  104OSM   C16F10571   2.126   1.227   5.530  0.8675 -0.7100  0.7293
  104OSM   H16F10572   2.081   1.152   5.461  2.2942 -0.4525 -0.5334
  104OSM   H16G10573   2.177   1.171   5.611  0.5617 -0.6681  0.9528
  104OSM   C17F10574   2.216   1.314   5.439  0.7439  0.6913 -0.1177
  104OSM   H17F10575   2.273   1.389   5.498  0.5670  0.9510 -0.2773
  104OSM   H17G10576   2.153   1.372   5.368  2.6201  2.4406 -0.4502
  104OSM   C18F10577   2.318   1.226   5.369  0.3793  0.1524 -0.4288
  104OSM   H18F10578   2.397   1.192   5.439 -2.3547 -0.4277  2.5946
  104OSM   H18G10579   2.374   1.286   5.294  1.0814  1.4961  1.1056
  104OSM   H18H10580   2.276   1.136   5.320 -0.2786 -0.3104  0.9438
  105OSM      N10581   1.861   1.154   7.134  0.2119 -0.1443 -0.1569
  105OSM    C1510582   1.809   1.226   7.009 -0.2552 -0.5572 -0.1274
  105OSM   H15A10583   1.891   1.249   6.943 -0.2163 -0.4140 -0.0304
  105OSM   H15B10584   1.763   1.319   7.039  0.8805 -0.1463  0.4252
  105OSM   H15C10585   1.736   1.165   6.958 -1.4684 -1.6017  2.6551
  105OSM    C1410586   1.840   1.013   7.102  0.4239  0.4800  0.1676
  105OSM   H14A10587   1.734   0.995   7.089  0.5014 -0.1249  0.3720
  105OSM   H14B10588   1.880   0.950   7.180  3.7587  2.3443  0.1431
  105OSM   H14C10589   1.902   0.984   7.019  0.4503  1.4556 -0.1746
  105OSM    C1310590   2.005   1.169   7.150 -0.6497 -0.1064  0.3435
  105OSM   H13A10591   2.033   1.118   7.241 -1.4290 -0.9543  0.1327
  105OSM   H13B10592   2.029   1.273   7.161 -3.6000  0.8897 -1.4918
  105OSM   H13C10593   2.049   1.127   7.061 -1.0510  0.1269  0.0338
  105OSM    C1210594   1.779   1.179   7.262  0.1775 -0.4280  0.3465
  105OSM   H12A10595   1.805   1.096   7.325  0.7918  0.1706  0.9011
  105OSM   H12B10596   1.678   1.181   7.224  0.7647  1.4739 -1.3186
  105OSM    C1110597   1.803   1.299   7.349  0.0674 -0.5045  0.9214
  105OSM   H11A10598   1.886   1.272   7.419  1.3881  1.7043  0.3041
  105OSM   H11B10599   1.710   1.320   7.406 -1.1352  0.7140 -1.3715
  105OSM      P10600   1.736   1.519   7.205  0.2496  0.1837 -0.0664
  105OSM    O1310601   1.611   1.442   7.170  0.1986  0.4178 -0.6338
  105OSM    O1410602   1.709   1.641   7.289 -0.0189  0.4178  0.0375
  105OSM    O1110603   1.810   1.551   7.068 -0.1692 -0.2125 -0.0092
  105OSM    O1210604   1.839   1.418   7.279 -0.0062 -0.0771  0.7322
  105OSM    C1S10605   1.945   1.546   7.063  0.2345 -0.2976  0.7091
  105OSM    H1S10606   1.972   1.439   7.065 -1.1678 -0.6645  0.9514
  105OSM    H1T10607   1.987   1.615   7.139  0.3522  2.9404 -2.0207
  105OSM     NF10608   2.136   1.583   6.882  0.1288  0.2244  0.9565
  105OSM    HNF10609   2.200   1.659   6.880 -2.1172  2.4599 -4.3489
  105OSM    C2S10610   1.997   1.621   6.923 -1.0151 -0.4301  0.0025
  105OSM    H2S10611   1.929   1.576   6.847 -0.1899 -0.5243 -0.7001
  105OSM    C3S10612   1.963   1.774   6.933  0.3359 -0.5083 -0.5491
  105OSM    H3S10613   2.012   1.824   7.019 -1.3144  0.0337  0.1280
  105OSM     O310614   1.830   1.805   6.966 -0.0450  0.0810  0.0848
  105OSM    HO310615   1.789   1.726   7.004  1.3525 -0.3788  0.7045
  105OSM    C4S10616   2.021   1.843   6.812  0.4990  0.4814 -0.2024
  105OSM    H4S10617   2.124   1.880   6.818  0.6121  0.0581  0.5535
  105OSM    C5S10618   1.957   1.879   6.699  0.1555  0.4821  0.1168
  105OSM    H5S10619   1.848   1.868   6.698  0.2564 -0.6382 -0.0985
  105OSM    C6S10620   2.021   1.940   6.584 -0.5963  0.3407 -0.1160
  105OSM    H6S10621   2.126   1.969   6.606 -0.3587  1.0108 -2.0142
  105OSM    H6T10622   1.976   2.038   6.560  1.3650  1.3173  0.0377
  105OSM    C7S10623   2.001   1.855   6.464 -0.8119 -0.8028 -0.4194
  105OSM    H7S10624   1.893   1.854   6.438 -0.6421 -2.0787 -1.1588
  105OSM    H7T10625   2.035   1.751   6.480  1.6942 -0.1434 -0.9055
  105OSM    C8S10626   2.071   1.914   6.338 -0.2300  0.4733 -0.3948
  105OSM    H8S10627   2.181   1.929   6.344 -0.1919 -0.0695  0.4244
  105OSM    H8T10628   2.023   2.010   6.309  1.5077  1.5526  0.1944
  105OSM    C9S10629   2.067   1.806   6.219 -0.4145 -0.0461  0.1426
  105OSM    H9S10630   1.966   1.761   6.211 -0.1188 -0.8704  0.9162
  105OSM    H9T10631   2.145   1.729   6.238 -0.0875 -0.3913 -2.3069
  105OSM   C10S10632   2.100   1.876   6.084 -0.1522 -0.2279  0.9990
  105OSM   H10S10633   2.193   1.936   6.096  0.4654 -0.4121 -1.9839
  105OSM   H10T10634   2.015   1.938   6.050  1.5499 -0.5138 -4.8091
  105OSM   C11S10635   2.128   1.785   5.969  0.0430  0.2260 -0.1401
  105OSM   H11S10636   2.044   1.712   5.960 -0.5868  0.7502  1.2135
  105OSM   H11T10637   2.222   1.728   5.984 -0.4136 -1.4784 -3.0262
  105OSM   C12S10638   2.153   1.857   5.834 -0.5618 -0.5151  0.0786
  105OSM   H12S10639   2.233   1.929   5.860 -2.0476  1.4588 -0.6309
  105OSM   H12T10640   2.061   1.913   5.808 -1.2056 -2.1134 -1.2869
  105OSM   C13S10641   2.192   1.760   5.726  0.3567  0.4983 -0.4199
  105OSM   H13S10642   2.101   1.700   5.707  1.0127 -0.3212 -1.0510
  105OSM   H13T10643   2.266   1.682   5.755 -0.7940  0.0775  1.5711
  105OSM   C14S10644   2.239   1.824   5.598 -0.2425 -0.9747  0.4359
  105OSM   H14S10645   2.343   1.846   5.629 -0.2516 -0.7692  0.3225
  105OSM   H14T10646   2.172   1.910   5.578 -0.1004 -0.9234  0.1682
  105OSM   C15S10647   2.259   1.724   5.485 -0.0340  0.1525  0.4317
  105OSM   H15S10648   2.162   1.683   5.450  0.4055 -1.6431  1.1987
  105OSM   H15T10649   2.308   1.634   5.526 -0.2813 -0.4831 -0.6364
  105OSM   C16S10650   2.332   1.779   5.358  1.0281  0.4957 -0.5468
  105OSM   H16S10651   2.431   1.821   5.386  0.6129  1.1988 -0.1023
  105OSM   H16T10652   2.274   1.870   5.331  0.0346 -0.5375 -2.0351
  105OSM   C17S10653   2.323   1.682   5.232 -0.1980  0.2307 -0.0728
  105OSM   H17S10654   2.218   1.646   5.225 -0.8330  2.0002  0.0211
  105OSM   H17T10655   2.384   1.589   5.239 -0.7229 -0.0677  0.7203
  105OSM   C18S10656   2.361   1.745   5.092  0.0181  0.0971 -0.3757
  105OSM   H18S10657   2.272   1.794   5.048 -1.3290  0.2861  2.3599
  105OSM   H18T10658   2.394   1.667   5.020 -1.1658 -0.8876  0.0980
  105OSM   H18U10659   2.445   1.818   5.095 -0.3653  0.5656 -0.9081
  105OSM    C1F10660   2.178   1.461   6.847  0.8538 -0.4065 -0.0131
  105OSM     OF10661   2.097   1.368   6.858 -0.5271  0.7232  0.2549
  105OSM    C2F10662   2.320   1.454   6.797 -0.0631  0.5957 -0.3903
  105OSM    H2F10663   2.366   1.362   6.839 -0.9738 -1.2303 -3.1162
  105OSM    H2G10664   2.382   1.540   6.829  3.1433 -1.6899  0.0437
  105OSM    C3F10665   2.314   1.458   6.639 -0.7921 -0.3401  0.4771
  105OSM    H3F10666   2.246   1.383   6.594  0.6946 -0.3098 -1.9694
  105OSM    H3G10667   2.413   1.420   6.605  0.4869  2.6584  0.5668
  105OSM    C4F10668   2.286   1.595   6.577 -0.1727 -0.5182  0.6887
  105OSM    H4F10669   2.355   1.669   6.622  0.7043  0.6924 -2.3915
  105OSM    H4G10670   2.180   1.625   6.587  0.0045 -0.4719  2.6866
  105OSM    C5F10671   2.322   1.586   6.427  0.2285  0.2451 -0.1505
  105OSM    H5F10672   2.425   1.545   6.421 -0.0808 -0.9117  1.7389
  105OSM    H5G10673   2.317   1.694   6.398  3.5290  0.8668  1.2069
  105OSM    C6F10674   2.238   1.489   6.347 -0.3394 -0.6350  0.4197
  105OSM    H6F10675   2.132   1.523   6.356  0.3055  1.3018  1.2255
  105OSM    H6G10676   2.243   1.385   6.385 -1.3637 -1.0766 -0.5839
  105OSM    C7F10677   2.287   1.476   6.200  0.0314 -0.0467  0.4256
  105OSM    H7F10678   2.394   1.445   6.195  0.3046  1.0549 -2.2165
  105OSM    H7G10679   2.298   1.577   6.156 -1.5938 -0.6081 -1.3937
  105OSM    C8F10680   2.200   1.388   6.114 -0.1548  0.1311 -0.3768
  105OSM    H8F10681   2.104   1.444   6.107  0.1607  0.5866 -1.3002
  105OSM    H8G10682   2.186   1.290   6.163  1.8566  0.2019  0.4400
  105OSM    C9F10683   2.269   1.366   5.978  0.1786 -0.4281 -0.1771
  105OSM    H9F10684   2.239   1.432   5.895  1.6776 -0.8986 -1.1478
  105OSM   C10F10685   2.351   1.266   5.946  0.1059  0.3916  0.8887
  105OSM   H10F10686   2.408   1.253   5.853  1.0193  0.5158  1.4159
  105OSM   C11F10687   2.397   1.161   6.044  0.3922  0.6786  0.2664
  105OSM   H11F10688   2.375   1.197   6.147  1.2816  0.6755  0.4622
  105OSM   H11G10689   2.507   1.161   6.051  0.4252  1.7547 -0.1272
  105OSM   C12F10690   2.347   1.020   6.023  0.2291  0.1073  0.6489
  105OSM   H12F10691   2.236   1.024   6.027  0.2594  0.0149  2.5935
  105OSM   H12G10692   2.390   0.975   6.115  2.5796 -0.9932 -0.8746
  105OSM   C13F10693   2.410   0.938   5.901  0.3592 -0.3616 -0.4375
  105OSM   H13F10694   2.416   0.834   5.938  0.3211  0.2503  1.3454
  105OSM   H13G10695   2.515   0.971   5.886  1.8034 -3.2864  2.2822
  105OSM   C14F10696   2.341   0.929   5.769 -0.4308 -0.1166  0.0239
  105OSM   H14F10697   2.351   1.025   5.715  1.1835 -0.0889  0.3001
  105OSM   H14G10698   2.231   0.915   5.778 -0.3118 -1.5784 -0.5715
  105OSM   C15F10699   2.401   0.816   5.685 -0.1418  0.0988 -0.0266
  105OSM   H15F10700   2.347   0.806   5.589  0.9051 -1.9692 -0.4625
  105OSM   H15G10701   2.388   0.722   5.743 -1.0736 -0.7652 -1.5595
  105OSM   C16F10702   2.553   0.829   5.654 -0.2910  0.8639 -0.1117
  105OSM   H16F10703   2.609   0.843   5.748  0.2724  1.1109 -0.4794
  105OSM   H16G10704   2.569   0.924   5.598 -1.0137  1.6262  0.9316
  105OSM   C17F10705   2.619   0.705   5.596  0.7689  0.0641  0.3814
  105OSM   H17F10706   2.554   0.663   5.516  0.3860  0.1728  0.6312
  105OSM   H17G10707   2.624   0.628   5.675 -0.1383 -1.4036 -0.9245
  105OSM   C18F10708   2.755   0.738   5.547 -1.1015 -0.4481  0.3601
  105OSM   H18F10709   2.821   0.759   5.634  1.4569 -1.4029 -1.2546
  105OSM   H18G10710   2.761   0.831   5.487 -1.2350 -0.9294 -0.4103
  105OSM   H18H10711   2.803   0.660   5.484 -0.2615  0.9267 -0.7449
  106OSM      N10712   6.388   0.221   7.668 -0.4991  0.2349  0.6756
  106OSM    C1510713   6.248   0.287   7.664  0.1597  0.4975 -0.2070
  106OSM   H15A10714   6.245   0.389   7.628 -1.3127  0.1708 -1.0806
  106OSM   H15B10715   6.213   0.301   7.766  0.4804  1.3151 -0.2014
  106OSM   H15C10716   6.176   0.236   7.602 -1.1791  0.2257  1.5006
  106OSM    C1410717   6.485   0.286   7.758 -0.9290 -0.4590 -0.4617
  106OSM   H14A10718   6.577   0.228   7.755 -0.5798 -0.1550 -5.6164
  106OSM   H14B10719   6.446   0.306   7.856  0.0388  1.7200 -0.4622
  106OSM   H14C10720   6.521   0.373   7.705 -1.3636  0.3250  0.5034
  106OSM    C1310721   6.362   0.081   7.716 -0.6763  0.7805 -0.4457
  106OSM   H13A10722   6.454   0.023   7.716 -0.1940  1.4711  1.4023
  106OSM   H13B10723   6.295   0.022   7.655  0.9417 -1.6075 -0.0703
  106OSM   H13C10724   6.319   0.077   7.815  1.1029  0.0830  0.3620
  106OSM    C1210725   6.462   0.221   7.539 -0.2107 -0.1525 -0.1826
  106OSM   H12A10726   6.548   0.156   7.547 -0.2727 -0.2873 -0.6077
  106OSM   H12B10727   6.501   0.321   7.521  4.5366 -0.9768  3.3694
  106OSM    C1110728   6.387   0.169   7.413 -0.0792 -0.2499  0.1223
  106OSM   H11A10729   6.457   0.188   7.329 -1.4559  0.1136 -0.9771
  106OSM   H11B10730   6.297   0.226   7.381  0.3978  1.3243  1.4649
  106OSM      P10731   6.432  -0.082   7.353  0.3141 -0.2672 -0.0843
  106OSM    O1310732   6.567  -0.047   7.314 -0.4088  0.8283  0.2536
  106OSM    O1410733   6.416  -0.198   7.435 -0.1967  0.1130  0.3652
  106OSM    O1110734   6.343  -0.106   7.223 -0.4972  0.0709  0.2006
  106OSM    O1210735   6.355   0.033   7.420  0.0458  0.2068 -0.4917
  106OSM    C1S10736   6.308  -0.002   7.132  0.5598 -0.0323 -0.2873
  106OSM    H1S10737   6.368   0.091   7.135 -1.3663  1.3217 -1.3490
  106OSM    H1T10738   6.201   0.019   7.151  0.5288  0.3801 -0.8979
  106OSM     NF10739   6.292   0.043   6.889 -0.8991 -0.1410 -0.7758
  106OSM    HNF10740   6.225   0.033   6.816  0.2768  1.0013 -2.0645
  106OSM    C2S10741   6.302  -0.065   6.989  0.3841 -0.2880 -0.1146
  106OSM    H2S10742   6.400  -0.116   6.980  0.0151 -0.8132 -1.3402
  106OSM    C3S10743   6.199  -0.182   6.970  0.5633  0.2291  0.2266
  106OSM    H3S10744   6.096  -0.139   6.973 -0.7504 -2.7011  0.1488
  106OSM     O310745   6.195  -0.263   7.082 -0.2915 -0.3474  0.3303
  106OSM    HO310746   6.260  -0.223   7.141 -0.3846  2.0446 -1.0615
  106OSM    C4S10747   6.213  -0.260   6.844  0.2854 -0.2899  0.3025
  106OSM    H4S10748   6.319  -0.285   6.824  0.2441 -1.2216  1.1508
  106OSM    C5S10749   6.122  -0.296   6.757  0.4471  0.0362  0.2359
  106OSM    H5S10750   6.018  -0.261   6.767  0.3497 -0.7993  2.5837
  106OSM    C6S10751   6.136  -0.369   6.629  0.2908  0.0135  0.2460
  106OSM    H6S10752   6.051  -0.437   6.606  3.0025 -3.4765 -0.3773
  106OSM    H6T10753   6.222  -0.440   6.628 -0.0594 -0.4993  2.1931
  106OSM    C7S10754   6.150  -0.276   6.505  0.1998  0.3193 -0.0969
  106OSM    H7S10755   6.239  -0.211   6.511  1.1803 -0.7380 -2.2186
  106OSM    H7T10756   6.058  -0.215   6.497  0.0440 -0.0679 -1.4281
  106OSM    C8S10757   6.162  -0.349   6.379 -0.1926 -0.1284  0.0373
  106OSM    H8S10758   6.076  -0.418   6.369 -0.8844  1.0550 -3.4270
  106OSM    H8T10759   6.255  -0.410   6.391 -0.0968 -0.3740 -1.6698
  106OSM    C9S10760   6.168  -0.265   6.256 -0.5610 -0.4199 -0.5230
  106OSM    H9S10761   6.265  -0.211   6.258 -0.2947 -0.8614 -1.0653
  106OSM    H9T10762   6.090  -0.185   6.256  0.4199  0.7261  2.9036
  106OSM   C10S10763   6.160  -0.340   6.120 -0.0859 -0.2039 -0.0098
  106OSM   H10S10764   6.060  -0.387   6.113  1.3839 -3.6097 -0.2784
  106OSM   H10T10765   6.231  -0.426   6.109 -1.3974 -1.2894 -0.2400
  106OSM   C11S10766   6.168  -0.254   5.993 -0.5129  0.2204 -0.3685
  106OSM   H11S10767   6.269  -0.208   5.989  0.2947 -1.2455  1.5408
  106OSM   H11T10768   6.090  -0.176   6.009 -0.5042 -0.0954  1.3645
  106OSM   C12S10769   6.137  -0.316   5.861  0.0731  0.3619  0.5868
  106OSM   H12S10770   6.027  -0.330   5.852  0.2960 -0.0579 -3.7918
  106OSM   H12T10771   6.209  -0.400   5.856 -0.4983 -0.1037  0.0617
  106OSM   C13S10772   6.154  -0.221   5.737 -0.8459 -0.5298 -0.6285
  106OSM   H13S10773   6.261  -0.190   5.744 -0.8776 -0.8116  2.3181
  106OSM   H13T10774   6.104  -0.122   5.739 -1.7668 -0.9338  2.8026
  106OSM   C14S10775   6.129  -0.303   5.607  0.1560 -0.1305 -0.9453
  106OSM   H14S10776   6.027  -0.345   5.608  0.3701 -0.7074 -1.7007
  106OSM   H14T10777   6.197  -0.391   5.608  0.6164  0.2141 -1.1527
  106OSM   C15S10778   6.153  -0.224   5.478  0.4570 -0.2238 -0.5323
  106OSM   H15S10779   6.253  -0.177   5.477  0.6004 -0.4509  0.7142
  106OSM   H15T10780   6.083  -0.138   5.482  3.3344  2.2356  1.7060
  106OSM   C16S10781   6.131  -0.305   5.348 -0.1369  0.2044 -0.6408
  106OSM   H16S10782   6.031  -0.353   5.351 -0.8300  1.6218 -0.1498
  106OSM   H16T10783   6.204  -0.389   5.347 -1.1901 -0.7909 -3.2202
  106OSM   C17S10784   6.150  -0.218   5.219 -0.1130  0.1575  0.4192
  106OSM   H17S10785   6.101  -0.121   5.243  0.2935  0.4291  0.1569
  106OSM   H17T10786   6.095  -0.268   5.137 -0.2302 -0.9491  1.1425
  106OSM   C18S10787   6.295  -0.200   5.176  0.2752  0.1474  0.4093
  106OSM   H18S10788   6.344  -0.119   5.234  2.6271 -1.1347  0.3500
  106OSM   H18T10789   6.294  -0.171   5.069  1.7154  1.5315  0.7259
  106OSM   H18U10790   6.353  -0.295   5.179 -3.9627 -2.7350 -0.4803
  106OSM    C1F10791   6.385   0.139   6.874 -0.1055  0.3626  0.1282
  106OSM     OF10792   6.473   0.160   6.952 -0.1424  0.4648  0.0815
  106OSM    C2F10793   6.383   0.213   6.745 -0.3676 -0.2643  0.1817
  106OSM    H2F10794   6.282   0.256   6.731  0.4455  2.6565  2.4283
  106OSM    H2G10795   6.401   0.137   6.666  1.5923 -0.0096  0.3343
  106OSM    C3F10796   6.506   0.308   6.730 -0.1860  0.0633  0.4378
  106OSM    H3F10797   6.599   0.249   6.748  0.6657  0.8793 -1.1569
  106OSM    H3G10798   6.493   0.384   6.810  1.1800 -0.5253  1.2759
  106OSM    C4F10799   6.539   0.374   6.590  0.6269  1.1313  0.3607
  106OSM    H4F10800   6.616   0.454   6.600  2.4882 -0.6166  0.7827
  106OSM    H4G10801   6.439   0.408   6.558 -1.3533 -2.7372  1.7215
  106OSM    C5F10802   6.596   0.274   6.484  0.5187 -0.3980  0.9317
  106OSM    H5F10803   6.519   0.201   6.452 -0.3113 -0.0846  2.1318
  106OSM    H5G10804   6.690   0.226   6.520  0.9722 -1.3055 -1.3308
  106OSM    C6F10805   6.631   0.353   6.355  0.4707 -0.1383 -0.6635
  106OSM    H6F10806   6.697   0.436   6.387  1.1058  0.2347 -2.7889
  106OSM    H6G10807   6.541   0.398   6.307  0.1188  0.1427  0.2369
  106OSM    C7F10808   6.710   0.268   6.255  0.8675 -0.5397 -0.5889
  106OSM    H7F10809   6.653   0.179   6.221  2.6274 -0.8508 -2.9718
  106OSM    H7G10810   6.805   0.234   6.303  1.0750 -1.6200 -1.7255
  106OSM    C8F10811   6.742   0.357   6.135  0.1846 -0.2497  0.9325
  106OSM    H8F10812   6.807   0.440   6.169  0.3601 -0.1247  0.2896
  106OSM    H8G10813   6.651   0.409   6.100 -0.4148 -2.5581 -1.1967
  106OSM    C9F10814   6.797   0.293   6.011 -0.6747 -0.1650 -0.4135
  106OSM    H9F10815   6.831   0.188   6.018 -0.7441 -0.2787 -1.5999
  106OSM   C10F10816   6.813   0.349   5.889 -0.0843  0.1668 -0.3209
  106OSM   H10F10817   6.875   0.288   5.821  1.1184  0.6984  0.2621
  106OSM   C11F10818   6.780   0.488   5.854  0.1755 -0.4302 -0.2009
  106OSM   H11F10819   6.806   0.556   5.938  1.1648  0.1523 -0.9628
  106OSM   H11G10820   6.671   0.505   5.842  0.1450 -0.9329 -0.6623
  106OSM   C12F10821   6.841   0.535   5.719  1.2858 -0.5083  0.0086
  106OSM   H12F10822   6.952   0.536   5.725  1.3010 -1.0567 -0.1488
  106OSM   H12G10823   6.802   0.636   5.693 -0.1930 -0.0502  3.4418
  106OSM   C13F10824   6.806   0.441   5.604  0.1693  0.2132  0.6851
  106OSM   H13F10825   6.695   0.441   5.597  0.2535  1.4430 -4.0230
  106OSM   H13G10826   6.845   0.338   5.620  0.1646  0.5390  3.1544
  106OSM   C14F10827   6.853   0.497   5.470  0.6424  0.7019 -0.1329
  106OSM   H14F10828   6.963   0.510   5.468  0.8268 -0.1459  2.0231
  106OSM   H14G10829   6.806   0.597   5.457 -2.0206 -0.5285 -0.7864
  106OSM   C15F10830   6.802   0.416   5.352 -0.0458 -0.3598  0.2232
  106OSM   H15F10831   6.691   0.423   5.353 -0.0607 -0.1173  2.2218
  106OSM   H15G10832   6.821   0.311   5.382 -3.0660 -0.7842  1.0165
  106OSM   C16F10833   6.865   0.451   5.219  0.0511 -0.0268 -0.1537
  106OSM   H16F10834   6.963   0.398   5.220 -1.2646 -2.6064 -0.7172
  106OSM   H16G10835   6.881   0.561   5.208  1.1828 -0.3347 -2.1059
  106OSM   C17F10836   6.787   0.405   5.096  0.5067 -0.1067 -0.0578
  106OSM   H17F10837   6.691   0.459   5.109 -0.0748 -0.9490 -0.6388
  106OSM   H17G10838   6.768   0.295   5.086 -0.6974  0.1290 -0.5912
  106OSM   C18F10839   6.841   0.451   4.966  0.2079  0.4129  0.1018
  106OSM   H18F10840   6.791   0.406   4.878 -0.8338 -0.9558  1.3631
  106OSM   H18G10841   6.942   0.406   4.970 -0.5559 -1.4272 -0.4623
  106OSM   H18H10842   6.848   0.562   4.962 -0.8191  0.5536  1.6085
  107OSM      N10843   1.907   4.015   7.109 -0.1314  0.1106  0.4210
  107OSM    C1510844   2.027   3.978   7.193  0.4655 -0.0431  0.5740
  107OSM   H15A10845   1.994   3.931   7.285  2.4231  1.1350  1.9528
  107OSM   H15B10846   2.078   4.072   7.210  0.3795  0.8334 -3.1701
  107OSM   H15C10847   2.093   3.913   7.138 -1.1364 -0.6447 -0.7117
  107OSM    C1410848   1.815   3.898   7.099 -0.0311 -0.5611  0.2444
  107OSM   H14A10849   1.740   3.914   7.023 -0.4289  0.9664  0.9202
  107OSM   H14B10850   1.770   3.882   7.196 -0.1121  0.3585  0.3627
  107OSM   H14C10851   1.873   3.807   7.086 -0.0085 -0.7369  1.4300
  107OSM    C1310852   1.829   4.125   7.173  1.0979 -0.6250  0.5082
  107OSM   H13A10853   1.883   4.218   7.177 -3.1624  2.1849 -0.6541
  107OSM   H13B10854   1.795   4.100   7.273 -1.5594  0.9626  0.1082
  107OSM   H13C10855   1.739   4.149   7.117  1.1760  1.1671  1.0957
  107OSM    C1210856   1.964   4.060   6.971  0.1694  0.5983 -0.5340
  107OSM   H12A10857   2.024   3.980   6.930 -1.0345  0.2664 -1.7241
  107OSM   H12B10858   2.033   4.138   7.000  1.0347  0.2162 -1.4975
  107OSM    C1110859   1.876   4.130   6.871  0.4302 -0.3322 -0.0896
  107OSM   H11A10860   1.768   4.104   6.876 -0.3659  2.5989 -0.0493
  107OSM   H11B10861   1.904   4.103   6.767  3.3978 -1.9792  1.0274
  107OSM      P10862   2.005   4.359   6.837 -0.2480  0.3233  0.4181
  107OSM    O1310863   1.993   4.498   6.894  0.2459  0.1214  0.6542
  107OSM    O1410864   2.131   4.284   6.860 -0.2149 -0.2161  0.3180
  107OSM    O1110865   1.962   4.359   6.677 -0.2579 -0.2288 -0.0054
  107OSM    O1210866   1.892   4.270   6.900 -1.1125  0.1710  0.6375
  107OSM    C1S10867   1.833   4.398   6.642 -0.2384 -0.0583  0.5167
  107OSM    H1S10868   1.820   4.508   6.633  0.0879  0.2019  2.5971
  107OSM    H1T10869   1.754   4.360   6.711 -1.5305  3.0640  0.9402
  107OSM     NF10870   1.628   4.384   6.491 -0.5053  0.6353  0.0484
  107OSM    HNF10871   1.568   4.305   6.484  1.2921 -0.9274  1.0345
  107OSM    C2S10872   1.772   4.350   6.501 -0.6255 -0.4525 -0.1860
  107OSM    H2S10873   1.822   4.416   6.426 -1.8403  1.3539  0.5183
  107OSM    C3S10874   1.808   4.210   6.473  0.2858 -0.2909  0.2192
  107OSM    H3S10875   1.744   4.151   6.542 -0.4689  0.7814  0.4576
  107OSM     O310876   1.935   4.166   6.511 -0.4474 -0.4477 -0.3454
  107OSM    HO310877   1.950   4.238   6.573 -2.4242  0.0240 -0.3452
  107OSM    C4S10878   1.777   4.177   6.329 -0.5759 -0.0743 -0.3164
  107OSM    H4S10879   1.676   4.136   6.313 -0.6022 -0.0507 -0.2144
  107OSM    C5S10880   1.860   4.184   6.222  0.0632  0.2099 -0.7407
  107OSM    H5S10881   1.955   4.237   6.243  0.2143 -0.3465  0.0269
  107OSM    C6S10882   1.837   4.148   6.079  0.3684 -0.4823  0.4323
  107OSM    H6S10883   1.909   4.071   6.045  1.0043 -0.4102  1.5593
  107OSM    H6T10884   1.848   4.243   6.022  1.4392  0.0503  1.4735
  107OSM    C7S10885   1.693   4.102   6.055 -0.0360 -0.0781 -0.6521
  107OSM    H7S10886   1.622   4.177   6.096  1.0199  0.0731  0.9631
  107OSM    H7T10887   1.683   4.003   6.104  0.2514  0.3340  0.2625
  107OSM    C8S10888   1.657   4.087   5.908  0.2130  0.4304 -0.0607
  107OSM    H8S10889   1.557   4.040   5.898  1.1041 -1.4628 -0.5419
  107OSM    H8T10890   1.724   4.017   5.853 -0.0080  1.1447 -1.2815
  107OSM    C9S10891   1.664   4.226   5.829  0.0822  0.3161  0.3326
  107OSM    H9S10892   1.770   4.258   5.827  0.0187  0.5412  0.7116
  107OSM    H9T10893   1.607   4.308   5.876  0.3007 -0.1617  1.4573
  107OSM   C10S10894   1.615   4.213   5.685  0.4642 -0.2527 -0.0002
  107OSM   H10S10895   1.567   4.308   5.654 -0.8441 -0.7669  0.3871
  107OSM   H10T10896   1.546   4.127   5.676  0.5811 -0.2916 -0.5615
  107OSM   C11S10897   1.734   4.194   5.586 -0.1460 -0.2924  0.5760
  107OSM   H11S10898   1.801   4.113   5.621 -2.4615 -1.6065  2.1864
  107OSM   H11T10899   1.781   4.294   5.575 -0.3038 -0.2794 -0.0195
  107OSM   C12S10900   1.685   4.154   5.449 -0.1129  0.1576  0.6900
  107OSM   H12S10901   1.611   4.227   5.410 -0.6271 -2.0772 -3.0705
  107OSM   H12T10902   1.633   4.056   5.445  0.4993 -0.1560 -2.7609
  107OSM   C13S10903   1.796   4.156   5.342  0.0019  0.4215 -0.0112
  107OSM   H13S10904   1.861   4.066   5.341 -0.4681  0.0786 -0.4170
  107OSM   H13T10905   1.868   4.240   5.350 -0.6894  1.1935 -1.4212
  107OSM   C14S10906   1.734   4.157   5.201  1.1238  0.1838  0.0102
  107OSM   H14S10907   1.822   4.161   5.134  1.4090 -0.3301  0.3413
  107OSM   H14T10908   1.678   4.253   5.199 -0.0974 -0.3666  2.8269
  107OSM   C15S10909   1.641   4.038   5.167 -0.3319  0.2615  0.4306
  107OSM   H15S10910   1.557   4.042   5.239 -1.1587 -0.8622 -0.4415
  107OSM   H15T10911   1.696   3.943   5.185 -0.0832  0.0870 -1.0935
  107OSM   C16S10912   1.581   4.048   5.031  0.1108 -0.5270  0.3719
  107OSM   H16S10913   1.664   4.050   4.958 -0.1199  0.0233  0.1160
  107OSM   H16T10914   1.528   4.145   5.017  0.5363 -0.6681 -2.9868
  107OSM   C17S10915   1.485   3.930   5.000  0.0817  0.1702  0.2004
  107OSM   H17S10916   1.405   3.931   5.077 -1.0995  0.1624 -0.9826
  107OSM   H17T10917   1.533   3.830   4.999  0.3099  0.2516  1.3426
  107OSM   C18S10918   1.400   3.962   4.867 -0.7971 -0.0969  0.0150
  107OSM   H18S10919   1.341   4.056   4.879  1.5101  1.2705  1.5411
  107OSM   H18T10920   1.332   3.877   4.844 -0.3317 -0.4707  0.0158
  107OSM   H18U10921   1.485   3.975   4.796  0.5637 -1.1565  1.3791
  107OSM    C1F10922   1.591   4.508   6.474 -0.4415 -0.8312 -0.4660
  107OSM     OF10923   1.675   4.599   6.469 -0.1437 -0.1166 -0.4824
  107OSM    C2F10924   1.445   4.530   6.471 -0.1967  1.1134  0.3980
  107OSM    H2F10925   1.406   4.584   6.559 -1.1406 -1.2124  1.4779
  107OSM    H2G10926   1.398   4.429   6.471 -0.0095  0.9409 -2.4412
  107OSM    C3F10927   1.397   4.601   6.335  0.3707  0.1324 -0.0027
  107OSM    H3F10928   1.422   4.709   6.340 -0.1936  0.2349  0.8066
  107OSM    H3G10929   1.287   4.592   6.322  0.5173  1.0099 -2.3346
  107OSM    C4F10930   1.443   4.531   6.208  0.2528 -0.1967  0.3251
  107OSM    H4F10931   1.393   4.437   6.176  0.8605 -0.5200  0.3073
  107OSM    H4G10932   1.546   4.494   6.229  0.0436  0.6399  3.2899
  107OSM    C5F10933   1.428   4.631   6.091 -0.3971  0.0572 -0.1071
  107OSM    H5F10934   1.459   4.734   6.119  0.7143 -0.3037  0.0197
  107OSM    H5G10935   1.320   4.633   6.063 -0.8705 -1.5937  1.4177
  107OSM    C6F10936   1.514   4.594   5.964 -0.2206  0.8004  0.1201
  107OSM    H6F10937   1.495   4.670   5.885  0.7067 -0.9092 -1.8457
  107OSM    H6G10938   1.480   4.497   5.923  1.8267 -0.7555  1.9195
  107OSM    C7F10939   1.666   4.576   6.001 -0.6414  0.0723  0.2437
  107OSM    H7F10940   1.680   4.492   6.072  0.6701 -0.8912 -1.0911
  107OSM    H7G10941   1.684   4.673   6.052  2.1832  0.2215 -0.8364
  107OSM    C8F10942   1.766   4.577   5.883  0.0337  0.0204 -0.1940
  107OSM    H8F10943   1.738   4.491   5.819  0.3477 -0.6476  0.5370
  107OSM    H8G10944   1.873   4.560   5.911  0.0680 -0.7713 -0.7748
  107OSM    C9F10945   1.766   4.701   5.797 -0.0603 -0.2067 -0.2762
  107OSM    H9F10946   1.842   4.773   5.830  0.4174 -2.1523  3.4416
  107OSM   C10F10947   1.681   4.737   5.702 -0.1881  0.2441 -0.3897
  107OSM   H10F10948   1.706   4.835   5.658  0.7869  0.1416 -0.0762
  107OSM   C11F10949   1.562   4.664   5.646  0.3414  0.3394 -0.4188
  107OSM   H11F10950   1.463   4.682   5.692  0.7486  0.8100  0.2855
  107OSM   H11G10951   1.570   4.555   5.663 -0.7284  0.0952 -1.2973
  107OSM   C12F10952   1.565   4.682   5.488  0.0933  0.5379 -0.6568
  107OSM   H12F10953   1.664   4.647   5.452 -1.2356 -3.2819 -0.9809
  107OSM   H12G10954   1.549   4.789   5.462 -3.0283  0.5183  0.7623
  107OSM   C13F10955   1.455   4.599   5.419  0.8907  0.0075 -0.4225
  107OSM   H13F10956   1.362   4.659   5.420  0.7241  0.1074  5.1359
  107OSM   H13G10957   1.435   4.503   5.472 -1.1952 -0.5893 -2.1298
  107OSM   C14F10958   1.494   4.575   5.270 -0.0975 -0.0532  0.4590
  107OSM   H14F10959   1.575   4.499   5.270  1.9778  2.0544 -0.5736
  107OSM   H14G10960   1.531   4.670   5.227  1.5026 -0.6807  0.4057
  107OSM   C15F10961   1.377   4.514   5.193  0.2221 -0.1349  0.2497
  107OSM   H15F10962   1.292   4.584   5.210  1.5693  0.7598  4.7522
  107OSM   H15G10963   1.339   4.420   5.239 -4.6189  1.4237  0.0907
  107OSM   C16F10964   1.410   4.506   5.041  0.6332 -0.5183 -0.5577
  107OSM   H16F10965   1.511   4.464   5.023  0.1657 -0.6084 -3.6305
  107OSM   H16G10966   1.420   4.611   5.004  1.6232 -0.4625 -0.1586
  107OSM   C17F10967   1.304   4.440   4.956  0.0614  0.3070  0.2656
  107OSM   H17F10968   1.215   4.504   4.973 -0.3099 -0.3491  0.8839
  107OSM   H17G10969   1.276   4.337   4.987  0.7190 -0.1349 -0.5988
  107OSM   C18F10970   1.336   4.427   4.810 -0.1796 -0.4024  0.1626
  107OSM   H18F10971   1.247   4.383   4.761 -0.6805  0.1691  0.5503
  107OSM   H18G10972   1.434   4.377   4.792 -0.1190 -0.8132  1.5094
  107OSM   H18H10973   1.343   4.530   4.769 -3.5166  0.5730  1.7227
  108OSM      N10974   4.334   4.767   6.888  0.5060  0.1394 -0.0951
  108OSM    C1510975   4.330   4.806   7.030 -0.3599  0.4775 -0.4620
  108OSM   H15A10976   4.372   4.906   7.032  0.6503  0.0614 -0.5359
  108OSM   H15B10977   4.395   4.742   7.088 -0.2485  0.6290 -0.4198
  108OSM   H15C10978   4.232   4.807   7.075 -1.0734  2.3086 -1.8945
  108OSM    C1410979   4.474   4.768   6.841  0.1405  0.6431 -0.4259
  108OSM   H14A10980   4.516   4.868   6.847 -2.2376  1.9193 -2.9462
  108OSM   H14B10981   4.486   4.737   6.739 -0.9625  0.2979 -0.4549
  108OSM   H14C10982   4.547   4.705   6.890  0.3306  0.5439 -0.8347
  108OSM    C1310983   4.275   4.628   6.881 -0.0195  0.0390 -0.6214
  108OSM   H13A10984   4.173   4.627   6.915  0.4708  1.2376  1.0014
  108OSM   H13B10985   4.324   4.551   6.939  1.9341  0.1395 -2.0191
  108OSM   H13C10986   4.261   4.597   6.778 -4.7285 -1.0353  0.1475
  108OSM    C1210987   4.249   4.861   6.809  0.2039  0.6876 -0.2546
  108OSM   H12A10988   4.254   4.818   6.710 -1.3033 -2.3189  0.8428
  108OSM   H12B10989   4.287   4.962   6.805 -2.2340  1.6680  0.0802
  108OSM    C1110990   4.099   4.874   6.846 -0.1582 -0.2240 -0.3581
  108OSM   H11A10991   4.053   4.772   6.854 -0.7419  0.0047 -0.7101
  108OSM   H11B10992   4.045   4.933   6.769 -0.1540  0.0674 -0.1406
  108OSM      P10993   3.967   4.957   7.058 -0.3651  0.2238 -0.1266
  108OSM    O1310994   3.911   4.822   7.073  0.7198 -0.7571 -0.1959
  108OSM    O1410995   4.014   5.014   7.188  0.0790  0.2325 -0.6369
  108OSM    O1110996   3.863   5.046   6.988 -0.0420 -0.0353  0.9960
  108OSM    O1210997   4.093   4.953   6.965  0.3644 -0.2650  0.1640
  108OSM    C1S10998   3.900   5.151   6.897  0.3029 -0.1612  0.2307
  108OSM    H1S10999   4.008   5.140   6.872  0.5796 -2.1244  1.9857
  108OSM    H1T11000   3.896   5.253   6.940 -1.2243  0.3894 -1.1202
  108OSM     NF11001   3.853   5.231   6.662  0.0069  0.5468 -1.1372
  108OSM    HNF11002   3.795   5.311   6.649 -2.4995 -1.1478 -1.0387
  108OSM    C2S11003   3.810   5.145   6.773 -0.1878  0.7401  0.0529
  108OSM    H2S11004   3.814   5.040   6.737  1.2401  1.3063 -1.6060
  108OSM    C3S11005   3.660   5.165   6.817  0.2964  0.3669 -0.4104
  108OSM    H3S11006   3.650   5.266   6.862  3.9579  0.2276  1.0644
  108OSM     O311007   3.613   5.070   6.910 -0.0356 -0.4804 -0.3543
  108OSM    HO311008   3.694   5.051   6.958  0.3433 -0.3773 -0.9434
  108OSM    C4S11009   3.565   5.157   6.701  0.1069  0.0795 -0.4694
  108OSM    H4S11010   3.583   5.074   6.631  1.7646  0.6643 -0.7681
  108OSM    C5S11011   3.452   5.232   6.683 -0.5122 -0.3114  0.3775
  108OSM    H5S11012   3.438   5.307   6.762 -0.4909 -0.8432  0.8959
  108OSM    C6S11013   3.356   5.231   6.573  0.0384 -0.8079  0.1110
  108OSM    H6S11014   3.339   5.333   6.534 -1.2286 -0.9805  0.1533
  108OSM    H6T11015   3.258   5.186   6.601 -0.5757  0.7759  0.6310
  108OSM    C7S11016   3.409   5.158   6.444 -0.3481 -0.4740  0.0679
  108OSM    H7S11017   3.416   5.048   6.459  0.4672 -0.2790  1.2275
  108OSM    H7T11018   3.509   5.197   6.415 -1.7920  2.8130 -0.8804
  108OSM    C8S11019   3.335   5.209   6.313 -0.1551 -0.4359 -0.1618
  108OSM    H8S11020   3.337   5.320   6.316  1.2000 -0.4314 -0.5003
  108OSM    H8T11021   3.230   5.172   6.317  0.4193 -2.0761  0.3170
  108OSM    C9S11022   3.407   5.169   6.187 -0.1827  1.0408  0.3244
  108OSM    H9S11023   3.406   5.059   6.174 -2.0766  0.9518  0.9078
  108OSM    H9T11024   3.508   5.214   6.174  0.5709  0.1158  2.6143
  108OSM   C10S11025   3.337   5.213   6.057 -0.3734 -0.7575 -0.3766
  108OSM   H10S11026   3.325   5.323   6.045 -1.4391 -0.7106  0.9088
  108OSM   H10T11027   3.243   5.153   6.058  0.4179 -2.0294  0.3507
  108OSM   C11S11028   3.424   5.170   5.938  0.1424 -0.0310  0.6020
  108OSM   H11S11029   3.442   5.061   5.950 -2.3918 -0.5479  0.3343
  108OSM   H11T11030   3.512   5.234   5.920 -1.7516  2.1335 -1.7827
  108OSM   C12S11031   3.345   5.168   5.810  0.1879  0.4986  0.5810
  108OSM   H12S11032   3.333   5.276   5.785  0.7675  0.4092 -0.1037
  108OSM   H12T11033   3.244   5.122   5.811  0.9869 -1.3514  1.7239
  108OSM   C13S11034   3.400   5.098   5.691 -0.4364  0.0625  0.2204
  108OSM   H13S11035   3.434   4.996   5.718  4.7002  1.4929  0.1914
  108OSM   H13T11036   3.498   5.144   5.666 -0.4102 -0.0332  0.1465
  108OSM   C14S11037   3.314   5.107   5.563 -0.0037  0.0866 -0.0921
  108OSM   H14S11038   3.296   5.215   5.548  0.5623  0.3292  0.9073
  108OSM   H14T11039   3.219   5.061   5.598  1.7957 -2.2343  2.0815
  108OSM   C15S11040   3.372   5.044   5.438  0.1903 -0.8177  0.8227
  108OSM   H15S11041   3.441   4.962   5.467  1.2528 -0.1143  0.2951
  108OSM   H15T11042   3.434   5.118   5.385 -1.5981  1.0876  1.2475
  108OSM   C16S11043   3.271   4.971   5.352  1.3226  0.0747  0.0710
  108OSM   H16S11044   3.203   5.041   5.299 -0.5828  0.2446  2.5612
  108OSM   H16T11045   3.201   4.916   5.419 -1.7752  0.9933 -2.1819
  108OSM   C17S11046   3.327   4.875   5.239 -0.6947  0.3302  0.6022
  108OSM   H17S11047   3.358   4.779   5.286  0.2293  0.5800  0.5206
  108OSM   H17T11048   3.421   4.917   5.197  1.1135  0.5324  4.3625
  108OSM   C18S11049   3.231   4.845   5.126  0.4687  0.4868  0.1351
  108OSM   H18S11050   3.282   4.790   5.044  0.3528 -0.1676  0.4960
  108OSM   H18T11051   3.204   4.946   5.088 -0.3842  0.7091  1.2794
  108OSM   H18U11052   3.138   4.795   5.158  0.0143  2.1822  1.5499
  108OSM    C1F11053   3.961   5.203   6.586  0.9059 -0.6578 -0.8373
  108OSM     OF11054   4.003   5.091   6.574  0.3122  0.2670  0.3444
  108OSM    C2F11055   4.020   5.315   6.502  0.2480 -0.1215  0.1530
  108OSM    H2F11056   4.107   5.352   6.561 -0.8949  0.8506  1.2822
  108OSM    H2G11057   3.947   5.399   6.507  0.9116  0.7254 -2.3283
  108OSM    C3F11058   4.051   5.277   6.354  0.0583 -0.1103  0.4653
  108OSM    H3F11059   4.131   5.200   6.353  0.4851  0.2792  1.8575
  108OSM    H3G11060   4.100   5.360   6.298  0.8785 -0.0869  1.2051
  108OSM    C4F11061   3.928   5.231   6.267 -0.1038  0.5305 -0.1436
  108OSM    H4F11062   3.864   5.319   6.242 -1.2253 -0.2837 -0.2111
  108OSM    H4G11063   3.858   5.175   6.332  0.3896 -0.5235 -0.5019
  108OSM    C5F11064   3.948   5.132   6.157 -0.5116 -0.6715  0.1373
  108OSM    H5F11065   3.845   5.108   6.123 -1.2731  2.7741 -0.4322
  108OSM    H5G11066   3.996   5.040   6.198  1.1666 -0.0171 -0.2670
  108OSM    C6F11067   4.028   5.193   6.026 -0.4486 -0.4896  0.1918
  108OSM    H6F11068   4.112   5.245   6.076 -0.6851 -0.0430  0.1324
  108OSM    H6G11069   3.953   5.253   5.969 -0.6755 -1.5627 -0.6733
  108OSM    C7F11070   4.089   5.082   5.935 -0.1611  0.5621 -0.4504
  108OSM    H7F11071   4.164   5.033   6.000 -0.4313 -0.2641 -0.7488
  108OSM    H7G11072   4.138   5.140   5.854  1.3951  0.9839  0.7374
  108OSM    C8F11073   3.987   4.992   5.861 -0.4970 -0.4512 -0.1161
  108OSM    H8F11074   3.956   4.915   5.935  1.7283  0.4441  1.8957
  108OSM    H8G11075   4.034   4.933   5.780  0.2794 -1.4817  1.0479
  108OSM    C9F11076   3.862   5.059   5.814  0.0907  0.4526  0.2228
  108OSM    H9F11077   3.802   5.104   5.894  0.3298 -2.1230  1.9798
  108OSM   C10F11078   3.816   5.093   5.690  0.1403 -0.3397  0.5276
  108OSM   H10F11079   3.715   5.136   5.684 -0.3398 -1.3332  1.0821
  108OSM   C11F11080   3.868   5.040   5.554  0.0128  0.4422 -0.3898
  108OSM   H11F11081   3.937   4.956   5.574  0.0958  1.1738  2.9969
  108OSM   H11G11082   3.920   5.118   5.495 -1.1538  2.1204  0.6823
  108OSM   C12F11083   3.754   5.001   5.457 -0.4857 -0.0749  0.4259
  108OSM   H12F11084   3.690   5.091   5.449  0.0609  0.1543 -1.9360
  108OSM   H12G11085   3.690   4.923   5.505  1.0032 -3.0546 -2.1047
  108OSM   C13F11086   3.808   4.948   5.327  0.6700 -0.4427  1.0376
  108OSM   H13F11087   3.865   4.861   5.366  3.8818  1.5454  1.1590
  108OSM   H13G11088   3.877   5.024   5.284 -0.1733  0.5262  1.3647
  108OSM   C14F11089   3.693   4.905   5.234  0.2373 -0.3685 -0.2525
  108OSM   H14F11090   3.638   4.995   5.200  2.6794  1.4450  0.2546
  108OSM   H14G11091   3.625   4.836   5.287  0.4854  0.3404  1.0278
  108OSM   C15F11092   3.748   4.824   5.115  0.7956  0.3716  0.2123
  108OSM   H15F11093   3.801   4.738   5.162  0.4540 -0.2055 -0.4291
  108OSM   H15G11094   3.828   4.875   5.058  0.0955  0.5103 -0.6672
  108OSM   C16F11095   3.647   4.777   5.003 -0.4055 -1.1541  0.0419
  108OSM   H16F11096   3.617   4.876   4.963  1.1026 -1.0725 -0.9629
  108OSM   H16G11097   3.558   4.727   5.048  1.0360 -1.2603  3.0337
  108OSM   C17F11098   3.728   4.688   4.907  1.0859 -0.3919 -0.3702
  108OSM   H17F11099   3.777   4.627   4.985  1.9337  0.9425  0.1715
  108OSM   H17G11100   3.809   4.750   4.862 -0.1662  1.5453 -0.0843
  108OSM   C18F11101   3.641   4.612   4.807  0.1701 -0.3203 -0.3209
  108OSM   H18F11102   3.704   4.555   4.736 -1.0799 -3.4566  0.8825
  108OSM   H18G11103   3.571   4.685   4.761 -0.4933  0.1920  1.4036
  108OSM   H18H11104   3.573   4.536   4.851 -1.0012  1.1617  0.5575
  109OSM      N11105   5.688   6.536   7.490 -0.0232  0.3533  0.2590
  109OSM    C1511106   5.556   6.580   7.540 -0.0182 -0.1742 -0.3884
  109OSM   H15A11107   5.545   6.578   7.648  1.5826  3.1751 -0.0305
  109OSM   H15B11108   5.476   6.521   7.499  0.0550 -0.8619  0.4358
  109OSM   H15C11109   5.542   6.680   7.501 -1.6770 -0.6337 -1.0274
  109OSM    C1411110   5.783   6.642   7.540 -0.3553  0.6010 -0.6079
  109OSM   H14A11111   5.755   6.739   7.500 -0.5371  1.4415  1.4593
  109OSM   H14B11112   5.884   6.616   7.512  0.1992  1.5679  0.4058
  109OSM   H14C11113   5.774   6.655   7.646 -2.5906  0.9450 -0.7866
  109OSM    C1311114   5.731   6.414   7.555 -0.5094  0.4768 -0.2255
  109OSM   H13A11115   5.731   6.420   7.663 -0.3328  0.7508 -0.2387
  109OSM   H13B11116   5.834   6.390   7.534 -0.0153 -2.0184  3.7579
  109OSM   H13C11117   5.687   6.321   7.521  2.7618 -0.6160 -1.9181
  109OSM    C1211118   5.675   6.531   7.336 -0.6486 -0.8508 -0.1038
  109OSM   H12A11119   5.597   6.463   7.308 -4.0974  2.5869  0.3461
  109OSM   H12B11120   5.767   6.494   7.294 -0.3848 -1.3886  0.8973
  109OSM    C1111121   5.638   6.657   7.258  0.4149  0.0680 -0.0166
  109OSM   H11A11122   5.550   6.713   7.297  0.6006  0.5417 -0.2665
  109OSM   H11B11123   5.617   6.623   7.155 -0.6753  1.0793 -0.1562
  109OSM      P11124   5.862   6.751   7.158 -0.0355  0.0137  0.3497
  109OSM    O1311125   5.920   6.889   7.155  0.3706  0.2162 -0.2139
  109OSM    O1411126   5.955   6.640   7.184 -0.5221  0.2279 -0.4156
  109OSM    O1111127   5.782   6.734   7.014  0.1799 -0.1474 -0.1502
  109OSM    O1211128   5.743   6.754   7.267 -0.2169 -0.3702  0.4378
  109OSM    C1S11129   5.844   6.747   6.890  0.1443  0.2055  0.1795
  109OSM    H1S11130   5.953   6.770   6.893  0.7054 -2.0987 -0.2041
  109OSM    H1T11131   5.800   6.828   6.828 -0.6699 -0.2677  0.1217
  109OSM     NF11132   5.882   6.652   6.661 -0.1889 -0.6336 -0.3748
  109OSM    HNF11133   5.815   6.649   6.587 -1.1705  2.2666  0.2808
  109OSM    C2S11134   5.826   6.624   6.793 -0.2254 -0.0376  0.1700
  109OSM    H2S11135   5.891   6.543   6.833  0.1623  0.2288  0.0838
  109OSM    C3S11136   5.689   6.560   6.799 -0.5514  0.3307  0.3439
  109OSM    H3S11137   5.621   6.638   6.760 -0.3049  0.7655  0.7717
  109OSM     O311138   5.639   6.535   6.932 -0.3218  0.0923  0.0008
  109OSM    HO311139   5.697   6.596   6.979  0.6768  0.0230 -1.1044
  109OSM    C4S11140   5.677   6.439   6.705  0.0080 -0.3238 -0.6715
  109OSM    H4S11141   5.637   6.474   6.608 -0.8046  1.1783  0.1734
  109OSM    C5S11142   5.697   6.306   6.728 -0.0470 -0.0684  0.2769
  109OSM    H5S11143   5.707   6.274   6.833 -2.7775 -0.8455  0.3804
  109OSM    C6S11144   5.683   6.192   6.623  0.1437  0.2063  0.6166
  109OSM    H6S11145   5.589   6.137   6.647  0.6989 -0.1557  2.1016
  109OSM    H6T11146   5.757   6.117   6.658  0.2120  1.0917  2.5107
  109OSM    C7S11147   5.686   6.218   6.476 -0.0256 -0.2318  0.6288
  109OSM    H7S11148   5.782   6.256   6.434 -0.4818  0.0337 -0.2060
  109OSM    H7T11149   5.606   6.290   6.447  0.4952 -0.5535 -1.8649
  109OSM    C8S11150   5.654   6.090   6.400 -0.2845 -0.2313  0.2454
  109OSM    H8S11151   5.553   6.057   6.435  0.3109 -0.4718  1.8331
  109OSM    H8T11152   5.733   6.021   6.437  1.1247  0.2215 -1.7759
  109OSM    C9S11153   5.660   6.098   6.251 -1.2008  0.0558  0.6654
  109OSM    H9S11154   5.595   6.183   6.219 -1.5794 -1.1164 -1.9995
  109OSM    H9T11155   5.600   6.010   6.221 -2.9729  1.0019  1.3373
  109OSM   C10S11156   5.796   6.115   6.190  0.1767 -0.1800  0.3793
  109OSM   H10S11157   5.874   6.046   6.229  0.9031  0.9304  0.9308
  109OSM   H10T11158   5.821   6.221   6.210 -0.4878  0.2535 -0.9434
  109OSM   C11S11159   5.795   6.107   6.036  0.2290 -0.1404  0.1280
  109OSM   H11S11160   5.882   6.168   6.006 -1.2238  3.0610  1.9448
  109OSM   H11T11161   5.709   6.161   5.993 -0.3064 -0.2045  1.0794
  109OSM   C12S11162   5.807   5.958   6.000 -0.1095  0.0971  0.0355
  109OSM   H12S11163   5.729   5.903   6.056 -1.0955  0.0720 -1.3226
  109OSM   H12T11164   5.906   5.914   6.026  0.4808 -0.1233 -2.3073
  109OSM   C13S11165   5.783   5.927   5.849  0.3156 -1.0175 -0.4145
  109OSM   H13S11166   5.676   5.948   5.826 -0.1336  0.1222  2.3549
  109OSM   H13T11167   5.812   5.824   5.819  0.9263 -0.1518 -3.0852
  109OSM   C14S11168   5.879   6.008   5.764 -0.1407  0.4160  0.5544
  109OSM   H14S11169   5.980   5.973   5.796  0.5818  0.7188 -1.2485
  109OSM   H14T11170   5.875   6.119   5.773  1.9111  0.6409 -0.7083
  109OSM   C15S11171   5.853   5.992   5.604  0.0934 -0.1314 -0.3967
  109OSM   H15S11172   5.794   6.080   5.571 -1.7286 -1.8970 -2.0331
  109OSM   H15T11173   5.800   5.895   5.597  3.0173 -1.9987  1.1830
  109OSM   C16S11174   5.983   5.975   5.532 -0.7311  0.0198  0.0737
  109OSM   H16S11175   6.053   5.904   5.582 -0.5291  1.4164  1.8845
  109OSM   H16T11176   6.043   6.069   5.524 -1.0887  0.2396 -0.0413
  109OSM   C17S11177   5.963   5.904   5.396 -0.9256  0.4861 -0.3515
  109OSM   H17S11178   5.948   5.802   5.436 -2.0342  0.7556 -0.0336
  109OSM   H17T11179   6.052   5.908   5.330  1.3741 -0.6539  2.4876
  109OSM   C18S11180   5.840   5.934   5.306  0.0664  0.6590 -0.8604
  109OSM   H18S11181   5.744   5.914   5.359  0.1667 -0.4229 -1.0608
  109OSM   H18T11182   5.840   5.859   5.224  0.7379  0.6995 -0.9033
  109OSM   H18U11183   5.853   6.034   5.259  0.9424  0.7062 -0.5405
  109OSM    C1F11184   6.005   6.678   6.636 -1.3601 -0.2613 -0.1461
  109OSM     OF11185   6.100   6.639   6.706  0.1354  0.0913 -0.7872
  109OSM    C2F11186   6.036   6.773   6.523 -0.3436 -0.3744  0.4584
  109OSM    H2F11187   6.059   6.862   6.585 -0.0893  0.1164 -0.3240
  109OSM    H2G11188   5.941   6.782   6.466 -1.7105 -0.6488  2.6074
  109OSM    C3F11189   6.151   6.719   6.436 -0.4530  0.0837  0.9859
  109OSM    H3F11190   6.128   6.613   6.414  1.5703 -0.1205 -0.5077
  109OSM    H3G11191   6.243   6.731   6.498  0.6683  1.1250 -0.7918
  109OSM    C4F11192   6.183   6.802   6.311  0.6975 -0.1756  0.6593
  109OSM    H4F11193   6.207   6.906   6.342 -0.0288  0.8303 -1.8770
  109OSM    H4G11194   6.088   6.816   6.255  0.6703 -0.3695  0.6545
  109OSM    C5F11195   6.306   6.748   6.233 -0.0526  0.5082  0.1658
  109OSM    H5F11196   6.265   6.660   6.179 -1.4177  1.3618 -0.2443
  109OSM    H5G11197   6.375   6.720   6.316 -0.4394  1.3908  0.8021
  109OSM    C6F11198   6.369   6.852   6.144  0.1971  0.0162 -0.2591
  109OSM    H6F11199   6.467   6.809   6.112 -1.5558 -2.7038 -2.5442
  109OSM    H6G11200   6.380   6.947   6.200  1.7514 -0.5515  0.4542
  109OSM    C7F11201   6.270   6.881   6.024  0.1010 -0.5346 -0.2190
  109OSM    H7F11202   6.196   6.953   6.066 -0.2053 -1.3504  0.6877
  109OSM    H7G11203   6.206   6.791   6.016  0.2173 -0.5567 -0.9653
  109OSM    C8F11204   6.342   6.933   5.897  0.9288  0.0447  0.2188
  109OSM    H8F11205   6.400   7.025   5.919  0.3746  0.6750 -0.8561
  109OSM    H8G11206   6.262   6.972   5.830  2.5768  2.0773 -0.6825
  109OSM    C9F11207   6.428   6.827   5.828  0.5308  0.4405  0.1287
  109OSM    H9F11208   6.509   6.788   5.892 -1.7603 -2.1939  1.6513
  109OSM   C10F11209   6.404   6.779   5.704  0.0055 -0.0188 -0.8218
  109OSM   H10F11210   6.467   6.704   5.654 -0.7309  0.0287 -1.8518
  109OSM   C11F11211   6.281   6.804   5.619 -0.1694  0.5948 -0.3389
  109OSM   H11F11212   6.203   6.858   5.677 -1.6846 -0.6867 -1.0847
  109OSM   H11G11213   6.240   6.702   5.599 -1.4760  0.9076  0.6333
  109OSM   C12F11214   6.313   6.868   5.487  0.5474  0.3785  0.2602
  109OSM   H12F11215   6.354   6.970   5.504  3.1840 -0.6997  0.8219
  109OSM   H12G11216   6.215   6.881   5.437  0.0392 -0.3468  1.0534
  109OSM   C13F11217   6.400   6.786   5.391 -0.6794 -0.0975 -0.2395
  109OSM   H13F11218   6.352   6.686   5.389 -0.9499  0.0397 -2.7888
  109OSM   H13G11219   6.503   6.779   5.434 -0.9396 -2.8333  0.1686
  109OSM   C14F11220   6.425   6.842   5.256  0.4391 -0.6685  0.4258
  109OSM   H14F11221   6.515   6.789   5.218 -0.2721 -2.3503  0.9976
  109OSM   H14G11222   6.451   6.950   5.262 -0.2757 -0.3516 -1.5568
  109OSM   C15F11223   6.305   6.823   5.162 -0.0600 -0.8725  0.3532
  109OSM   H15F11224   6.224   6.890   5.198  0.8657  0.1011  0.6419
  109OSM   H15G11225   6.280   6.715   5.169  1.1917 -1.2450 -0.5458
  109OSM   C16F11226   6.323   6.868   5.016 -0.1550 -0.1832  0.5660
  109OSM   H16F11227   6.407   6.815   4.965 -1.3967 -1.1212 -0.5844
  109OSM   H16G11228   6.356   6.974   5.023  0.2170 -0.3669  1.7922
  109OSM   C17F11229   6.199   6.859   4.930 -0.2206 -0.5184  0.6129
  109OSM   H17F11230   6.233   6.883   4.826  0.6451 -1.1968  0.7239
  109OSM   H17G11231   6.131   6.945   4.946  0.0736 -0.0762 -0.4049
  109OSM   C18F11232   6.110   6.738   4.925  0.1916 -0.5296 -0.1569
  109OSM   H18F11233   6.174   6.647   4.915  0.1284 -0.3881 -2.4121
  109OSM   H18G11234   6.052   6.732   4.830 -2.0904 -0.6265  1.1874
  109OSM   H18H11235   6.052   6.713   5.016 -0.6368  0.6642 -0.3395
  110OSM      N11236   2.489   4.685   7.172  0.2699 -0.3948  0.7756
  110OSM    C1511237   2.411   4.578   7.237 -0.3594 -0.0778 -0.2487
  110OSM   H15A11238   2.483   4.507   7.275 -0.8819 -0.1039  0.7317
  110OSM   H15B11239   2.341   4.530   7.171  1.7629 -1.5859 -1.5438
  110OSM   H15C11240   2.357   4.627   7.317 -0.6914 -2.1228  0.8346
  110OSM    C1411241   2.394   4.770   7.101 -0.0035 -0.6433 -0.1338
  110OSM   H14A11242   2.443   4.862   7.073  2.7391 -1.4604  1.5342
  110OSM   H14B11243   2.313   4.800   7.166  2.1473  3.9179  0.8093
  110OSM   H14C11244   2.346   4.724   7.016  2.4006 -0.2909 -1.7862
  110OSM    C1311245   2.551   4.767   7.286 -0.4902  0.3785  0.4364
  110OSM   H13A11246   2.467   4.798   7.347 -1.3262  0.5635 -0.7589
  110OSM   H13B11247   2.593   4.861   7.255 -0.8013  0.2050 -0.5517
  110OSM   H13C11248   2.626   4.711   7.339  0.2257 -0.9371 -1.8440
  110OSM    C1211249   2.589   4.632   7.073  0.2376 -0.5180  0.0320
  110OSM   H12A11250   2.629   4.713   7.013 -1.7057 -1.4752 -2.8124
  110OSM   H12B11251   2.534   4.575   6.999 -0.0566 -0.9360  0.5735
  110OSM    C1111252   2.707   4.544   7.125 -0.5601 -0.4840  0.2427
  110OSM   H11A11253   2.751   4.620   7.193 -0.1801 -1.0413  0.6230
  110OSM   H11B11254   2.773   4.520   7.038 -1.4532 -1.1205 -0.2731
  110OSM      P11255   2.671   4.284   7.164  0.4852 -0.2779  0.2309
  110OSM    O1311256   2.794   4.222   7.217 -0.0887 -0.5013  0.2761
  110OSM    O1411257   2.539   4.225   7.193  0.2642  0.1649 -0.2299
  110OSM    O1111258   2.685   4.283   7.008  0.6286  0.1861  0.1531
  110OSM    O1211259   2.671   4.431   7.206  0.1125  1.0407  0.1060
  110OSM    C1S11260   2.581   4.324   6.922  0.2073  0.3501 -0.1854
  110OSM    H1S11261   2.526   4.400   6.981  1.3253 -1.3462  3.3132
  110OSM    H1T11262   2.505   4.245   6.903 -0.4695  1.4153 -2.2402
  110OSM     NF11263   2.504   4.415   6.699 -0.1281 -0.0944 -0.1521
  110OSM    HNF11264   2.456   4.352   6.639 -1.8664 -0.1509  1.2065
  110OSM    C2S11265   2.625   4.368   6.776 -0.7908  0.4751  0.0196
  110OSM    H2S11266   2.695   4.453   6.793  0.2215 -0.8170  3.3437
  110OSM    C3S11267   2.712   4.253   6.711  0.0481 -0.5384  0.2289
  110OSM    H3S11268   2.652   4.159   6.708  2.4638 -2.1909  0.7194
  110OSM     O311269   2.823   4.210   6.793  0.4774  0.9231  0.6639
  110OSM    HO311270   2.808   4.242   6.882 -0.7205 -0.1179  0.8518
  110OSM    C4S11271   2.758   4.284   6.572  0.5741 -0.4525  0.3895
  110OSM    H4S11272   2.667   4.283   6.510  0.1694  1.0143  0.9259
  110OSM    C5S11273   2.880   4.324   6.524 -0.2519 -0.0143 -0.9111
  110OSM    H5S11274   2.965   4.310   6.591 -1.0259 -3.9070 -0.4747
  110OSM    C6S11275   2.912   4.370   6.391 -0.1495  0.2468  0.9447
  110OSM    H6S11276   2.990   4.306   6.342 -0.7921  0.4163 -0.3553
  110OSM    H6T11277   2.935   4.478   6.400 -3.2451  0.9461  1.4212
  110OSM    C7S11278   2.791   4.372   6.289  0.1139 -0.2810 -0.7090
  110OSM    H7S11279   2.712   4.441   6.326  1.3518  0.2480  1.1390
  110OSM    H7T11280   2.748   4.271   6.271 -1.5115  0.4537 -1.1084
  110OSM    C8S11281   2.827   4.437   6.153  0.4822 -0.4953  0.2047
  110OSM    H8S11282   2.903   4.372   6.104  0.7241 -1.3612  1.6516
  110OSM    H8T11283   2.880   4.533   6.170  2.2118 -1.0955 -1.4259
  110OSM    C9S11284   2.700   4.464   6.076  0.5110  0.3131 -0.4493
  110OSM    H9S11285   2.621   4.510   6.139  0.0499 -2.7585  1.4767
  110OSM    H9T11286   2.656   4.367   6.043 -0.6757  0.4009  0.7529
  110OSM   C10S11287   2.719   4.551   5.955  0.3075  0.1112  1.0530
  110OSM   H10S11288   2.797   4.508   5.889 -0.8192 -1.0704  0.4342
  110OSM   H10T11289   2.743   4.656   5.983 -3.4193  0.9910  1.5518
  110OSM   C11S11290   2.588   4.556   5.861 -0.2946  0.4356 -0.1325
  110OSM   H11S11291   2.514   4.625   5.907 -0.7497 -0.3977  0.4149
  110OSM   H11T11292   2.541   4.456   5.863  3.1958 -1.3697 -0.8242
  110OSM   C12S11293   2.625   4.588   5.715 -0.0763 -0.3498 -0.0584
  110OSM   H12S11294   2.700   4.515   5.678 -1.9266 -1.6776 -1.4152
  110OSM   H12T11295   2.693   4.675   5.717  0.9694 -1.1149  3.2353
  110OSM   C13S11296   2.507   4.598   5.618 -0.6331  0.6634 -0.9082
  110OSM   H13S11297   2.449   4.678   5.670 -1.2110 -0.8239  0.8534
  110OSM   H13T11298   2.441   4.510   5.606  0.8258 -0.3548 -1.7500
  110OSM   C14S11299   2.549   4.628   5.480  0.4812 -0.3951  0.8119
  110OSM   H14S11300   2.628   4.555   5.450 -3.0345 -3.9250 -0.8160
  110OSM   H14T11301   2.597   4.728   5.473  1.5725 -0.6764  3.1944
  110OSM   C15S11302   2.435   4.610   5.377  0.7410  0.3025 -0.2189
  110OSM   H15S11303   2.360   4.693   5.383 -1.3840 -1.5068 -0.5433
  110OSM   H15T11304   2.381   4.515   5.393  0.6010 -0.0759 -2.5253
  110OSM   C16S11305   2.479   4.623   5.230 -0.2876  0.3010  0.2600
  110OSM   H16S11306   2.550   4.542   5.203 -0.6717  0.4710 -1.3583
  110OSM   H16T11307   2.540   4.709   5.197  1.1390 -1.1318 -1.0271
  110OSM   C17S11308   2.353   4.597   5.146 -0.1126  0.6243  0.5110
  110OSM   H17S11309   2.299   4.693   5.159  2.5708  2.7773 -2.5101
  110OSM   H17T11310   2.291   4.514   5.186  2.8009 -1.5203  0.9580
  110OSM   C18S11311   2.377   4.594   4.997 -0.3968  0.5586 -0.6617
  110OSM   H18S11312   2.398   4.492   4.959  1.1266  1.2549 -1.8009
  110OSM   H18T11313   2.453   4.673   4.975  1.5311 -1.1800 -0.5429
  110OSM   H18U11314   2.282   4.624   4.948 -1.5704  2.1533  2.2727
  110OSM    C1F11315   2.441   4.525   6.731 -0.1328 -0.4628 -0.5405
  110OSM     OF11316   2.497   4.613   6.800 -0.4649  0.7067 -0.0280
  110OSM    C2F11317   2.297   4.536   6.697 -0.6967 -0.4337 -0.1687
  110OSM    H2F11318   2.232   4.546   6.786  0.7440 -0.6364  0.9372
  110OSM    H2G11319   2.253   4.452   6.639 -1.1221 -0.7955  0.6629
  110OSM    C3F11320   2.270   4.669   6.613 -0.6689  0.2624 -0.2288
  110OSM    H3F11321   2.325   4.659   6.517  0.1574 -1.1492  0.3630
  110OSM    H3G11322   2.318   4.758   6.658  0.0417 -0.5118  0.5755
  110OSM    C4F11323   2.125   4.690   6.569  0.8678 -0.3004 -0.1343
  110OSM    H4F11324   2.071   4.715   6.663  1.4588 -1.5993  0.5828
  110OSM    H4G11325   2.077   4.600   6.524 -0.1205  0.5675 -0.8752
  110OSM    C5F11326   2.101   4.801   6.458 -0.5177  0.1321 -0.2590
  110OSM    H5F11327   2.147   4.891   6.504 -0.6330 -0.1059  0.3247
  110OSM    H5G11328   1.992   4.819   6.443 -0.5507 -0.7229 -1.1234
  110OSM    C6F11329   2.154   4.762   6.312  0.0938 -0.2021 -0.3786
  110OSM    H6F11330   2.090   4.676   6.280 -0.5308 -0.2382  0.8943
  110OSM    H6G11331   2.247   4.705   6.336  0.0424 -0.5450 -0.9633
  110OSM    C7F11332   2.183   4.878   6.219  0.3854  0.1140  1.3006
  110OSM    H7F11333   2.271   4.942   6.243 -0.5060  1.5530  0.8667
  110OSM    H7G11334   2.098   4.944   6.191  1.5786  1.6649  1.1703
  110OSM    C8F11335   2.224   4.821   6.077 -0.1609  0.2433 -0.0461
  110OSM    H8F11336   2.144   4.757   6.035  1.5725 -1.9897 -0.1204
  110OSM    H8G11337   2.301   4.742   6.094  0.1983  0.7149  0.5620
  110OSM    C9F11338   2.252   4.924   5.975  0.4387 -0.4720 -0.4247
  110OSM    H9F11339   2.286   5.019   6.019 -2.8000 -0.0945  1.5695
  110OSM   C10F11340   2.224   4.918   5.841 -0.1444  0.0252 -0.4922
  110OSM   H10F11341   2.249   5.007   5.782  0.7549  0.8422  1.0485
  110OSM   C11F11342   2.161   4.805   5.766  0.1245  0.2497  0.1226
  110OSM   H11F11343   2.108   4.735   5.834  0.5881 -1.1187 -0.8786
  110OSM   H11G11344   2.258   4.759   5.739  0.2911  1.1748 -0.9317
  110OSM   C12F11345   2.083   4.845   5.639  0.1881 -0.5607 -0.0208
  110OSM   H12F11346   2.143   4.919   5.581  0.8063 -1.0940 -0.0631
  110OSM   H12G11347   1.993   4.902   5.672 -0.7195  0.2422 -3.4381
  110OSM   C13F11348   2.063   4.723   5.546 -0.0567 -0.4844  0.1145
  110OSM   H13F11349   2.006   4.650   5.607 -2.4679  0.0141 -1.4147
  110OSM   H13G11350   2.162   4.675   5.531  0.0663 -0.5213  0.9633
  110OSM   C14F11351   1.990   4.762   5.419 -0.0562  0.4932 -0.3244
  110OSM   H14F11352   2.043   4.838   5.358 -0.5972  2.1956  1.2184
  110OSM   H14G11353   1.890   4.802   5.447 -0.2797 -0.7083  0.6651
  110OSM   C15F11354   1.963   4.634   5.334 -0.2483 -0.3111 -0.2704
  110OSM   H15F11355   1.898   4.565   5.393 -0.0110  0.1900  0.5957
  110OSM   H15G11356   2.053   4.580   5.299 -0.8620 -0.8367 -1.0779
  110OSM   C16F11357   1.879   4.658   5.204  0.5925 -0.6298  0.1680
  110OSM   H16F11358   1.922   4.744   5.150 -0.1014  0.9157  1.9677
  110OSM   H16G11359   1.775   4.682   5.234  0.5613  0.4032 -0.7374
  110OSM   C17F11360   1.888   4.538   5.102  0.4580  0.6854  0.5498
  110OSM   H17F11361   1.843   4.449   5.151 -0.7763  1.6881  1.2944
  110OSM   H17G11362   1.995   4.509   5.092 -0.1468 -1.4323 -0.4539
  110OSM   C18F11363   1.818   4.570   4.969 -0.2736  0.1993 -0.1422
  110OSM   H18F11364   1.718   4.608   5.000  1.1208  3.5161  0.7825
  110OSM   H18G11365   1.816   4.487   4.896 -1.2836 -2.1525  2.3913
  110OSM   H18H11366   1.868   4.655   4.918  0.9046  0.5713  1.5705
  111OSM      N11367   3.811   3.026   6.879 -0.5209  0.5102  0.2703
  111OSM    C1511368   3.871   3.124   6.780 -0.3140 -0.0005 -0.1003
  111OSM   H15A11369   3.847   3.097   6.679  0.5178  0.7499 -0.5117
  111OSM   H15B11370   3.979   3.118   6.789 -0.4067  0.1656  1.5662
  111OSM   H15C11371   3.851   3.227   6.807 -2.0795 -0.3994  0.2028
  111OSM    C1411372   3.835   3.072   7.011  0.2975  0.3267 -0.3199
  111OSM   H14A11373   3.783   3.003   7.076  0.7969 -1.4040 -1.6837
  111OSM   H14B11374   3.791   3.170   7.024  0.3072  0.1853  0.9234
  111OSM   H14C11375   3.940   3.078   7.033 -0.0039  1.0870  1.0590
  111OSM    C1311376   3.667   3.032   6.859 -0.1214 -0.4770  0.0843
  111OSM   H13A11377   3.625   3.131   6.862  1.7456  0.3492  0.4103
  111OSM   H13B11378   3.617   2.989   6.944  0.4170  0.0817  0.6979
  111OSM   H13C11379   3.628   2.996   6.764 -0.3773  2.8577 -1.2084
  111OSM    C1211380   3.864   2.890   6.845  0.3892 -0.1261  0.4863
  111OSM   H12A11381   3.870   2.887   6.737 -1.9726  0.0691  0.2962
  111OSM   H12B11382   3.792   2.823   6.890 -1.0248  0.9912 -0.0194
  111OSM    C1111383   4.008   2.857   6.889 -0.5945 -0.5005 -0.0324
  111OSM   H11A11384   4.029   2.750   6.864 -2.6618 -0.3841 -2.7401
  111OSM   H11B11385   4.016   2.883   6.997 -0.1587  3.6619 -0.9264
  111OSM      P11386   4.226   3.006   6.900  0.1488  0.4165  0.0672
  111OSM    O1311387   4.165   3.110   6.994  0.2866  0.3545 -0.6654
  111OSM    O1411388   4.317   2.904   6.959 -0.5545 -0.2955 -0.0091
  111OSM    O1111389   4.309   3.084   6.794 -0.0461 -0.2489 -0.0721
  111OSM    O1211390   4.111   2.930   6.811  0.1672  0.2887  0.7259
  111OSM    C1S11391   4.343   3.040   6.663 -0.4739  0.9932 -0.1540
  111OSM    H1S11392   4.328   2.932   6.642 -0.0726  0.3643  2.4707
  111OSM    H1T11393   4.453   3.058   6.659  0.0133 -1.5440  0.0610
  111OSM     NF11394   4.330   3.092   6.427 -0.2521 -0.7256  0.4973
  111OSM    HNF11395   4.385   3.162   6.382 -1.4338 -0.8366 -1.1935
  111OSM    C2S11396   4.275   3.125   6.559  0.0491 -0.8295  0.3247
  111OSM    H2S11397   4.165   3.109   6.561 -0.0122 -0.6482 -0.8197
  111OSM    C3S11398   4.299   3.282   6.580  0.1475 -0.1198  0.1919
  111OSM    H3S11399   4.407   3.303   6.566  0.7202 -1.5197  2.0418
  111OSM     O311400   4.278   3.322   6.710 -0.4071 -0.5260  0.0745
  111OSM    HO311401   4.292   3.239   6.756  0.1604 -0.4745  0.0041
  111OSM    C4S11402   4.205   3.360   6.502  0.2343  0.0241 -0.3945
  111OSM    H4S11403   4.104   3.361   6.545  0.0510  0.3256 -0.8300
  111OSM    C5S11404   4.227   3.419   6.381  0.2158  0.0570  0.2354
  111OSM    H5S11405   4.320   3.393   6.329 -0.0773 -0.4834 -0.0319
  111OSM    C6S11406   4.114   3.471   6.295 -0.9515 -0.6052 -0.7586
  111OSM    H6S11407   4.127   3.581   6.289  1.4460 -0.8271 -0.2772
  111OSM    H6T11408   4.017   3.452   6.346 -1.6585 -0.5445 -2.0504
  111OSM    C7S11409   4.116   3.423   6.147 -0.2463 -0.1116  0.2060
  111OSM    H7S11410   4.130   3.313   6.148  2.1614  0.1275  1.1095
  111OSM    H7T11411   4.207   3.467   6.100 -1.5517  1.8521 -0.5996
  111OSM    C8S11412   3.979   3.446   6.075 -0.2219  0.3890 -0.1557
  111OSM    H8S11413   3.955   3.552   6.101 -0.3792  0.4655 -0.6108
  111OSM    H8T11414   3.902   3.377   6.117  1.3850 -2.0873 -1.0447
  111OSM    C9S11415   3.993   3.456   5.924 -0.9994  0.3625  0.2965
  111OSM    H9S11416   4.081   3.520   5.906 -1.1517  1.1612  2.2377
  111OSM    H9T11417   3.900   3.499   5.880 -0.8189  1.3781  0.8731
  111OSM   C10S11418   4.012   3.317   5.869 -0.5968 -0.1939 -1.1953
  111OSM   H10S11419   3.918   3.257   5.876 -0.1914 -0.8851 -1.5623
  111OSM   H10T11420   4.093   3.281   5.936 -0.9690  1.5177  0.2529
  111OSM   C11S11421   4.055   3.317   5.725  0.5233 -0.1682  0.5315
  111OSM   H11S11422   4.055   3.212   5.690 -2.1006 -0.2802  0.6448
  111OSM   H11T11423   4.155   3.363   5.713 -0.3207  1.5322 -0.4282
  111OSM   C12S11424   3.960   3.397   5.630 -0.5772  0.2707 -0.5096
  111OSM   H12S11425   3.961   3.506   5.655 -0.3391  0.3550 -0.8823
  111OSM   H12T11426   3.854   3.366   5.639 -0.4839 -0.2928 -1.2520
  111OSM   C13S11427   4.015   3.407   5.488 -0.5631  0.1124 -0.8719
  111OSM   H13S11428   4.046   3.304   5.459 -0.3081  0.1799 -0.8427
  111OSM   H13T11429   4.102   3.476   5.493  0.1426 -0.8354  1.5666
  111OSM   C14S11430   3.905   3.446   5.385 -0.6550 -0.3579  0.3561
  111OSM   H14S11431   3.854   3.535   5.426 -0.0665  0.0715  0.1610
  111OSM   H14T11432   3.844   3.354   5.374 -0.3351 -0.4016 -1.3482
  111OSM   C15S11433   3.968   3.469   5.242  0.0388  0.1246  0.6927
  111OSM   H15S11434   4.015   3.376   5.205 -2.8411  0.2462 -4.1185
  111OSM   H15T11435   4.039   3.553   5.253 -0.2445  0.3172  1.0737
  111OSM   C16S11436   3.875   3.489   5.122 -0.5073  0.1778 -0.6123
  111OSM   H16S11437   3.813   3.580   5.135 -0.3587  0.1881  0.0439
  111OSM   H16T11438   3.792   3.416   5.127 -1.1854  1.0357  2.5248
  111OSM   C17S11439   3.944   3.489   4.990 -0.1167  0.1435  0.2926
  111OSM   H17S11440   3.955   3.381   4.965  0.5567 -0.0042  1.1717
  111OSM   H17T11441   4.043   3.538   5.003  1.1761 -1.8682 -1.1763
  111OSM   C18S11442   3.858   3.555   4.882 -0.6705  0.3030  0.1150
  111OSM   H18S11443   3.819   3.656   4.906 -0.8737  0.2629 -0.0403
  111OSM   H18T11444   3.764   3.502   4.858  0.3028 -1.6397  0.3755
  111OSM   H18U11445   3.924   3.567   4.792  0.2217 -0.2390  0.6806
  111OSM    C1F11446   4.302   2.977   6.363 -0.1201 -0.3440 -0.5268
  111OSM     OF11447   4.225   2.894   6.412  0.3368 -0.5569  0.2381
  111OSM    C2F11448   4.377   2.964   6.234 -0.5606  0.0129  0.0107
  111OSM    H2F11449   4.411   2.861   6.211  0.5436  0.5107 -0.6568
  111OSM    H2G11450   4.469   3.026   6.230 -1.3775  1.3775  1.1591
  111OSM    C3F11451   4.289   3.017   6.111  0.0378  0.1383 -0.8634
  111OSM    H3F11452   4.251   3.116   6.146 -0.0071 -0.4265  0.7628
  111OSM    H3G11453   4.198   2.954   6.102  0.2438 -0.3687  0.4682
  111OSM    C4F11454   4.373   3.020   5.980  0.3593 -0.1469  0.5202
  111OSM    H4F11455   4.402   2.916   5.954 -0.6347 -0.2136 -0.4124
  111OSM    H4G11456   4.463   3.085   5.985 -0.9417  1.7077  0.6657
  111OSM    C5F11457   4.303   3.081   5.861 -0.0113 -0.1644  0.5265
  111OSM    H5F11458   4.291   3.188   5.889 -0.8256 -0.1973  0.3213
  111OSM    H5G11459   4.196   3.055   5.847  0.2291 -0.0826 -1.8136
  111OSM    C6F11460   4.378   3.055   5.724 -0.2103 -0.5752 -0.2248
  111OSM    H6F11461   4.333   2.961   5.684 -0.2605  0.6332 -3.3019
  111OSM    H6G11462   4.489   3.043   5.729 -0.2797 -1.2191 -0.1591
  111OSM    C7F11463   4.357   3.165   5.619 -0.7984  0.3851  0.2544
  111OSM    H7F11464   4.422   3.249   5.650  0.9882 -0.8849  0.1299
  111OSM    H7G11465   4.251   3.195   5.607 -0.8789  0.4483  1.0959
  111OSM    C8F11466   4.408   3.123   5.479 -0.0200 -0.2750  0.4512
  111OSM    H8F11467   4.513   3.089   5.493  0.5928  0.3872 -1.9861
  111OSM    H8G11468   4.404   3.209   5.408  0.8082 -1.1650 -0.7126
  111OSM    C9F11469   4.321   3.004   5.434 -0.4349  0.4397  0.7148
  111OSM    H9F11470   4.331   2.918   5.501 -2.2866 -0.4138 -0.0327
  111OSM   C10F11471   4.210   3.004   5.360 -0.0071  0.4497  0.3667
  111OSM   H10F11472   4.161   2.908   5.339  2.3566 -0.1302 -3.5608
  111OSM   C11F11473   4.170   3.115   5.264 -0.0519 -0.6223  0.4981
  111OSM   H11F11474   4.190   3.212   5.313  1.1016 -0.4598 -0.2585
  111OSM   H11G11475   4.061   3.115   5.242 -0.1433  0.6248  0.8921
  111OSM   C12F11476   4.237   3.112   5.124  0.5376  0.2237  0.2316
  111OSM   H12F11477   4.208   3.019   5.070 -0.2843  1.3508 -1.3454
  111OSM   H12G11478   4.347   3.100   5.135  0.3655 -4.2560 -1.1897
  111OSM   C13F11479   4.193   3.220   5.025  0.3970 -0.5696 -0.1898
  111OSM   H13F11480   4.241   3.313   5.063  0.1153  0.1694 -1.5763
  111OSM   H13G11481   4.082   3.227   5.027  0.3477 -1.4217  1.1266
  111OSM   C14F11482   4.238   3.194   4.881 -0.5957  0.2043 -0.5265
  111OSM   H14F11483   4.178   3.106   4.849  0.4922 -0.8244  0.1642
  111OSM   H14G11484   4.339   3.148   4.872 -1.7650 -2.1615 -3.6616
  111OSM   C15F11485   4.238   3.313   4.779 -0.0161 -0.6504  0.1497
  111OSM   H15F11486   4.328   3.368   4.812 -0.5352  0.7433 -0.6741
  111OSM   H15G11487   4.152   3.382   4.790  0.6377  0.0823  0.7708
  111OSM   C16F11488   4.270   3.272   4.637 -0.0909 -0.4892 -0.4523
  111OSM   H16F11489   4.371   3.229   4.647  0.4205  0.4118 -1.5082
  111OSM   H16G11490   4.290   3.352   4.563  0.3801 -2.0157 -2.0350
  111OSM   C17F11491   4.189   3.163   4.575  0.0493 -0.3963 -0.2319
  111OSM   H17F11492   4.080   3.183   4.583 -0.4624 -2.7532 -0.5887
  111OSM   H17G11493   4.204   3.062   4.621  2.2729  0.3781  0.9180
  111OSM   C18F11494   4.226   3.137   4.427 -0.2848 -0.4989 -0.5669
  111OSM   H18F11495   4.335   3.117   4.415 -0.0000 -0.0996  1.0296
  111OSM   H18G11496   4.190   3.210   4.352  0.5789 -0.3941 -0.8939
  111OSM   H18H11497   4.176   3.046   4.389 -3.3652  0.1667  1.5345
  112OSM      N11498   6.292   4.929   7.539  0.2089  0.2190 -1.2570
  112OSM    C1511499   6.229   4.805   7.595  0.5004  0.7241 -0.1870
  112OSM   H15A11500   6.286   4.718   7.567 -0.8373  0.4382 -2.2200
  112OSM   H15B11501   6.136   4.783   7.544 -1.3218  0.5471  2.9025
  112OSM   H15C11502   6.195   4.804   7.698 -1.4540 -2.9590 -0.6990
  112OSM    C1411503   6.207   5.049   7.566  0.7333  0.0754  0.0712
  112OSM   H14A11504   6.116   5.037   7.509 -0.7291  1.1779  2.0207
  112OSM   H14B11505   6.251   5.136   7.521 -1.3211  1.3769  0.4236
  112OSM   H14C11506   6.187   5.068   7.670 -1.3571 -0.4949 -0.1702
  112OSM    C1311507   6.413   4.959   7.622  0.3404 -0.0414  0.3476
  112OSM   H13A11508   6.414   5.067   7.629 -3.5428  0.0403  3.3093
  112OSM   H13B11509   6.502   4.927   7.570 -1.0391 -1.1709 -1.4178
  112OSM   H13C11510   6.400   4.906   7.715 -0.9054 -0.4111 -0.0239
  112OSM    C1211511   6.328   4.904   7.398  0.0814 -0.7686  0.3707
  112OSM   H12A11512   6.242   4.865   7.346 -0.8966  1.6298  0.0208
  112OSM   H12B11513   6.401   4.825   7.393 -0.0912 -0.8611 -1.2424
  112OSM    C1111514   6.371   5.030   7.318  0.4072  0.1224  0.1316
  112OSM   H11A11515   6.412   4.993   7.221  1.0708  0.1066  0.4116
  112OSM   H11B11516   6.457   5.073   7.374  0.5668  0.5071 -0.3989
  112OSM      P11517   6.141   5.085   7.205  0.2796 -0.4333 -0.2262
  112OSM    O1311518   6.126   4.937   7.183  0.2373 -0.3859 -0.1523
  112OSM    O1411519   6.027   5.157   7.268 -0.6492  0.1175 -0.3529
  112OSM    O1111520   6.165   5.166   7.068 -0.1655 -0.1421 -0.0367
  112OSM    O1211521   6.266   5.121   7.294 -0.3371  0.5153 -0.5000
  112OSM    C1S11522   6.247   5.282   7.064  0.1070 -0.5253  0.6316
  112OSM    H1S11523   6.347   5.267   7.110 -0.3461  1.9774  2.6589
  112OSM    H1T11524   6.196   5.369   7.112  0.1839 -0.3896  0.4713
  112OSM     NF11525   6.368   5.430   6.907 -0.0356  1.1075 -0.5060
  112OSM    HNF11526   6.334   5.524   6.910  0.4304  1.2525  1.5250
  112OSM    C2S11527   6.269   5.327   6.916 -0.1782 -0.1996 -1.0295
  112OSM    H2S11528   6.287   5.238   6.852  0.0201  0.0360 -1.2997
  112OSM    C3S11529   6.133   5.371   6.856  0.7388  0.0997  0.5951
  112OSM    H3S11530   6.109   5.468   6.906  0.1775  0.7839 -0.9299
  112OSM     O311531   6.022   5.285   6.880 -0.4029  0.4287 -0.6387
  112OSM    HO311532   6.061   5.216   6.934 -0.3465  0.3209 -0.8153
  112OSM    C4S11533   6.129   5.410   6.706 -0.5026 -0.4906  0.2153
  112OSM    H4S11534   6.157   5.514   6.683 -0.0939 -0.9092 -1.2278
  112OSM    C5S11535   6.103   5.334   6.600 -0.1376 -0.0867 -0.0792
  112OSM    H5S11536   6.071   5.233   6.629  2.4494 -0.8397  0.4277
  112OSM    C6S11537   6.078   5.366   6.456  0.3660  0.1389  0.2714
  112OSM    H6S11538   6.007   5.293   6.411  0.6282  0.4075 -0.5942
  112OSM    H6T11539   6.175   5.354   6.404  0.9008  2.2087  0.6917
  112OSM    C7S11540   6.017   5.508   6.434 -0.3814 -0.1174  0.1866
  112OSM    H7S11541   6.103   5.579   6.435  0.3049 -0.9339  0.7443
  112OSM    H7T11542   5.931   5.531   6.500 -2.8448 -2.8542 -1.7788
  112OSM    C8S11543   5.964   5.527   6.287 -0.2864 -0.6634  0.4153
  112OSM    H8S11544   5.936   5.635   6.280  3.0662  0.3324  0.6546
  112OSM    H8T11545   5.875   5.463   6.270  0.8560 -2.1682 -0.0944
  112OSM    C9S11546   6.059   5.488   6.177  0.1578 -0.4126  0.2039
  112OSM    H9S11547   6.094   5.383   6.182 -1.8578 -1.2603 -1.6524
  112OSM    H9T11548   6.151   5.545   6.202  0.4237 -0.5990 -0.3328
  112OSM   C10S11549   6.007   5.520   6.035 -0.1171 -0.3564  0.4780
  112OSM   H10S11550   5.992   5.630   6.032 -0.4502 -0.4197 -0.9013
  112OSM   H10T11551   5.906   5.474   6.029 -0.9483  1.2241  1.6990
  112OSM   C11S11552   6.095   5.481   5.914 -0.2385 -0.1166 -0.0916
  112OSM   H11S11553   6.111   5.372   5.932  1.5664  0.2202  0.5217
  112OSM   H11T11554   6.190   5.538   5.914 -2.4667  4.0871 -2.1565
  112OSM   C12S11555   6.032   5.522   5.783  0.1077  0.2991  0.1174
  112OSM   H12S11556   5.999   5.627   5.793  1.4880  0.7097  0.6957
  112OSM   H12T11557   5.934   5.471   5.774  1.1880 -1.6666 -1.5810
  112OSM   C13S11558   6.107   5.490   5.652 -0.1374  0.3844 -0.0474
  112OSM   H13S11559   6.149   5.389   5.674 -2.0687 -0.3500  0.4260
  112OSM   H13T11560   6.185   5.569   5.646  0.9529 -0.6852 -0.5140
  112OSM   C14S11561   6.013   5.484   5.535  0.2893  0.7520  0.7138
  112OSM   H14S11562   5.968   5.582   5.509 -0.2266  0.8952  2.0346
  112OSM   H14T11563   5.934   5.406   5.544 -0.8925  1.7644 -0.4348
  112OSM   C15S11564   6.091   5.440   5.406 -0.1616  0.1461 -0.5079
  112OSM   H15S11565   6.023   5.439   5.318 -0.6825 -1.3122 -0.1320
  112OSM   H15T11566   6.124   5.334   5.418  0.2665  0.2674 -0.6182
  112OSM   C16S11567   6.209   5.529   5.372 -0.2482  0.2846  0.2371
  112OSM   H16S11568   6.293   5.501   5.439  0.1282 -1.8751 -1.0612
  112OSM   H16T11569   6.189   5.638   5.376  0.0199  0.3892 -0.9571
  112OSM   C17S11570   6.261   5.521   5.227  0.1660  0.1714 -0.5632
  112OSM   H17S11571   6.340   5.596   5.209  0.0709  0.8424  1.5097
  112OSM   H17T11572   6.175   5.565   5.172 -0.5242  0.7284  0.8942
  112OSM   C18S11573   6.307   5.390   5.174  0.5280 -0.3204  0.1836
  112OSM   H18S11574   6.348   5.420   5.075  0.1781  0.5226  0.2874
  112OSM   H18T11575   6.223   5.319   5.157  1.0467 -0.5808 -1.4686
  112OSM   H18U11576   6.390   5.343   5.231  0.1386 -1.0129  0.1961
  112OSM    C1F11577   6.494   5.403   6.920  0.2097 -0.3405  0.8032
  112OSM     OF11578   6.529   5.289   6.952  0.0310  0.5886  0.4192
  112OSM    C2F11579   6.600   5.515   6.907 -0.4446 -0.2460  0.7667
  112OSM    H2F11580   6.645   5.521   7.008 -1.0673  0.8867  0.9888
  112OSM    H2G11581   6.549   5.609   6.878  0.2553 -0.4286 -1.2049
  112OSM    C3F11582   6.711   5.473   6.809  0.4865  0.2079  0.0786
  112OSM    H3F11583   6.744   5.371   6.837  2.8373  0.7950 -0.3301
  112OSM    H3G11584   6.801   5.536   6.828 -0.2993  1.2650  0.4411
  112OSM    C4F11585   6.678   5.487   6.662  0.2349  0.4402 -0.5251
  112OSM    H4F11586   6.610   5.410   6.618  2.9269 -2.3025 -0.2198
  112OSM    H4G11587   6.775   5.476   6.608 -0.6722 -2.7491 -1.7549
  112OSM    C5F11588   6.612   5.622   6.628  0.0765  0.5651  0.2938
  112OSM    H5F11589   6.667   5.701   6.683  0.3598 -1.1675  2.6090
  112OSM    H5G11590   6.506   5.623   6.661  0.3215 -1.8218  1.3272
  112OSM    C6F11591   6.620   5.642   6.471  0.1744 -0.5597  0.6616
  112OSM    H6F11592   6.725   5.652   6.437  0.6322 -0.3914  2.0701
  112OSM    H6G11593   6.562   5.734   6.448 -0.3211 -1.2664 -1.0149
  112OSM    C7F11594   6.547   5.523   6.400  0.1173 -0.1565  0.1468
  112OSM    H7F11595   6.454   5.502   6.457 -0.3449 -0.1728 -0.6088
  112OSM    H7G11596   6.615   5.436   6.409 -0.9690 -0.9638  0.7833
  112OSM    C8F11597   6.512   5.553   6.251  0.1840  0.5779 -0.1072
  112OSM    H8F11598   6.439   5.636   6.248 -0.6691 -0.1304  0.4658
  112OSM    H8G11599   6.466   5.457   6.219  0.8245 -0.2013  1.2051
  112OSM    C9F11600   6.638   5.576   6.169  0.3858 -0.9271 -0.5867
  112OSM    H9F11601   6.722   5.608   6.232  0.7816 -0.6983 -1.2204
  112OSM   C10F11602   6.656   5.542   6.042  0.1130  0.5506  0.2140
  112OSM   H10F11603   6.760   5.542   6.008  0.7692  0.6116  2.0799
  112OSM   C11F11604   6.554   5.481   5.948 -0.5058 -0.2064  0.2298
  112OSM   H11F11605   6.451   5.482   5.991 -1.2881  1.5560 -1.5369
  112OSM   H11G11606   6.582   5.376   5.921  1.5576  0.4583 -0.3723
  112OSM   C12F11607   6.533   5.567   5.817 -0.1276  0.2022  0.3017
  112OSM   H12F11608   6.552   5.674   5.842  0.5417 -0.4119  2.6529
  112OSM   H12G11609   6.425   5.569   5.791  0.0290  0.2788 -0.3651
  112OSM   C13F11610   6.622   5.521   5.702 -0.4796  0.3283 -0.3567
  112OSM   H13F11611   6.565   5.437   5.658 -0.8874  0.0467  0.6882
  112OSM   H13G11612   6.719   5.470   5.722  0.8367  1.5562 -3.1156
  112OSM   C14F11613   6.630   5.622   5.583 -0.0065  0.5893  0.7390
  112OSM   H14F11614   6.690   5.710   5.614 -1.6926  0.8702  3.6342
  112OSM   H14G11615   6.529   5.659   5.556 -0.3323 -1.1287 -0.5063
  112OSM   C15F11616   6.707   5.573   5.464  0.5176  0.1216  0.7317
  112OSM   H15F11617   6.803   5.529   5.498  0.7625  0.8135  0.9524
  112OSM   H15G11618   6.738   5.663   5.408 -0.6019  0.4828  0.6717
  112OSM   C16F11619   6.622   5.476   5.378  0.7358  0.3018  0.3162
  112OSM   H16F11620   6.527   5.528   5.353  0.1313 -0.5223  0.8607
  112OSM   H16G11621   6.601   5.387   5.440  1.4987  0.2500  0.5185
  112OSM   C17F11622   6.687   5.439   5.239  0.1697  0.1769 -0.8986
  112OSM   H17F11623   6.612   5.376   5.186  0.2548 -0.0263 -0.7816
  112OSM   H17G11624   6.767   5.362   5.244 -0.7103 -0.6866  1.0374
  112OSM   C18F11625   6.735   5.551   5.147  0.4429 -0.1189  0.5991
  112OSM   H18F11626   6.667   5.638   5.146  2.1674  1.2955 -0.6703
  112OSM   H18G11627   6.764   5.522   5.043  1.8015  2.4678  0.1899
  112OSM   H18H11628   6.828   5.592   5.191  0.6471  2.4187 -1.9562
  113OSM      N11629   4.386   2.240   7.068 -0.1348  0.6170 -0.4006
  113OSM    C1511630   4.462   2.122   7.020  0.0570 -0.5984 -0.5300
  113OSM   H15A11631   4.564   2.154   7.008 -0.8801  3.6235  0.9502
  113OSM   H15B11632   4.423   2.083   6.927 -0.8469 -0.9051 -0.0407
  113OSM   H15C11633   4.462   2.055   7.104 -1.1263  0.5776  0.4535
  113OSM    C1411634   4.468   2.317   7.165  0.6244 -0.1405  0.5247
  113OSM   H14A11635   4.546   2.370   7.114  0.8221 -0.9395 -0.0202
  113OSM   H14B11636   4.504   2.252   7.244  0.4165 -0.1173  0.6413
  113OSM   H14C11637   4.419   2.395   7.222  2.1534  1.5000 -0.3112
  113OSM    C1311638   4.359   2.326   6.947  0.5842 -0.2339  0.1296
  113OSM   H13A11639   4.451   2.313   6.891  0.2160 -2.3173 -0.0674
  113OSM   H13B11640   4.351   2.433   6.958  0.7852 -0.1280 -0.6809
  113OSM   H13C11641   4.274   2.302   6.885  0.3559 -0.4898  0.5375
  113OSM    C1211642   4.257   2.206   7.146  0.4501 -0.4723 -0.1565
  113OSM   H12A11643   4.227   2.300   7.190  0.4398 -1.7637  2.7566
  113OSM   H12B11644   4.290   2.146   7.229  0.3022  0.3042  0.4735
  113OSM    C1111645   4.140   2.147   7.068  0.6286  0.1218 -0.0881
  113OSM   H11A11646   4.165   2.052   7.017 -1.0661  0.5625 -1.8716
  113OSM   H11B11647   4.117   2.216   6.984 -1.9083 -1.7510 -1.0367
  113OSM      P11648   3.913   2.224   7.180  0.4612  0.4291 -0.0003
  113OSM    O1311649   3.819   2.155   7.278 -0.2439  0.3157  0.5672
  113OSM    O1411650   3.979   2.349   7.220  0.1510 -0.0420  0.1303
  113OSM    O1111651   3.839   2.253   7.038  0.1592  0.5457 -0.0119
  113OSM    O1211652   4.027   2.125   7.150 -0.6316  0.1617 -0.1211
  113OSM    C1S11653   3.817   2.132   6.956 -0.4604  0.3600 -0.0557
  113OSM    H1S11654   3.738   2.069   7.003  1.3074 -1.1440  1.0013
  113OSM    H1T11655   3.908   2.077   6.926 -0.0415  0.1328  1.5712
  113OSM     NF11656   3.724   2.076   6.726 -0.0408 -0.3621 -0.4394
  113OSM    HNF11657   3.761   2.064   6.634 -0.2402  0.7339 -0.6859
  113OSM    C2S11658   3.770   2.184   6.815  0.3838 -0.6303  0.9660
  113OSM    H2S11659   3.688   2.258   6.831  0.5104  0.3759 -2.3294
  113OSM    C3S11660   3.881   2.273   6.743 -0.1849 -0.6441 -0.6642
  113OSM    H3S11661   3.948   2.196   6.698  1.4647 -0.1486  0.8326
  113OSM     O311662   3.967   2.351   6.835  0.0873  0.2551 -0.5210
  113OSM    HO311663   3.952   2.317   6.923  0.1883  0.2795 -0.4935
  113OSM    C4S11664   3.827   2.349   6.629 -0.3957 -0.9507 -0.0591
  113OSM    H4S11665   3.827   2.293   6.534  1.0140 -1.8590  0.4433
  113OSM    C5S11666   3.797   2.483   6.608  0.2893 -0.0090 -0.4302
  113OSM    H5S11667   3.802   2.551   6.693 -0.1778 -2.9682  2.1471
  113OSM    C6S11668   3.769   2.528   6.468  0.2715  1.1033 -0.6505
  113OSM    H6S11669   3.858   2.586   6.433  0.8513 -0.8285 -2.6047
  113OSM    H6T11670   3.685   2.600   6.473 -0.3014  0.3980  0.1761
  113OSM    C7S11671   3.722   2.424   6.360 -0.5427 -0.5172  0.8674
  113OSM    H7S11672   3.647   2.356   6.407 -0.4627  0.5914  2.7072
  113OSM    H7T11673   3.802   2.356   6.324  0.3816  1.0887 -0.2146
  113OSM    C8S11674   3.667   2.489   6.231  0.1011  0.1452  0.1291
  113OSM    H8S11675   3.736   2.567   6.193 -0.8154  0.8334 -0.1605
  113OSM    H8T11676   3.581   2.545   6.275 -0.1548  1.5304 -1.9967
  113OSM    C9S11677   3.614   2.393   6.125  0.2939  0.5516  0.6430
  113OSM    H9S11678   3.516   2.358   6.165  0.4058  2.3421  2.6501
  113OSM    H9T11679   3.678   2.303   6.116 -0.2357  0.1341  1.0196
  113OSM   C10S11680   3.604   2.463   5.993 -0.9669  0.6478  0.3906
  113OSM   H10S11681   3.703   2.512   5.980 -1.3107  2.0493  2.5631
  113OSM   H10T11682   3.536   2.549   6.009 -2.5727 -0.2806 -1.0087
  113OSM   C11S11683   3.563   2.370   5.880 -0.0728 -0.1277 -0.7032
  113OSM   H11S11684   3.458   2.342   5.906 -0.2751  0.9838 -0.2503
  113OSM   H11T11685   3.630   2.282   5.884  0.0398  0.0002  0.9431
  113OSM   C12S11686   3.577   2.428   5.741  0.9783  0.2646  1.1897
  113OSM   H12S11687   3.684   2.458   5.731  0.6880  1.4167  1.3819
  113OSM   H12T11688   3.520   2.520   5.717  0.4370 -1.0195 -3.1990
  113OSM   C13S11689   3.551   2.332   5.623 -0.4321  0.7087  0.4814
  113OSM   H13S11690   3.448   2.289   5.628  0.3264 -1.0813  1.8592
  113OSM   H13T11691   3.624   2.248   5.622  1.0325  1.9471 -0.6323
  113OSM   C14S11692   3.584   2.399   5.486  0.1881  0.1943  0.0384
  113OSM   H14S11693   3.679   2.454   5.504  1.2308 -1.4516 -0.2321
  113OSM   H14T11694   3.502   2.472   5.472 -1.7186 -1.8844 -0.1593
  113OSM   C15S11695   3.580   2.308   5.363 -0.4591 -0.3433 -0.4046
  113OSM   H15S11696   3.477   2.280   5.334  0.3357 -2.4519 -1.4274
  113OSM   H15T11697   3.632   2.214   5.392 -2.1760 -0.7368  1.6600
  113OSM   C16S11698   3.653   2.374   5.241  0.1472 -0.2217 -0.0661
  113OSM   H16S11699   3.758   2.375   5.277 -0.0746  1.7633  0.6241
  113OSM   H16T11700   3.612   2.475   5.221  1.1539 -0.1948 -2.3178
  113OSM   C17S11701   3.646   2.280   5.118  0.3721 -0.3743 -0.5526
  113OSM   H17S11702   3.664   2.175   5.149  0.1675 -0.9770 -2.3435
  113OSM   H17T11703   3.721   2.307   5.041 -0.9666 -0.5130 -1.9610
  113OSM   C18S11704   3.503   2.279   5.048 -0.1344 -0.1086 -0.5030
  113OSM   H18S11705   3.485   2.387   5.028  0.1916  0.1513  0.5339
  113OSM   H18T11706   3.430   2.236   5.120  0.5600 -0.1420  0.1927
  113OSM   H18U11707   3.501   2.225   4.951  1.8512 -0.9569 -0.1163
  113OSM    C1F11708   3.621   2.000   6.758  0.4490 -0.3630 -0.1780
  113OSM     OF11709   3.545   2.031   6.850  0.7836 -0.4762  0.2755
  113OSM    C2F11710   3.603   1.878   6.673 -0.3689  0.1340 -0.4740
  113OSM    H2F11711   3.697   1.820   6.676  0.1233  0.9367 -0.0828
  113OSM    H2G11712   3.576   1.902   6.568 -1.4180 -1.0180 -0.5001
  113OSM    C3F11713   3.473   1.802   6.723 -0.1997 -0.1947 -0.2706
  113OSM    H3F11714   3.403   1.882   6.752 -1.6928 -1.1388 -1.1317
  113OSM    H3G11715   3.494   1.761   6.825 -1.4079  1.3242  0.6186
  113OSM    C4F11716   3.397   1.716   6.620  0.3638  0.4435 -0.3202
  113OSM    H4F11717   3.326   1.650   6.675  3.7836 -3.7639 -0.3789
  113OSM    H4G11718   3.470   1.644   6.577 -0.4010  0.5004 -1.7621
  113OSM    C5F11719   3.329   1.789   6.501 -0.1149  0.0296  0.3463
  113OSM    H5F11720   3.401   1.833   6.429  0.3967 -2.0710 -0.5138
  113OSM    H5G11721   3.266   1.871   6.540  0.3428  0.8038 -0.5099
  113OSM    C6F11722   3.247   1.692   6.416 -0.3328  0.1642 -0.1286
  113OSM    H6F11723   3.169   1.650   6.483 -1.0066 -0.6121 -1.3607
  113OSM    H6G11724   3.308   1.608   6.375  0.4588  0.5663  0.1987
  113OSM    C7F11725   3.165   1.761   6.302  0.4590  0.7561 -0.5747
  113OSM    H7F11726   3.231   1.843   6.266  2.1441 -0.4390 -0.3028
  113OSM    H7G11727   3.069   1.813   6.326 -0.1274  0.7507 -2.6813
  113OSM    C8F11728   3.128   1.669   6.186  0.0612  0.0724 -0.1488
  113OSM    H8F11729   3.036   1.708   6.137  0.6896 -0.8636 -2.2052
  113OSM    H8G11730   3.102   1.565   6.215  1.1410  0.3564  2.0302
  113OSM    C9F11731   3.237   1.661   6.086  0.0122  0.1282 -0.7718
  113OSM    H9F11732   3.340   1.671   6.123  0.1598 -0.9769 -0.8315
  113OSM   C10F11733   3.219   1.637   5.955  0.0232 -0.7430  0.5045
  113OSM   H10F11734   3.309   1.642   5.891  0.0703 -0.8854  0.5585
  113OSM   C11F11735   3.092   1.614   5.880  0.6807  0.5469 -0.5169
  113OSM   H11F11736   3.047   1.708   5.842 -0.1112  0.7282  0.8027
  113OSM   H11G11737   3.020   1.574   5.955 -0.4047  3.0524 -0.1118
  113OSM   C12F11738   3.107   1.503   5.773  0.0584  0.4755 -0.1739
  113OSM   H12F11739   3.009   1.453   5.756  0.5543 -0.2957 -0.8523
  113OSM   H12G11740   3.177   1.423   5.804 -1.0889 -1.0144 -1.2887
  113OSM   C13F11741   3.169   1.556   5.640 -0.6818 -0.2300 -0.5129
  113OSM   H13F11742   3.277   1.575   5.656 -1.1367  0.3588  2.5527
  113OSM   H13G11743   3.093   1.632   5.611 -2.2232 -0.3842  2.7196
  113OSM   C14F11744   3.167   1.456   5.522 -0.3822 -0.0018 -0.3738
  113OSM   H14F11745   3.064   1.417   5.503 -0.0333 -1.4603  0.5708
  113OSM   H14G11746   3.225   1.364   5.544  0.6677  0.1957 -2.0931
  113OSM   C15F11747   3.223   1.521   5.399  0.3998  0.5143 -0.1315
  113OSM   H15F11748   3.325   1.559   5.425  1.3265 -0.8852 -1.5379
  113OSM   H15G11749   3.149   1.595   5.363 -0.4054  0.3905  1.1888
  113OSM   C16F11750   3.240   1.431   5.276  0.1536 -0.1893  0.6085
  113OSM   H16F11751   3.141   1.385   5.258  0.2956 -0.4387  0.4644
  113OSM   H16G11752   3.321   1.359   5.301  1.5368  1.7379  2.0179
  113OSM   C17F11753   3.262   1.510   5.146  0.0267 -0.4883  0.8951
  113OSM   H17F11754   3.336   1.592   5.147 -2.3103  1.7678  1.0345
  113OSM   H17G11755   3.163   1.550   5.116  0.1825 -0.5852  0.2484
  113OSM   C18F11756   3.301   1.414   5.029 -0.0996 -0.6138 -0.8579
  113OSM   H18F11757   3.401   1.372   5.056  1.1351  0.9544 -2.7479
  113OSM   H18G11758   3.319   1.474   4.938  0.9541 -0.5841 -0.6483
  113OSM   H18H11759   3.232   1.328   5.016 -0.4762 -0.2527 -1.2392
  114OSM      N11760   3.933   5.923   7.244  0.5250  0.1843  0.5936
  114OSM    C1511761   4.065   5.943   7.314  0.3149 -0.1930 -0.3274
  114OSM   H15A11762   4.047   5.985   7.412  0.6693 -1.3155  0.2334
  114OSM   H15B11763   4.132   6.009   7.260  0.5764 -0.1800  0.0091
  114OSM   H15C11764   4.121   5.852   7.332  1.6838  0.3611 -1.5603
  114OSM    C1411765   3.854   5.836   7.331  0.1492 -0.1676 -0.5193
  114OSM   H14A11766   3.809   5.882   7.418  2.0558  2.8622 -1.0153
  114OSM   H14B11767   3.910   5.749   7.362  1.4768  1.5345  2.1984
  114OSM   H14C11768   3.773   5.795   7.272 -1.8585  0.0484  1.9268
  114OSM    C1311769   3.866   6.054   7.225  0.4329 -0.9133 -0.2850
  114OSM   H13A11770   3.870   6.118   7.312  0.1406 -2.3151  0.7901
  114OSM   H13B11771   3.762   6.037   7.203  0.9540 -1.9116 -2.2036
  114OSM   H13C11772   3.915   6.106   7.143 -0.6862 -0.1215 -0.4813
  114OSM    C1211773   3.954   5.862   7.101  0.0487 -0.2675 -0.1948
  114OSM   H12A11774   3.996   5.763   7.115 -1.3699 -0.7503  0.8859
  114OSM   H12B11775   4.013   5.939   7.053 -1.2227  1.3363  0.7118
  114OSM    C1111776   3.826   5.825   7.016 -0.1448 -0.0710  0.0896
  114OSM   H11A11777   3.866   5.808   6.914  2.1482  1.1524  0.7187
  114OSM   H11B11778   3.771   5.921   7.009  1.0570  0.5931 -0.7050
  114OSM      P11779   3.788   5.579   7.047 -0.4997 -0.1618  0.1766
  114OSM    O1311780   3.940   5.579   7.054  0.3768  0.6102  0.2469
  114OSM    O1411781   3.718   5.491   7.145 -0.0969 -0.3426 -0.0183
  114OSM    O1111782   3.730   5.534   6.909  0.6842  0.2166 -0.4777
  114OSM    O1211783   3.744   5.723   7.070 -0.2737  0.2432 -0.2911
  114OSM    C1S11784   3.591   5.588   6.878  0.0399 -0.1922  0.2776
  114OSM    H1S11785   3.541   5.653   6.952 -0.3942 -0.7533  0.4774
  114OSM    H1T11786   3.518   5.506   6.863  1.1818 -1.2936  0.5343
  114OSM     NF11787   3.468   5.743   6.730 -0.3549  0.3012  0.3237
  114OSM    HNF11788   3.402   5.693   6.675  1.6544 -1.1586 -0.9326
  114OSM    C2S11789   3.595   5.670   6.745 -0.2957  0.5086  0.3855
  114OSM    H2S11790   3.682   5.736   6.766 -0.6673  0.5853  1.7580
  114OSM    C3S11791   3.616   5.563   6.632 -0.4990 -0.6376  0.6192
  114OSM    H3S11792   3.524   5.501   6.635 -0.6365 -0.4649  0.0185
  114OSM     O311793   3.733   5.478   6.637 -0.0136 -0.9242 -0.1930
  114OSM    HO311794   3.780   5.507   6.716  1.4460 -0.8869 -1.0383
  114OSM    C4S11795   3.618   5.623   6.494  0.8612  0.0788 -0.1988
  114OSM    H4S11796   3.685   5.709   6.478  0.5201  0.3248 -0.3201
  114OSM    C5S11797   3.537   5.588   6.395 -0.7000 -0.1910  1.0602
  114OSM    H5S11798   3.466   5.504   6.407 -1.5158  0.2996 -0.1645
  114OSM    C6S11799   3.527   5.658   6.258 -0.2907  0.0177  0.5368
  114OSM    H6S11800   3.605   5.735   6.246  0.9288 -1.1784  0.5520
  114OSM    H6T11801   3.423   5.695   6.248 -0.0566  0.2951 -0.9587
  114OSM    C7S11802   3.553   5.553   6.153  0.7106 -0.1860  1.0112
  114OSM    H7S11803   3.473   5.476   6.160 -0.3506  0.7285 -0.4253
  114OSM    H7T11804   3.654   5.508   6.158  0.7529 -0.4609 -1.1471
  114OSM    C8S11805   3.550   5.624   6.018 -0.4090 -0.8298  0.3534
  114OSM    H8S11806   3.641   5.688   6.025 -0.2062 -1.0663 -0.0399
  114OSM    H8T11807   3.464   5.691   5.997 -0.9521 -1.4431  0.6285
  114OSM    C9S11808   3.557   5.530   5.904 -0.0438  0.3250  0.6639
  114OSM    H9S11809   3.465   5.468   5.899 -0.0810  0.3209  1.2888
  114OSM    H9T11810   3.651   5.471   5.914  1.3197  2.0317 -1.2706
  114OSM   C10S11811   3.544   5.590   5.763  0.3158 -0.1379 -0.4170
  114OSM   H10S11812   3.638   5.650   5.755  0.6435 -0.1530  2.3082
  114OSM   H10T11813   3.448   5.640   5.739 -0.2771 -0.6281  0.8215
  114OSM   C11S11814   3.560   5.479   5.657  0.2206  0.4239  0.0841
  114OSM   H11S11815   3.482   5.401   5.665  0.3641  0.2915  0.1974
  114OSM   H11T11816   3.652   5.426   5.689 -0.1414 -1.0741 -1.2193
  114OSM   C12S11817   3.590   5.522   5.506  0.1362 -0.2640  0.0167
  114OSM   H12S11818   3.668   5.600   5.502 -0.5739  0.4072 -1.1029
  114OSM   H12T11819   3.494   5.569   5.479  0.4778  1.7259  2.0123
  114OSM   C13S11820   3.627   5.407   5.420  0.6556  0.3474  0.3870
  114OSM   H13S11821   3.555   5.323   5.429 -0.6000  1.4646  1.1130
  114OSM   H13T11822   3.721   5.364   5.462  0.9692  1.3375  0.7351
  114OSM   C14S11823   3.649   5.459   5.277 -0.1247 -0.2799  0.2304
  114OSM   H14S11824   3.720   5.541   5.299 -1.3628  1.3756 -1.5763
  114OSM   H14T11825   3.549   5.502   5.253  0.2416 -0.8874 -2.8852
  114OSM   C15S11826   3.696   5.366   5.166 -0.0101  0.1712  0.0769
  114OSM   H15S11827   3.607   5.303   5.144  0.3343 -0.2988  0.0249
  114OSM   H15T11828   3.782   5.310   5.206 -0.3544  1.3431  2.6336
  114OSM   C16S11829   3.744   5.425   5.028  0.3232 -0.0094 -0.1937
  114OSM   H16S11830   3.819   5.505   5.046  0.5933 -0.3820  0.3713
  114OSM   H16T11831   3.653   5.471   4.983 -0.7722  1.2371  3.0259
  114OSM   C17S11832   3.803   5.325   4.931 -0.6760  0.5852  0.2614
  114OSM   H17S11833   3.851   5.385   4.851  0.1153  1.0066  1.0366
  114OSM   H17T11834   3.726   5.259   4.885 -0.0571 -0.3529  0.5460
  114OSM   C18S11835   3.930   5.247   4.977  0.8485  0.3038 -0.1481
  114OSM   H18S11836   3.901   5.166   5.048 -0.1277  1.0761  0.3457
  114OSM   H18T11837   4.002   5.304   5.039  2.5135 -1.2105 -0.5894
  114OSM   H18U11838   3.976   5.191   4.892  0.8680  1.5024 -0.9474
  114OSM    C1F11839   3.430   5.839   6.812 -0.2861  0.3952  0.3589
  114OSM     OF11840   3.519   5.887   6.881  0.8400  0.4744 -0.0748
  114OSM    C2F11841   3.287   5.875   6.814 -0.2401 -0.4641 -0.1200
  114OSM    H2F11842   3.254   5.867   6.920  2.5225  1.2090  0.9825
  114OSM    H2G11843   3.226   5.809   6.749 -4.7402  1.4624  1.7084
  114OSM    C3F11844   3.258   6.015   6.761  0.2851  0.0428  0.2717
  114OSM    H3F11845   3.309   6.097   6.817 -2.5084  0.7456  1.9663
  114OSM    H3G11846   3.151   6.042   6.770  0.3679  0.7153 -0.7215
  114OSM    C4F11847   3.298   6.024   6.610 -0.1972 -0.3672  0.1980
  114OSM    H4F11848   3.246   5.938   6.563  2.1495 -2.5708  1.3746
  114OSM    H4G11849   3.405   6.000   6.591  0.0236 -0.5922  1.5775
  114OSM    C5F11850   3.268   6.156   6.553 -0.0382 -0.3727  0.4760
  114OSM    H5F11851   3.352   6.225   6.576  0.7724  0.2136 -3.4570
  114OSM    H5G11852   3.171   6.193   6.590  0.6642  0.5462  1.4494
  114OSM    C6F11853   3.261   6.159   6.402  0.3796  0.2000  0.6340
  114OSM    H6F11854   3.248   6.263   6.367  3.0375  0.7153  1.0278
  114OSM    H6G11855   3.171   6.099   6.376 -0.9120  1.9016  0.9791
  114OSM    C7F11856   3.390   6.112   6.333 -0.1932  0.4596 -0.0431
  114OSM    H7F11857   3.414   6.011   6.371 -0.3043  0.0840 -0.9527
  114OSM    H7G11858   3.475   6.180   6.356  3.4629 -3.4383 -0.8100
  114OSM    C8F11859   3.393   6.102   6.183 -0.2281 -0.4750 -0.6806
  114OSM    H8F11860   3.499   6.075   6.162  0.2712  0.8863 -0.0644
  114OSM    H8G11861   3.377   6.199   6.131  0.0666 -0.2597 -0.3743
  114OSM    C9F11862   3.302   5.998   6.134  0.6623  0.3895  0.9691
  114OSM    H9F11863   3.245   5.957   6.218 -0.3119 -0.0925  0.0989
  114OSM   C10F11864   3.303   5.948   6.007  0.1318  0.1964 -0.2662
  114OSM   H10F11865   3.235   5.865   5.984 -1.9443  1.9876 -0.8853
  114OSM   C11F11866   3.396   5.991   5.903  0.0207  0.8353  0.0121
  114OSM   H11F11867   3.442   5.911   5.841  2.1324  3.9351 -2.8139
  114OSM   H11G11868   3.489   6.034   5.947  2.0386 -1.5493 -1.6590
  114OSM   C12F11869   3.332   6.099   5.815  0.7370  0.8147  1.4723
  114OSM   H12F11870   3.411   6.166   5.773 -0.8898  2.2993  0.6493
  114OSM   H12G11871   3.248   6.143   5.873 -0.3724  0.2237  0.3434
  114OSM   C13F11872   3.268   6.039   5.680  1.1051  0.2553  0.0729
  114OSM   H13F11873   3.195   5.957   5.702  0.4174  0.7045 -0.5112
  114OSM   H13G11874   3.353   5.996   5.623 -0.9500 -2.7989 -0.9900
  114OSM   C14F11875   3.194   6.143   5.590 -0.9628  0.0593 -0.3656
  114OSM   H14F11876   3.266   6.223   5.562 -2.6834  0.8549 -2.8072
  114OSM   H14G11877   3.126   6.207   5.651  0.7213  1.0440  0.5662
  114OSM   C15F11878   3.132   6.089   5.464 -0.2075  0.3508  0.3188
  114OSM   H15F11879   3.088   6.179   5.416 -0.7633  0.6453  1.3465
  114OSM   H15G11880   3.044   6.025   5.486  0.5857 -1.0508 -0.3975
  114OSM   C16F11881   3.217   6.014   5.365  0.1885  0.3352 -1.2021
  114OSM   H16F11882   3.249   5.911   5.393 -1.0315  0.0182 -0.8989
  114OSM   H16G11883   3.314   6.065   5.348  1.0613 -1.2012 -1.0141
  114OSM   C17F11884   3.176   6.011   5.214 -0.1775 -0.7844 -0.2479
  114OSM   H17F11885   3.160   6.116   5.181 -1.6653 -0.0286  2.5614
  114OSM   H17G11886   3.080   5.956   5.221 -1.2950  1.3075  2.9007
  114OSM   C18F11887   3.267   5.944   5.115 -0.3074 -0.6794  0.1840
  114OSM   H18F11888   3.258   5.834   5.097  1.4552 -1.0206  1.1174
  114OSM   H18G11889   3.373   5.959   5.144 -0.2432  0.4296 -0.6109
  114OSM   H18H11890   3.261   6.004   5.023  0.8410  1.1414  1.2422
  115OSM      N11891   3.350   2.481   7.295 -0.5341  0.9464  0.1205
  115OSM    C1511892   3.419   2.378   7.385 -0.2754 -0.6435  0.3907
  115OSM   H15A11893   3.343   2.311   7.422  1.1717 -1.9687  1.0725
  115OSM   H15B11894   3.464   2.421   7.474  1.0414 -1.1447 -0.0061
  115OSM   H15C11895   3.500   2.328   7.333 -1.7080 -2.9977  0.2667
  115OSM    C1411896   3.315   2.421   7.161 -0.5187 -0.1544  0.3353
  115OSM   H14A11897   3.284   2.498   7.092  1.2778 -1.9230 -2.6741
  115OSM   H14B11898   3.240   2.346   7.179  1.8415 -2.5324  0.9044
  115OSM   H14C11899   3.399   2.377   7.109  0.3151 -1.3212  2.5302
  115OSM    C1311900   3.227   2.515   7.371 -0.2912 -0.1761  0.9754
  115OSM   H13A11901   3.177   2.428   7.410 -1.5560  1.2123  2.6056
  115OSM   H13B11902   3.155   2.560   7.304  0.5083 -0.3291 -0.0115
  115OSM   H13C11903   3.239   2.581   7.456  2.7407  4.7191 -2.6678
  115OSM    C1211904   3.443   2.599   7.271  0.8486  0.1825 -0.7417
  115OSM   H12A11905   3.458   2.641   7.370 -1.2874  0.1487 -0.3516
  115OSM   H12B11906   3.406   2.678   7.208 -0.7072  2.0131  2.1915
  115OSM    C1111907   3.583   2.573   7.215  0.8774  0.6405 -0.2874
  115OSM   H11A11908   3.628   2.493   7.279 -2.3256  0.0874  1.4602
  115OSM   H11B11909   3.652   2.659   7.227  0.3785  0.7917  1.9265
  115OSM      P11910   3.580   2.627   6.958  0.3269  0.0540  0.2208
  115OSM    O1311911   3.516   2.748   7.015 -0.0138  0.1466 -0.5840
  115OSM    O1411912   3.724   2.634   6.914 -0.2926 -0.2956 -0.7655
  115OSM    O1111913   3.495   2.552   6.848 -0.0706  0.3853 -0.4417
  115OSM    O1211914   3.574   2.523   7.078 -0.3644 -0.7279 -0.4919
  115OSM    C1S11915   3.399   2.618   6.762  0.2792  0.0797 -0.2091
  115OSM    H1S11916   3.446   2.708   6.717  0.9069  0.3338  0.9280
  115OSM    H1T11917   3.309   2.649   6.821  0.6870 -1.5955  1.3732
  115OSM     NF11918   3.265   2.612   6.542 -0.9415 -0.1356  0.3959
  115OSM    HNF11919   3.168   2.590   6.541 -1.1267  0.5400 -2.3708
  115OSM    C2S11920   3.353   2.536   6.635 -1.2757  0.3711  0.1570
  115OSM    H2S11921   3.450   2.533   6.582 -1.0624  1.2352  0.4826
  115OSM    C3S11922   3.295   2.398   6.672  0.1028  0.1966  0.1970
  115OSM    H3S11923   3.188   2.401   6.702  0.1891 -0.2743  0.5637
  115OSM     O311924   3.341   2.335   6.796 -0.0487  0.2640  0.3635
  115OSM    HO311925   3.403   2.395   6.838 -0.1800  0.8920 -0.3118
  115OSM    C4S11926   3.295   2.307   6.556 -0.2126 -0.1777  0.7473
  115OSM    H4S11927   3.194   2.299   6.512 -0.6414 -2.4468  2.0104
  115OSM    C5S11928   3.401   2.229   6.528  0.0263  0.7902  0.0104
  115OSM    H5S11929   3.496   2.241   6.583  1.3755  0.2204 -2.0662
  115OSM    C6S11930   3.411   2.143   6.402  0.5254  0.1495  0.0545
  115OSM    H6S11931   3.406   2.036   6.430  0.6293  0.3974  1.0856
  115OSM    H6T11932   3.515   2.154   6.366 -0.3272  0.6812 -2.4503
  115OSM    C7S11933   3.325   2.186   6.285 -0.4087  0.1734 -0.6873
  115OSM    H7S11934   3.324   2.297   6.273 -0.2197  0.3441  0.6898
  115OSM    H7T11935   3.216   2.172   6.301 -0.5568 -1.7696 -2.9630
  115OSM    C8S11936   3.353   2.104   6.159 -0.1868  0.2861 -0.0606
  115OSM    H8S11937   3.376   1.997   6.180  2.4765  0.7630 -0.2706
  115OSM    H8T11938   3.446   2.146   6.117 -0.2813 -0.6740 -1.2803
  115OSM    C9S11939   3.245   2.124   6.052 -0.8203  0.1067  0.2316
  115OSM    H9S11940   3.221   2.230   6.027 -0.7944 -0.2866 -1.5715
  115OSM    H9T11941   3.158   2.068   6.092 -0.9581  0.5603  0.5893
  115OSM   C10S11942   3.281   2.062   5.919  0.4242  0.4756 -0.2943
  115OSM   H10S11943   3.302   1.953   5.923 -0.3049  0.3673  1.8886
  115OSM   H10T11944   3.366   2.115   5.871  0.6041 -0.0638 -0.5871
  115OSM   C11S11945   3.163   2.079   5.827 -0.7993  0.0490  1.0707
  115OSM   H11S11946   3.168   2.184   5.789 -0.9795  0.2873  1.6993
  115OSM   H11T11947   3.062   2.064   5.872  0.2721 -2.7905  2.7754
  115OSM   C12S11948   3.169   1.994   5.701  0.3033  0.1823  0.2581
  115OSM   H12S11949   3.086   2.031   5.637 -0.4354  2.1563  2.2210
  115OSM   H12T11950   3.137   1.892   5.728 -0.5543  0.4308  0.1999
  115OSM   C13S11951   3.303   1.982   5.623  0.6526  0.2027  0.5162
  115OSM   H13S11952   3.379   1.952   5.699  0.4969  0.7059  0.8767
  115OSM   H13T11953   3.336   2.084   5.595  0.1639 -0.8272 -4.8165
  115OSM   C14S11954   3.287   1.901   5.494  0.2672  0.1824  0.0919
  115OSM   H14S11955   3.263   1.797   5.524 -2.0102  0.2469 -1.2872
  115OSM   H14T11956   3.390   1.886   5.453  0.8316 -1.8207  2.0427
  115OSM   C15S11957   3.183   1.951   5.402  0.0032 -0.3635 -0.5668
  115OSM   H15S11958   3.189   2.061   5.391  0.4863 -0.3383 -0.0998
  115OSM   H15T11959   3.081   1.934   5.442  0.7782 -0.4839  1.5134
  115OSM   C16S11960   3.196   1.890   5.258 -0.9028  0.2561  0.2516
  115OSM   H16S11961   3.108   1.936   5.208 -0.5495  0.1339 -0.4882
  115OSM   H16T11962   3.177   1.781   5.248  0.2135  0.2715 -3.6211
  115OSM   C17S11963   3.327   1.927   5.181  0.1518 -0.2367 -0.0168
  115OSM   H17S11964   3.411   1.877   5.232 -0.0018 -0.1305  0.3428
  115OSM   H17T11965   3.337   2.036   5.199 -0.5175 -0.1024 -0.4040
  115OSM   C18S11966   3.328   1.888   5.034 -0.0595  0.3436 -0.5949
  115OSM   H18S11967   3.336   1.778   5.025  1.4943  0.3345  0.4897
  115OSM   H18T11968   3.414   1.938   4.985  1.5643 -2.3891 -0.7270
  115OSM   H18U11969   3.238   1.920   4.976 -0.7788  0.6643  0.6653
  115OSM    C1F11970   3.297   2.734   6.492  0.4920  0.4437  0.3839
  115OSM     OF11971   3.411   2.780   6.491  0.4240  0.5536 -0.0903
  115OSM    C2F11972   3.175   2.812   6.439 -0.4856 -0.1191 -0.5360
  115OSM    H2F11973   3.158   2.906   6.496  2.1725 -0.0557  0.2865
  115OSM    H2G11974   3.083   2.750   6.445 -2.0811  2.0091 -1.5245
  115OSM    C3F11975   3.195   2.849   6.290  0.2466 -0.2043 -0.2677
  115OSM    H3F11976   3.277   2.924   6.292  0.5526 -0.4867  2.7554
  115OSM    H3G11977   3.097   2.892   6.260 -1.9055 -3.0915  2.0197
  115OSM    C4F11978   3.221   2.732   6.196  0.0506  0.2277 -0.0576
  115OSM    H4F11979   3.317   2.692   6.236 -0.1912 -0.9971 -0.6666
  115OSM    H4G11980   3.260   2.763   6.097 -1.2598  3.6041  0.3488
  115OSM    C5F11981   3.121   2.617   6.188  0.5627  0.1119 -0.2366
  115OSM    H5F11982   3.026   2.655   6.145 -0.3897 -1.3275  0.5080
  115OSM    H5G11983   3.099   2.585   6.292 -0.1331  1.5560  0.0843
  115OSM    C6F11984   3.170   2.494   6.113 -0.3921  0.6404 -0.2180
  115OSM    H6F11985   3.082   2.430   6.090  0.4784 -1.0545  0.9153
  115OSM    H6G11986   3.237   2.432   6.177 -1.4957 -1.4895 -1.0239
  115OSM    C7F11987   3.249   2.519   5.983  0.0728 -0.3999  0.5488
  115OSM    H7F11988   3.285   2.424   5.939  1.9311  0.6796 -0.4029
  115OSM    H7G11989   3.346   2.565   6.013  1.2994 -2.2704 -0.3957
  115OSM    C8F11990   3.167   2.588   5.876 -0.1424 -0.0890 -0.0451
  115OSM    H8F11991   3.134   2.685   5.918  1.8527  0.2219  0.9079
  115OSM    H8G11992   3.071   2.536   5.857 -0.4930  0.5602 -0.0816
  115OSM    C9F11993   3.245   2.617   5.748  0.0975 -0.0459 -0.6531
  115OSM    H9F11994   3.299   2.712   5.754  0.5899 -0.4222  1.6833
  115OSM   C10F11995   3.248   2.552   5.628 -0.1219  0.1874  0.3074
  115OSM   H10F11996   3.324   2.586   5.557  1.7718  0.4686  2.3712
  115OSM   C11F11997   3.177   2.417   5.590 -0.6340 -0.7126 -0.2590
  115OSM   H11F11998   3.097   2.395   5.664  1.8979 -0.5929  2.7223
  115OSM   H11G11999   3.245   2.330   5.602 -3.2082 -3.2949 -2.7064
  115OSM   C12F12000   3.120   2.407   5.442  0.0384  0.8677  0.2451
  115OSM   H12F12001   3.036   2.479   5.431 -1.2367 -0.0307  3.0948
  115OSM   H12G12002   3.059   2.315   5.433  1.8858 -0.4068  0.1413
  115OSM   C13F12003   3.219   2.404   5.325 -0.1442 -0.3606 -0.3438
  115OSM   H13F12004   3.282   2.313   5.329  0.7299  0.2770  0.9805
  115OSM   H13G12005   3.285   2.492   5.337 -0.4338 -0.1631 -0.1926
  115OSM   C14F12006   3.157   2.436   5.187  0.3787 -0.2867  0.0617
  115OSM   H14F12007   3.231   2.488   5.124 -1.7361  2.3071 -0.4532
  115OSM   H14G12008   3.079   2.514   5.199 -0.6561 -1.1377 -1.0023
  115OSM   C15F12009   3.098   2.300   5.126 -0.4393  0.1545  0.4795
  115OSM   H15F12010   3.049   2.249   5.211 -2.8540  1.0679 -0.2824
  115OSM   H15G12011   3.182   2.236   5.091 -0.5476  1.6477 -2.9518
  115OSM   C16F12012   3.005   2.329   4.996 -0.2010  0.7874  0.2625
  115OSM   H16F12013   3.063   2.389   4.923  0.8568  1.3535  1.5264
  115OSM   H16G12014   2.921   2.390   5.036 -0.1995  1.9622 -1.4453
  115OSM   C17F12015   2.951   2.201   4.921  0.2618  0.4954 -0.3103
  115OSM   H17F12016   2.845   2.210   4.889 -0.2939 -2.1948  0.5434
  115OSM   H17G12017   2.960   2.116   4.992 -0.8586  1.0136  0.5007
  115OSM   C18F12018   3.022   2.155   4.792 -0.5337 -0.3077  0.0888
  115OSM   H18F12019   3.115   2.107   4.830  1.0173  3.9605  2.3691
  115OSM   H18G12020   3.045   2.242   4.727  2.5288 -1.3793 -0.4179
  115OSM   H18H12021   2.961   2.082   4.734 -1.4007 -0.4397  1.1312
  116OSM      N12022   4.158   0.699   7.027  0.1046 -0.3126  0.4474
  116OSM    C1512023   4.136   0.815   7.117  0.8344 -0.1363 -0.5268
  116OSM   H15A12024   4.224   0.856   7.164  1.0553 -1.1360 -0.0474
  116OSM   H15B12025   4.061   0.797   7.193  1.9532 -0.0301  0.6286
  116OSM   H15C12026   4.091   0.893   7.057  0.1309 -0.1087  0.0280
  116OSM    C1412027   4.244   0.602   7.090  0.4717 -0.0021  0.8931
  116OSM   H14A12028   4.250   0.504   7.045 -1.2462  0.4625 -0.4591
  116OSM   H14B12029   4.204   0.579   7.187 -3.3951 -1.2903 -0.8139
  116OSM   H14C12030   4.346   0.635   7.106  0.6041 -0.0834  0.2622
  116OSM    C1312031   4.028   0.621   7.016  0.3112 -0.4591  0.2047
  116OSM   H13A12032   3.986   0.607   7.114 -1.1014 -1.4278 -0.4922
  116OSM   H13B12033   4.050   0.522   6.979 -0.7751 -0.4990 -0.3785
  116OSM   H13C12034   3.953   0.670   6.955 -1.7882 -4.6989 -1.0965
  116OSM    C1212035   4.211   0.750   6.894 -0.0450  0.5939 -0.2647
  116OSM   H12A12036   4.234   0.669   6.826  0.9150  0.7760 -0.1644
  116OSM   H12B12037   4.309   0.795   6.900  0.7028 -1.1155  1.1790
  116OSM    C1112038   4.120   0.846   6.825  0.6117 -0.5860 -0.5135
  116OSM   H11A12039   4.013   0.815   6.827  0.2455  0.5462  2.6762
  116OSM   H11B12040   4.148   0.848   6.717 -0.1005  1.9013 -0.7244
  116OSM      P12041   4.238   1.086   6.837 -0.3230 -0.2781  0.0059
  116OSM    O1312042   4.228   1.210   6.921 -0.0938 -0.1501 -0.4247
  116OSM    O1412043   4.369   1.019   6.830  0.0493  0.1234  0.4519
  116OSM    O1112044   4.191   1.119   6.685 -0.0251  0.8479  0.1042
  116OSM    O1212045   4.125   0.982   6.880 -0.5139  0.2811 -0.6228
  116OSM    C1S12046   4.049   1.144   6.659 -0.1461  0.1603  0.2974
  116OSM    H1S12047   4.017   1.227   6.726 -0.8058 -0.8438  1.2359
  116OSM    H1T12048   3.981   1.058   6.672  0.4653 -0.0930  2.1659
  116OSM     NF12049   3.909   1.279   6.504 -0.1871  0.1493 -0.1448
  116OSM    HNF12050   3.838   1.226   6.460  0.0817 -0.5001  0.1848
  116OSM    C2S12051   4.031   1.198   6.511 -0.4565  0.3213 -0.0460
  116OSM    H2S12052   4.117   1.267   6.498 -0.7169  1.2821  2.7170
  116OSM    C3S12053   4.033   1.079   6.414 -0.1823  0.3459  0.0190
  116OSM    H3S12054   3.944   1.018   6.438  0.0641 -0.5936 -1.3604
  116OSM     O312055   4.135   0.981   6.435  0.6394 -0.5202 -0.5268
  116OSM    HO312056   4.181   1.014   6.513 -2.3333 -0.8573  1.5568
  116OSM    C4S12057   4.038   1.114   6.266  0.3825  0.2432  0.0717
  116OSM    H4S12058   4.140   1.131   6.229  0.2066  1.4987  0.1204
  116OSM    C5S12059   3.930   1.091   6.182 -0.2009 -0.3979  0.3156
  116OSM    H5S12060   3.831   1.049   6.204 -0.8297  0.6612 -0.3942
  116OSM    C6S12061   3.944   1.123   6.032  0.4130  0.0228  0.0814
  116OSM    H6S12062   4.013   1.209   6.017  0.1161  0.8003  2.6399
  116OSM    H6T12063   3.846   1.169   6.007  0.8504  0.7812 -0.2664
  116OSM    C7S12064   4.001   1.011   5.945 -0.2397  0.3431 -0.7430
  116OSM    H7S12065   3.941   0.920   5.969  1.9497 -0.4137  2.5971
  116OSM    H7T12066   4.103   0.983   5.979 -0.5439 -0.0610 -0.1206
  116OSM    C8S12067   3.991   1.048   5.800 -0.3594  0.1391 -0.3361
  116OSM    H8S12068   4.055   1.137   5.784  1.6218 -0.7485  2.1097
  116OSM    H8T12069   3.890   1.081   5.765 -0.9256 -1.5089 -0.3277
  116OSM    C9S12070   4.027   0.927   5.719  0.3193 -0.1923  0.2312
  116OSM    H9S12071   3.963   0.847   5.762 -1.8064 -0.6008 -3.2946
  116OSM    H9T12072   4.136   0.908   5.725  0.4364 -0.5446 -2.1009
  116OSM   C10S12073   3.976   0.950   5.577 -0.1218  0.2158  0.1229
  116OSM   H10S12074   4.029   1.030   5.522 -2.2206  0.5048 -1.6255
  116OSM   H10T12075   3.869   0.979   5.569 -0.5057 -1.3446 -0.7991
  116OSM   C11S12076   3.991   0.821   5.488  0.1472 -0.3141  0.1518
  116OSM   H11S12077   3.938   0.729   5.523  0.5083  0.5977  3.4488
  116OSM   H11T12078   4.098   0.795   5.475 -0.1702 -1.6897  0.0668
  116OSM   C12S12079   3.942   0.857   5.351 -0.1017  0.5895  0.1551
  116OSM   H12S12080   3.984   0.950   5.308 -2.8155  1.9944  0.2800
  116OSM   H12T12081   3.831   0.869   5.354 -0.1281  0.8070 -1.2299
  116OSM   C13S12082   3.952   0.737   5.251 -0.1028  0.0792  0.1627
  116OSM   H13S12083   3.884   0.770   5.170  0.3835  0.3267 -0.1422
  116OSM   H13T12084   3.918   0.635   5.281  0.5118 -0.7700 -1.8557
  116OSM   C14S12085   4.092   0.727   5.182  0.1174 -0.5040 -0.4055
  116OSM   H14S12086   4.173   0.707   5.255  2.4548 -3.2014 -3.3994
  116OSM   H14T12087   4.109   0.824   5.130  0.1828 -0.7124 -0.7794
  116OSM   C15S12088   4.093   0.608   5.086 -0.5347 -0.5665  0.3871
  116OSM   H15S12089   4.048   0.522   5.139  1.5022 -2.0244 -0.1593
  116OSM   H15T12090   4.197   0.579   5.062 -0.3742  0.4756 -0.2434
  116OSM   C16S12091   4.032   0.641   4.950  0.2251 -0.4091 -0.0080
  116OSM   H16S12092   4.093   0.723   4.906  3.8045 -1.9860  1.6308
  116OSM   H16T12093   3.924   0.669   4.959 -0.3356 -1.9013 -1.4603
  116OSM   C17S12094   4.019   0.515   4.859 -0.2599  0.0639 -0.3968
  116OSM   H17S12095   4.004   0.425   4.922  0.9663 -0.2826 -0.5615
  116OSM   H17T12096   4.117   0.497   4.808 -0.8163  1.8731 -2.2494
  116OSM   C18S12097   3.914   0.535   4.752 -0.3202 -0.1916  0.3625
  116OSM   H18S12098   3.926   0.625   4.689 -0.9673 -1.5302 -1.8086
  116OSM   H18T12099   3.817   0.552   4.803 -0.4131 -0.2690  0.2118
  116OSM   H18U12100   3.908   0.448   4.683 -1.3203  0.1845 -0.0426
  116OSM    C1F12101   3.897   1.401   6.567  0.1882  0.2207  0.7555
  116OSM     OF12102   3.987   1.455   6.621 -0.7316  0.0969 -0.1047
  116OSM    C2F12103   3.767   1.463   6.563 -0.0260 -0.0682 -0.2855
  116OSM    H2F12104   3.744   1.526   6.651 -1.1730  0.1212 -0.6988
  116OSM    H2G12105   3.685   1.387   6.569  0.1599 -0.2837 -0.4486
  116OSM    C3F12106   3.747   1.565   6.443 -0.7566  0.7234 -0.2860
  116OSM    H3F12107   3.842   1.621   6.429 -1.7312  3.2601  2.2786
  116OSM    H3G12108   3.655   1.625   6.461 -2.0523 -1.6918  1.9254
  116OSM    C4F12109   3.725   1.506   6.306  0.1684  0.3995 -0.7116
  116OSM    H4F12110   3.767   1.403   6.306 -0.3777  0.1276 -2.7641
  116OSM    H4G12111   3.779   1.565   6.228  2.2539 -0.3920  0.0668
  116OSM    C5F12112   3.580   1.503   6.266 -0.1101  0.2336  0.4173
  116OSM    H5F12113   3.546   1.607   6.247  1.2995  0.4860 -0.9648
  116OSM    H5G12114   3.515   1.465   6.347  0.1202 -1.3523 -0.1124
  116OSM    C6F12115   3.567   1.410   6.142 -0.5177  0.1302  0.2391
  116OSM    H6F12116   3.463   1.406   6.105 -0.2538 -1.6244 -0.4332
  116OSM    H6G12117   3.593   1.304   6.165 -0.0434  0.5536  1.8335
  116OSM    C7F12118   3.659   1.464   6.023 -0.4953 -0.6031 -0.6409
  116OSM    H7F12119   3.766   1.471   6.052 -0.3271  0.7277 -1.4897
  116OSM    H7G12120   3.629   1.569   6.003  1.3640 -0.3115 -2.1871
  116OSM    C8F12121   3.663   1.381   5.893  0.5569  0.1923 -0.4683
  116OSM    H8F12122   3.702   1.281   5.922 -0.1094  0.5073  1.7188
  116OSM    H8G12123   3.750   1.425   5.841  0.0905  1.2127 -0.4133
  116OSM    C9F12124   3.540   1.382   5.805  0.5575  0.1422  0.4834
  116OSM    H9F12125   3.447   1.399   5.860 -0.0978 -1.2614 -0.1376
  116OSM   C10F12126   3.537   1.373   5.669 -0.2380  0.0772 -0.4594
  116OSM   H10F12127   3.444   1.365   5.611 -0.9031  0.4716  0.5162
  116OSM   C11F12128   3.659   1.363   5.587 -0.3074  0.7577  0.2554
  116OSM   H11F12129   3.758   1.371   5.638  1.1601 -1.0653 -2.0550
  116OSM   H11G12130   3.654   1.439   5.506 -1.9240 -3.3527 -3.9631
  116OSM   C12F12131   3.660   1.228   5.510 -0.0024 -0.1182 -0.2091
  116OSM   H12F12132   3.566   1.200   5.459 -0.4567 -1.4750  1.2763
  116OSM   H12G12133   3.673   1.148   5.586  1.1336  1.4442  1.3148
  116OSM   C13F12134   3.774   1.211   5.406  0.4452  0.2916 -0.3251
  116OSM   H13F12135   3.749   1.119   5.349 -1.5441 -1.8086  3.5687
  116OSM   H13G12136   3.873   1.183   5.447  0.5878  2.5253  1.0151
  116OSM   C14F12137   3.799   1.336   5.318 -0.8143  0.8812  0.3973
  116OSM   H14F12138   3.860   1.416   5.364 -0.4201  0.6356  0.3099
  116OSM   H14G12139   3.703   1.372   5.275 -1.5039  0.0020  1.1462
  116OSM   C15F12140   3.882   1.291   5.194 -0.3622  0.1670 -0.6227
  116OSM   H15F12141   3.974   1.243   5.235 -1.7474 -0.0212  2.5872
  116OSM   H15G12142   3.905   1.388   5.147  0.2213 -0.3759 -1.4906
  116OSM   C16F12143   3.813   1.196   5.095 -0.3829 -0.8288 -0.5778
  116OSM   H16F12144   3.714   1.240   5.069  0.1247 -0.7504 -2.5378
  116OSM   H16G12145   3.798   1.097   5.143 -0.8967 -0.2611  0.4871
  116OSM   C17F12146   3.904   1.176   4.978  0.0469  0.8779  0.0970
  116OSM   H17F12147   3.961   1.270   4.963 -1.8391  2.2674  1.1457
  116OSM   H17G12148   3.845   1.154   4.886  1.3658 -0.5282 -0.4562
  116OSM   C18F12149   4.018   1.082   5.001 -0.5854  0.5735 -1.0789
  116OSM   H18F12150   4.061   1.050   4.904 -2.2035 -0.5388 -1.4753
  116OSM   H18G12151   3.973   0.990   5.043  4.3579 -0.9014  1.6600
  116OSM   H18H12152   4.100   1.121   5.065 -0.5747  1.3836 -1.5639
  117OSM      N12153   2.486   2.511   7.256  0.1740  0.2059  0.1230
  117OSM    C1512154   2.374   2.444   7.186 -0.0130 -0.8819 -0.0223
  117OSM   H15A12155   2.291   2.513   7.178 -0.9558 -1.9171  0.5826
  117OSM   H15B12156   2.336   2.370   7.255 -1.2670  0.4555  0.8134
  117OSM   H15C12157   2.403   2.393   7.096 -1.5805 -3.5801  0.8784
  117OSM    C1412158   2.432   2.539   7.396 -0.5639  0.2880 -0.6452
  117OSM   H14A12159   2.432   2.443   7.445 -1.0832 -0.0236 -1.2388
  117OSM   H14B12160   2.331   2.578   7.389 -0.0290  1.9273  0.2347
  117OSM   H14C12161   2.487   2.613   7.451 -2.3309  0.8393  0.4507
  117OSM    C1312162   2.606   2.422   7.263  0.3240  0.3638  0.2866
  117OSM   H13A12163   2.702   2.467   7.283  1.7187 -0.7066 -3.2790
  117OSM   H13B12164   2.612   2.364   7.172 -1.2312  0.6027 -0.0026
  117OSM   H13C12165   2.583   2.347   7.337  1.2519 -1.6630 -1.3810
  117OSM    C1212166   2.530   2.640   7.188 -0.9040 -0.2757  0.1913
  117OSM   H12A12167   2.607   2.686   7.248 -1.3917 -0.7733  1.2271
  117OSM   H12B12168   2.442   2.701   7.180  0.7446  2.1272 -0.4539
  117OSM    C1112169   2.581   2.642   7.042  0.3278 -0.1866  0.8101
  117OSM   H11A12170   2.587   2.743   6.996  1.3657 -1.5578 -2.3698
  117OSM   H11B12171   2.496   2.600   6.985 -0.0026  1.1397  0.3030
  117OSM      P12172   2.732   2.471   6.895  0.1364 -0.6692  0.3291
  117OSM    O1312173   2.866   2.510   6.838 -0.1202 -0.5356 -0.1690
  117OSM    O1412174   2.716   2.334   6.938  0.8655 -0.1656 -0.4577
  117OSM    O1112175   2.614   2.509   6.790 -0.2348  0.4273 -0.1623
  117OSM    O1212176   2.697   2.564   7.021 -0.3411 -0.2531  0.5762
  117OSM    C1S12177   2.622   2.642   6.727  0.0036 -0.4337  0.8727
  117OSM    H1S12178   2.722   2.689   6.738 -0.0217  0.3417 -1.6082
  117OSM    H1T12179   2.552   2.719   6.764  1.5120  1.4460  0.0062
  117OSM     NF12180   2.626   2.765   6.508  0.3033  0.4195  0.5638
  117OSM    HNF12181   2.546   2.816   6.478 -0.2121 -1.7764 -2.2877
  117OSM    C2S12182   2.602   2.631   6.567 -0.1029 -0.2348 -0.0898
  117OSM    H2S12183   2.691   2.570   6.538  1.0567  0.7758  1.2008
  117OSM    C3S12184   2.465   2.565   6.534  0.0801 -0.2869 -0.3297
  117OSM    H3S12185   2.389   2.635   6.574 -0.0803 -0.7440  0.1698
  117OSM     O312186   2.417   2.448   6.603  0.1071 -0.6467  0.1473
  117OSM    HO312187   2.469   2.441   6.683 -3.1398  1.2528  2.6931
  117OSM    C4S12188   2.443   2.547   6.383  0.6870 -0.2639  0.0093
  117OSM    H4S12189   2.494   2.460   6.340  1.5576 -0.1664  0.8205
  117OSM    C5S12190   2.343   2.608   6.317 -0.4377 -0.5380  0.1503
  117OSM    H5S12191   2.284   2.686   6.366  1.5411  0.3544  1.2366
  117OSM    C6S12192   2.312   2.602   6.164 -0.1042 -0.1520 -0.6165
  117OSM    H6S12193   2.207   2.572   6.147 -0.2820  1.2503 -2.3272
  117OSM    H6T12194   2.361   2.516   6.114  1.5686  0.8399 -0.7855
  117OSM    C7S12195   2.347   2.725   6.082  0.3596  0.4819  0.4332
  117OSM    H7S12196   2.454   2.753   6.091  0.5666 -0.3298  0.5695
  117OSM    H7T12197   2.290   2.811   6.124  2.2785  1.3962  1.2748
  117OSM    C8S12198   2.311   2.712   5.933  0.4170 -0.0215  0.4623
  117OSM    H8S12199   2.201   2.706   5.917 -0.0247  0.3767  2.9570
  117OSM    H8T12200   2.361   2.618   5.902  0.5569 -0.6052  2.3572
  117OSM    C9S12201   2.370   2.819   5.845 -0.5383 -0.3248  0.1684
  117OSM    H9S12202   2.480   2.803   5.848 -0.2766  0.5392 -2.6623
  117OSM    H9T12203   2.358   2.923   5.882 -1.7260  0.4117 -2.1436
  117OSM   C10S12204   2.317   2.807   5.700  0.8988  0.1023 -0.3971
  117OSM   H10S12205   2.208   2.815   5.716  0.3833  0.7550 -3.5743
  117OSM   H10T12206   2.344   2.707   5.660 -0.6942 -0.3194 -0.4765
  117OSM   C11S12207   2.364   2.922   5.609 -0.4139  0.0139  0.6840
  117OSM   H11S12208   2.349   3.013   5.671  0.7262  1.6025 -1.2278
  117OSM   H11T12209   2.305   2.926   5.515  1.5699 -0.2756 -0.6299
  117OSM   C12S12210   2.513   2.920   5.569 -0.8004  0.2903  0.7455
  117OSM   H12S12211   2.541   2.826   5.518  0.7001  1.1300 -0.0720
  117OSM   H12T12212   2.574   2.926   5.662  0.8111  0.6370 -0.2764
  117OSM   C13S12213   2.552   3.049   5.484 -0.8627  0.1193  0.0643
  117OSM   H13S12214   2.662   3.060   5.478 -0.8911  0.7773  0.6007
  117OSM   H13T12215   2.519   3.140   5.538 -0.8878 -0.0952  0.4132
  117OSM   C14S12216   2.496   3.035   5.346  0.3424 -0.0293  0.7071
  117OSM   H14S12217   2.386   3.023   5.353 -0.0189  0.7139 -2.2118
  117OSM   H14T12218   2.534   2.944   5.295 -1.0797 -0.2375 -0.0543
  117OSM   C15S12219   2.521   3.160   5.253 -0.1311  0.6477 -0.4829
  117OSM   H15S12220   2.477   3.249   5.302  3.5001  0.3689  3.9910
  117OSM   H15T12221   2.479   3.135   5.153 -0.0787 -2.2048  0.1419
  117OSM   C16S12222   2.673   3.195   5.232 -0.2663  0.0994  0.7231
  117OSM   H16S12223   2.713   3.130   5.152  0.7235  1.7079 -0.1532
  117OSM   H16T12224   2.729   3.200   5.328  0.0549  1.4313  0.4969
  117OSM   C17S12225   2.684   3.341   5.174 -0.1277 -0.3104 -0.1802
  117OSM   H17S12226   2.790   3.372   5.162  0.2114 -1.2227  0.3439
  117OSM   H17T12227   2.642   3.416   5.244 -0.0559  0.2438 -0.7203
  117OSM   C18S12228   2.613   3.357   5.039 -0.1215 -0.1834 -0.0418
  117OSM   H18S12229   2.622   3.272   4.968 -2.4020  0.5823 -1.3509
  117OSM   H18T12230   2.654   3.438   4.976  1.2186 -0.1794  0.8024
  117OSM   H18U12231   2.502   3.364   5.048 -0.2335  0.2520 -1.4239
  117OSM    C1F12232   2.750   2.825   6.507 -0.1570 -0.1121 -0.1459
  117OSM     OF12233   2.847   2.772   6.556 -0.4108 -0.9993 -0.3635
  117OSM    C2F12234   2.758   2.965   6.451 -0.4511  0.1770 -0.4816
  117OSM    H2F12235   2.863   2.999   6.448 -0.3621  0.1943  1.4271
  117OSM    H2G12236   2.712   3.033   6.525  0.1653 -0.2578  0.3185
  117OSM    C3F12237   2.681   2.985   6.317 -0.4674 -0.2848  0.5228
  117OSM    H3F12238   2.572   2.991   6.337 -0.4563 -2.6534  1.5414
  117OSM    H3G12239   2.707   2.905   6.244  3.1241  2.3173 -1.3920
  117OSM    C4F12240   2.713   3.114   6.246  0.6603  1.3394 -1.0423
  117OSM    H4F12241   2.713   3.192   6.325 -2.6885  0.5511 -0.1156
  117OSM    H4G12242   2.624   3.140   6.186  0.1383  1.1833 -0.3519
  117OSM    C5F12243   2.847   3.109   6.168  0.5902  0.6082  0.4611
  117OSM    H5F12244   2.934   3.095   6.236 -1.2674  0.7502  3.0173
  117OSM    H5G12245   2.851   3.208   6.118 -0.3761  0.2883 -0.2847
  117OSM    C6F12246   2.851   3.000   6.055  0.1449 -0.1891  0.0798
  117OSM    H6F12247   2.755   2.993   5.998  0.6875 -2.6745 -0.6662
  117OSM    H6G12248   2.879   2.903   6.101  1.8371  0.9283  1.5292
  117OSM    C7F12249   2.958   3.025   5.954  0.4168  0.1013  0.2228
  117OSM    H7F12250   3.049   3.038   6.017  0.4942  2.3875 -0.2611
  117OSM    H7G12251   2.943   3.125   5.909  0.6548 -0.0660 -0.2376
  117OSM    C8F12252   2.970   2.930   5.828  0.2375 -0.3396 -0.2432
  117OSM    H8F12253   2.862   2.930   5.802  0.2836 -0.6761 -0.4310
  117OSM    H8G12254   2.987   2.824   5.855 -1.5233 -1.8388 -4.2832
  117OSM    C9F12255   3.074   2.977   5.728 -0.3997  0.1478  0.5335
  117OSM    H9F12256   3.156   3.035   5.773  1.7728 -0.7630 -2.0010
  117OSM   C10F12257   3.078   2.949   5.599 -0.2254  0.8059  0.0814
  117OSM   H10F12258   3.155   2.995   5.535 -0.4980 -1.5740 -2.1021
  117OSM   C11F12259   2.977   2.860   5.532  0.1387 -0.3948  0.4109
  117OSM   H11F12260   2.890   2.828   5.593 -1.7256  0.3466 -1.7733
  117OSM   H11G12261   3.025   2.766   5.500 -1.7394 -1.4448  0.5575
  117OSM   C12F12262   2.932   2.937   5.401  0.1153  0.0821 -0.1008
  117OSM   H12F12263   2.897   3.033   5.443  1.5429  0.3137  0.6238
  117OSM   H12G12264   2.854   2.879   5.348  2.2280 -2.0885 -1.0352
  117OSM   C13F12265   3.051   2.945   5.305  0.0547 -0.0525  0.0969
  117OSM   H13F12266   3.146   2.976   5.354  0.3429 -1.3420  0.4032
  117OSM   H13G12267   3.019   3.010   5.221 -1.2329 -2.9277 -1.7932
  117OSM   C14F12268   3.089   2.810   5.244  0.2078  0.6350 -0.1270
  117OSM   H14F12269   3.000   2.744   5.246 -0.5897  1.6766 -0.3814
  117OSM   H14G12270   3.160   2.766   5.317 -2.0197 -0.0869  1.7428
  117OSM   C15F12271   3.127   2.812   5.095 -0.2515 -0.3802 -0.9691
  117OSM   H15F12272   3.032   2.847   5.049 -2.5180 -0.7852  2.9346
  117OSM   H15G12273   3.148   2.705   5.071  2.6577 -0.1317  0.1280
  117OSM   C16F12274   3.254   2.896   5.058 -0.1898 -0.8171 -0.7607
  117OSM   H16F12275   3.235   2.987   5.119 -0.0904  0.5503 -2.6893
  117OSM   H16G12276   3.245   2.912   4.948  1.0784 -0.3018 -0.8138
  117OSM   C17F12277   3.393   2.838   5.097 -0.0521  0.0871  0.2694
  117OSM   H17F12278   3.401   2.828   5.208 -0.3598 -1.0440  0.2035
  117OSM   H17G12279   3.455   2.925   5.065  0.5434 -0.9202 -1.4181
  117OSM   C18F12280   3.442   2.720   5.026  0.0625 -0.2137  0.2107
  117OSM   H18F12281   3.439   2.734   4.915 -3.9794  0.2100  0.2103
  117OSM   H18G12282   3.371   2.635   5.035 -0.6925  0.5301  1.5623
  117OSM   H18H12283   3.534   2.677   5.070  0.2006  0.8096  0.9567
  118OSM      N12284   5.085   2.554   6.654 -0.0782 -0.1474 -0.2333
  118OSM    C1512285   4.997   2.665   6.598  0.0436  0.1998 -0.0443
  118OSM   H15A12286   4.918   2.616   6.543  1.3369 -0.2576 -1.5527
  118OSM   H15B12287   5.052   2.725   6.527  0.2337 -0.4967 -0.4951
  118OSM   H15C12288   4.959   2.729   6.676  0.5004 -1.5548  1.6977
  118OSM    C1412289   5.110   2.460   6.532  0.0423 -0.5308  0.6897
  118OSM   H14A12290   5.142   2.519   6.448  0.4672 -1.8614 -0.1103
  118OSM   H14B12291   5.014   2.421   6.503 -0.6418  2.3605 -1.3137
  118OSM   H14C12292   5.187   2.385   6.544 -0.5171 -1.1351  0.5121
  118OSM    C1312293   5.214   2.610   6.694 -0.2240 -0.5350  0.2824
  118OSM   H13A12294   5.285   2.530   6.688  1.7099  1.1978 -1.5445
  118OSM   H13B12295   5.214   2.647   6.795 -2.1221  1.4633 -0.3520
  118OSM   H13C12296   5.251   2.681   6.621  1.0346 -0.5723  0.8656
  118OSM    C1212297   5.018   2.480   6.766 -0.2758  0.5106  0.0511
  118OSM   H12A12298   5.095   2.417   6.808  1.3528  0.6097 -2.5533
  118OSM   H12B12299   4.939   2.409   6.743 -0.4780  0.1843  1.6422
  118OSM    C1112300   4.973   2.567   6.886  0.6518  0.2615  0.4983
  118OSM   H11A12301   5.044   2.651   6.902  2.1015 -0.9404  0.6216
  118OSM   H11B12302   4.991   2.490   6.965  4.5117 -2.3999 -2.5944
  118OSM      P12303   4.716   2.504   6.901 -0.2012 -0.3283 -0.0130
  118OSM    O1312304   4.749   2.426   7.025 -0.3616 -0.2231 -0.0224
  118OSM    O1412305   4.590   2.572   6.914 -0.3219  0.0220 -0.4404
  118OSM    O1112306   4.716   2.406   6.778  0.0874 -0.3962  0.6468
  118OSM    O1212307   4.838   2.609   6.867 -0.4479  0.5268  0.9874
  118OSM    C1S12308   4.671   2.471   6.658  0.4939  0.0113  0.0686
  118OSM    H1S12309   4.755   2.540   6.635  1.1116 -0.7294  0.0460
  118OSM    H1T12310   4.580   2.533   6.661  1.5700  1.7555 -1.2732
  118OSM     NF12311   4.629   2.430   6.415 -0.7826 -0.3135 -0.4146
  118OSM    HNF12312   4.545   2.410   6.365 -0.1848 -0.9453 -1.1987
  118OSM    C2S12313   4.642   2.364   6.543 -0.7764 -0.3957  0.1525
  118OSM    H2S12314   4.733   2.302   6.527 -1.7309 -1.5872 -0.8977
  118OSM    C3S12315   4.531   2.270   6.582  1.0044  0.1812 -0.9580
  118OSM    H3S12316   4.435   2.327   6.581  1.6460  1.5396 -5.3465
  118OSM     O312317   4.539   2.202   6.708  0.2407 -0.2305  0.1883
  118OSM    HO312318   4.617   2.245   6.744 -1.2840  0.8805  2.3550
  118OSM    C4S12319   4.523   2.159   6.473 -0.1799  0.3729 -0.2802
  118OSM    H4S12320   4.468   2.194   6.384  1.3827  1.5448 -0.8381
  118OSM    C5S12321   4.565   2.029   6.482  0.0189  0.6690  0.3149
  118OSM    H5S12322   4.610   1.988   6.574  1.9048  0.1894 -0.7729
  118OSM    C6S12323   4.551   1.929   6.367 -0.0964 -0.7699 -0.2780
  118OSM    H6S12324   4.484   1.849   6.405 -0.3277 -1.2232 -1.6081
  118OSM    H6T12325   4.652   1.885   6.353  0.6484  0.3812  1.1554
  118OSM    C7S12326   4.494   1.979   6.236  0.0324 -0.3604  0.2584
  118OSM    H7S12327   4.565   2.058   6.203 -0.2757 -0.5639 -0.9409
  118OSM    H7T12328   4.397   2.030   6.254  0.6953  0.3389  2.1141
  118OSM    C8S12329   4.479   1.874   6.120 -1.0354  0.4555  0.3406
  118OSM    H8S12330   4.402   1.798   6.142 -2.0305  1.1881 -0.4984
  118OSM    H8T12331   4.584   1.839   6.118 -1.3248 -0.4974  1.2272
  118OSM    C9S12332   4.441   1.932   5.983 -0.6919 -0.3171 -0.0550
  118OSM    H9S12333   4.499   2.026   5.972 -0.5438 -0.4746 -0.6516
  118OSM    H9T12334   4.333   1.957   5.994 -0.3882  0.5229  1.2763
  118OSM   C10S12335   4.473   1.850   5.860  0.3047  0.0759 -0.0331
  118OSM   H10S12336   4.406   1.761   5.860  1.3508 -0.7426 -1.3396
  118OSM   H10T12337   4.572   1.800   5.866  0.2232 -0.2011 -0.9574
  118OSM   C11S12338   4.462   1.931   5.734 -0.0116 -0.9402 -0.0526
  118OSM   H11S12339   4.549   2.000   5.738 -1.1295  0.4863  0.5810
  118OSM   H11T12340   4.372   1.995   5.738  0.7079  0.0676  0.9244
  118OSM   C12S12341   4.455   1.843   5.609 -0.1204  0.4201 -0.0448
  118OSM   H12S12342   4.393   1.752   5.621  2.2832 -1.6861 -2.2288
  118OSM   H12T12343   4.558   1.805   5.594  0.0786  0.4283  1.1912
  118OSM   C13S12344   4.418   1.922   5.484 -0.2968  0.1037  0.2148
  118OSM   H13S12345   4.475   2.018   5.487 -1.4921  0.9352 -1.5600
  118OSM   H13T12346   4.311   1.951   5.481  0.2895  2.4032 -0.6301
  118OSM   C14S12347   4.456   1.835   5.366 -0.5694  0.2144  0.3072
  118OSM   H14S12348   4.395   1.742   5.370  0.4496 -0.4952 -0.0982
  118OSM   H14T12349   4.559   1.800   5.389 -0.3098  1.1778  0.6622
  118OSM   C15S12350   4.439   1.919   5.239 -0.0359  0.1556  0.5253
  118OSM   H15S12351   4.488   2.018   5.253  1.5174 -0.1659 -1.9436
  118OSM   H15T12352   4.328   1.925   5.233 -0.0945  0.5092  1.6413
  118OSM   C16S12353   4.497   1.850   5.122 -0.1271 -0.2722  0.1925
  118OSM   H16S12354   4.445   1.755   5.100 -0.2156  0.1945 -1.9057
  118OSM   H16T12355   4.604   1.838   5.150 -0.5650 -1.1821  1.5492
  118OSM   C17S12356   4.495   1.949   5.000  0.0448 -0.0277 -0.1922
  118OSM   H17S12357   4.581   1.915   4.938  1.7094 -1.4584  2.6812
  118OSM   H17T12358   4.510   2.054   5.033 -1.2079  0.9936 -2.6202
  118OSM   C18S12359   4.381   1.943   4.906  0.5049 -0.0611 -0.3487
  118OSM   H18S12360   4.405   2.011   4.821  1.0380  4.9538  3.3640
  118OSM   H18T12361   4.299   1.999   4.954  0.4166 -0.2079 -0.3288
  118OSM   H18U12362   4.346   1.843   4.873 -3.3732  0.6764  1.0201
  118OSM    C1F12363   4.723   2.514   6.362 -0.1998 -0.1091 -0.5695
  118OSM     OF12364   4.839   2.505   6.402 -0.4110  0.9167 -0.2589
  118OSM    C2F12365   4.682   2.622   6.263  0.1231  0.4735  0.0228
  118OSM    H2F12366   4.670   2.715   6.323 -0.7074 -0.3830  1.2132
  118OSM    H2G12367   4.581   2.613   6.218 -0.0207 -0.4701  0.4970
  118OSM    C3F12368   4.785   2.644   6.147  0.0283  0.3982 -0.3869
  118OSM    H3F12369   4.813   2.544   6.108  0.2515  0.5818 -0.7030
  118OSM    H3G12370   4.877   2.676   6.202  1.3049 -2.2142 -0.8189
  118OSM    C4F12371   4.728   2.737   6.033  0.4946 -0.1590  0.3085
  118OSM    H4F12372   4.815   2.802   6.008  0.3544  0.1955  0.7238
  118OSM    H4G12373   4.643   2.800   6.067  0.1487 -0.4899  0.0554
  118OSM    C5F12374   4.695   2.646   5.917  0.1390 -0.4084  0.4097
  118OSM    H5F12375   4.609   2.583   5.946 -2.1863  2.5457  0.3126
  118OSM    H5G12376   4.782   2.585   5.884 -1.0922  0.2359 -5.1201
  118OSM    C6F12377   4.644   2.724   5.797 -0.2498 -0.1260 -0.7676
  118OSM    H6F12378   4.714   2.807   5.773  0.4218  0.8925  3.7880
  118OSM    H6G12379   4.551   2.782   5.818 -0.3453 -0.9510  1.3200
  118OSM    C7F12380   4.616   2.637   5.678  0.8245 -0.0886  0.6988
  118OSM    H7F12381   4.515   2.592   5.671  0.2763  1.1215  0.6441
  118OSM    H7G12382   4.687   2.553   5.694  0.6860 -0.8590 -2.2058
  118OSM    C8F12383   4.661   2.697   5.541  0.2425 -1.1607  0.6367
  118OSM    H8F12384   4.771   2.710   5.537  0.1597 -0.6460 -0.5277
  118OSM    H8G12385   4.599   2.786   5.519  1.4601 -0.1008  1.3422
  118OSM    C9F12386   4.630   2.610   5.425 -0.5467 -0.4728 -0.4011
  118OSM    H9F12387   4.615   2.503   5.445  1.3473 -0.9583 -1.3672
  118OSM   C10F12388   4.627   2.653   5.300 -0.9699  0.0505 -0.1260
  118OSM   H10F12389   4.618   2.575   5.223 -1.0750 -0.7054  0.6275
  118OSM   C11F12390   4.655   2.793   5.244 -0.3210  0.1822  0.6116
  118OSM   H11F12391   4.735   2.784   5.168 -0.2310 -0.7047  0.7934
  118OSM   H11G12392   4.684   2.868   5.320  2.2304  0.6455 -0.7151
  118OSM   C12F12393   4.537   2.854   5.171  0.3903 -0.4854  0.6215
  118OSM   H12F12394   4.526   2.964   5.175  0.7602 -0.4054 -0.2036
  118OSM   H12G12395   4.441   2.824   5.218 -1.5665  3.4749 -0.4228
  118OSM   C13F12396   4.528   2.816   5.020 -0.7652 -0.3879  1.3991
  118OSM   H13F12397   4.521   2.705   5.015  0.0989 -0.3749 -1.2241
  118OSM   H13G12398   4.625   2.841   4.974 -1.0190 -0.5682  0.7581
  118OSM   C14F12399   4.416   2.878   4.939  0.1541 -0.7041  0.5454
  118OSM   H14F12400   4.424   2.985   4.970  0.7787 -0.9989  1.4254
  118OSM   H14G12401   4.320   2.836   4.977 -0.1879  1.6034  2.5283
  118OSM   C15F12402   4.438   2.873   4.783  0.0077  0.3575  0.0514
  118OSM   H15F12403   4.545   2.900   4.771 -0.6102  2.9395 -0.2869
  118OSM   H15G12404   4.379   2.953   4.733  0.4752  0.4023 -0.4414
  118OSM   C16F12405   4.413   2.730   4.725 -0.1705  0.0380 -0.1131
  118OSM   H16F12406   4.321   2.692   4.775 -1.3443 -0.5222 -2.5209
  118OSM   H16G12407   4.500   2.669   4.755 -1.3635 -1.3794  0.5425
  118OSM   C17F12408   4.385   2.736   4.575  0.0091 -0.6320 -0.2890
  118OSM   H17F12409   4.290   2.788   4.552  0.3405  1.3247  2.3193
  118OSM   H17G12410   4.356   2.633   4.544 -2.6740  0.3989 -1.4615
  118OSM   C18F12411   4.488   2.800   4.489  0.4138 -0.6947  0.2498
  118OSM   H18F12412   4.451   2.791   4.385  0.5446  0.2475  0.1129
  118OSM   H18G12413   4.587   2.752   4.502  0.7321  0.4545  2.6150
  118OSM   H18H12414   4.505   2.908   4.511  0.0938 -1.2727  3.8104
  119OSM      N12415   5.391   3.748   6.891  0.4252  0.0115  0.0553
  119OSM    C1512416   5.327   3.738   6.761  0.9626 -0.2278  0.4972
  119OSM   H15A12417   5.391   3.695   6.685  1.0220  0.9810 -0.1570
  119OSM   H15B12418   5.291   3.834   6.728  1.0562 -0.2645  0.2856
  119OSM   H15C12419   5.237   3.679   6.768  2.2080 -2.2620  0.3414
  119OSM    C1412420   5.302   3.686   6.996 -0.2007  0.5854 -0.2162
  119OSM   H14A12421   5.198   3.716   7.003 -1.0060 -2.2496  3.9292
  119OSM   H14B12422   5.350   3.700   7.092 -0.4810 -1.5752  0.2822
  119OSM   H14C12423   5.307   3.579   6.988 -0.2778  0.5838 -0.2451
  119OSM    C1312424   5.517   3.665   6.886  0.9960 -0.9003  0.2878
  119OSM   H13A12425   5.592   3.719   6.830  0.6839 -1.8754 -1.1237
  119OSM   H13B12426   5.495   3.586   6.816  2.4629  1.2281 -2.7934
  119OSM   H13C12427   5.544   3.645   6.988  2.0038  1.0205  0.4507
  119OSM    C1212428   5.416   3.886   6.932 -0.8501 -0.2129 -0.2466
  119OSM   H12A12429   5.468   3.882   7.027 -1.3345  1.5868  0.1246
  119OSM   H12B12430   5.321   3.927   6.962 -0.7056  0.7472 -1.0246
  119OSM    C1112431   5.501   3.981   6.846  0.1618  0.2979  0.0816
  119OSM   H11A12432   5.501   4.083   6.888 -0.0061 -0.2556  1.4773
  119OSM   H11B12433   5.450   3.986   6.747  0.0668  2.8599  0.2050
  119OSM      P12434   5.750   3.955   6.930 -0.0280 -0.0026  0.1479
  119OSM    O1312435   5.689   3.995   7.057 -0.0742  0.1267 -0.1471
  119OSM    O1412436   5.853   3.850   6.931 -0.2424  0.1282 -0.3458
  119OSM    O1112437   5.829   4.081   6.874 -0.2281 -0.0695  0.6528
  119OSM    O1212438   5.633   3.922   6.817  0.2480 -0.2865 -0.4846
  119OSM    C1S12439   5.883   4.082   6.737  0.0300  0.6074  0.2761
  119OSM    H1S12440   5.828   4.013   6.670 -1.1025 -0.7745  2.5164
  119OSM    H1T12441   5.991   4.057   6.734  0.0038  0.5255  0.0136
  119OSM     NF12442   5.941   4.244   6.553 -0.0888  0.1819  0.2154
  119OSM    HNF12443   6.036   4.276   6.549 -0.3702  1.0030  0.1069
  119OSM    C2S12444   5.900   4.230   6.688 -0.2378  0.1830  0.1519
  119OSM    H2S12445   5.797   4.273   6.694 -0.9472 -1.0583 -1.9712
  119OSM    C3S12446   5.991   4.310   6.789 -0.5012 -0.5761 -0.2975
  119OSM    H3S12447   6.094   4.270   6.778 -0.4664 -0.7569  0.5599
  119OSM     O312448   5.945   4.310   6.930  0.2789  0.1182  0.5243
  119OSM    HO312449   5.871   4.249   6.927  0.2506  0.0413  2.1118
  119OSM    C4S12450   5.996   4.457   6.752  0.5173 -0.2528  0.1311
  119OSM    H4S12451   5.899   4.505   6.768  0.4281 -0.5671  0.5644
  119OSM    C5S12452   6.098   4.535   6.710  0.0290  0.5785 -0.9176
  119OSM    H5S12453   6.195   4.484   6.708 -0.6772 -1.3283  3.2123
  119OSM    C6S12454   6.082   4.680   6.669  0.1397 -0.0117  0.7956
  119OSM    H6S12455   6.141   4.743   6.739 -0.2609 -0.1656  1.2847
  119OSM    H6T12456   5.975   4.709   6.672  0.2435  0.7977 -1.4242
  119OSM    C7S12457   6.138   4.723   6.532 -0.0327  0.3730 -0.1844
  119OSM    H7S12458   6.245   4.703   6.513 -0.2684  1.2459 -2.7568
  119OSM    H7T12459   6.127   4.832   6.517 -1.7922  0.1630 -0.6731
  119OSM    C8S12460   6.078   4.668   6.404 -0.6450 -0.5188  0.0549
  119OSM    H8S12461   5.970   4.695   6.403 -0.5256  0.1599 -2.6706
  119OSM    H8T12462   6.085   4.558   6.415  0.3927 -0.3568  1.3275
  119OSM    C9S12463   6.133   4.726   6.274 -0.8109  0.5457 -0.2461
  119OSM    H9S12464   6.244   4.716   6.272 -0.8865 -0.2493 -1.2209
  119OSM    H9T12465   6.097   4.831   6.273  0.0306  0.8429 -1.6284
  119OSM   C10S12466   6.092   4.646   6.152 -0.5230  0.1956 -1.1188
  119OSM   H10S12467   5.982   4.634   6.147 -0.3570 -1.9869 -0.5392
  119OSM   H10T12468   6.130   4.542   6.154 -1.8567 -0.3097  1.0270
  119OSM   C11S12469   6.133   4.712   6.017 -0.1719  0.5498  0.3121
  119OSM   H11S12470   6.244   4.704   6.009 -0.3268  0.0248 -2.0849
  119OSM   H11T12471   6.106   4.820   6.014  1.0700  0.8935  0.8003
  119OSM   C12S12472   6.056   4.641   5.901  0.9544 -0.4314 -0.2022
  119OSM   H12S12473   5.951   4.675   5.891  1.2114 -0.1813 -2.4523
  119OSM   H12T12474   6.050   4.532   5.925 -1.3511 -0.8780 -2.3051
  119OSM   C13S12475   6.120   4.671   5.765 -0.6244  0.5522 -0.0098
  119OSM   H13S12476   6.133   4.779   5.740 -2.2752  1.3541  2.2264
  119OSM   H13T12477   6.051   4.644   5.681  2.6112 -1.1402 -2.3193
  119OSM   C14S12478   6.247   4.590   5.721 -0.1722  0.3029 -0.2394
  119OSM   H14S12479   6.227   4.487   5.756 -0.1953  0.3180 -0.2086
  119OSM   H14T12480   6.336   4.638   5.767  1.5193 -2.4297 -0.4984
  119OSM   C15S12481   6.262   4.589   5.565 -0.3920  0.4847  0.0880
  119OSM   H15S12482   6.273   4.693   5.529  0.0558 -0.4908 -2.8328
  119OSM   H15T12483   6.170   4.552   5.516  0.3894 -0.9390 -0.3993
  119OSM   C16S12484   6.385   4.507   5.528  0.1492 -0.1646 -0.0017
  119OSM   H16S12485   6.353   4.401   5.532 -0.3482  0.0112  1.5820
  119OSM   H16T12486   6.465   4.523   5.604  0.4979  1.7073 -0.6956
  119OSM   C17S12487   6.449   4.538   5.390 -0.8599 -0.5569 -0.3889
  119OSM   H17S12488   6.559   4.523   5.392 -0.6442  0.5705 -2.2630
  119OSM   H17T12489   6.427   4.646   5.377 -0.5932 -0.3978  0.4141
  119OSM   C18S12490   6.401   4.449   5.276  0.0130 -0.9465 -0.5454
  119OSM   H18S12491   6.465   4.479   5.190  0.4992 -0.7515 -0.1186
  119OSM   H18T12492   6.295   4.468   5.251  0.5604  0.8044 -1.6932
  119OSM   H18U12493   6.411   4.339   5.286 -0.1547 -0.7929  1.7274
  119OSM    C1F12494   5.865   4.205   6.450 -0.2169  0.5065  0.2613
  119OSM     OF12495   5.766   4.135   6.476  0.1558 -0.4358 -0.3574
  119OSM    C2F12496   5.915   4.235   6.311 -1.0730  0.2400 -0.8849
  119OSM    H2F12497   6.001   4.166   6.302  0.5650  2.2623 -1.4738
  119OSM    H2G12498   5.948   4.340   6.297  1.9537 -0.6069 -0.7552
  119OSM    C3F12499   5.816   4.214   6.196 -0.2647  0.1385  0.1151
  119OSM    H3F12500   5.733   4.287   6.205 -1.8514 -1.6445  0.6496
  119OSM    H3G12501   5.766   4.116   6.211 -0.1938  0.0129 -0.4496
  119OSM    C4F12502   5.875   4.248   6.057  0.0494  0.7296  0.5580
  119OSM    H4F12503   5.948   4.172   6.022  0.4047  1.0776  0.5389
  119OSM    H4G12504   5.931   4.342   6.073 -0.3692  1.2900 -1.1047
  119OSM    C5F12505   5.756   4.268   5.964 -0.6213  0.1164 -0.4194
  119OSM    H5F12506   5.671   4.319   6.014  1.0677  0.1175  2.7137
  119OSM    H5G12507   5.712   4.171   5.933  1.1658 -0.7030 -0.5073
  119OSM    C6F12508   5.791   4.330   5.824  0.4350  0.1782 -0.2348
  119OSM    H6F12509   5.832   4.430   5.850 -0.1149  0.3973 -0.1770
  119OSM    H6G12510   5.700   4.338   5.760  0.2197  1.7550  0.2274
  119OSM    C7F12511   5.878   4.241   5.734  0.3322 -0.1755 -0.3968
  119OSM    H7F12512   5.827   4.144   5.722  1.1256 -0.7878  0.9536
  119OSM    H7G12513   5.970   4.222   5.793  0.9780 -2.3193 -1.9660
  119OSM    C8F12514   5.922   4.303   5.599 -0.3204  0.0384 -0.0526
  119OSM    H8F12515   6.010   4.252   5.555  0.2040  0.6128  0.3150
  119OSM    H8G12516   5.966   4.403   5.617  0.9143 -0.3681 -0.7189
  119OSM    C9F12517   5.810   4.313   5.503 -0.0468 -0.1702 -0.1332
  119OSM    H9F12518   5.712   4.282   5.542  1.1161 -4.6279 -0.1830
  119OSM   C10F12519   5.816   4.339   5.373 -0.5693 -0.1115  0.3486
  119OSM   H10F12520   5.722   4.354   5.317 -0.6137  0.6734  0.6329
  119OSM   C11F12521   5.938   4.369   5.287 -0.0242  0.0546 -0.1945
  119OSM   H11F12522   6.029   4.401   5.340 -0.0462  1.0598 -0.7420
  119OSM   H11G12523   5.909   4.456   5.224  1.7792  2.0825  1.6449
  119OSM   C12F12524   5.976   4.264   5.188 -1.1423 -0.2329  0.4136
  119OSM   H12F12525   5.887   4.225   5.135 -0.8895  0.4102 -0.5020
  119OSM   H12G12526   6.018   4.175   5.240  0.1037 -2.5355 -4.0658
  119OSM   C13F12527   6.080   4.305   5.072 -0.8411 -0.4686 -0.2431
  119OSM   H13F12528   6.077   4.216   5.005  2.0983  0.2032 -1.4214
  119OSM   H13G12529   6.185   4.323   5.105 -0.4415  1.6091 -2.3583
  119OSM   C14F12530   6.038   4.432   4.996  0.1825  0.3109 -0.4523
  119OSM   H14F12531   6.049   4.520   5.063  0.5295 -2.2341  3.1677
  119OSM   H14G12532   5.929   4.420   4.977  0.4228 -2.8323 -0.5315
  119OSM   C15F12533   6.108   4.461   4.864 -0.8686  0.4764  0.3138
  119OSM   H15F12534   6.135   4.367   4.810  1.6489  1.3540 -0.1119
  119OSM   H15G12535   6.207   4.509   4.880  1.1048 -1.5276 -3.9639
  119OSM   C16F12536   6.032   4.556   4.767 -0.1013  0.8450 -0.2724
  119OSM   H16F12537   5.927   4.546   4.801  0.7239 -3.0651  1.6815
  119OSM   H16G12538   6.035   4.525   4.661  0.4693 -0.2432  0.0492
  119OSM   C17F12539   6.077   4.702   4.775 -0.5015  0.5951  0.7032
  119OSM   H17F12540   6.176   4.716   4.727 -1.4393  0.3075 -1.4378
  119OSM   H17G12541   6.089   4.712   4.885  1.5860 -0.9712  0.6914
  119OSM   C18F12542   5.993   4.799   4.697  0.0054  0.5782 -0.3891
  119OSM   H18F12543   5.891   4.810   4.739 -0.2917 -1.7269 -0.3943
  119OSM   H18G12544   5.992   4.760   4.593  2.3395 -1.2096  0.1700
  119OSM   H18H12545   6.046   4.897   4.696  0.8369  0.1364 -0.7237
  120OSM      N12546   1.201   4.064   7.327 -0.4680  0.0046 -0.0029
  120OSM    C1512547   1.234   4.093   7.471 -0.8621 -0.2311 -0.0073
  120OSM   H15A12548   1.339   4.118   7.473 -0.4667 -1.8047  0.1237
  120OSM   H15B12549   1.231   4.014   7.546  1.6448 -0.9080 -0.5216
  120OSM   H15C12550   1.178   4.181   7.499  1.0056  0.6523  1.1304
  120OSM    C1412551   1.062   4.021   7.322 -0.4316  0.0201 -0.0653
  120OSM   H14A12552   1.021   3.993   7.226 -0.6154 -1.4918  0.4370
  120OSM   H14B12553   1.009   4.102   7.369  0.1382  2.2460 -2.9648
  120OSM   H14C12554   1.051   3.938   7.390 -1.9511 -0.1113 -0.4533
  120OSM    C1312555   1.207   4.193   7.251 -0.0258  0.3262  0.4132
  120OSM   H13A12556   1.290   4.253   7.288  0.2645  0.8306 -1.0158
  120OSM   H13B12557   1.122   4.252   7.278 -1.1587 -0.5527 -1.0867
  120OSM   H13C12558   1.211   4.180   7.144  0.8396  1.1355  0.3387
  120OSM    C1212559   1.295   3.960   7.278 -0.0028 -0.0371 -0.1093
  120OSM   H12A12560   1.295   3.875   7.344 -1.6687 -1.9727 -2.4042
  120OSM   H12B12561   1.395   3.999   7.275 -0.4385  1.1018 -0.6609
  120OSM    C1112562   1.273   3.903   7.132  0.2929 -0.3268  0.2222
  120OSM   H11A12563   1.171   3.859   7.135 -0.2605  0.9185  0.2385
  120OSM   H11B12564   1.334   3.811   7.120  0.4433 -0.2259  0.2112
  120OSM      P12565   1.445   4.056   7.027 -0.0129  0.2920 -0.2774
  120OSM    O1312566   1.440   4.205   7.024 -0.8712  0.1893  0.1648
  120OSM    O1412567   1.528   4.004   7.139  0.6674 -0.4007  0.3392
  120OSM    O1112568   1.500   4.013   6.887  0.6986 -0.3955 -0.0468
  120OSM    O1212569   1.303   3.989   7.023  0.7110  0.0226  0.0823
  120OSM    C1S12570   1.429   4.002   6.768  0.4196  0.1827 -0.2175
  120OSM    H1S12571   1.365   4.093   6.759 -1.6100 -0.8935  2.0104
  120OSM    H1T12572   1.353   3.921   6.770 -0.5294  1.0435  0.7569
  120OSM     NF12573   1.452   3.978   6.533  0.2298  0.1381  0.6580
  120OSM    HNF12574   1.449   3.884   6.501  1.0003 -0.3519  1.9456
  120OSM    C2S12575   1.530   3.981   6.651 -0.1073 -0.1262 -0.7459
  120OSM    H2S12576   1.595   4.070   6.645 -1.8442  1.2429 -0.2098
  120OSM    C3S12577   1.613   3.850   6.674 -0.0057 -0.3067 -0.9880
  120OSM    H3S12578   1.548   3.763   6.650  0.6209 -1.3214  0.8096
  120OSM     O312579   1.657   3.825   6.808 -0.2231  0.5854 -0.4130
  120OSM    HO312580   1.591   3.873   6.859 -0.0348  1.2249 -0.7612
  120OSM    C4S12581   1.728   3.827   6.582  0.5936 -0.5468 -0.3472
  120OSM    H4S12582   1.808   3.903   6.588 -1.2643  1.3687  2.0418
  120OSM    C5S12583   1.743   3.714   6.513 -0.3025 -0.5547  0.2018
  120OSM    H5S12584   1.665   3.637   6.519  0.5646 -1.4348  0.3796
  120OSM    C6S12585   1.868   3.674   6.437  0.5372 -0.1756 -0.5482
  120OSM    H6S12586   1.900   3.575   6.475  4.3313  0.5870 -1.4194
  120OSM    H6T12587   1.946   3.750   6.455 -0.0429  0.4173 -0.4930
  120OSM    C7S12588   1.854   3.663   6.285  0.4228 -0.6782  0.2568
  120OSM    H7S12589   1.857   3.761   6.234  2.3480 -1.4820 -1.3008
  120OSM    H7T12590   1.766   3.598   6.265 -0.2702  0.4403 -0.4424
  120OSM    C8S12591   1.976   3.598   6.219 -0.7588 -0.4129 -0.1319
  120OSM    H8S12592   2.009   3.505   6.271 -1.1470 -1.0438 -0.9998
  120OSM    H8T12593   2.061   3.670   6.219 -1.0618  0.0370 -3.0925
  120OSM    C9S12594   1.945   3.549   6.073  0.2386 -0.4313 -0.5335
  120OSM    H9S12595   1.838   3.520   6.077 -0.4781  2.0616  0.2568
  120OSM    H9T12596   2.018   3.472   6.041  1.4909 -0.3716  1.9449
  120OSM   C10S12597   1.958   3.667   5.984  0.0867 -0.1585  0.0866
  120OSM   H10S12598   2.049   3.729   5.994 -0.0682 -0.0217  0.6992
  120OSM   H10T12599   1.875   3.740   5.998  1.3634  1.0858  1.4666
  120OSM   C11S12600   1.940   3.613   5.839 -0.0681  0.3109  0.1904
  120OSM   H11S12601   1.837   3.572   5.827 -0.7798  2.3014 -1.0361
  120OSM   H11T12602   2.010   3.529   5.820 -0.6103 -0.4013  1.2453
  120OSM   C12S12603   1.952   3.715   5.722  0.3749 -0.0678 -0.0382
  120OSM   H12S12604   2.049   3.769   5.726  0.3164  0.0386  4.2419
  120OSM   H12T12605   1.880   3.793   5.755 -0.0204 -0.0773 -0.8514
  120OSM   C13S12606   1.916   3.659   5.585  0.4329 -0.7034  0.3399
  120OSM   H13S12607   1.810   3.631   5.601  0.7102 -1.2970  1.2238
  120OSM   H13T12608   1.962   3.563   5.553  2.2022  0.6353 -1.3988
  120OSM   C14S12609   1.932   3.762   5.471  0.2464  0.6493  0.8206
  120OSM   H14S12610   2.033   3.808   5.476  1.6330 -1.5095 -3.0317
  120OSM   H14T12611   1.855   3.841   5.488 -0.6129 -0.1127  0.5740
  120OSM   C15S12612   1.903   3.700   5.328 -0.3117  0.1870 -0.5867
  120OSM   H15S12613   1.792   3.694   5.325 -0.4586  1.9588  0.0700
  120OSM   H15T12614   1.962   3.607   5.320  0.6967  0.6512  0.9841
  120OSM   C16S12615   1.933   3.784   5.198  0.0178 -0.2923 -0.9730
  120OSM   H16S12616   2.044   3.787   5.186  0.1473  0.5383  0.2433
  120OSM   H16T12617   1.903   3.886   5.232 -0.8721 -1.0411  0.6107
  120OSM   C17S12618   1.860   3.735   5.078  0.1281 -0.2219 -0.7308
  120OSM   H17S12619   1.752   3.735   5.103  0.4537 -1.2179  0.7991
  120OSM   H17T12620   1.878   3.626   5.067 -3.1622 -0.7786 -1.9074
  120OSM   C18S12621   1.892   3.813   4.949 -0.2550  0.0426  0.1136
  120OSM   H18S12622   1.850   3.763   4.859  0.1751 -1.1387  0.5529
  120OSM   H18T12623   2.004   3.811   4.949 -0.2070  1.6410 -0.5656
  120OSM   H18U12624   1.849   3.915   4.945  0.3669  0.3072 -0.0541
  120OSM    C1F12625   1.398   4.075   6.459  0.2563 -0.1222 -0.1732
  120OSM     OF12626   1.435   4.190   6.471  0.4981 -0.2133 -0.2254
  120OSM    C2F12627   1.280   4.046   6.368 -1.1509  0.5213  0.1628
  120OSM    H2F12628   1.186   4.088   6.408 -0.0071  3.1948  0.2344
  120OSM    H2G12629   1.273   3.936   6.354  0.9265 -0.2950  4.0250
  120OSM    C3F12630   1.290   4.122   6.237 -0.0585 -0.5580 -0.6197
  120OSM    H3F12631   1.386   4.113   6.183  1.4552  0.0135  1.8317
  120OSM    H3G12632   1.287   4.231   6.258  0.2789 -0.2375 -2.1268
  120OSM    C4F12633   1.172   4.088   6.143 -0.3815  0.2823  0.4005
  120OSM    H4F12634   1.079   4.081   6.204 -1.0991  0.7418 -0.6134
  120OSM    H4G12635   1.191   3.989   6.097 -1.3784 -0.0913  0.7688
  120OSM    C5F12636   1.167   4.190   6.027  0.0427 -0.1759 -0.0637
  120OSM    H5F12637   1.169   4.291   6.072 -1.0802 -0.4551  0.6675
  120OSM    H5G12638   1.073   4.168   5.972 -0.4381  0.9156  0.2928
  120OSM    C6F12639   1.275   4.181   5.921 -0.1670  0.3709 -0.6556
  120OSM    H6F12640   1.266   4.078   5.881  0.7926 -1.0528  2.4830
  120OSM    H6G12641   1.379   4.178   5.960 -0.4539 -1.4624  0.0528
  120OSM    C7F12642   1.270   4.276   5.805 -0.4264 -0.4778  0.4912
  120OSM    H7F12643   1.371   4.283   5.760  0.7401 -1.1221  2.8370
  120OSM    H7G12644   1.259   4.379   5.844 -1.8283  0.4554 -2.1019
  120OSM    C8F12645   1.164   4.246   5.699 -0.3121  0.2305  0.0536
  120OSM    H8F12646   1.174   4.313   5.612  0.0053  1.2086  0.8219
  120OSM    H8G12647   1.061   4.274   5.730 -1.0756 -3.5870  1.5285
  120OSM    C9F12648   1.170   4.104   5.654  0.5735  0.0633  0.2197
  120OSM    H9F12649   1.119   4.030   5.717 -1.9001 -0.9894 -2.7661
  120OSM   C10F12650   1.230   4.055   5.544  0.0296 -0.8593 -0.6837
  120OSM   H10F12651   1.220   3.948   5.518 -1.6980 -0.8408 -0.2127
  120OSM   C11F12652   1.291   4.136   5.434 -0.1753 -0.0438 -0.1785
  120OSM   H11F12653   1.397   4.110   5.417 -0.2596  1.1087 -3.2139
  120OSM   H11G12654   1.288   4.246   5.449 -0.3147  0.4397 -3.1073
  120OSM   C12F12655   1.243   4.107   5.290 -0.2470 -0.7522  0.0892
  120OSM   H12F12656   1.241   3.997   5.279  1.7011 -0.9375  1.1791
  120OSM   H12G12657   1.329   4.149   5.232 -0.6302  0.2034  0.1921
  120OSM   C13F12658   1.113   4.169   5.248  0.3646 -0.5022 -0.5718
  120OSM   H13F12659   1.112   4.279   5.233 -2.4606  0.0563  2.4876
  120OSM   H13G12660   1.042   4.167   5.333  1.6905 -0.7640  0.5694
  120OSM   C14F12661   1.057   4.109   5.117  0.3316 -0.4726  0.0076
  120OSM   H14F12662   1.053   3.998   5.123  1.0266 -0.6941 -2.6268
  120OSM   H14G12663   1.115   4.139   5.027 -1.0142 -0.3698 -0.8561
  120OSM   C15F12664   0.907   4.150   5.078 -0.7459  0.1604 -0.0538
  120OSM   H15F12665   0.908   4.260   5.090  0.0735  0.4640 -2.3943
  120OSM   H15G12666   0.831   4.111   5.149 -1.3530 -1.4522 -1.5215
  120OSM   C16F12667   0.863   4.105   4.935  0.1750  0.3726 -1.0468
  120OSM   H16F12668   0.896   4.001   4.915  1.3255  0.1062  1.8064
  120OSM   H16G12669   0.924   4.172   4.871  1.6115 -1.9047 -2.1638
  120OSM   C17F12670   0.714   4.129   4.906  0.0140  0.2226  0.5081
  120OSM   H17F12671   0.684   4.235   4.922  0.1297  0.3089  0.1629
  120OSM   H17G12672   0.652   4.070   4.977 -3.3462  1.7612 -0.9284
  120OSM   C18F12673   0.689   4.095   4.759 -0.0554  0.0269 -0.0494
  120OSM   H18F12674   0.710   3.990   4.728  2.7471 -0.0880  1.8665
  120OSM   H18G12675   0.741   4.163   4.689 -0.3884  0.2388 -0.0952
  120OSM   H18H12676   0.583   4.114   4.731  0.2892  2.8259  0.3387
  121OSM      N12677   4.635   5.934   7.413  0.1898 -0.2446 -0.1844
  121OSM    C1512678   4.492   5.971   7.434  0.5128 -0.0694  0.1831
  121OSM   H15A12679   4.446   5.895   7.496 -0.4979 -1.3745 -2.0365
  121OSM   H15B12680   4.430   5.959   7.347  0.2670  0.7825  0.2339
  121OSM   H15C12681   4.470   6.068   7.476  2.2080  0.6401 -0.4801
  121OSM    C1412682   4.709   5.993   7.526 -0.5660 -0.5347 -0.2799
  121OSM   H14A12683   4.682   6.096   7.544 -2.3986 -0.9044 -0.7012
  121OSM   H14B12684   4.814   5.994   7.504 -1.0493 -0.0371 -2.8854
  121OSM   H14C12685   4.689   5.930   7.612 -1.1895  1.7022  1.3242
  121OSM    C1312686   4.646   5.786   7.414  0.6105  0.6383 -0.0753
  121OSM   H13A12687   4.749   5.757   7.398  0.7899  1.1384  0.1654
  121OSM   H13B12688   4.586   5.749   7.332 -2.0363  1.1730  1.5039
  121OSM   H13C12689   4.609   5.747   7.508  2.7569  0.2865  0.6758
  121OSM    C1212690   4.690   5.986   7.285 -0.2433  0.1747 -0.0600
  121OSM   H12A12691   4.796   5.972   7.296 -0.8018 -4.1012  1.9258
  121OSM   H12B12692   4.660   6.089   7.283  0.2272  0.3089 -0.9148
  121OSM    C1112693   4.634   5.922   7.153  0.7141  0.2087  0.3462
  121OSM   H11A12694   4.662   5.815   7.135 -1.5676 -0.3326 -0.2880
  121OSM   H11B12695   4.678   5.973   7.065 -0.9220  0.4178 -0.3767
  121OSM      P12696   4.425   6.070   7.100 -0.2008  0.2606  0.3691
  121OSM    O1312697   4.294   6.083   7.161 -0.0173  0.0313 -1.0054
  121OSM    O1412698   4.516   6.186   7.113 -0.6703  0.5278 -0.2614
  121OSM    O1112699   4.406   6.031   6.946 -0.1296 -0.4713 -0.2544
  121OSM    O1212700   4.492   5.933   7.151  0.6250  0.3152 -0.1237
  121OSM    C1S12701   4.362   5.902   6.909 -0.6365  0.3703  0.1859
  121OSM    H1S12702   4.262   5.881   6.954 -0.9794 -1.7921 -1.4280
  121OSM    H1T12703   4.429   5.819   6.941  1.6270  1.5340 -1.2815
  121OSM     NF12704   4.266   5.777   6.717 -0.2838  0.0150  0.3840
  121OSM    HNF12705   4.308   5.700   6.670  0.5649 -0.3043  1.5996
  121OSM    C2S12706   4.356   5.876   6.758 -0.4965 -0.6968 -0.1274
  121OSM    H2S12707   4.332   5.971   6.706  2.8915  0.2394 -0.2081
  121OSM    C3S12708   4.507   5.851   6.716 -0.5543 -0.6389 -0.7677
  121OSM    H3S12709   4.545   5.758   6.764  1.9109  1.8629  2.7535
  121OSM     O312710   4.606   5.952   6.759 -0.0208 -0.6821  0.7725
  121OSM    HO312711   4.560   6.021   6.807 -1.4371 -1.7580  1.0378
  121OSM    C4S12712   4.520   5.847   6.566  0.1270 -0.3047  0.6587
  121OSM    H4S12713   4.578   5.762   6.528 -0.0737 -0.0997 -0.1264
  121OSM    C5S12714   4.482   5.949   6.480 -0.3181  0.1615 -0.1813
  121OSM    H5S12715   4.467   6.047   6.527 -0.2456  0.8716 -1.6004
  121OSM    C6S12716   4.497   5.940   6.324  0.3168 -0.5503 -0.4956
  121OSM    H6S12717   4.538   5.845   6.284 -1.7290 -0.6016 -2.6870
  121OSM    H6T12718   4.561   6.023   6.288 -0.5467 -0.1046 -1.0341
  121OSM    C7S12719   4.363   5.971   6.263  0.4812 -0.4212  0.2170
  121OSM    H7S12720   4.341   6.080   6.252 -0.2025 -0.5605  0.1690
  121OSM    H7T12721   4.279   5.943   6.331  0.0555  1.3708  0.4946
  121OSM    C8S12722   4.346   5.919   6.119 -0.2656 -0.6005  0.7633
  121OSM    H8S12723   4.324   5.810   6.114  0.2605 -0.6453 -1.2960
  121OSM    H8T12724   4.437   5.926   6.057  0.3114  1.4124  1.7782
  121OSM    C9S12725   4.244   6.001   6.031 -0.4901  0.0767 -0.2224
  121OSM    H9S12726   4.273   6.108   6.033 -1.5377  0.4069  2.8521
  121OSM    H9T12727   4.147   5.988   6.084  0.0364  2.0841  1.3808
  121OSM   C10S12728   4.235   5.949   5.887  0.0549  0.3364 -0.3692
  121OSM   H10S12729   4.178   5.854   5.892  0.6828 -0.0805 -0.9308
  121OSM   H10T12730   4.333   5.922   5.841 -0.5879  0.0960 -1.6290
  121OSM   C11S12731   4.174   6.057   5.794  0.2318  0.8279  0.6338
  121OSM   H11S12732   4.223   6.152   5.820 -0.3421  0.9418  1.3370
  121OSM   H11T12733   4.063   6.059   5.799  0.2076  1.8423 -0.0422
  121OSM   C12S12734   4.207   6.026   5.647  0.5229  0.8011 -0.0045
  121OSM   H12S12735   4.214   5.915   5.643  2.1435  0.9007 -0.5072
  121OSM   H12T12736   4.299   6.071   5.605  0.5609  0.5936 -0.1451
  121OSM   C13S12737   4.089   6.074   5.555 -0.4353 -0.2653 -0.0956
  121OSM   H13S12738   4.074   6.182   5.534  0.3354 -0.1211  0.0502
  121OSM   H13T12739   4.000   6.062   5.620 -1.0505  2.6710 -0.2845
  121OSM   C14S12740   4.067   5.993   5.425 -0.1463  0.1841  0.4085
  121OSM   H14S12741   3.963   6.011   5.391  0.1997 -0.0937 -0.8215
  121OSM   H14T12742   4.066   5.882   5.434  0.0937  0.1886  0.4996
  121OSM   C15S12743   4.174   6.019   5.316  0.4894  0.0143 -0.3497
  121OSM   H15S12744   4.154   5.939   5.242  0.5229 -0.2407 -0.0863
  121OSM   H15T12745   4.271   6.004   5.368 -0.3542  1.9648  1.9589
  121OSM   C16S12746   4.172   6.153   5.244  0.0803 -0.2329  0.4422
  121OSM   H16S12747   4.248   6.165   5.164  1.3312 -0.8038  1.5160
  121OSM   H16T12748   4.208   6.226   5.320 -0.4405 -0.4257  0.8779
  121OSM   C17S12749   4.041   6.193   5.185 -0.3086  0.1049  0.4011
  121OSM   H17S12750   4.060   6.299   5.158  0.9001 -0.6398 -1.9076
  121OSM   H17T12751   3.961   6.185   5.262 -0.1664 -0.7340  0.4700
  121OSM   C18S12752   4.007   6.109   5.064  0.3074 -0.2226  0.0273
  121OSM   H18S12753   4.083   6.095   4.985 -0.3277 -0.1489 -0.6131
  121OSM   H18T12754   3.917   6.133   5.003  0.0911 -0.5628  0.2069
  121OSM   H18U12755   3.988   6.008   5.107  1.2880 -0.9941 -1.2640
  121OSM    C1F12756   4.137   5.785   6.715  0.7572  0.4643  0.2930
  121OSM     OF12757   4.086   5.893   6.735  0.3636 -0.0347  0.1954
  121OSM    C2F12758   4.050   5.673   6.679  0.2586 -0.9649  0.0322
  121OSM    H2F12759   3.987   5.649   6.767  0.4104  1.1133  0.7536
  121OSM    H2G12760   4.112   5.582   6.666  0.5194 -1.0192  1.5173
  121OSM    C3F12761   3.977   5.705   6.542 -0.5701  0.2912  0.0941
  121OSM    H3F12762   3.921   5.800   6.532 -1.4039 -0.3203 -1.3870
  121OSM    H3G12763   3.886   5.642   6.546 -0.0419 -0.4853  0.0804
  121OSM    C4F12764   4.054   5.662   6.414  0.2174  0.1261  0.4459
  121OSM    H4F12765   4.080   5.557   6.441 -0.9669  0.5211  3.5287
  121OSM    H4G12766   4.145   5.725   6.397 -0.3639  0.2527 -2.9970
  121OSM    C5F12767   3.967   5.672   6.286  0.3702  0.1941  0.8289
  121OSM    H5F12768   3.931   5.777   6.284 -1.6622 -0.4423 -1.5432
  121OSM    H5G12769   3.875   5.610   6.292  1.2232 -1.3900 -1.2151
  121OSM    C6F12770   4.041   5.634   6.162  0.0814  0.2158  0.4508
  121OSM    H6F12771   4.091   5.537   6.183  1.1747  0.9085  1.1208
  121OSM    H6G12772   4.118   5.713   6.145  0.1957  0.1475  0.6521
  121OSM    C7F12773   3.950   5.624   6.032  0.4279  0.6873  0.0473
  121OSM    H7F12774   3.886   5.715   6.025 -1.6998 -0.8694 -2.8149
  121OSM    H7G12775   3.883   5.536   6.028  1.0176  0.2887 -1.4214
  121OSM    C8F12776   4.037   5.616   5.907  0.0740 -0.1627 -0.3686
  121OSM    H8F12777   4.064   5.509   5.900 -4.0738 -1.3027 -1.4135
  121OSM    H8G12778   4.134   5.669   5.924 -1.2833  2.0005  1.2256
  121OSM    C9F12779   3.989   5.671   5.776 -0.1789  1.1207 -0.6363
  121OSM    H9F12780   3.987   5.781   5.782 -2.8034  1.1253 -0.3327
  121OSM   C10F12781   3.945   5.601   5.666  0.2703 -0.6700 -0.4747
  121OSM   H10F12782   3.898   5.662   5.587 -0.4685  2.3727  2.1308
  121OSM   C11F12783   3.961   5.447   5.655 -0.6173 -0.7624 -0.0875
  121OSM   H11F12784   3.869   5.393   5.622 -0.5532 -0.4343 -0.8148
  121OSM   H11G12785   3.981   5.402   5.755 -2.3519  1.5626  1.4202
  121OSM   C12F12786   4.071   5.416   5.547  0.1104  0.6091  0.5015
  121OSM   H12F12787   4.083   5.306   5.549 -2.6954  0.2158 -0.7453
  121OSM   H12G12788   4.169   5.464   5.572  1.0127 -1.0796  0.3154
  121OSM   C13F12789   4.021   5.451   5.399 -0.1004  0.4935 -0.7792
  121OSM   H13F12790   3.984   5.554   5.384  0.3158  0.9445  1.0207
  121OSM   H13G12791   3.939   5.377   5.385  0.1848 -0.3321  1.5055
  121OSM   C14F12792   4.125   5.446   5.292 -0.2171  0.4473  0.3958
  121OSM   H14F12793   4.204   5.516   5.327  1.6622 -0.5650 -1.5954
  121OSM   H14G12794   4.074   5.483   5.200  2.2408 -1.0276 -1.7142
  121OSM   C15F12795   4.193   5.306   5.275 -0.2657 -1.1209 -0.2944
  121OSM   H15F12796   4.104   5.253   5.235 -2.0930  1.1624  0.4637
  121OSM   H15G12797   4.218   5.273   5.378  1.2530 -0.9049 -0.5791
  121OSM   C16F12798   4.313   5.309   5.180 -0.2999 -0.1111 -0.1110
  121OSM   H16F12799   4.358   5.208   5.193 -0.0524  0.2400  2.1639
  121OSM   H16G12800   4.384   5.387   5.213  1.3126 -2.4366  2.3962
  121OSM   C17F12801   4.270   5.314   5.035  0.0895 -0.4412  0.2634
  121OSM   H17F12802   4.211   5.406   5.016 -0.9977 -1.2844 -0.5942
  121OSM   H17G12803   4.191   5.240   5.006 -1.6611  2.0076 -1.6930
  121OSM   C18F12804   4.376   5.292   4.933 -0.0639 -0.2154  0.1837
  121OSM   H18F12805   4.449   5.374   4.947 -0.5526  0.2430  0.0553
  121OSM   H18G12806   4.345   5.290   4.827 -2.9850 -4.0371  0.8727
  121OSM   H18H12807   4.417   5.189   4.947 -1.3189 -0.4678  2.5287
  122OSM      N12808   2.252   1.831   7.423  0.0611  0.2727 -0.1238
  122OSM    C1512809   2.173   1.762   7.528 -0.3816 -0.2730 -0.0743
  122OSM   H15A12810   2.130   1.828   7.601  1.4456  1.6215 -0.6224
  122OSM   H15B12811   2.240   1.696   7.582  0.4554 -0.7234 -1.5992
  122OSM   H15C12812   2.094   1.697   7.492 -2.7028  2.7104 -0.7020
  122OSM    C1412813   2.357   1.905   7.507 -0.1214  0.7811  0.2441
  122OSM   H14A12814   2.422   1.958   7.439 -1.3348  0.0494 -1.5968
  122OSM   H14B12815   2.426   1.840   7.557 -1.7107 -2.4592 -1.4628
  122OSM   H14C12816   2.312   1.972   7.579 -2.2308 -1.3345  1.0059
  122OSM    C1312817   2.310   1.751   7.316 -0.0836  0.1821 -0.1628
  122OSM   H13A12818   2.358   1.822   7.251  2.4997  0.8925  2.2775
  122OSM   H13B12819   2.238   1.705   7.251  0.1634 -1.0309  0.3886
  122OSM   H13C12820   2.374   1.671   7.353 -1.0107 -1.5439 -2.1226
  122OSM    C1212821   2.157   1.937   7.361 -0.2016 -0.2197  0.3543
  122OSM   H12A12822   2.131   2.005   7.440  1.2644 -0.2807  0.9322
  122OSM   H12B12823   2.067   1.880   7.345 -1.1936  1.3265  0.1560
  122OSM    C1112824   2.202   2.011   7.232  0.2012 -0.2688  0.4297
  122OSM   H11A12825   2.132   2.095   7.212  2.1588  1.4344  0.4372
  122OSM   H11B12826   2.194   1.936   7.151  1.4147 -1.0342  0.9866
  122OSM      P12827   2.453   2.060   7.162  0.1683  0.0123 -0.2573
  122OSM    O1312828   2.554   2.131   7.244 -0.1580 -0.4965  0.1706
  122OSM    O1412829   2.481   1.925   7.101  1.2379 -0.4126 -0.2272
  122OSM    O1112830   2.409   2.160   7.050  0.1854  0.7492 -0.0489
  122OSM    O1212831   2.331   2.054   7.255 -0.1527  0.0042 -0.5115
  122OSM    C1S12832   2.446   2.158   6.913  0.1502 -0.4229  0.5236
  122OSM    H1S12833   2.523   2.080   6.892  0.4248 -0.0233  0.0273
  122OSM    H1T12834   2.489   2.258   6.891 -0.9570 -0.3825 -1.7196
  122OSM     NF12835   2.358   2.143   6.684  0.4439 -0.2534 -0.7970
  122OSM    HNF12836   2.350   2.232   6.640 -1.7452  0.9022  1.6819
  122OSM    C2S12837   2.315   2.146   6.823 -0.2802 -0.0337 -0.1607
  122OSM    H2S12838   2.258   2.055   6.849  0.6964 -0.4506  0.5882
  122OSM    C3S12839   2.217   2.268   6.858  0.1763  0.3096  0.2949
  122OSM    H3S12840   2.275   2.362   6.847  2.1159 -0.8580  0.1253
  122OSM     O312841   2.170   2.277   6.998 -0.3766 -0.6096 -0.1971
  122OSM    HO312842   2.242   2.235   7.045 -0.5539  0.4972  1.1273
  122OSM    C4S12843   2.098   2.271   6.765 -0.2147 -0.5321  0.0321
  122OSM    H4S12844   2.006   2.221   6.798  0.2533 -0.4769  1.4854
  122OSM    C5S12845   2.088   2.349   6.657 -0.2266 -0.2614 -0.0647
  122OSM    H5S12846   2.170   2.416   6.627 -1.6479  0.6448 -2.1232
  122OSM    C6S12847   1.971   2.361   6.564 -0.5965 -0.1082  0.0347
  122OSM    H6S12848   1.923   2.461   6.572  0.8248  0.4281  4.4494
  122OSM    H6T12849   1.881   2.297   6.575 -1.6089  0.8835 -1.8656
  122OSM    C7S12850   2.023   2.353   6.420  0.9644 -0.4984  0.3670
  122OSM    H7S12851   2.061   2.250   6.401 -1.8097 -1.7898  1.2052
  122OSM    H7T12852   2.109   2.422   6.408  0.2660  0.5739  1.3314
  122OSM    C8S12853   1.911   2.379   6.314  0.5609 -0.1488 -0.5297
  122OSM    H8S12854   1.876   2.485   6.315  0.1899 -0.2739  0.1851
  122OSM    H8T12855   1.823   2.317   6.341  0.7766 -0.3794 -0.3485
  122OSM    C9S12856   1.957   2.336   6.169 -0.9529 -0.5260 -0.0193
  122OSM    H9S12857   2.011   2.240   6.181  0.4129  0.3145  0.7453
  122OSM    H9T12858   2.026   2.416   6.135 -2.2272 -0.0179 -1.5087
  122OSM   C10S12859   1.841   2.317   6.081  0.2864 -0.7075 -0.5469
  122OSM   H10S12860   1.768   2.401   6.088 -1.2472 -1.5993 -3.7749
  122OSM   H10T12861   1.790   2.223   6.111 -1.3647 -0.0746 -1.2182
  122OSM   C11S12862   1.879   2.297   5.934 -0.1532  0.3927 -0.0790
  122OSM   H11S12863   1.936   2.201   5.926 -0.3535  0.3688 -1.4591
  122OSM   H11T12864   1.940   2.377   5.887 -0.8517 -0.5641 -2.8237
  122OSM   C12S12865   1.765   2.282   5.834  0.0057 -0.1930  0.4749
  122OSM   H12S12866   1.686   2.218   5.879  1.6795 -0.0204  4.0012
  122OSM   H12T12867   1.803   2.222   5.748  0.0438  1.2954 -0.5932
  122OSM   C13S12868   1.713   2.403   5.752  0.1862  0.1931  0.5704
  122OSM   H13S12869   1.799   2.462   5.713 -0.4530 -0.4309 -1.9328
  122OSM   H13T12870   1.665   2.462   5.833  2.9520  1.6715  1.2821
  122OSM   C14S12871   1.622   2.365   5.636  0.2004  0.0875 -0.4089
  122OSM   H14S12872   1.555   2.452   5.617 -0.5609 -0.1811  0.8681
  122OSM   H14T12873   1.549   2.286   5.665 -2.3931  1.8570 -1.6268
  122OSM   C15S12874   1.696   2.333   5.505 -0.5479  0.3792 -0.5720
  122OSM   H15S12875   1.735   2.230   5.517 -2.4867 -0.1834  1.6216
  122OSM   H15T12876   1.780   2.404   5.489  1.0098 -1.3509 -0.3586
  122OSM   C16S12877   1.605   2.348   5.387  0.0420 -0.1845  0.8162
  122OSM   H16S12878   1.681   2.358   5.307  2.1591 -1.2710  2.5737
  122OSM   H16T12879   1.544   2.439   5.406 -0.7468 -0.3912 -0.5782
  122OSM   C17S12880   1.506   2.235   5.362  0.4276  0.7392 -0.3438
  122OSM   H17S12881   1.428   2.283   5.299  1.0337  1.4122 -0.5964
  122OSM   H17T12882   1.460   2.197   5.456  4.1189 -0.5623  1.1100
  122OSM   C18S12883   1.562   2.112   5.294 -0.0087 -0.3025  0.3294
  122OSM   H18S12884   1.484   2.039   5.265  0.9379 -1.4094  0.5018
  122OSM   H18T12885   1.627   2.054   5.363  0.0811 -0.3649  0.1928
  122OSM   H18U12886   1.618   2.159   5.211  0.3680  3.1141  2.3231
  122OSM    C1F12887   2.408   2.032   6.633  0.1233  0.1035 -0.2071
  122OSM     OF12888   2.414   1.932   6.702  0.0087  0.7025  0.2664
  122OSM    C2F12889   2.455   2.030   6.492 -0.6725 -0.2491 -0.3781
  122OSM    H2F12890   2.444   1.926   6.454  0.4184 -0.7925  0.7253
  122OSM    H2G12891   2.566   2.037   6.486 -0.4616 -1.6319  1.1049
  122OSM    C3F12892   2.384   2.128   6.399  0.6710  0.3329  0.5587
  122OSM    H3F12893   2.415   2.229   6.434  3.0990 -0.1653  0.0168
  122OSM    H3G12894   2.274   2.114   6.397  0.4475  1.8316  1.0107
  122OSM    C4F12895   2.419   2.117   6.256  0.2407  0.2193  0.4360
  122OSM    H4F12896   2.398   2.018   6.212 -0.0341  0.7158 -0.5888
  122OSM    H4G12897   2.527   2.142   6.257  0.3051 -0.0631  0.6187
  122OSM    C5F12898   2.364   2.220   6.162 -0.2266 -0.0603 -0.8252
  122OSM    H5F12899   2.397   2.321   6.193  0.2276 -0.3389 -0.3743
  122OSM    H5G12900   2.255   2.217   6.183 -0.2367  1.2355 -0.6109
  122OSM    C6F12901   2.396   2.180   6.019  0.4302  0.1129 -0.3945
  122OSM    H6F12902   2.371   2.077   5.985  0.2586 -0.5247  1.5365
  122OSM    H6G12903   2.506   2.193   6.013  0.5782 -1.3981 -1.5972
  122OSM    C7F12904   2.329   2.275   5.921 -0.1521  0.4493 -0.1522
  122OSM    H7F12905   2.364   2.377   5.947  0.0671  0.8082 -1.7851
  122OSM    H7G12906   2.219   2.278   5.937 -0.3349  1.1379 -1.4137
  122OSM    C8F12907   2.362   2.247   5.772  0.4189  0.2803 -0.0616
  122OSM    H8F12908   2.330   2.147   5.736  1.5695  0.1612 -0.7996
  122OSM    H8G12909   2.472   2.244   5.759  0.3707  0.1664 -0.4740
  122OSM    C9F12910   2.297   2.349   5.686 -0.0825  0.6636  0.1402
  122OSM    H9F12911   2.280   2.449   5.731  0.5550  1.7514 -1.9002
  122OSM   C10F12912   2.260   2.332   5.559  0.6034  0.8445  0.3877
  122OSM   H10F12913   2.199   2.414   5.517  0.5441  0.4301 -0.3618
  122OSM   C11F12914   2.252   2.213   5.470 -0.4782 -0.3105  0.0731
  122OSM   H11F12915   2.293   2.122   5.518  1.7215  0.7619  0.3555
  122OSM   H11G12916   2.300   2.222   5.370 -0.8514 -1.7437 -0.2617
  122OSM   C12F12917   2.111   2.178   5.431  0.0894 -0.0518 -0.2307
  122OSM   H12F12918   2.054   2.162   5.525 -1.9177  1.4481 -1.1365
  122OSM   H12G12919   2.102   2.077   5.386  1.1236 -0.8067  1.1603
  122OSM   C13F12920   2.057   2.279   5.334  0.4415 -0.1893 -0.3057
  122OSM   H13F12921   2.140   2.309   5.267 -1.2953  0.0872 -2.4366
  122OSM   H13G12922   2.023   2.368   5.391  0.4796 -0.5437  0.2906
  122OSM   C14F12923   1.945   2.223   5.244  0.0723 -0.2160  0.1827
  122OSM   H14F12924   1.876   2.304   5.213 -1.4828 -1.9090 -0.9672
  122OSM   H14G12925   1.875   2.162   5.305 -0.2494 -0.7768 -0.7294
  122OSM   C15F12926   2.007   2.139   5.136  0.0658  0.0303 -0.5131
  122OSM   H15F12927   2.085   2.066   5.166  0.6818  1.3322  1.2497
  122OSM   H15G12928   2.058   2.209   5.065  0.9945  2.0300  1.9754
  122OSM   C16F12929   1.892   2.071   5.058 -0.0489 -0.4345 -0.6243
  122OSM   H16F12930   1.810   2.138   5.023  0.6597 -0.5026 -2.5148
  122OSM   H16G12931   1.859   2.008   5.143  3.1833  1.4402  2.2730
  122OSM   C17F12932   1.969   1.997   4.940 -0.1204  0.0329 -0.4373
  122OSM   H17F12933   2.073   1.980   4.975 -0.6392 -0.9290  0.7412
  122OSM   H17G12934   1.978   2.072   4.859 -0.1738  1.3912  0.7816
  122OSM   C18F12935   1.903   1.871   4.904  0.5853  0.6104 -0.2251
  122OSM   H18F12936   1.794   1.890   4.896  0.8057  1.6532 -1.0231
  122OSM   H18G12937   1.914   1.793   4.982  0.3521  1.8983  1.1353
  122OSM   H18H12938   1.931   1.821   4.809 -0.7863 -1.1133  0.2253
  123OSM      N12939   3.753   4.263   2.246  0.5076  0.3719  0.2033
  123OSM    C1512940   3.785   4.153   2.152 -0.8690 -0.7241 -0.2740
  123OSM   H15A12941   3.706   4.130   2.083 -2.9463  1.8026  1.0673
  123OSM   H15B12942   3.821   4.061   2.198  0.9288  0.3680  0.6238
  123OSM   H15C12943   3.864   4.181   2.085 -2.1958  0.9585 -1.2140
  123OSM    C1412944   3.875   4.310   2.325  0.8247 -0.0042  0.3217
  123OSM   H14A12945   3.915   4.231   2.387 -0.5910 -1.6832 -0.8058
  123OSM   H14B12946   3.839   4.378   2.401  2.5915 -0.6942  1.8420
  123OSM   H14C12947   3.945   4.350   2.253  0.2887  1.6918  0.6762
  123OSM    C1312948   3.700   4.385   2.181 -0.0933  0.0636 -0.1982
  123OSM   H13A12949   3.683   4.456   2.261  1.2575  0.0524  0.1227
  123OSM   H13B12950   3.605   4.378   2.130 -0.1825 -0.5284  0.0377
  123OSM   H13C12951   3.777   4.425   2.117 -0.0978  1.0550  0.3920
  123OSM    C1212952   3.650   4.215   2.346 -0.6379  0.1985 -0.8131
  123OSM   H12A12953   3.566   4.177   2.289  0.4216 -1.2263 -1.4990
  123OSM   H12B12954   3.612   4.300   2.401 -1.6904 -0.7895  0.0549
  123OSM    C1112955   3.685   4.101   2.443 -0.2298 -0.2239  0.4156
  123OSM   H11A12956   3.618   4.086   2.530  0.4448  1.3195  1.2419
  123OSM   H11B12957   3.779   4.138   2.488  0.6361 -1.0296 -0.6696
  123OSM      P12958   3.569   3.903   2.305  0.2760 -0.0048 -0.4889
  123OSM    O1312959   3.483   3.989   2.223 -0.5621  0.0036 -0.5736
  123OSM    O1412960   3.619   3.773   2.248 -0.6337  0.5787 -0.2456
  123OSM    O1112961   3.489   3.869   2.430 -0.2278  0.1206  1.0117
  123OSM    O1212962   3.694   3.982   2.372 -0.3708  0.2186  1.0210
  123OSM    C1S12963   3.537   3.790   2.541  0.0133 -0.0494  0.0928
  123OSM    H1S12964   3.647   3.776   2.533 -0.0931 -1.3304  0.5497
  123OSM    H1T12965   3.498   3.686   2.539 -1.6647  0.5215  1.0932
  123OSM     NF12966   3.582   3.790   2.784 -0.2218 -0.4263  0.0233
  123OSM    HNF12967   3.555   3.706   2.830 -0.6109  0.6427  1.8677
  123OSM    C2S12968   3.504   3.850   2.680  0.0563  0.5655  0.2778
  123OSM    H2S12969   3.538   3.955   2.686 -0.1375  0.6483 -0.0421
  123OSM    C3S12970   3.349   3.850   2.692 -0.0589 -0.1363  0.1557
  123OSM    H3S12971   3.305   3.748   2.697 -2.7657  0.9923  1.1931
  123OSM     O312972   3.278   3.915   2.583 -0.0961  0.1354 -0.1313
  123OSM    HO312973   3.353   3.934   2.526 -0.1327 -0.0555 -0.2456
  123OSM    C4S12974   3.313   3.923   2.819 -0.0692  0.5135  0.0771
  123OSM    H4S12975   3.356   4.023   2.836  1.8582 -0.5596  1.8973
  123OSM    C5S12976   3.227   3.868   2.910  0.1058 -0.7150 -0.0792
  123OSM    H5S12977   3.175   3.773   2.889 -1.7806  0.3597 -0.5843
  123OSM    C6S12978   3.186   3.938   3.038 -0.4987 -0.2671  0.3185
  123OSM    H6S12979   3.077   3.956   3.049  0.0322  3.6700  0.4550
  123OSM    H6T12980   3.238   4.036   3.050 -1.9792  0.4412  1.1711
  123OSM    C7S12981   3.228   3.859   3.169 -0.1712 -0.5518  1.1259
  123OSM    H7S12982   3.336   3.873   3.191 -0.2320  0.7592  0.6806
  123OSM    H7T12983   3.191   3.755   3.159 -2.1819  0.3295 -2.4548
  123OSM    C8S12984   3.152   3.918   3.292 -0.6582  0.5275  0.9488
  123OSM    H8S12985   3.050   3.884   3.262  0.4750 -0.8187 -1.6688
  123OSM    H8T12986   3.161   4.028   3.275 -1.8702  0.3431 -1.3385
  123OSM    C9S12987   3.196   3.866   3.431  0.2094 -0.4359  0.0882
  123OSM    H9S12988   3.298   3.907   3.444 -0.3879  0.4757  2.4390
  123OSM    H9T12989   3.217   3.758   3.416 -0.8033 -0.8427  1.3661
  123OSM   C10S12990   3.111   3.900   3.555  0.5259  0.2634  0.5758
  123OSM   H10S12991   3.007   3.861   3.553  0.3307  0.7667  0.7702
  123OSM   H10T12992   3.103   4.010   3.566 -0.3741  0.1672  0.9736
  123OSM   C11S12993   3.179   3.847   3.687  0.8357 -0.8821  0.2733
  123OSM   H11S12994   3.288   3.868   3.688  0.5948  0.7163 -1.2506
  123OSM   H11T12995   3.169   3.737   3.689 -0.7140 -0.7827  2.6368
  123OSM   C12S12996   3.107   3.903   3.818  0.6744 -0.0065  0.3396
  123OSM   H12S12997   2.998   3.892   3.800  0.6920 -0.9347  0.7604
  123OSM   H12T12998   3.136   4.010   3.822 -0.4118  0.2899  0.5818
  123OSM   C13S12999   3.151   3.848   3.956 -0.1048 -0.2844  0.2920
  123OSM   H13S13000   3.123   3.742   3.972 -1.9348  0.1554  0.2629
  123OSM   H13T13001   3.094   3.907   4.031 -1.9406 -1.8001  0.1563
  123OSM   C14S13002   3.299   3.864   3.997 -0.2645  0.8498 -0.5499
  123OSM   H14S13003   3.325   3.972   3.997  0.3602  0.7039  0.0075
  123OSM   H14T13004   3.357   3.812   3.918  2.4991  1.8157  0.7468
  123OSM   C15S13005   3.323   3.804   4.136 -0.2926 -0.5049 -0.3549
  123OSM   H15S13006   3.285   3.699   4.136 -0.4142 -0.4669  0.1537
  123OSM   H15T13007   3.249   3.857   4.200  0.0170 -1.7944  1.1455
  123OSM   C16S13008   3.466   3.829   4.198  0.9243 -0.0018  0.1854
  123OSM   H16S13009   3.481   3.939   4.201 -0.0759  0.1414  0.3318
  123OSM   H16T13010   3.538   3.791   4.122 -1.6569 -0.6895 -2.0737
  123OSM   C17S13011   3.480   3.775   4.340  0.3506  0.3988  0.0603
  123OSM   H17S13012   3.478   3.664   4.337 -0.2842  0.4201 -2.1784
  123OSM   H17T13013   3.391   3.808   4.398 -1.6199 -1.5019 -1.6852
  123OSM   C18S13014   3.610   3.830   4.400 -0.3204  0.3339 -0.2813
  123OSM   H18S13015   3.614   3.941   4.398  2.7810  0.2849 -1.8898
  123OSM   H18T13016   3.705   3.788   4.361 -0.1755 -0.1578  0.5782
  123OSM   H18U13017   3.604   3.806   4.508  1.1178 -0.0408 -0.2706
  123OSM    C1F13018   3.709   3.830   2.813  0.6504  0.4805  0.1639
  123OSM     OF13019   3.777   3.899   2.738 -0.0500  0.4244  0.0170
  123OSM    C2F13020   3.768   3.793   2.942 -0.0728  0.0521  0.9110
  123OSM    H2F13021   3.862   3.853   2.949  0.6425 -0.7727 -0.9445
  123OSM    H2G13022   3.789   3.684   2.941  0.0782  0.0754  1.4294
  123OSM    C3F13023   3.674   3.825   3.060 -0.1453 -0.1947  0.0554
  123OSM    H3F13024   3.583   3.762   3.064  0.5484 -1.1810  1.3605
  123OSM    H3G13025   3.645   3.932   3.065 -0.5780 -0.3560  1.4608
  123OSM    C4F13026   3.729   3.804   3.204 -0.7860  0.2137  0.2144
  123OSM    H4F13027   3.821   3.867   3.204  0.3005 -1.3241  0.6846
  123OSM    H4G13028   3.756   3.697   3.216  0.4912  0.2169 -2.0110
  123OSM    C5F13029   3.642   3.860   3.315 -0.0499 -0.5844 -0.7370
  123OSM    H5F13030   3.536   3.826   3.316  0.3767 -1.9867  0.7432
  123OSM    H5G13031   3.654   3.970   3.312  2.2624 -0.7881 -0.3922
  123OSM    C6F13032   3.690   3.824   3.463 -0.1593 -0.3326  0.9763
  123OSM    H6F13033   3.798   3.851   3.467 -0.1514 -0.1703  0.0756
  123OSM    H6G13034   3.692   3.713   3.475  1.3310 -0.6749 -1.5495
  123OSM    C7F13035   3.610   3.891   3.583  0.0687  0.5240  0.2352
  123OSM    H7F13036   3.502   3.872   3.563  0.2678 -0.0950 -0.3122
  123OSM    H7G13037   3.626   4.000   3.568  2.2711  0.3580  0.9821
  123OSM    C8F13038   3.656   3.838   3.719 -0.2490 -0.0786  0.3628
  123OSM    H8F13039   3.766   3.828   3.712 -0.1574  0.6314  0.6713
  123OSM    H8G13040   3.612   3.739   3.742 -0.3758 -0.1448 -0.1509
  123OSM    C9F13041   3.614   3.929   3.836 -0.3108  0.3730 -0.3352
  123OSM    H9F13042   3.509   3.962   3.841 -0.3121  0.2401  0.8625
  123OSM   C10F13043   3.698   3.980   3.928  0.1352  0.7443 -0.5021
  123OSM   H10F13044   3.665   4.063   3.993 -0.9441 -0.5426  0.6647
  123OSM   C11F13045   3.852   3.955   3.940  0.2879 -0.2157 -0.2224
  123OSM   H11F13046   3.907   4.011   3.862 -0.2436 -0.9851 -1.1653
  123OSM   H11G13047   3.869   3.849   3.911 -0.9422  0.2585 -3.0237
  123OSM   C12F13048   3.913   3.989   4.079 -0.0843 -0.8071 -0.3180
  123OSM   H12F13049   3.851   3.959   4.166 -0.0796  0.7802  0.2567
  123OSM   H12G13050   3.920   4.099   4.087 -2.4392 -0.6589  0.6429
  123OSM   C13F13051   4.058   3.946   4.087 -0.7417  0.1671 -0.3647
  123OSM   H13F13052   4.104   3.952   3.986  0.1198 -1.0226 -0.0647
  123OSM   H13G13053   4.076   3.838   4.104  1.0069  0.5103  0.0997
  123OSM   C14F13054   4.140   4.031   4.185 -0.9102 -0.2263 -0.4084
  123OSM   H14F13055   4.088   4.024   4.284 -1.0377  1.0327 -0.3614
  123OSM   H14G13056   4.122   4.136   4.153 -0.1307 -0.4417 -1.6207
  123OSM   C15F13057   4.295   4.004   4.202  0.3210 -0.4689 -0.8726
  123OSM   H15F13058   4.322   3.897   4.218 -0.6128 -0.7858 -1.3083
  123OSM   H15G13059   4.322   4.063   4.292 -0.8193  1.1467 -1.5536
  123OSM   C16F13060   4.368   4.034   4.070 -0.3895 -0.9394  0.6508
  123OSM   H16F13061   4.309   4.111   4.016  2.3939  1.1161  0.3449
  123OSM   H16G13062   4.370   3.947   4.000  1.5389  0.1956 -0.8178
  123OSM   C17F13063   4.513   4.076   4.080 -0.1718  0.4176  0.3043
  123OSM   H17F13064   4.530   4.178   4.120  0.2218  0.5646 -0.2190
  123OSM   H17G13065   4.547   4.076   3.974 -2.0263 -0.9746 -0.3316
  123OSM   C18F13066   4.611   3.987   4.158  0.2370  0.0883  0.4508
  123OSM   H18F13067   4.710   4.033   4.179 -0.5239  1.8162  0.3964
  123OSM   H18G13068   4.630   3.889   4.109  0.2733  0.4053 -0.1863
  123OSM   H18H13069   4.571   3.967   4.260  0.4477 -1.5309  0.2432
  124OSM      N13070   6.165   4.356   2.165 -0.1521  0.4945  0.2255
  124OSM    C1513071   6.048   4.272   2.132  0.3583 -0.6253 -0.4589
  124OSM   H15A13072   6.037   4.289   2.026  1.1735 -1.3058 -0.6650
  124OSM   H15B13073   5.954   4.300   2.179  0.6207  2.5273 -1.5208
  124OSM   H15C13074   6.064   4.167   2.149 -2.6547 -1.1173 -0.1727
  124OSM    C1413075   6.279   4.293   2.093  0.1677  0.5523  1.2011
  124OSM   H14A13076   6.284   4.189   2.121  0.6001  0.9976  2.8670
  124OSM   H14B13077   6.375   4.333   2.120  0.6882  0.3945 -0.3059
  124OSM   H14C13078   6.273   4.298   1.985 -0.8546 -2.2465  1.0461
  124OSM    C1313079   6.144   4.494   2.111  0.3717 -0.4508  0.6559
  124OSM   H13A13080   6.059   4.543   2.158 -1.5772 -0.4410 -2.6190
  124OSM   H13B13081   6.133   4.483   2.005 -0.9416 -0.1140  0.7382
  124OSM   H13C13082   6.226   4.564   2.120 -0.7140  1.1178 -0.9821
  124OSM    C1213083   6.192   4.352   2.320 -0.0293 -0.8644  0.5214
  124OSM   H12A13084   6.270   4.426   2.332  0.6600 -1.6583  1.0407
  124OSM   H12B13085   6.231   4.258   2.354 -0.2689 -1.1290  0.0673
  124OSM    C1113086   6.072   4.394   2.412 -0.0406  0.2476 -0.2684
  124OSM   H11A13087   6.117   4.390   2.513  0.1582 -1.4080 -0.3912
  124OSM   H11B13088   5.993   4.316   2.423  0.2650  0.0134  0.3294
  124OSM      P13089   6.119   4.660   2.419 -0.2224 -0.2594 -0.2951
  124OSM    O1313090   6.265   4.625   2.406  0.4550 -0.6415 -1.0158
  124OSM    O1413091   6.062   4.761   2.331 -1.4064  0.1006  0.2160
  124OSM    O1113092   6.075   4.690   2.574  0.0762  0.2979  0.0679
  124OSM    O1213093   6.035   4.531   2.381 -0.0244  0.8131 -0.7554
  124OSM    C1S13094   6.163   4.633   2.676  0.4811 -1.2158  0.9833
  124OSM    H1S13095   6.259   4.689   2.678  0.1768 -0.5917 -0.5707
  124OSM    H1T13096   6.199   4.531   2.650  1.0686 -0.5708 -0.8797
  124OSM     NF13097   6.211   4.626   2.917  0.3818 -0.0888  0.2070
  124OSM    HNF13098   6.229   4.533   2.947  1.0641 -0.4430 -1.2299
  124OSM    C2S13099   6.098   4.630   2.817 -0.3463 -0.9545  0.0487
  124OSM    H2S13100   6.045   4.727   2.825  0.6995 -0.2436 -1.1630
  124OSM    C3S13101   5.995   4.521   2.835 -0.4000 -0.0518 -0.4743
  124OSM    H3S13102   6.056   4.429   2.847  0.1332  0.3584  0.0964
  124OSM     O313103   5.911   4.497   2.725 -0.4297  0.5143 -0.0159
  124OSM    HO313104   5.937   4.559   2.656  1.5021 -0.2854 -0.0673
  124OSM    C4S13105   5.927   4.525   2.972 -0.1611 -0.3304  0.5574
  124OSM    H4S13106   5.988   4.476   3.049  0.8888  1.7550  1.1565
  124OSM    C5S13107   5.806   4.589   3.008  0.0396  0.1997 -0.1711
  124OSM    H5S13108   5.745   4.631   2.928 -1.5504 -0.6427  0.5460
  124OSM    C6S13109   5.752   4.618   3.146 -0.5975 -0.5981  0.3965
  124OSM    H6S13110   5.688   4.529   3.165  0.8799 -2.0381 -1.0245
  124OSM    H6T13111   5.698   4.715   3.147  2.0529  0.9548  2.0392
  124OSM    C7S13112   5.858   4.612   3.259 -0.3860  0.0797 -0.5731
  124OSM    H7S13113   5.929   4.697   3.261  0.0971 -0.3395  1.5700
  124OSM    H7T13114   5.916   4.517   3.264 -1.7423 -0.7261  0.6921
  124OSM    C8S13115   5.785   4.632   3.394  0.3997  0.4484 -0.2329
  124OSM    H8S13116   5.712   4.549   3.403  1.6091 -0.5315  1.0175
  124OSM    H8T13117   5.725   4.726   3.400 -1.1748 -0.5832  1.0863
  124OSM    C9S13118   5.873   4.611   3.517 -0.0594 -0.2188  0.1874
  124OSM    H9S13119   5.961   4.676   3.534  1.0530 -1.6306  0.0634
  124OSM    H9T13120   5.921   4.511   3.507 -1.0413 -0.6051 -0.8690
  124OSM   C10S13121   5.786   4.603   3.640 -0.3687 -0.8603  0.6250
  124OSM   H10S13122   5.711   4.521   3.636  0.1583 -1.3954  1.3280
  124OSM   H10T13123   5.725   4.695   3.652 -1.6095 -1.6155  0.3658
  124OSM   C11S13124   5.872   4.598   3.770 -0.3487  0.4552  0.1243
  124OSM   H11S13125   5.929   4.692   3.785  0.7582 -0.1767  0.0065
  124OSM   H11T13126   5.942   4.512   3.770  0.8055  1.1667  4.0549
  124OSM   C12S13127   5.776   4.572   3.888 -1.1373  0.3345  1.3947
  124OSM   H12S13128   5.737   4.469   3.875  0.8775 -0.2606 -0.7156
  124OSM   H12T13129   5.687   4.637   3.873 -0.6516  0.5907 -0.5718
  124OSM   C13S13130   5.846   4.587   4.018 -1.1758 -0.1008 -0.3399
  124OSM   H13S13131   5.879   4.692   4.031  0.1019 -0.4994 -0.1397
  124OSM   H13T13132   5.936   4.523   4.007  0.4821  1.6294  2.0138
  124OSM   C14S13133   5.749   4.542   4.133 -0.2526 -0.1223 -0.0874
  124OSM   H14S13134   5.666   4.483   4.089  1.4597 -2.2467 -0.6888
  124OSM   H14T13135   5.708   4.631   4.185 -0.5106 -0.1160 -0.2984
  124OSM   C15S13136   5.829   4.458   4.228  0.2645  0.8024  0.0368
  124OSM   H15S13137   5.918   4.507   4.272  2.0404 -0.3544 -2.0565
  124OSM   H15T13138   5.857   4.371   4.165  1.4078  1.6819 -0.7238
  124OSM   C16S13139   5.741   4.395   4.342 -0.1739 -0.1415 -0.2727
  124OSM   H16S13140   5.816   4.339   4.402  1.0108  2.0101  0.3695
  124OSM   H16T13141   5.660   4.334   4.297 -0.8437  1.4068 -1.2321
  124OSM   C17S13142   5.681   4.501   4.433 -0.2881 -0.0042  0.1003
  124OSM   H17S13143   5.627   4.586   4.385  1.4648  3.6451  3.9966
  124OSM   H17T13144   5.765   4.552   4.484  2.3381 -2.1177 -1.8028
  124OSM   C18S13145   5.582   4.436   4.526  0.9447 -0.3745  0.2680
  124OSM   H18S13146   5.540   4.492   4.612 -0.4421 -1.2180  0.1690
  124OSM   H18T13147   5.638   4.360   4.585 -0.8466 -1.0733  1.1345
  124OSM   H18U13148   5.504   4.381   4.469  1.7716 -0.5641 -0.7129
  124OSM    C1F13149   6.306   4.718   2.938  0.2153  0.5522 -0.9848
  124OSM     OF13150   6.297   4.827   2.886 -0.1821 -0.4418  0.4206
  124OSM    C2F13151   6.428   4.669   3.009 -0.1786 -0.0560  0.1227
  124OSM    H2F13152   6.516   4.653   2.943  0.9844  0.2660  1.5485
  124OSM    H2G13153   6.406   4.564   3.038  1.3166 -1.0298 -2.0431
  124OSM    C3F13154   6.467   4.767   3.133 -0.0788 -0.3169 -0.2125
  124OSM    H3F13155   6.496   4.863   3.086 -0.8195 -0.5147 -1.1107
  124OSM    H3G13156   6.569   4.737   3.164  0.8585 -0.2986 -2.9437
  124OSM    C4F13157   6.357   4.781   3.234  0.1951 -0.2158 -0.4214
  124OSM    H4F13158   6.275   4.822   3.171  1.2616  0.6101 -1.2881
  124OSM    H4G13159   6.404   4.855   3.302  0.3722  1.3380 -2.1566
  124OSM    C5F13160   6.317   4.648   3.299 -0.5950  0.8064 -0.1281
  124OSM    H5F13161   6.406   4.580   3.296 -0.5199  0.9359 -1.1067
  124OSM    H5G13162   6.240   4.614   3.227 -0.4523 -1.4335  0.6718
  124OSM    C6F13163   6.237   4.663   3.430  0.6309 -0.1567  0.5511
  124OSM    H6F13164   6.167   4.578   3.443  1.8565 -1.2505  0.0902
  124OSM    H6G13165   6.182   4.760   3.429 -0.0095 -0.5088  1.0950
  124OSM    C7F13166   6.341   4.667   3.547 -0.0607  0.4455  0.1169
  124OSM    H7F13167   6.425   4.735   3.520 -0.8195  0.3823 -2.7438
  124OSM    H7G13168   6.372   4.562   3.567 -1.5110 -0.1003 -0.3639
  124OSM    C8F13169   6.268   4.723   3.674 -0.3472  0.3627  0.3761
  124OSM    H8F13170   6.180   4.659   3.697 -0.6886  0.1590 -1.3848
  124OSM    H8G13171   6.231   4.825   3.653  0.1215  0.1154 -1.9387
  124OSM    C9F13172   6.369   4.720   3.789 -0.0905  0.0912  0.2751
  124OSM    H9F13173   6.471   4.698   3.755 -0.5189 -0.2132 -0.8859
  124OSM   C10F13174   6.343   4.742   3.920  0.3295 -0.3986  0.6645
  124OSM   H10F13175   6.422   4.732   3.996  0.3210  2.2505  1.0995
  124OSM   C11F13176   6.206   4.773   3.980 -0.0933 -0.1952 -0.7994
  124OSM   H11F13177   6.124   4.762   3.905  0.2972 -1.1762 -1.1042
  124OSM   H11G13178   6.201   4.877   4.017 -0.6696 -0.3108 -0.5474
  124OSM   C12F13179   6.176   4.675   4.094 -0.5698 -0.3645  0.3156
  124OSM   H12F13180   6.192   4.575   4.047  1.4382  1.0470 -2.2570
  124OSM   H12G13181   6.070   4.689   4.127 -1.0511  0.3395 -1.4112
  124OSM   C13F13182   6.257   4.699   4.217 -0.0699 -0.0051 -0.2483
  124OSM   H13F13183   6.236   4.804   4.246 -0.9762  0.2546 -1.7498
  124OSM   H13G13184   6.365   4.687   4.192  0.2157  2.0673 -0.1389
  124OSM   C14F13185   6.221   4.616   4.338 -0.3544  0.0591  0.5104
  124OSM   H14F13186   6.111   4.627   4.348 -0.5270 -0.4514 -0.6077
  124OSM   H14G13187   6.279   4.668   4.417  1.5332  0.6000 -1.1395
  124OSM   C15F13188   6.250   4.462   4.326  0.0145 -0.2156  0.7647
  124OSM   H15F13189   6.360   4.449   4.323 -0.2294 -2.3763 -1.4485
  124OSM   H15G13190   6.225   4.443   4.219  1.2378  4.3018 -0.5518
  124OSM   C16F13191   6.186   4.362   4.424  1.3660 -0.4068 -0.2195
  124OSM   H16F13192   6.082   4.351   4.386  0.5186  2.0804  1.1505
  124OSM   H16G13193   6.193   4.404   4.527  0.9167  0.4724 -0.5355
  124OSM   C17F13194   6.266   4.231   4.433 -0.2287 -0.5789 -0.1949
  124OSM   H17F13195   6.373   4.260   4.443 -0.0373 -1.1316 -0.5550
  124OSM   H17G13196   6.247   4.178   4.337  1.3424 -0.5967 -0.5222
  124OSM   C18F13197   6.234   4.137   4.552 -0.2040  0.1387  0.5398
  124OSM   H18F13198   6.128   4.106   4.561 -0.3678  0.5562  0.0398
  124OSM   H18G13199   6.263   4.182   4.650 -2.5822 -1.4266  2.0811
  124OSM   H18H13200   6.281   4.038   4.533 -0.1959  0.5279 -1.6260
  125OSM      N13201   0.059   3.095   1.871  0.3160 -0.0510  0.1090
  125OSM    C1513202  -0.002   3.232   1.843 -0.9566  0.0186  0.0929
  125OSM   H15A13203  -0.102   3.239   1.881 -0.4284 -1.0463  1.7963
  125OSM   H15B13204  -0.011   3.254   1.738 -1.0920  1.7256  0.4296
  125OSM   H15C13205   0.059   3.308   1.891  1.7451 -2.8979  1.6735
  125OSM    C1413206  -0.038   2.982   1.818 -0.7367  0.1729  0.7549
  125OSM   H14A13207  -0.133   2.981   1.870 -0.6505 -4.2725  1.1908
  125OSM   H14B13208   0.006   2.887   1.842 -1.5121  0.1696  2.3070
  125OSM   H14C13209  -0.061   3.010   1.717  2.5595  2.0972  0.4176
  125OSM    C1313210   0.187   3.086   1.812 -0.2467  0.4113  0.3986
  125OSM   H13A13211   0.241   3.179   1.817 -0.4863  0.5833 -0.1139
  125OSM   H13B13212   0.184   3.049   1.710 -0.0924  1.1133  0.1305
  125OSM   H13C13213   0.247   3.010   1.861  2.0684  0.4420 -2.0942
  125OSM    C1213214   0.075   3.084   2.020 -0.1935  0.0375 -0.4632
  125OSM   H12A13215  -0.019   3.112   2.064  0.6483  0.2088  1.2945
  125OSM   H12B13216   0.130   3.167   2.061 -0.1779 -0.5651  0.7740
  125OSM    C1113217   0.144   2.956   2.082  0.5352 -0.4717  0.0555
  125OSM   H11A13218   0.167   2.958   2.190  0.2200  0.1445  0.1150
  125OSM   H11B13219   0.241   2.966   2.030 -0.9095  4.0204 -2.3036
  125OSM      P13220   0.148   2.698   2.095  0.0207 -0.0204 -0.3013
  125OSM    O1313221   0.071   2.578   2.057  0.4692 -0.4102 -0.2240
  125OSM    O1413222   0.283   2.695   2.036  0.3520  0.0294  0.3879
  125OSM    O1113223   0.163   2.716   2.253 -0.1560 -0.0724  0.6057
  125OSM    O1213224   0.068   2.834   2.053 -0.0613 -0.4245  0.2396
  125OSM    C1S13225   0.040   2.713   2.332 -0.3464  0.0220 -0.0503
  125OSM    H1S13226  -0.041   2.650   2.289  0.0800 -1.4567  1.2143
  125OSM    H1T13227  -0.007   2.814   2.328  0.2282  0.3107  0.3337
  125OSM     NF13228  -0.048   2.657   2.558 -0.1989  0.5279 -0.1415
  125OSM    HNF13229  -0.069   2.708   2.640  0.4550  0.1581  0.2620
  125OSM    C2S13230   0.068   2.693   2.485  0.2249 -0.1162  0.1738
  125OSM    H2S13231   0.132   2.602   2.490  0.1858 -0.3557 -2.4119
  125OSM    C3S13232   0.142   2.822   2.534  0.6398 -0.2994 -0.6043
  125OSM    H3S13233   0.065   2.901   2.532 -0.3443 -1.2490 -0.8829
  125OSM     O313234   0.239   2.878   2.450  0.3751 -0.3171 -1.0733
  125OSM    HO313235   0.243   2.825   2.371 -0.5016  1.4620 -2.3849
  125OSM    C4S13236   0.187   2.804   2.677  0.3180  0.0880 -0.3109
  125OSM    H4S13237   0.110   2.836   2.749 -1.8259 -2.2665 -1.3811
  125OSM    C5S13238   0.300   2.752   2.715  0.2928 -0.2555 -0.3320
  125OSM    H5S13239   0.373   2.720   2.640 -0.9001 -0.9846 -1.2338
  125OSM    C6S13240   0.323   2.741   2.861 -0.2829 -0.2698  0.0985
  125OSM    H6S13241   0.409   2.673   2.883 -0.1108  0.3750  1.5603
  125OSM    H6T13242   0.240   2.691   2.916 -0.0549  0.0672  0.7650
  125OSM    C7S13243   0.354   2.882   2.920  0.6770 -0.6762 -0.5187
  125OSM    H7S13244   0.262   2.941   2.902 -0.4979 -2.7908 -1.8758
  125OSM    H7T13245   0.436   2.931   2.863  0.0095  2.2524  0.8953
  125OSM    C8S13246   0.394   2.883   3.071 -0.5046 -0.6029  0.5411
  125OSM    H8S13247   0.497   2.841   3.069 -0.7210 -1.2644  2.1335
  125OSM    H8T13248   0.322   2.815   3.120 -2.0843  1.1861  0.8111
  125OSM    C9S13249   0.385   3.017   3.141 -0.3942  0.1520 -0.6932
  125OSM    H9S13250   0.293   3.070   3.108 -1.0947 -1.4370 -1.4312
  125OSM    H9T13251   0.472   3.069   3.096 -1.1779  0.4386 -1.9213
  125OSM   C10S13252   0.396   3.013   3.298  0.2594  0.0635  0.4236
  125OSM   H10S13253   0.366   3.112   3.341  0.9051  0.6044 -0.3561
  125OSM   H10T13254   0.505   3.001   3.313  0.4972  1.8577  0.3083
  125OSM   C11S13255   0.332   2.903   3.386  0.1024  0.3786  0.0348
  125OSM   H11S13256   0.336   2.809   3.326 -0.1922  0.5600 -0.2727
  125OSM   H11T13257   0.225   2.929   3.404  0.3399  3.2467 -1.9873
  125OSM   C12S13258   0.401   2.874   3.516 -0.0409  0.3423 -1.3009
  125OSM   H12S13259   0.505   2.847   3.488 -0.7593 -4.9182  0.1574
  125OSM   H12T13260   0.374   2.771   3.548  1.4692  0.4242  0.3997
  125OSM   C13S13261   0.388   2.989   3.622 -0.5313 -0.2336  0.1676
  125OSM   H13S13262   0.280   3.016   3.622 -0.1716  1.2525 -0.3595
  125OSM   H13T13263   0.441   3.076   3.580 -1.2930 -0.9131 -2.3474
  125OSM   C14S13264   0.430   2.933   3.763 -0.1776 -0.0875  0.5489
  125OSM   H14S13265   0.538   2.906   3.758  0.1285  1.0296  0.6973
  125OSM   H14T13266   0.368   2.842   3.778  0.3998 -0.8301 -1.2844
  125OSM   C15S13267   0.397   3.011   3.885  0.0425 -0.3765 -0.7761
  125OSM   H15S13268   0.407   2.943   3.972  2.6696 -1.1627 -1.5941
  125OSM   H15T13269   0.299   3.062   3.882  0.3828  0.3685  0.3842
  125OSM   C16S13270   0.501   3.119   3.909 -0.4295  0.2656  0.2016
  125OSM   H16S13271   0.481   3.195   3.831 -0.0812  2.8838  2.5418
  125OSM   H16T13272   0.602   3.074   3.897 -0.0669  0.8021  1.1840
  125OSM   C17S13273   0.488   3.189   4.048 -0.1673  0.0362  0.3876
  125OSM   H17S13274   0.458   3.120   4.130  0.2388 -0.8122 -0.1586
  125OSM   H17T13275   0.403   3.258   4.031 -0.9450 -0.7542  0.9943
  125OSM   C18S13276   0.592   3.293   4.097 -0.0332 -0.1094  0.1836
  125OSM   H18S13277   0.687   3.249   4.135 -0.7062 -0.9937  0.9146
  125OSM   H18T13278   0.549   3.370   4.165 -1.9497 -1.6586  0.8341
  125OSM   H18U13279   0.621   3.348   4.006 -1.0910 -0.7743 -0.5716
  125OSM    C1F13280  -0.127   2.556   2.527  1.0153 -0.1019  0.2256
  125OSM     OF13281  -0.087   2.471   2.446 -0.3005 -0.1317  0.2172
  125OSM    C2F13282  -0.266   2.556   2.587  0.3645 -0.1473  0.2097
  125OSM    H2F13283  -0.329   2.497   2.518 -0.3343 -1.2203  1.7106
  125OSM    H2G13284  -0.312   2.656   2.601  0.0085 -0.4871  1.6458
  125OSM    C3F13285  -0.264   2.462   2.713  0.4191  0.7692  0.5347
  125OSM    H3F13286  -0.200   2.376   2.686  0.7554  0.7968  1.2107
  125OSM    H3G13287  -0.369   2.427   2.724  0.9647 -1.3569 -0.5228
  125OSM    C4F13288  -0.226   2.533   2.844 -0.4989 -0.8896 -0.0771
  125OSM    H4F13289  -0.278   2.631   2.852  0.7637 -0.1178 -0.9526
  125OSM    H4G13290  -0.119   2.562   2.833 -0.6934 -0.3652 -0.6597
  125OSM    C5F13291  -0.241   2.452   2.973 -0.3555 -0.2364 -0.7826
  125OSM    H5F13292  -0.203   2.349   2.954 -2.6280 -1.5440  1.2181
  125OSM    H5G13293  -0.348   2.423   2.978 -0.3164 -0.6634 -2.0060
  125OSM    C6F13294  -0.189   2.522   3.097  0.4257 -0.0103 -0.0361
  125OSM    H6F13295  -0.230   2.624   3.113  0.0998 -0.3337  1.2985
  125OSM    H6G13296  -0.079   2.524   3.086  0.2543  0.4874 -2.2327
  125OSM    C7F13297  -0.196   2.443   3.229 -0.2012 -0.3547  0.2651
  125OSM    H7F13298  -0.141   2.351   3.200 -2.6869 -1.1457 -2.4156
  125OSM    H7G13299  -0.298   2.421   3.265  1.3653 -3.7193  3.2990
  125OSM    C8F13300  -0.148   2.524   3.348  0.3591 -0.5711 -0.2745
  125OSM    H8F13301  -0.214   2.610   3.372 -0.7830 -1.8196  1.2708
  125OSM    H8G13302  -0.051   2.573   3.324  0.2867  0.2832  1.0488
  125OSM    C9F13303  -0.128   2.432   3.463  0.0814  0.5335  0.0144
  125OSM    H9F13304  -0.038   2.370   3.451  0.1883  0.9408 -1.5260
  125OSM   C10F13305  -0.197   2.424   3.581 -1.1943 -1.2066 -0.0715
  125OSM   H10F13306  -0.161   2.355   3.658  0.4580  1.2904  1.5772
  125OSM   C11F13307  -0.318   2.515   3.611 -0.0995  0.3506  0.3148
  125OSM   H11F13308  -0.358   2.563   3.520  0.1121  0.7249  0.4175
  125OSM   H11G13309  -0.297   2.602   3.677 -0.4150  0.3107  0.4685
  125OSM   C12F13310  -0.437   2.439   3.682 -0.1346 -0.0650  0.4360
  125OSM   H12F13311  -0.462   2.355   3.614 -0.6732 -0.0625  0.6288
  125OSM   H12G13312  -0.525   2.505   3.700 -1.0223 -0.5379 -1.8382
  125OSM   C13F13313  -0.382   2.362   3.815  0.0813 -0.4996  0.2236
  125OSM   H13F13314  -0.316   2.277   3.786  0.3895 -0.7331  1.5250
  125OSM   H13G13315  -0.476   2.328   3.863  0.4460  0.3108  1.5712
  125OSM   C14F13316  -0.287   2.430   3.909  0.1498 -0.8522 -0.0298
  125OSM   H14F13317  -0.348   2.514   3.949  0.2229 -0.4880 -0.6661
  125OSM   H14G13318  -0.199   2.470   3.855  1.9938 -0.1708  3.2138
  125OSM   C15F13319  -0.249   2.335   4.025  0.3218  0.2869  0.6106
  125OSM   H15F13320  -0.152   2.371   4.066  1.8503 -1.0823 -1.6222
  125OSM   H15G13321  -0.244   2.231   3.986 -2.2916  0.9573 -1.8700
  125OSM   C16F13322  -0.357   2.337   4.141 -0.1816  0.3329  0.0918
  125OSM   H16F13323  -0.447   2.278   4.117 -0.7323  1.0708  0.2880
  125OSM   H16G13324  -0.394   2.442   4.139 -0.4876  0.2202 -1.6759
  125OSM   C17F13325  -0.308   2.290   4.279 -0.8121  0.1380 -0.8603
  125OSM   H17F13326  -0.234   2.360   4.324  0.2954 -1.1122 -0.6966
  125OSM   H17G13327  -0.263   2.189   4.279 -0.7845  0.1110  1.1413
  125OSM   C18F13328  -0.423   2.279   4.373 -0.7093 -0.2199  0.0796
  125OSM   H18F13329  -0.459   2.382   4.393  1.9403  0.8336 -0.1095
  125OSM   H18G13330  -0.398   2.219   4.463  0.8913  0.2385 -0.0250
  125OSM   H18H13331  -0.509   2.231   4.322 -2.8404  3.1317  0.2231
  126OSM      N13332   3.382   0.693   2.321 -0.1264 -0.1921  0.3652
  126OSM    C1513333   3.325   0.614   2.199  0.1508 -1.2513 -0.0711
  126OSM   H15A13334   3.240   0.664   2.155  1.6139  0.2717 -1.3142
  126OSM   H15B13335   3.282   0.520   2.232  1.4540 -1.5109  0.9866
  126OSM   H15C13336   3.395   0.596   2.119  0.2601 -1.0083 -0.0298
  126OSM    C1413337   3.517   0.640   2.359 -0.1560  0.4530 -0.0706
  126OSM   H14A13338   3.572   0.707   2.423  2.1544 -0.8174 -0.6014
  126OSM   H14B13339   3.588   0.616   2.281  1.0240 -1.4622  1.4975
  126OSM   H14C13340   3.500   0.547   2.411 -0.0408  1.5492  2.0642
  126OSM    C1313341   3.405   0.837   2.274 -0.3914  0.3005  0.3461
  126OSM   H13A13342   3.435   0.905   2.352 -1.0471  1.9404 -0.7688
  126OSM   H13B13343   3.315   0.873   2.227  0.0474 -0.2502 -0.9718
  126OSM   H13C13344   3.471   0.842   2.189 -3.2890 -0.7890 -2.1839
  126OSM    C1213345   3.284   0.684   2.444 -0.0727 -1.0079  0.9871
  126OSM   H12A13346   3.204   0.756   2.434  0.1288 -0.6003  2.1799
  126OSM   H12B13347   3.342   0.724   2.525 -0.5261 -0.9538  1.2899
  126OSM    C1113348   3.222   0.542   2.483  0.1235 -0.0562 -0.3604
  126OSM   H11A13349   3.129   0.524   2.424 -0.9259 -1.9154  1.7073
  126OSM   H11B13350   3.175   0.547   2.584  0.0971 -1.1305 -0.3113
  126OSM      P13351   3.338   0.320   2.573 -0.1886 -0.4157 -0.4048
  126OSM    O1313352   3.211   0.247   2.610  0.2918  0.1449  0.4192
  126OSM    O1413353   3.448   0.235   2.516 -0.2069  0.8106 -0.5620
  126OSM    O1113354   3.382   0.388   2.714 -0.1808 -0.2544 -0.0580
  126OSM    O1213355   3.316   0.442   2.476 -0.0802 -0.0918  0.0735
  126OSM    C1S13356   3.456   0.515   2.699 -0.2833  0.1497  0.0345
  126OSM    H1S13357   3.387   0.584   2.647  1.0750  1.3022 -0.3016
  126OSM    H1T13358   3.553   0.503   2.646 -1.3911 -1.5724 -1.7450
  126OSM     NF13359   3.554   0.710   2.810  0.2401  0.2693 -0.5346
  126OSM    HNF13360   3.650   0.713   2.837  0.1749  0.0967 -0.2770
  126OSM    C2S13361   3.490   0.581   2.834  0.3049 -0.5473  0.3517
  126OSM    H2S13362   3.398   0.609   2.890 -0.6584  0.9172 -1.8332
  126OSM    C3S13363   3.569   0.482   2.927  0.6089 -0.1858  0.2807
  126OSM    H3S13364   3.671   0.462   2.889  1.9567  0.1017  3.4663
  126OSM     O313365   3.514   0.352   2.935  0.3858 -0.1987 -0.6992
  126OSM    HO313366   3.470   0.351   2.850  0.1380 -0.8999 -0.5743
  126OSM    C4S13367   3.591   0.547   3.065  0.3827 -0.0831  0.0700
  126OSM    H4S13368   3.685   0.601   3.088 -0.3933  1.3920 -0.1206
  126OSM    C5S13369   3.508   0.530   3.170 -0.2989 -0.3346 -0.0901
  126OSM    H5S13370   3.415   0.471   3.159 -1.7863  1.6568  1.0025
  126OSM    C6S13371   3.539   0.586   3.306 -0.7002  0.2714  0.4040
  126OSM    H6S13372   3.467   0.669   3.324 -1.1559 -0.3127  1.3775
  126OSM    H6T13373   3.645   0.619   3.311 -0.2998 -0.9779  0.5280
  126OSM    C7S13374   3.518   0.492   3.426  0.5269 -0.4523  0.4493
  126OSM    H7S13375   3.598   0.415   3.420  1.5780  0.6578 -0.2018
  126OSM    H7T13376   3.431   0.422   3.419 -0.4544  0.7827 -0.0977
  126OSM    C8S13377   3.525   0.564   3.560 -0.0308  0.1620  0.5591
  126OSM    H8S13378   3.442   0.637   3.573  1.4603  2.2185 -0.8776
  126OSM    H8T13379   3.607   0.639   3.551 -1.1461  1.5490  1.3989
  126OSM    C9S13380   3.547   0.477   3.681 -0.5128 -0.3998 -0.3679
  126OSM    H9S13381   3.650   0.437   3.667  0.0880  0.7279  0.5802
  126OSM    H9T13382   3.474   0.393   3.684 -0.8091 -0.1484  2.8188
  126OSM   C10S13383   3.532   0.550   3.818  0.5879 -0.0940 -0.9115
  126OSM   H10S13384   3.435   0.602   3.828  1.3788  1.5898 -1.5684
  126OSM   H10T13385   3.601   0.637   3.826 -0.3547  0.6256 -0.4017
  126OSM   C11S13386   3.540   0.450   3.937 -0.0574 -0.4264 -0.4593
  126OSM   H11S13387   3.645   0.415   3.945 -0.0368 -0.1640  0.6144
  126OSM   H11T13388   3.491   0.357   3.901  0.0578 -0.3539 -0.8037
  126OSM   C12S13389   3.484   0.509   4.069 -0.7553  0.3942  0.2742
  126OSM   H12S13390   3.383   0.554   4.055 -0.7013  0.1911 -0.8342
  126OSM   H12T13391   3.565   0.576   4.105  1.7493 -2.1057 -0.4578
  126OSM   C13S13392   3.491   0.394   4.174  0.2127  0.0334 -0.3819
  126OSM   H13S13393   3.594   0.351   4.177 -0.4953 -1.7105  2.5587
  126OSM   H13T13394   3.433   0.308   4.135  1.6967 -0.1587 -2.3414
  126OSM   C14S13395   3.449   0.437   4.315  0.1827  0.3167  0.3955
  126OSM   H14S13396   3.350   0.484   4.299 -0.1271 -0.2692  0.5597
  126OSM   H14T13397   3.534   0.502   4.346  0.4210  0.2702 -0.1482
  126OSM   C15S13398   3.418   0.311   4.403 -0.1842 -0.0125  0.6634
  126OSM   H15S13399   3.513   0.271   4.444  3.1794  1.1547 -4.9198
  126OSM   H15T13400   3.371   0.230   4.343  0.7272 -0.6320  0.7659
  126OSM   C16S13401   3.330   0.340   4.523 -0.1378  0.2011  0.1255
  126OSM   H16S13402   3.331   0.256   4.595 -0.4579  1.2569  1.4077
  126OSM   H16T13403   3.230   0.363   4.479  0.4467  0.5543 -1.0590
  126OSM   C17S13404   3.372   0.456   4.611  0.2128  0.4078 -0.3260
  126OSM   H17S13405   3.315   0.543   4.571 -0.1633  1.2878  1.9862
  126OSM   H17T13406   3.479   0.483   4.593  1.1801 -1.4599  2.0592
  126OSM   C18S13407   3.328   0.456   4.762  0.5232  0.0581  0.5658
  126OSM   H18S13408   3.221   0.478   4.780  0.6918 -0.0651  1.7588
  126OSM   H18T13409   3.386   0.530   4.822  2.6897 -0.1132 -1.1753
  126OSM   H18U13410   3.359   0.364   4.817  1.1987 -0.3078 -0.3779
  126OSM    C1F13411   3.491   0.815   2.758 -0.7743  0.1249 -0.0324
  126OSM     OF13412   3.372   0.807   2.734  0.2089  0.5339 -0.2934
  126OSM    C2F13413   3.567   0.938   2.734 -0.3559 -0.1187  0.0945
  126OSM    H2F13414   3.550   0.982   2.633  1.1129  0.4912  0.0808
  126OSM    H2G13415   3.672   0.913   2.758 -0.9249 -0.4068  2.5487
  126OSM    C3F13416   3.529   1.059   2.830  0.1487 -0.8809 -0.4736
  126OSM    H3F13417   3.420   1.084   2.828  0.7686  2.2290 -1.5156
  126OSM    H3G13418   3.583   1.150   2.795  1.2194 -0.7471  1.4094
  126OSM    C4F13419   3.566   1.008   2.972  0.0721  0.1575 -0.5427
  126OSM    H4F13420   3.673   0.980   2.980 -0.3012 -1.6741 -1.4816
  126OSM    H4G13421   3.514   0.914   2.999  2.0691 -0.6084  0.8718
  126OSM    C5F13422   3.541   1.116   3.077 -0.0256  0.3506 -0.0686
  126OSM    H5F13423   3.431   1.120   3.083 -0.0506  0.3132 -0.4891
  126OSM    H5G13424   3.602   1.205   3.052  1.9006 -0.8565  0.0629
  126OSM    C6F13425   3.596   1.067   3.214 -0.1400  0.3201 -0.7457
  126OSM    H6F13426   3.701   1.034   3.202 -0.9224 -2.9902  0.3134
  126OSM    H6G13427   3.543   0.972   3.236 -0.5843  0.5013 -1.0068
  126OSM    C7F13428   3.575   1.177   3.324 -0.6860 -0.8744 -0.2195
  126OSM    H7F13429   3.467   1.191   3.347 -0.5768  1.4914 -0.8971
  126OSM    H7G13430   3.616   1.276   3.294  1.5944 -1.3490  1.0529
  126OSM    C8F13431   3.635   1.152   3.462 -0.3080  0.6285  0.3171
  126OSM    H8F13432   3.590   1.223   3.535 -0.2840  1.6594 -0.6415
  126OSM    H8G13433   3.745   1.157   3.456  0.2159 -2.6289  3.7577
  126OSM    C9F13434   3.604   1.012   3.509  0.2277 -0.2581 -0.7235
  126OSM    H9F13435   3.555   0.954   3.429  0.2822  0.0229 -0.9625
  126OSM   C10F13436   3.607   0.956   3.631 -1.1692  0.3042  0.6269
  126OSM   H10F13437   3.572   0.854   3.652 -0.0232  0.2421  2.5200
  126OSM   C11F13438   3.653   1.028   3.754 -0.0089  0.2071  1.0557
  126OSM   H11F13439   3.578   1.017   3.835  0.1464 -3.2555  0.8575
  126OSM   H11G13440   3.670   1.136   3.730  0.4832 -0.1293 -0.1939
  126OSM   C12F13441   3.782   0.979   3.820  0.0162  0.3346  0.5103
  126OSM   H12F13442   3.865   1.000   3.749 -2.3080  2.4597 -1.7939
  126OSM   H12G13443   3.781   0.871   3.848 -0.4598  0.5275  1.2703
  126OSM   C13F13444   3.806   1.039   3.952  0.6401 -0.4332  0.3611
  126OSM   H13F13445   3.711   1.053   4.008  0.1371 -0.0678 -0.5641
  126OSM   H13G13446   3.851   1.139   3.937  1.7239 -0.9012  0.4290
  126OSM   C14F13447   3.888   0.961   4.053  0.1974  1.0341  0.5182
  126OSM   H14F13448   3.983   0.947   3.997  0.6472  0.3745  1.4137
  126OSM   H14G13449   3.843   0.861   4.070 -0.5063  1.1727 -0.4500
  126OSM   C15F13450   3.910   1.025   4.188 -0.5453 -0.0974  0.4981
  126OSM   H15F13451   3.815   1.049   4.240 -1.0624  2.5702 -1.4751
  126OSM   H15G13452   3.969   1.116   4.165  0.6453 -1.6871 -3.5615
  126OSM   C16F13453   3.989   0.940   4.282 -0.1365  0.3264  0.5399
  126OSM   H16F13454   4.086   0.910   4.236 -0.5065  1.7934 -1.3597
  126OSM   H16G13455   3.929   0.853   4.314  0.8474 -1.7727 -2.7808
  126OSM   C17F13456   4.021   1.014   4.408 -0.2460  0.0334 -0.3332
  126OSM   H17F13457   3.924   1.045   4.451 -0.0989 -2.2104  1.8542
  126OSM   H17G13458   4.080   1.106   4.385 -1.7049  1.5315  1.5412
  126OSM   C18F13459   4.104   0.941   4.514 -0.4465  0.4010  0.4007
  126OSM   H18F13460   4.209   0.919   4.485 -0.7237 -1.6904  0.8138
  126OSM   H18G13461   4.053   0.844   4.534  0.9427 -0.8362 -1.7290
  126OSM   H18H13462   4.110   0.983   4.617  2.1497 -0.0753  0.4992
  127OSM      N13463   4.482   4.467   1.847  0.6378  0.0416  0.0387
  127OSM    C1513464   4.431   4.611   1.843  0.2512  0.5569 -0.8201
  127OSM   H15A13465   4.479   4.662   1.761  1.4871  2.0101  0.7406
  127OSM   H15B13466   4.467   4.653   1.936  0.0158 -0.5867 -0.1965
  127OSM   H15C13467   4.323   4.612   1.837  0.0704 -1.8878  0.8432
  127OSM    C1413468   4.433   4.407   1.714  0.2633  0.2927 -0.1992
  127OSM   H14A13469   4.325   4.406   1.720  0.2898 -1.1301  0.2242
  127OSM   H14B13470   4.455   4.302   1.704 -0.5834 -0.0859  1.6124
  127OSM   H14C13471   4.464   4.465   1.628 -0.4669  1.6966  0.4487
  127OSM    C1313472   4.631   4.463   1.849 -0.4550  0.6526  0.2117
  127OSM   H13A13473   4.681   4.507   1.934  3.0371 -1.3329 -0.5888
  127OSM   H13B13474   4.681   4.509   1.765  2.5983 -0.1410  1.4482
  127OSM   H13C13475   4.669   4.362   1.854 -2.0251  0.0959  3.7401
  127OSM    C1213476   4.423   4.389   1.959 -0.5259 -0.4243  0.5101
  127OSM   H12A13477   4.442   4.282   1.952 -1.4808 -0.6427  1.0705
  127OSM   H12B13478   4.316   4.404   1.958 -0.1150  3.7732  1.3393
  127OSM    C1113479   4.445   4.436   2.107 -0.6312  0.0623 -0.3431
  127OSM   H11A13480   4.551   4.465   2.122 -1.2950  3.2959 -1.1273
  127OSM   H11B13481   4.422   4.346   2.168  1.6345 -0.9332 -0.8701
  127OSM      P13482   4.383   4.673   2.211 -0.4035  0.0264  0.0488
  127OSM    O1313483   4.503   4.744   2.158  0.3290  0.2357  0.0053
  127OSM    O1413484   4.260   4.753   2.220  0.0566  0.2492 -0.3093
  127OSM    O1113485   4.422   4.614   2.357 -0.4864  0.6327  0.7122
  127OSM    O1213486   4.348   4.540   2.129 -0.2419  0.2129 -0.4379
  127OSM    C1S13487   4.371   4.498   2.422  0.9618  0.0564  0.0176
  127OSM    H1S13488   4.442   4.414   2.407  0.5096  0.0422 -2.6263
  127OSM    H1T13489   4.268   4.466   2.396 -0.0286  0.9315  2.5981
  127OSM     NF13490   4.351   4.398   2.644 -0.3740  0.0341  0.1933
  127OSM    HNF13491   4.259   4.361   2.656 -0.3203 -0.1669 -0.0030
  127OSM    C2S13492   4.362   4.528   2.575  0.3240  0.7513  0.5162
  127OSM    H2S13493   4.454   4.583   2.605  0.1855  1.4513 -0.3101
  127OSM    C3S13494   4.238   4.619   2.592 -0.0085 -0.3177 -0.1741
  127OSM    H3S13495   4.153   4.567   2.544  0.3745 -1.1686  0.0482
  127OSM     O313496   4.250   4.744   2.530  0.5962 -0.7250 -0.0093
  127OSM    HO313497   4.290   4.721   2.446 -1.6372 -1.3693 -0.9747
  127OSM    C4S13498   4.207   4.643   2.739 -1.0991  0.1305 -0.6885
  127OSM    H4S13499   4.142   4.569   2.790 -0.4972 -0.2564 -0.4654
  127OSM    C5S13500   4.255   4.733   2.824  0.7391 -0.1720 -0.7591
  127OSM    H5S13501   4.322   4.807   2.778  0.4084  0.0463 -0.8923
  127OSM    C6S13502   4.202   4.749   2.971 -0.0312 -0.0346  0.4014
  127OSM    H6S13503   4.095   4.718   2.975  0.5501 -2.0258  2.4873
  127OSM    H6T13504   4.202   4.856   3.000  1.9920  1.1246 -3.2842
  127OSM    C7S13505   4.285   4.678   3.080  1.1716 -0.0809  0.0168
  127OSM    H7S13506   4.390   4.706   3.054  1.2310 -1.0156 -0.8016
  127OSM    H7T13507   4.266   4.571   3.060 -1.4852  0.4783 -0.8037
  127OSM    C8S13508   4.242   4.721   3.225  0.5747 -0.1673 -0.2710
  127OSM    H8S13509   4.131   4.727   3.220  0.4455  0.8447  2.3190
  127OSM    H8T13510   4.277   4.825   3.243 -1.5687  0.4256  0.8167
  127OSM    C9S13511   4.299   4.640   3.339 -0.1323  0.0686  0.3707
  127OSM    H9S13512   4.404   4.622   3.306 -0.4163  0.7205 -0.9400
  127OSM    H9T13513   4.241   4.546   3.345  0.6301 -0.4510 -0.2189
  127OSM   C10S13514   4.305   4.708   3.481  0.2436 -0.3126  0.4305
  127OSM   H10S13515   4.355   4.807   3.472 -2.6062  1.2991  1.0900
  127OSM   H10T13516   4.366   4.637   3.542  0.0076 -0.9703 -0.0833
  127OSM   C11S13517   4.162   4.729   3.528 -0.1504 -0.4198 -0.3291
  127OSM   H11S13518   4.125   4.625   3.537  0.6286 -0.7087 -0.3802
  127OSM   H11T13519   4.098   4.782   3.454 -4.1806 -1.0667  2.4103
  127OSM   C12S13520   4.153   4.799   3.663  0.0063  0.9744  0.3117
  127OSM   H12S13521   4.047   4.805   3.697 -1.1394 -1.2684 -2.4879
  127OSM   H12T13522   4.206   4.896   3.654  0.9942  0.4570  0.4608
  127OSM   C13S13523   4.235   4.726   3.774 -0.0845  0.9011  0.1096
  127OSM   H13S13524   4.341   4.757   3.762  0.3786  0.2880  2.1485
  127OSM   H13T13525   4.232   4.617   3.752  3.6492  0.6402  0.2670
  127OSM   C14S13526   4.188   4.752   3.914  0.8416  0.1236  0.1606
  127OSM   H14S13527   4.086   4.711   3.930  2.6688 -4.3500  1.8027
  127OSM   H14T13528   4.176   4.861   3.934 -0.5124  0.0968 -0.3885
  127OSM   C15S13529   4.270   4.669   4.013 -0.2538 -0.5864  0.4525
  127OSM   H15S13530   4.369   4.721   4.016 -0.6496  0.1367  2.1149
  127OSM   H15T13531   4.287   4.561   3.993  1.3111 -0.4342  0.7700
  127OSM   C16S13532   4.215   4.679   4.154 -0.7071 -0.3976  0.5297
  127OSM   H16S13533   4.120   4.622   4.153 -0.3713 -1.0587  2.1382
  127OSM   H16T13534   4.183   4.784   4.172 -1.4788  0.0553 -2.7998
  127OSM   C17S13535   4.315   4.628   4.253  0.2690  0.1365  0.0468
  127OSM   H17S13536   4.421   4.656   4.234  0.3329  0.5833  1.0036
  127OSM   H17T13537   4.315   4.518   4.237  1.7614  0.1136  0.0784
  127OSM   C18S13538   4.291   4.661   4.399  0.3024  0.1778  0.9434
  127OSM   H18S13539   4.188   4.639   4.434 -0.4257  1.7491 -0.1086
  127OSM   H18T13540   4.301   4.769   4.425  1.0919  0.4120 -0.2368
  127OSM   H18U13541   4.377   4.614   4.451  0.3348  0.0489  0.7749
  127OSM    C1F13542   4.460   4.325   2.654 -0.4621 -0.5467  0.1014
  127OSM     OF13543   4.559   4.360   2.600 -0.5319  0.2326  0.3750
  127OSM    C2F13544   4.446   4.200   2.739 -0.7125  0.4162  0.0290
  127OSM    H2F13545   4.402   4.116   2.681 -1.2473  0.4830  0.3348
  127OSM    H2G13546   4.390   4.230   2.830 -1.4168 -0.8551  0.0516
  127OSM    C3F13547   4.588   4.154   2.796  0.5921 -0.2071 -0.7481
  127OSM    H3F13548   4.645   4.237   2.842 -0.0355  0.7369 -1.6175
  127OSM    H3G13549   4.654   4.127   2.710  2.8183 -0.8009  1.0535
  127OSM    C4F13550   4.578   4.031   2.878  0.0531  0.3917 -1.2902
  127OSM    H4F13551   4.530   3.958   2.810 -1.8775 -0.2829  0.6862
  127OSM    H4G13552   4.509   4.044   2.964 -0.3273 -0.7906 -1.3979
  127OSM    C5F13553   4.716   3.978   2.936  0.3739 -0.5581  0.0015
  127OSM    H5F13554   4.795   3.972   2.858 -0.2822 -0.2973 -0.6920
  127OSM    H5G13555   4.699   3.870   2.956 -0.0523 -0.2145  1.6150
  127OSM    C6F13556   4.769   4.051   3.062 -0.3095 -0.8762 -0.4210
  127OSM    H6F13557   4.686   4.038   3.135 -0.4123 -1.7870 -0.6835
  127OSM    H6G13558   4.792   4.156   3.038  1.5104 -1.2933 -0.6408
  127OSM    C7F13559   4.901   3.985   3.105  0.6400 -0.0334 -0.3637
  127OSM    H7F13560   4.979   4.006   3.029  1.7612  1.7454  1.1942
  127OSM    H7G13561   4.891   3.875   3.102 -1.1443  0.0351  1.4742
  127OSM    C8F13562   4.952   4.023   3.241 -0.0570 -0.5044  0.0771
  127OSM    H8F13563   4.926   4.131   3.246  1.3125  0.0927 -3.1686
  127OSM    H8G13564   5.063   4.024   3.242 -0.0398  0.5066 -0.8111
  127OSM    C9F13565   4.898   3.943   3.363  0.2863  0.4401  0.5588
  127OSM    H9F13566   4.790   3.949   3.379  0.0542  0.2319 -0.8646
  127OSM   C10F13567   4.977   3.886   3.457  0.2529  0.0610  0.0962
  127OSM   H10F13568   4.919   3.832   3.533 -3.2884  0.2681 -2.2237
  127OSM   C11F13569   5.125   3.869   3.451  0.6980 -0.3661  0.5407
  127OSM   H11F13570   5.184   3.958   3.481  2.1948 -1.5511  1.2555
  127OSM   H11G13571   5.162   3.852   3.348  0.1959  2.1731 -0.1164
  127OSM   C12F13572   5.176   3.751   3.530 -0.2890  1.3786 -0.9859
  127OSM   H12F13573   5.283   3.730   3.504 -0.2727 -1.2378  0.7523
  127OSM   H12G13574   5.118   3.658   3.514  1.4231 -0.1829  1.1449
  127OSM   C13F13575   5.175   3.775   3.685  0.7513  0.3407  0.9028
  127OSM   H13F13576   5.064   3.776   3.699  0.4359 -5.6534  1.5022
  127OSM   H13G13577   5.216   3.875   3.709  0.2012  0.7373  0.2500
  127OSM   C14F13578   5.227   3.652   3.769  0.2509 -0.6376  0.4360
  127OSM   H14F13579   5.338   3.646   3.763  0.3946 -0.1952  2.2714
  127OSM   H14G13580   5.191   3.562   3.713  0.0727  2.2400 -4.6891
  127OSM   C15F13581   5.198   3.646   3.919  0.2449 -0.1425 -0.0669
  127OSM   H15F13582   5.199   3.750   3.958 -1.3443 -0.3203  0.5151
  127OSM   H15G13583   5.291   3.600   3.959  2.6864  3.3453 -1.2334
  127OSM   C16F13584   5.062   3.582   3.950 -0.6058  0.5386  0.0078
  127OSM   H16F13585   5.060   3.481   3.903  0.3290 -0.3020  1.7145
  127OSM   H16G13586   4.974   3.644   3.922  0.0417  1.4430 -0.0641
  127OSM   C17F13587   5.053   3.553   4.109 -0.9619  0.0928  0.3622
  127OSM   H17F13588   5.095   3.648   4.149 -0.5240  0.6534 -1.3319
  127OSM   H17G13589   5.119   3.466   4.126 -1.8223 -0.3187  1.7584
  127OSM   C18F13590   4.913   3.524   4.161 -0.2227 -0.0186  0.4112
  127OSM   H18F13591   4.915   3.494   4.269 -1.1006 -2.5337 -0.1953
  127OSM   H18G13592   4.873   3.437   4.105  1.0112  0.9488 -2.0916
  127OSM   H18H13593   4.843   3.607   4.139  1.8383  1.1955 -2.0788
  128OSM      N13594   4.352   0.932   1.973  0.1098 -0.4896  0.7321
  128OSM    C1513595   4.265   0.816   1.935 -0.0962 -0.4959 -0.2819
  128OSM   H15A13596   4.222   0.770   2.024 -0.6580 -1.0203 -0.8126
  128OSM   H15B13597   4.316   0.733   1.889  0.1482 -0.9854  0.8233
  128OSM   H15C13598   4.183   0.855   1.876  0.2773 -0.5102 -0.8126
  128OSM    C1413599   4.470   0.884   2.057  0.6940 -0.0014 -0.0588
  128OSM   H14A13600   4.523   0.810   1.999  0.4637 -0.5341  0.3984
  128OSM   H14B13601   4.412   0.841   2.138 -0.8426  1.4103 -0.3501
  128OSM   H14C13602   4.538   0.964   2.081  1.8976 -1.0636  0.1461
  128OSM    C1313603   4.401   0.982   1.836  0.4450 -0.2658  0.1264
  128OSM   H13A13604   4.455   1.075   1.849 -0.7941  0.5374 -0.2999
  128OSM   H13B13605   4.319   0.987   1.766  2.7139  2.3788 -2.6852
  128OSM   H13C13606   4.476   0.917   1.794  2.1757 -1.6106  4.6806
  128OSM    C1213607   4.270   1.033   2.044 -0.7059 -0.0144  1.2692
  128OSM   H12A13608   4.201   1.068   1.969  0.6062 -1.8520 -0.9228
  128OSM   H12B13609   4.326   1.119   2.076 -0.1498 -0.4371  1.4575
  128OSM    C1113610   4.201   0.992   2.177  0.4793  0.9158 -0.3690
  128OSM   H11A13611   4.160   1.081   2.228 -1.2428  0.7932 -1.4419
  128OSM   H11B13612   4.277   0.948   2.245 -1.3010  0.0269  1.1376
  128OSM      P13613   3.954   0.908   2.234 -0.3709  0.2933 -0.2161
  128OSM    O1313614   3.872   0.978   2.133 -0.0029  0.3427 -0.0882
  128OSM    O1413615   3.920   0.767   2.275  0.4873  0.0257 -0.0662
  128OSM    O1113616   3.974   0.998   2.364  0.5077 -0.4105 -0.0982
  128OSM    O1213617   4.098   0.895   2.169 -0.6885 -0.1173  0.5955
  128OSM    C1S13618   4.030   0.952   2.484  0.3212  0.3353 -0.2937
  128OSM    H1S13619   4.129   0.905   2.466  0.1891 -0.3475  0.6619
  128OSM    H1T13620   3.978   0.865   2.530  1.5411  0.5619  1.6037
  128OSM     NF13621   4.120   1.018   2.703  0.2982  0.4826 -0.0278
  128OSM    HNF13622   4.074   0.973   2.780 -1.0971 -1.3765 -1.8591
  128OSM    C2S13623   4.036   1.064   2.594 -0.1783  0.1175 -0.1272
  128OSM    H2S13624   4.084   1.147   2.537 -2.2418  0.2763 -1.7498
  128OSM    C3S13625   3.891   1.110   2.640  0.1662  0.2323  0.2247
  128OSM    H3S13626   3.850   1.030   2.706  1.3314 -1.1354 -0.6571
  128OSM     O313627   3.793   1.112   2.533  0.2470 -0.0307  0.3476
  128OSM    HO313628   3.835   1.067   2.459  1.1460  1.3331 -0.0143
  128OSM    C4S13629   3.899   1.237   2.719  0.6637  0.4092  0.5263
  128OSM    H4S13630   3.903   1.225   2.828 -1.8238 -4.3388  0.3458
  128OSM    C5S13631   3.878   1.360   2.671 -0.0637  0.4045  0.2847
  128OSM    H5S13632   3.873   1.381   2.563  1.0226 -0.3661  0.0708
  128OSM    C6S13633   3.892   1.484   2.763 -0.2628 -0.0654 -0.1320
  128OSM    H6S13634   3.929   1.460   2.864 -1.4793  2.3396  0.9560
  128OSM    H6T13635   3.789   1.520   2.784  0.0605  1.1431 -0.5022
  128OSM    C7S13636   3.986   1.592   2.705  0.4982  0.0780 -0.2533
  128OSM    H7S13637   3.969   1.610   2.597  0.1514  0.2284 -0.1761
  128OSM    H7T13638   4.088   1.551   2.723  0.6921  0.3801 -0.6305
  128OSM    C8S13639   3.970   1.717   2.781  0.4193  0.1348 -0.0584
  128OSM    H8S13640   3.923   1.706   2.881 -1.4278 -0.4303 -0.9570
  128OSM    H8T13641   3.910   1.792   2.725  1.2801  2.6861  2.1771
  128OSM    C9S13642   4.104   1.789   2.799  0.0580  0.5096  0.0080
  128OSM    H9S13643   4.082   1.897   2.786  1.8151  0.7614 -1.2731
  128OSM    H9T13644   4.162   1.750   2.712 -1.5391 -1.5071 -0.2327
  128OSM   C10S13645   4.178   1.770   2.934 -0.3603 -0.8979  0.3944
  128OSM   H10S13646   4.277   1.818   2.923 -1.5544  1.1669 -3.2273
  128OSM   H10T13647   4.188   1.663   2.962 -1.5128 -0.9575  0.6534
  128OSM   C11S13648   4.107   1.837   3.054  0.1614 -0.1504 -0.5054
  128OSM   H11S13649   4.004   1.796   3.065  0.2351 -0.1305  0.3735
  128OSM   H11T13650   4.111   1.946   3.034 -1.0038  0.1442  0.7210
  128OSM   C12S13651   4.184   1.796   3.191  0.0432 -0.5614  0.5622
  128OSM   H12S13652   4.290   1.823   3.173 -0.2420 -0.6564 -1.4345
  128OSM   H12T13653   4.179   1.686   3.180  2.1916 -0.4448 -4.3989
  128OSM   C13S13654   4.131   1.855   3.323 -0.4076  0.2850 -0.5720
  128OSM   H13S13655   4.024   1.832   3.342  0.2699 -1.8347  0.9775
  128OSM   H13T13656   4.130   1.967   3.321  0.4353  0.4408  2.7226
  128OSM   C14S13657   4.222   1.812   3.445  0.0416  0.0717  0.2012
  128OSM   H14S13658   4.178   1.870   3.528  0.2985  1.8721 -0.8642
  128OSM   H14T13659   4.322   1.847   3.414  0.3575 -0.4677  0.6013
  128OSM   C15S13660   4.224   1.659   3.467  0.3580  0.3116 -0.4099
  128OSM   H15S13661   4.279   1.608   3.384  0.5209 -0.9785  0.4640
  128OSM   H15T13662   4.120   1.618   3.464  0.3049  0.4467 -0.4182
  128OSM   C16S13663   4.295   1.615   3.595  1.2581  0.6317  0.1251
  128OSM   H16S13664   4.392   1.669   3.609  1.5890  0.0407  0.1474
  128OSM   H16T13665   4.318   1.507   3.594 -0.6348  0.1967  0.0162
  128OSM   C17S13666   4.203   1.618   3.721 -0.2530 -0.3894 -0.0099
  128OSM   H17S13667   4.125   1.540   3.712 -0.4871 -0.2478  0.7252
  128OSM   H17T13668   4.149   1.714   3.736  0.6777  0.0870  0.3814
  128OSM   C18S13669   4.286   1.591   3.854  0.4161  0.4919  0.3820
  128OSM   H18S13670   4.327   1.488   3.849  0.6428  0.6421 -1.7498
  128OSM   H18T13671   4.225   1.616   3.943  2.3597  1.9511  1.3811
  128OSM   H18U13672   4.374   1.658   3.861  0.2158  0.9883 -1.3174
  128OSM    C1F13673   4.250   1.023   2.695  0.3417 -0.6203  0.0414
  128OSM     OF13674   4.305   1.048   2.585  0.4746 -0.1273 -0.5602
  128OSM    C2F13675   4.327   0.991   2.810  0.0442 -0.3229 -0.1993
  128OSM    H2F13676   4.383   0.896   2.794  0.9019 -0.0209  0.8596
  128OSM    H2G13677   4.262   0.996   2.901  2.1751 -0.2594  1.3997
  128OSM    C3F13678   4.431   1.102   2.836  0.3744  0.0470  0.2317
  128OSM    H3F13679   4.508   1.115   2.757  0.2199 -1.0816 -0.1168
  128OSM    H3G13680   4.486   1.068   2.927 -0.8987 -1.0074  0.6468
  128OSM    C4F13681   4.364   1.238   2.857  0.7541 -0.4938 -0.8409
  128OSM    H4F13682   4.313   1.278   2.767 -0.2088 -1.3939 -0.7176
  128OSM    H4G13683   4.455   1.295   2.883  0.4206 -0.7789  1.1099
  128OSM    C5F13684   4.264   1.231   2.977 -0.4212  0.0624  0.1916
  128OSM    H5F13685   4.308   1.196   3.073 -0.4668  0.1525  0.2452
  128OSM    H5G13686   4.176   1.170   2.948  0.0808  0.0649 -1.4063
  128OSM    C6F13687   4.218   1.375   3.008  0.5752 -0.2337  0.0863
  128OSM    H6F13688   4.186   1.410   2.907 -2.0650 -0.9893  0.5858
  128OSM    H6G13689   4.300   1.439   3.047 -0.3754  1.6846 -0.8802
  128OSM    C7F13690   4.092   1.375   3.096 -0.2919 -0.3455  0.2245
  128OSM    H7F13691   4.022   1.294   3.065 -0.3735  0.1902 -1.0215
  128OSM    H7G13692   4.039   1.471   3.080 -0.7518 -0.7751 -0.9530
  128OSM    C8F13693   4.127   1.372   3.246  1.3924 -0.5382  0.4424
  128OSM    H8F13694   4.195   1.457   3.271 -0.6518  0.5330  2.7952
  128OSM    H8G13695   4.177   1.273   3.249  1.5519 -0.4650  0.2600
  128OSM    C9F13696   4.008   1.382   3.343 -0.3908 -0.2550  0.2950
  128OSM    H9F13697   3.932   1.444   3.294 -0.8677 -0.8367  0.2832
  128OSM   C10F13698   3.978   1.328   3.458 -0.4453 -0.1640 -0.9002
  128OSM   H10F13699   3.883   1.360   3.503  0.4652  1.7622 -0.2404
  128OSM   C11F13700   4.063   1.224   3.524  0.1665  0.4169 -0.6441
  128OSM   H11F13701   4.170   1.214   3.496  0.0420 -0.5219 -0.8395
  128OSM   H11G13702   4.014   1.125   3.509 -1.3741  0.8683  1.0017
  128OSM   C12F13703   4.067   1.225   3.676 -0.6476  0.5177  0.4043
  128OSM   H12F13704   3.966   1.211   3.719 -1.1100  0.4371 -0.6877
  128OSM   H12G13705   4.088   1.327   3.715  2.1062 -0.1858  0.9693
  128OSM   C13F13706   4.165   1.123   3.737 -0.6856 -0.6782 -0.1690
  128OSM   H13F13707   4.206   1.055   3.660  0.3791 -0.6030  0.3024
  128OSM   H13G13708   4.100   1.063   3.805 -2.5076 -0.2569 -1.4826
  128OSM   C14F13709   4.293   1.179   3.811  0.0645 -0.3169 -0.3553
  128OSM   H14F13710   4.271   1.279   3.854  0.9794 -0.2968  0.0974
  128OSM   H14G13711   4.359   1.202   3.724 -0.3428 -0.3630 -0.6795
  128OSM   C15F13712   4.368   1.080   3.892  0.1377  0.3532 -0.2100
  128OSM   H15F13713   4.461   1.123   3.934  1.0080 -0.3820 -1.3330
  128OSM   H15G13714   4.383   1.003   3.814  1.1096  1.1027 -0.7746
  128OSM   C16F13715   4.287   1.024   4.015 -0.2043 -0.3050  0.1359
  128OSM   H16F13716   4.192   0.976   3.983  0.2729 -1.4233  0.3449
  128OSM   H16G13717   4.269   1.113   4.079  2.1984  0.8498 -0.6628
  128OSM   C17F13718   4.362   0.917   4.094 -0.0197  0.0854 -0.5582
  128OSM   H17F13719   4.417   0.841   4.034 -1.0640 -1.1232 -0.0480
  128OSM   H17G13720   4.282   0.864   4.150 -0.0341  0.8098  0.1288
  128OSM   C18F13721   4.466   0.955   4.202  0.5419 -0.0985  0.1789
  128OSM   H18F13722   4.423   1.010   4.289 -0.4392  1.3639 -1.1832
  128OSM   H18G13723   4.541   1.018   4.150  1.2433  0.0609  1.3501
  128OSM   H18H13724   4.520   0.869   4.249  1.6587  0.3806 -0.1854
  129OSM      N13725   5.984   1.670   1.975 -0.3521  0.9103  0.9537
  129OSM    C1513726   5.861   1.593   2.020 -0.5008  0.0588 -0.4769
  129OSM   H15A13727   5.810   1.533   1.945 -0.1704 -1.4449  0.4474
  129OSM   H15B13728   5.786   1.660   2.059 -2.4685 -1.4177 -1.5386
  129OSM   H15C13729   5.878   1.529   2.105  0.7466 -0.9156 -1.4298
  129OSM    C1413730   6.095   1.583   1.918 -0.1843  0.3596 -0.4138
  129OSM   H14A13731   6.063   1.514   1.840 -1.3063 -0.0918  0.4205
  129OSM   H14B13732   6.132   1.515   1.994  2.3982  2.2821  0.1804
  129OSM   H14C13733   6.173   1.643   1.874 -0.7837 -0.1394 -2.2801
  129OSM    C1313734   5.942   1.765   1.866 -0.3778 -0.6870 -0.2127
  129OSM   H13A13735   6.026   1.810   1.815 -0.6125  0.0471  0.0296
  129OSM   H13B13736   5.884   1.847   1.906 -0.2997 -0.1273 -1.2190
  129OSM   H13C13737   5.890   1.708   1.791  2.5989 -3.6696 -0.2387
  129OSM    C1213738   6.045   1.741   2.091  0.1293 -0.3989 -0.4760
  129OSM   H12A13739   6.130   1.799   2.056  2.2081 -0.5163  3.7380
  129OSM   H12B13740   6.086   1.666   2.158  0.0604  0.6737  0.8092
  129OSM    C1113741   5.951   1.827   2.173 -0.0395  0.2586 -0.9159
  129OSM   H11A13742   6.007   1.865   2.261 -0.2074 -1.0377 -0.2261
  129OSM   H11B13743   5.872   1.756   2.206 -0.1768 -0.2496 -2.2939
  129OSM      P13744   5.963   2.066   2.055 -0.1704  0.2686  0.0676
  129OSM    O1313745   6.073   2.036   1.958 -0.0359 -0.0992  0.2958
  129OSM    O1413746   5.858   2.149   1.999 -0.1209 -1.1466  0.8899
  129OSM    O1113747   6.023   2.130   2.179 -0.3796  0.1158 -0.0102
  129OSM    O1213748   5.889   1.931   2.097 -0.1691 -1.1218 -0.3749
  129OSM    C1S13749   5.931   2.188   2.276  0.1749  0.2326 -0.8513
  129OSM    H1S13750   5.824   2.179   2.248  0.3819 -0.8437 -1.3606
  129OSM    H1T13751   5.934   2.299   2.277 -0.0537  0.2785 -2.2213
  129OSM     NF13752   5.861   2.172   2.521  0.4609 -0.4328 -0.0918
  129OSM    HNF13753   5.891   2.234   2.594 -1.7412  2.1412 -1.1831
  129OSM    C2S13754   5.965   2.146   2.427  0.2853  0.0434  0.4496
  129OSM    H2S13755   5.974   2.036   2.422 -1.2853 -0.0484 -1.3238
  129OSM    C3S13756   6.097   2.219   2.471 -0.5637 -0.3016 -0.0045
  129OSM    H3S13757   6.073   2.327   2.480 -2.1358 -0.4322 -2.0532
  129OSM     O313758   6.208   2.211   2.376 -0.6780  0.0764 -0.8873
  129OSM    HO313759   6.173   2.155   2.307 -1.0233 -0.0532 -0.6078
  129OSM    C4S13760   6.139   2.176   2.616 -0.7464 -0.3136 -0.1270
  129OSM    H4S13761   6.085   2.224   2.698 -2.4398 -1.2098 -0.6760
  129OSM    C5S13762   6.214   2.065   2.635 -0.5436  0.1034 -0.1198
  129OSM    H5S13763   6.249   2.017   2.542 -1.7343 -0.2373 -0.4068
  129OSM    C6S13764   6.258   2.016   2.775 -0.3566 -0.3210  0.6325
  129OSM    H6S13765   6.214   1.917   2.800 -0.3651  0.3042  3.4231
  129OSM    H6T13766   6.222   2.079   2.859 -1.5002  1.2973 -1.0000
  129OSM    C7S13767   6.410   2.006   2.797 -0.0763 -0.2361  0.9062
  129OSM    H7S13768   6.456   2.106   2.812  2.0616 -1.3602  2.5008
  129OSM    H7T13769   6.455   1.952   2.712 -1.9928  0.8347 -0.8927
  129OSM    C8S13770   6.435   1.923   2.922  0.1393 -0.1878  0.8490
  129OSM    H8S13771   6.536   1.876   2.919 -0.2111 -0.9283 -0.8658
  129OSM    H8T13772   6.383   1.825   2.921 -1.5099  0.6591  0.8400
  129OSM    C9S13773   6.425   2.004   3.053 -0.7235 -0.3574 -0.7961
  129OSM    H9S13774   6.319   2.032   3.066 -0.4956  1.1524 -1.8389
  129OSM    H9T13775   6.476   2.102   3.040 -2.5675  0.6660 -0.6620
  129OSM   C10S13776   6.493   1.928   3.173 -0.2952 -0.0816  1.4616
  129OSM   H10S13777   6.599   1.911   3.147 -0.6551  1.6104 -1.5695
  129OSM   H10T13778   6.442   1.829   3.176  0.1550 -0.3874 -0.3621
  129OSM   C11S13779   6.476   1.999   3.304 -0.8512 -0.3174 -0.3936
  129OSM   H11S13780   6.366   2.000   3.316 -0.8647 -2.3296  0.0772
  129OSM   H11T13781   6.507   2.106   3.298 -0.4339 -0.4289 -0.2852
  129OSM   C12S13782   6.555   1.939   3.424 -0.4215  0.2513 -0.1914
  129OSM   H12S13783   6.651   1.890   3.398 -0.2507  0.4264  0.0982
  129OSM   H12T13784   6.496   1.848   3.445  2.1118 -2.1950 -2.7791
  129OSM   C13S13785   6.572   2.031   3.549 -0.0804  0.1393  0.1322
  129OSM   H13S13786   6.481   2.094   3.542  0.3065  0.7976  0.8826
  129OSM   H13T13787   6.656   2.098   3.521 -0.7686 -0.1073 -2.8133
  129OSM   C14S13788   6.590   1.957   3.682 -0.3834 -0.0363 -0.2959
  129OSM   H14S13789   6.657   1.868   3.681 -1.3999 -0.8553  1.0414
  129OSM   H14T13790   6.491   1.913   3.704  0.7295 -2.1375  0.8949
  129OSM   C15S13791   6.629   2.040   3.805 -0.5545  0.4121  0.1723
  129OSM   H15S13792   6.552   2.119   3.819 -0.0133  1.1062 -0.6479
  129OSM   H15T13793   6.730   2.085   3.797 -0.6475  0.5158 -0.5220
  129OSM   C16S13794   6.638   1.953   3.931  0.2120 -0.2090  0.2231
  129OSM   H16S13795   6.711   1.870   3.941 -0.6379 -0.9496  0.3518
  129OSM   H16T13796   6.537   1.918   3.962 -0.3360  1.2402  0.1654
  129OSM   C17S13797   6.673   2.042   4.054  0.1466 -0.4121  0.0670
  129OSM   H17S13798   6.596   2.120   4.070  1.6695  1.0676  0.5717
  129OSM   H17T13799   6.762   2.105   4.030  0.3457 -0.1809  1.3465
  129OSM   C18S13800   6.700   1.971   4.185  0.7282 -0.0585 -1.1252
  129OSM   H18S13801   6.778   1.892   4.186 -0.5129 -1.3800  0.9297
  129OSM   H18T13802   6.608   1.914   4.214  0.9878 -0.4948 -1.1597
  129OSM   H18U13803   6.716   2.043   4.268 -1.7698  0.5436 -1.0701
  129OSM    C1F13804   5.735   2.123   2.512 -0.6094  0.3712 -0.7409
  129OSM     OF13805   5.705   2.024   2.439 -1.0350 -0.3420 -0.0666
  129OSM    C2F13806   5.644   2.170   2.623 -0.2501  0.1187 -1.3515
  129OSM    H2F13807   5.560   2.229   2.582 -0.7281  0.6571  0.3314
  129OSM    H2G13808   5.703   2.232   2.694 -0.5497  0.5302 -1.4609
  129OSM    C3F13809   5.587   2.054   2.707  0.3529  0.1404 -0.2656
  129OSM    H3F13810   5.678   2.010   2.755 -0.3183 -0.4218  0.5194
  129OSM    H3G13811   5.534   1.984   2.640 -2.4535  0.5817  1.3220
  129OSM    C4F13812   5.496   2.108   2.819  0.3168  0.3981 -0.1609
  129OSM    H4F13813   5.398   2.141   2.778  0.4042 -2.0206 -2.5966
  129OSM    H4G13814   5.538   2.197   2.870  0.0746  0.4362 -0.0268
  129OSM    C5F13815   5.461   1.992   2.909 -0.4060  0.3980  0.1533
  129OSM    H5F13816   5.555   1.957   2.957 -0.9857 -0.9682  0.3246
  129OSM    H5G13817   5.418   1.906   2.854  1.7091  0.6035 -2.0019
  129OSM    C6F13818   5.365   2.033   3.022 -0.1083  0.0192  0.2194
  129OSM    H6F13819   5.266   2.061   2.982 -1.5731  0.0844  3.5191
  129OSM    H6G13820   5.411   2.123   3.069  1.9657 -1.1229  0.4897
  129OSM    C7F13821   5.341   1.926   3.129  0.6417  0.2656  0.2065
  129OSM    H7F13822   5.430   1.905   3.193  0.6158 -0.2455  0.0792
  129OSM    H7G13823   5.310   1.834   3.076  1.2516  0.9000 -1.2814
  129OSM    C8F13824   5.221   1.964   3.218 -0.0632 -0.0375  0.3162
  129OSM    H8F13825   5.238   2.060   3.270 -1.3456  0.2403  0.2701
  129OSM    H8G13826   5.224   1.903   3.311  0.3733  0.4752  0.6437
  129OSM    C9F13827   5.080   1.968   3.161 -0.5524  0.0230  0.1584
  129OSM    H9F13828   5.056   2.064   3.113 -1.6452 -0.8785 -1.1582
  129OSM   C10F13829   5.000   1.870   3.140  0.2331  0.6381  0.3019
  129OSM   H10F13830   4.899   1.895   3.103  1.3196  2.3120 -1.7325
  129OSM   C11F13831   5.023   1.724   3.175 -0.0511  1.0132 -0.4798
  129OSM   H11F13832   5.128   1.701   3.205 -0.5250 -0.1614  0.3388
  129OSM   H11G13833   4.995   1.664   3.086  1.2271 -1.7439  0.8568
  129OSM   C12F13834   4.919   1.670   3.281 -0.4782  0.4309  0.5623
  129OSM   H12F13835   4.952   1.567   3.304  0.4196  0.8078  1.0157
  129OSM   H12G13836   4.817   1.670   3.238 -0.3472  1.3119  0.2119
  129OSM   C13F13837   4.925   1.739   3.414  0.1959 -0.5080  0.2364
  129OSM   H13F13838   4.897   1.846   3.405 -2.4067 -1.2586 -2.1860
  129OSM   H13G13839   5.031   1.742   3.448  0.3425 -1.1202 -0.1404
  129OSM   C14F13840   4.834   1.685   3.515  0.4295 -0.2124  0.1870
  129OSM   H14F13841   4.740   1.651   3.467  0.1244  1.5718 -0.5502
  129OSM   H14G13842   4.802   1.763   3.588  1.4512 -0.9780  1.5070
  129OSM   C15F13843   4.895   1.567   3.598  0.1821  0.1158 -0.6620
  129OSM   H15F13844   4.972   1.616   3.661 -0.7596 -0.9548  1.3973
  129OSM   H15G13845   4.957   1.491   3.545 -0.4589  0.6787 -2.2769
  129OSM   C16F13846   4.798   1.517   3.703  0.1914  1.1392 -0.1202
  129OSM   H16F13847   4.740   1.603   3.742  1.9391  1.5168  1.7904
  129OSM   H16G13848   4.849   1.459   3.783 -1.1047 -0.2174 -0.2353
  129OSM   C17F13849   4.697   1.411   3.651 -0.2209 -0.1003  0.1556
  129OSM   H17F13850   4.746   1.345   3.577 -0.1437 -0.7043  0.7321
  129OSM   H17G13851   4.621   1.464   3.589 -0.8566 -0.9156  0.2286
  129OSM   C18F13852   4.629   1.334   3.758 -0.0685 -0.0804 -0.8126
  129OSM   H18F13853   4.676   1.233   3.760  0.1069 -0.0098 -1.2046
  129OSM   H18G13854   4.519   1.327   3.748 -0.4526  2.0439  1.1146
  129OSM   H18H13855   4.664   1.384   3.851 -1.5992  2.9578 -1.7536
  130OSM      N13856   4.793   4.790   2.400 -0.3819 -0.6427 -0.6069
  130OSM    C1513857   4.859   4.759   2.526 -0.4210  0.3085  0.8917
  130OSM   H15A13858   4.888   4.655   2.518  0.2247  0.2839  3.0350
  130OSM   H15B13859   4.791   4.759   2.610 -2.9486 -0.3837 -1.0084
  130OSM   H15C13860   4.941   4.827   2.545 -0.8636  1.5296 -1.2243
  130OSM    C1413861   4.693   4.901   2.420  0.0057 -0.7205 -0.2168
  130OSM   H14A13862   4.603   4.873   2.472  1.6849 -0.9775  2.7889
  130OSM   H14B13863   4.658   4.929   2.322  0.9447  0.7878 -0.1539
  130OSM   H14C13864   4.748   4.984   2.462  3.5564 -1.7967 -2.2657
  130OSM    C1313865   4.900   4.829   2.303  0.2295 -0.6053 -0.2554
  130OSM   H13A13866   4.953   4.916   2.339  0.8308 -0.3868 -1.6171
  130OSM   H13B13867   4.857   4.856   2.208  0.0141  1.6548  0.4287
  130OSM   H13C13868   4.963   4.743   2.286 -0.2842 -0.9835 -0.2739
  130OSM    C1213869   4.715   4.672   2.350  0.2780 -0.3789  0.5173
  130OSM   H12A13870   4.705   4.679   2.243  1.6755 -1.2333  0.3058
  130OSM   H12B13871   4.614   4.667   2.388  0.3051 -1.1327  0.4968
  130OSM    C1113872   4.780   4.528   2.368  0.1732  0.0826  0.7157
  130OSM   H11A13873   4.711   4.443   2.350  0.1371 -0.1361  1.8006
  130OSM   H11B13874   4.803   4.522   2.476  3.6287  1.6482  0.2087
  130OSM      P13875   4.891   4.467   2.139 -0.1004 -0.3627 -0.2040
  130OSM    O1313876   4.800   4.570   2.076 -0.2605  0.4917  0.1088
  130OSM    O1413877   5.027   4.445   2.086  0.1306  0.0165 -0.1179
  130OSM    O1113878   4.814   4.329   2.155 -0.0508 -0.1179  0.0169
  130OSM    O1213879   4.906   4.510   2.296 -0.4426 -0.0654  0.6619
  130OSM    C1S13880   4.881   4.208   2.188  0.5762  0.9106  0.2520
  130OSM    H1S13881   4.986   4.227   2.219  0.6065  1.3838 -0.1233
  130OSM    H1T13882   4.881   4.154   2.091 -1.2742  1.4873 -0.0986
  130OSM     NF13883   4.907   4.042   2.365 -0.4921  0.8951 -0.0083
  130OSM    HNF13884   4.889   3.946   2.349  0.0755  0.9474 -1.0681
  130OSM    C2S13885   4.814   4.138   2.310 -0.1577  1.0991 -0.2428
  130OSM    H2S13886   4.767   4.202   2.388 -1.5538  0.1942 -0.2910
  130OSM    C3S13887   4.686   4.071   2.247 -0.1144  0.3816 -0.1393
  130OSM    H3S13888   4.720   3.999   2.170 -1.1374 -2.0494  1.5721
  130OSM     O313889   4.594   4.159   2.182 -0.9286 -0.1922 -0.2239
  130OSM    HO313890   4.647   4.235   2.157 -0.4308 -0.1966  0.7547
  130OSM    C4S13891   4.615   3.979   2.343  0.1654 -1.0118 -1.1791
  130OSM    H4S13892   4.646   3.875   2.329 -0.8869 -1.5647  0.3816
  130OSM    C5S13893   4.509   4.001   2.425 -0.0148 -0.2675  0.2012
  130OSM    H5S13894   4.469   4.103   2.435  0.6470 -0.1018  1.3612
  130OSM    C6S13895   4.441   3.892   2.502 -0.5891  0.1396 -0.0948
  130OSM    H6S13896   4.421   3.917   2.609 -1.0042 -1.0577  0.1192
  130OSM    H6T13897   4.508   3.803   2.507  0.1503  0.7218  1.1791
  130OSM    C7S13898   4.313   3.852   2.426 -1.2099  0.7688  0.1664
  130OSM    H7S13899   4.326   3.837   2.316 -2.7258  1.6730 -0.1593
  130OSM    H7T13900   4.249   3.943   2.423 -1.9356  0.2419 -0.6156
  130OSM    C8S13901   4.247   3.735   2.491  0.9846 -0.2386 -0.4705
  130OSM    H8S13902   4.312   3.650   2.521 -0.6376 -0.9877  1.1296
  130OSM    H8T13903   4.178   3.692   2.415  0.4551 -0.5494  0.1705
  130OSM    C9S13904   4.151   3.781   2.602 -0.1784 -0.7090  0.3113
  130OSM    H9S13905   4.070   3.705   2.601 -0.2940 -0.6196 -2.3488
  130OSM    H9T13906   4.101   3.877   2.578  1.9748  0.0793 -1.2925
  130OSM   C10S13907   4.214   3.786   2.739  0.1713  0.1843  0.3372
  130OSM   H10S13908   4.281   3.874   2.747 -2.3212  2.1416  0.9670
  130OSM   H10T13909   4.274   3.693   2.754 -1.2898 -0.9439 -0.5012
  130OSM   C11S13910   4.114   3.803   2.854  0.6619 -0.6691  0.1310
  130OSM   H11S13911   4.027   3.738   2.831 -0.4442  1.0237 -0.6178
  130OSM   H11T13912   4.079   3.908   2.844 -0.2773 -1.1250 -1.7858
  130OSM   C12S13913   4.183   3.791   2.994 -0.3188 -0.1590  0.8945
  130OSM   H12S13914   4.279   3.847   2.988 -0.5402  0.3127  1.6257
  130OSM   H12T13915   4.216   3.685   2.993 -0.3813 -0.1798  0.0296
  130OSM   C13S13916   4.099   3.812   3.119  0.0111  0.4405 -0.5659
  130OSM   H13S13917   4.020   3.735   3.130  0.6843  0.0520  2.5694
  130OSM   H13T13918   4.054   3.913   3.112  0.2818  0.6111  0.0481
  130OSM   C14S13919   4.180   3.818   3.250 -0.1418  0.2225 -0.3951
  130OSM   H14S13920   4.247   3.906   3.264 -1.8506  1.4431  0.4992
  130OSM   H14T13921   4.247   3.730   3.252  0.1228  0.4253 -0.0887
  130OSM   C15S13922   4.092   3.825   3.379 -0.5617 -0.1061  0.3595
  130OSM   H15S13923   4.015   3.745   3.375 -0.3043 -0.3314 -0.1527
  130OSM   H15T13924   4.038   3.921   3.371 -0.5230  0.1625  2.6770
  130OSM   C16S13925   4.174   3.815   3.507  0.1422  0.0337  0.2717
  130OSM   H16S13926   4.245   3.899   3.516  0.2795 -0.2920  3.7850
  130OSM   H16T13927   4.231   3.720   3.510  0.0349 -0.0157  0.8175
  130OSM   C17S13928   4.083   3.824   3.633  0.2691  0.1967 -0.8837
  130OSM   H17S13929   4.010   3.742   3.616  1.8443 -1.1994 -1.2262
  130OSM   H17T13930   4.026   3.919   3.625 -1.1507 -0.6261 -0.7510
  130OSM   C18S13931   4.164   3.810   3.762  0.2797 -0.0626 -0.2761
  130OSM   H18S13932   4.092   3.819   3.846 -0.1743  0.5010 -0.7189
  130OSM   H18T13933   4.241   3.887   3.779 -1.1626  0.9950  1.9795
  130OSM   H18U13934   4.200   3.705   3.757 -2.6280 -1.3362  2.3192
  130OSM    C1F13935   4.996   4.084   2.458 -0.2687 -0.1151 -0.3677
  130OSM     OF13936   4.989   4.197   2.504  0.3786  0.5481  0.4966
  130OSM    C2F13937   5.086   3.979   2.509 -0.1622 -0.0778 -1.0833
  130OSM    H2F13938   5.159   3.940   2.435  1.4693  0.7175  0.0421
  130OSM    H2G13939   5.025   3.897   2.553 -1.0052  0.9472 -0.2922
  130OSM    C3F13940   5.184   4.033   2.618 -0.3146 -0.3678  0.1132
  130OSM    H3F13941   5.251   4.116   2.587  0.3989 -0.1408  2.0927
  130OSM    H3G13942   5.253   3.946   2.630  1.4722  1.0968  0.9465
  130OSM    C4F13943   5.125   4.064   2.752  0.2199  1.1205  0.0520
  130OSM    H4F13944   5.046   3.986   2.758  3.0720 -2.1271 -0.9923
  130OSM    H4G13945   5.082   4.166   2.749  0.9933  1.4403 -1.3371
  130OSM    C5F13946   5.230   4.053   2.866  0.8253  0.7654 -0.3085
  130OSM    H5F13947   5.186   4.096   2.959 -0.7978 -0.7065 -0.3500
  130OSM    H5G13948   5.320   4.116   2.849  2.6161 -1.3298  0.8745
  130OSM    C6F13949   5.267   3.908   2.901 -0.2306  0.0875 -0.7917
  130OSM    H6F13950   5.349   3.869   2.837  0.6930  0.1645  0.3027
  130OSM    H6G13951   5.182   3.840   2.880 -0.5441 -0.0185  0.7165
  130OSM    C7F13952   5.301   3.898   3.045  0.1191  0.1145 -0.4747
  130OSM    H7F13953   5.222   3.958   3.094 -3.6383 -2.6332 -2.6514
  130OSM    H7G13954   5.400   3.936   3.077  1.5952 -1.5331 -2.7536
  130OSM    C8F13955   5.300   3.752   3.105  0.2894  0.7935 -0.2469
  130OSM    H8F13956   5.205   3.708   3.068  0.4698  0.2742 -0.0964
  130OSM    H8G13957   5.297   3.751   3.216  0.3858 -1.0464 -0.2460
  130OSM    C9F13958   5.417   3.666   3.058  0.7504  0.6722  0.4041
  130OSM    H9F13959   5.404   3.611   2.964  1.4782  0.3225  0.4998
  130OSM   C10F13960   5.536   3.653   3.119  0.7480  0.4419 -0.0818
  130OSM   H10F13961   5.613   3.594   3.067 -0.8280 -0.6994 -1.2249
  130OSM   C11F13962   5.580   3.725   3.244  0.0572 -0.2577 -0.5742
  130OSM   H11F13963   5.500   3.766   3.309 -1.1306 -1.1995 -1.4050
  130OSM   H11G13964   5.657   3.803   3.229  1.1672 -0.8177  1.6775
  130OSM   C12F13965   5.651   3.620   3.332 -0.0601 -0.4697  0.8137
  130OSM   H12F13966   5.753   3.589   3.300  0.6191  1.7563  0.6255
  130OSM   H12G13967   5.593   3.528   3.353 -2.2460  0.7441  0.3293
  130OSM   C13F13968   5.677   3.679   3.474 -0.5276 -0.3005 -1.2362
  130OSM   H13F13969   5.587   3.705   3.533 -0.0575  1.7409 -1.3493
  130OSM   H13G13970   5.728   3.777   3.460  0.4540 -0.3528  1.4415
  130OSM   C14F13971   5.769   3.590   3.561 -0.9172  0.4625 -0.1298
  130OSM   H14F13972   5.800   3.652   3.648  1.7108 -0.8769 -0.0084
  130OSM   H14G13973   5.861   3.549   3.514 -1.4453  0.1052 -0.8708
  130OSM   C15F13974   5.701   3.456   3.605 -0.3928  0.4402 -0.0931
  130OSM   H15F13975   5.712   3.380   3.524  1.3435  1.0636 -0.4621
  130OSM   H15G13976   5.599   3.493   3.628  0.2954  0.9134  2.4512
  130OSM   C16F13977   5.781   3.384   3.714  0.0920  0.1574 -0.5413
  130OSM   H16F13978   5.809   3.460   3.791 -0.3529  1.3024 -1.4853
  130OSM   H16G13979   5.880   3.343   3.684 -0.2741 -0.9400 -0.3103
  130OSM   C17F13980   5.698   3.277   3.788  0.4383  0.4555 -0.8111
  130OSM   H17F13981   5.603   3.329   3.810  0.1901 -0.0136 -0.7691
  130OSM   H17G13982   5.758   3.269   3.881  0.9187  1.0011 -1.0692
  130OSM   C18F13983   5.666   3.156   3.708  0.0260 -0.5748  0.9277
  130OSM   H18F13984   5.636   3.185   3.605 -0.0930 -1.9340  0.5629
  130OSM   H18G13985   5.579   3.099   3.747 -0.0827  0.2998  2.0086
  130OSM   H18H13986   5.754   3.088   3.696 -0.4784 -0.8456 -2.2431
  131OSM      N13987   1.818   2.231   2.523 -0.1055 -0.0704  0.2415
  131OSM    C1513988   1.867   2.367   2.555 -0.3556 -0.8525 -0.3959
  131OSM   H15A13989   1.789   2.437   2.528 -0.9215 -0.7483  1.3559
  131OSM   H15B13990   1.964   2.398   2.521 -0.0490 -0.2354  0.9892
  131OSM   H15C13991   1.883   2.377   2.661  2.0103  0.8216 -0.8488
  131OSM    C1413992   1.677   2.212   2.579 -0.0763 -0.0006  0.1267
  131OSM   H14A13993   1.635   2.128   2.526 -0.1469 -0.6247  1.1567
  131OSM   H14B13994   1.607   2.291   2.557  0.9807  0.4809 -1.8141
  131OSM   H14C13995   1.666   2.201   2.686  0.5967  0.4624  0.2551
  131OSM    C1313996   1.804   2.220   2.377 -0.2834  0.0332  0.0689
  131OSM   H13A13997   1.761   2.125   2.347  0.0776  0.0137 -0.3900
  131OSM   H13B13998   1.904   2.210   2.337 -0.6373 -0.4780 -0.7070
  131OSM   H13C13999   1.742   2.296   2.332  0.5313  0.0885 -0.9997
  131OSM    C1214000   1.918   2.129   2.582  0.9119 -0.3293  0.0806
  131OSM   H12A14001   1.893   2.032   2.542  0.0237  0.1274 -0.5040
  131OSM   H12B14002   1.892   2.116   2.686 -0.1802  1.4603  0.0742
  131OSM    C1114003   2.071   2.139   2.567  1.0735  0.3250  0.2802
  131OSM   H11A14004   2.102   2.040   2.607 -0.1356 -0.5554 -0.8449
  131OSM   H11B14005   2.118   2.217   2.629 -0.2511  0.3839  1.2527
  131OSM      P14006   2.250   2.203   2.388  0.6660 -0.2572 -0.0160
  131OSM    O1314007   2.288   2.147   2.260  0.0129  0.3712 -0.0929
  131OSM    O1414008   2.250   2.349   2.392 -0.3789 -0.5176  0.3533
  131OSM    O1114009   2.358   2.139   2.489  0.2101 -0.2417 -0.2144
  131OSM    O1214010   2.107   2.154   2.425 -0.3070 -0.3855 -0.0999
  131OSM    C1S14011   2.411   2.204   2.602 -0.9846  0.8178  0.2374
  131OSM    H1S14012   2.332   2.269   2.647 -1.3874  0.4659  0.0497
  131OSM    H1T14013   2.498   2.265   2.570  0.3587 -0.4859  1.2704
  131OSM     NF14014   2.499   2.181   2.833 -0.1807  0.7609  0.5743
  131OSM    HNF14015   2.597   2.187   2.852 -0.2665  0.8918  0.9830
  131OSM    C2S14016   2.460   2.107   2.712 -0.6460  0.1040  0.0012
  131OSM    H2S14017   2.383   2.036   2.749  0.9318 -2.2041 -0.9463
  131OSM    C3S14018   2.578   2.021   2.679 -0.6316  0.8048  0.0708
  131OSM    H3S14019   2.662   2.086   2.646 -0.2363  0.8946  1.1974
  131OSM     O314020   2.557   1.951   2.560  0.7445 -0.1691  0.0262
  131OSM    HO314021   2.506   2.014   2.508  0.0475 -1.0264 -0.3481
  131OSM    C4S14022   2.623   1.918   2.784  0.2599 -0.1606 -0.6685
  131OSM    H4S14023   2.549   1.838   2.801  0.3247 -0.0088  0.3596
  131OSM    C5S14024   2.740   1.919   2.856  0.1512  0.3915  0.6107
  131OSM    H5S14025   2.803   2.006   2.832  0.9973 -0.0294  1.2776
  131OSM    C6S14026   2.792   1.816   2.951  0.5466  0.0498 -0.1257
  131OSM    H6S14027   2.896   1.784   2.929  0.6440  1.4111 -1.8386
  131OSM    H6T14028   2.731   1.723   2.954  1.1709 -0.3563  0.3333
  131OSM    C7S14029   2.779   1.875   3.089 -0.3020 -0.4529  0.4908
  131OSM    H7S14030   2.677   1.915   3.108  0.8170  2.4443  0.8848
  131OSM    H7T14031   2.835   1.971   3.083  2.9216 -2.1642  1.0349
  131OSM    C8S14032   2.846   1.794   3.203 -0.2526 -0.0428  0.0335
  131OSM    H8S14033   2.925   1.727   3.162 -0.1218 -1.1111  1.9495
  131OSM    H8T14034   2.770   1.721   3.238 -1.1154 -0.4792 -2.5385
  131OSM    C9S14035   2.904   1.878   3.318 -0.3059  0.0840  0.6423
  131OSM    H9S14036   2.834   1.963   3.334 -0.0821  0.2062  0.9942
  131OSM    H9T14037   2.989   1.933   3.271  0.0233 -1.3220 -0.4732
  131OSM   C10S14038   2.936   1.794   3.440 -0.5850  0.1474  0.3908
  131OSM   H10S14039   3.018   1.723   3.413 -0.7196 -0.0934  0.6044
  131OSM   H10T14040   2.858   1.722   3.473  1.4984 -0.6655  4.1158
  131OSM   C11S14041   2.972   1.884   3.561 -0.2277  0.3488 -0.5984
  131OSM   H11S14042   2.884   1.950   3.573  1.5209  2.4547  1.8445
  131OSM   H11T14043   3.067   1.940   3.550 -0.4312  0.4907 -1.7728
  131OSM   C12S14044   2.964   1.813   3.694  0.4207  0.0388 -0.5321
  131OSM   H12S14045   3.044   1.736   3.692 -0.4660 -1.1121  2.7638
  131OSM   H12T14046   2.861   1.771   3.700 -0.3329  1.9557  1.1676
  131OSM   C13S14047   3.002   1.897   3.815 -0.2608  0.3471 -1.1970
  131OSM   H13S14048   2.938   1.987   3.809  0.0034  0.6003 -0.3114
  131OSM   H13T14049   3.107   1.930   3.802 -0.1689  1.2710  1.3810
  131OSM   C14S14050   2.994   1.813   3.949 -0.0949  0.5694  0.7766
  131OSM   H14S14051   3.067   1.730   3.940  0.5983  1.2921 -0.5512
  131OSM   H14T14052   2.892   1.768   3.953 -0.6776  1.7921  0.1291
  131OSM   C15S14053   3.002   1.891   4.071  0.0663 -0.6481  0.1131
  131OSM   H15S14054   2.917   1.962   4.065 -0.5924 -1.5205 -1.5005
  131OSM   H15T14055   3.093   1.955   4.076 -1.1296  1.0021  2.5076
  131OSM   C16S14056   2.993   1.796   4.191 -0.0018  0.5062 -0.0251
  131OSM   H16S14057   3.074   1.720   4.195  0.5984  1.0955 -0.8439
  131OSM   H16T14058   2.893   1.747   4.188 -0.4652  1.4881 -1.4225
  131OSM   C17S14059   3.023   1.888   4.311 -0.3075 -0.2531  0.1893
  131OSM   H17S14060   2.938   1.959   4.308  0.7161  0.9613 -0.8657
  131OSM   H17T14061   3.107   1.957   4.293 -1.1834  1.2615  1.6312
  131OSM   C18S14062   3.029   1.818   4.446  0.3118  0.0330 -0.2857
  131OSM   H18S14063   3.077   1.718   4.442  0.2510 -0.0461  0.6743
  131OSM   H18T14064   2.925   1.811   4.484 -0.2709  0.0049 -1.8328
  131OSM   H18U14065   3.080   1.882   4.522 -1.2269  0.9160  0.0443
  131OSM    C1F14066   2.414   2.249   2.909  0.2055  0.2880  0.1672
  131OSM     OF14067   2.290   2.238   2.889  0.0344  0.5765  0.2798
  131OSM    C2F14068   2.471   2.336   3.018 -0.5375 -0.1600  0.0718
  131OSM    H2F14069   2.533   2.418   2.977  0.9072 -1.4283 -0.3910
  131OSM    H2G14070   2.551   2.275   3.065 -0.6501 -0.0883  0.3584
  131OSM    C3F14071   2.366   2.385   3.123 -0.1795  0.3921  0.0561
  131OSM    H3F14072   2.295   2.305   3.151 -0.7699  0.9755  0.2331
  131OSM    H3G14073   2.310   2.465   3.070  1.8981  1.8013 -0.1628
  131OSM    C4F14074   2.436   2.441   3.248  0.6316 -0.6048 -0.3969
  131OSM    H4F14075   2.362   2.508   3.296  0.7409  0.7745 -2.0623
  131OSM    H4G14076   2.518   2.508   3.215 -0.5509  0.4755 -1.2539
  131OSM    C5F14077   2.476   2.332   3.349 -0.0716  0.3107  0.0457
  131OSM    H5F14078   2.540   2.257   3.296  2.1016  0.6143  2.0947
  131OSM    H5G14079   2.385   2.280   3.386 -0.4707  0.5794 -0.5330
  131OSM    C6F14080   2.546   2.389   3.468 -0.0710 -0.4167 -0.1046
  131OSM    H6F14081   2.471   2.447   3.526 -1.0245 -0.7859 -0.9366
  131OSM    H6G14082   2.610   2.469   3.425 -1.0290  0.7037  0.4748
  131OSM    C7F14083   2.597   2.288   3.572  0.0092  0.1231  0.2477
  131OSM    H7F14084   2.663   2.218   3.517  1.6059 -1.2557  3.6707
  131OSM    H7G14085   2.516   2.224   3.614  0.1611  0.4605  1.0618
  131OSM    C8F14086   2.686   2.345   3.684 -0.4244 -0.4342 -0.5057
  131OSM    H8F14087   2.627   2.422   3.737 -0.4291  0.2619 -1.5178
  131OSM    H8G14088   2.776   2.405   3.658 -0.2467  1.1016  2.9950
  131OSM    C9F14089   2.728   2.225   3.769  0.2594 -0.3922  0.5950
  131OSM    H9F14090   2.777   2.144   3.713 -0.0275 -0.1895  0.0328
  131OSM   C10F14091   2.693   2.216   3.897 -0.1159  0.2554 -0.3494
  131OSM   H10F14092   2.719   2.126   3.954 -0.9209  0.9047  1.0953
  131OSM   C11F14093   2.617   2.314   3.980  0.2977  0.4323  0.4515
  131OSM   H11F14094   2.547   2.249   4.036  1.2316  0.2689  1.4801
  131OSM   H11G14095   2.557   2.387   3.922  1.1428  1.9859  1.4648
  131OSM   C12F14096   2.702   2.393   4.083  0.1137 -0.1957  0.3547
  131OSM   H12F14097   2.662   2.492   4.116 -0.2707 -0.8056  1.8020
  131OSM   H12G14098   2.789   2.413   4.017 -1.2527 -0.7741 -1.6968
  131OSM   C13F14099   2.743   2.303   4.195 -0.0949  0.8628 -0.1063
  131OSM   H13F14100   2.807   2.224   4.151 -0.1808  0.8091 -0.1343
  131OSM   H13G14101   2.644   2.263   4.225  0.5639 -0.2001  0.6774
  131OSM   C14F14102   2.815   2.366   4.316 -0.4330  0.0834  0.2266
  131OSM   H14F14103   2.759   2.458   4.345  0.8950  0.9430  0.1486
  131OSM   H14G14104   2.915   2.399   4.284 -0.7932 -0.8358 -1.9863
  131OSM   C15F14105   2.827   2.282   4.441 -0.6303 -0.3771 -0.0755
  131OSM   H15F14106   2.904   2.323   4.509 -0.3184 -0.2024 -0.5293
  131OSM   H15G14107   2.871   2.186   4.404 -3.2576 -0.7839 -2.5085
  131OSM   C16F14108   2.694   2.240   4.500  0.3076 -0.9814  0.3475
  131OSM   H16F14109   2.720   2.170   4.582  0.3998 -1.0600  0.2516
  131OSM   H16G14110   2.629   2.189   4.425  2.8456  0.3590 -3.0686
  131OSM   C17F14111   2.616   2.362   4.560 -0.2867  0.9701  0.0498
  131OSM   H17F14112   2.528   2.308   4.600 -1.3888  1.4470 -1.6213
  131OSM   H17G14113   2.587   2.428   4.475 -0.1142  3.7239  1.9834
  131OSM   C18F14114   2.688   2.453   4.664  0.4321  0.5031  0.2293
  131OSM   H18F14115   2.704   2.404   4.762 -1.6131  2.7463  1.8300
  131OSM   H18G14116   2.619   2.536   4.692 -0.4659  0.7003 -2.3576
  131OSM   H18H14117   2.783   2.498   4.629  0.7669  2.5030  3.3047
  132OSM      N14118   3.911   3.480   2.264  0.4631  0.2766  0.7308
  132OSM    C1514119   4.048   3.476   2.320  0.2215 -0.5858  0.2167
  132OSM   H15A14120   4.089   3.574   2.339 -1.2694  0.1637 -0.2717
  132OSM   H15B14121   4.112   3.412   2.262  1.1611 -0.3378  0.9597
  132OSM   H15C14122   4.044   3.426   2.416 -1.1631 -0.5157  0.2160
  132OSM    C1414123   3.906   3.561   2.133  0.6023  0.5858 -0.0920
  132OSM   H14A14124   3.921   3.665   2.159  0.5414  1.3679 -2.8866
  132OSM   H14B14125   3.810   3.543   2.087  1.7113 -3.9023 -1.1909
  132OSM   H14C14126   3.987   3.529   2.069 -0.5939 -2.3141 -0.2996
  132OSM    C1314127   3.872   3.335   2.234  0.8883  0.7009 -0.3431
  132OSM   H13A14128   3.937   3.288   2.161 -0.2433 -0.0864 -0.8765
  132OSM   H13B14129   3.769   3.320   2.206  1.1052 -0.8511 -0.4071
  132OSM   H13C14130   3.866   3.287   2.331 -0.6827 -1.6833 -1.5057
  132OSM    C1214131   3.818   3.558   2.358  0.4615  0.5701 -0.0612
  132OSM   H12A14132   3.728   3.578   2.303  0.4846 -1.5574 -0.9749
  132OSM   H12B14133   3.864   3.654   2.381 -0.6483  1.1101 -0.0239
  132OSM    C1114134   3.781   3.488   2.491  0.2672  0.6166  0.0567
  132OSM   H11A14135   3.723   3.554   2.559 -0.4431  1.9636 -1.7969
  132OSM   H11B14136   3.874   3.469   2.549  1.2481  1.6618 -1.1519
  132OSM      P14137   3.573   3.354   2.418 -0.3889 -0.4465 -0.0427
  132OSM    O1314138   3.550   3.418   2.286 -0.2267 -0.8641  0.2899
  132OSM    O1414139   3.526   3.215   2.433 -0.0011 -0.0204  0.2178
  132OSM    O1114140   3.493   3.446   2.525  0.3132  0.2316 -0.1846
  132OSM    O1214141   3.722   3.362   2.463  0.0469 -0.4921  0.1233
  132OSM    C1S14142   3.468   3.387   2.649  0.3056 -0.6450 -0.3006
  132OSM    H1S14143   3.556   3.413   2.711 -0.5601  0.1078  0.6465
  132OSM    H1T14144   3.451   3.277   2.654 -1.2383 -0.3715  1.8487
  132OSM     NF14145   3.345   3.410   2.863 -0.8043  0.2033  0.1474
  132OSM    HNF14146   3.285   3.342   2.903  0.3263 -1.1201 -0.3199
  132OSM    C2S14147   3.338   3.442   2.721 -0.4482  0.0488  0.2112
  132OSM    H2S14148   3.344   3.553   2.717  0.4680  0.0297  0.7623
  132OSM    C3S14149   3.204   3.407   2.654  0.5075  0.1185  0.1655
  132OSM    H3S14150   3.175   3.303   2.682  0.8475 -0.3299 -1.0974
  132OSM     O314151   3.204   3.402   2.510 -0.0682  0.2513 -0.3306
  132OSM    HO314152   3.298   3.392   2.495  0.1276 -1.8902  1.9158
  132OSM    C4S14153   3.101   3.494   2.708 -0.0598  0.2058 -1.0225
  132OSM    H4S14154   3.093   3.598   2.671  1.1530  0.9206  0.5795
  132OSM    C5S14155   3.025   3.467   2.813  0.1684  0.3938  0.4807
  132OSM    H5S14156   3.020   3.364   2.850 -0.9873  0.0226 -0.6326
  132OSM    C6S14157   2.923   3.561   2.880  0.3039 -0.4864  0.5617
  132OSM    H6S14158   2.823   3.513   2.889 -0.3690  0.5884 -0.7225
  132OSM    H6T14159   2.903   3.647   2.812  0.7113  0.6454  1.8253
  132OSM    C7S14160   2.957   3.607   3.025  0.2412  0.0223 -0.2099
  132OSM    H7S14161   2.877   3.678   3.054 -1.4429 -1.5368 -0.8395
  132OSM    H7T14162   3.051   3.666   3.033 -0.5157  1.0439  2.0313
  132OSM    C8S14163   2.958   3.503   3.138  0.8626  0.7391 -0.0999
  132OSM    H8S14164   3.045   3.434   3.139 -0.4288 -0.9391  0.2056
  132OSM    H8T14165   2.862   3.448   3.130 -0.1051  2.3090  0.3362
  132OSM    C9S14166   2.975   3.552   3.279  0.5236 -0.0518 -0.3206
  132OSM    H9S14167   2.876   3.596   3.306  0.8475 -0.9707  2.7724
  132OSM    H9T14168   3.052   3.629   3.301 -0.1540 -0.2663  3.6936
  132OSM   C10S14169   3.005   3.449   3.385  0.5830  0.0465  0.2434
  132OSM   H10S14170   3.111   3.415   3.375  0.7558 -0.5836  3.1534
  132OSM   H10T14171   2.922   3.376   3.373 -0.6223  1.4407 -0.0303
  132OSM   C11S14172   2.985   3.509   3.525  1.0259 -0.9046  0.4887
  132OSM   H11S14173   2.878   3.536   3.531  1.2484 -0.1867  1.4849
  132OSM   H11T14174   3.050   3.600   3.526  2.1305 -1.6408 -0.5304
  132OSM   C12S14175   3.025   3.423   3.643 -0.7299  0.7601 -0.6033
  132OSM   H12S14176   3.135   3.407   3.633 -0.7036 -0.0310  0.6864
  132OSM   H12T14177   2.976   3.323   3.636 -0.0220  0.1513  2.1262
  132OSM   C13S14178   2.973   3.487   3.771 -0.0977 -0.8257  0.0292
  132OSM   H13S14179   2.862   3.482   3.763  0.0364 -0.2960 -3.5184
  132OSM   H13T14180   2.999   3.595   3.766  0.3361 -0.9404 -0.2174
  132OSM   C14S14181   3.009   3.419   3.897 -0.0831  0.8301  0.1139
  132OSM   H14S14182   3.118   3.427   3.914 -0.1387 -1.4363  2.0233
  132OSM   H14T14183   2.991   3.309   3.889  0.0032  0.7127  1.3857
  132OSM   C15S14184   2.948   3.470   4.026  1.1291 -0.0790 -0.8097
  132OSM   H15S14185   2.840   3.484   4.009  1.3995  0.4387 -2.2452
  132OSM   H15T14186   2.994   3.571   4.039  2.7510 -0.7834 -0.8714
  132OSM   C16S14187   2.977   3.396   4.150 -0.1475 -0.3214  0.6734
  132OSM   H16S14188   2.998   3.464   4.236  1.9080  1.6852 -1.2778
  132OSM   H16T14189   3.076   3.349   4.134 -0.1774 -0.2469  0.2466
  132OSM   C17S14190   2.885   3.283   4.186  0.2029  0.5061 -0.0405
  132OSM   H17S14191   2.903   3.205   4.109 -0.5710 -1.4447  1.6618
  132OSM   H17T14192   2.780   3.321   4.181  0.6540  1.6165 -2.7620
  132OSM   C18S14193   2.904   3.226   4.329  0.1809  0.2295  0.0251
  132OSM   H18S14194   2.853   3.129   4.345  0.2046  0.3056  0.6080
  132OSM   H18T14195   2.876   3.307   4.400  1.0393  0.7606 -0.2268
  132OSM   H18U14196   3.007   3.187   4.341 -0.6569 -1.8565  0.9542
  132OSM    C1F14197   3.449   3.449   2.945  0.0692  0.5284 -0.6459
  132OSM     OF14198   3.522   3.544   2.919  0.3888 -0.7206 -0.6392
  132OSM    C2F14199   3.458   3.376   3.076  0.4781  0.7775  0.0639
  132OSM    H2F14200   3.542   3.303   3.075  0.0178  0.1929  1.3807
  132OSM    H2G14201   3.368   3.311   3.086 -0.8753  2.4016 -1.2042
  132OSM    C3F14202   3.469   3.471   3.194 -0.4646 -0.1907  0.5189
  132OSM    H3F14203   3.396   3.554   3.181  0.9570  1.1108  0.6054
  132OSM    H3G14204   3.569   3.518   3.199 -0.1169 -0.7797 -0.6059
  132OSM    C4F14205   3.434   3.401   3.324 -0.8915 -0.6732 -0.6391
  132OSM    H4F14206   3.513   3.335   3.364 -1.1040 -0.7983 -0.4256
  132OSM    H4G14207   3.349   3.332   3.306 -0.9845 -0.7022 -0.1066
  132OSM    C5F14208   3.414   3.504   3.443 -0.1610  0.7097 -0.3295
  132OSM    H5F14209   3.314   3.547   3.420  0.2508  1.8015 -0.1403
  132OSM    H5G14210   3.494   3.581   3.448  0.5968 -0.1397  1.7166
  132OSM    C6F14211   3.428   3.426   3.578  0.4779 -0.0544 -0.6034
  132OSM    H6F14212   3.534   3.393   3.578  0.1937 -1.0346  0.5788
  132OSM    H6G14213   3.355   3.342   3.584 -0.6759  0.9971  0.4126
  132OSM    C7F14214   3.401   3.508   3.707 -0.8350  0.1155 -0.1194
  132OSM    H7F14215   3.294   3.538   3.710 -1.1020 -0.8097  0.1068
  132OSM    H7G14216   3.456   3.604   3.705 -0.6528  0.0303  0.6621
  132OSM    C8F14217   3.438   3.423   3.831 -0.1082 -0.4240  0.0817
  132OSM    H8F14218   3.544   3.395   3.812  0.1978  1.6124 -1.6716
  132OSM    H8G14219   3.386   3.325   3.821  0.8161 -1.0812  1.3677
  132OSM    C9F14220   3.397   3.481   3.962 -0.1525 -0.5641 -0.1563
  132OSM    H9F14221   3.353   3.581   3.961 -0.3243 -0.6252  0.4722
  132OSM   C10F14222   3.425   3.415   4.083 -0.1842 -0.5037  0.1207
  132OSM   H10F14223   3.394   3.465   4.176  0.4018  0.9076 -0.4117
  132OSM   C11F14224   3.500   3.285   4.097 -0.1049  0.2487  0.5242
  132OSM   H11F14225   3.538   3.254   3.998 -0.5433  3.7032 -0.8786
  132OSM   H11G14226   3.430   3.210   4.138 -0.6520  0.5145  0.0795
  132OSM   C12F14227   3.609   3.308   4.206  0.3660  0.1671 -0.5440
  132OSM   H12F14228   3.652   3.409   4.193  1.5101 -0.0090  1.4488
  132OSM   H12G14229   3.687   3.229   4.199  0.7184  0.2218  1.8765
  132OSM   C13F14230   3.558   3.288   4.352  0.5239 -0.6417  0.5488
  132OSM   H13F14231   3.460   3.338   4.365  0.9964  0.3538  0.3905
  132OSM   H13G14232   3.629   3.332   4.426  1.1154  0.6389 -0.7364
  132OSM   C14F14233   3.509   3.148   4.388 -0.6619  0.4564 -0.1379
  132OSM   H14F14234   3.596   3.084   4.365 -1.5163 -0.2906 -1.4140
  132OSM   H14G14235   3.430   3.120   4.315 -0.7129  0.4818 -0.0933
  132OSM   C15F14236   3.460   3.133   4.536 -0.4240 -0.4569  0.3485
  132OSM   H15F14237   3.400   3.040   4.546  1.6951 -1.8686  0.5242
  132OSM   H15G14238   3.396   3.221   4.559  1.6884  1.3125 -0.3062
  132OSM   C16F14239   3.574   3.129   4.642 -0.6503 -0.0928 -1.1293
  132OSM   H16F14240   3.645   3.211   4.619 -1.4016  1.5238  1.7506
  132OSM   H16G14241   3.630   3.033   4.648 -1.2948 -0.3931  1.2278
  132OSM   C17F14242   3.516   3.138   4.785  0.4784 -0.0527  0.9504
  132OSM   H17F14243   3.480   3.040   4.823  0.7069 -0.3642  0.3783
  132OSM   H17G14244   3.439   3.217   4.784  2.1187  1.6104  1.1911
  132OSM   C18F14245   3.628   3.180   4.886 -0.9061  0.0975 -0.1688
  132OSM   H18F14246   3.700   3.097   4.903 -0.4104  0.3116 -1.1829
  132OSM   H18G14247   3.588   3.215   4.984 -1.7294 -1.2869  0.0125
  132OSM   H18H14248   3.692   3.252   4.831 -2.4647  0.9651 -0.9383
  133OSM      N14249   0.084   1.228   2.120 -0.3119 -0.0647 -0.5996
  133OSM    C1514250   0.176   1.215   2.001  0.3422  0.7264 -0.8501
  133OSM   H15A14251   0.266   1.272   2.018  0.8942 -0.1154 -0.8342
  133OSM   H15B14252   0.128   1.253   1.912 -0.6948  1.6279  0.0688
  133OSM   H15C14253   0.213   1.114   1.985  0.1011  0.3424  0.7781
  133OSM    C1414254   0.164   1.194   2.244  0.0642 -0.3824 -0.2749
  133OSM   H14A14255   0.247   1.263   2.246  1.2169 -1.6869 -0.9076
  133OSM   H14B14256   0.210   1.096   2.250  0.8404  0.0590  2.2817
  133OSM   H14C14257   0.102   1.200   2.332  0.0427 -1.9810 -0.1513
  133OSM    C1314258   0.050   1.372   2.132 -0.0335  0.1962 -0.3399
  133OSM   H13A14259  -0.013   1.391   2.218  2.2582 -0.2406  1.5382
  133OSM   H13B14260  -0.001   1.403   2.043 -2.3424 -2.4115 -0.0720
  133OSM   H13C14261   0.131   1.440   2.149 -0.9610  1.9615 -2.5269
  133OSM    C1214262  -0.043   1.153   2.110  0.0569  0.0849 -0.1354
  133OSM   H12A14263  -0.098   1.197   2.028  0.5761  1.1866  0.0859
  133OSM   H12B14264  -0.105   1.157   2.199 -0.2267  0.0201 -0.3299
  133OSM    C1114265  -0.015   0.996   2.103 -0.1023 -0.2554  0.6067
  133OSM   H11A14266   0.015   0.952   2.201  2.3235 -0.8495 -0.3232
  133OSM   H11B14267   0.066   0.973   2.030 -1.8339 -0.2054 -1.4474
  133OSM      P14268  -0.216   0.814   2.092  0.2536 -0.0647 -0.4690
  133OSM    O1314269  -0.352   0.831   2.041 -0.4424  0.1471 -0.1524
  133OSM    O1414270  -0.142   0.701   2.036 -0.2785 -0.4135  0.2722
  133OSM    O1114271  -0.214   0.815   2.252  0.2710  0.8596 -0.2149
  133OSM    O1214272  -0.138   0.946   2.064  0.2140 -0.1071 -0.6056
  133OSM    C1S14273  -0.272   0.925   2.323  0.3297  0.2651  0.0643
  133OSM    H1S14274  -0.382   0.924   2.306  0.1487  0.6130  1.1259
  133OSM    H1T14275  -0.248   1.022   2.276 -0.2709 -0.8247 -2.7346
  133OSM     NF14276  -0.279   1.044   2.542 -0.5081  0.0881 -0.4479
  133OSM    HNF14277  -0.209   1.115   2.552 -1.0795  0.4751  1.0458
  133OSM    C2S14278  -0.235   0.925   2.475  0.5136 -0.2575  0.7807
  133OSM    H2S14279  -0.296   0.847   2.525  0.0539 -1.0300 -0.9014
  133OSM    C3S14280  -0.083   0.893   2.498 -0.3498 -0.0606  1.0798
  133OSM    H3S14281  -0.022   0.962   2.437 -2.5069 -0.5114 -1.7815
  133OSM     O314282  -0.048   0.763   2.442 -1.1611  0.0338 -0.6909
  133OSM    HO314283  -0.118   0.748   2.379  0.6570 -1.8247 -2.4254
  133OSM    C4S14284  -0.051   0.902   2.642  0.2917  0.3487 -0.4177
  133OSM    H4S14285  -0.096   0.817   2.695  1.7642 -0.7088 -0.7902
  133OSM    C5S14286   0.029   0.990   2.704 -0.1757  0.1568 -0.3887
  133OSM    H5S14287   0.067   1.080   2.653 -1.5608  0.3471 -1.1151
  133OSM    C6S14288   0.066   0.989   2.857 -0.6960 -0.4642  0.8996
  133OSM    H6S14289   0.167   0.945   2.867 -0.8729 -1.3234 -0.6325
  133OSM    H6T14290   0.000   0.926   2.921 -2.3290  1.0992  0.8480
  133OSM    C7S14291   0.063   1.134   2.896 -0.5699 -0.6037  0.0901
  133OSM    H7S14292  -0.027   1.179   2.849  0.0152  0.3303 -0.1595
  133OSM    H7T14293   0.161   1.177   2.867 -0.2567 -0.7765  0.8659
  133OSM    C8S14294   0.045   1.155   3.051 -0.2810 -0.0104 -0.3052
  133OSM    H8S14295  -0.060   1.180   3.074 -0.4054 -1.8013  1.2990
  133OSM    H8T14296   0.117   1.236   3.077  0.5192 -0.7346 -0.1892
  133OSM    C9S14297   0.076   1.042   3.148 -0.5505  0.1789  0.3842
  133OSM    H9S14298   0.180   1.011   3.123 -0.7054 -1.0522  1.1540
  133OSM    H9T14299   0.005   0.958   3.129 -0.8237  0.1178  1.6211
  133OSM   C10S14300   0.069   1.084   3.290  0.4462  0.1931  0.1163
  133OSM   H10S14301  -0.027   1.122   3.330 -0.3967 -1.9235  0.2242
  133OSM   H10T14302   0.155   1.154   3.300  0.8893 -0.1544 -1.1256
  133OSM   C11S14303   0.098   0.974   3.394 -0.5226  0.0948 -0.6392
  133OSM   H11S14304   0.190   0.917   3.370 -0.7485  0.2955 -2.0894
  133OSM   H11T14305   0.010   0.906   3.392 -0.4368 -0.0488  0.3147
  133OSM   C12S14306   0.097   1.032   3.542  0.4100 -0.5813  0.6881
  133OSM   H12S14307   0.006   1.093   3.558 -0.4576 -0.8286 -2.5100
  133OSM   H12T14308   0.179   1.106   3.555  1.8562 -1.3278 -2.9117
  133OSM   C13S14309   0.113   0.908   3.632  0.4360  0.4361 -0.4051
  133OSM   H13S14310   0.216   0.884   3.598  0.5387  1.2677 -0.7130
  133OSM   H13T14311   0.035   0.832   3.610  0.3417  0.2449  0.5339
  133OSM   C14S14312   0.101   0.944   3.776 -0.7741 -0.1244 -0.9526
  133OSM   H14S14313   0.002   0.988   3.797 -0.4586  0.1060  0.1378
  133OSM   H14T14314   0.175   1.019   3.812 -1.7185  0.4599 -0.1784
  133OSM   C15S14315   0.146   0.821   3.866 -0.0216 -0.8332 -0.6397
  133OSM   H15S14316   0.247   0.799   3.824  0.4900  0.3797 -0.0990
  133OSM   H15T14317   0.087   0.730   3.840 -1.6198 -0.1201  0.3428
  133OSM   C16S14318   0.158   0.834   4.016  0.6903 -0.8388 -0.2159
  133OSM   H16S14319   0.063   0.883   4.044  2.5375  1.1755  3.1422
  133OSM   H16T14320   0.227   0.915   4.050 -0.9590  0.3224  0.5102
  133OSM   C17S14321   0.188   0.712   4.105 -0.2484 -0.1811 -0.5061
  133OSM   H17S14322   0.283   0.665   4.074 -1.7165 -1.7399 -2.9253
  133OSM   H17T14323   0.113   0.634   4.083  0.6087 -0.9878 -0.6208
  133OSM   C18S14324   0.209   0.748   4.258 -0.3000  0.5950  0.5704
  133OSM   H18S14325   0.310   0.795   4.268  1.0999 -2.0259 -0.2149
  133OSM   H18T14326   0.226   0.652   4.312 -0.5014  0.0321 -0.3390
  133OSM   H18U14327   0.118   0.802   4.289 -0.7709  2.0209 -2.8273
  133OSM    C1F14328  -0.404   1.080   2.550  0.3803 -0.7040 -0.0253
  133OSM     OF14329  -0.498   1.007   2.504  0.3880  0.0368 -0.0489
  133OSM    C2F14330  -0.425   1.216   2.622 -0.0031  0.3698 -0.4558
  133OSM    H2F14331  -0.413   1.301   2.552 -1.3864 -0.7297 -2.1083
  133OSM    H2G14332  -0.347   1.234   2.699 -0.7661 -0.5761  0.5746
  133OSM    C3F14333  -0.565   1.218   2.682 -0.3123 -0.5441 -0.3182
  133OSM    H3F14334  -0.641   1.213   2.602  0.6175  1.9698 -1.4810
  133OSM    H3G14335  -0.572   1.316   2.735 -0.3064  0.0499 -1.3791
  133OSM    C4F14336  -0.601   1.117   2.794  0.4301 -0.4318  0.1568
  133OSM    H4F14337  -0.614   1.015   2.751 -2.1893  0.0579 -0.4509
  133OSM    H4G14338  -0.699   1.141   2.842 -0.5002  0.4581 -2.0190
  133OSM    C5F14339  -0.491   1.102   2.903  0.6604  0.0414 -0.1649
  133OSM    H5F14340  -0.461   1.205   2.934 -1.2211 -0.2261  2.9768
  133OSM    H5G14341  -0.403   1.056   2.854  0.8219 -0.8575  0.9250
  133OSM    C6F14342  -0.531   1.027   3.024 -1.1310  0.4361 -0.1306
  133OSM    H6F14343  -0.590   0.937   2.997 -1.3752  0.7397 -0.6246
  133OSM    H6G14344  -0.598   1.092   3.084  0.0392 -0.0676  1.8403
  133OSM    C7F14345  -0.409   0.990   3.116  0.3208 -0.3967  0.6248
  133OSM    H7F14346  -0.348   1.082   3.127  0.6995 -0.8818  2.9583
  133OSM    H7G14347  -0.343   0.914   3.069  0.7798  0.6680 -0.5048
  133OSM    C8F14348  -0.456   0.940   3.259  0.5390 -0.7409  1.1142
  133OSM    H8F14349  -0.514   0.848   3.237 -0.2489 -0.2106  0.9397
  133OSM    H8G14350  -0.526   1.021   3.289  1.0709 -0.3632  1.3608
  133OSM    C9F14351  -0.346   0.915   3.360  0.4774 -0.3697 -0.0271
  133OSM    H9F14352  -0.287   0.825   3.336  0.3018 -0.1008 -1.6042
  133OSM   C10F14353  -0.327   0.987   3.472  0.0569  0.7571 -0.6596
  133OSM   H10F14354  -0.237   0.963   3.531 -0.3422 -2.6865 -1.2527
  133OSM   C11F14355  -0.400   1.112   3.516 -0.0332 -1.4498  0.1568
  133OSM   H11F14356  -0.489   1.086   3.577 -0.6825  0.1451 -0.0463
  133OSM   H11G14357  -0.426   1.181   3.433  0.9193  0.0999  1.0705
  133OSM   C12F14358  -0.330   1.201   3.623 -0.0905  0.2628  0.6828
  133OSM   H12F14359  -0.392   1.292   3.639 -1.8398 -0.3024 -2.2107
  133OSM   H12G14360  -0.227   1.233   3.593 -0.0520  0.6507  1.2219
  133OSM   C13F14361  -0.320   1.129   3.753  0.2757  0.5094  0.2973
  133OSM   H13F14362  -0.282   1.025   3.745 -0.8982 -0.0245  1.3107
  133OSM   H13G14363  -0.420   1.121   3.800 -0.6606 -0.7182 -1.7531
  133OSM   C14F14364  -0.217   1.202   3.846  0.8798  0.1067 -0.9958
  133OSM   H14F14365  -0.254   1.306   3.856 -1.0976 -0.6660  0.8582
  133OSM   H14G14366  -0.116   1.216   3.803  1.6875 -0.1220  0.7113
  133OSM   C15F14367  -0.193   1.130   3.977 -0.4876  0.0005 -0.7522
  133OSM   H15F14368  -0.159   1.025   3.960  2.6981  0.6291  0.9826
  133OSM   H15G14369  -0.278   1.118   4.046 -1.5269 -0.2851 -2.0310
  133OSM   C16F14370  -0.079   1.205   4.052 -0.0766 -0.5940  0.0603
  133OSM   H16F14371  -0.002   1.202   3.972 -1.4210 -0.7652 -1.2696
  133OSM   H16G14372  -0.048   1.149   4.142 -0.1966 -1.1606 -0.2409
  133OSM   C17F14373  -0.103   1.352   4.090 -0.3418  0.1987 -0.1766
  133OSM   H17F14374  -0.183   1.361   4.166  0.2288 -0.0991  0.4585
  133OSM   H17G14375  -0.143   1.399   3.997 -1.5745  0.5690  0.5132
  133OSM   C18F14376   0.022   1.428   4.134  0.6718 -0.2739  0.0278
  133OSM   H18F14377   0.046   1.395   4.237 -2.0049  0.2472  0.9049
  133OSM   H18G14378   0.007   1.538   4.128  3.9816  0.2210 -1.1152
  133OSM   H18H14379   0.106   1.419   4.062 -3.2656  1.6705 -5.5793
  134OSM      N14380   0.060   5.721   2.151 -0.3249 -0.0841  0.4598
  134OSM    C1514381   0.175   5.797   2.083  0.3834  1.3961 -0.1713
  134OSM   H15A14382   0.162   5.790   1.976 -0.5001  2.0099 -0.1194
  134OSM   H15B14383   0.275   5.760   2.099 -0.4798 -1.0047  0.1094
  134OSM   H15C14384   0.180   5.902   2.110  3.0798  1.3171 -0.1342
  134OSM    C1414385  -0.061   5.798   2.129  0.4658  0.0467  0.1126
  134OSM   H14A14386  -0.066   5.834   2.027  0.1267  2.3713  0.8864
  134OSM   H14B14387  -0.062   5.881   2.198  1.0336 -0.5544  0.8653
  134OSM   H14C14388  -0.151   5.745   2.158  1.6555 -1.9259  0.3899
  134OSM    C1314389   0.050   5.579   2.094 -0.3130  0.1212  0.4571
  134OSM   H13A14390   0.032   5.578   1.988  0.7548  1.3016  0.2507
  134OSM   H13B14391  -0.024   5.517   2.145 -0.3219 -0.6860 -0.5052
  134OSM   H13C14392   0.147   5.532   2.099 -0.8085 -1.3817 -2.1057
  134OSM    C1214393   0.102   5.705   2.297 -0.0943 -0.3616 -0.7186
  134OSM   H12A14394   0.194   5.647   2.299  1.6896  2.2847 -0.3048
  134OSM   H12B14395   0.025   5.648   2.347 -0.9944  1.8558  0.5673
  134OSM    C1114396   0.124   5.824   2.388  0.2906 -0.0158  0.1728
  134OSM   H11A14397   0.105   5.814   2.497 -1.4869  1.7995  0.0924
  134OSM   H11B14398   0.043   5.893   2.354 -0.7353 -0.4893  1.5711
  134OSM      P14399   0.285   6.027   2.351 -0.1201 -0.0739  0.6043
  134OSM    O1314400   0.434   6.051   2.343 -0.0343 -0.0960  0.3647
  134OSM    O1414401   0.199   6.085   2.247 -0.6716 -0.0102  0.1840
  134OSM    O1114402   0.235   6.081   2.491 -0.0159  0.8475  0.7625
  134OSM    O1214403   0.262   5.869   2.365 -0.1055 -0.2618  0.5450
  134OSM    C1S14404   0.318   6.043   2.608 -0.1355  0.1679  0.0878
  134OSM    H1S14405   0.427   6.053   2.588  0.0184 -1.3785  0.0374
  134OSM    H1T14406   0.306   5.938   2.641  1.2948  0.4075  1.5161
  134OSM     NF14407   0.391   6.124   2.835 -0.3176 -0.2025  1.0071
  134OSM    HNF14408   0.376   6.067   2.914  0.3672 -1.1880  0.4492
  134OSM    C2S14409   0.287   6.141   2.728  0.1172 -0.2886  0.1162
  134OSM    H2S14410   0.296   6.244   2.686  0.4990 -0.8430 -1.2362
  134OSM    C3S14411   0.138   6.131   2.764  0.4884  0.1427  0.4020
  134OSM    H3S14412   0.116   6.027   2.795  0.6721  0.4669  1.6620
  134OSM     O314413   0.049   6.159   2.657 -0.1261  0.0801 -0.1384
  134OSM    HO314414   0.102   6.145   2.577  0.6944  0.1650  0.3743
  134OSM    C4S14415   0.119   6.219   2.877  0.2527 -0.5796  0.4003
  134OSM    H4S14416   0.146   6.323   2.854  1.5262 -0.6488  1.4761
  134OSM    C5S14417   0.066   6.187   2.995 -0.2193  0.4177  0.7650
  134OSM    H5S14418   0.040   6.083   3.016  0.4695  0.6635  3.1181
  134OSM    C6S14419   0.042   6.287   3.106 -0.2166  0.3547 -0.1837
  134OSM    H6S14420  -0.058   6.331   3.089 -1.0212 -1.3512 -0.0273
  134OSM    H6T14421   0.114   6.370   3.093 -0.4647  0.5654 -0.2137
  134OSM    C7S14422   0.053   6.228   3.253 -0.0965 -0.4070  0.2893
  134OSM    H7S14423  -0.020   6.146   3.271  0.1688 -0.3909  1.4869
  134OSM    H7T14424   0.007   6.307   3.316 -1.8854  1.1350 -2.6901
  134OSM    C8S14425   0.187   6.179   3.277  0.3167  0.3909 -1.0969
  134OSM    H8S14426   0.265   6.254   3.249  0.8035  1.3444  2.3636
  134OSM    H8T14427   0.212   6.081   3.231  0.4491 -0.5762  0.9434
  134OSM    C9S14428   0.224   6.140   3.423  0.0776  0.6506  0.2109
  134OSM    H9S14429   0.199   6.221   3.494 -0.3063  0.2743  0.5087
  134OSM    H9T14430   0.333   6.119   3.425  0.1172  0.3524 -2.1470
  134OSM   C10S14431   0.145   6.026   3.479  0.2708  0.6317 -0.1912
  134OSM   H10S14432   0.155   5.932   3.420  0.3543 -0.2796  1.2154
  134OSM   H10T14433   0.037   6.050   3.484 -0.1153 -0.7227 -1.4592
  134OSM   C11S14434   0.185   5.976   3.620  0.3408 -0.3482 -0.4341
  134OSM   H11S14435   0.296   5.978   3.621  0.4951  4.8263 -1.1205
  134OSM   H11T14436   0.146   5.873   3.629 -1.5421  0.2013 -1.5771
  134OSM   C12S14437   0.123   6.048   3.742  0.3720 -0.3497  0.0627
  134OSM   H12S14438   0.014   6.030   3.747  0.1646 -0.1865 -2.5240
  134OSM   H12T14439   0.145   6.156   3.727 -0.2809 -0.3064 -0.6641
  134OSM   C13S14440   0.182   6.008   3.875 -0.0587  0.3199  0.1448
  134OSM   H13S14441   0.291   6.008   3.855  0.2966 -1.4473  1.6637
  134OSM   H13T14442   0.164   5.901   3.903 -2.0562  0.8111  0.9033
  134OSM   C14S14443   0.145   6.087   3.997 -0.4494 -0.2064  0.0784
  134OSM   H14S14444   0.036   6.094   4.012 -0.3911 -1.7539  1.5478
  134OSM   H14T14445   0.187   6.190   3.990 -0.7327 -0.0161  0.9731
  134OSM   C15S14446   0.218   6.029   4.117 -0.2377  1.0049  0.5093
  134OSM   H15S14447   0.323   5.997   4.096 -1.3472 -1.7890 -1.3352
  134OSM   H15T14448   0.171   5.933   4.147  0.8097  0.4609  0.4473
  134OSM   C16S14449   0.219   6.117   4.240 -0.1784  0.2142 -1.0309
  134OSM   H16S14450   0.116   6.121   4.281  0.2921  0.3334  0.1652
  134OSM   H16T14451   0.257   6.215   4.203  0.0262  0.3389 -0.4968
  134OSM   C17S14452   0.319   6.056   4.346 -0.1465  0.3377  0.7338
  134OSM   H17S14453   0.318   6.119   4.437 -0.8449 -0.5885  1.3826
  134OSM   H17T14454   0.417   6.066   4.295 -0.8876  1.0160 -0.6628
  134OSM   C18S14455   0.297   5.917   4.383 -0.1521 -0.2543  0.5005
  134OSM   H18S14456   0.314   5.846   4.299  0.7379 -1.7390  1.8646
  134OSM   H18T14457   0.196   5.892   4.424 -0.6709  2.1317  0.8027
  134OSM   H18U14458   0.370   5.886   4.461  0.2906  2.0289  1.0581
  134OSM    C1F14459   0.516   6.170   2.810  0.3257  0.2997  0.2183
  134OSM     OF14460   0.538   6.247   2.718 -0.8441  0.4241  0.4632
  134OSM    C2F14461   0.629   6.111   2.889  0.8689  0.0640  0.6237
  134OSM    H2F14462   0.712   6.076   2.823 -1.1214 -1.6309 -1.1159
  134OSM    H2G14463   0.596   6.018   2.940 -0.6105 -0.0745 -0.5141
  134OSM    C3F14464   0.678   6.221   2.986  0.2577  0.0602  1.2858
  134OSM    H3F14465   0.703   6.310   2.924  0.2515 -0.3526  0.6738
  134OSM    H3G14466   0.771   6.196   3.041  0.7413  0.7858  0.8135
  134OSM    C4F14467   0.577   6.246   3.099  0.1281  0.0182  0.1281
  134OSM    H4F14468   0.574   6.146   3.147  2.1133 -1.3662 -2.3581
  134OSM    H4G14469   0.476   6.256   3.054  1.1980  0.3697 -2.3498
  134OSM    C5F14470   0.598   6.364   3.185 -0.3851 -0.5215  0.0955
  134OSM    H5F14471   0.568   6.456   3.132 -3.2168 -1.3615  0.0913
  134OSM    H5G14472   0.708   6.373   3.200 -0.6820  1.4845  1.4213
  134OSM    C6F14473   0.515   6.370   3.309 -0.2391  0.8265  0.3286
  134OSM    H6F14474   0.521   6.268   3.354  0.1299  0.7921  0.2069
  134OSM    H6G14475   0.407   6.377   3.282 -1.1953 -5.0793  1.1936
  134OSM    C7F14476   0.558   6.480   3.413  0.1137  0.3088 -0.2671
  134OSM    H7F14477   0.556   6.576   3.357 -1.6552  1.0476  0.9627
  134OSM    H7G14478   0.664   6.472   3.445 -0.2934 -2.2840  0.6162
  134OSM    C8F14479   0.459   6.489   3.531 -0.2377 -0.0204  0.1701
  134OSM    H8F14480   0.448   6.381   3.551 -0.3146 -0.3320 -1.3963
  134OSM    H8G14481   0.362   6.527   3.492  0.4675 -0.7261 -2.5133
  134OSM    C9F14482   0.530   6.562   3.644 -0.2193  0.4699  0.0173
  134OSM    H9F14483   0.546   6.670   3.631 -0.1404  0.8764  2.8814
  134OSM   C10F14484   0.565   6.503   3.766  0.8383  0.0057  0.0305
  134OSM   H10F14485   0.613   6.565   3.843 -0.6788 -1.7052  2.4790
  134OSM   C11F14486   0.549   6.359   3.808  0.3748  0.1715 -0.3701
  134OSM   H11F14487   0.637   6.331   3.870  0.0314 -2.3733 -0.9157
  134OSM   H11G14488   0.556   6.288   3.723 -1.1874 -2.2215  1.3716
  134OSM   C12F14489   0.427   6.328   3.891  0.0457  0.4174  0.4033
  134OSM   H12F14490   0.419   6.219   3.912  0.2756 -0.0168 -1.6123
  134OSM   H12G14491   0.344   6.360   3.825 -0.1259 -0.3996  0.2152
  134OSM   C13F14492   0.420   6.407   4.022 -0.3724 -0.1185 -0.3508
  134OSM   H13F14493   0.336   6.373   4.086  0.0480 -2.3245 -0.8859
  134OSM   H13G14494   0.409   6.515   4.001 -0.5056 -0.2778 -1.1224
  134OSM   C14F14495   0.544   6.394   4.122 -0.2943  0.3073 -0.4399
  134OSM   H14F14496   0.639   6.426   4.073  1.8315 -4.3163  0.1139
  134OSM   H14G14497   0.562   6.285   4.132  1.8572  0.8176  2.4338
  134OSM   C15F14498   0.519   6.471   4.258 -0.1892 -0.5629 -0.2573
  134OSM   H15F14499   0.429   6.426   4.304 -0.0450 -1.7397 -1.0869
  134OSM   H15G14500   0.494   6.572   4.220  0.5100 -0.2641  0.0529
  134OSM   C16F14501   0.636   6.479   4.362 -0.3650  0.5106  0.7145
  134OSM   H16F14502   0.601   6.551   4.438  2.0313  2.2479  0.2968
  134OSM   H16G14503   0.731   6.509   4.313  1.8365 -6.4696 -0.3210
  134OSM   C17F14504   0.669   6.344   4.435  0.1006 -0.8726  0.4915
  134OSM   H17F14505   0.778   6.348   4.459  1.0218 -1.0067 -3.0857
  134OSM   H17G14506   0.662   6.264   4.358 -0.2208 -0.3329 -0.0479
  134OSM   C18F14507   0.578   6.330   4.556  0.3790  0.0169  0.0406
  134OSM   H18F14508   0.596   6.408   4.633  2.9921  0.3499 -0.8042
  134OSM   H18G14509   0.592   6.229   4.599 -1.8330  0.2838  1.5669
  134OSM   H18H14510   0.471   6.335   4.525  0.4238  0.0496 -0.1088
  135OSM      N14511   4.258   5.439   2.122 -0.2955  0.0251 -0.0778
  135OSM    C1514512   4.236   5.291   2.120 -0.3049 -0.2267 -0.1450
  135OSM   H15A14513   4.212   5.255   2.021 -0.0982  0.7560 -0.5617
  135OSM   H15B14514   4.158   5.270   2.192  0.0038  1.3523  0.7056
  135OSM   H15C14515   4.322   5.234   2.150 -0.6342 -1.4102 -1.3336
  135OSM    C1414516   4.330   5.461   1.993  0.3863  0.5383  0.0324
  135OSM   H14A14517   4.340   5.568   1.993  2.5409  0.3770 -0.2667
  135OSM   H14B14518   4.263   5.423   1.918 -0.6414  1.2431  0.5599
  135OSM   H14C14519   4.423   5.408   1.978 -0.5537 -1.0631 -0.4349
  135OSM    C1314520   4.126   5.519   2.119  0.2306  0.5870 -0.4405
  135OSM   H13A14521   4.076   5.485   2.208  0.6602 -0.3341 -0.5281
  135OSM   H13B14522   4.062   5.488   2.038 -1.4344 -2.0444  1.7334
  135OSM   H13C14523   4.149   5.624   2.130  1.8673  0.1262  1.0889
  135OSM    C1214524   4.343   5.479   2.239  0.0487 -0.6346 -0.3752
  135OSM   H12A14525   4.373   5.582   2.229 -0.7905 -0.2868  0.5088
  135OSM   H12B14526   4.436   5.425   2.245  1.2541  1.5461  2.3826
  135OSM    C1114527   4.274   5.465   2.378 -0.2735 -0.5023  0.4532
  135OSM   H11A14528   4.259   5.360   2.409  0.2759 -0.3759  1.1880
  135OSM   H11B14529   4.167   5.496   2.376 -1.3041 -3.3004 -4.7493
  135OSM      P14530   4.490   5.538   2.519 -0.3944  0.2753 -0.3070
  135OSM    O1314531   4.545   5.410   2.471  0.2452 -0.2690 -0.3413
  135OSM    O1414532   4.565   5.662   2.481  0.3798 -0.2743  0.3377
  135OSM    O1114533   4.477   5.533   2.673  0.1534  0.3023 -0.8227
  135OSM    O1214534   4.342   5.549   2.470 -0.0933  0.1424 -0.2054
  135OSM    C1S14535   4.353   5.487   2.732  0.3811 -0.0917 -0.2777
  135OSM    H1S14536   4.314   5.392   2.691 -0.7124 -0.6508  1.9380
  135OSM    H1T14537   4.270   5.554   2.703  0.5799  0.6070  0.6861
  135OSM     NF14538   4.205   5.435   2.916  0.4134 -0.1926 -0.5434
  135OSM    HNF14539   4.136   5.504   2.939  0.2644 -0.1270 -1.1613
  135OSM    C2S14540   4.343   5.476   2.887  0.9539 -0.3173  0.2184
  135OSM    H2S14541   4.401   5.390   2.928  0.0004 -0.5216  1.1909
  135OSM    C3S14542   4.386   5.617   2.938  0.1922 -0.3384 -0.4255
  135OSM    H3S14543   4.325   5.690   2.882 -0.1153 -0.1281  0.1687
  135OSM     O314544   4.522   5.646   2.918  0.4659 -0.3941 -0.0004
  135OSM    HO314545   4.532   5.605   2.831  0.5539  0.8423 -0.5918
  135OSM    C4S14546   4.350   5.621   3.086  0.1306  0.4318  0.9795
  135OSM    H4S14547   4.410   5.565   3.159 -0.6547  0.0194  1.3158
  135OSM    C5S14548   4.253   5.690   3.140 -0.5646 -0.4429  0.6959
  135OSM    H5S14549   4.179   5.741   3.076  1.1714  0.9435 -0.3114
  135OSM    C6S14550   4.223   5.708   3.285 -0.0194 -0.0569  0.6185
  135OSM    H6S14551   4.131   5.647   3.298 -0.9102  0.1426 -3.2629
  135OSM    H6T14552   4.197   5.815   3.301  0.1540  0.1639 -0.4672
  135OSM    C7S14553   4.330   5.674   3.387  0.2439 -0.0646 -0.0359
  135OSM    H7S14554   4.400   5.758   3.369  2.6628 -1.6156  1.4208
  135OSM    H7T14555   4.381   5.576   3.373 -0.5098 -0.2536 -1.6682
  135OSM    C8S14556   4.291   5.689   3.536  0.1697  0.3416  0.5946
  135OSM    H8S14557   4.207   5.625   3.570  0.6031  0.5885  2.2139
  135OSM    H8T14558   4.269   5.797   3.552  1.0646  0.6086  0.0927
  135OSM    C9S14559   4.396   5.655   3.642 -0.3408 -0.2756 -0.1782
  135OSM    H9S14560   4.479   5.723   3.614  0.6628 -0.8814  1.1844
  135OSM    H9T14561   4.429   5.550   3.629 -1.4251 -0.8870  1.6314
  135OSM   C10S14562   4.358   5.673   3.788 -0.2366  0.0492  0.3949
  135OSM   H10S14563   4.271   5.616   3.826 -0.6150 -0.2851 -0.9313
  135OSM   H10T14564   4.326   5.778   3.805 -2.6561 -0.6449  0.5295
  135OSM   C11S14565   4.481   5.631   3.876  0.8546  0.4306 -0.1636
  135OSM   H11S14566   4.560   5.706   3.855  0.9047  1.0547  1.9846
  135OSM   H11T14567   4.514   5.530   3.844  1.4841 -0.4101  2.8420
  135OSM   C12S14568   4.449   5.624   4.027  0.3756  0.1917 -0.3383
  135OSM   H12S14569   4.390   5.531   4.040  2.8691 -1.6216 -1.1209
  135OSM   H12T14570   4.380   5.703   4.062  0.5154 -0.0713  0.5495
  135OSM   C13S14571   4.582   5.622   4.103 -0.3740 -0.2454  0.7060
  135OSM   H13S14572   4.655   5.690   4.055 -0.0850  0.6930  2.4030
  135OSM   H13T14573   4.624   5.520   4.087  3.1360  0.7655  2.4839
  135OSM   C14S14574   4.560   5.637   4.259 -0.2352  0.2870  0.0448
  135OSM   H14S14575   4.490   5.556   4.289 -0.9582  1.3462  1.3851
  135OSM   H14T14576   4.512   5.738   4.267  1.4318  1.4388 -2.9079
  135OSM   C15S14577   4.693   5.648   4.337  0.8855 -0.1482  0.2573
  135OSM   H15S14578   4.749   5.730   4.287  0.2011  0.3278  0.2480
  135OSM   H15T14579   4.746   5.551   4.331  0.6619 -0.3447  1.2766
  135OSM   C16S14580   4.674   5.682   4.483 -0.0598  0.0878  0.4157
  135OSM   H16S14581   4.594   5.759   4.492  0.3014  0.2938  2.0825
  135OSM   H16T14582   4.770   5.718   4.525 -0.0067 -0.8146  1.0951
  135OSM   C17S14583   4.631   5.558   4.566  0.6599 -0.0061  0.2770
  135OSM   H17S14584   4.693   5.470   4.541 -1.6396 -1.0834 -2.0930
  135OSM   H17T14585   4.532   5.527   4.528  1.1037  0.4122 -1.3223
  135OSM   C18S14586   4.626   5.584   4.710  0.7148 -0.0456 -0.0719
  135OSM   H18S14587   4.704   5.640   4.766 -0.1361  1.0280  0.0819
  135OSM   H18T14588   4.599   5.491   4.763 -1.2426  1.3542  1.5760
  135OSM   H18U14589   4.538   5.650   4.728  1.7091  1.0039  1.1641
  135OSM    C1F14590   4.160   5.311   2.893  0.5098  0.1884 -0.5606
  135OSM     OF14591   4.233   5.219   2.858  0.3975 -0.3184 -0.3464
  135OSM    C2F14592   4.006   5.285   2.902 -1.3018  0.4888 -0.9016
  135OSM    H2F14593   3.969   5.277   2.798 -0.1379  2.6124 -1.5341
  135OSM    H2G14594   3.954   5.369   2.953 -1.3407 -1.0063  1.7195
  135OSM    C3F14595   3.972   5.148   2.978  0.7401  0.0972  0.7381
  135OSM    H3F14596   4.026   5.131   3.074  2.6934 -0.9338 -0.4598
  135OSM    H3G14597   4.009   5.066   2.913 -1.1291 -0.4880  0.3573
  135OSM    C4F14598   3.824   5.127   3.003 -0.3081  0.4091 -0.0096
  135OSM    H4F14599   3.821   5.036   3.066  1.1764 -0.1436 -0.7111
  135OSM    H4G14600   3.770   5.109   2.908  0.4582 -0.2899 -0.3176
  135OSM    C5F14601   3.750   5.238   3.080 -0.8229 -0.3061  0.1827
  135OSM    H5F14602   3.652   5.188   3.098 -0.8743 -0.4773 -0.5089
  135OSM    H5G14603   3.734   5.325   3.012 -1.8717 -0.5905  0.0497
  135OSM    C6F14604   3.818   5.265   3.212  0.3750 -0.3800  0.4629
  135OSM    H6F14605   3.923   5.297   3.194 -1.1351  5.1164 -0.3692
  135OSM    H6G14606   3.806   5.179   3.281  2.2037  0.1343  1.4835
  135OSM    C7F14607   3.745   5.383   3.283 -0.2249 -0.2508  0.8748
  135OSM    H7F14608   3.635   5.371   3.279 -0.1471 -0.5993 -1.9441
  135OSM    H7G14609   3.758   5.471   3.217  0.9381 -0.5536  0.6688
  135OSM    C8F14610   3.786   5.418   3.432 -0.1502 -0.1057 -0.4284
  135OSM    H8F14611   3.723   5.499   3.472  0.7500  0.5879 -0.3709
  135OSM    H8G14612   3.886   5.465   3.418  1.8356 -3.4671  1.2684
  135OSM    C9F14613   3.773   5.300   3.525  0.0623 -0.0758 -0.1404
  135OSM    H9F14614   3.677   5.248   3.514  0.0722  0.4725 -3.8571
  135OSM   C10F14615   3.883   5.261   3.599  0.2339  0.4399 -0.1789
  135OSM   H10F14616   3.869   5.176   3.668  0.9554  0.0106 -0.5601
  135OSM   C11F14617   4.017   5.324   3.609  0.1091 -0.6482 -0.5861
  135OSM   H11F14618   4.012   5.431   3.638 -0.0727 -0.7073 -0.3981
  135OSM   H11G14619   4.066   5.338   3.510  2.0959 -1.0169  0.3010
  135OSM   C12F14620   4.098   5.257   3.723  0.7030  0.6125  0.2528
  135OSM   H12F14621   4.194   5.309   3.739  1.7784 -0.3423 -2.5594
  135OSM   H12G14622   4.137   5.157   3.693  0.9024  0.3263  1.4132
  135OSM   C13F14623   4.030   5.248   3.856 -0.1736  0.0095  0.6835
  135OSM   H13F14624   3.949   5.171   3.851 -1.2177  1.0908  0.3631
  135OSM   H13G14625   3.986   5.350   3.862  1.9911  1.2496 -2.1629
  135OSM   C14F14626   4.115   5.213   3.968 -1.0410  0.6034 -0.5263
  135OSM   H14F14627   4.195   5.291   3.970 -0.2718 -0.1794 -0.3417
  135OSM   H14G14628   4.172   5.119   3.954  0.0475  1.1824 -0.1269
  135OSM   C15F14629   4.034   5.226   4.092 -0.7621  0.5440  0.6678
  135OSM   H15F14630   3.965   5.139   4.090 -0.4718  0.3259 -0.2335
  135OSM   H15G14631   3.975   5.319   4.081  0.8521  1.5825  0.3948
  135OSM   C16F14632   4.109   5.215   4.224 -0.3868  0.1784  0.0247
  135OSM   H16F14633   4.160   5.118   4.209  0.2552  0.4093  0.6692
  135OSM   H16G14634   4.034   5.202   4.305 -0.3582  0.1473  0.0460
  135OSM   C17F14635   4.208   5.333   4.250 -0.1610 -0.4457  0.3927
  135OSM   H17F14636   4.149   5.425   4.235 -1.0933 -0.9292  1.0318
  135OSM   H17G14637   4.289   5.325   4.173 -1.2183 -1.4934 -0.6638
  135OSM   C18F14638   4.272   5.341   4.391 -0.7893  0.2806 -0.2168
  135OSM   H18F14639   4.342   5.426   4.396 -0.9389  0.3646  0.6049
  135OSM   H18G14640   4.326   5.248   4.417 -1.3392  0.0721  0.2058
  135OSM   H18H14641   4.190   5.359   4.464 -0.6894 -0.5009  0.0984
  136OSM      N14642   5.800   6.145   2.228  0.1662 -0.2209 -0.0517
  136OSM    C1514643   5.797   6.039   2.118 -0.1377 -0.7586 -0.0519
  136OSM   H15A14644   5.734   5.955   2.144 -1.8156 -0.7250 -3.4665
  136OSM   H15B14645   5.899   6.005   2.115  0.2717  0.5108 -1.5552
  136OSM   H15C14646   5.766   6.074   2.021 -0.5121  0.1208  0.3809
  136OSM    C1414647   5.922   6.234   2.201 -0.2843  0.0027  0.0984
  136OSM   H14A14648   6.013   6.194   2.242 -1.1118  0.6984  2.8571
  136OSM   H14B14649   5.904   6.331   2.245 -0.6926 -0.0938  0.1463
  136OSM   H14C14650   5.941   6.248   2.096 -0.8034  1.1492  0.1388
  136OSM    C1314651   5.669   6.224   2.220 -0.1450  0.1216  0.2459
  136OSM   H13A14652   5.653   6.263   2.121 -2.6846 -2.0453 -0.3026
  136OSM   H13B14653   5.671   6.306   2.290 -0.4180  3.0231 -2.8936
  136OSM   H13C14654   5.584   6.159   2.234  0.5778 -0.5390  2.0004
  136OSM    C1214655   5.807   6.085   2.362  0.4641  0.3042 -0.6795
  136OSM   H12A14656   5.821   6.161   2.436  2.0750  0.4114 -1.0419
  136OSM   H12B14657   5.896   6.025   2.376 -0.1451  0.0592  2.8031
  136OSM    C1114658   5.685   6.002   2.412 -0.1908  0.0867  0.8264
  136OSM   H11A14659   5.591   6.058   2.397  0.3852  0.7885 -0.3005
  136OSM   H11B14660   5.688   5.977   2.521 -3.0219  0.0926  0.9729
  136OSM      P14661   5.787   5.763   2.385 -0.1308 -0.1062 -0.5185
  136OSM    O1314662   5.733   5.628   2.351  0.2833 -0.8012 -0.1073
  136OSM    O1414663   5.926   5.777   2.343  0.1696 -0.6238  0.0146
  136OSM    O1114664   5.779   5.770   2.548  0.4164  0.3578  0.0269
  136OSM    O1214665   5.692   5.879   2.334 -0.5185 -0.7977  0.4819
  136OSM    C1S14666   5.865   5.695   2.635 -0.1118 -0.0172 -0.1753
  136OSM    H1S14667   5.924   5.618   2.580 -0.4794 -1.9672  2.0115
  136OSM    H1T14668   5.802   5.648   2.713  1.2673 -0.5606  0.6469
  136OSM     NF14669   6.066   5.705   2.786  0.5578 -0.3158 -0.3870
  136OSM    HNF14670   6.089   5.740   2.876  2.3757  0.6569 -1.1788
  136OSM    C2S14671   5.973   5.782   2.708 -0.2414 -0.4397  0.3087
  136OSM    H2S14672   6.032   5.834   2.629  1.7340 -1.8850  0.7763
  136OSM    C3S14673   5.906   5.904   2.791  0.0823  0.2336  0.5193
  136OSM    H3S14674   5.879   5.843   2.880 -3.5669  1.9368  0.7656
  136OSM     O314675   5.776   5.957   2.760 -0.5429  0.3266  0.0651
  136OSM    HO314676   5.733   5.896   2.700 -0.0553 -0.7530  0.7841
  136OSM    C4S14677   5.998   6.018   2.846 -0.7383  0.7555  0.3979
  136OSM    H4S14678   6.080   5.982   2.909  0.0431  0.5646 -0.6888
  136OSM    C5S14679   5.996   6.141   2.798 -0.3049  0.5685 -0.3789
  136OSM    H5S14680   5.927   6.158   2.713  0.3450  1.6229 -0.7059
  136OSM    C6S14681   6.089   6.250   2.852  0.6341  0.1707  0.0890
  136OSM    H6S14682   6.036   6.334   2.903 -0.3875 -0.5676  0.2643
  136OSM    H6T14683   6.136   6.291   2.760  1.8461  0.0547  0.6357
  136OSM    C7S14684   6.204   6.220   2.953  0.0680  0.0816  0.2194
  136OSM    H7S14685   6.280   6.302   2.951 -0.4147  0.5210 -0.8630
  136OSM    H7T14686   6.269   6.132   2.933  0.2199 -0.3458  2.3533
  136OSM    C8S14687   6.145   6.203   3.095  0.3970 -0.3408  0.2906
  136OSM    H8S14688   6.091   6.106   3.108  0.0585 -0.2812 -0.6181
  136OSM    H8T14689   6.081   6.293   3.106  1.3513  0.9330 -3.2276
  136OSM    C9S14690   6.265   6.196   3.192  1.0328  0.2424  0.3108
  136OSM    H9S14691   6.331   6.286   3.189 -1.4759  2.2283  0.7834
  136OSM    H9T14692   6.329   6.106   3.188 -1.3654 -1.5361 -1.9058
  136OSM   C10S14693   6.226   6.192   3.342  0.2911 -0.4753  1.0913
  136OSM   H10S14694   6.161   6.102   3.343  1.2566 -1.2624 -0.9774
  136OSM   H10T14695   6.181   6.287   3.378  1.8191  1.3060 -1.3414
  136OSM   C11S14696   6.352   6.167   3.431  0.7907  0.0773  0.4307
  136OSM   H11S14697   6.406   6.262   3.452 -2.8863  2.6489 -0.7822
  136OSM   H11T14698   6.415   6.094   3.376 -0.6496  0.4080 -1.7773
  136OSM   C12S14699   6.311   6.121   3.570 -0.4721  0.5824 -0.3491
  136OSM   H12S14700   6.402   6.068   3.606 -1.5846 -0.2272  1.4200
  136OSM   H12T14701   6.237   6.038   3.563  2.2210 -2.1919  1.5875
  136OSM   C13S14702   6.268   6.236   3.662 -0.3442 -0.9887  0.6032
  136OSM   H13S14703   6.187   6.284   3.603  0.7181  0.7782  0.5021
  136OSM   H13T14704   6.350   6.311   3.657 -0.0086 -1.2825  1.5262
  136OSM   C14S14705   6.253   6.198   3.805 -0.9632 -0.0254  0.5057
  136OSM   H14S14706   6.182   6.114   3.818  0.4458 -1.1309  1.3287
  136OSM   H14T14707   6.212   6.275   3.874  1.5775 -0.3054  2.4843
  136OSM   C15S14708   6.383   6.154   3.882  0.0581  0.1049 -0.3577
  136OSM   H15S14709   6.438   6.244   3.917 -1.0371  0.8342 -0.4604
  136OSM   H15T14710   6.452   6.101   3.813 -0.4410  0.0269 -0.8026
  136OSM   C16S14711   6.346   6.065   4.004 -0.1431  0.4110  0.4042
  136OSM   H16S14712   6.424   6.015   4.065 -2.0285 -0.7457  1.9990
  136OSM   H16T14713   6.286   5.982   3.962 -0.5100  0.4324  0.8697
  136OSM   C17S14714   6.240   6.132   4.092 -0.3819  0.3426 -0.9291
  136OSM   H17S14715   6.142   6.134   4.038 -1.0326 -2.8394 -0.0306
  136OSM   H17T14716   6.271   6.236   4.115  1.9909 -0.6514  0.6500
  136OSM   C18S14717   6.188   6.058   4.214 -0.4701 -0.6278 -0.4445
  136OSM   H18S14718   6.144   5.957   4.200 -0.8183 -0.4001 -1.0080
  136OSM   H18T14719   6.106   6.115   4.263  0.2895  0.2299 -0.1461
  136OSM   H18U14720   6.256   6.058   4.302 -0.3160  1.4066 -0.5130
  136OSM    C1F14721   6.132   5.599   2.743  0.0212  0.0071 -0.1776
  136OSM     OF14722   6.161   5.591   2.625 -0.1091 -0.1162 -0.3954
  136OSM    C2F14723   6.177   5.490   2.845 -0.0375 -0.7717  0.2807
  136OSM    H2F14724   6.097   5.470   2.919  0.5159 -1.7365  0.6406
  136OSM    H2G14725   6.271   5.520   2.897  0.8813 -1.4598 -0.9253
  136OSM    C3F14726   6.201   5.359   2.771 -0.3322  0.3537  0.6380
  136OSM    H3F14727   6.276   5.377   2.691  0.8030 -1.6291  1.2091
  136OSM    H3G14728   6.108   5.321   2.723  0.1132  0.4455 -0.3212
  136OSM    C4F14729   6.258   5.257   2.862 -0.3382 -0.1219  0.1332
  136OSM    H4F14730   6.254   5.154   2.821 -0.7722 -1.1478  2.6322
  136OSM    H4G14731   6.189   5.245   2.947  0.7284 -0.2952  1.0000
  136OSM    C5F14732   6.396   5.294   2.895 -0.5282 -0.3012 -0.6277
  136OSM    H5F14733   6.408   5.391   2.949  1.6133 -1.9301  2.0807
  136OSM    H5G14734   6.456   5.299   2.802 -0.4246 -1.0916 -0.6094
  136OSM    C6F14735   6.460   5.225   3.016 -0.3266  0.6877 -1.3041
  136OSM    H6F14736   6.553   5.280   3.044 -0.5288  0.7098 -0.6738
  136OSM    H6G14737   6.496   5.124   2.985 -2.3169 -0.2184 -0.8093
  136OSM    C7F14738   6.365   5.187   3.131  0.5596 -0.7244  0.1895
  136OSM    H7F14739   6.289   5.115   3.093  0.3079  0.9523 -2.7764
  136OSM    H7G14740   6.307   5.277   3.163  1.2048  0.2646 -1.3025
  136OSM    C8F14741   6.439   5.111   3.239  0.0843  0.0651  0.3717
  136OSM    H8F14742   6.490   5.017   3.208 -1.0246 -0.1893 -0.7427
  136OSM    H8G14743   6.359   5.083   3.310  1.5329 -2.2915  1.1876
  136OSM    C9F14744   6.535   5.201   3.307 -0.5059  0.9550  0.3628
  136OSM    H9F14745   6.572   5.286   3.250  0.4121  1.6010  1.8579
  136OSM   C10F14746   6.564   5.196   3.438 -0.4765  0.0490  0.7386
  136OSM   H10F14747   6.619   5.281   3.482  0.5545 -0.9681  1.4946
  136OSM   C11F14748   6.513   5.092   3.535  0.2844  0.3177  0.2365
  136OSM   H11F14749   6.587   5.009   3.550 -0.5437 -0.5591 -0.4316
  136OSM   H11G14750   6.417   5.042   3.512 -0.4552  1.1690  1.3450
  136OSM   C12F14751   6.482   5.174   3.662 -0.6614 -0.2186 -0.8387
  136OSM   H12F14752   6.405   5.252   3.642  0.3254  1.2115  0.6749
  136OSM   H12G14753   6.575   5.227   3.691 -0.9823 -1.0449  1.9351
  136OSM   C13F14754   6.450   5.095   3.781 -0.6238 -0.5090  0.0577
  136OSM   H13F14755   6.510   5.002   3.790  1.9768  1.2281  2.2684
  136OSM   H13G14756   6.344   5.063   3.780 -0.8448  0.0858  1.4257
  136OSM   C14F14757   6.483   5.169   3.917 -0.2865  0.1372 -0.2830
  136OSM   H14F14758   6.435   5.268   3.910  0.8016  0.8015  1.0936
  136OSM   H14G14759   6.593   5.180   3.927  0.0957 -2.8782 -0.0292
  136OSM   C15F14760   6.418   5.096   4.042 -0.3560  1.1563  1.0054
  136OSM   H15F14761   6.443   4.991   4.016 -1.9543  1.1309 -0.6474
  136OSM   H15G14762   6.307   5.091   4.048 -0.2949  0.1500  1.4057
  136OSM   C16F14763   6.463   5.142   4.181 -0.2001 -0.2657  0.3665
  136OSM   H16F14764   6.438   5.248   4.203 -1.3709 -0.8288  1.9416
  136OSM   H16G14765   6.574   5.138   4.180 -0.0517  1.1458 -3.5111
  136OSM   C17F14766   6.415   5.050   4.293 -0.2997  0.0643  0.5156
  136OSM   H17F14767   6.443   4.945   4.272 -1.2550  0.3236 -2.4300
  136OSM   H17G14768   6.305   5.064   4.304 -0.4017  0.6242 -0.9865
  136OSM   C18F14769   6.466   5.088   4.428  0.2424 -0.1831  0.3975
  136OSM   H18F14770   6.422   5.034   4.515  1.4581 -0.3765  0.9161
  136OSM   H18G14771   6.444   5.196   4.439  0.8935  0.0976 -0.8561
  136OSM   H18H14772   6.574   5.065   4.429  0.5400  0.9111 -1.7135
  137OSM      N14773   3.208   3.719   2.236  0.1653  0.0785 -0.5249
  137OSM    C1514774   3.317   3.650   2.315  0.8780  0.0089  0.0901
  137OSM   H15A14775   3.387   3.612   2.242 -0.3421 -0.4114 -0.8981
  137OSM   H15B14776   3.266   3.584   2.384  2.0857 -1.2364 -0.1707
  137OSM   H15C14777   3.360   3.725   2.381 -0.4202  1.1600 -0.3270
  137OSM    C1414778   3.273   3.780   2.122  0.0630  0.1199  0.0449
  137OSM   H14A14779   3.327   3.870   2.145  1.4476 -0.1565 -1.9161
  137OSM   H14B14780   3.199   3.811   2.050 -1.2313 -3.3483 -0.3095
  137OSM   H14C14781   3.339   3.707   2.078  1.2999  1.7018 -0.8398
  137OSM    C1314782   3.106   3.616   2.192  0.0891 -0.4600 -0.7655
  137OSM   H13A14783   3.009   3.664   2.192  1.2008  2.0710  2.0207
  137OSM   H13B14784   3.100   3.529   2.256 -2.7669  0.8012  0.9079
  137OSM   H13C14785   3.123   3.592   2.088  1.5124  1.3746 -0.9915
  137OSM    C1214786   3.134   3.811   2.330 -0.4866  1.1773 -0.4539
  137OSM   H12A14787   3.206   3.858   2.394 -1.0955 -1.7507  2.6661
  137OSM   H12B14788   3.078   3.742   2.391  0.9009 -0.6371 -1.1364
  137OSM    C1114789   3.032   3.913   2.277 -0.0880 -0.0220 -0.5789
  137OSM   H11A14790   3.085   3.998   2.228 -2.0152  0.6414 -1.6593
  137OSM   H11B14791   2.998   3.974   2.364 -0.4800  0.9851 -1.4115
  137OSM      P14792   2.790   3.831   2.246  0.0559  0.2936  0.1814
  137OSM    O1314793   2.700   3.868   2.133 -0.6306  0.0877  0.3476
  137OSM    O1414794   2.791   3.691   2.288 -0.1307 -0.5836  0.8185
  137OSM    O1114795   2.771   3.929   2.374  0.0258  0.1382  0.1862
  137OSM    O1214796   2.934   3.859   2.192 -0.1935 -0.5366  0.1266
  137OSM    C1S14797   2.640   3.953   2.431 -0.0914 -0.4421 -0.1279
  137OSM    H1S14798   2.569   3.885   2.377 -0.4884 -1.3242  1.4555
  137OSM    H1T14799   2.615   4.057   2.403  2.2202 -0.0207 -0.8321
  137OSM     NF14800   2.494   3.978   2.629 -0.7914  0.0500  0.1241
  137OSM    HNF14801   2.493   4.066   2.676  0.0976 -0.4794  1.1867
  137OSM    C2S14802   2.626   3.926   2.576  0.1766  1.0772 -0.1496
  137OSM    H2S14803   2.631   3.817   2.594  0.8537  0.6011 -2.7491
  137OSM    C3S14804   2.746   3.986   2.650  0.3571  0.2907 -0.2153
  137OSM    H3S14805   2.753   4.086   2.602  2.5722 -0.0705 -0.7931
  137OSM     O314806   2.868   3.923   2.607  0.4999  0.8067 -0.2796
  137OSM    HO314807   2.830   3.874   2.534  0.2881  0.4813  0.0455
  137OSM    C4S14808   2.734   3.992   2.799  0.2047 -0.8960  0.1139
  137OSM    H4S14809   2.716   3.894   2.845  1.1570 -1.0408  0.1826
  137OSM    C5S14810   2.738   4.103   2.876  1.0893  0.5318 -0.0427
  137OSM    H5S14811   2.745   4.201   2.826 -0.7040 -0.4490 -2.4368
  137OSM    C6S14812   2.727   4.114   3.022  0.4201  0.7308 -0.6368
  137OSM    H6S14813   2.635   4.168   3.054 -1.1295 -1.8694 -0.4764
  137OSM    H6T14814   2.808   4.184   3.054  0.8800 -0.5507  1.1556
  137OSM    C7S14815   2.746   3.971   3.081  0.6163  0.2190 -0.7488
  137OSM    H7S14816   2.820   3.908   3.026  1.5309  2.1070 -1.8043
  137OSM    H7T14817   2.645   3.928   3.070  1.2693 -1.3122 -1.0260
  137OSM    C8S14818   2.795   3.974   3.226  0.7596 -0.0454  0.3724
  137OSM    H8S14819   2.898   4.015   3.225  1.4423 -1.7038 -0.4394
  137OSM    H8T14820   2.800   3.873   3.272 -3.9369 -1.1945 -1.0020
  137OSM    C9S14821   2.708   4.071   3.316 -0.0371 -0.6006 -0.2148
  137OSM    H9S14822   2.603   4.046   3.290 -0.1412  1.0049 -1.5115
  137OSM    H9T14823   2.722   4.180   3.302  1.2043 -0.4121  2.0929
  137OSM   C10S14824   2.730   4.041   3.465 -0.3570 -0.4063  0.5625
  137OSM   H10S14825   2.677   4.110   3.534  0.3854  0.8286 -0.0610
  137OSM   H10T14826   2.837   4.040   3.497 -0.2766 -1.9441  0.3024
  137OSM   C11S14827   2.680   3.906   3.513 -0.1933 -0.1167  0.3254
  137OSM   H11S14828   2.734   3.828   3.455 -1.1026  0.2957 -1.1464
  137OSM   H11T14829   2.571   3.890   3.500 -0.7154  1.8779  1.7760
  137OSM   C12S14830   2.710   3.883   3.666  0.0636 -0.4635  0.3828
  137OSM   H12S14831   2.673   3.970   3.724 -2.5805 -1.2794  0.0540
  137OSM   H12T14832   2.820   3.899   3.674  0.1483  0.2499 -1.6192
  137OSM   C13S14833   2.666   3.750   3.715 -0.0242  1.3174 -0.2076
  137OSM   H13S14834   2.707   3.669   3.652 -2.0407  1.3891 -1.7194
  137OSM   H13T14835   2.557   3.748   3.694 -0.1129  1.8882  0.1826
  137OSM   C14S14836   2.688   3.723   3.863 -0.0856  0.2201  0.5596
  137OSM   H14S14837   2.797   3.710   3.878 -0.2120  1.3996  2.9477
  137OSM   H14T14838   2.636   3.629   3.893 -0.3021  0.7085  1.7669
  137OSM   C15S14839   2.625   3.826   3.945  0.5290 -0.3642 -0.7265
  137OSM   H15S14840   2.516   3.837   3.927  0.7366  1.6830 -0.9500
  137OSM   H15T14841   2.663   3.930   3.938 -0.3818 -0.0548 -1.3337
  137OSM   C16S14842   2.628   3.796   4.094  0.3398 -0.0252 -0.0326
  137OSM   H16S14843   2.730   3.771   4.130  0.7794  0.3224 -1.0147
  137OSM   H16T14844   2.569   3.703   4.105  0.0629  0.1459 -0.0559
  137OSM   C17S14845   2.565   3.906   4.171  0.4780 -0.3503  0.2644
  137OSM   H17S14846   2.470   3.925   4.117  0.6196  2.2667  0.8010
  137OSM   H17T14847   2.616   4.005   4.171  1.2537 -0.7114  2.2140
  137OSM   C18S14848   2.520   3.878   4.317 -0.5469  0.6185  0.5631
  137OSM   H18S14849   2.605   3.842   4.378 -0.3125 -2.7418 -1.4837
  137OSM   H18T14850   2.458   3.786   4.322  1.7931 -1.0496  1.0129
  137OSM   H18U14851   2.453   3.954   4.361 -5.6794 -2.7757 -0.5296
  137OSM    C1F14852   2.383   3.927   2.590  0.8241 -0.1628  0.1358
  137OSM     OF14853   2.379   3.830   2.510  0.3362 -0.1855  0.2543
  137OSM    C2F14854   2.265   4.003   2.640  0.5985 -0.1206 -0.5255
  137OSM    H2F14855   2.171   3.972   2.588  0.4801  0.8893 -0.9440
  137OSM    H2G14856   2.275   4.114   2.641 -0.4581 -0.0202  0.1010
  137OSM    C3F14857   2.240   3.968   2.794  0.6632 -0.3082  0.5874
  137OSM    H3F14858   2.275   3.867   2.824  2.1006  0.1501  0.5542
  137OSM    H3G14859   2.132   3.983   2.813  0.1743 -1.7134 -0.9430
  137OSM    C4F14860   2.314   4.067   2.888  0.3948  0.5915  0.2188
  137OSM    H4F14861   2.305   4.173   2.855  1.4219  0.4034 -0.7493
  137OSM    H4G14862   2.422   4.040   2.888  0.3768  0.5225  0.3717
  137OSM    C5F14863   2.251   4.035   3.028 -0.5038 -0.2913 -1.1953
  137OSM    H5F14864   2.248   3.924   3.039  2.6157 -0.6037 -2.4996
  137OSM    H5G14865   2.148   4.075   3.014 -0.1246  0.9346 -0.6061
  137OSM    C6F14866   2.320   4.109   3.144  0.4565 -0.5571 -0.1496
  137OSM    H6F14867   2.426   4.077   3.134  0.9765  1.0348  0.0506
  137OSM    H6G14868   2.272   4.058   3.231  1.0659  0.2559  0.6765
  137OSM    C7F14869   2.285   4.256   3.153  0.5159 -0.4247  0.3833
  137OSM    H7F14870   2.176   4.266   3.174  1.1050 -0.2248  4.0269
  137OSM    H7G14871   2.306   4.304   3.055  0.2434 -0.0435  0.5082
  137OSM    C8F14872   2.367   4.310   3.271 -0.1635  0.1307  0.6756
  137OSM    H8F14873   2.455   4.241   3.269  0.6539  1.0938  1.9689
  137OSM    H8G14874   2.318   4.295   3.369  0.8535  1.4588  1.4190
  137OSM    C9F14875   2.405   4.454   3.252  0.7525 -0.7798  0.2104
  137OSM    H9F14876   2.454   4.484   3.158  0.5256  1.2969  0.7203
  137OSM   C10F14877   2.402   4.548   3.339 -0.9622 -0.0053  0.2562
  137OSM   H10F14878   2.432   4.650   3.311  0.0416  0.1941  1.9312
  137OSM   C11F14879   2.352   4.531   3.481 -0.7211  0.1056 -0.5578
  137OSM   H11F14880   2.264   4.465   3.486  0.5314 -1.6399 -0.6176
  137OSM   H11G14881   2.317   4.632   3.512  0.1014  0.5977 -1.1475
  137OSM   C12F14882   2.459   4.488   3.580  0.0945  0.1837  0.1884
  137OSM   H12F14883   2.549   4.552   3.578  1.1354 -1.1948  0.9559
  137OSM   H12G14884   2.497   4.389   3.547  1.0994  0.3896  0.7025
  137OSM   C13F14885   2.412   4.471   3.732  0.4878  0.0471 -0.1820
  137OSM   H13F14886   2.360   4.562   3.768  0.8221 -0.2351  1.0498
  137OSM   H13G14887   2.506   4.460   3.790  1.4838  0.8567 -1.5769
  137OSM   C14F14888   2.314   4.352   3.770  0.1328 -0.0819 -0.0422
  137OSM   H14F14889   2.348   4.253   3.734 -0.1825 -0.3556  0.4038
  137OSM   H14G14890   2.223   4.383   3.715 -2.6379  1.7489  4.8736
  137OSM   C15F14891   2.279   4.341   3.923 -0.2066 -0.1521 -0.4522
  137OSM   H15F14892   2.240   4.440   3.956 -1.7029 -0.8406 -0.0612
  137OSM   H15G14893   2.373   4.349   3.981 -0.6336  1.1604  0.1129
  137OSM   C16F14894   2.203   4.216   3.967 -0.3372  0.2536  0.0767
  137OSM   H16F14895   2.257   4.128   3.926  1.0345  1.6411 -1.2153
  137OSM   H16G14896   2.103   4.215   3.917  0.3971 -0.3024 -1.4434
  137OSM   C17F14897   2.179   4.217   4.116  0.5050 -0.2796 -0.4425
  137OSM   H17F14898   2.077   4.177   4.132  0.3151  0.6646  0.8956
  137OSM   H17G14899   2.169   4.324   4.142  2.2089 -0.4495  1.1725
  137OSM   C18F14900   2.284   4.154   4.204  0.1357 -0.4336  0.0701
  137OSM   H18F14901   2.286   4.046   4.177 -0.0184 -0.3310 -0.3522
  137OSM   H18G14902   2.262   4.165   4.312  0.4286 -1.2824  0.2284
  137OSM   H18H14903   2.387   4.189   4.181 -0.4440  0.6900 -0.9385
  138OSM      N14904   1.072   0.097   2.406  0.7648 -0.2680 -0.0781
  138OSM    C1514905   1.113   0.163   2.536 -0.0373  0.3362  0.4536
  138OSM   H15A14906   1.206   0.118   2.567 -0.2829 -1.2667 -0.9995
  138OSM   H15B14907   1.045   0.129   2.612 -0.1165  0.5448  0.4764
  138OSM   H15C14908   1.111   0.271   2.531  0.0396  0.3097 -0.2909
  138OSM    C1414909   0.916   0.109   2.394  0.0820 -0.4452  1.0660
  138OSM   H14A14910   0.886   0.052   2.307  2.0996 -0.0911  0.0662
  138OSM   H14B14911   0.880   0.209   2.379 -3.4056 -1.8866 -1.5345
  138OSM   H14C14912   0.872   0.067   2.483 -1.1355 -0.2366  0.5819
  138OSM    C1314913   1.133   0.158   2.288 -0.1182  0.1299  0.5635
  138OSM   H13A14914   1.110   0.262   2.269 -0.6680 -0.2171 -0.8045
  138OSM   H13B14915   1.102   0.111   2.196 -1.2625  0.5835  0.6930
  138OSM   H13C14916   1.240   0.151   2.282 -0.2697 -1.0215 -2.5751
  138OSM    C1214917   1.090  -0.055   2.404 -0.2639 -0.4822  0.0826
  138OSM   H12A14918   1.073  -0.094   2.305  1.8658 -1.0562 -0.1104
  138OSM   H12B14919   1.020  -0.107   2.468 -1.0372 -0.6482 -0.8714
  138OSM    C1114920   1.236  -0.101   2.425  0.1482  0.3165 -0.1339
  138OSM   H11A14921   1.228  -0.209   2.447  0.3488  0.1714 -0.7362
  138OSM   H11B14922   1.276  -0.061   2.521  1.3022  1.0933 -0.9014
  138OSM      P14923   1.460  -0.002   2.312  0.2560 -0.5189 -0.2765
  138OSM    O1314924   1.544  -0.097   2.234  0.0504  0.6280  0.9725
  138OSM    O1414925   1.440   0.131   2.246  0.2237 -0.0550  0.4523
  138OSM    O1114926   1.517   0.008   2.459 -0.2796 -0.3897  0.3929
  138OSM    O1214927   1.315  -0.065   2.314 -0.8411  0.5767 -0.1414
  138OSM    C1S14928   1.480   0.114   2.547  0.4246 -0.2395  0.1056
  138OSM    H1S14929   1.370   0.117   2.566  0.7205 -2.4902  2.6304
  138OSM    H1T14930   1.534   0.210   2.529 -0.2611  0.0545 -0.4718
  138OSM     NF14931   1.509   0.207   2.766  0.0294  0.1672  0.2721
  138OSM    HNF14932   1.574   0.281   2.777 -0.9491  1.6360 -2.9073
  138OSM    C2S14933   1.539   0.086   2.688 -0.6396  0.0249 -0.6808
  138OSM    H2S14934   1.490   0.002   2.742  1.5159 -0.9247 -0.0850
  138OSM    C3S14935   1.688   0.049   2.672 -0.2878  0.3684 -0.1549
  138OSM    H3S14936   1.736   0.125   2.607  0.3164  0.2628  0.1587
  138OSM     O314937   1.719  -0.075   2.610 -0.2179  0.6634 -0.4465
  138OSM    HO314938   1.634  -0.100   2.572 -0.9054  1.2066  0.6835
  138OSM    C4S14939   1.760   0.077   2.802  0.0794 -0.4551 -0.4352
  138OSM    H4S14940   1.815   0.171   2.813  0.6211 -1.0315  2.6066
  138OSM    C5S14941   1.761  -0.011   2.904  0.3630 -0.0416  0.0853
  138OSM    H5S14942   1.717  -0.111   2.894 -0.5606  0.2924  0.6659
  138OSM    C6S14943   1.818   0.014   3.038 -0.0665  0.8834  0.6338
  138OSM    H6S14944   1.870   0.112   3.038  1.1520  0.3663  4.1553
  138OSM    H6T14945   1.892  -0.068   3.053 -0.2925  0.1236 -1.8367
  138OSM    C7S14946   1.706   0.028   3.142 -0.4198  0.7022  0.2345
  138OSM    H7S14947   1.656  -0.071   3.151  0.7320 -0.0291 -1.0234
  138OSM    H7T14948   1.647   0.114   3.105 -1.7924 -0.2628  0.0983
  138OSM    C8S14949   1.759   0.058   3.275  0.7860  0.1128  0.0433
  138OSM    H8S14950   1.785   0.166   3.284 -1.5260  0.8408 -1.0787
  138OSM    H8T14951   1.847  -0.005   3.298  1.3596  1.1003  0.5989
  138OSM    C9S14952   1.648   0.031   3.377  0.4467  0.7933  0.0854
  138OSM    H9S14953   1.618  -0.076   3.371  0.2885  0.8990 -1.2253
  138OSM    H9T14954   1.563   0.100   3.357 -1.4342 -0.6736  2.3770
  138OSM   C10S14955   1.693   0.060   3.518 -0.3041 -0.2093  0.3307
  138OSM   H10S14956   1.719   0.168   3.518 -0.0352 -0.2741  0.0585
  138OSM   H10T14957   1.782  -0.002   3.540  0.8065  1.5756  1.1311
  138OSM   C11S14958   1.585   0.038   3.622  0.2563  0.2577 -0.1516
  138OSM   H11S14959   1.554  -0.069   3.625 -2.1463  0.8484 -1.2425
  138OSM   H11T14960   1.503   0.099   3.578 -0.3499 -1.3348 -1.3469
  138OSM   C12S14961   1.615   0.063   3.765 -0.0804  0.0201 -0.1891
  138OSM   H12S14962   1.654   0.167   3.772  1.3438 -0.3664 -1.8383
  138OSM   H12T14963   1.704   0.003   3.794 -1.0552 -2.7227 -2.4532
  138OSM   C13S14964   1.501   0.033   3.859 -0.3531 -0.5978  0.2130
  138OSM   H13S14965   1.479  -0.076   3.856  1.2913 -0.9416 -1.1451
  138OSM   H13T14966   1.414   0.096   3.833 -0.0952 -0.7731 -1.1930
  138OSM   C14S14967   1.549   0.072   4.003 -0.3091 -0.4607 -0.0345
  138OSM   H14S14968   1.589   0.176   3.998  1.8845 -1.1768  1.1316
  138OSM   H14T14969   1.633   0.009   4.039  1.4597  1.7149 -0.1176
  138OSM   C15S14970   1.441   0.077   4.108  0.1359  0.0563 -0.2000
  138OSM   H15S14971   1.432  -0.030   4.135 -0.2141 -0.2306 -1.3759
  138OSM   H15T14972   1.339   0.111   4.078 -0.8416 -1.1337  1.5755
  138OSM   C16S14973   1.480   0.170   4.228  0.2922  0.1514 -0.6666
  138OSM   H16S14974   1.470   0.276   4.196  0.6255  0.5628  0.5422
  138OSM   H16T14975   1.588   0.163   4.254  0.4566 -0.8420 -1.5292
  138OSM   C17S14976   1.391   0.153   4.352  0.2035 -0.2161  0.2350
  138OSM   H17S14977   1.388   0.046   4.380 -0.5955 -0.6250 -1.3134
  138OSM   H17T14978   1.286   0.185   4.332 -0.8223 -2.1678  2.0852
  138OSM   C18S14979   1.435   0.239   4.466  0.1137 -0.0961  0.0304
  138OSM   H18S14980   1.524   0.201   4.519  0.0132  0.6730  0.7781
  138OSM   H18T14981   1.346   0.239   4.534  0.8300 -1.7614  1.0224
  138OSM   H18U14982   1.439   0.346   4.436 -0.7607 -0.4529 -1.4339
  138OSM    C1F14983   1.392   0.235   2.826 -0.1898  0.0022  0.0021
  138OSM     OF14984   1.295   0.164   2.800  0.4927 -0.4050 -0.2438
  138OSM    C2F14985   1.387   0.341   2.932 -0.1185 -0.3180  0.7698
  138OSM    H2F14986   1.415   0.443   2.897  0.0847 -0.7471 -0.3660
  138OSM    H2G14987   1.457   0.311   3.012  1.5049 -0.2637 -0.5652
  138OSM    C3F14988   1.251   0.351   3.006  0.0527 -0.2662  0.1950
  138OSM    H3F14989   1.223   0.246   3.029  0.2229  0.0494  1.9716
  138OSM    H3G14990   1.181   0.392   2.931 -3.9646 -3.4005  1.8761
  138OSM    C4F14991   1.259   0.428   3.137 -0.4137 -0.5855 -0.6603
  138OSM    H4F14992   1.156   0.433   3.179 -0.2437  0.7108 -0.3604
  138OSM    H4G14993   1.288   0.533   3.115 -0.7938 -0.4573 -0.5643
  138OSM    C5F14994   1.342   0.365   3.252  0.8931  0.3881 -0.5322
  138OSM    H5F14995   1.449   0.376   3.223  0.6091  0.1415 -1.7541
  138OSM    H5G14996   1.302   0.264   3.276  0.6257  0.7455  0.5437
  138OSM    C6F14997   1.322   0.435   3.388  0.8024 -0.4896  0.0944
  138OSM    H6F14998   1.298   0.537   3.351  0.4192 -1.5246 -2.8417
  138OSM    H6G14999   1.419   0.447   3.441  1.1381  2.5301 -1.0497
  138OSM    C7F15000   1.205   0.378   3.470  0.3395 -0.2173 -0.1145
  138OSM    H7F15001   1.127   0.347   3.398  0.0134  1.6074 -0.5952
  138OSM    H7G15002   1.161   0.461   3.528 -1.1323 -0.7290 -0.4707
  138OSM    C8F15003   1.229   0.270   3.570  0.4424  0.2972 -0.5927
  138OSM    H8F15004   1.272   0.179   3.522 -1.7751 -1.9272  1.3042
  138OSM    H8G15005   1.127   0.243   3.605  1.1023 -0.5966  0.6931
  138OSM    C9F15006   1.312   0.337   3.677 -0.3187 -0.3042 -0.0708
  138OSM    H9F15007   1.418   0.345   3.650 -0.7441 -0.3366 -1.9208
  138OSM   C10F15008   1.269   0.367   3.798 -0.2168 -0.1175  0.4442
  138OSM   H10F15009   1.340   0.423   3.861 -1.3068  1.4046  0.3675
  138OSM   C11F15010   1.131   0.370   3.850  0.1958 -0.1788  0.2289
  138OSM   H11F15011   1.118   0.270   3.897  1.6238  0.2632  1.6767
  138OSM   H11G15012   1.058   0.396   3.770  1.3799  1.2629 -0.4333
  138OSM   C12F15013   1.108   0.494   3.946  0.1519 -0.6480  0.1473
  138OSM   H12F15014   0.999   0.498   3.964 -0.3544 -0.7610 -2.4523
  138OSM   H12G15015   1.131   0.588   3.890 -0.3387  0.2770  1.4501
  138OSM   C13F15016   1.181   0.483   4.083 -0.0725 -1.1090  0.2238
  138OSM   H13F15017   1.276   0.427   4.071  0.8277  0.3281  0.3832
  138OSM   H13G15018   1.120   0.432   4.160 -0.8948 -0.2775  0.1470
  138OSM   C14F15019   1.215   0.622   4.151  0.3011 -0.0019 -0.1231
  138OSM   H14F15020   1.125   0.684   4.172  0.8270  0.2144  1.6491
  138OSM   H14G15021   1.281   0.670   4.076 -1.6653 -0.8024 -2.5029
  138OSM   C15F15022   1.282   0.596   4.282 -0.2206  0.7674 -0.3168
  138OSM   H15F15023   1.369   0.534   4.249  1.3794  2.4887  0.4699
  138OSM   H15G15024   1.220   0.532   4.349  0.1063  0.6286 -0.1402
  138OSM   C16F15025   1.330   0.717   4.363 -0.2585  0.5972  0.1001
  138OSM   H16F15026   1.239   0.774   4.391 -0.1957  0.5820  0.3360
  138OSM   H16G15027   1.387   0.769   4.283 -0.0740 -1.4229 -1.1690
  138OSM   C17F15028   1.412   0.681   4.480  0.3244 -0.0917 -0.3694
  138OSM   H17F15029   1.507   0.627   4.457 -0.3156 -0.5843 -2.0061
  138OSM   H17G15030   1.372   0.605   4.551 -0.3864  1.1913  0.6448
  138OSM   C18F15031   1.436   0.809   4.558 -0.2270  0.1966 -0.5395
  138OSM   H18F15032   1.343   0.856   4.598  0.1060  0.7739 -0.4286
  138OSM   H18G15033   1.494   0.883   4.499  0.6375  2.4561  2.8881
  138OSM   H18H15034   1.500   0.785   4.645 -1.2365  0.9437  0.4387
  139OSM      N15035   3.130   4.616   1.923  0.4805 -0.0396 -0.0372
  139OSM    C1515036   3.055   4.703   1.831  0.3763  0.4712  0.0076
  139OSM   H15A15037   2.954   4.669   1.815  0.4747 -0.2661  0.8590
  139OSM   H15B15038   3.101   4.706   1.733 -0.2924 -0.1945 -0.3356
  139OSM   H15C15039   3.052   4.802   1.874 -1.0285 -0.1859  1.5270
  139OSM    C1415040   3.103   4.471   1.896  0.1482 -0.2794  0.8882
  139OSM   H14A15041   3.156   4.416   1.972 -0.9297 -2.0635  0.4180
  139OSM   H14B15042   3.138   4.451   1.796  1.3824  1.2891  0.9717
  139OSM   H14C15043   2.996   4.457   1.901 -0.0327 -0.7288 -2.3510
  139OSM    C1315044   3.283   4.635   1.900  0.1600  0.0594  0.2675
  139OSM   H13A15045   3.300   4.612   1.796 -1.4413  2.3467 -0.5734
  139OSM   H13B15046   3.334   4.559   1.958 -2.2341 -2.0667 -0.2435
  139OSM   H13C15047   3.312   4.737   1.920 -0.6048  0.3513 -0.0986
  139OSM    C1215048   3.096   4.644   2.071  0.0517  0.0816 -0.4791
  139OSM   H12A15049   2.991   4.629   2.091  0.7459 -2.5662  1.7741
  139OSM   H12B15050   3.122   4.746   2.093  0.4872  0.1822 -1.4155
  139OSM    C1115051   3.153   4.554   2.185 -0.5112 -0.7157  0.6949
  139OSM   H11A15052   3.144   4.443   2.183  0.0450 -0.8139  2.3185
  139OSM   H11B15053   3.096   4.569   2.279  1.3843 -1.9353  2.1066
  139OSM      P15054   3.354   4.681   2.267 -0.0919 -0.4119 -0.1387
  139OSM    O1315055   3.500   4.668   2.268  0.1937 -0.7427 -0.1748
  139OSM    O1415056   3.304   4.803   2.194  0.0316  0.2903 -0.0821
  139OSM    O1115057   3.309   4.679   2.418  0.6159  0.0642  0.6027
  139OSM    O1215058   3.298   4.553   2.193  0.2058 -0.4305  0.0089
  139OSM    C1S15059   3.307   4.561   2.496 -0.3425 -0.1284  0.7601
  139OSM    H1S15060   3.388   4.493   2.462 -2.2251 -1.7769 -0.6908
  139OSM    H1T15061   3.216   4.500   2.477 -0.5168  0.2398  0.3910
  139OSM     NF15062   3.329   4.477   2.725 -0.0145 -1.0459  0.2212
  139OSM    HNF15063   3.259   4.432   2.781 -1.8448  1.2550 -0.0292
  139OSM    C2S15064   3.300   4.590   2.644 -0.2561  0.2553 -0.1240
  139OSM    H2S15065   3.373   4.670   2.667 -3.8543  4.9606 -3.1786
  139OSM    C3S15066   3.163   4.657   2.669  0.0545 -0.4865 -0.3750
  139OSM    H3S15067   3.083   4.582   2.656 -0.3542 -0.5236  1.9204
  139OSM     O315068   3.139   4.772   2.586 -0.4752 -0.4379  0.0249
  139OSM    HO315069   3.218   4.763   2.533 -0.1145 -1.8763  0.7300
  139OSM    C4S15070   3.133   4.696   2.819  0.1984  0.2232  0.6959
  139OSM    H4S15071   3.083   4.618   2.879 -1.0543  1.1548  0.9194
  139OSM    C5S15072   3.166   4.809   2.880  0.5078 -0.6010  0.2722
  139OSM    H5S15073   3.225   4.884   2.825  0.4715 -1.1231 -0.5031
  139OSM    C6S15074   3.134   4.845   3.021 -0.6137 -0.5545  0.0470
  139OSM    H6S15075   3.034   4.803   3.044 -0.3056 -1.2168  0.1902
  139OSM    H6T15076   3.138   4.955   3.037 -2.4761 -0.2494 -1.2467
  139OSM    C7S15077   3.223   4.776   3.119 -0.3642 -0.0274 -0.2658
  139OSM    H7S15078   3.331   4.802   3.107 -0.4778  0.4771 -0.2180
  139OSM    H7T15079   3.223   4.665   3.111 -0.3797 -0.1505  1.1004
  139OSM    C8S15080   3.182   4.810   3.263  0.5164 -0.0735 -0.6480
  139OSM    H8S15081   3.084   4.757   3.271 -0.2699  1.3345 -0.5698
  139OSM    H8T15082   3.172   4.916   3.294  0.1598 -0.3890  0.3752
  139OSM    C9S15083   3.273   4.745   3.378 -0.0242  0.2028  0.2326
  139OSM    H9S15084   3.376   4.787   3.376 -0.1810  0.5463 -1.4372
  139OSM    H9T15085   3.300   4.640   3.354 -1.0304 -0.5441  2.1407
  139OSM   C10S15086   3.228   4.746   3.521  0.0658 -0.0629 -0.2395
  139OSM   H10S15087   3.138   4.686   3.547  0.6491 -0.3049  1.3111
  139OSM   H10T15088   3.193   4.850   3.540  0.2740 -0.2421  1.2265
  139OSM   C11S15089   3.333   4.707   3.620  0.1254 -0.6261  0.2522
  139OSM   H11S15090   3.417   4.777   3.602 -0.2150 -0.1035  0.6516
  139OSM   H11T15091   3.384   4.613   3.591  2.0115  0.6450 -0.7514
  139OSM   C12S15092   3.294   4.709   3.772 -0.0489 -0.2536  0.4388
  139OSM   H12S15093   3.200   4.654   3.794 -1.1938  2.3166  2.4587
  139OSM   H12T15094   3.263   4.813   3.796 -1.9866 -0.7742  0.3726
  139OSM   C13S15095   3.409   4.662   3.868  0.7904  0.2718  1.0573
  139OSM   H13S15096   3.491   4.737   3.872  0.8042  0.5703 -2.1206
  139OSM   H13T15097   3.446   4.564   3.833  0.0612  1.1137 -2.4919
  139OSM   C14S15098   3.361   4.657   4.015 -0.1622 -0.3722 -0.2328
  139OSM   H14S15099   3.430   4.601   4.081 -0.8235  0.3055  1.0596
  139OSM   H14T15100   3.268   4.602   4.041 -0.8168  0.8234  0.0197
  139OSM   C15S15101   3.351   4.804   4.062 -0.5402  0.0993 -0.1202
  139OSM   H15S15102   3.278   4.855   3.996 -0.2423  0.0082 -0.5213
  139OSM   H15T15103   3.449   4.854   4.047 -1.3008  1.3014 -1.2354
  139OSM   C16S15104   3.309   4.809   4.213  0.5797  0.0002 -0.1850
  139OSM   H16S15105   3.372   4.731   4.260  0.9194 -2.0070 -3.5712
  139OSM   H16T15106   3.207   4.770   4.233  0.2233  0.3673 -1.1989
  139OSM   C17S15107   3.317   4.943   4.279 -0.5304 -0.0692 -0.3087
  139OSM   H17S15108   3.295   4.925   4.386  1.0685  0.1528  0.0780
  139OSM   H17T15109   3.241   5.007   4.228 -0.5871  1.3720  1.4796
  139OSM   C18S15110   3.457   4.995   4.280 -0.1798  0.2189 -0.3538
  139OSM   H18S15111   3.496   5.019   4.178 -0.7400 -2.2172 -1.2165
  139OSM   H18T15112   3.526   4.921   4.326 -1.4021 -2.2804 -2.3074
  139OSM   H18U15113   3.468   5.087   4.342  1.4303  0.9223 -1.5877
  139OSM    C1F15114   3.451   4.429   2.716 -0.2337 -0.5020 -0.4076
  139OSM     OF15115   3.550   4.499   2.696  0.1281  0.3033  0.2470
  139OSM    C2F15116   3.465   4.281   2.735  0.1504 -0.2105  0.7323
  139OSM    H2F15117   3.487   4.240   2.634  0.0115  1.9676 -0.2305
  139OSM    H2G15118   3.370   4.234   2.767 -0.5936 -0.0391 -1.0846
  139OSM    C3F15119   3.579   4.240   2.836 -0.0326  0.9155  0.2705
  139OSM    H3F15120   3.672   4.299   2.820  0.0957  0.9640  1.1611
  139OSM    H3G15121   3.610   4.135   2.812 -0.8250  0.7683 -0.1335
  139OSM    C4F15122   3.552   4.233   2.987 -0.2180  0.1579 -0.7659
  139OSM    H4F15123   3.644   4.212   3.046 -1.6775 -0.2046  1.5031
  139OSM    H4G15124   3.484   4.148   3.008 -0.8765  1.0399  0.8218
  139OSM    C5F15125   3.485   4.368   3.027  0.8772 -0.5240 -0.0820
  139OSM    H5F15126   3.394   4.394   2.970  0.7795 -1.6043 -0.4259
  139OSM    H5G15127   3.562   4.448   3.016 -0.6662  1.1984  1.1390
  139OSM    C6F15128   3.415   4.371   3.169  0.0079 -0.0483  0.3219
  139OSM    H6F15129   3.368   4.272   3.187  0.0798 -0.1016  0.2174
  139OSM    H6G15130   3.336   4.449   3.169  0.1328  0.0820 -0.0945
  139OSM    C7F15131   3.516   4.414   3.271  0.2522  1.0010 -0.2196
  139OSM    H7F15132   3.542   4.520   3.254 -0.6232  1.1620 -0.6238
  139OSM    H7G15133   3.605   4.350   3.255 -1.3831 -1.0226 -1.9822
  139OSM    C8F15134   3.479   4.392   3.414  0.4643  1.0072 -0.3991
  139OSM    H8F15135   3.382   4.445   3.425  0.3510  0.9825 -1.2556
  139OSM    H8G15136   3.546   4.438   3.491 -2.8392  1.9806  2.1298
  139OSM    C9F15137   3.449   4.249   3.450 -0.0814 -0.2880  0.3362
  139OSM    H9F15138   3.464   4.175   3.370 -0.0846 -0.1520  0.2113
  139OSM   C10F15139   3.413   4.209   3.570  0.7644 -0.0456 -0.0791
  139OSM   H10F15140   3.387   4.104   3.591 -1.0703  0.6705  1.5349
  139OSM   C11F15141   3.384   4.303   3.683 -0.3030 -0.3364  0.2047
  139OSM   H11F15142   3.296   4.366   3.659 -0.7638  1.1771  4.8611
  139OSM   H11G15143   3.471   4.372   3.694 -1.6129  1.8124 -1.9366
  139OSM   C12F15144   3.361   4.238   3.823 -0.0421  0.5176  0.1733
  139OSM   H12F15145   3.441   4.161   3.828 -1.1708 -0.6602  0.7736
  139OSM   H12G15146   3.262   4.187   3.829  0.0509  0.4127  5.6680
  139OSM   C13F15147   3.364   4.325   3.950 -0.4191 -0.1693 -0.3511
  139OSM   H13F15148   3.283   4.401   3.943  1.4325  2.0388  0.6311
  139OSM   H13G15149   3.463   4.375   3.950  1.2901 -3.2822  0.2120
  139OSM   C14F15150   3.361   4.240   4.079 -0.2231  0.5910  0.3985
  139OSM   H14F15151   3.424   4.148   4.080 -1.0474 -0.0029  1.8468
  139OSM   H14G15152   3.259   4.208   4.107  0.1967  0.2255  1.5558
  139OSM   C15F15153   3.415   4.308   4.204  0.3943  0.2290 -0.3880
  139OSM   H15F15154   3.336   4.387   4.212 -0.6216 -0.6644 -1.3284
  139OSM   H15G15155   3.518   4.350   4.199  0.6272 -0.2399  0.3465
  139OSM   C16F15156   3.414   4.210   4.323  0.0271 -0.2319 -0.4286
  139OSM   H16F15157   3.505   4.147   4.324 -0.5971 -1.1959  1.5878
  139OSM   H16G15158   3.334   4.137   4.302 -1.2799  1.5461 -2.0343
  139OSM   C17F15159   3.398   4.285   4.457 -0.1496  0.1759  0.0271
  139OSM   H17F15160   3.302   4.339   4.467  0.5448  1.6478 -0.9153
  139OSM   H17G15161   3.463   4.373   4.437 -1.9549  1.5134 -0.1974
  139OSM   C18F15162   3.442   4.214   4.582  0.2704  0.6466  0.2436
  139OSM   H18F15163   3.362   4.142   4.610 -0.7300  1.4541 -0.4617
  139OSM   H18G15164   3.461   4.288   4.663 -0.3071  0.7974  0.2438
  139OSM   H18H15165   3.533   4.151   4.566  1.0076  0.8442  3.1275
  140OSM      N15166   1.248   2.117   2.541 -0.1248  0.4411  1.0682
  140OSM    C1515167   1.294   2.191   2.663 -0.4741 -0.1345  0.3489
  140OSM   H15A15168   1.208   2.229   2.717  0.0277  2.8492 -0.7700
  140OSM   H15B15169   1.360   2.275   2.645  1.0197 -1.1709  0.7639
  140OSM   H15C15170   1.355   2.134   2.732  0.2817 -0.0404 -0.2303
  140OSM    C1415171   1.169   1.998   2.591 -0.3292 -0.0865 -0.2190
  140OSM   H14A15172   1.168   1.916   2.521 -0.3180  0.4046 -0.8106
  140OSM   H14B15173   1.064   2.017   2.609 -0.8951 -2.8769 -0.1995
  140OSM   H14C15174   1.203   1.966   2.688 -1.7398  0.2936  0.4299
  140OSM    C1315175   1.160   2.207   2.463  0.3869  0.0350 -0.5468
  140OSM   H13A15176   1.108   2.158   2.382  0.5529  1.4996 -1.5908
  140OSM   H13B15177   1.215   2.291   2.422  0.1088  0.9835  0.9263
  140OSM   H13C15178   1.088   2.266   2.518  0.1693 -0.8435  0.1329
  140OSM    C1215179   1.362   2.075   2.450  0.7644  0.1431  0.7154
  140OSM   H12A15180   1.412   2.166   2.419 -1.3554  1.9384  2.2302
  140OSM   H12B15181   1.317   2.031   2.362  1.8763  2.3536 -1.0627
  140OSM    C1115182   1.454   1.966   2.515 -0.7427  0.7240  0.2983
  140OSM   H11A15183   1.393   1.874   2.523 -0.1791  0.2623 -0.6114
  140OSM   H11B15184   1.492   1.998   2.615 -0.4396  1.6705 -0.1075
  140OSM      P15185   1.658   1.811   2.430 -0.4632  0.1376 -0.0519
  140OSM    O1315186   1.579   1.690   2.385  0.5432  0.0504 -0.3651
  140OSM    O1415187   1.781   1.845   2.349  0.1916  0.3083 -0.4476
  140OSM    O1115188   1.691   1.789   2.582  0.0149 -0.4584  0.6086
  140OSM    O1215189   1.570   1.938   2.427 -0.2895  0.3373 -0.1299
  140OSM    C1S15190   1.810   1.733   2.634 -0.8058 -0.1147  0.2841
  140OSM    H1S15191   1.901   1.784   2.595  1.7597 -0.6978  4.7968
  140OSM    H1T15192   1.821   1.625   2.610  1.9392  0.0195  0.5936
  140OSM     NF15193   1.938   1.655   2.828  0.2187  0.2761  0.0072
  140OSM    HNF15194   1.928   1.565   2.869  3.1328 -0.1093  0.0398
  140OSM    C2S15195   1.822   1.732   2.791 -0.2108 -0.1825 -0.0138
  140OSM    H2S15196   1.828   1.841   2.811 -0.5484  0.3516 -2.4587
  140OSM    C3S15197   1.689   1.684   2.854 -0.6773  0.4088 -0.0078
  140OSM    H3S15198   1.653   1.590   2.808 -1.1379  0.8070 -0.4697
  140OSM     O315199   1.579   1.768   2.835  0.5411 -0.2155  0.7894
  140OSM    HO315200   1.593   1.814   2.752 -1.9714 -1.1842 -0.2963
  140OSM    C4S15201   1.691   1.660   3.000 -0.0894 -0.6065 -0.3424
  140OSM    H4S15202   1.701   1.752   3.059 -1.1419 -1.0812  0.6211
  140OSM    C5S15203   1.663   1.542   3.064 -0.2653 -0.3257  0.3578
  140OSM    H5S15204   1.634   1.456   3.003 -0.7308  0.2882 -0.2961
  140OSM    C6S15205   1.641   1.508   3.207  0.3430 -0.7237  0.0057
  140OSM    H6S15206   1.705   1.419   3.226  0.7902 -0.0955  1.6380
  140OSM    H6T15207   1.536   1.480   3.228  0.5697 -2.0433 -0.4830
  140OSM    C7S15208   1.685   1.617   3.304 -0.0496 -0.8762 -0.2662
  140OSM    H7S15209   1.629   1.711   3.288  0.9280 -0.1072  0.6715
  140OSM    H7T15210   1.794   1.635   3.293  0.2520 -1.4716  1.4879
  140OSM    C8S15211   1.667   1.580   3.457 -0.2263 -0.9305 -0.2184
  140OSM    H8S15212   1.710   1.480   3.479 -0.5275 -0.6746  1.6425
  140OSM    H8T15213   1.558   1.568   3.473 -0.2875  0.7305  0.7593
  140OSM    C9S15214   1.704   1.697   3.551 -0.4120 -0.0390 -0.1341
  140OSM    H9S15215   1.630   1.778   3.540 -0.3693 -0.0154 -0.2435
  140OSM    H9T15216   1.801   1.748   3.537 -1.8585  2.3779 -2.0124
  140OSM   C10S15217   1.702   1.635   3.694  0.3116  0.4821  0.5264
  140OSM   H10S15218   1.791   1.569   3.697 -0.7209 -1.1463 -1.7537
  140OSM   H10T15219   1.606   1.579   3.697 -1.3786  3.2638  2.5792
  140OSM   C11S15220   1.716   1.728   3.811  0.0146 -0.1525  0.0250
  140OSM   H11S15221   1.639   1.807   3.798 -0.7590 -0.7070  1.1340
  140OSM   H11T15222   1.814   1.781   3.812  1.3424 -2.4199 -0.8300
  140OSM   C12S15223   1.699   1.659   3.942  0.6009 -0.3122 -0.1566
  140OSM   H12S15224   1.794   1.604   3.959 -0.9905 -2.8466  1.2365
  140OSM   H12T15225   1.618   1.584   3.930 -0.6491  0.8191  0.8836
  140OSM   C13S15226   1.688   1.742   4.072  0.0931 -0.0394 -0.1595
  140OSM   H13S15227   1.620   1.826   4.047  1.3773  0.4757 -2.1056
  140OSM   H13T15228   1.783   1.789   4.104  0.8345 -2.2290  1.0978
  140OSM   C14S15229   1.629   1.658   4.195 -0.1990 -0.3811 -0.1632
  140OSM   H14S15230   1.710   1.586   4.220  0.7954  1.2665  1.6054
  140OSM   H14T15231   1.528   1.617   4.173 -0.1465 -0.6919  0.1762
  140OSM   C15S15232   1.603   1.759   4.316 -0.0616  0.8556 -0.7072
  140OSM   H15S15233   1.511   1.818   4.295 -0.2004  0.4920 -1.1355
  140OSM   H15T15234   1.682   1.834   4.340 -1.0560  1.4704  0.7866
  140OSM   C16S15235   1.585   1.694   4.460  0.0111 -1.1398  0.5475
  140OSM   H16S15236   1.505   1.617   4.452 -0.3803 -0.7446  0.6442
  140OSM   H16T15237   1.545   1.777   4.523  0.0607 -0.2128 -0.6129
  140OSM   C17S15238   1.714   1.629   4.518  0.0128 -0.6987  0.6149
  140OSM   H17S15239   1.798   1.700   4.529  0.0042 -0.4954 -0.5859
  140OSM   H17T15240   1.747   1.542   4.458 -0.5740 -0.8295  0.4734
  140OSM   C18S15241   1.691   1.571   4.661  0.1246 -0.5125 -0.2118
  140OSM   H18S15242   1.698   1.651   4.737  0.5220 -1.5813  0.9039
  140OSM   H18T15243   1.775   1.500   4.676  0.7652 -0.9571 -4.4576
  140OSM   H18U15244   1.591   1.526   4.679 -0.3752  1.2293  1.7196
  140OSM    C1F15245   2.051   1.714   2.812 -0.3829  0.4623  0.0445
  140OSM     OF15246   2.066   1.832   2.787  0.3372  0.4070 -0.5179
  140OSM    C2F15247   2.171   1.617   2.833 -0.3854 -0.4758  0.5810
  140OSM    H2F15248   2.199   1.556   2.745  1.1192 -1.0203  1.4029
  140OSM    H2G15249   2.139   1.544   2.910 -0.7024 -3.8881 -2.5325
  140OSM    C3F15250   2.296   1.704   2.879  0.2338  0.3063  0.5439
  140OSM    H3F15251   2.307   1.803   2.829  1.2260  0.8426  1.7414
  140OSM    H3G15252   2.379   1.636   2.852  1.5796  1.9245  0.4795
  140OSM    C4F15253   2.277   1.725   3.030  0.4455 -0.0981  0.1452
  140OSM    H4F15254   2.289   1.629   3.085  0.1640  0.6574  1.5761
  140OSM    H4G15255   2.176   1.765   3.053 -0.4057 -1.0985 -1.5901
  140OSM    C5F15256   2.383   1.814   3.096  0.0162  0.5430  0.4452
  140OSM    H5F15257   2.405   1.914   3.053  1.8138 -0.6401 -1.5810
  140OSM    H5G15258   2.478   1.758   3.078 -1.0347 -1.3305  0.4264
  140OSM    C6F15259   2.371   1.817   3.248  0.3917  0.3930  0.0673
  140OSM    H6F15260   2.382   1.714   3.287  0.1398 -0.1201 -1.1541
  140OSM    H6G15261   2.267   1.846   3.274  1.4922  1.5761  3.7435
  140OSM    C7F15262   2.464   1.921   3.312  0.0286 -0.1287 -0.6610
  140OSM    H7F15263   2.417   2.019   3.288 -0.0744  0.1249  0.4911
  140OSM    H7G15264   2.566   1.898   3.275  0.7451 -1.6182  1.9374
  140OSM    C8F15265   2.475   1.917   3.468 -0.4451 -0.0479  0.3921
  140OSM    H8F15266   2.376   1.940   3.512 -1.3922 -1.7132 -0.7842
  140OSM    H8G15267   2.525   2.013   3.495 -1.6469  0.9254 -0.7497
  140OSM    C9F15268   2.539   1.794   3.528  0.7929 -0.7537  0.2635
  140OSM    H9F15269   2.588   1.723   3.459  1.1522  0.8228 -1.1595
  140OSM   C10F15270   2.549   1.775   3.657 -0.3534  0.1712 -0.7643
  140OSM   H10F15271   2.603   1.691   3.702 -0.0540  1.1000  0.6925
  140OSM   C11F15272   2.494   1.860   3.768  0.3985  0.1227  0.7711
  140OSM   H11F15273   2.399   1.806   3.787  0.7663  0.0227  2.5221
  140OSM   H11G15274   2.477   1.968   3.746  1.3696  0.1308 -0.0143
  140OSM   C12F15275   2.586   1.837   3.882  0.1198  0.2074 -0.7014
  140OSM   H12F15276   2.688   1.876   3.860  0.6493 -0.3201  0.6993
  140OSM   H12G15277   2.598   1.730   3.911 -1.3423 -0.9632 -4.0007
  140OSM   C13F15278   2.532   1.914   4.006 -0.4266 -0.1094  0.1249
  140OSM   H13F15279   2.422   1.899   4.013 -0.5249  0.5750  0.1121
  140OSM   H13G15280   2.546   2.023   3.993 -1.4401 -0.0297 -0.3877
  140OSM   C14F15281   2.603   1.881   4.135  0.2097  0.8315 -0.2744
  140OSM   H14F15282   2.713   1.897   4.132  0.3286  0.0432 -0.4400
  140OSM   H14G15283   2.592   1.770   4.135  2.5122  0.5125  1.5156
  140OSM   C15F15284   2.537   1.924   4.273  0.0827 -0.3889  0.6236
  140OSM   H15F15285   2.436   1.881   4.287 -0.2071 -0.3499 -1.0401
  140OSM   H15G15286   2.528   2.035   4.282 -0.5999 -0.6540  5.0997
  140OSM   C16F15287   2.619   1.892   4.393  0.0388 -0.2278  0.5563
  140OSM   H16F15288   2.719   1.939   4.382 -0.0079 -0.4205 -0.8655
  140OSM   H16G15289   2.636   1.783   4.385  0.7920 -0.0688 -0.2452
  140OSM   C17F15290   2.544   1.938   4.522  0.1753 -0.3041 -0.1156
  140OSM   H17F15291   2.443   1.893   4.527 -0.6025  1.4391  0.5479
  140OSM   H17G15292   2.526   2.046   4.538  1.1702  0.0727 -1.3632
  140OSM   C18F15293   2.615   1.885   4.646 -0.9361 -0.4964  0.6117
  140OSM   H18F15294   2.563   1.929   4.734 -1.4004 -0.3875  0.2896
  140OSM   H18G15295   2.721   1.918   4.634 -0.2438 -2.3499  1.3210
  140OSM   H18H15296   2.606   1.775   4.654  0.8886 -0.8226 -0.9689
  141OSM      N15297   1.638   4.560   1.878 -0.6264 -0.2630  0.3200
  141OSM    C1515298   1.581   4.673   1.960  0.1470 -0.2642 -0.3261
  141OSM   H15A15299   1.660   4.740   1.989 -0.3044  0.2808 -0.3379
  141OSM   H15B15300   1.523   4.639   2.045  0.8915 -0.0654  0.2720
  141OSM   H15C15301   1.511   4.738   1.908  0.8844  2.3354  1.7497
  141OSM    C1415302   1.537   4.459   1.850 -0.0234 -0.1306 -0.1905
  141OSM   H14A15303   1.589   4.382   1.794  1.4506  0.1218  0.7791
  141OSM   H14B15304   1.444   4.490   1.803 -0.8088 -0.2537  1.2380
  141OSM   H14C15305   1.502   4.411   1.940 -0.7332  0.0638 -0.3586
  141OSM    C1315306   1.699   4.603   1.751 -0.7460 -0.2743  0.8222
  141OSM   H13A15307   1.622   4.651   1.692  1.4777  1.1729 -1.0534
  141OSM   H13B15308   1.733   4.520   1.691 -0.5878  0.2811  0.1293
  141OSM   H13C15309   1.785   4.666   1.770 -0.3014 -0.8276  0.6540
  141OSM    C1215310   1.753   4.499   1.953 -0.8265  0.0748  0.1614
  141OSM   H12A15311   1.834   4.569   1.963  0.0402 -0.9508  0.4450
  141OSM   H12B15312   1.793   4.430   1.880 -0.8994  1.3371 -1.1126
  141OSM    C1115313   1.726   4.438   2.094  0.0204 -0.0757 -0.6914
  141OSM   H11A15314   1.673   4.514   2.156 -0.9955 -0.4732 -1.0489
  141OSM   H11B15315   1.817   4.408   2.150  0.5553  0.6973 -1.1218
  141OSM      P15316   1.686   4.192   2.060 -0.5249  0.4963  0.2191
  141OSM    O1315317   1.566   4.111   2.040 -0.0161  0.6119  0.3708
  141OSM    O1415318   1.767   4.207   1.945  0.0308 -0.2353 -0.4971
  141OSM    O1115319   1.766   4.134   2.185  0.0789 -0.4037 -0.1233
  141OSM    O1215320   1.633   4.328   2.096  0.3730  0.6985 -0.4265
  141OSM    C1S15321   1.727   4.144   2.327 -0.0807  0.3255 -0.5821
  141OSM    H1S15322   1.688   4.044   2.353 -0.4568  0.0666 -2.0479
  141OSM    H1T15323   1.654   4.226   2.348  0.9636  1.0403  0.4156
  141OSM     NF15324   1.801   4.168   2.565 -0.5238  0.0171 -0.2324
  141OSM    HNF15325   1.798   4.258   2.608 -0.6732 -0.0016 -0.2042
  141OSM    C2S15326   1.853   4.153   2.429  0.0520  0.5638 -0.0939
  141OSM    H2S15327   1.913   4.061   2.414 -0.0534  0.0288  2.3330
  141OSM    C3S15328   1.940   4.277   2.385  0.1131 -0.3695 -1.0580
  141OSM    H3S15329   1.861   4.355   2.376 -0.5207 -0.9180 -0.3376
  141OSM     O315330   2.004   4.269   2.261  0.0962  0.1960 -0.5198
  141OSM    HO315331   1.942   4.216   2.212 -2.2828  1.1862  1.2241
  141OSM    C4S15332   2.036   4.311   2.495 -0.2506  0.2796  0.0854
  141OSM    H4S15333   2.097   4.224   2.523  0.3316  0.8703  0.7135
  141OSM    C5S15334   2.047   4.426   2.567 -0.8638  0.0643 -0.5988
  141OSM    H5S15335   1.972   4.506   2.556 -1.2709  0.0360  1.5339
  141OSM    C6S15336   2.142   4.440   2.681  0.1527  0.6556 -0.7741
  141OSM    H6S15337   2.171   4.545   2.701  0.7296  0.3597 -0.0296
  141OSM    H6T15338   2.232   4.379   2.656 -1.5403 -2.1214 -0.5925
  141OSM    C7S15339   2.077   4.386   2.808 -0.2167  0.6976 -0.1464
  141OSM    H7S15340   2.153   4.368   2.887  0.6017  0.7186 -0.9135
  141OSM    H7T15341   2.044   4.282   2.785  1.7181 -0.2053  0.9407
  141OSM    C8S15342   1.961   4.460   2.875  0.0877 -0.0547 -0.2820
  141OSM    H8S15343   1.879   4.479   2.804 -0.2264 -0.7273 -0.1080
  141OSM    H8T15344   1.987   4.566   2.898  0.5724 -0.3944  0.8637
  141OSM    C9S15345   1.899   4.382   2.993 -0.4363  0.1330 -0.2878
  141OSM    H9S15346   1.923   4.274   2.986 -0.1657 -0.0110  2.1280
  141OSM    H9T15347   1.790   4.405   2.993 -0.5290 -0.2895 -0.6055
  141OSM   C10S15348   1.956   4.440   3.125  0.7558 -0.2388 -0.2670
  141OSM   H10S15349   1.921   4.544   3.144  1.2693 -0.2487  0.8110
  141OSM   H10T15350   2.065   4.453   3.134  0.6344  1.1817 -0.5434
  141OSM   C11S15351   1.911   4.363   3.247 -0.6659  0.2998  0.1035
  141OSM   H11S15352   1.930   4.257   3.217  1.7645  0.4703  0.8433
  141OSM   H11T15353   1.803   4.384   3.265 -0.7247  0.2414 -0.1714
  141OSM   C12S15354   1.980   4.380   3.376 -0.1257 -0.0728  0.1859
  141OSM   H12S15355   1.974   4.479   3.427  0.5295 -1.2111  2.6186
  141OSM   H12T15356   2.089   4.369   3.358 -0.1450  0.0080  0.0160
  141OSM   C13S15357   1.958   4.272   3.487 -0.1338  0.3947  0.1752
  141OSM   H13S15358   1.867   4.212   3.463 -0.1523  0.1976  0.7113
  141OSM   H13T15359   1.935   4.319   3.585 -0.7311 -1.9854  1.2473
  141OSM   C14S15360   2.078   4.174   3.495 -0.0437 -0.0749 -0.2577
  141OSM   H14S15361   2.167   4.234   3.525 -0.5763  1.1652 -1.0928
  141OSM   H14T15362   2.096   4.127   3.397  0.3905  0.3142 -0.3702
  141OSM   C15S15363   2.056   4.069   3.607  0.6279 -0.0068 -0.1083
  141OSM   H15S15364   1.953   4.028   3.596 -0.3977  2.6589 -1.3564
  141OSM   H15T15365   2.060   4.123   3.704  1.3056 -1.3603  0.6515
  141OSM   C16S15366   2.168   3.964   3.621  0.0499 -0.0834 -0.7590
  141OSM   H16S15367   2.258   4.028   3.629 -0.2786  0.2534  0.5421
  141OSM   H16T15368   2.171   3.904   3.527  1.1679 -0.4106 -0.5294
  141OSM   C17S15369   2.158   3.872   3.746  0.0944  0.0233 -0.4282
  141OSM   H17S15370   2.076   3.797   3.736  0.2839 -0.2020 -0.3236
  141OSM   H17T15371   2.139   3.934   3.835 -1.5472 -2.2727  0.9286
  141OSM   C18S15372   2.279   3.785   3.759  0.1759  0.2143 -0.4314
  141OSM   H18S15373   2.372   3.846   3.768 -0.7646  1.7711 -0.9285
  141OSM   H18T15374   2.290   3.707   3.680 -0.0080 -1.1035  0.8062
  141OSM   H18U15375   2.270   3.724   3.851  0.5417 -0.2950 -0.7277
  141OSM    C1F15376   1.762   4.071   2.642 -0.1765  0.4921  0.2018
  141OSM     OF15377   1.748   3.958   2.600 -0.4576  0.1374  0.1703
  141OSM    C2F15378   1.748   4.107   2.785  0.8007 -0.2440  0.1549
  141OSM    H2F15379   1.671   4.186   2.790  0.6365 -0.3779 -0.1768
  141OSM    H2G15380   1.847   4.140   2.823  0.6548  1.7543 -1.0452
  141OSM    C3F15381   1.696   3.982   2.864  0.8366 -0.3350  0.5727
  141OSM    H3F15382   1.740   3.885   2.832  3.0189  1.2949 -1.7861
  141OSM    H3G15383   1.587   3.969   2.850  0.5248  1.8542  0.5863
  141OSM    C4F15384   1.705   4.000   3.017  0.1145  0.1971  0.0528
  141OSM    H4F15385   1.811   4.017   3.047  0.3645 -2.2547  0.8730
  141OSM    H4G15386   1.687   3.898   3.058  0.7532 -0.1099 -0.4186
  141OSM    C5F15387   1.614   4.105   3.068 -0.2083  0.2666 -0.2778
  141OSM    H5F15388   1.506   4.083   3.052  0.1791 -1.3438 -0.8566
  141OSM    H5G15389   1.621   4.207   3.024 -1.6281  1.3686  1.9079
  141OSM    C6F15390   1.638   4.121   3.217  0.0889  0.1291  0.1089
  141OSM    H6F15391   1.719   4.195   3.237  2.4651 -2.6493  1.5387
  141OSM    H6G15392   1.677   4.026   3.260  1.5493  1.8132  2.7812
  141OSM    C7F15393   1.518   4.170   3.299  0.4821 -0.3401 -0.8106
  141OSM    H7F15394   1.444   4.087   3.295 -1.3210  1.2084 -1.2082
  141OSM    H7G15395   1.469   4.250   3.239 -0.3693 -1.3325 -1.4819
  141OSM    C8F15396   1.559   4.211   3.437 -0.2509 -0.3564 -0.0115
  141OSM    H8F15397   1.649   4.276   3.427 -1.4668  1.7798  1.8996
  141OSM    H8G15398   1.583   4.124   3.502 -0.8667  0.9199  2.0521
  141OSM    C9F15399   1.454   4.288   3.512 -0.0066  0.0193 -0.6036
  141OSM    H9F15400   1.407   4.363   3.447  0.4085  0.8769  0.0547
  141OSM   C10F15401   1.417   4.257   3.640  0.4717 -0.0403 -0.5862
  141OSM   H10F15402   1.332   4.316   3.675 -1.0096 -0.9475 -2.4557
  141OSM   C11F15403   1.472   4.151   3.734  0.2884  0.0787  0.9715
  141OSM   H11F15404   1.529   4.079   3.671 -3.2242 -0.9273 -1.2898
  141OSM   H11G15405   1.380   4.099   3.767 -1.7685  2.3188 -0.9032
  141OSM   C12F15406   1.550   4.210   3.854 -0.8226  0.3523  0.0734
  141OSM   H12F15407   1.604   4.298   3.812 -3.0548  1.1599 -1.2702
  141OSM   H12G15408   1.621   4.133   3.891 -0.0166  1.1363  0.2055
  141OSM   C13F15409   1.455   4.249   3.967  0.1560 -0.0724 -0.4495
  141OSM   H13F15410   1.382   4.164   3.968  0.1238 -0.0380  0.5268
  141OSM   H13G15411   1.402   4.337   3.923 -2.8838 -1.4498  0.1429
  141OSM   C14F15412   1.516   4.285   4.104 -0.1329  0.0738  0.6154
  141OSM   H14F15413   1.580   4.375   4.092  2.4952 -1.7018  0.4494
  141OSM   H14G15414   1.571   4.198   4.145 -1.1737 -0.7527  0.3215
  141OSM   C15F15415   1.392   4.302   4.196  0.4683 -0.1863 -0.2858
  141OSM   H15F15416   1.348   4.203   4.220 -0.4965  1.0115  3.6830
  141OSM   H15G15417   1.321   4.367   4.139  2.1548  2.4822  0.4473
  141OSM   C16F15418   1.425   4.372   4.322 -0.4351 -0.3532 -0.3864
  141OSM   H16F15419   1.332   4.410   4.368  0.8053  1.3921  0.8304
  141OSM   H16G15420   1.472   4.471   4.302 -1.3911  0.1373 -0.2737
  141OSM   C17F15421   1.508   4.282   4.424  0.7327 -0.1468  1.3678
  141OSM   H17F15422   1.520   4.352   4.509 -0.9818  1.4782  0.3358
  141OSM   H17G15423   1.611   4.276   4.382 -0.2539 -1.8146 -1.0022
  141OSM   C18F15424   1.445   4.157   4.477 -0.1515  0.3994 -0.4433
  141OSM   H18F15425   1.500   4.123   4.567  2.1999  0.4222 -1.8053
  141OSM   H18G15426   1.435   4.072   4.406 -1.3091  0.2622 -0.1390
  141OSM   H18H15427   1.345   4.182   4.519 -0.7846 -0.6169 -1.2938
  142OSM      N15428   3.857   6.535   2.620 -0.0112 -0.1323  0.2361
  142OSM    C1515429   3.947   6.485   2.728  0.1932 -0.5881  0.1005
  142OSM   H15A15430   4.031   6.433   2.685  0.6272 -1.1996  1.5913
  142OSM   H15B15431   3.904   6.420   2.803 -0.5394 -0.2007  0.0239
  142OSM   H15C15432   4.001   6.563   2.779  0.6648 -1.4581  0.9864
  142OSM    C1415433   3.760   6.623   2.683 -0.0815 -0.1665 -0.5314
  142OSM   H14A15434   3.796   6.725   2.688 -0.6747  0.0061  0.3837
  142OSM   H14B15435   3.736   6.600   2.785 -2.0474  0.8934 -0.7085
  142OSM   H14C15436   3.672   6.631   2.620  0.1548  0.1888 -0.8254
  142OSM    C1315437   3.940   6.611   2.527  0.1943  0.4199  0.0887
  142OSM   H13A15438   3.875   6.649   2.450 -3.0094 -0.7002  2.0208
  142OSM   H13B15439   4.018   6.542   2.499  1.1944  1.4807  0.1813
  142OSM   H13C15440   3.986   6.689   2.586  2.3115 -1.3664  0.9109
  142OSM    C1215441   3.787   6.419   2.553 -0.7581 -0.4901 -0.4064
  142OSM   H12A15442   3.736   6.370   2.634  2.7291 -1.9950  1.1087
  142OSM   H12B15443   3.852   6.354   2.497 -0.9167  1.0249 -2.4685
  142OSM    C1115444   3.674   6.442   2.442 -0.7129 -0.1154  0.4091
  142OSM   H11A15445   3.648   6.345   2.394  0.2778 -0.7985  1.2149
  142OSM   H11B15446   3.720   6.508   2.366 -2.4735  1.0380  0.2835
  142OSM      P15447   3.455   6.432   2.587 -0.3005 -0.0057 -0.4779
  142OSM    O1315448   3.321   6.456   2.539  0.1871  0.7674  0.5939
  142OSM    O1415449   3.504   6.297   2.597  0.2665 -0.2411  0.2197
  142OSM    O1115450   3.465   6.488   2.735  0.4450  0.1596 -0.0983
  142OSM    O1215451   3.564   6.502   2.500  0.9248 -0.0854 -0.3410
  142OSM    C1S15452   3.407   6.614   2.770 -0.0747  0.7709 -0.4373
  142OSM    H1S15453   3.298   6.625   2.751 -0.2535  0.2865  0.2814
  142OSM    H1T15454   3.460   6.700   2.723  1.1700  0.2305 -0.0749
  142OSM     NF15455   3.324   6.747   2.961  0.3520 -1.0406  0.3975
  142OSM    HNF15456   3.368   6.832   2.989 -1.0036 -0.8156  1.9250
  142OSM    C2S15457   3.410   6.634   2.925  0.1250 -0.1183  0.9602
  142OSM    H2S15458   3.381   6.539   2.973  4.3595 -0.8573  2.5059
  142OSM    C3S15459   3.559   6.638   2.973  0.5887 -0.1408 -0.4709
  142OSM    H3S15460   3.610   6.730   2.938 -1.3168  1.1422 -0.0175
  142OSM     O315461   3.638   6.517   2.945  0.2828  0.0130 -0.3610
  142OSM    HO315462   3.586   6.465   2.883  1.8572 -0.5932 -1.2437
  142OSM    C4S15463   3.543   6.644   3.124  0.3460 -0.4751 -0.5265
  142OSM    H4S15464   3.505   6.550   3.166 -0.7648  0.1630 -0.0700
  142OSM    C5S15465   3.559   6.747   3.211 -0.7791  0.2230  0.6607
  142OSM    H5S15466   3.589   6.849   3.183  1.1273 -0.0317  1.5676
  142OSM    C6S15467   3.528   6.742   3.358 -0.1637  0.9441  0.2631
  142OSM    H6S15468   3.468   6.653   3.385  1.0191  0.1633  0.3909
  142OSM    H6T15469   3.473   6.832   3.392 -0.4661  1.2427 -0.9681
  142OSM    C7S15470   3.661   6.738   3.451  0.1150 -0.1919  0.7316
  142OSM    H7S15471   3.712   6.835   3.431 -0.4547 -0.1153 -0.3842
  142OSM    H7T15472   3.732   6.658   3.422 -1.2803 -1.2518  0.1400
  142OSM    C8S15473   3.623   6.729   3.600  0.1007  0.3532 -0.5026
  142OSM    H8S15474   3.550   6.649   3.627  0.6725  0.9723  3.4238
  142OSM    H8T15475   3.571   6.827   3.610 -1.0177  0.0371 -2.5637
  142OSM    C9S15476   3.737   6.696   3.697 -0.1406 -0.0511 -0.5697
  142OSM    H9S15477   3.826   6.732   3.642  0.8759 -0.4521  0.7547
  142OSM    H9T15478   3.743   6.585   3.702 -1.3392 -0.1104 -0.1857
  142OSM   C10S15479   3.712   6.771   3.829 -0.3534  0.3594  0.2414
  142OSM   H10S15480   3.606   6.767   3.862 -0.3008 -2.4173  0.2905
  142OSM   H10T15481   3.736   6.876   3.800  2.4283 -0.1149  0.5530
  142OSM   C11S15482   3.797   6.718   3.944 -0.3796 -0.4365  0.5541
  142OSM   H11S15483   3.903   6.748   3.929 -0.3638 -0.0031  1.4671
  142OSM   H11T15484   3.786   6.608   3.953  0.9529 -0.5692  0.8561
  142OSM   C12S15485   3.756   6.786   4.078 -0.5383  0.7253 -0.2540
  142OSM   H12S15486   3.648   6.800   4.099 -0.2882  0.4373  1.3412
  142OSM   H12T15487   3.793   6.891   4.085  0.3212  0.4370 -0.3227
  142OSM   C13S15488   3.803   6.701   4.193 -0.1767 -0.7424 -0.0181
  142OSM   H13S15489   3.913   6.684   4.186 -0.0038  0.7462 -1.3923
  142OSM   H13T15490   3.743   6.610   4.212 -1.8043  0.3507  0.2889
  142OSM   C14S15491   3.773   6.774   4.327  0.4831  0.1568 -0.2305
  142OSM   H14S15492   3.663   6.788   4.325  0.5402  0.7964  0.5811
  142OSM   H14T15493   3.821   6.874   4.315 -1.3817  1.0743 -0.4953
  142OSM   C15S15494   3.835   6.712   4.455  0.4559  0.4185  0.1684
  142OSM   H15S15495   3.826   6.794   4.529 -0.3300 -0.2993  0.8885
  142OSM   H15T15496   3.944   6.689   4.449  1.0828  2.6955  1.2748
  142OSM   C16S15497   3.757   6.591   4.499  0.7582  1.0325 -0.4476
  142OSM   H16S15498   3.823   6.551   4.579  0.5178  1.8310  0.1697
  142OSM   H16T15499   3.734   6.516   4.420 -1.2179 -0.5888  1.5054
  142OSM   C17S15500   3.616   6.612   4.560  0.0757  0.4419 -0.7131
  142OSM   H17S15501   3.569   6.513   4.579 -1.3261  1.4590  1.5876
  142OSM   H17T15502   3.552   6.655   4.480  1.3875  1.8048 -1.0634
  142OSM   C18S15503   3.614   6.699   4.687 -0.4441  0.6779  0.4028
  142OSM   H18S15504   3.605   6.643   4.783  3.0243 -0.4839  0.1831
  142OSM   H18T15505   3.537   6.779   4.684  1.1452  2.2537 -0.1520
  142OSM   H18U15506   3.702   6.764   4.704 -0.9518  1.6101 -0.3793
  142OSM    C1F15507   3.198   6.765   2.939 -0.8364 -0.2466  0.5612
  142OSM     OF15508   3.132   6.667   2.910  0.4875 -0.1233  0.1995
  142OSM    C2F15509   3.141   6.901   2.942 -0.3970 -0.4778  0.2505
  142OSM    H2F15510   3.069   6.904   2.857 -0.9473  0.5003  0.7402
  142OSM    H2G15511   3.219   6.980   2.937 -0.9346  0.0377 -0.1889
  142OSM    C3F15512   3.063   6.919   3.070  0.0706 -0.1070 -0.1050
  142OSM    H3F15513   2.964   6.872   3.056 -0.2106  0.4312  0.0521
  142OSM    H3G15514   3.027   7.024   3.076 -1.3896 -0.5937 -0.0146
  142OSM    C4F15515   3.133   6.883   3.203  0.2230 -0.0633  0.5845
  142OSM    H4F15516   3.227   6.942   3.215  2.2047 -3.1716  1.8177
  142OSM    H4G15517   3.162   6.776   3.213 -1.1530 -0.4225  0.8339
  142OSM    C5F15518   3.048   6.934   3.320  0.1460  0.9044 -1.0770
  142OSM    H5F15519   2.962   6.864   3.322  0.3495  0.6532  1.6742
  142OSM    H5G15520   3.002   7.033   3.300  0.2875  1.1620 -0.1803
  142OSM    C6F15521   3.124   6.921   3.452  0.1212  0.0660 -0.1059
  142OSM    H6F15522   3.195   7.006   3.450 -0.3539  0.5092  0.9998
  142OSM    H6G15523   3.187   6.830   3.448 -0.3043 -0.3887  2.0542
  142OSM    C7F15524   3.038   6.924   3.576 -0.5805  0.5300 -0.0943
  142OSM    H7F15525   2.975   6.833   3.582 -0.4516  0.4436 -0.0506
  142OSM    H7G15526   2.965   7.005   3.557  0.9568  1.5267 -2.1397
  142OSM    C8F15527   3.119   6.937   3.707 -0.1785 -0.8669  0.1038
  142OSM    H8F15528   3.034   6.959   3.775  0.1821 -0.8941  0.5619
  142OSM    H8G15529   3.176   7.032   3.700  0.1918 -1.0860  0.1437
  142OSM    C9F15530   3.211   6.825   3.738  0.0385 -0.1327  0.2075
  142OSM    H9F15531   3.275   6.794   3.654 -3.1727  0.3301 -2.6597
  142OSM   C10F15532   3.187   6.748   3.850 -0.6660  0.5675  0.0230
  142OSM   H10F15533   3.262   6.673   3.879 -3.1671 -1.2650  2.2390
  142OSM   C11F15534   3.098   6.776   3.965  0.3870 -0.1867 -0.0499
  142OSM   H11F15535   3.099   6.686   4.031 -1.5390  0.9933  1.7196
  142OSM   H11G15536   2.993   6.793   3.934  0.7046  2.1621  0.0005
  142OSM   C12F15537   3.144   6.901   4.045 -0.5787  1.0036 -0.2602
  142OSM   H12F15538   3.136   6.995   3.984 -1.0729  1.8892  1.1283
  142OSM   H12G15539   3.255   6.909   4.048 -0.6950  2.8669  0.3934
  142OSM   C13F15540   3.095   6.908   4.193 -0.6205  0.7112 -0.8530
  142OSM   H13F15541   3.147   7.001   4.225  0.1393  1.0518 -2.8915
  142OSM   H13G15542   3.133   6.825   4.256  0.4945  2.0982  0.3444
  142OSM   C14F15543   2.948   6.920   4.197  0.1557 -0.3329  0.2650
  142OSM   H14F15544   2.911   6.822   4.161 -2.0758  1.1017 -1.6754
  142OSM   H14G15545   2.935   7.000   4.121  2.9276  1.6578  1.7322
  142OSM   C15F15546   2.880   6.963   4.330 -1.1902  0.0284  0.0606
  142OSM   H15F15547   2.908   6.893   4.412  1.7460 -0.3404 -1.1237
  142OSM   H15G15548   2.770   6.968   4.327 -1.2866 -1.0944  0.9323
  142OSM   C16F15549   2.940   7.101   4.385 -0.3513  0.9606  0.3203
  142OSM   H16F15550   2.922   7.175   4.303  0.6904  2.0743  1.0715
  142OSM   H16G15551   3.049   7.091   4.404  0.2520  3.5893 -1.2195
  142OSM   C17F15552   2.874   7.147   4.518  0.4120  0.2606  0.2652
  142OSM   H17F15553   2.768   7.175   4.498  1.1673  2.8964 -0.4443
  142OSM   H17G15554   2.919   7.245   4.545 -2.3469  1.8586 -0.4899
  142OSM   C18F15555   2.894   7.047   4.635 -0.4645 -0.0171 -0.3197
  142OSM   H18F15556   3.001   7.022   4.653 -0.3766  0.6515  0.1464
  142OSM   H18G15557   2.841   6.953   4.611  0.6860 -0.8145  0.1751
  142OSM   H18H15558   2.861   7.101   4.726  0.3158 -0.7214  0.3931
  143OSM      N15559   3.480   5.776   2.346  0.4554 -0.1403 -0.0545
  143OSM    C1515560   3.401   5.691   2.244 -0.3529 -0.7511 -0.2179
  143OSM   H15A15561   3.370   5.594   2.280 -1.9070  0.0475  0.7175
  143OSM   H15B15562   3.466   5.684   2.158  2.7323 -1.5324  1.9668
  143OSM   H15C15563   3.316   5.751   2.217  1.3328  2.0300  0.2001
  143OSM    C1415564   3.614   5.712   2.380  0.7441 -0.0660 -0.0274
  143OSM   H14A15565   3.599   5.615   2.423  1.1577 -0.2342 -0.2508
  143OSM   H14B15566   3.672   5.780   2.440  1.6959 -1.3234  0.5274
  143OSM   H14C15567   3.673   5.683   2.294  1.6834 -1.7956  1.1375
  143OSM    C1315568   3.513   5.902   2.265  0.2617  0.7565 -0.8997
  143OSM   H13A15569   3.561   5.874   2.172  2.4940 -1.6191  0.8193
  143OSM   H13B15570   3.585   5.960   2.321  2.2405 -0.5062 -1.9896
  143OSM   H13C15571   3.419   5.954   2.255  1.3015  3.4209  1.7965
  143OSM    C1215572   3.403   5.818   2.467 -0.1109  0.4140 -0.1480
  143OSM   H12A15573   3.307   5.855   2.432 -0.9075 -0.1174  1.3912
  143OSM   H12B15574   3.459   5.897   2.513 -1.1478 -0.0123  1.9858
  143OSM    C1115575   3.372   5.704   2.569 -0.5808 -0.3340 -0.3831
  143OSM   H11A15576   3.327   5.745   2.662  0.4711 -0.4478  0.1923
  143OSM   H11B15577   3.468   5.659   2.602 -0.8381 -0.8316 -0.2944
  143OSM      P15578   3.322   5.446   2.540  0.0248 -0.0788 -0.2583
  143OSM    O1315579   3.230   5.361   2.463  0.4171  0.1636  0.5551
  143OSM    O1415580   3.463   5.415   2.514 -0.6317 -0.2182  0.0342
  143OSM    O1115581   3.297   5.432   2.693  0.2387  0.5578  0.1035
  143OSM    O1215582   3.296   5.600   2.511 -0.3377  0.7089 -0.5648
  143OSM    C1S15583   3.181   5.476   2.764  0.4808 -0.1621 -0.2637
  143OSM    H1S15584   3.100   5.405   2.737  1.1820  0.6614 -5.6442
  143OSM    H1T15585   3.141   5.563   2.708  0.5525 -2.0056 -3.4627
  143OSM     NF15586   3.061   5.560   2.970  0.3884 -0.3546 -0.0519
  143OSM    HNF15587   3.052   5.657   2.948  1.4521 -0.5628 -1.5614
  143OSM    C2S15588   3.191   5.517   2.920 -0.2949 -0.2957 -0.2051
  143OSM    H2S15589   3.213   5.420   2.971  0.3478 -0.3653 -0.6059
  143OSM    C3S15590   3.312   5.618   2.929 -0.3506  0.7068  0.5712
  143OSM    H3S15591   3.285   5.705   2.865  0.8587 -1.0751 -2.6225
  143OSM     O315592   3.433   5.567   2.875  0.2869 -0.1207  0.1558
  143OSM    HO315593   3.388   5.519   2.805 -0.9606  2.2264 -0.7578
  143OSM    C4S15594   3.340   5.667   3.071 -1.0101  0.2510  0.4576
  143OSM    H4S15595   3.291   5.763   3.093  1.1482  1.9813 -1.6797
  143OSM    C5S15596   3.417   5.611   3.167 -0.6889 -1.0313 -0.6265
  143OSM    H5S15597   3.468   5.517   3.143 -1.0438 -1.5710  0.6316
  143OSM    C6S15598   3.440   5.676   3.306 -0.0305  0.4681  0.1271
  143OSM    H6S15599   3.372   5.763   3.309 -0.2480  0.3584 -1.0874
  143OSM    H6T15600   3.546   5.708   3.319 -0.1014  0.7884 -0.0879
  143OSM    C7S15601   3.404   5.576   3.414  0.0261  0.0265 -0.5679
  143OSM    H7S15602   3.480   5.496   3.416  1.4798  1.3625 -0.0753
  143OSM    H7T15603   3.311   5.526   3.381 -1.1533 -0.0570  2.4997
  143OSM    C8S15604   3.378   5.648   3.545 -0.4533 -0.4034 -0.3245
  143OSM    H8S15605   3.468   5.704   3.577  0.8762 -2.9892  0.7940
  143OSM    H8T15606   3.382   5.564   3.618  2.1315  1.7112  2.1923
  143OSM    C9S15607   3.248   5.723   3.561  0.3266 -0.5678  0.1351
  143OSM    H9S15608   3.169   5.661   3.513 -1.0154 -0.6071  2.2314
  143OSM    H9T15609   3.244   5.811   3.494  0.1456  1.1523  2.2719
  143OSM   C10S15610   3.207   5.773   3.701 -0.1814 -0.5103 -0.4708
  143OSM   H10S15611   3.286   5.846   3.728 -0.6643  0.6062 -1.9318
  143OSM   H10T15612   3.212   5.685   3.769 -3.2652  0.9087  1.8694
  143OSM   C11S15613   3.058   5.806   3.707  0.0179  0.2979  0.7886
  143OSM   H11S15614   3.007   5.719   3.661  0.1091  0.7424 -0.1730
  143OSM   H11T15615   3.044   5.876   3.622  0.3948 -1.0607 -0.4400
  143OSM   C12S15616   2.981   5.868   3.834 -0.9388  0.3428 -0.2103
  143OSM   H12S15617   3.009   5.796   3.913 -1.3472 -1.5768 -1.7298
  143OSM   H12T15618   2.871   5.860   3.826 -1.1307  1.5653  0.9604
  143OSM   C13S15619   3.039   6.005   3.861 -0.0031  0.7761 -0.4204
  143OSM   H13S15620   3.019   6.062   3.768 -0.8541 -0.6113 -1.1251
  143OSM   H13T15621   3.150   6.001   3.859 -0.0410 -0.0003 -1.4546
  143OSM   C14S15622   2.986   6.077   3.980 -0.2383  0.1620  0.1874
  143OSM   H14S15623   2.875   6.081   3.968 -0.1338 -1.8257 -2.2831
  143OSM   H14T15624   3.033   6.177   3.981 -4.1034  2.2203 -1.4074
  143OSM   C15S15625   3.023   6.015   4.119  0.1852 -0.1466 -0.0036
  143OSM   H15S15626   3.130   5.987   4.125  0.4065  0.4989 -0.7805
  143OSM   H15T15627   2.966   5.922   4.142  0.0783  0.0996  0.7679
  143OSM   C16S15628   3.001   6.122   4.230  1.2607  1.5462  0.9510
  143OSM   H16S15629   2.907   6.103   4.286  0.0394  1.5613 -1.0191
  143OSM   H16T15630   2.976   6.216   4.177  1.6309  0.2927 -1.5803
  143OSM   C17S15631   3.116   6.133   4.326 -0.3490  0.1838  0.1697
  143OSM   H17S15632   3.106   6.227   4.385 -0.5669  0.6276 -0.5566
  143OSM   H17T15633   3.205   6.152   4.262  0.4768 -0.8212  0.9981
  143OSM   C18S15634   3.137   6.007   4.407  0.7060  0.8282 -0.8841
  143OSM   H18S15635   3.230   6.016   4.467 -0.8681 -0.5362  1.9843
  143OSM   H18T15636   3.140   5.905   4.363 -1.1922  0.7535 -0.9182
  143OSM   H18U15637   3.057   6.000   4.484 -1.4815 -0.3581 -3.1193
  143OSM    C1F15638   2.954   5.488   2.992 -0.4278 -0.0790 -0.2049
  143OSM     OF15639   2.939   5.372   2.957 -0.1031  0.5237  0.1649
  143OSM    C2F15640   2.843   5.572   3.057  0.1572 -0.8613 -0.0676
  143OSM    H2F15641   2.754   5.568   2.989  0.2021 -1.5269 -0.0953
  143OSM    H2G15642   2.884   5.674   3.073 -2.7887  0.1595  1.8714
  143OSM    C3F15643   2.791   5.517   3.190 -0.2928  0.0768  0.1024
  143OSM    H3F15644   2.737   5.423   3.167 -0.0540  0.5028 -2.5265
  143OSM    H3G15645   2.709   5.585   3.223 -1.1660 -1.7932  1.9918
  143OSM    C4F15646   2.894   5.498   3.307 -0.5900 -0.1189  0.2715
  143OSM    H4F15647   2.942   5.598   3.319 -1.9825  0.2729  3.5255
  143OSM    H4G15648   2.970   5.422   3.276  1.5544  2.0497 -0.1156
  143OSM    C5F15649   2.827   5.449   3.439  1.3442  0.8238 -0.1676
  143OSM    H5F15650   2.804   5.344   3.409  1.0820  0.3763  1.5264
  143OSM    H5G15651   2.730   5.496   3.466  1.0240  0.0261  0.1199
  143OSM    C6F15652   2.920   5.438   3.561  0.1773 -0.0844 -0.3750
  143OSM    H6F15653   2.954   5.538   3.597 -1.7822 -0.3015  2.3684
  143OSM    H6G15654   3.015   5.382   3.546 -0.3883 -0.8761 -1.0635
  143OSM    C7F15655   2.858   5.378   3.689 -0.0525  0.4162 -0.2106
  143OSM    H7F15656   2.810   5.287   3.647  1.6486 -0.6000 -0.0709
  143OSM    H7G15657   2.781   5.448   3.729 -0.6347 -1.7326  2.7994
  143OSM    C8F15658   2.972   5.339   3.788  0.0256  0.2776  0.5614
  143OSM    H8F15659   3.044   5.424   3.786  2.5846 -1.7711 -0.6710
  143OSM    H8G15660   3.027   5.253   3.744 -1.5558 -0.2008 -0.5488
  143OSM    C9F15661   2.939   5.303   3.929  0.7044 -0.0422 -0.2482
  143OSM    H9F15662   2.872   5.217   3.933 -1.1199  1.2032 -1.8819
  143OSM   C10F15663   2.959   5.375   4.039 -0.5621  0.0846 -0.1730
  143OSM   H10F15664   2.906   5.343   4.130  2.2696  0.6321  1.8111
  143OSM   C11F15665   3.033   5.507   4.046 -0.0693 -0.3130  0.0015
  143OSM   H11F15666   2.994   5.574   3.966 -4.6183 -1.6840  0.8065
  143OSM   H11G15667   3.143   5.492   4.046  0.1796  1.3287 -0.0657
  143OSM   C12F15668   3.014   5.575   4.179 -0.5405  0.6857 -0.4982
  143OSM   H12F15669   3.082   5.662   4.190  0.9163 -0.6466  1.8289
  143OSM   H12G15670   3.053   5.515   4.265  0.3341  1.2020 -0.5211
  143OSM   C13F15671   2.866   5.618   4.206 -0.4844 -0.3531 -0.4642
  143OSM   H13F15672   2.803   5.526   4.200 -0.0517 -0.6914  0.0424
  143OSM   H13G15673   2.835   5.684   4.122 -1.5328 -1.4415 -0.9573
  143OSM   C14F15674   2.848   5.695   4.335  0.4125 -0.1571  0.1433
  143OSM   H14F15675   2.909   5.784   4.307  0.8997 -0.5365 -0.0254
  143OSM   H14G15676   2.895   5.647   4.423 -0.4312  1.8153  1.7480
  143OSM   C15F15677   2.709   5.741   4.371  0.6445  0.3397  0.8830
  143OSM   H15F15678   2.673   5.813   4.294 -2.3469 -2.6362 -0.7297
  143OSM   H15G15679   2.707   5.793   4.469  0.7616  2.2264 -0.0593
  143OSM   C16F15680   2.597   5.631   4.360 -0.3805  0.1782  0.3077
  143OSM   H16F15681   2.634   5.545   4.419  2.1300  0.7682 -0.3143
  143OSM   H16G15682   2.592   5.596   4.255  1.5968  3.5498 -1.0669
  143OSM   C17F15683   2.465   5.670   4.425 -0.9454 -0.1167 -0.2792
  143OSM   H17F15684   2.387   5.601   4.386 -1.1742  0.3778 -0.7099
  143OSM   H17G15685   2.432   5.773   4.399  0.9266  0.8181  0.7703
  143OSM   C18F15686   2.464   5.655   4.579  0.8506  0.4285 -0.0711
  143OSM   H18F15687   2.504   5.558   4.615  1.0058  0.3593 -0.4254
  143OSM   H18G15688   2.359   5.660   4.617 -0.2988 -1.5688 -2.7083
  143OSM   H18H15689   2.518   5.733   4.637  0.8108  0.9462 -0.7238
  144OSM      N15690   2.180   6.030   2.509 -0.5100 -0.8231  0.1260
  144OSM    C1515691   2.171   6.164   2.436 -0.4250  0.5240 -1.0567
  144OSM   H15A15692   2.181   6.155   2.329  1.2108 -0.7713 -0.8195
  144OSM   H15B15693   2.244   6.230   2.481 -0.1757 -1.3978  1.6174
  144OSM   H15C15694   2.077   6.214   2.458  0.1797  0.4456  2.2622
  144OSM    C1415695   2.052   5.955   2.478 -0.2012 -0.2519 -0.3893
  144OSM   H14A15696   2.042   5.928   2.375  0.5665  2.0669 -1.1408
  144OSM   H14B15697   1.966   6.019   2.489  0.9542  1.1432  1.2294
  144OSM   H14C15698   2.041   5.869   2.542 -2.2956  0.7920  0.7378
  144OSM    C1315699   2.306   5.959   2.469  0.3785 -0.0598  0.1399
  144OSM   H13A15700   2.333   5.874   2.530  1.5487  0.2831  0.1168
  144OSM   H13B15701   2.387   6.029   2.481  0.8997 -0.4710 -0.9212
  144OSM   H13C15702   2.296   5.941   2.363  1.4200  0.4541 -0.0604
  144OSM    C1215703   2.183   6.048   2.659  0.8583  0.0624 -0.1532
  144OSM   H12A15704   2.172   5.949   2.700 -3.8430  0.8949  1.2420
  144OSM   H12B15705   2.092   6.093   2.695  2.0401  0.8911  1.9931
  144OSM    C1115706   2.302   6.126   2.725 -0.5073 -0.3358 -0.8798
  144OSM   H11A15707   2.389   6.057   2.720  1.3910  1.9317 -0.4462
  144OSM   H11B15708   2.273   6.135   2.832 -0.2822 -0.9893 -0.7551
  144OSM      P15709   2.283   6.380   2.733 -0.1429  0.7983 -0.5239
  144OSM    O1315710   2.332   6.498   2.657  0.5030 -0.4320  0.7281
  144OSM    O1415711   2.136   6.371   2.759 -0.7173 -0.0875  0.6434
  144OSM    O1115712   2.362   6.374   2.878 -0.2509  0.5069  0.4591
  144OSM    O1215713   2.335   6.253   2.664 -0.3640  0.2479  0.1433
  144OSM    C1S15714   2.501   6.366   2.896  0.2519  0.4065  0.0190
  144OSM    H1S15715   2.546   6.453   2.844 -0.0419 -0.4085 -1.6891
  144OSM    H1T15716   2.539   6.269   2.857 -2.8167 -2.1553  2.8110
  144OSM     NF15717   2.676   6.408   3.067 -0.1956  0.1431  0.1307
  144OSM    HNF15718   2.729   6.325   3.078 -0.6918 -0.5912 -2.4410
  144OSM    C2S15719   2.537   6.379   3.046  0.6888 -0.4360  0.5427
  144OSM    H2S15720   2.490   6.474   3.079  0.6344 -0.5825  0.8986
  144OSM    C3S15721   2.482   6.264   3.139  0.1493  0.1061 -0.0363
  144OSM    H3S15722   2.559   6.183   3.136 -0.3776 -0.4891  1.4099
  144OSM     O315723   2.357   6.216   3.097 -0.1546 -0.2456  0.1371
  144OSM    HO315724   2.340   6.271   3.020  2.0159 -0.5905 -0.6649
  144OSM    C4S15725   2.486   6.307   3.282 -0.2176 -0.4240  0.4603
  144OSM    H4S15726   2.582   6.291   3.332  0.0620  1.3672  0.5776
  144OSM    C5S15727   2.399   6.391   3.338 -0.6116  0.3158  0.0842
  144OSM    H5S15728   2.331   6.460   3.285  0.8345  1.4352 -0.3871
  144OSM    C6S15729   2.431   6.446   3.476  0.3129  0.5727  0.8118
  144OSM    H6S15730   2.436   6.557   3.469  0.4965  0.5706  0.9233
  144OSM    H6T15731   2.531   6.419   3.514  0.2150 -0.5559  0.2884
  144OSM    C7S15732   2.331   6.389   3.578 -0.7672  0.1866 -0.4474
  144OSM    H7S15733   2.364   6.286   3.602  2.6216  0.8572 -1.7161
  144OSM    H7T15734   2.231   6.402   3.532 -0.2485  0.7970 -1.4549
  144OSM    C8S15735   2.335   6.469   3.713  0.2580  0.1045  0.1197
  144OSM    H8S15736   2.299   6.569   3.682 -0.8016 -0.7855 -1.6973
  144OSM    H8T15737   2.441   6.463   3.747  0.1628 -1.9991  0.1716
  144OSM    C9S15738   2.237   6.419   3.823  0.0819  0.0330 -0.3564
  144OSM    H9S15739   2.273   6.320   3.858  1.4532  0.9419  0.8954
  144OSM    H9T15740   2.142   6.400   3.768 -0.2761 -2.2164  0.9173
  144OSM   C10S15741   2.224   6.510   3.945 -0.5369 -0.1966 -0.3034
  144OSM   H10S15742   2.189   6.608   3.907  1.1142  0.3187 -0.5526
  144OSM   H10T15743   2.324   6.520   3.991 -0.7456 -0.3149  0.1821
  144OSM   C11S15744   2.127   6.463   4.058  0.3089  0.6292  0.8286
  144OSM   H11S15745   2.144   6.364   4.104 -2.2279 -0.0840  0.3853
  144OSM   H11T15746   2.024   6.448   4.019  0.5337  0.0287  0.4535
  144OSM   C12S15747   2.123   6.553   4.185  0.2685 -0.6420  0.5242
  144OSM   H12S15748   2.070   6.650   4.169  2.4731  0.7618  1.3466
  144OSM   H12T15749   2.226   6.584   4.212  0.0098 -0.2583  1.0795
  144OSM   C13S15750   2.083   6.487   4.313  0.1169 -0.7057 -0.7052
  144OSM   H13S15751   2.137   6.397   4.352  0.5473  0.4898  1.6627
  144OSM   H13T15752   1.976   6.456   4.317  0.2671 -1.2592  3.3769
  144OSM   C14S15753   2.086   6.594   4.423 -0.1676  0.4068 -0.1521
  144OSM   H14S15754   2.045   6.694   4.396  1.1162  1.2255  0.7811
  144OSM   H14T15755   2.194   6.607   4.448  0.3717 -2.1795 -0.9017
  144OSM   C15S15756   2.028   6.533   4.560  0.8546 -0.0667  0.4292
  144OSM   H15S15757   1.920   6.523   4.537  1.0791  0.1876 -0.8037
  144OSM   H15T15758   2.050   6.616   4.631  2.9142 -0.0311 -0.1895
  144OSM   C16S15759   2.095   6.409   4.614  0.4485 -0.4379 -0.3467
  144OSM   H16S15760   2.206   6.410   4.602  0.6208 -0.4965  1.0375
  144OSM   H16T15761   2.052   6.330   4.549  0.5386  0.6660 -1.7854
  144OSM   C17S15762   2.068   6.397   4.763 -0.3157  0.0148 -0.4000
  144OSM   H17S15763   2.126   6.473   4.818  0.0698  0.0094 -0.7919
  144OSM   H17T15764   2.109   6.309   4.817 -1.8025  0.9664  2.4608
  144OSM   C18S15765   1.917   6.395   4.788 -0.0948 -0.1225  0.5887
  144OSM   H18S15766   1.869   6.302   4.753  1.5039  0.1388 -2.6528
  144OSM   H18T15767   1.865   6.485   4.748 -0.1440 -0.4301 -0.0415
  144OSM   H18U15768   1.887   6.394   4.895 -0.9179  1.7154  0.4145
  144OSM    C1F15769   2.726   6.525   3.033  0.1649 -0.2229 -0.2522
  144OSM     OF15770   2.658   6.616   2.984  0.0668  0.0380 -0.3197
  144OSM    C2F15771   2.870   6.543   3.049  0.0843 -0.2349  0.2745
  144OSM    H2F15772   2.895   6.612   2.966  2.2436 -2.1609 -0.7817
  144OSM    H2G15773   2.924   6.450   3.021 -1.1644 -0.5545 -1.1494
  144OSM    C3F15774   2.908   6.592   3.192  0.1283 -0.4305 -0.0644
  144OSM    H3F15775   2.858   6.690   3.204 -2.7926 -1.8496  0.4340
  144OSM    H3G15776   3.019   6.596   3.192  0.0911  1.1975 -0.1484
  144OSM    C4F15777   2.872   6.500   3.305 -0.3438 -0.0155 -0.2633
  144OSM    H4F15778   2.911   6.396   3.303  2.2528  0.8016  1.5715
  144OSM    H4G15779   2.762   6.497   3.314 -0.3595  0.6798 -0.1535
  144OSM    C5F15780   2.918   6.542   3.443  0.0866 -0.6443  1.1821
  144OSM    H5F15781   2.906   6.652   3.446  0.5593 -0.3274 -2.6772
  144OSM    H5G15782   3.028   6.525   3.443  0.2201  0.1539  2.0841
  144OSM    C6F15783   2.874   6.456   3.558 -0.0278  0.1891 -0.4760
  144OSM    H6F15784   2.896   6.350   3.534 -0.7712  0.4140 -2.3740
  144OSM    H6G15785   2.763   6.469   3.558 -0.2130 -0.8478  2.0735
  144OSM    C7F15786   2.941   6.502   3.688  0.1958  0.1070 -0.1106
  144OSM    H7F15787   2.890   6.598   3.713  0.1750 -0.0237  0.3688
  144OSM    H7G15788   3.051   6.514   3.684  0.3365 -0.4073  1.5474
  144OSM    C8F15789   2.895   6.414   3.803 -0.0329 -0.0537  0.0206
  144OSM    H8F15790   2.958   6.454   3.886  2.4495  0.0120 -1.7810
  144OSM    H8G15791   2.933   6.310   3.789 -1.8760 -0.6599 -0.7725
  144OSM    C9F15792   2.746   6.410   3.829 -0.4733  0.3253  0.6098
  144OSM    H9F15793   2.686   6.440   3.742 -0.4691 -0.7135  0.2342
  144OSM   C10F15794   2.686   6.412   3.946  0.0592  0.6912 -0.0814
  144OSM   H10F15795   2.576   6.408   3.951  0.0801 -2.7924  0.5245
  144OSM   C11F15796   2.761   6.398   4.073  0.0413 -0.1451 -0.1073
  144OSM   H11F15797   2.850   6.464   4.080 -1.0982  1.5238 -0.6573
  144OSM   H11G15798   2.798   6.294   4.066 -0.3936 -0.2712 -0.5751
  144OSM   C12F15799   2.668   6.428   4.188 -0.3212 -0.2080 -0.4411
  144OSM   H12F15800   2.572   6.374   4.175  0.0695 -1.6703  2.1224
  144OSM   H12G15801   2.661   6.539   4.179  0.1081 -0.2466 -1.3943
  144OSM   C13F15802   2.718   6.372   4.318 -0.4847 -0.5491 -0.4065
  144OSM   H13F15803   2.735   6.264   4.302 -3.0202 -0.6399 -3.5073
  144OSM   H13G15804   2.642   6.374   4.399  0.2239 -2.5678  0.3749
  144OSM   C14F15805   2.851   6.418   4.389  0.3809 -0.3881  0.3569
  144OSM   H14F15806   2.932   6.412   4.314 -0.1298  1.4631 -0.4122
  144OSM   H14G15807   2.860   6.349   4.475  0.0701  0.7260  1.3087
  144OSM   C15F15808   2.830   6.560   4.441 -0.5813  0.5758 -0.0417
  144OSM   H15F15809   2.765   6.570   4.531  0.0583 -0.3499  0.5375
  144OSM   H15G15810   2.796   6.618   4.353 -0.4941  1.2956  0.3905
  144OSM   C16F15811   2.970   6.619   4.481  0.2907  0.0834 -0.8853
  144OSM   H16F15812   2.956   6.714   4.536  1.3504 -0.0684 -0.3226
  144OSM   H16G15813   3.025   6.649   4.390 -0.4166  1.6351 -0.8303
  144OSM   C17F15814   3.059   6.532   4.568 -0.6565  0.4254  0.7173
  144OSM   H17F15815   3.069   6.432   4.520 -3.6408 -0.6344  2.1156
  144OSM   H17G15816   3.000   6.508   4.658 -0.9554 -2.5582 -0.1668
  144OSM   C18F15817   3.192   6.603   4.592  0.0094  0.7165  0.4249
  144OSM   H18F15818   3.266   6.534   4.638 -0.5825  0.6206  1.2452
  144OSM   H18G15819   3.199   6.687   4.664  1.1955 -0.8961  2.2992
  144OSM   H18H15820   3.227   6.641   4.493 -1.9453 -1.0448 -1.0201
  145SAPE     N15821   5.311   0.289   6.914 -0.2324 -0.3789 -0.0333
  145SAPE   HN115822   5.353   0.354   6.984 -2.8960  0.0268  1.3299
  145SAPE   HN215823   5.276   0.355   6.842  0.9253 -1.7626 -1.9455
  145SAPE   HN315824   5.227   0.240   6.952  0.4513 -2.5404 -1.1490
  145SAPE   C1215825   5.397   0.177   6.862  0.0688  0.8179  0.7786
  145SAPE  H12A15826   5.436   0.124   6.951  1.2653  0.6359  0.1732
  145SAPE  H12B15827   5.479   0.225   6.804 -1.7266 -0.2459 -2.9839
  145SAPE   C1115828   5.303   0.094   6.779 -1.1505  0.0297 -0.5718
  145SAPE  H11A15829   5.366   0.027   6.717  0.5670  1.1174 -0.0944
  145SAPE  H11B15830   5.248   0.146   6.698 -1.9900 -0.5275 -0.3601
  145SAPE     P15831   5.085   0.040   6.897  0.4637  0.6022 -0.0364
  145SAPE   O1315832   5.049  -0.020   7.026  0.4277  0.2946 -0.3150
  145SAPE   O1415833   5.065   0.187   6.892 -0.2628  0.1846  0.4203
  145SAPE   O1215834   5.234   0.009   6.864 -0.0156  0.2362  0.6436
  145SAPE   O1115835   4.998  -0.020   6.780 -0.3050 -0.1379 -0.3774
  145SAPE    C115836   5.011  -0.151   6.732 -0.2214  0.0099 -0.3578
  145SAPE    HA15837   5.068  -0.215   6.803 -0.1782  0.9874  0.5053
  145SAPE    HB15838   4.906  -0.185   6.724 -0.0041 -0.4064 -1.8698
  145SAPE    C215839   5.079  -0.152   6.595  0.5717  0.6635  0.5277
  145SAPE    HS15840   5.189  -0.147   6.610  0.5759  0.4459  0.5806
  145SAPE   O2115841   5.025  -0.046   6.515  0.2545 -0.6101 -0.4461
  145SAPE   C2115842   5.109   0.020   6.438  0.4184  0.0318  0.2997
  145SAPE   O2215843   5.230   0.005   6.437 -0.1181 -0.8695 -0.3117
  145SAPE   C2215844   5.031   0.130   6.354  0.6540 -0.2003  0.0750
  145SAPE   H2R15845   4.942   0.073   6.317 -0.7379  1.0225  1.3918
  145SAPE   H2S15846   4.998   0.209   6.425 -0.5814  1.1307 -1.8957
  145SAPE    C315847   5.062  -0.290   6.519 -0.2401  0.2289 -0.6705
  145SAPE    HX15848   4.954  -0.311   6.511 -0.1721  0.0564 -1.1561
  145SAPE    HY15849   5.116  -0.362   6.585 -0.6448  0.3298 -0.2217
  145SAPE   O3115850   5.132  -0.294   6.393 -0.3790  0.0705 -0.3530
  145SAPE   C3115851   5.263  -0.336   6.389 -0.0126 -0.0936  0.2548
  145SAPE   O3215852   5.320  -0.396   6.477 -0.1050 -0.2530 -0.0055
  145SAPE   C3215853   5.321  -0.327   6.245 -0.6411 -0.3169 -0.1176
  145SAPE   H2X15854   5.382  -0.419   6.238 -1.5151 -1.1077  1.7477
  145SAPE   H2Y15855   5.377  -0.232   6.233 -1.4127 -0.0538 -1.8679
  145SAPE   C2315856   5.122   0.180   6.242 -0.3933  0.1684  0.7043
  145SAPE   H3R15857   5.220   0.207   6.286 -0.1938  0.2948  0.1863
  145SAPE   H3S15858   5.076   0.271   6.198  0.9415  0.3018 -0.4547
  145SAPE   C2415859   5.147   0.109   6.113  0.9196 -0.0550 -0.6441
  145SAPE   H4R15860   5.049   0.079   6.071  1.3700 -0.8971 -1.1146
  145SAPE   H4S15861   5.191   0.011   6.142 -0.8421 -0.4853  0.7647
  145SAPE   C2515862   5.236   0.196   6.021 -0.0984 -0.4277  0.2267
  145SAPE   H5R15863   5.285   0.286   6.062 -0.9059 -0.1969  0.7168
  145SAPE   C2615864   5.245   0.181   5.886  0.2402  0.2166 -0.5576
  145SAPE   H6R15865   5.301   0.254   5.826 -2.2724  2.2023 -0.6600
  145SAPE   C2715866   5.185   0.072   5.804 -0.3154  0.6301  0.0804
  145SAPE   H7R15867   5.083   0.098   5.769 -1.3693 -1.2480  1.5309
  145SAPE   H7S15868   5.166  -0.019   5.864 -0.8163  0.5038 -0.2659
  145SAPE   C2815869   5.259   0.040   5.681 -1.0576  1.0894 -0.2980
  145SAPE   H8R15870   5.356  -0.003   5.709 -2.0124 -1.5348 -0.7218
  145SAPE   C2915871   5.231   0.044   5.552  0.1731  0.2779 -0.0255
  145SAPE   H9R15872   5.312   0.025   5.481  1.1305 -0.2736  1.1720
  145SAPE  C21015873   5.110   0.111   5.490  0.4858  0.8526  0.3323
  145SAPE  H10R15874   5.029   0.120   5.565 -0.3813 -1.5331 -0.2378
  145SAPE  H10S15875   5.080   0.030   5.420  1.6634  1.5951 -1.1157
  145SAPE  C21115876   5.135   0.241   5.419  0.1413 -0.1528  0.3903
  145SAPE  H11R15877   5.178   0.322   5.480 -0.5695  1.4014 -1.0483
  145SAPE  C21215878   5.077   0.283   5.310 -0.5574 -0.4826  0.9323
  145SAPE  H12R15879   5.102   0.383   5.270  2.5437 -1.8891 -1.0672
  145SAPE  C21315880   4.999   0.192   5.216  0.7261  0.6399 -1.0929
  145SAPE  H13R15881   4.892   0.197   5.247  1.4568  0.1641  1.7357
  145SAPE  H13S15882   5.030   0.086   5.226 -0.6664  0.4402  2.6765
  145SAPE  C21415883   5.012   0.205   5.067 -0.0908 -0.1324 -0.0797
  145SAPE  H14R15884   5.112   0.237   5.033  0.7931 -1.8545  0.8074
  145SAPE  C21515885   4.932   0.163   4.969 -0.3352  0.3933 -0.1639
  145SAPE  H15R15886   4.952   0.196   4.866 -2.5427  3.4528  0.2644
  145SAPE  C21615887   4.793   0.106   4.980 -0.7112  0.2878 -0.2710
  145SAPE  H16R15888   4.761   0.108   5.087 -0.1510 -0.2408 -0.0953
  145SAPE  H16S15889   4.783   0.002   4.944 -0.1019  0.1541 -0.0634
  145SAPE  C21715890   4.693   0.182   4.897 -0.1703  0.2319  0.2816
  145SAPE  H17R15891   4.744   0.195   4.799 -0.6524  2.8755  0.3186
  145SAPE  H17S15892   4.705   0.278   4.951 -0.1804  0.4256 -0.0549
  145SAPE  C21815893   4.550   0.130   4.900 -0.5827 -0.2816  0.1094
  145SAPE  H18R15894   4.524   0.121   5.007  0.4173 -3.4193  0.1968
  145SAPE  H18S15895   4.535   0.031   4.852  1.4039 -1.3447  1.5375
  145SAPE  C21915896   4.450   0.214   4.823 -0.1952  0.1431 -0.8758
  145SAPE  H19R15897   4.448   0.197   4.714  2.7590  2.2751 -1.4027
  145SAPE  H19S15898   4.471   0.323   4.826 -3.2374  0.7771  0.7572
  145SAPE  C22015899   4.310   0.187   4.889 -0.5672 -0.0615  0.7440
  145SAPE  H20R15900   4.233   0.236   4.827  0.4765 -0.5068 -0.9584
  145SAPE  H20S15901   4.305   0.213   4.997 -0.8082 -0.2024  0.7693
  145SAPE  H20T15902   4.301   0.076   4.894  0.9367 -0.1761  4.4996
  145SAPE   C3315903   5.233  -0.337   6.120  0.5455  0.2757  0.7128
  145SAPE   H3X15904   5.183  -0.239   6.103  0.3152  0.1272  0.5425
  145SAPE   H3Y15905   5.158  -0.418   6.130  2.8898 -1.9139  1.4307
  145SAPE   C3415906   5.315  -0.382   5.995 -0.2710 -0.3956  0.4458
  145SAPE   H4X15907   5.344  -0.488   6.005 -1.5204 -0.6177  1.9961
  145SAPE   H4Y15908   5.413  -0.330   5.986 -0.0900 -0.4590  1.8334
  145SAPE   C3515909   5.233  -0.376   5.870 -0.6962  0.5663  1.2514
  145SAPE   H5X15910   5.183  -0.277   5.860 -2.5401 -0.5214 -1.4970
  145SAPE   H5Y15911   5.160  -0.459   5.879 -0.6224  0.1891 -1.0029
  145SAPE   C3615912   5.315  -0.399   5.742 -0.6227 -0.5312 -0.1646
  145SAPE   H6X15913   5.370  -0.494   5.732 -0.4046 -0.2591 -2.0999
  145SAPE   H6Y15914   5.389  -0.316   5.744 -2.6190  1.3715 -0.0526
  145SAPE   C3715915   5.232  -0.363   5.619  0.6007 -0.3699  0.9442
  145SAPE   H7X15916   5.168  -0.275   5.641  4.3847  2.8571  0.0220
  145SAPE   H7Y15917   5.167  -0.445   5.582 -1.3747  0.7614  1.7549
  145SAPE   C3815918   5.316  -0.315   5.502  0.1899  0.5698 -0.4720
  145SAPE   H8X15919   5.387  -0.393   5.467  2.0969  2.2249 -0.4676
  145SAPE   H8Y15920   5.386  -0.238   5.541  1.5045 -1.7713  2.1292
  145SAPE   C3915921   5.229  -0.262   5.386  0.3863 -0.1866  0.0208
  145SAPE   H9X15922   5.154  -0.189   5.424  1.8819  0.3674  2.1328
  145SAPE   H9Y15923   5.185  -0.352   5.339 -2.7980  1.8064 -1.1438
  145SAPE  C31015924   5.301  -0.194   5.266 -0.5374  0.1142  0.2522
  145SAPE  H10X15925   5.379  -0.259   5.223 -0.1653  1.2631 -0.8651
  145SAPE  H10Y15926   5.334  -0.092   5.294  0.6782 -0.7488  2.1897
  145SAPE  C31115927   5.197  -0.175   5.153 -0.0435  0.0766  0.3028
  145SAPE  H11X15928   5.121  -0.107   5.198  1.4713  1.0618  1.4645
  145SAPE  H11Y15929   5.140  -0.270   5.140 -1.9832  0.9478  1.9448
  145SAPE  C31215930   5.258  -0.122   5.018  0.0123  0.0539 -0.3748
  145SAPE  H12X15931   5.351  -0.181   5.004  0.0811 -0.8091  2.9025
  145SAPE  H12Y15932   5.274  -0.013   5.031 -0.4589 -0.0724  1.6826
  145SAPE  C31315933   5.153  -0.137   4.911  0.1785  0.0872 -0.0287
  145SAPE  H13X15934   5.071  -0.070   4.943  1.2622  0.7991  1.3437
  145SAPE  H13Y15935   5.122  -0.244   4.904 -1.8805  0.6527 -0.4364
  145SAPE  C31415936   5.188  -0.093   4.772  0.1051 -0.1006 -0.6618
  145SAPE  H14X15937   5.282  -0.138   4.735  1.0096  0.0973  1.2836
  145SAPE  H14Y15938   5.210   0.016   4.779  0.3124 -0.2210  0.7083
  145SAPE  C31515939   5.069  -0.105   4.674 -0.6099  0.4954 -0.2287
  145SAPE  H15X15940   4.989  -0.047   4.724  0.0455  0.1442  1.2836
  145SAPE  H15Y15941   5.047  -0.214   4.675  3.0088 -0.4107  2.0347
  145SAPE  C31615942   5.088  -0.053   4.533 -0.3933  0.9580  0.2965
  145SAPE  H16X15943   5.177  -0.106   4.493 -0.5876 -0.8890  2.1268
  145SAPE  H16Y15944   5.117   0.053   4.548 -0.3147  1.0887 -0.7419
  145SAPE  C31715945   4.968  -0.048   4.436  1.0233  0.4131  0.0565
  145SAPE  H17X15946   4.921  -0.146   4.411 -1.1042  0.5467  2.9714
  145SAPE  H17Y15947   5.019  -0.010   4.345  1.4339 -0.2311  0.0121
  145SAPE  C31815948   4.847   0.037   4.468  0.1797 -0.6652  0.5126
  145SAPE  H18X15949   4.777   0.038   4.381 -1.5701  0.6048  1.8578
  145SAPE  H18Y15950   4.875   0.139   4.502 -1.8814 -0.2409  1.0693
  145SAPE  H18Z15951   4.784  -0.007   4.549  0.9222 -1.1472  0.8376
  146SAPE     N15952   2.989   0.858   7.219 -0.1779 -0.1073  0.1571
  146SAPE   HN115953   2.992   0.897   7.122 -0.6072  1.5108  0.7640
  146SAPE   HN215954   3.037   0.923   7.285 -0.3945 -0.7690  0.9792
  146SAPE   HN315955   3.056   0.779   7.225 -0.3452 -0.2106  0.6695
  146SAPE   C1215956   2.853   0.821   7.265  0.0858 -0.2171  0.1107
  146SAPE  H12A15957   2.798   0.913   7.295  1.0151  0.2761  0.3419
  146SAPE  H12B15958   2.866   0.778   7.367 -0.8524  1.5279  1.0104
  146SAPE   C1115959   2.766   0.745   7.155 -0.2184  0.5861 -0.3142
  146SAPE  H11A15960   2.674   0.705   7.203 -0.9646  0.6736 -1.6240
  146SAPE  H11B15961   2.809   0.650   7.119 -3.4736 -2.7744  3.6255
  146SAPE     P15962   2.598   0.918   7.045  0.1678 -0.4004  0.2590
  146SAPE   O1315963   2.527   0.931   7.175 -0.0404  0.0867  0.1936
  146SAPE   O1415964   2.612   1.052   6.986  0.2040  0.0363  0.0104
  146SAPE   O1215965   2.732   0.840   7.052 -0.0622 -0.3780  0.5562
  146SAPE   O1115966   2.504   0.829   6.949 -0.2242  0.0892  0.4006
  146SAPE    C115967   2.559   0.767   6.827  0.4210 -0.8182 -0.0490
  146SAPE    HA15968   2.650   0.708   6.851 -0.3840 -1.7357  0.8548
  146SAPE    HB15969   2.481   0.699   6.786 -3.0664  2.2275  1.0003
  146SAPE    C215970   2.593   0.871   6.717  0.0693 -0.4451 -0.3471
  146SAPE    HS15971   2.649   0.953   6.768 -1.2182 -0.4437  1.1451
  146SAPE   O2115972   2.470   0.914   6.661  0.7769  0.6881  0.1758
  146SAPE   C2115973   2.443   1.040   6.632  0.2660 -0.1620  0.2274
  146SAPE   O2215974   2.513   1.134   6.657 -0.2350  0.2611  0.4602
  146SAPE   C2215975   2.305   1.058   6.573  1.0459 -0.0270  0.5206
  146SAPE   H2R15976   2.239   0.983   6.622  0.2925 -0.0325 -0.4685
  146SAPE   H2S15977   2.272   1.155   6.616 -1.6206 -0.9479  0.7681
  146SAPE    C315978   2.689   0.825   6.607  0.3540 -0.5443  0.5404
  146SAPE    HX15979   2.650   0.730   6.564  1.6659 -0.0777 -1.8724
  146SAPE    HY15980   2.785   0.789   6.649  1.2776 -0.1225 -1.1381
  146SAPE   O3115981   2.707   0.928   6.512  0.2451  0.6215  0.5201
  146SAPE   C3115982   2.798   1.016   6.539 -0.3509 -0.6309 -0.4776
  146SAPE   O3215983   2.866   1.022   6.640  0.7439  0.1022  0.2030
  146SAPE   C3215984   2.806   1.125   6.431  0.5524  0.3905  0.8517
  146SAPE   H2X15985   2.905   1.174   6.440 -0.1958  1.8770  1.3993
  146SAPE   H2Y15986   2.730   1.203   6.455 -1.3062 -0.7586 -0.9112
  146SAPE   C2315987   2.283   1.048   6.419 -0.2346 -0.0826  0.3160
  146SAPE   H3R15988   2.324   0.950   6.389  0.1384 -0.2167  1.2244
  146SAPE   H3S15989   2.353   1.122   6.375  1.4124 -1.6981  0.1235
  146SAPE   C2415990   2.137   1.071   6.369 -1.1003  0.0993  0.0632
  146SAPE   H4R15991   2.139   1.085   6.259 -1.2444 -0.7328 -0.0559
  146SAPE   H4S15992   2.121   1.169   6.417  2.0884 -0.3263  2.3559
  146SAPE   C2515993   2.042   0.962   6.407  0.1917 -0.7539 -0.2400
  146SAPE   H5R15994   2.052   0.922   6.509  1.4676  0.0403 -0.0349
  146SAPE   C2615995   1.946   0.907   6.328 -0.6851  0.0997  0.8725
  146SAPE   H6R15996   1.885   0.829   6.375 -1.5720  1.2158  1.6495
  146SAPE   C2715997   1.911   0.933   6.183  0.0211  0.4923  0.0185
  146SAPE   H7R15998   1.957   1.027   6.146  0.5075  0.0133 -0.6274
  146SAPE   H7S15999   1.802   0.949   6.188  0.0717  0.4337  3.2453
  146SAPE   C2816000   1.950   0.815   6.092 -0.3518  0.2323  0.3338
  146SAPE   H8R16001   2.021   0.750   6.145  0.7176  0.3798 -0.8841
  146SAPE   C2916002   1.937   0.802   5.960 -0.3407  0.0542  0.6979
  146SAPE   H9R16003   1.987   0.721   5.904 -1.5734  1.1679 -2.2204
  146SAPE  C21016004   1.857   0.882   5.864 -0.0260 -1.0151  0.2522
  146SAPE  H10R16005   1.918   0.958   5.812 -0.2380 -1.1461 -0.1948
  146SAPE  H10S16006   1.797   0.960   5.915  1.6627  0.8098 -0.4455
  146SAPE  C21116007   1.789   0.798   5.755 -0.0713 -0.3686 -0.0571
  146SAPE  H11R16008   1.687   0.768   5.782 -0.0901  1.2294  1.9197
  146SAPE  C21216009   1.840   0.776   5.631 -1.0765  0.0283  0.1513
  146SAPE  H12R16010   1.797   0.696   5.569 -1.4696 -1.7669  2.5471
  146SAPE  C21316011   1.961   0.835   5.563 -0.2075 -0.2575  0.6902
  146SAPE  H13R16012   2.019   0.748   5.524  0.1708 -0.5603  1.8700
  146SAPE  H13S16013   2.024   0.883   5.641  0.6348 -0.6075  0.2377
  146SAPE  C21416014   1.920   0.939   5.462 -0.1059 -0.2837 -0.3106
  146SAPE  H14R16015   1.907   1.040   5.503 -2.8280 -0.3088 -0.8959
  146SAPE  C21516016   1.871   0.922   5.336 -0.0321 -0.0939  0.5723
  146SAPE  H15R16017   1.842   1.005   5.270 -0.6250 -0.4863  0.3291
  146SAPE  C21616018   1.859   0.791   5.262 -0.2035 -0.5686 -0.6313
  146SAPE  H16R16019   1.760   0.781   5.214  0.3674  2.8347 -2.9190
  146SAPE  H16S16020   1.881   0.703   5.326  2.4294  0.8478  0.5569
  146SAPE  C21716021   1.957   0.778   5.147  0.5717  0.1867  0.3655
  146SAPE  H17R16022   2.055   0.805   5.192  0.2183  2.2899 -0.0176
  146SAPE  H17S16023   1.952   0.863   5.075  1.3152  0.7284  0.9396
  146SAPE  C21816024   1.943   0.638   5.067 -0.8259 -0.5246 -0.2501
  146SAPE  H18R16025   1.911   0.556   5.136 -2.1621  1.1383  1.2113
  146SAPE  H18S16026   2.043   0.627   5.020 -0.3014  3.2413 -0.3262
  146SAPE  C21916027   1.850   0.649   4.949  0.2058  0.6061 -0.0079
  146SAPE  H19R16028   1.752   0.677   4.993 -0.1441  3.7675 -2.3846
  146SAPE  H19S16029   1.837   0.545   4.913 -0.9256  0.7327  0.0277
  146SAPE  C22016030   1.898   0.734   4.831  0.1572 -0.1430 -0.1110
  146SAPE  H20R16031   1.813   0.740   4.759  0.8041 -1.1167 -0.9899
  146SAPE  H20S16032   1.989   0.697   4.780 -0.6284 -0.0511 -1.6330
  146SAPE  H20T16033   1.916   0.835   4.873 -0.1957 -0.9481  2.1615
  146SAPE   C3316034   2.776   1.080   6.285  0.5188  0.4224 -0.2034
  146SAPE   H3X16035   2.672   1.043   6.274  0.9424 -0.1193 -3.2396
  146SAPE   H3Y16036   2.841   0.991   6.272  1.0957  0.5637  1.4225
  146SAPE   C3416037   2.805   1.175   6.168  0.5594  0.0999 -0.1772
  146SAPE   H4X16038   2.902   1.230   6.168  0.2633  0.7129 -2.4303
  146SAPE   H4Y16039   2.724   1.250   6.162  1.7405  1.3162 -2.9674
  146SAPE   C3516040   2.806   1.098   6.033  0.2691 -0.0230 -0.1017
  146SAPE   H5X16041   2.707   1.047   6.030 -0.1447  0.7793 -0.4998
  146SAPE   H5Y16042   2.883   1.018   6.031  0.4879  0.0710 -4.5986
  146SAPE   C3616043   2.836   1.186   5.912  0.2331 -0.9628  0.0442
  146SAPE   H6X16044   2.834   1.123   5.820 -1.4322 -2.1394  0.8504
  146SAPE   H6Y16045   2.942   1.219   5.920  0.5422 -2.2705  1.7191
  146SAPE   C3716046   2.733   1.297   5.891 -0.0607  0.1682 -0.8815
  146SAPE   H7X16047   2.784   1.396   5.895  0.5957 -0.2172  1.3762
  146SAPE   H7Y16048   2.644   1.292   5.956 -0.8995  0.9057 -1.9336
  146SAPE   C3816049   2.678   1.305   5.748  0.4237  0.5526  0.3877
  146SAPE   H8X16050   2.586   1.366   5.762  0.6616  0.4474  2.8689
  146SAPE   H8Y16051   2.646   1.201   5.725  0.8038  0.9768 -2.4227
  146SAPE   C3916052   2.773   1.357   5.643 -1.4866 -0.2969  0.0724
  146SAPE   H9X16053   2.871   1.306   5.632 -0.5597  1.6844 -1.8372
  146SAPE   H9Y16054   2.809   1.460   5.666  0.4074 -1.0504  0.7436
  146SAPE  C31016055   2.711   1.354   5.501 -0.2435 -0.2206 -0.3286
  146SAPE  H10X16056   2.614   1.408   5.499 -0.0900  0.0459 -1.0418
  146SAPE  H10Y16057   2.686   1.249   5.473 -2.6077  0.1614  0.1708
  146SAPE  C31116058   2.800   1.430   5.396 -0.5771  0.8023  0.6897
  146SAPE  H11X16059   2.906   1.399   5.402 -0.1055  2.2535  0.1421
  146SAPE  H11Y16060   2.802   1.538   5.424  0.7452  0.7664  0.7602
  146SAPE  C31216061   2.753   1.413   5.250  0.2124 -0.6139 -0.5080
  146SAPE  H12X16062   2.654   1.464   5.248  0.1921 -0.6293  0.0093
  146SAPE  H12Y16063   2.729   1.306   5.230 -0.2850 -1.3830  3.3252
  146SAPE  C31316064   2.851   1.478   5.147  0.3787 -0.1673  0.0598
  146SAPE  H13X16065   2.947   1.424   5.159  0.0009 -0.9773 -0.5282
  146SAPE  H13Y16066   2.863   1.584   5.178 -0.5295  0.1132 -0.5121
  146SAPE  C31416067   2.805   1.474   4.999 -0.8509 -0.3735  0.3136
  146SAPE  H14X16068   2.886   1.514   4.935 -0.7412 -1.8770 -0.5483
  146SAPE  H14Y16069   2.715   1.540   4.995 -1.6522 -1.4472 -0.0585
  146SAPE  C31516070   2.786   1.333   4.945  0.4087 -0.0026 -0.2220
  146SAPE  H15X16071   2.717   1.279   5.014  0.1234  0.1202 -0.4069
  146SAPE  H15Y16072   2.881   1.276   4.953  0.3579  0.1532  2.1055
  146SAPE  C31616073   2.729   1.343   4.807 -0.3342 -0.2011 -0.1692
  146SAPE  H16X16074   2.769   1.262   4.742 -0.4938  0.7505 -1.4802
  146SAPE  H16Y16075   2.757   1.438   4.758  2.0317 -1.2250 -0.9418
  146SAPE  C31716076   2.573   1.340   4.795 -0.6743  0.2028 -0.2273
  146SAPE  H17X16077   2.540   1.237   4.819  0.2510  0.4451  2.3797
  146SAPE  H17Y16078   2.554   1.350   4.686 -2.7828 -3.0573 -0.2787
  146SAPE  C31816079   2.489   1.431   4.876 -0.5093 -0.7061  0.4703
  146SAPE  H18X16080   2.380   1.414   4.860 -0.4140  0.3151 -1.5888
  146SAPE  H18Y16081   2.501   1.538   4.847 -1.0549  0.4507  3.9614
  146SAPE  H18Z16082   2.508   1.435   4.985  1.4386  0.7642  0.1387
  147SAPE     N16083   1.118   1.798   7.351 -0.0024 -0.5488  0.3824
  147SAPE   HN116084   1.020   1.802   7.319  0.5381  2.0581 -1.2024
  147SAPE   HN216085   1.133   1.702   7.389 -0.5094 -1.8236 -2.4372
  147SAPE   HN316086   1.132   1.886   7.404 -1.1855  0.7385 -1.3673
  147SAPE   C1216087   1.194   1.819   7.220  0.1516  0.3831  0.8122
  147SAPE  H12A16088   1.210   1.726   7.162  0.9207  0.7644  0.4025
  147SAPE  H12B16089   1.290   1.868   7.248 -0.5706  1.3717  1.6863
  147SAPE   C1116090   1.110   1.914   7.131  0.0998 -0.0082 -0.5928
  147SAPE  H11A16091   1.014   1.865   7.104  0.0066 -0.2480  0.1563
  147SAPE  H11B16092   1.148   1.925   7.027  1.0442  0.1165 -0.2485
  147SAPE     P16093   1.173   2.178   7.149 -0.4122  0.0168  0.4626
  147SAPE   O1316094   1.090   2.290   7.193 -0.2314 -0.4071  0.1604
  147SAPE   O1416095   1.311   2.165   7.207  0.5630 -0.0670 -0.2296
  147SAPE   O1216096   1.088   2.048   7.189  0.1728  0.2574  0.3434
  147SAPE   O1116097   1.180   2.169   6.989 -0.2565 -0.3249 -0.1660
  147SAPE    C116098   1.193   2.275   6.896  0.0057  0.0973  0.5077
  147SAPE    HA16099   1.097   2.327   6.874  0.5258  1.0169  0.3835
  147SAPE    HB16100   1.265   2.349   6.935 -0.1028 -0.4107  1.6899
  147SAPE    C216101   1.256   2.224   6.759  0.3599  0.4994  0.6593
  147SAPE    HS16102   1.301   2.316   6.717  1.2954  1.1186  2.8569
  147SAPE   O2116103   1.149   2.164   6.678  0.0033  0.3552 -0.5490
  147SAPE   C2116104   1.171   2.163   6.549  0.0006  0.0751  0.1377
  147SAPE   O2216105   1.278   2.180   6.494  0.5810  0.1255 -0.2164
  147SAPE   C2216106   1.035   2.134   6.474  0.4580 -0.3369  0.0322
  147SAPE   H2R16107   1.011   2.030   6.446 -1.8928  0.8317 -2.8105
  147SAPE   H2S16108   0.960   2.191   6.533  0.4730 -1.8215  1.5476
  147SAPE    C316109   1.372   2.115   6.795 -0.3346  0.3549 -0.3618
  147SAPE    HX16110   1.312   2.026   6.825  0.6480  0.3600  1.7544
  147SAPE    HY16111   1.421   2.143   6.890 -1.6237 -2.3258  1.2212
  147SAPE   O3116112   1.451   2.075   6.683 -0.0444 -0.0025 -0.1103
  147SAPE   C3116113   1.576   2.129   6.672 -0.2646  0.0724  0.4804
  147SAPE   O3216114   1.624   2.218   6.736 -0.0996  0.1319  0.0068
  147SAPE   C3216115   1.647   2.054   6.561  0.4286 -0.6211  0.4438
  147SAPE   H2X16116   1.654   1.946   6.586 -2.4119 -0.9540  0.0751
  147SAPE   H2Y16117   1.748   2.101   6.556  0.2710 -0.4007 -1.1119
  147SAPE   C2316118   1.036   2.219   6.337 -0.2947  0.8228 -0.0437
  147SAPE   H3R16119   0.960   2.189   6.261 -1.3569  0.2867  1.1960
  147SAPE   H3S16120   1.138   2.198   6.298  0.1123 -0.9786  1.8130
  147SAPE   C2416121   1.016   2.374   6.363 -0.6744  0.0918 -0.1585
  147SAPE   H4R16122   1.041   2.420   6.264 -3.4061 -0.4490 -1.1878
  147SAPE   H4S16123   1.101   2.399   6.430 -1.2831 -0.6930  0.9335
  147SAPE   C2516124   0.886   2.415   6.406  0.4569 -0.1583  0.4665
  147SAPE   H5R16125   0.879   2.434   6.514 -0.5991 -0.1995  0.4161
  147SAPE   C2616126   0.785   2.442   6.322  0.4697 -0.6057  0.4615
  147SAPE   H6R16127   0.691   2.478   6.367 -0.2170 -0.1793 -1.2426
  147SAPE   C2716128   0.789   2.431   6.168 -0.7987  0.0130 -0.4957
  147SAPE   H7R16129   0.877   2.375   6.131  0.8071  2.5407 -0.7552
  147SAPE   H7S16130   0.798   2.532   6.122 -1.4024  0.9146  1.2305
  147SAPE   C2816131   0.660   2.366   6.121  0.8509 -0.9606 -0.2814
  147SAPE   H8R16132   0.604   2.306   6.194 -1.4768  0.6252 -0.6249
  147SAPE   C2916133   0.614   2.385   5.994 -0.1439  0.1631 -0.1925
  147SAPE   H9R16134   0.524   2.337   5.952 -0.5723  0.8709 -0.1190
  147SAPE  C21016135   0.675   2.471   5.884  1.0270  0.0562  0.1115
  147SAPE  H10R16136   0.723   2.562   5.924  3.6489 -0.3646 -1.7814
  147SAPE  H10S16137   0.590   2.516   5.829  0.8820  0.6370  0.8004
  147SAPE  C21116138   0.784   2.392   5.805  0.0765 -0.6723 -0.5999
  147SAPE  H11R16139   0.881   2.380   5.857  0.9165  0.6105 -1.8078
  147SAPE  C21216140   0.774   2.347   5.681  0.1186 -0.8302  0.4888
  147SAPE  H12R16141   0.855   2.289   5.633 -1.3569 -2.6198  0.0081
  147SAPE  C21316142   0.646   2.362   5.597 -0.3827  0.5742 -0.8499
  147SAPE  H13R16143   0.654   2.447   5.527 -1.3282 -0.2577 -2.0149
  147SAPE  H13S16144   0.556   2.375   5.660 -0.3177  0.2486 -0.6848
  147SAPE  C21416145   0.615   2.233   5.516  0.1456 -0.2387 -0.5110
  147SAPE  H14R16146   0.648   2.140   5.564 -1.0572  0.7721  2.5387
  147SAPE  C21516147   0.560   2.236   5.394 -0.3320 -0.1749  0.6579
  147SAPE  H15R16148   0.547   2.152   5.325  0.1767  0.4911 -0.2738
  147SAPE  C21616149   0.491   2.357   5.337  0.3824  0.1688 -0.0947
  147SAPE  H16R16150   0.461   2.427   5.418  0.8078  2.2733 -1.6596
  147SAPE  H16S16151   0.396   2.328   5.287  1.1238  0.4893 -1.7668
  147SAPE  C21716152   0.589   2.442   5.255 -0.0930 -0.3776  0.4006
  147SAPE  H17R16153   0.666   2.478   5.325 -0.0551  0.0232  0.1568
  147SAPE  H17S16154   0.545   2.534   5.210  1.8520 -0.2487 -1.3805
  147SAPE  C21816155   0.635   2.363   5.129 -0.4688 -0.6134 -0.8008
  147SAPE  H18R16156   0.541   2.319   5.088 -0.3697 -0.2512 -1.4174
  147SAPE  H18S16157   0.699   2.277   5.160 -0.3784 -0.3022 -0.0956
  147SAPE  C21916158   0.696   2.463   5.033  0.3140 -1.1344 -0.3490
  147SAPE  H19R16159   0.795   2.503   5.067  0.3280 -0.0645 -1.5907
  147SAPE  H19S16160   0.638   2.557   5.023 -0.4321 -1.1297  2.8181
  147SAPE  C22016161   0.707   2.401   4.891 -0.5894 -0.3800 -0.3499
  147SAPE  H20R16162   0.610   2.352   4.869 -0.9146 -0.3498  0.9534
  147SAPE  H20S16163   0.781   2.318   4.885 -1.9607 -1.5639 -2.8687
  147SAPE  H20T16164   0.715   2.486   4.819 -3.2238  0.5634  0.3622
  147SAPE   C3316165   1.585   2.066   6.425 -0.1218 -0.2297  0.7729
  147SAPE   H3X16166   1.586   2.171   6.390 -2.2688 -0.8073 -1.2387
  147SAPE   H3Y16167   1.478   2.045   6.444 -0.3564  1.2779  1.3181
  147SAPE   C3416168   1.664   1.993   6.314  0.4102  0.3586  0.2869
  147SAPE   H4X16169   1.688   1.894   6.359 -1.4701  0.0763  0.7243
  147SAPE   H4Y16170   1.761   2.043   6.294  0.5678  0.5730  1.4934
  147SAPE   C3516171   1.587   1.981   6.187 -0.8312 -0.0780  0.0314
  147SAPE   H5X16172   1.589   2.083   6.143 -2.4654 -0.5154 -1.1651
  147SAPE   H5Y16173   1.480   1.956   6.206 -1.7483  3.7480  0.7958
  147SAPE   C3616174   1.660   1.883   6.092 -0.0163 -0.1620  1.0958
  147SAPE   H6X16175   1.610   1.786   6.112 -1.4792  0.3548  0.1262
  147SAPE   H6Y16176   1.769   1.878   6.116  0.4115  1.3885 -0.3183
  147SAPE   C3716177   1.633   1.921   5.945 -0.9206  0.4324 -0.1886
  147SAPE   H7X16178   1.625   2.032   5.941 -1.6795  0.3567 -1.1784
  147SAPE   H7Y16179   1.538   1.877   5.908 -0.7787  0.8282 -1.0439
  147SAPE   C3816180   1.749   1.891   5.854  0.2826 -0.5411 -0.1797
  147SAPE   H8X16181   1.768   1.781   5.860 -2.3843 -1.0246  1.0057
  147SAPE   H8Y16182   1.847   1.933   5.884  0.0086  1.4535 -1.8992
  147SAPE   C3916183   1.724   1.938   5.705  0.0314 -0.0607  0.0459
  147SAPE   H9X16184   1.711   2.049   5.705  1.5453  0.1861  2.0759
  147SAPE   H9Y16185   1.625   1.898   5.676  0.2166 -0.0784 -0.5702
  147SAPE  C31016186   1.826   1.904   5.595  0.5805  0.0728 -0.1359
  147SAPE  H10X16187   1.928   1.917   5.638  0.6251 -0.3862 -0.0956
  147SAPE  H10Y16188   1.811   1.961   5.501  0.8023 -1.0131 -0.8496
  147SAPE  C31116189   1.825   1.758   5.544  0.1668  0.0900  0.2216
  147SAPE  H11X16190   1.803   1.689   5.629 -1.0958 -1.6064 -1.4006
  147SAPE  H11Y16191   1.928   1.727   5.517  1.4149  4.4488 -0.7140
  147SAPE  C31216192   1.732   1.719   5.427 -0.1532 -0.3845 -0.1663
  147SAPE  H12X16193   1.755   1.787   5.342  1.3525 -0.9160 -0.2177
  147SAPE  H12Y16194   1.627   1.734   5.460 -0.1449 -2.9931  1.3315
  147SAPE  C31316195   1.748   1.579   5.374 -0.4044  0.2629 -0.2455
  147SAPE  H13X16196   1.655   1.557   5.318 -0.4069  1.6660 -0.8372
  147SAPE  H13Y16197   1.750   1.506   5.458  0.0571  1.3694  0.7316
  147SAPE  C31416198   1.858   1.573   5.274 -0.4046  0.3887  0.5755
  147SAPE  H14X16199   1.951   1.597   5.328 -0.6235 -0.6013  1.4259
  147SAPE  H14Y16200   1.849   1.647   5.192 -2.5903 -0.1386  0.2712
  147SAPE  C31516201   1.866   1.434   5.213 -0.3153 -0.1275 -0.0075
  147SAPE  H15X16202   1.874   1.356   5.291  1.1604  1.3496  1.4071
  147SAPE  H15Y16203   1.953   1.426   5.144 -1.1616 -1.0122 -1.0137
  147SAPE  C31616204   1.753   1.396   5.123  0.5334  0.7150 -0.1071
  147SAPE  H16X16205   1.724   1.488   5.068  0.5020  0.2394 -0.9031
  147SAPE  H16Y16206   1.665   1.363   5.182  0.8041 -3.2802 -1.6509
  147SAPE  C31716207   1.776   1.294   5.012 -0.5082  0.3664  0.2615
  147SAPE  H17X16208   1.854   1.335   4.945 -0.0489 -1.3582 -0.3161
  147SAPE  H17Y16209   1.687   1.282   4.947  0.5133  0.2803 -1.1769
  147SAPE  C31816210   1.821   1.162   5.070 -0.1032  0.8012  0.4679
  147SAPE  H18X16211   1.930   1.173   5.090  0.3250 -2.8235  0.8854
  147SAPE  H18Y16212   1.819   1.089   4.986 -0.5075  1.0803  0.2317
  147SAPE  H18Z16213   1.768   1.128   5.162  2.1674 -0.5254  1.3715
  148SAPE     N16214   6.186   3.157   6.756  0.4833 -0.6403  0.0347
  148SAPE   HN116215   6.096   3.189   6.798  1.0285  1.6011 -0.3731
  148SAPE   HN216216   6.217   3.211   6.674  0.5748 -1.2636 -0.3465
  148SAPE   HN316217   6.174   3.059   6.723 -0.7367 -0.5148  0.0588
  148SAPE   C1216218   6.288   3.161   6.863 -0.8109 -0.2073  0.4252
  148SAPE  H12A16219   6.388   3.159   6.815 -0.3995 -0.0496  1.2520
  148SAPE  H12B16220   6.283   3.076   6.934 -1.3023 -1.9678 -1.6275
  148SAPE   C1116221   6.279   3.308   6.925  0.6665  0.6640 -0.0019
  148SAPE  H11A16222   6.317   3.383   6.851  0.5969  0.2391 -0.4771
  148SAPE  H11B16223   6.341   3.312   7.017 -0.3679  1.1213  0.6922
  148SAPE     P16224   6.088   3.475   6.952 -0.2416 -0.1197 -0.5348
  148SAPE   O1316225   5.947   3.458   6.974 -0.6615  0.0788 -0.2971
  148SAPE   O1416226   6.171   3.572   7.032  0.0520  0.3734 -0.6612
  148SAPE   O1216227   6.141   3.332   6.969 -0.6542  0.2976  0.3806
  148SAPE   O1116228   6.119   3.493   6.794 -0.0258 -0.5205  0.7365
  148SAPE    C116229   6.079   3.608   6.713  0.0255  0.4034 -0.0444
  148SAPE    HA16230   6.077   3.699   6.776  2.1174  0.1711  0.4458
  148SAPE    HB16231   6.160   3.627   6.639  1.2921 -3.3354  0.1484
  148SAPE    C216232   5.936   3.585   6.658 -0.4024 -0.3162  0.6611
  148SAPE    HS16233   5.886   3.569   6.756  1.7820 -1.1900  1.6918
  148SAPE   O2116234   5.930   3.471   6.569 -0.2603 -0.4916 -0.3852
  148SAPE   C2116235   5.810   3.416   6.559 -0.0138 -0.0329  0.1111
  148SAPE   O2216236   5.707   3.450   6.620 -0.1812  0.4364 -0.2279
  148SAPE   C2216237   5.823   3.295   6.461  0.7060 -1.1675 -0.4098
  148SAPE   H2R16238   5.931   3.273   6.449  0.6453 -1.4017 -0.5231
  148SAPE   H2S16239   5.778   3.207   6.512  0.7082  0.5917  2.9302
  148SAPE    C316240   5.873   3.717   6.604 -0.6653 -0.5488 -0.2242
  148SAPE    HX16241   5.890   3.802   6.673 -1.0748 -0.1016 -0.6646
  148SAPE    HY16242   5.764   3.698   6.595 -0.9615  1.7214 -3.2549
  148SAPE   O3116243   5.914   3.753   6.470  0.2102  0.0845  0.2297
  148SAPE   C3116244   6.018   3.823   6.452  0.4111 -0.6799 -0.2265
  148SAPE   O3216245   6.086   3.880   6.539  0.4795 -0.2988  0.6289
  148SAPE   C3216246   6.031   3.847   6.303 -0.5085  0.3730  0.1964
  148SAPE   H2X16247   5.975   3.940   6.281 -0.0811  0.8877  1.2628
  148SAPE   H2Y16248   5.982   3.762   6.250 -0.9256 -1.6150  3.5320
  148SAPE   C2316249   5.756   3.318   6.323  0.2037  0.8856 -0.4703
  148SAPE   H3R16250   5.647   3.330   6.337 -0.0391 -2.0373  0.9277
  148SAPE   H3S16251   5.782   3.231   6.258  0.4980  1.2640 -0.8603
  148SAPE   C2416252   5.798   3.441   6.245 -0.4239 -1.1595 -0.3769
  148SAPE   H4R16253   5.778   3.535   6.301  1.8804  0.0460 -1.4313
  148SAPE   H4S16254   5.739   3.447   6.150 -1.9902  1.2412  0.6332
  148SAPE   C2516255   5.949   3.447   6.231 -0.0082 -0.0133 -0.7447
  148SAPE   H5R16256   6.003   3.478   6.322 -1.3334 -2.2325  0.8949
  148SAPE   C2616257   6.022   3.438   6.120 -0.1609  0.5976  0.5384
  148SAPE   H6R16258   6.131   3.441   6.127 -0.0888  0.8821 -0.6476
  148SAPE   C2716259   5.971   3.393   5.981  0.0211  0.1198 -0.1009
  148SAPE   H7R16260   5.894   3.464   5.944 -0.6080 -0.5477 -0.1034
  148SAPE   H7S16261   5.916   3.297   5.994 -0.1972  0.0165 -1.6548
  148SAPE   C2816262   6.073   3.387   5.868 -0.7037  0.3937 -0.2857
  148SAPE   H8R16263   6.177   3.412   5.895 -0.5408 -0.6628  0.0736
  148SAPE   C2916264   6.050   3.335   5.748  0.4818  0.0248  0.1056
  148SAPE   H9R16265   6.123   3.340   5.665  0.7810 -1.5163  0.2470
  148SAPE  C21016266   5.919   3.271   5.704  0.6900  0.0569 -0.5157
  148SAPE  H10R16267   5.870   3.219   5.789 -1.5219  0.9153 -1.1888
  148SAPE  H10S16268   5.937   3.199   5.621 -3.8851 -0.0673 -1.7007
  148SAPE  C21116269   5.808   3.372   5.664  0.2843  0.3889  0.5674
  148SAPE  H11R16270   5.738   3.395   5.745 -1.8835  1.0166 -1.3748
  148SAPE  C21216271   5.808   3.452   5.550 -0.1240  0.3311 -0.1194
  148SAPE  H12R16272   5.729   3.527   5.539 -0.2600  0.2689  0.3923
  148SAPE  C21316273   5.916   3.435   5.445 -0.4232  0.3472 -0.3907
  148SAPE  H13R16274   5.894   3.344   5.384 -1.3297 -0.6613  1.3584
  148SAPE  H13S16275   6.018   3.427   5.487 -0.8973 -0.3829  0.6586
  148SAPE  C21416276   5.910   3.559   5.370 -0.0471 -0.1026  0.0538
  148SAPE  H14R16277   5.920   3.644   5.438  0.1833 -1.5000  1.8470
  148SAPE  C21516278   5.888   3.578   5.240  0.1474 -0.9315  0.3770
  148SAPE  H15R16279   5.888   3.685   5.213 -1.2920  0.0225  3.5876
  148SAPE  C21616280   5.876   3.483   5.123  0.0787  0.0922 -0.3870
  148SAPE  H16R16281   5.869   3.378   5.157  0.0074  0.1412 -0.2488
  148SAPE  H16S16282   5.957   3.493   5.047 -0.3717 -0.8091 -0.9869
  148SAPE  C21716283   5.748   3.511   5.043 -0.7210 -0.5318  0.3397
  148SAPE  H17R16284   5.735   3.620   5.026 -0.7599 -0.5652  0.1490
  148SAPE  H17S16285   5.659   3.476   5.099 -2.1476  2.0095 -0.1930
  148SAPE  C21816286   5.749   3.439   4.907  0.2407 -0.4724  0.2732
  148SAPE  H18R16287   5.749   3.328   4.911 -1.1081 -0.6127 -1.7688
  148SAPE  H18S16288   5.836   3.485   4.856 -1.2446  2.2798  0.0529
  148SAPE  C21916289   5.643   3.479   4.799  0.1516  0.2519  0.4855
  148SAPE  H19R16290   5.551   3.419   4.818  1.9922 -2.4719  1.4150
  148SAPE  H19S16291   5.676   3.440   4.700 -3.5120  1.1783 -1.2850
  148SAPE  C22016292   5.620   3.627   4.777  0.0297  0.4264 -0.3282
  148SAPE  H20R16293   5.551   3.676   4.849 -2.4499 -0.0863 -2.2515
  148SAPE  H20S16294   5.574   3.651   4.679 -1.4610  0.4470  0.3446
  148SAPE  H20T16295   5.720   3.674   4.763  0.3531  0.1500  0.9527
  148SAPE   C3316296   6.176   3.860   6.249 -0.0196 -0.4870 -0.3553
  148SAPE   H3X16297   6.235   3.766   6.237 -0.5490 -0.6534 -1.8827
  148SAPE   H3Y16298   6.235   3.924   6.319  0.6401  1.3606 -2.4589
  148SAPE   C3416299   6.188   3.939   6.120 -0.0327  0.5001  1.3496
  148SAPE   H4X16300   6.293   3.973   6.109  0.4401 -1.4126 -1.0361
  148SAPE   H4Y16301   6.125   4.029   6.134  0.2145  0.7010  1.1645
  148SAPE   C3516302   6.135   3.865   5.998 -0.6590  0.3717 -0.2365
  148SAPE   H5X16303   6.025   3.859   5.998 -0.7655  2.0029 -0.3750
  148SAPE   H5Y16304   6.175   3.761   6.001 -0.6226  0.3980  2.7080
  148SAPE   C3616305   6.190   3.925   5.861  0.4227  0.3809  0.0018
  148SAPE   H6X16306   6.297   3.896   5.848  0.4950 -0.8748  2.7987
  148SAPE   H6Y16307   6.189   4.036   5.858 -2.4093  0.4492  1.3404
  148SAPE   C3716308   6.123   3.861   5.739  0.0121 -0.0075 -0.6007
  148SAPE   H7X16309   6.015   3.878   5.756  0.2452  0.5847  0.4098
  148SAPE   H7Y16310   6.138   3.751   5.727 -1.8744 -0.1537 -2.0875
  148SAPE   C3816311   6.154   3.941   5.614  0.0645  0.1234  0.5703
  148SAPE   H8X16312   6.265   3.948   5.620  0.3330 -2.7512  0.3732
  148SAPE   H8Y16313   6.109   4.042   5.602  0.5809  0.2736 -0.1755
  148SAPE   C3916314   6.136   3.870   5.472  1.0268 -0.3529  0.4034
  148SAPE   H9X16315   6.026   3.859   5.464  0.9128 -1.6380  2.8592
  148SAPE   H9Y16316   6.168   3.764   5.485 -0.6878 -0.8354  0.8890
  148SAPE  C31016317   6.204   3.944   5.362 -0.3677  0.7237  0.5583
  148SAPE  H10X16318   6.309   3.932   5.394 -0.1089  3.2143  0.8458
  148SAPE  H10Y16319   6.178   4.052   5.365 -3.5500  0.0378  1.5622
  148SAPE  C31116320   6.168   3.883   5.226 -0.0870  0.6864  0.9405
  148SAPE  H11X16321   6.062   3.887   5.195  0.4017  2.4957 -0.7262
  148SAPE  H11Y16322   6.201   3.779   5.207  0.2656  1.2032 -1.6732
  148SAPE  C31216323   6.250   3.959   5.121  0.0379 -0.1216  0.0270
  148SAPE  H12X16324   6.355   3.923   5.110  0.6467  1.9383 -1.5047
  148SAPE  H12Y16325   6.259   4.066   5.149  1.8918 -0.4375  0.8010
  148SAPE  C31316326   6.189   3.957   4.983 -0.0306 -0.2492 -0.2123
  148SAPE  H13X16327   6.237   4.041   4.929 -0.0000 -1.0210 -1.4320
  148SAPE  H13Y16328   6.088   3.999   4.999  0.8424  1.3418  1.4975
  148SAPE  C31416329   6.194   3.820   4.910  0.8226  0.5235  0.0728
  148SAPE  H14X16330   6.125   3.752   4.965 -0.5087  2.5812  1.0598
  148SAPE  H14Y16331   6.297   3.778   4.909  0.4551 -0.3990 -0.2480
  148SAPE  C31516332   6.143   3.819   4.766 -0.8253  0.2803 -0.0875
  148SAPE  H15X16333   6.181   3.904   4.705 -2.4983  0.9277 -0.2848
  148SAPE  H15Y16334   6.033   3.831   4.763 -0.8795 -0.1100  0.2806
  148SAPE  C31616335   6.183   3.696   4.690 -0.2238 -0.1212 -0.3648
  148SAPE  H16X16336   6.294   3.685   4.686  0.0089  2.0316 -2.9602
  148SAPE  H16Y16337   6.155   3.705   4.583 -0.2279 -1.3346 -0.4825
  148SAPE  C31716338   6.121   3.567   4.753  0.3275 -0.0573 -0.3477
  148SAPE  H17X16339   6.011   3.570   4.762  0.3185 -1.5026  0.3946
  148SAPE  H17Y16340   6.157   3.560   4.858 -1.7382  2.7668  0.6696
  148SAPE  C31816341   6.156   3.441   4.669  0.5822 -0.1370  0.4758
  148SAPE  H18X16342   6.262   3.413   4.684  0.6053  0.3721  1.4218
  148SAPE  H18Y16343   6.124   3.449   4.563 -2.6367 -2.0809  1.1732
  148SAPE  H18Z16344   6.098   3.354   4.707  2.1162 -0.0768  3.2405
  149SAPE     N16345   5.424   0.889   6.857 -0.3391 -0.1705 -0.2132
  149SAPE   HN116346   5.475   0.956   6.919  1.5169 -1.5875 -0.1308
  149SAPE   HN216347   5.379   0.818   6.917  2.1104  0.2703  2.3616
  149SAPE   HN316348   5.496   0.843   6.798 -0.6178 -0.5896 -0.2282
  149SAPE   C1216349   5.332   0.945   6.761 -0.1876  0.1796 -0.6595
  149SAPE  H12A16350   5.389   1.010   6.691 -0.1254 -1.7446 -2.4969
  149SAPE  H12B16351   5.262   1.013   6.813 -2.0967 -0.4585 -2.2402
  149SAPE   C1116352   5.243   0.836   6.697  0.4655 -0.7695  0.2410
  149SAPE  H11A16353   5.309   0.794   6.618  0.1930  1.2760 -1.1377
  149SAPE  H11B16354   5.162   0.882   6.636  1.4497 -0.7861 -1.1192
  149SAPE     P16355   5.123   0.603   6.764  0.0474 -0.1225  0.3639
  149SAPE   O1316356   5.221   0.500   6.781  0.0039 -0.4717 -0.3551
  149SAPE   O1416357   5.005   0.598   6.848 -0.4068  0.0988  0.0595
  149SAPE   O1216358   5.193   0.750   6.797 -0.4437  0.2507 -0.2757
  149SAPE   O1116359   5.064   0.598   6.612 -0.5183 -0.0863 -0.7204
  149SAPE    C116360   4.945   0.671   6.602 -0.2260 -0.6890  0.2120
  149SAPE    HA16361   4.860   0.634   6.663 -1.3073  2.0079  0.4819
  149SAPE    HB16362   4.956   0.779   6.627 -1.4454 -0.6939  0.8549
  149SAPE    C216363   4.898   0.666   6.452  0.8545  0.2507  0.1145
  149SAPE    HS16364   4.809   0.730   6.435  0.1668 -0.4687  0.9327
  149SAPE   O2116365   4.873   0.530   6.419  0.3202 -1.2549  0.8619
  149SAPE   C2116366   4.743   0.502   6.426 -0.0068  0.4577 -0.6582
  149SAPE   O2216367   4.661   0.578   6.474  0.1052  0.2535  0.2221
  149SAPE   C2216368   4.714   0.359   6.382 -0.2171 -0.1554  0.1021
  149SAPE   H2R16369   4.810   0.302   6.380 -0.3101 -0.3668  1.1733
  149SAPE   H2S16370   4.664   0.301   6.463  0.4220  0.8231  1.2407
  149SAPE    C316371   5.012   0.722   6.360  0.7452  0.4019 -0.0594
  149SAPE    HX16372   5.104   0.675   6.401  1.1163  1.8674  0.8406
  149SAPE    HY16373   5.029   0.828   6.387 -0.3232  0.6671 -0.3846
  149SAPE   O3116374   4.995   0.711   6.216  0.5445  0.5956  0.1726
  149SAPE   C3116375   5.064   0.610   6.165 -0.2577 -0.2985  1.2995
  149SAPE   O3216376   5.130   0.527   6.224 -0.8744  0.4364 -0.0188
  149SAPE   C3216377   5.063   0.636   6.014  0.4235  0.5131 -0.1566
  149SAPE   H2X16378   4.979   0.706   5.999  0.4215  1.2074  2.5969
  149SAPE   H2Y16379   5.052   0.533   5.973 -0.4988  0.8540 -0.8102
  149SAPE   C2316380   4.626   0.344   6.255  0.1663 -0.3315  0.2228
  149SAPE   H3R16381   4.532   0.397   6.283  0.1059 -0.6243  0.5901
  149SAPE   H3S16382   4.597   0.237   6.242  1.5176 -0.7265  0.3037
  149SAPE   C2416383   4.669   0.402   6.118  0.2622  0.6289 -0.0287
  149SAPE   H4R16384   4.696   0.508   6.138  1.4490  0.8115 -2.3336
  149SAPE   H4S16385   4.600   0.394   6.031  2.8080 -1.5872 -2.0195
  149SAPE   C2516386   4.798   0.324   6.083  0.0092  0.5037 -0.7165
  149SAPE   H5R16387   4.885   0.334   6.149  1.5419  1.0372 -2.6981
  149SAPE   C2616388   4.814   0.276   5.955 -0.5407 -0.5835  0.3221
  149SAPE   H6R16389   4.910   0.227   5.932 -0.8699 -1.0785  0.0015
  149SAPE   C2716390   4.717   0.260   5.836 -0.0446 -0.4844 -0.2614
  149SAPE   H7R16391   4.619   0.224   5.874  1.0437 -1.9102  1.3671
  149SAPE   H7S16392   4.762   0.174   5.782  2.5876  0.8216 -0.3053
  149SAPE   C2816393   4.691   0.379   5.757  0.6584  0.2829  0.2208
  149SAPE   H8R16394   4.658   0.461   5.822  0.7610  0.6167 -0.1449
  149SAPE   C2916395   4.717   0.399   5.626  0.0039  0.3705  0.3917
  149SAPE   H9R16396   4.665   0.484   5.578  2.9036  2.5958  0.8938
  149SAPE  C21016397   4.758   0.298   5.532 -0.9505 -0.7011  0.3873
  149SAPE  H10R16398   4.840   0.236   5.574 -0.0514  1.1381  1.4976
  149SAPE  H10S16399   4.810   0.350   5.448  0.6817  1.3615  2.5088
  149SAPE  C21116400   4.648   0.209   5.480  0.0075 -0.7277  0.0376
  149SAPE  H11R16401   4.606   0.143   5.557  0.2400  0.6433  1.3845
  149SAPE  C21216402   4.588   0.224   5.362  0.0745  0.0000  0.5229
  149SAPE  H12R16403   4.500   0.161   5.343 -1.7357  1.5509  3.1187
  149SAPE  C21316404   4.630   0.317   5.254 -0.1431 -0.2291  0.5155
  149SAPE  H13R16405   4.637   0.254   5.162 -2.7082  0.2813 -0.0858
  149SAPE  H13S16406   4.731   0.360   5.272 -1.0412  1.2106  2.4463
  149SAPE  C21416407   4.529   0.428   5.222  0.5199  0.5087  0.9548
  149SAPE  H14R16408   4.423   0.400   5.228  0.0199  1.2724 -2.5956
  149SAPE  C21516409   4.556   0.554   5.179 -0.0636  0.0243  0.0818
  149SAPE  H15R16410   4.479   0.630   5.160 -0.7121 -0.6452 -0.0435
  149SAPE  C21616411   4.697   0.609   5.159  0.2215 -0.6185 -0.1367
  149SAPE  H16R16412   4.757   0.585   5.249  0.6922 -1.9152 -0.7826
  149SAPE  H16S16413   4.703   0.720   5.172 -0.0474 -0.5410 -0.6313
  149SAPE  C21716414   4.781   0.564   5.036  0.7400  0.2847 -0.9893
  149SAPE  H17R16415   4.808   0.457   5.034  0.9782  0.2651  1.1482
  149SAPE  H17S16416   4.878   0.617   5.044  0.9506 -0.3674  1.3289
  149SAPE  C21816417   4.738   0.621   4.896 -0.8346  0.1129  0.2249
  149SAPE  H18R16418   4.749   0.732   4.893 -0.4034  0.1050  1.1807
  149SAPE  H18S16419   4.628   0.601   4.891 -1.0074  1.2621 -1.0547
  149SAPE  C21916420   4.799   0.553   4.772  0.0471  1.2026  0.0286
  149SAPE  H19R16421   4.784   0.445   4.794 -1.8547  1.4287  0.0594
  149SAPE  H19S16422   4.907   0.578   4.770 -0.1700  2.7127  2.3757
  149SAPE  C22016423   4.737   0.572   4.635 -0.2248  0.2100  0.0058
  149SAPE  H20R16424   4.640   0.519   4.622 -0.0914  0.3589 -2.0336
  149SAPE  H20S16425   4.815   0.530   4.567  0.5581  1.4394  0.1011
  149SAPE  H20T16426   4.730   0.679   4.604  1.0287  0.0641 -0.8848
  149SAPE   C3316427   5.192   0.703   5.959  0.1813  0.1294  0.5372
  149SAPE   H3X16428   5.276   0.632   5.946  0.5451  0.3203  1.7165
  149SAPE   H3Y16429   5.229   0.785   6.025 -2.5133  2.5132 -0.6945
  149SAPE   C3416430   5.166   0.762   5.813  0.8257  0.2712 -0.3446
  149SAPE   H4X16431   5.241   0.841   5.793 -0.4487  2.4020  2.4848
  149SAPE   H4Y16432   5.070   0.817   5.823  0.8405  0.3129 -0.4413
  149SAPE   C3516433   5.171   0.654   5.713  0.2656  0.3980  0.3096
  149SAPE   H5X16434   5.100   0.575   5.744  1.4721 -0.6238  0.5377
  149SAPE   H5Y16435   5.270   0.604   5.720 -0.0721 -0.2693  0.3546
  149SAPE   C3616436   5.151   0.696   5.571  0.0008  0.5706  0.1445
  149SAPE   H6X16437   5.216   0.636   5.504  1.9697  2.1814  0.5120
  149SAPE   H6Y16438   5.169   0.806   5.565 -0.8509  0.7660  0.9210
  149SAPE   C3716439   5.006   0.672   5.521 -0.9015 -0.2849 -0.2973
  149SAPE   H7X16440   4.925   0.712   5.586  1.4161  0.8136  2.0893
  149SAPE   H7Y16441   4.992   0.562   5.526  0.3349 -0.4237  0.6851
  149SAPE   C3816442   4.983   0.739   5.386 -0.1637 -0.2481 -0.2904
  149SAPE   H8X16443   5.001   0.848   5.401  2.6953 -0.8232  1.2531
  149SAPE   H8Y16444   4.879   0.738   5.347 -1.7108  1.7473  3.3022
  149SAPE   C3916445   5.065   0.682   5.267  0.8037 -0.0356 -0.1275
  149SAPE   H9X16446   5.011   0.598   5.219  1.4159  0.1028 -1.0941
  149SAPE   H9Y16447   5.166   0.652   5.302  0.4138 -4.3924 -2.1371
  149SAPE  C31016448   5.075   0.783   5.154  0.3637  0.2904  0.4717
  149SAPE  H10X16449   5.105   0.883   5.191  0.4552 -0.1243  1.5448
  149SAPE  H10Y16450   4.973   0.799   5.112  0.1819 -0.2965  0.6771
  149SAPE  C31116451   5.171   0.747   5.044 -0.2323 -0.2174  0.0161
  149SAPE  H11X16452   5.126   0.658   4.994 -1.0492 -1.8899  3.4462
  149SAPE  H11Y16453   5.263   0.717   5.099 -0.0160  1.7072  0.7801
  149SAPE  C31216454   5.211   0.852   4.942 -0.0900 -0.0162 -0.2269
  149SAPE  H12X16455   5.267   0.929   4.998 -1.1922 -0.5592  1.7159
  149SAPE  H12Y16456   5.122   0.893   4.891  0.4286 -0.9989 -2.0183
  149SAPE  C31316457   5.303   0.806   4.825  0.5576 -0.0736 -0.3669
  149SAPE  H13X16458   5.338   0.897   4.773  0.1435  0.3494  0.0894
  149SAPE  H13Y16459   5.239   0.753   4.751 -0.8469  2.5700 -1.1393
  149SAPE  C31416460   5.427   0.733   4.868 -0.2347 -0.0658  0.1935
  149SAPE  H14X16461   5.382   0.636   4.897 -3.3505  1.1455 -0.1891
  149SAPE  H14Y16462   5.478   0.779   4.955  0.2736 -1.4680  0.6734
  149SAPE  C31516463   5.532   0.704   4.763  0.7212 -0.0462  0.3990
  149SAPE  H15X16464   5.556   0.798   4.707  0.6359 -0.3592 -0.1735
  149SAPE  H15Y16465   5.484   0.631   4.694  1.6331 -1.4846  1.2543
  149SAPE  C31616466   5.659   0.653   4.827 -0.3123 -0.0932 -0.3369
  149SAPE  H16X16467   5.628   0.579   4.904 -0.3269  1.6064  1.3769
  149SAPE  H16Y16468   5.677   0.739   4.895 -0.2362 -0.3339 -0.0502
  149SAPE  C31716469   5.772   0.627   4.728  0.6800 -0.2983  0.5432
  149SAPE  H17X16470   5.871   0.607   4.776  0.9118 -2.9585 -0.8631
  149SAPE  H17Y16471   5.798   0.721   4.675 -3.1394 -0.1517 -1.3845
  149SAPE  C31816472   5.739   0.526   4.613  0.1355 -0.6627  0.2496
  149SAPE  H18X16473   5.676   0.443   4.652  1.6416 -2.0438 -0.1883
  149SAPE  H18Y16474   5.827   0.471   4.572  1.3639  1.7388 -0.5303
  149SAPE  H18Z16475   5.690   0.577   4.526  1.0511 -0.4279 -0.1428
  150SAPE     N16476   0.640   0.276   7.274 -0.2111  0.5564  0.8287
  150SAPE   HN116477   0.694   0.222   7.346 -1.8295 -1.3633  0.6873
  150SAPE   HN216478   0.653   0.379   7.277 -1.1583  0.8155 -1.9121
  150SAPE   HN316479   0.538   0.261   7.286  0.0839 -0.2349  2.8617
  150SAPE   C1216480   0.679   0.226   7.140 -0.6681  0.8398 -0.3143
  150SAPE  H12A16481   0.663   0.116   7.138 -1.6564  0.8491  2.6184
  150SAPE  H12B16482   0.788   0.246   7.131 -0.2559  0.3867  2.8115
  150SAPE   C1116483   0.609   0.304   7.031 -1.0932 -0.4274  0.4153
  150SAPE  H11A16484   0.501   0.284   7.049 -0.7152 -1.7039  1.4667
  150SAPE  H11B16485   0.627   0.261   6.930 -2.4214  3.5633 -1.7249
  150SAPE     P16486   0.754   0.510   6.991 -0.9112  0.0635  0.0104
  150SAPE   O1316487   0.832   0.511   7.118  0.3396  0.1590 -0.1407
  150SAPE   O1416488   0.809   0.429   6.877  0.6107 -0.1805  0.1650
  150SAPE   O1216489   0.624   0.451   7.039 -0.2612 -0.4265  0.2229
  150SAPE   O1116490   0.730   0.659   6.956  0.0367 -0.8955  0.2411
  150SAPE    C116491   0.597   0.709   6.931 -0.0639 -0.3619  0.0149
  150SAPE    HA16492   0.517   0.658   6.989  0.1898 -0.8954 -0.0979
  150SAPE    HB16493   0.583   0.815   6.963  2.2109  1.2185 -3.6014
  150SAPE    C216494   0.558   0.696   6.775 -0.1095  0.5277  0.2109
  150SAPE    HS16495   0.478   0.771   6.754  0.4266  1.8523  2.5778
  150SAPE   O2116496   0.509   0.564   6.751 -0.5952 -0.7300  0.1044
  150SAPE   C2116497   0.390   0.535   6.803  0.7378 -0.1097 -0.8050
  150SAPE   O2216498   0.318   0.621   6.855  0.7247  0.0876 -0.5581
  150SAPE   C2216499   0.360   0.395   6.769  0.1857  0.0333  0.1425
  150SAPE   H2R16500   0.316   0.391   6.667 -1.4982 -1.1425  0.8674
  150SAPE   H2S16501   0.450   0.330   6.767  1.3012  1.5248 -1.5876
  150SAPE    C316502   0.671   0.730   6.673  0.0529 -0.3124  0.3487
  150SAPE    HX16503   0.755   0.657   6.679  0.4464  0.1609  0.7939
  150SAPE    HY16504   0.706   0.832   6.698  1.2401 -0.8875  1.1735
  150SAPE   O3116505   0.622   0.739   6.532  0.1043  0.6322  0.1312
  150SAPE   C3116506   0.639   0.619   6.468  0.1449  0.3549 -0.5352
  150SAPE   O3216507   0.677   0.519   6.520 -0.2633  0.1977 -0.1610
  150SAPE   C3216508   0.585   0.624   6.332 -0.2125 -0.5901 -0.4029
  150SAPE   H2X16509   0.561   0.729   6.306 -1.1240 -0.7054 -0.0454
  150SAPE   H2Y16510   0.497   0.558   6.344 -1.6974  1.0562 -1.7175
  150SAPE   C2316511   0.260   0.330   6.871 -0.3970 -0.1160 -0.2429
  150SAPE   H3R16512   0.158   0.374   6.869  0.7790  2.8231  0.6047
  150SAPE   H3S16513   0.301   0.334   6.974 -2.2274  0.1732  0.5078
  150SAPE   C2416514   0.233   0.174   6.847  0.1269  0.1015  0.0855
  150SAPE   H4R16515   0.213   0.168   6.738 -0.2712 -0.1151  0.1695
  150SAPE   H4S16516   0.138   0.149   6.899 -1.6912  2.5680 -1.7527
  150SAPE   C2516517   0.349   0.088   6.895 -0.6790  0.1913  0.3155
  150SAPE   H5R16518   0.359   0.094   7.004  0.4890 -0.8137  0.2931
  150SAPE   C2616519   0.455   0.029   6.823  0.0982  0.1452 -0.5360
  150SAPE   H6R16520   0.532  -0.030   6.876 -0.3610 -0.1976 -0.2395
  150SAPE   C2716521   0.459   0.022   6.674 -0.2493 -0.1205 -0.2680
  150SAPE   H7R16522   0.356   0.026   6.630 -1.2279 -3.1324  1.5135
  150SAPE   H7S16523   0.489  -0.076   6.632 -2.1182 -0.8926  0.0945
  150SAPE   C2816524   0.547   0.128   6.606  0.3653  0.3680  0.6299
  150SAPE   H8R16525   0.624   0.171   6.672 -1.0819  1.9533  1.3763
  150SAPE   C2916526   0.542   0.168   6.477 -0.0311 -0.0592 -0.7484
  150SAPE   H9R16527   0.608   0.253   6.453 -0.9727  0.6969 -0.7269
  150SAPE  C21016528   0.443   0.137   6.370 -0.4754 -0.4325 -0.3945
  150SAPE  H10R16529   0.349   0.185   6.407 -0.9448 -0.9881 -0.8347
  150SAPE  H10S16530   0.422   0.028   6.374  0.3067 -0.6415 -1.6038
  150SAPE  C21116531   0.477   0.213   6.242  0.4135  0.1754  0.4453
  150SAPE  H11R16532   0.440   0.315   6.228  0.1422  0.2060  1.2840
  150SAPE  C21216533   0.540   0.148   6.137  0.2743 -0.0185 -0.2013
  150SAPE  H12R16534   0.565   0.210   6.050 -1.8937  1.9266  0.4385
  150SAPE  C21316535   0.587  -0.005   6.143  0.0847 -0.2198  0.2253
  150SAPE  H13R16536   0.543  -0.060   6.229  1.1769 -0.7296  0.4843
  150SAPE  H13S16537   0.698  -0.009   6.153 -0.0442  0.8788  2.6675
  150SAPE  C21416538   0.541  -0.076   6.017  0.3670  0.0497 -0.0135
  150SAPE  H14R16539   0.459  -0.148   6.030  0.0566 -0.1897 -2.6829
  150SAPE  C21516540   0.595  -0.056   5.895  0.1786  0.0582  0.5556
  150SAPE  H15R16541   0.553  -0.116   5.812  1.0541  0.8813 -0.5183
  150SAPE  C21616542   0.713   0.034   5.861  0.8816  0.5782 -0.2300
  150SAPE  H16R16543   0.804  -0.027   5.844 -0.1063 -0.8407 -0.5511
  150SAPE  H16S16544   0.731   0.109   5.941 -1.4384 -0.6854  1.5873
  150SAPE  C21716545   0.671   0.121   5.735  0.8652  0.2351 -0.3239
  150SAPE  H17R16546   0.739   0.208   5.730 -0.2070  1.1503  0.5295
  150SAPE  H17S16547   0.572   0.170   5.745  2.6115  3.6841  2.1103
  150SAPE  C21816548   0.682   0.027   5.620  0.0013  0.3661  0.6769
  150SAPE  H18R16549   0.582  -0.022   5.609 -1.1655  2.7082  0.0953
  150SAPE  H18S16550   0.764  -0.047   5.622  1.4724  1.9198  0.0954
  150SAPE  C21916551   0.698   0.105   5.490 -0.3339  0.1829 -0.3747
  150SAPE  H19R16552   0.796   0.157   5.490 -0.7248  0.9584 -1.4017
  150SAPE  H19S16553   0.626   0.188   5.474  0.0124  0.2107 -1.9254
  150SAPE  C22016554   0.691   0.011   5.361  0.3065 -0.0126 -0.1791
  150SAPE  H20R16555   0.719   0.069   5.271 -0.2795  0.1148 -0.2830
  150SAPE  H20S16556   0.591  -0.035   5.348 -0.1804  1.7445 -3.6225
  150SAPE  H20T16557   0.772  -0.063   5.374  2.1483  2.1351  1.5708
  150SAPE   C3316558   0.692   0.589   6.232  0.2384  0.0881 -0.5174
  150SAPE   H3X16559   0.744   0.494   6.258  0.6525  0.9386  2.0963
  150SAPE   H3Y16560   0.764   0.665   6.198 -0.9268  1.1406 -0.6961
  150SAPE   C3416561   0.620   0.546   6.099  0.7765 -0.2593 -0.5892
  150SAPE   H4X16562   0.528   0.607   6.087 -0.2247 -1.4360  0.7293
  150SAPE   H4Y16563   0.579   0.443   6.099  1.7674 -0.7275 -2.8121
  150SAPE   C3516564   0.697   0.546   5.966  0.6434  0.3737 -0.3225
  150SAPE   H5X16565   0.776   0.468   5.975 -3.4194 -4.1302  0.7664
  150SAPE   H5Y16566   0.749   0.644   5.965  2.7972 -0.6987  0.0866
  150SAPE   C3616567   0.621   0.519   5.840  0.3422 -0.5509 -0.5262
  150SAPE   H6X16568   0.536   0.589   5.827  0.0450 -1.2036 -2.5930
  150SAPE   H6Y16569   0.560   0.426   5.838  0.5234 -0.7532  1.4879
  150SAPE   C3716570   0.693   0.538   5.711  0.5757 -0.2856  0.3231
  150SAPE   H7X16571   0.779   0.469   5.697 -1.1387 -2.5192  0.0571
  150SAPE   H7Y16572   0.735   0.639   5.693  0.8265 -0.3654  0.4602
  150SAPE   C3816573   0.599   0.505   5.586 -0.1889  0.3631  1.0100
  150SAPE   H8X16574   0.527   0.588   5.571 -0.2112  0.3573  1.0870
  150SAPE   H8Y16575   0.551   0.405   5.597 -1.5566  0.7500 -0.8738
  150SAPE   C3916576   0.682   0.500   5.457  0.2402  0.2732 -0.4250
  150SAPE   H9X16577   0.754   0.418   5.476 -0.2189 -0.4700 -1.7511
  150SAPE   H9Y16578   0.735   0.597   5.444 -0.8149  0.8238 -0.8106
  150SAPE  C31016579   0.602   0.472   5.326 -0.4006  0.1461 -0.0929
  150SAPE  H10X16580   0.520   0.546   5.315  1.6581  2.9050  1.6954
  150SAPE  H10Y16581   0.563   0.369   5.335  1.1054 -0.3845  0.6396
  150SAPE  C31116582   0.684   0.480   5.198 -0.0849 -0.1745 -0.3667
  150SAPE  H11X16583   0.775   0.419   5.214 -1.9414 -2.4756  2.5359
  150SAPE  H11Y16584   0.730   0.580   5.186  0.7051 -0.2563  1.6384
  150SAPE  C31216585   0.613   0.447   5.064 -0.4015 -0.2416  0.3369
  150SAPE  H12X16586   0.529   0.518   5.050 -0.1686 -0.1565 -0.7726
  150SAPE  H12Y16587   0.569   0.345   5.070 -0.1295 -0.4489 -0.8759
  150SAPE  C31316588   0.711   0.468   4.937  0.0172  0.0394  0.8243
  150SAPE  H13X16589   0.803   0.407   4.925  0.4478  1.0877 -2.1124
  150SAPE  H13Y16590   0.740   0.575   4.926 -0.1338  0.2059  1.9271
  150SAPE  C31416591   0.620   0.427   4.818  0.2365 -0.5153  0.0665
  150SAPE  H14X16592   0.669   0.470   4.728  1.1470 -1.2007  0.2187
  150SAPE  H14Y16593   0.517   0.466   4.826  0.8532  1.0290  0.8505
  150SAPE  C31516594   0.611   0.273   4.800  0.2283 -0.0515 -1.1053
  150SAPE  H15X16595   0.584   0.217   4.891  0.3470 -1.0328 -1.6632
  150SAPE  H15Y16596   0.716   0.246   4.777  0.6672  0.2196  0.4930
  150SAPE  C31616597   0.522   0.225   4.683  0.4793 -0.3268 -0.4631
  150SAPE  H16X16598   0.566   0.242   4.583 -0.0905 -1.3626 -0.8954
  150SAPE  H16Y16599   0.430   0.287   4.685  1.3121  1.0217  2.7868
  150SAPE  C31716600   0.500   0.072   4.686 -0.7168  0.4939 -0.0642
  150SAPE  H17X16601   0.595   0.017   4.704 -0.0515  1.6870  0.2374
  150SAPE  H17Y16602   0.460   0.048   4.585  0.6059 -1.5231 -0.1605
  150SAPE  C31816603   0.396   0.031   4.793 -0.6796  0.1136 -0.5068
  150SAPE  H18X16604   0.304   0.092   4.779 -0.5504 -0.0267 -2.1430
  150SAPE  H18Y16605   0.439   0.053   4.893 -0.8940 -1.7686  0.0397
  150SAPE  H18Z16606   0.370  -0.078   4.790  3.7296 -1.0876 -2.0731
  151SAPE     N16607   0.440   5.847   7.559 -0.5304  0.4471 -0.7257
  151SAPE   HN116608   0.473   5.787   7.480  0.3928 -0.0237 -0.0057
  151SAPE   HN216609   0.505   5.835   7.639 -1.3094 -2.2960 -0.3846
  151SAPE   HN316610   0.346   5.816   7.590  0.4849 -0.9891  1.1131
  151SAPE   C1216611   0.440   5.981   7.500 -0.1610 -0.0602 -0.7382
  151SAPE  H12A16612   0.538   5.995   7.450 -0.2595  1.3181 -0.5863
  151SAPE  H12B16613   0.425   6.066   7.571 -1.3573  1.0973 -2.3107
  151SAPE   C1116614   0.340   5.984   7.394 -0.3094 -0.4916 -0.2287
  151SAPE  H11A16615   0.372   5.913   7.315  1.5253  1.7999 -1.7054
  151SAPE  H11B16616   0.350   6.081   7.340 -0.1279 -0.9503 -1.0294
  151SAPE     P16617   0.119   6.085   7.494 -0.3611  0.0037 -0.3939
  151SAPE   O1316618  -0.003   6.028   7.556 -0.6877  0.6939 -0.0938
  151SAPE   O1416619   0.206   6.166   7.580  0.3239 -1.0819 -0.0984
  151SAPE   O1216620   0.209   5.970   7.442 -0.2120  0.1860 -0.2166
  151SAPE   O1116621   0.078   6.167   7.366 -0.3668 -0.0322  0.4508
  151SAPE    C116622  -0.036   6.127   7.285 -0.3269  0.1952 -0.3284
  151SAPE    HA16623  -0.058   6.018   7.291  0.1262  0.1245  0.1544
  151SAPE    HB16624  -0.127   6.174   7.328  0.7395  0.0787  2.2401
  151SAPE    C216625  -0.028   6.157   7.135 -0.8856 -0.5819  0.2121
  151SAPE    HS16626   0.049   6.085   7.100  1.9245  1.9837  0.7209
  151SAPE   O2116627   0.009   6.294   7.104 -1.2724 -0.6788 -0.4465
  151SAPE   C2116628   0.088   6.310   6.993 -0.0411  0.4692  0.7559
  151SAPE   O2216629   0.136   6.218   6.931 -0.5901 -0.1566  0.5223
  151SAPE   C2216630   0.105   6.451   6.946  0.2829 -0.3596 -0.1982
  151SAPE   H2R16631   0.075   6.510   7.035 -1.2194 -0.1888 -0.7859
  151SAPE   H2S16632   0.212   6.473   6.924  0.5302  0.9407  2.0179
  151SAPE    C316633  -0.168   6.124   7.073  0.0995 -0.5115  0.6266
  151SAPE    HX16634  -0.241   6.203   7.101 -1.2295 -0.8819 -1.5480
  151SAPE    HY16635  -0.211   6.028   7.106 -2.0939 -0.0543 -0.6493
  151SAPE   O3116636  -0.166   6.135   6.927 -0.0459  0.2901  0.0740
  151SAPE   C3116637  -0.110   6.032   6.872 -0.0811  0.5864 -0.2345
  151SAPE   O3216638  -0.057   5.938   6.927  0.4242  0.0502  0.2668
  151SAPE   C3216639  -0.128   6.047   6.724 -0.0553 -0.4570 -0.4747
  151SAPE   H2X16640  -0.179   6.142   6.699  0.1496  0.1232  1.2286
  151SAPE   H2Y16641  -0.195   5.965   6.689  0.5814 -0.8069 -0.8876
  151SAPE   C2316642   0.012   6.496   6.836 -0.4788 -0.4122  0.4364
  151SAPE   H3R16643  -0.009   6.604   6.855 -0.3305 -0.2101 -0.5074
  151SAPE   H3S16644  -0.089   6.448   6.837 -0.9800  0.6044  0.6058
  151SAPE   C2416645   0.075   6.483   6.693  0.0971 -0.0669  0.5271
  151SAPE   H4R16646   0.088   6.374   6.673  1.5516  0.1963 -0.1065
  151SAPE   H4S16647   0.169   6.540   6.674 -1.8578  2.6257 -1.8701
  151SAPE   C2516648  -0.032   6.533   6.600 -0.3158 -0.6344 -1.1135
  151SAPE   H5R16649  -0.119   6.576   6.651 -0.2317 -0.4060 -1.1635
  151SAPE   C2616650  -0.040   6.507   6.473  0.2859 -0.1213  0.4310
  151SAPE   H6R16651  -0.116   6.571   6.426  2.7288  2.1841 -0.6081
  151SAPE   C2716652   0.050   6.430   6.378 -0.2532  0.2395 -0.0040
  151SAPE   H7R16653  -0.015   6.373   6.308  0.2932 -0.4033 -0.0021
  151SAPE   H7S16654   0.114   6.361   6.437 -1.4121 -0.9891 -0.1285
  151SAPE   C2816655   0.149   6.514   6.312  0.2259 -0.8842 -0.0581
  151SAPE   H8R16656   0.204   6.579   6.382  0.8004 -0.6612 -0.7095
  151SAPE   C2916657   0.175   6.528   6.181 -0.8173  0.6094  0.0659
  151SAPE   H9R16658   0.259   6.592   6.152 -2.0244  0.9487 -3.1459
  151SAPE  C21016659   0.099   6.461   6.068  0.1319 -0.0141  0.2781
  151SAPE  H10R16660   0.067   6.360   6.102 -0.3450 -1.0469 -2.8937
  151SAPE  H10S16661   0.156   6.453   5.974 -0.9608  0.4085 -0.4422
  151SAPE  C21116662  -0.030   6.526   6.019  0.1762  0.2295  0.0741
  151SAPE  H11R16663  -0.082   6.593   6.089  1.1241  2.5194 -1.2960
  151SAPE  C21216664  -0.110   6.479   5.918 -0.2847  0.0148 -0.2246
  151SAPE  H12R16665  -0.209   6.525   5.901 -0.5183 -0.6342 -0.6740
  151SAPE  C21316666  -0.073   6.367   5.814 -0.5573 -0.1173 -0.7602
  151SAPE  H13R16667  -0.144   6.282   5.827 -2.1256  0.8948 -2.3191
  151SAPE  H13S16668   0.024   6.320   5.840 -1.9492 -2.5207  0.4684
  151SAPE  C21416669  -0.073   6.408   5.668  0.1307 -0.1131  0.1319
  151SAPE  H14R16670  -0.139   6.340   5.613 -1.3018 -1.5978  3.3866
  151SAPE  C21516671   0.001   6.489   5.598  0.5115 -0.6037  0.1112
  151SAPE  H15R16672  -0.015   6.501   5.489 -1.3478 -0.1659  0.3967
  151SAPE  C21616673   0.104   6.592   5.644 -0.2211  0.1057  0.9443
  151SAPE  H16R16674   0.103   6.593   5.755  0.4956 -1.4875  0.9959
  151SAPE  H16S16675   0.083   6.696   5.613 -0.6144  0.3510  1.9980
  151SAPE  C21716676   0.243   6.550   5.585  0.0206 -0.0607 -0.7950
  151SAPE  H17R16677   0.277   6.444   5.581 -0.9374 -0.5798  2.1846
  151SAPE  H17S16678   0.311   6.582   5.666 -2.8902 -1.0434  2.2581
  151SAPE  C21816679   0.288   6.631   5.461  0.7018  0.2655  0.4257
  151SAPE  H18R16680   0.397   6.610   5.450  0.6566 -0.2125  0.8347
  151SAPE  H18S16681   0.268   6.736   5.492 -1.8908 -0.5238  1.7240
  151SAPE  C21916682   0.233   6.580   5.324  0.4331  0.4431 -0.4840
  151SAPE  H19R16683   0.123   6.600   5.327  0.2947 -0.2099 -0.9750
  151SAPE  H19S16684   0.245   6.470   5.319 -2.5741 -0.1671  2.0377
  151SAPE  C22016685   0.297   6.661   5.215 -0.4368 -0.3002  0.1772
  151SAPE  H20R16686   0.262   6.764   5.236 -0.5193 -0.9009  3.4933
  151SAPE  H20S16687   0.269   6.621   5.115  0.5167 -0.7377  0.0766
  151SAPE  H20T16688   0.407   6.645   5.220 -0.1978  0.4635 -1.8338
  151SAPE   C3316689  -0.001   6.032   6.632  0.1807  0.3646 -0.6810
  151SAPE   H3X16690   0.025   5.924   6.637 -2.8212 -0.4226 -0.0755
  151SAPE   H3Y16691   0.081   6.080   6.689 -1.1411 -0.4093  2.0066
  151SAPE   C3416692  -0.032   6.088   6.491 -0.6102  0.0157 -0.8108
  151SAPE   H4X16693  -0.044   6.197   6.509 -6.8132 -0.4883  0.1224
  151SAPE   H4Y16694  -0.131   6.054   6.456 -0.4617 -2.5666  1.0271
  151SAPE   C3516695   0.073   6.055   6.387 -0.0670  0.1148 -0.3604
  151SAPE   H5X16696   0.111   5.952   6.403  0.5454  0.2442 -0.9297
  151SAPE   H5Y16697   0.149   6.136   6.395 -0.4458  0.4158  0.3185
  151SAPE   C3616698   0.021   6.064   6.242 -0.6468  0.3575  0.2194
  151SAPE   H6X16699  -0.030   6.158   6.215  0.3605  1.0215  0.5705
  151SAPE   H6Y16700  -0.056   5.985   6.229 -2.1496  1.7474  0.4404
  151SAPE   C3716701   0.126   6.040   6.138 -0.2283  0.1355 -0.4394
  151SAPE   H7X16702   0.192   5.959   6.176 -0.6611  0.2160  0.5092
  151SAPE   H7Y16703   0.184   6.135   6.131 -2.3769  1.7496  1.7994
  151SAPE   C3816704   0.078   6.010   5.994  0.5751  0.0966 -0.0478
  151SAPE   H8X16705  -0.007   6.077   5.972 -0.7127 -1.3041  0.5054
  151SAPE   H8Y16706   0.029   5.910   5.989  0.8222  0.0430 -2.4129
  151SAPE   C3916707   0.183   6.025   5.882 -0.7870 -0.5819  0.8289
  151SAPE   H9X16708   0.273   5.964   5.904  0.6247  1.1127  0.0908
  151SAPE   H9Y16709   0.210   6.133   5.891 -0.5958 -0.4767 -0.6341
  151SAPE  C31016710   0.126   6.004   5.742 -0.1074 -0.3068 -0.7323
  151SAPE  H10X16711   0.025   6.050   5.746  0.1041  0.6410 -3.7943
  151SAPE  H10Y16712   0.113   5.897   5.714 -1.1874 -0.6339  0.8795
  151SAPE  C31116713   0.216   6.071   5.637  0.5546  0.1769 -0.9323
  151SAPE  H11X16714   0.316   6.023   5.637 -0.5333 -2.2440 -1.1029
  151SAPE  H11Y16715   0.234   6.179   5.660  3.0481 -0.4230  0.2907
  151SAPE  C31216716   0.165   6.057   5.496 -0.6531 -0.7744  0.5950
  151SAPE  H12X16717   0.097   6.144   5.490 -0.2506 -0.4142  1.1539
  151SAPE  H12Y16718   0.121   5.957   5.474 -0.2407 -0.8153 -0.0983
  151SAPE  C31316719   0.279   6.085   5.399 -0.8437 -0.2746 -0.2759
  151SAPE  H13X16720   0.375   6.037   5.429 -0.7637 -0.4873 -0.8641
  151SAPE  H13Y16721   0.292   6.195   5.389  2.1212 -0.4410  0.8429
  151SAPE  C31416722   0.235   6.029   5.261 -0.2261 -0.2024 -0.1555
  151SAPE  H14X16723   0.126   6.042   5.248 -0.3404 -0.7251  0.2284
  151SAPE  H14Y16724   0.268   5.922   5.264 -0.3634 -0.2440 -0.1301
  151SAPE  C31516725   0.306   6.096   5.141  0.2652 -0.4340  0.0211
  151SAPE  H15X16726   0.414   6.105   5.162  0.3730  2.8706 -1.4292
  151SAPE  H15Y16727   0.269   6.200   5.133 -0.5202 -0.8113 -1.8257
  151SAPE  C31616728   0.278   6.034   5.004 -0.8222 -1.0431 -0.2699
  151SAPE  H16X16729   0.177   6.057   4.966 -0.4657  2.0286  0.4276
  151SAPE  H16Y16730   0.295   5.924   5.014  0.8907 -0.5661  3.7093
  151SAPE  C31716731   0.365   6.092   4.891 -0.3704  0.2837 -0.5655
  151SAPE  H17X16732   0.471   6.092   4.925 -0.6652 -0.6195  0.3831
  151SAPE  H17Y16733   0.349   6.202   4.893 -0.6617  0.2302  0.5256
  151SAPE  C31816734   0.355   6.033   4.752  0.1216  0.2818  0.2787
  151SAPE  H18X16735   0.247   6.029   4.725  0.3995  0.9340 -0.9906
  151SAPE  H18Y16736   0.397   5.931   4.752  0.1291  0.2821 -0.4687
  151SAPE  H18Z16737   0.407   6.091   4.673 -0.7351 -1.5701 -1.7275
  152SAPE     N16738   3.565   0.316   7.193 -0.0385 -0.5883  0.1536
  152SAPE   HN116739   3.661   0.329   7.232  0.2440 -0.9198 -0.4293
  152SAPE   HN216740   3.509   0.399   7.220  1.8153  1.0579 -0.8521
  152SAPE   HN316741   3.527   0.231   7.241 -1.4620 -0.4712 -0.7166
  152SAPE   C1216742   3.559   0.303   7.046  0.4859 -0.1611  0.2121
  152SAPE  H12A16743   3.455   0.333   7.021  0.1169 -0.9238  0.8071
  152SAPE  H12B16744   3.564   0.197   7.013  0.4248  1.3812 -5.9578
  152SAPE   C1116745   3.658   0.394   6.962  0.2835  0.6788  0.7234
  152SAPE  H11A16746   3.629   0.373   6.857 -0.8368 -1.5044  1.4173
  152SAPE  H11B16747   3.757   0.348   6.981 -0.3901 -1.7521 -1.1657
  152SAPE     P16748   3.538   0.631   6.950  0.2183  0.1042  0.1245
  152SAPE   O1316749   3.404   0.575   6.992 -0.0570 -0.6222  0.2919
  152SAPE   O1416750   3.559   0.770   6.996  0.0837 -0.3040  0.3956
  152SAPE   O1216751   3.646   0.529   7.004  0.0432  0.4091 -0.1654
  152SAPE   O1116752   3.555   0.625   6.790 -0.2370 -0.2731  0.1054
  152SAPE    C116753   3.679   0.680   6.735  0.5493  0.6079 -0.1367
  152SAPE    HA16754   3.679   0.791   6.746  0.5211  0.4363  2.3493
  152SAPE    HB16755   3.768   0.656   6.798 -0.5391  0.6303  1.4873
  152SAPE    C216756   3.710   0.625   6.588  0.2365  0.4352 -0.3555
  152SAPE    HS16757   3.804   0.662   6.543  0.5386  0.9637  0.6941
  152SAPE   O2116758   3.604   0.662   6.495  0.7928 -0.9386  0.6162
  152SAPE   C2116759   3.622   0.780   6.434  0.7431 -0.5324 -0.5033
  152SAPE   O2216760   3.720   0.850   6.446  0.6467 -0.0379  0.1938
  152SAPE   C2216761   3.506   0.819   6.341  0.3533  0.8498  0.2909
  152SAPE   H2R16762   3.415   0.811   6.404 -1.3378  1.1985 -1.9701
  152SAPE   H2S16763   3.520   0.923   6.306 -2.5864  1.5561  0.9145
  152SAPE    C316764   3.719   0.470   6.588 -0.5994 -0.3374  0.2941
  152SAPE    HX16765   3.620   0.424   6.608 -0.0443 -2.0074 -0.6092
  152SAPE    HY16766   3.780   0.440   6.676 -0.9690 -0.3909  0.5316
  152SAPE   O3116767   3.774   0.422   6.460  0.0945  0.0999  0.4660
  152SAPE   C3116768   3.694   0.348   6.383  0.2074  0.1604  0.8078
  152SAPE   O3216769   3.585   0.303   6.416 -0.1540 -0.3459 -0.4070
  152SAPE   C3216770   3.752   0.330   6.244  0.1163  0.6957 -0.0611
  152SAPE   H2X16771   3.801   0.232   6.260 -0.1924  0.6496  0.6576
  152SAPE   H2Y16772   3.822   0.413   6.221  1.0454 -0.0905 -0.0983
  152SAPE   C2316773   3.489   0.716   6.221 -0.2238  0.3872  0.2052
  152SAPE   H3R16774   3.402   0.729   6.153  0.0430 -1.3615 -0.5381
  152SAPE   H3S16775   3.469   0.616   6.266 -0.7065 -0.4173 -1.6558
  152SAPE   C2416776   3.615   0.700   6.129 -0.0579  0.0100  0.0230
  152SAPE   H4R16777   3.609   0.600   6.080 -1.4939 -0.2323  0.6382
  152SAPE   H4S16778   3.711   0.684   6.181 -0.3658 -0.6833  0.3947
  152SAPE   C2516779   3.627   0.820   6.038  0.1414 -0.2704 -0.1084
  152SAPE   H5R16780   3.669   0.906   6.091  2.8754 -0.6385 -1.5173
  152SAPE   C2616781   3.590   0.828   5.910 -0.1772  0.2586  0.2517
  152SAPE   H6R16782   3.590   0.923   5.853 -0.7643  2.1154  3.1275
  152SAPE   C2716783   3.536   0.712   5.830 -0.5880 -0.0743 -0.2810
  152SAPE   H7R16784   3.434   0.732   5.792 -0.3915  1.5933 -0.0190
  152SAPE   H7S16785   3.519   0.622   5.894  0.0989  0.1673  0.2532
  152SAPE   C2816786   3.624   0.676   5.711 -0.2626  0.5517  0.4856
  152SAPE   H8R16787   3.692   0.592   5.734 -1.7478 -1.1465 -1.0094
  152SAPE   C2916788   3.629   0.728   5.586 -0.0955  0.0185  0.3441
  152SAPE   H9R16789   3.694   0.696   5.503 -0.0929 -0.1162  0.3986
  152SAPE  C21016790   3.538   0.838   5.535 -0.2167 -0.2265 -0.4498
  152SAPE  H10R16791   3.597   0.924   5.499  0.0042 -0.1993 -0.0262
  152SAPE  H10S16792   3.463   0.865   5.613 -0.3811 -2.0884  0.1070
  152SAPE  C21116793   3.439   0.797   5.423 -0.5322 -1.1490 -0.4081
  152SAPE  H11R16794   3.362   0.721   5.441 -2.4654  0.7580 -0.1215
  152SAPE  C21216795   3.433   0.852   5.299 -0.2386  0.3173  0.2372
  152SAPE  H12R16796   3.351   0.822   5.232  1.4475  0.1035 -1.8319
  152SAPE  C21316797   3.518   0.953   5.242 -0.7098 -0.6714 -0.0197
  152SAPE  H13R16798   3.618   0.915   5.210  1.0430  2.6996  0.9413
  152SAPE  H13S16799   3.551   1.029   5.316 -0.3782 -0.3906 -0.4525
  152SAPE  C21416800   3.464   1.035   5.128  0.9061  0.1895 -0.1884
  152SAPE  H14R16801   3.417   1.133   5.145 -0.6846 -0.2677 -1.6441
  152SAPE  C21516802   3.472   0.996   5.001 -0.4111  0.1402 -0.6125
  152SAPE  H15R16803   3.419   1.066   4.935  0.3256  1.1155 -0.1944
  152SAPE  C21616804   3.540   0.871   4.945 -0.1571 -0.0166  0.4856
  152SAPE  H16R16805   3.459   0.820   4.889 -0.8579 -0.2951  1.6939
  152SAPE  H16S16806   3.570   0.794   5.020  1.2966  0.4348  0.3854
  152SAPE  C21716807   3.666   0.890   4.858  0.1294  0.4927  0.3142
  152SAPE  H17R16808   3.710   0.794   4.825  1.1529  1.2460 -0.5962
  152SAPE  H17S16809   3.744   0.950   4.911 -0.8561  1.4619  0.7034
  152SAPE  C21816810   3.638   0.969   4.731  0.4977 -0.4913  0.1390
  152SAPE  H18R16811   3.735   0.981   4.678 -0.7411 -0.1992 -2.1719
  152SAPE  H18S16812   3.597   1.072   4.741 -1.3148 -0.5906 -4.1662
  152SAPE  C21916813   3.545   0.907   4.619  0.0899 -0.0182  0.0486
  152SAPE  H19R16814   3.531   0.986   4.543  0.4078  1.2250  1.2510
  152SAPE  H19S16815   3.440   0.885   4.646  0.1712 -1.3514 -0.6255
  152SAPE  C22016816   3.611   0.780   4.560  0.0328 -0.3039  0.3692
  152SAPE  H20R16817   3.710   0.794   4.509 -1.4399  1.0060 -2.3593
  152SAPE  H20S16818   3.537   0.736   4.490 -0.5076  0.8363  0.1999
  152SAPE  H20T16819   3.631   0.705   4.639 -1.4094 -2.7749 -1.4858
  152SAPE   C3316820   3.639   0.316   6.141 -0.1433  0.4560  0.6345
  152SAPE   H3X16821   3.574   0.406   6.143  1.5692  1.7625  0.1124
  152SAPE   H3Y16822   3.580   0.223   6.158 -1.2628  1.3863  2.1836
  152SAPE   C3416823   3.678   0.291   5.995 -0.3153  0.2636  0.2545
  152SAPE   H4X16824   3.724   0.191   5.990  2.0614  1.2544  0.9409
  152SAPE   H4Y16825   3.749   0.366   5.953 -0.2684  0.3838  0.5468
  152SAPE   C3516826   3.555   0.284   5.902  0.3644 -0.5974  0.3559
  152SAPE   H5X16827   3.504   0.379   5.929 -0.0209 -1.3077  2.3620
  152SAPE   H5Y16828   3.480   0.207   5.933 -0.7254  0.0708 -0.5515
  152SAPE   C3616829   3.594   0.285   5.754  0.7583  0.1733 -0.2680
  152SAPE   H6X16830   3.694   0.237   5.748  0.1163 -1.2713  0.1416
  152SAPE   H6Y16831   3.596   0.388   5.711  0.9268 -0.1819 -1.1264
  152SAPE   C3716832   3.500   0.199   5.666 -0.5324 -0.7133  0.4087
  152SAPE   H7X16833   3.395   0.236   5.670 -0.4762 -0.6411  1.9245
  152SAPE   H7Y16834   3.484   0.099   5.710 -2.7165 -1.3671 -1.6905
  152SAPE   C3816835   3.536   0.175   5.525 -0.5456  0.2257  0.5940
  152SAPE   H8X16836   3.450   0.121   5.481 -0.4169  0.9687 -0.5904
  152SAPE   H8Y16837   3.621   0.106   5.509 -0.2224  1.0396 -1.5274
  152SAPE   C3916838   3.564   0.301   5.450 -0.4644  0.4256 -0.1956
  152SAPE   H9X16839   3.666   0.329   5.486 -0.4686 -0.7189  0.7838
  152SAPE   H9Y16840   3.497   0.383   5.483  0.1989  1.5157 -1.4204
  152SAPE  C31016841   3.587   0.278   5.298  0.9713 -0.0023  0.3372
  152SAPE  H10X16842   3.663   0.198   5.285  0.2320 -0.6211 -0.3634
  152SAPE  H10Y16843   3.622   0.369   5.246  1.0879 -0.5034 -0.4744
  152SAPE  C31116844   3.458   0.227   5.234  0.8341 -0.0326  0.6965
  152SAPE  H11X16845   3.418   0.133   5.276 -2.7911  0.1872 -1.7762
  152SAPE  H11Y16846   3.482   0.204   5.128  0.8008 -0.6275  0.8186
  152SAPE  C31216847   3.341   0.328   5.248 -0.9542  0.0469  0.7053
  152SAPE  H12X16848   3.385   0.426   5.216  0.9190 -1.2356 -0.8684
  152SAPE  H12Y16849   3.308   0.339   5.353  0.8460 -1.1274  1.4419
  152SAPE  C31316850   3.220   0.289   5.157 -0.7061  0.0216 -0.2013
  152SAPE  H13X16851   3.199   0.183   5.182  0.1495 -0.6787 -2.1787
  152SAPE  H13Y16852   3.254   0.275   5.052  1.6131  0.5730  0.4188
  152SAPE  C31416853   3.104   0.382   5.162 -0.3855  0.2325 -0.5163
  152SAPE  H14X16854   3.044   0.389   5.069  1.0963 -2.9841 -1.8482
  152SAPE  H14Y16855   3.150   0.481   5.183 -0.0850 -0.0612  0.2540
  152SAPE  C31516856   3.013   0.360   5.283 -0.0955  0.7590 -0.3379
  152SAPE  H15X16857   3.069   0.402   5.370  1.7693 -2.9236  0.4370
  152SAPE  H15Y16858   3.009   0.252   5.309  0.1795  0.9839  0.7047
  152SAPE  C31616859   2.873   0.409   5.256 -0.5561  0.4106 -0.1931
  152SAPE  H16X16860   2.815   0.383   5.347 -0.8128 -1.5262 -0.8670
  152SAPE  H16Y16861   2.821   0.357   5.172 -2.2004  1.2270  0.2809
  152SAPE  C31716862   2.854   0.560   5.224  0.2861  0.2233  0.6166
  152SAPE  H17X16863   2.910   0.592   5.133  0.4720 -1.2157  0.1989
  152SAPE  H17Y16864   2.894   0.614   5.312 -0.1283 -0.9287  1.5286
  152SAPE  C31816865   2.703   0.582   5.180 -1.0765 -0.1249 -0.2335
  152SAPE  H18X16866   2.643   0.609   5.269  0.6955 -0.9608  1.2957
  152SAPE  H18Y16867   2.654   0.491   5.139 -1.0423 -0.8864  1.3373
  152SAPE  H18Z16868   2.681   0.667   5.113 -2.9355  0.7582  1.3798
  153SAPE     N16869   3.186   5.969   7.340 -0.3685  0.2257 -0.6941
  153SAPE   HN116870   3.131   6.014   7.416 -0.3145 -0.3113 -0.3348
  153SAPE   HN216871   3.118   5.903   7.297 -0.3345  0.3999 -1.0217
  153SAPE   HN316872   3.260   5.913   7.386 -1.3079 -0.0489  0.5380
  153SAPE   C1216873   3.236   6.055   7.235  0.4493 -0.1998  0.3490
  153SAPE  H12A16874   3.307   5.992   7.178 -0.1175  1.6268 -2.5890
  153SAPE  H12B16875   3.293   6.140   7.279  1.5256 -0.2610 -0.8655
  153SAPE   C1116876   3.129   6.110   7.143  0.6496  0.3968 -0.4117
  153SAPE  H11A16877   3.081   6.019   7.100  0.4338 -0.2511  1.1241
  153SAPE  H11B16878   3.168   6.176   7.062  0.8972  1.4358  0.5272
  153SAPE     P16879   3.029   6.326   7.264 -0.0912 -0.0678  0.1129
  153SAPE   O1316880   2.893   6.369   7.297 -0.3617  1.3090 -0.4078
  153SAPE   O1416881   3.119   6.331   7.380 -0.5124  0.0892 -0.1317
  153SAPE   O1216882   3.026   6.179   7.213  0.1716  0.4105 -0.4139
  153SAPE   O1116883   3.093   6.417   7.146  0.4106  0.3967  0.2037
  153SAPE    C116884   3.026   6.418   7.021  0.2667  0.8094 -0.9490
  153SAPE    HA16885   3.005   6.317   6.980  0.0519  0.1398  0.7547
  153SAPE    HB16886   2.937   6.485   7.023  0.6838  1.3610  1.3340
  153SAPE    C216887   3.117   6.492   6.924  0.7085 -0.6443  1.1715
  153SAPE    HS16888   3.141   6.596   6.955  0.9093  0.1900 -1.5095
  153SAPE   O2116889   3.051   6.503   6.796  0.1880 -0.4847  0.2695
  153SAPE   C2116890   2.974   6.607   6.770 -0.2626 -0.4423 -0.0893
  153SAPE   O2216891   2.957   6.701   6.849  0.2823 -0.3141  0.2665
  153SAPE   C2216892   2.905   6.595   6.631  0.0926  0.2469 -0.6243
  153SAPE   H2R16893   2.895   6.485   6.612 -0.2852  0.2908 -0.6847
  153SAPE   H2S16894   2.801   6.625   6.656  0.3322  0.7351 -0.2033
  153SAPE    C316895   3.260   6.425   6.908 -0.3580 -0.1391  0.5247
  153SAPE    HX16896   3.241   6.331   6.852  1.4809 -1.1980  1.6071
  153SAPE    HY16897   3.308   6.403   7.005 -0.2470 -1.7296  0.1285
  153SAPE   O3116898   3.347   6.510   6.832  0.2887  0.1785  0.1032
  153SAPE   C3116899   3.464   6.451   6.813 -0.1377 -0.1529 -0.2792
  153SAPE   O3216900   3.487   6.335   6.830  0.3132 -0.0119  0.8848
  153SAPE   C3216901   3.562   6.568   6.760 -0.2566  0.3791 -0.0602
  153SAPE   H2X16902   3.662   6.523   6.747 -0.3584  0.3545 -0.8276
  153SAPE   H2Y16903   3.557   6.648   6.837 -1.5072 -1.3931  1.7967
  153SAPE   C2316904   2.945   6.685   6.522  0.4727  0.2279 -0.0180
  153SAPE   H3R16905   2.944   6.785   6.569  0.4550 -0.6926  2.0680
  153SAPE   H3S16906   2.879   6.668   6.434  1.3174 -0.7872 -0.4777
  153SAPE   C2416907   3.089   6.668   6.480  0.7742  0.2942  0.1584
  153SAPE   H4R16908   3.165   6.667   6.562  1.5947  1.6687 -0.5408
  153SAPE   H4S16909   3.115   6.759   6.421 -0.5571  0.6323  0.0656
  153SAPE   C2516910   3.116   6.539   6.398  0.0520  0.1193 -0.0254
  153SAPE   H5R16911   3.163   6.457   6.455  0.5468 -0.6854 -1.5388
  153SAPE   C2616912   3.109   6.523   6.265  0.3410 -1.2821  0.0118
  153SAPE   H6R16913   3.127   6.424   6.222 -2.3950 -1.2567 -1.4239
  153SAPE   C2716914   3.063   6.618   6.157  0.1385 -0.1631 -0.2447
  153SAPE   H7R16915   2.999   6.692   6.209  0.6479 -1.5496  2.5528
  153SAPE   H7S16916   2.992   6.567   6.088 -0.9394  0.1443  0.5964
  153SAPE   C2816917   3.165   6.710   6.093 -0.3037  0.3444  0.0022
  153SAPE   H8R16918   3.205   6.794   6.151  0.0960 -0.4035  0.8334
  153SAPE   C2916919   3.203   6.706   5.962  0.1554 -0.6681 -1.0489
  153SAPE   H9R16920   3.283   6.774   5.929  0.5318 -1.6131 -2.1949
  153SAPE  C21016921   3.160   6.606   5.855  0.5897 -0.6820 -0.4098
  153SAPE  H10R16922   3.111   6.662   5.773  0.2411  1.4447  1.1821
  153SAPE  H10S16923   3.088   6.541   5.909 -1.2675  0.1858 -1.7576
  153SAPE  C21116924   3.272   6.526   5.802 -0.1659 -0.1409 -0.1022
  153SAPE  H11R16925   3.335   6.474   5.876  0.2040  0.6834  0.1740
  153SAPE  C21216926   3.272   6.482   5.675  0.2837 -0.7804  0.1762
  153SAPE  H12R16927   3.341   6.407   5.633 -2.2044 -1.8736 -2.3207
  153SAPE  C21316928   3.177   6.528   5.564 -0.5025  0.0097  0.2586
  153SAPE  H13R16929   3.230   6.505   5.470 -3.1110  0.4073 -1.4270
  153SAPE  H13S16930   3.168   6.639   5.557 -0.4580 -0.0329 -0.5158
  153SAPE  C21416931   3.048   6.465   5.547  0.3328 -0.0154  0.1018
  153SAPE  H14R16932   3.014   6.392   5.621  0.8598 -0.5639 -0.1882
  153SAPE  C21516933   2.959   6.491   5.443 -0.4323  0.8774 -0.0231
  153SAPE  H15R16934   2.865   6.436   5.455 -0.8531  1.3199 -1.1514
  153SAPE  C21616935   2.968   6.583   5.324 -0.2943  0.1333 -0.6500
  153SAPE  H16R16936   3.055   6.652   5.321  0.4575 -0.8012 -3.1320
  153SAPE  H16S16937   2.886   6.657   5.329  0.9593  1.4881  0.9964
  153SAPE  C21716938   2.964   6.502   5.194  0.8077 -0.1005  0.2606
  153SAPE  H17R16939   2.858   6.472   5.178  0.5837  0.2382  1.0400
  153SAPE  H17S16940   3.026   6.410   5.200 -0.3520 -0.9383 -0.1727
  153SAPE  C21816941   3.010   6.576   5.062  0.1310 -0.1924 -0.7206
  153SAPE  H18R16942   3.002   6.504   4.978  0.1237 -0.4569 -0.4919
  153SAPE  H18S16943   3.117   6.606   5.065  0.7107 -2.1381 -0.6344
  153SAPE  C21916944   2.920   6.697   5.023  0.0382 -0.6731 -0.0897
  153SAPE  H19R16945   2.962   6.780   5.084  0.3703  0.3340 -1.6370
  153SAPE  H19S16946   2.811   6.682   5.038  0.1129 -0.3469  0.8860
  153SAPE  C22016947   2.944   6.748   4.883  0.2658 -0.5793  0.3864
  153SAPE  H20R16948   2.931   6.663   4.812 -0.3609 -2.1827  2.3095
  153SAPE  H20S16949   3.044   6.793   4.866 -0.1603  1.0446  1.9342
  153SAPE  H20T16950   2.881   6.834   4.851  2.0018  0.4477 -0.3909
  153SAPE   C3316951   3.519   6.629   6.620 -0.0629  0.0050  0.2211
  153SAPE   H3X16952   3.584   6.715   6.591  1.6103 -1.0831  0.6075
  153SAPE   H3Y16953   3.417   6.672   6.625  0.0127  0.1353  0.7227
  153SAPE   C3416954   3.502   6.520   6.505  0.0069 -0.0926 -0.0458
  153SAPE   H4X16955   3.420   6.448   6.525 -1.3136  1.6329  1.0718
  153SAPE   H4Y16956   3.600   6.470   6.497 -0.3272 -0.8017  0.1969
  153SAPE   C3516957   3.488   6.589   6.371 -0.6010  0.2563 -0.0788
  153SAPE   H5X16958   3.572   6.662   6.366  1.6603 -1.8380  2.9403
  153SAPE   H5Y16959   3.392   6.644   6.366 -2.3170 -2.6223 -3.2552
  153SAPE   C3616960   3.484   6.487   6.251 -0.3182  0.2097  0.3380
  153SAPE   H6X16961   3.381   6.449   6.234 -0.6497  0.4086  1.7880
  153SAPE   H6Y16962   3.544   6.398   6.277 -1.8659 -0.3170  2.3729
  153SAPE   C3716963   3.537   6.544   6.117  0.1424  0.0927  0.9669
  153SAPE   H7X16964   3.631   6.595   6.147  0.6079  1.4907 -2.4417
  153SAPE   H7Y16965   3.467   6.622   6.080  0.8595 -0.1125 -0.9278
  153SAPE   C3816966   3.562   6.446   6.001  0.1436  0.3005 -0.2342
  153SAPE   H8X16967   3.470   6.388   5.979 -0.3009  0.8959  0.0408
  153SAPE   H8Y16968   3.641   6.385   6.050 -0.8223 -1.1551 -0.4191
  153SAPE   C3916969   3.620   6.496   5.874 -0.3532 -0.0657 -0.0029
  153SAPE   H9X16970   3.717   6.549   5.891  0.4393  0.3313 -4.3667
  153SAPE   H9Y16971   3.539   6.565   5.842 -0.1225 -0.2131 -0.9623
  153SAPE  C31016972   3.630   6.398   5.754  0.6431 -0.2131  0.2236
  153SAPE  H10X16973   3.548   6.324   5.749 -0.1769  0.7046 -0.1124
  153SAPE  H10Y16974   3.714   6.332   5.782  0.2067 -1.4640 -1.2590
  153SAPE  C31116975   3.657   6.462   5.616 -0.7731  0.2949  0.2834
  153SAPE  H11X16976   3.750   6.523   5.624 -1.2383  0.8459  1.8986
  153SAPE  H11Y16977   3.576   6.532   5.585 -1.5136 -0.5743  0.2056
  153SAPE  C31216978   3.679   6.359   5.502 -0.0447 -0.1683  1.0859
  153SAPE  H12X16979   3.586   6.298   5.502 -0.7326  0.8515  0.9067
  153SAPE  H12Y16980   3.762   6.297   5.540  0.0781  1.3513  3.5434
  153SAPE  C31316981   3.712   6.403   5.361  0.3944 -0.4051 -0.1192
  153SAPE  H13X16982   3.818   6.436   5.357 -0.1036  1.8792  2.4796
  153SAPE  H13Y16983   3.649   6.493   5.343 -1.3747 -1.2869  1.2829
  153SAPE  C31416984   3.684   6.299   5.257 -0.4687  0.6382  0.0049
  153SAPE  H14X16985   3.711   6.201   5.302  1.0234  0.8462 -0.3968
  153SAPE  H14Y16986   3.734   6.314   5.159 -2.4089 -1.9449 -1.5420
  153SAPE  C31516987   3.532   6.279   5.219 -0.4414  0.1608  0.0257
  153SAPE  H15X16988   3.473   6.249   5.308 -1.8763 -0.5105 -1.1226
  153SAPE  H15Y16989   3.539   6.188   5.156 -0.0791  1.2773 -1.5939
  153SAPE  C31616990   3.472   6.401   5.149 -0.6948  0.1448  0.5685
  153SAPE  H16X16991   3.553   6.460   5.103  0.7861 -2.3119 -0.1946
  153SAPE  H16Y16992   3.406   6.453   5.222 -0.8352 -0.7240  1.0825
  153SAPE  C31716993   3.384   6.363   5.034 -0.1073 -0.3247 -0.2307
  153SAPE  H17X16994   3.291   6.321   5.078  0.4926 -1.2002  0.2265
  153SAPE  H17Y16995   3.437   6.285   4.975  1.6641 -0.0297  0.8982
  153SAPE  C31816996   3.343   6.480   4.941 -0.9762 -0.1527  0.4905
  153SAPE  H18X16997   3.264   6.450   4.869  1.9946 -3.5941 -1.6543
  153SAPE  H18Y16998   3.427   6.505   4.874 -2.3698  2.0972 -0.5335
  153SAPE  H18Z16999   3.327   6.576   4.994  3.6407  1.1605 -0.0589
  154SAPE     N17000   6.385   4.818   6.849 -0.3917  0.1137 -0.1067
  154SAPE   HN117001   6.420   4.888   6.917  1.3577 -0.8669  0.0497
  154SAPE   HN217002   6.409   4.854   6.754  1.0664  1.6007  0.7936
  154SAPE   HN317003   6.282   4.818   6.865 -0.3913  0.3952 -0.1044
  154SAPE   C1217004   6.447   4.675   6.860  0.3966 -0.0029 -0.1978
  154SAPE  H12A17005   6.402   4.606   6.785 -1.2268  0.5612  0.2198
  154SAPE  H12B17006   6.413   4.628   6.955  0.3682  2.1474  0.9095
  154SAPE   C1117007   6.599   4.673   6.835 -0.8439  0.2040 -0.0264
  154SAPE  H11A17008   6.633   4.762   6.893  1.2675 -0.6384  0.1149
  154SAPE  H11B17009   6.620   4.682   6.726 -0.6369 -1.5962 -0.1585
  154SAPE     P17010   6.678   4.420   6.803 -0.2231  0.1694  0.1152
  154SAPE   O1317011   6.823   4.417   6.764 -0.5965 -0.2390 -0.1931
  154SAPE   O1417012   6.647   4.296   6.879  0.2668 -0.0379  0.6629
  154SAPE   O1217013   6.651   4.545   6.892  0.0658  0.4891  0.7323
  154SAPE   O1117014   6.591   4.439   6.672  0.4840  0.3718 -0.5307
  154SAPE    C117015   6.617   4.373   6.549 -0.4399  0.8025  0.8734
  154SAPE    HA17016   6.705   4.304   6.551 -1.7436 -0.9243  1.2159
  154SAPE    HB17017   6.534   4.304   6.524  0.7294 -0.1974 -0.4329
  154SAPE    C217018   6.643   4.467   6.427 -0.4078 -0.7597  0.6663
  154SAPE    HS17019   6.691   4.397   6.355  0.0466  0.3830 -0.1664
  154SAPE   O2117020   6.729   4.580   6.470 -0.0298  0.2852 -0.3786
  154SAPE   C2117021   6.857   4.541   6.504  0.0500 -0.5500 -0.0606
  154SAPE   O2217022   6.903   4.431   6.492 -0.3299  0.3315  0.5944
  154SAPE   C2217023   6.927   4.664   6.562 -0.0902 -0.0625  0.3062
  154SAPE   H2R17024   6.900   4.750   6.497  1.0895  1.4591  1.7630
  154SAPE   H2S17025   6.886   4.679   6.664  3.1625  0.7141  1.5984
  154SAPE    C317026   6.502   4.520   6.373  0.5078  0.0213 -0.2597
  154SAPE    HX17027   6.519   4.603   6.301  0.1461  0.9319  0.6701
  154SAPE    HY17028   6.459   4.567   6.464 -1.0784  1.5771 -1.7404
  154SAPE   O3117029   6.410   4.414   6.321 -0.4297 -0.5255  0.2361
  154SAPE   C3117030   6.449   4.380   6.196  0.4629  0.2847  0.5433
  154SAPE   O3217031   6.543   4.425   6.133 -0.0296 -0.0090 -0.4547
  154SAPE   C3217032   6.337   4.294   6.145 -1.0646 -0.0027  0.2253
  154SAPE   H2X17033   6.235   4.331   6.171 -0.9649 -0.6194  1.5517
  154SAPE   H2Y17034   6.339   4.198   6.201  1.3461 -0.6440 -0.8165
  154SAPE   C2317035   7.082   4.649   6.568  1.0603 -0.5056 -0.3097
  154SAPE   H3R17036   7.111   4.563   6.632  1.8109 -0.2206 -0.2579
  154SAPE   H3S17037   7.120   4.730   6.633 -1.9141  0.8151 -0.0457
  154SAPE   C2417038   7.155   4.637   6.435  0.4959 -0.1609 -0.5181
  154SAPE   H4R17039   7.115   4.556   6.371 -0.2066 -0.9620  0.8978
  154SAPE   H4S17040   7.254   4.596   6.463  0.1075 -0.6853  0.1227
  154SAPE   C2517041   7.176   4.772   6.366 -0.0135  0.7893 -0.4470
  154SAPE   H5R17042   7.220   4.850   6.430  1.5668 -1.3821  1.3013
  154SAPE   C2617043   7.134   4.797   6.241 -0.5939  0.3421  0.6227
  154SAPE   H6R17044   7.164   4.892   6.193 -0.1995 -1.0522 -2.0883
  154SAPE   C2717045   7.069   4.707   6.135  0.0157  0.4996  0.3553
  154SAPE   H7R17046   6.989   4.758   6.079  0.3020 -1.4041 -1.9284
  154SAPE   H7S17047   7.009   4.626   6.183 -0.8986 -0.6918 -2.5919
  154SAPE   C2817048   7.175   4.644   6.045 -0.3774  0.0158  0.3524
  154SAPE   H8R17049   7.223   4.551   6.077 -0.9062  0.0088  1.1568
  154SAPE   C2917050   7.211   4.693   5.921  0.2006 -0.5775 -0.2484
  154SAPE   H9R17051   7.283   4.643   5.856  3.1312  1.9768  0.8043
  154SAPE  C21017052   7.146   4.819   5.863 -0.4783 -0.0364 -0.3720
  154SAPE  H10R17053   7.120   4.885   5.949 -2.8519  2.1474 -2.5690
  154SAPE  H10S17054   7.042   4.788   5.838  0.0707 -1.0345 -1.5042
  154SAPE  C21117055   7.221   4.889   5.757  0.3051 -0.0347 -0.5739
  154SAPE  H11R17056   7.311   4.946   5.785 -0.0900  2.0018 -3.1355
  154SAPE  C21217057   7.199   4.881   5.627  0.4816  0.1739  0.5499
  154SAPE  H12R17058   7.251   4.946   5.556 -0.7602 -0.2496 -0.7929
  154SAPE  C21317059   7.090   4.794   5.571 -0.8090  0.1646 -0.1065
  154SAPE  H13R17060   7.032   4.849   5.494 -0.5882  1.1881  0.4420
  154SAPE  H13S17061   7.018   4.764   5.650 -1.4694 -0.2909 -0.8569
  154SAPE  C21417062   7.129   4.660   5.509 -0.2171  0.0221  0.1808
  154SAPE  H14R17063   7.235   4.633   5.514 -0.8805 -2.8808  0.9165
  154SAPE  C21517064   7.040   4.562   5.474 -0.1872  0.0828 -0.2145
  154SAPE  H15R17065   7.074   4.464   5.436  1.5532  0.5580  0.0139
  154SAPE  C21617066   6.891   4.586   5.483 -0.9053  0.8820  0.3890
  154SAPE  H16R17067   6.844   4.558   5.386 -0.6167 -0.4328  0.6117
  154SAPE  H16S17068   6.858   4.691   5.496  0.5184  1.1581  2.0920
  154SAPE  C21717069   6.813   4.490   5.581 -0.2476 -0.3756 -0.3055
  154SAPE  H17R17070   6.818   4.387   5.539  2.2774 -0.2445 -0.4828
  154SAPE  H17S17071   6.704   4.513   5.581 -0.2252 -0.2523  0.3039
  154SAPE  C21817072   6.871   4.490   5.722  0.1665 -0.9136  0.3605
  154SAPE  H18R17073   6.884   4.598   5.745  1.4828 -0.3727 -2.4972
  154SAPE  H18S17074   6.971   4.443   5.710  1.6961  1.9992  0.7956
  154SAPE  C21917075   6.782   4.426   5.824  0.0641  0.1166 -0.4976
  154SAPE  H19R17076   6.754   4.321   5.802 -0.7579  0.3334 -0.5166
  154SAPE  H19S17077   6.695   4.494   5.834  1.4048  1.8481 -0.1460
  154SAPE  C22017078   6.847   4.429   5.965  0.1188  0.6566 -0.3807
  154SAPE  H20R17079   6.872   4.530   6.002  1.3428  0.7279 -1.3277
  154SAPE  H20S17080   6.941   4.368   5.966  0.8683  1.7515 -1.1049
  154SAPE  H20T17081   6.774   4.393   6.040  1.6726 -0.4628  0.6568
  154SAPE   C3317082   6.325   4.286   5.986 -0.2826 -0.3596  0.4433
  154SAPE   H3X17083   6.330   4.383   5.931 -0.5294 -1.0126 -0.7795
  154SAPE   H3Y17084   6.233   4.226   5.973 -0.0667 -0.6913  0.4465
  154SAPE   C3417085   6.434   4.198   5.925  0.5396  0.2981  0.1735
  154SAPE   H4X17086   6.426   4.093   5.959 -3.3909  0.7165  1.0758
  154SAPE   H4Y17087   6.530   4.247   5.952  0.2598  0.9141  0.0783
  154SAPE   C3517088   6.417   4.206   5.767  0.0194 -0.1804  0.6095
  154SAPE   H5X17089   6.421   4.314   5.739  1.8814 -0.2764  0.4132
  154SAPE   H5Y17090   6.316   4.168   5.738 -0.8048  0.6598  2.2246
  154SAPE   C3617091   6.527   4.120   5.702 -0.3468 -0.8156  0.0314
  154SAPE   H6X17092   6.497   4.013   5.706 -2.6261 -0.3435 -2.1024
  154SAPE   H6Y17093   6.621   4.117   5.762 -1.3429 -1.8231  1.6166
  154SAPE   C3717094   6.553   4.140   5.550  0.2362 -0.4861 -0.0920
  154SAPE   H7X17095   6.569   4.248   5.528 -0.6890 -0.3853 -0.2951
  154SAPE   H7Y17096   6.463   4.104   5.497  1.5664 -3.3419 -0.5564
  154SAPE   C3817097   6.667   4.057   5.496  0.1283  0.6575 -0.0713
  154SAPE   H8X17098   6.643   3.953   5.527 -0.2599  0.4376 -1.0610
  154SAPE   H8Y17099   6.762   4.072   5.551 -0.1577  0.6675  0.4275
  154SAPE   C3917100   6.688   4.075   5.345  0.1955 -0.2150  0.5555
  154SAPE   H9X17101   6.788   4.038   5.316  0.5507 -1.2496  2.8976
  154SAPE   H9Y17102   6.675   4.185   5.330 -4.3514 -0.9577 -3.5535
  154SAPE  C31017103   6.584   4.011   5.253  0.5929 -0.0371  0.6173
  154SAPE  H10X17104   6.480   4.039   5.281  0.4386  0.4765 -0.4007
  154SAPE  H10Y17105   6.595   3.902   5.271 -0.2152 -0.0549  1.0276
  154SAPE  C31117106   6.611   4.036   5.101 -0.1612 -0.7862 -0.7854
  154SAPE  H11X17107   6.538   3.971   5.048 -1.6296  1.3815 -1.5514
  154SAPE  H11Y17108   6.717   4.010   5.078  0.6439  1.9310 -0.4991
  154SAPE  C31217109   6.602   4.190   5.063 -0.3425 -0.4297 -0.4841
  154SAPE  H12X17110   6.673   4.248   5.126 -1.0450 -0.0273 -0.0590
  154SAPE  H12Y17111   6.498   4.224   5.080 -0.5639 -1.5048  0.4711
  154SAPE  C31317112   6.659   4.208   4.918  0.6993 -0.1426 -0.5495
  154SAPE  H13X17113   6.769   4.221   4.912  0.9240 -0.7008  1.4559
  154SAPE  H13Y17114   6.617   4.305   4.883  0.6185  0.0321  0.0227
  154SAPE  C31417115   6.614   4.102   4.827  0.0546  0.4320  0.2402
  154SAPE  H14X17116   6.507   4.078   4.844 -0.2051  1.0294 -0.4860
  154SAPE  H14Y17117   6.670   4.006   4.832 -1.1475 -0.2984  0.2272
  154SAPE  C31517118   6.625   4.141   4.675  0.3756  0.9009 -0.1521
  154SAPE  H15X17119   6.557   4.227   4.658 -3.2155 -1.8326 -0.8668
  154SAPE  H15Y17120   6.576   4.055   4.624  0.4671  0.3934  0.5909
  154SAPE  C31617121   6.765   4.170   4.616  0.2264 -0.2062  0.1524
  154SAPE  H16X17122   6.764   4.135   4.510  1.4487 -0.4725  0.2136
  154SAPE  H16Y17123   6.844   4.129   4.682  0.9833  1.8644  0.6024
  154SAPE  C31717124   6.796   4.319   4.594 -0.4797  0.4482  0.7056
  154SAPE  H17X17125   6.820   4.369   4.691  2.7325  1.7742 -0.6259
  154SAPE  H17Y17126   6.718   4.372   4.537 -0.2739  0.3435  0.3245
  154SAPE  C31817127   6.930   4.338   4.521 -0.5053 -0.4670  0.2586
  154SAPE  H18X17128   6.952   4.437   4.477 -0.3333 -1.8827 -3.1208
  154SAPE  H18Y17129   6.936   4.271   4.433 -5.0683  0.1182 -0.7512
  154SAPE  H18Z17130   6.998   4.311   4.605  0.2973 -0.6664 -0.4510
  155SAPE     N17131   1.625   5.462   6.938 -0.1544  0.4413  0.0202
  155SAPE   HN117132   1.527   5.488   6.958 -0.2868 -0.1621  0.1725
  155SAPE   HN217133   1.626   5.376   6.879  1.8682  0.7654 -0.4877
  155SAPE   HN317134   1.663   5.435   7.031 -1.1737  0.6780  0.5130
  155SAPE   C1217135   1.682   5.583   6.869 -0.6054 -0.1939 -0.3690
  155SAPE  H12A17136   1.603   5.636   6.812 -2.2533 -0.5979  1.4164
  155SAPE  H12B17137   1.752   5.551   6.789  0.5008  1.0754  0.0639
  155SAPE   C1117138   1.749   5.679   6.964  0.5061 -0.0451 -0.7287
  155SAPE  H11A17139   1.769   5.765   6.898 -3.3694 -0.0397 -2.1648
  155SAPE  H11B17140   1.845   5.642   7.006  0.0568  1.4174  1.8143
  155SAPE     P17141   1.693   5.830   7.157 -0.2612 -0.1352 -0.5927
  155SAPE   O1317142   1.584   5.835   7.258  0.0111 -0.3077 -0.4186
  155SAPE   O1417143   1.831   5.790   7.204  0.2024 -0.2975 -0.5231
  155SAPE   O1217144   1.648   5.714   7.060  0.1891 -0.6225 -0.4177
  155SAPE   O1117145   1.700   5.958   7.061  0.1921 -0.4624 -0.0618
  155SAPE    C117146   1.572   6.016   7.023 -0.2643 -0.1161 -0.4477
  155SAPE    HA17147   1.487   5.992   7.091  1.3704  0.2797  1.8733
  155SAPE    HB17148   1.587   6.126   7.032  1.3003 -0.4479  1.8171
  155SAPE    C217149   1.529   5.980   6.876  0.2979 -0.5216 -0.6973
  155SAPE    HS17150   1.543   5.870   6.865  1.4152 -0.4231 -0.3634
  155SAPE   O2117151   1.608   6.058   6.783 -0.1268 -0.0289 -0.9051
  155SAPE   C2117152   1.648   5.993   6.675  0.7872 -0.2064 -0.6002
  155SAPE   O2217153   1.628   5.872   6.664 -0.3753 -0.2213  0.2091
  155SAPE   C2217154   1.716   6.092   6.583  0.1446  0.7611 -0.2094
  155SAPE   H2R17155   1.642   6.173   6.574 -3.4500 -2.1170  0.9188
  155SAPE   H2S17156   1.813   6.119   6.630  0.2711  0.6341 -0.3943
  155SAPE    C317157   1.382   6.020   6.851  0.4738 -0.2665 -0.2831
  155SAPE    HX17158   1.375   6.124   6.888 -0.0724 -0.8887  1.4840
  155SAPE    HY17159   1.318   5.967   6.925  1.1038  0.8453  1.1000
  155SAPE   O3117160   1.331   6.003   6.717  0.3028 -0.5828 -0.0565
  155SAPE   C3117161   1.300   5.882   6.680  0.0232  0.5328  0.1690
  155SAPE   O3217162   1.305   5.786   6.757 -0.2149 -0.2502 -0.0945
  155SAPE   C3217163   1.228   5.881   6.542 -0.7029  0.3224 -0.1930
  155SAPE   H2X17164   1.187   5.982   6.522  0.8460  0.8760 -0.6979
  155SAPE   H2Y17165   1.145   5.807   6.539 -0.7510  0.2303  1.9227
  155SAPE   C2317166   1.739   6.038   6.440 -0.5637  0.1082 -0.6616
  155SAPE   H3R17167   1.644   6.029   6.382 -2.4342 -0.8843  2.3236
  155SAPE   H3S17168   1.785   5.938   6.451 -0.2166  0.4255  1.0096
  155SAPE   C2417169   1.843   6.122   6.363  0.7924 -0.0496 -0.0453
  155SAPE   H4R17170   1.926   6.151   6.431  0.1411  1.8764 -0.0063
  155SAPE   H4S17171   1.804   6.226   6.357  1.2242  0.5191  4.2943
  155SAPE   C2517172   1.886   6.071   6.239 -0.2254 -0.0989  1.1297
  155SAPE   H5R17173   1.950   5.982   6.236 -1.1283 -0.7816 -2.5143
  155SAPE   C2617174   1.855   6.128   6.121  0.0497  0.2666  0.3620
  155SAPE   H6R17175   1.881   6.066   6.034  1.9686 -0.7752  1.6163
  155SAPE   C2717176   1.754   6.243   6.082 -0.5505 -0.6074  0.1587
  155SAPE   H7R17177   1.729   6.302   6.173 -1.4104  1.2052 -1.1806
  155SAPE   H7S17178   1.664   6.203   6.030 -1.0818 -1.3945  1.6470
  155SAPE   C2817179   1.816   6.348   5.995 -0.3823 -0.4151 -0.3037
  155SAPE   H8R17180   1.870   6.429   6.047  3.1381 -2.6817 -0.1114
  155SAPE   C2917181   1.828   6.331   5.864  0.2951 -0.0417 -0.9569
  155SAPE   H9R17182   1.870   6.411   5.801  1.4574  0.8665  0.8813
  155SAPE  C21017183   1.770   6.219   5.769  0.1883  0.3701 -0.1937
  155SAPE  H10R17184   1.670   6.237   5.724 -0.3716 -2.6558 -0.3214
  155SAPE  H10S17185   1.768   6.129   5.834  1.3011 -0.0848 -0.7626
  155SAPE  C21117186   1.871   6.192   5.662  0.5818  0.0033 -0.3155
  155SAPE  H11R17187   1.954   6.125   5.692 -1.9108 -3.7308 -1.0775
  155SAPE  C21217188   1.875   6.227   5.532  0.2305  0.0372  0.4982
  155SAPE  H12R17189   1.956   6.183   5.471 -0.7974 -1.9497  0.4997
  155SAPE  C21317190   1.786   6.309   5.444  0.2352  0.6423 -0.3280
  155SAPE  H13R17191   1.681   6.318   5.480  0.6747  0.7640  0.9644
  155SAPE  H13S17192   1.766   6.268   5.342 -2.9470 -0.1132  0.4859
  155SAPE  C21417193   1.850   6.445   5.438  0.2144 -0.2944 -0.6331
  155SAPE  H14R17194   1.821   6.507   5.524 -0.9528 -0.0573 -1.1666
  155SAPE  C21517195   1.932   6.482   5.338  0.4401  0.8648  0.1780
  155SAPE  H15R17196   1.978   6.581   5.346  0.8975  0.6132  0.8004
  155SAPE  C21617197   1.961   6.394   5.213 -0.2454 -0.0604  0.6003
  155SAPE  H16R17198   1.976   6.474   5.138  1.2968  0.5298  1.4946
  155SAPE  H16S17199   1.871   6.331   5.194 -2.0877  1.7085  2.9228
  155SAPE  C21717200   2.089   6.308   5.226 -0.5989  0.2035  0.2055
  155SAPE  H17R17201   2.048   6.218   5.277 -1.2599  0.9959  1.1137
  155SAPE  H17S17202   2.176   6.351   5.281 -0.4640  1.4885 -0.9488
  155SAPE  C21817203   2.154   6.273   5.093  0.6036  0.3519 -0.3425
  155SAPE  H18R17204   2.190   6.367   5.047 -1.4007  0.1713 -2.4814
  155SAPE  H18S17205   2.081   6.212   5.035 -0.6553  0.1915  1.3389
  155SAPE  C21917206   2.286   6.189   5.103  0.3780  0.0495 -0.2443
  155SAPE  H19R17207   2.262   6.090   5.146 -0.6015  1.2399  2.1662
  155SAPE  H19S17208   2.353   6.233   5.180  0.4675 -1.1121  0.3535
  155SAPE  C22017209   2.361   6.177   4.970 -1.3645 -0.6300 -0.4773
  155SAPE  H20R17210   2.430   6.263   4.958  0.1390 -1.6013  0.7732
  155SAPE  H20S17211   2.285   6.163   4.890 -0.0382  0.2582 -1.9511
  155SAPE  H20T17212   2.425   6.087   4.973 -0.2111  0.1579 -0.8306
  155SAPE   C3317213   1.338   5.846   6.443 -0.8722 -0.1377  0.8627
  155SAPE   H3X17214   1.442   5.881   6.458 -0.5104 -2.0264  3.1811
  155SAPE   H3Y17215   1.297   5.884   6.346  1.3105 -0.0474 -0.0861
  155SAPE   C3417216   1.348   5.688   6.436 -0.9032  0.3508  0.2323
  155SAPE   H4X17217   1.259   5.636   6.395 -1.6843  1.9603 -0.1689
  155SAPE   H4Y17218   1.367   5.649   6.539  1.7283  0.8920  0.0381
  155SAPE   C3517219   1.471   5.641   6.349  0.1305  0.4565 -0.5383
  155SAPE   H5X17220   1.468   5.530   6.352 -1.3788  0.4723 -0.8502
  155SAPE   H5Y17221   1.567   5.665   6.400  0.9021 -0.5228 -1.4725
  155SAPE   C3617222   1.468   5.695   6.210  0.1729  0.4325 -0.2422
  155SAPE   H6X17223   1.558   5.672   6.149  0.5019 -1.1339  0.7876
  155SAPE   H6Y17224   1.472   5.806   6.217  0.3890  0.5516 -1.8817
  155SAPE   C3717225   1.340   5.654   6.133  0.1918  0.4191 -0.1398
  155SAPE   H7X17226   1.360   5.679   6.027 -0.4966 -1.1005 -0.6524
  155SAPE   H7Y17227   1.247   5.707   6.163  0.5438  1.2880 -0.5613
  155SAPE   C3817228   1.313   5.504   6.149 -0.2155 -0.6562  0.4521
  155SAPE   H8X17229   1.278   5.472   6.250 -0.4967 -2.7537 -0.2544
  155SAPE   H8Y17230   1.405   5.448   6.122  0.0803  1.5585 -4.0135
  155SAPE   C3917231   1.213   5.446   6.046  0.0621 -0.5760 -0.4349
  155SAPE   H9X17232   1.136   5.526   6.040 -0.0460 -0.5969  0.4640
  155SAPE   H9Y17233   1.158   5.358   6.085 -1.6015  0.6270  0.0518
  155SAPE  C31017234   1.279   5.412   5.905  0.6280  0.3159  0.4087
  155SAPE  H10X17235   1.234   5.318   5.866  0.2951 -0.1182  1.7791
  155SAPE  H10Y17236   1.384   5.378   5.914  0.3871 -1.4983 -2.3048
  155SAPE  C31117237   1.263   5.516   5.792 -0.2804 -0.1316 -0.1799
  155SAPE  H11X17238   1.307   5.616   5.815 -0.0700  0.8102 -3.9225
  155SAPE  H11Y17239   1.153   5.529   5.784 -0.5203  0.4004  2.9111
  155SAPE  C31217240   1.328   5.477   5.658 -0.0082  0.7154 -0.2178
  155SAPE  H12X17241   1.253   5.405   5.618 -1.2285  1.4243  0.7019
  155SAPE  H12Y17242   1.423   5.419   5.660 -0.9746 -0.9190  0.1843
  155SAPE  C31317243   1.361   5.598   5.569 -0.7509 -0.3631 -0.1926
  155SAPE  H13X17244   1.444   5.646   5.624 -0.9892 -1.2231  0.9695
  155SAPE  H13Y17245   1.266   5.656   5.565 -0.3495  0.5444  1.9634
  155SAPE  C31417246   1.401   5.560   5.426 -0.2496  0.5788 -0.1377
  155SAPE  H14X17247   1.477   5.480   5.433 -3.9868 -3.1831  2.3014
  155SAPE  H14Y17248   1.461   5.640   5.377  0.8259  0.6726  1.2800
  155SAPE  C31517249   1.286   5.515   5.327 -0.4138 -0.0615  0.2777
  155SAPE  H15X17250   1.238   5.610   5.297 -0.1629 -0.6045 -1.9548
  155SAPE  H15Y17251   1.218   5.444   5.379 -0.1764 -1.5745 -1.3863
  155SAPE  C31617252   1.339   5.447   5.201  0.7333 -0.2238 -0.1518
  155SAPE  H16X17253   1.258   5.411   5.134  1.8692  0.1383 -1.7904
  155SAPE  H16Y17254   1.385   5.350   5.229 -2.0514 -1.3360  0.9153
  155SAPE  C31717255   1.447   5.521   5.119 -0.1260 -0.0348 -0.1611
  155SAPE  H17X17256   1.526   5.553   5.190  0.0470  3.1076 -1.5978
  155SAPE  H17Y17257   1.413   5.619   5.079  1.0695  0.6957  0.5494
  155SAPE  C31817258   1.513   5.426   5.015  0.2482  0.5508 -0.0481
  155SAPE  H18X17259   1.547   5.335   5.067 -0.6878  0.3653  0.2645
  155SAPE  H18Y17260   1.595   5.481   4.964 -0.5259  1.3527 -0.4549
  155SAPE  H18Z17261   1.439   5.390   4.940  0.5446 -0.9740  0.3658
  156SAPE     N17262   4.327   1.303   7.149 -0.0179  0.9150  0.2647
  156SAPE   HN117263   4.290   1.272   7.057  0.5213  0.9753  0.0218
  156SAPE   HN217264   4.412   1.243   7.153  0.0222  0.9813  0.4173
  156SAPE   HN317265   4.261   1.268   7.221 -0.4500  0.1758 -0.4686
  156SAPE   C1217266   4.348   1.459   7.135  0.5331  0.2152 -0.1531
  156SAPE  H12A17267   4.396   1.490   7.230  0.8373  0.9014 -0.5280
  156SAPE  H12B17268   4.247   1.506   7.139  1.4148  2.1514  1.1016
  156SAPE   C1117269   4.427   1.489   7.009 -0.5900  0.3032  0.2415
  156SAPE  H11A17270   4.454   1.596   7.021 -3.0992  1.0025  0.2051
  156SAPE  H11B17271   4.360   1.472   6.923 -1.7501 -0.8574  1.3247
  156SAPE     P17272   4.673   1.454   6.918  0.3113  0.3417  0.1162
  156SAPE   O1317273   4.708   1.594   6.951  0.1934  0.4694  0.5026
  156SAPE   O1417274   4.778   1.350   6.940 -0.2731  0.0248 -0.4939
  156SAPE   O1217275   4.549   1.409   7.006  0.3717  0.0033  0.3790
  156SAPE   O1117276   4.616   1.460   6.772 -0.6255 -0.0806 -0.3577
  156SAPE    C117277   4.564   1.339   6.711 -0.8852 -0.3330  0.1183
  156SAPE    HA17278   4.648   1.271   6.686  0.5551  1.6748 -0.7414
  156SAPE    HB17279   4.498   1.282   6.779 -0.0555  0.3418  1.5286
  156SAPE    C217280   4.492   1.368   6.576  0.1908 -0.5271  0.2191
  156SAPE    HS17281   4.485   1.275   6.516  3.8628 -1.1076  0.4450
  156SAPE   O2117282   4.572   1.458   6.499 -0.1496  0.4600 -0.0734
  156SAPE   C2117283   4.694   1.420   6.458  0.6815 -0.4081  0.2819
  156SAPE   O2217284   4.735   1.304   6.457 -0.0866 -0.2790 -0.2397
  156SAPE   C2217285   4.772   1.542   6.412 -0.0351 -0.1391  0.4527
  156SAPE   H2R17286   4.701   1.594   6.344 -2.8085 -0.7262  2.7505
  156SAPE   H2S17287   4.786   1.602   6.505 -0.4891 -1.3376  1.3139
  156SAPE    C317288   4.355   1.430   6.594 -0.0091  0.0402 -0.2121
  156SAPE    HX17289   4.362   1.519   6.661  0.5034  0.9646 -1.4533
  156SAPE    HY17290   4.298   1.355   6.654 -1.0750 -0.1846 -1.4587
  156SAPE   O3117291   4.287   1.457   6.466 -0.1456 -0.0418  0.0508
  156SAPE   C3117292   4.284   1.580   6.422  1.1882 -0.3087 -0.2548
  156SAPE   O3217293   4.316   1.679   6.484  0.0983 -0.1963  0.3190
  156SAPE   C3217294   4.229   1.578   6.279  0.4293  0.0389  0.3182
  156SAPE   H2X17295   4.199   1.683   6.259  0.9260  0.1685  0.2285
  156SAPE   H2Y17296   4.147   1.503   6.273  1.9470 -1.5953 -2.0567
  156SAPE   C2317297   4.904   1.520   6.327  0.7035  0.1673  0.4270
  156SAPE   H3R17298   4.958   1.431   6.364 -1.6433 -0.8851  1.5461
  156SAPE   H3S17299   4.962   1.607   6.364  0.6183 -0.0613  1.1088
  156SAPE   C2417300   4.879   1.519   6.173 -0.3548 -0.9268 -0.7019
  156SAPE   H4R17301   4.980   1.512   6.128  1.1638 -1.2010  2.4780
  156SAPE   H4S17302   4.843   1.619   6.141  1.8554  0.1799  0.0584
  156SAPE   C2517303   4.806   1.399   6.128  0.2917 -0.5940 -0.2982
  156SAPE   H5R17304   4.850   1.304   6.163  0.3866 -0.7890 -0.9222
  156SAPE   C2617305   4.718   1.402   6.028  0.0354 -0.7456  0.3381
  156SAPE   H6R17306   4.683   1.302   5.998 -0.1733 -0.2028 -1.3436
  156SAPE   C2717307   4.663   1.520   5.955  0.3758 -0.0576 -0.6511
  156SAPE   H7R17308   4.614   1.600   6.014 -1.4297 -0.4090 -1.5968
  156SAPE   H7S17309   4.580   1.488   5.888  1.1896 -1.8503 -0.8726
  156SAPE   C2817310   4.774   1.586   5.872 -0.1907 -0.2789  0.4150
  156SAPE   H8R17311   4.814   1.674   5.925 -1.2278  0.7455 -0.4278
  156SAPE   C2917312   4.809   1.559   5.738 -0.8257 -0.3922 -0.5691
  156SAPE   H9R17313   4.883   1.626   5.691 -0.3491 -0.1335  0.5247
  156SAPE  C21017314   4.747   1.463   5.639 -0.4912  0.1199 -0.7504
  156SAPE  H10R17315   4.693   1.380   5.690  0.0793  0.8540  1.0826
  156SAPE  H10S17316   4.831   1.402   5.598 -0.8032  0.3633 -1.8039
  156SAPE  C21117317   4.662   1.518   5.527 -0.5907  0.0099 -0.1169
  156SAPE  H11R17318   4.561   1.542   5.563 -0.1293 -0.0238  1.2422
  156SAPE  C21217319   4.691   1.542   5.401 -0.5429  0.6729 -0.0127
  156SAPE  H12R17320   4.617   1.578   5.329  0.0621  1.3846 -0.2827
  156SAPE  C21317321   4.824   1.499   5.335  0.0035 -0.6576 -0.1185
  156SAPE  H13R17322   4.902   1.471   5.409 -0.0533 -1.6334 -0.4151
  156SAPE  H13S17323   4.861   1.590   5.283  0.2759 -1.1738 -0.8348
  156SAPE  C21417324   4.803   1.381   5.244 -0.7885  0.2932  0.5380
  156SAPE  H14R17325   4.768   1.290   5.295 -0.4599  0.6161  1.3521
  156SAPE  C21517326   4.833   1.374   5.114  0.1290  1.2351  0.3311
  156SAPE  H15R17327   4.815   1.276   5.067  0.2335  1.3660  0.0202
  156SAPE  C21617328   4.879   1.487   5.026 -0.1459 -0.5339  0.4510
  156SAPE  H16R17329   4.989   1.481   5.012  0.0992 -1.7753  2.5478
  156SAPE  H16S17330   4.864   1.587   5.071 -0.6564  0.1273 -1.1156
  156SAPE  C21717331   4.814   1.494   4.877 -0.5425 -0.2236 -0.1010
  156SAPE  H17R17332   4.871   1.418   4.818 -2.0636 -1.8168  0.3975
  156SAPE  H17S17333   4.834   1.596   4.839 -2.2007 -0.0760 -0.6482
  156SAPE  C21817334   4.665   1.467   4.870  0.3970 -0.1107 -0.0131
  156SAPE  H18R17335   4.618   1.554   4.920  3.7374  0.5226  2.3537
  156SAPE  H18S17336   4.639   1.376   4.929  1.9895  0.7412  2.1658
  156SAPE  C21917337   4.609   1.445   4.731 -0.3851  0.1684 -1.1823
  156SAPE  H19R17338   4.504   1.409   4.735 -0.3147  0.0715  0.7836
  156SAPE  H19S17339   4.666   1.367   4.677 -0.1704  0.6605 -1.6757
  156SAPE  C22017340   4.603   1.570   4.648  0.4920 -0.3819 -0.2512
  156SAPE  H20R17341   4.551   1.653   4.699  0.4808 -1.4200  1.4974
  156SAPE  H20S17342   4.568   1.561   4.543  1.3216  0.0865 -0.5777
  156SAPE  H20T17343   4.706   1.609   4.636  1.0734 -0.7055  3.0075
  156SAPE   C3317344   4.335   1.536   6.183 -0.1185  0.7203 -0.4501
  156SAPE   H3X17345   4.359   1.431   6.208 -1.0194  0.6241  0.0641
  156SAPE   H3Y17346   4.431   1.591   6.184  0.3946 -0.1559  0.7002
  156SAPE   C3417347   4.291   1.547   6.038  0.5733  0.0623  0.5548
  156SAPE   H4X17348   4.384   1.529   5.979  1.3336  1.2759  1.3185
  156SAPE   H4Y17349   4.249   1.647   6.012 -2.5315 -1.0017  1.0903
  156SAPE   C3517350   4.183   1.453   5.982 -0.2133  0.7038 -0.0702
  156SAPE   H5X17351   4.097   1.459   6.053  0.1324  0.7317  0.3513
  156SAPE   H5Y17352   4.216   1.347   5.978 -1.1162  0.4342 -0.5002
  156SAPE   C3617353   4.144   1.481   5.836  0.4518  0.2159  0.6277
  156SAPE   H6X17354   4.109   1.587   5.831 -1.1023 -0.2444  1.0674
  156SAPE   H6Y17355   4.051   1.422   5.820  0.0748  0.8076  0.5959
  156SAPE   C3717356   4.248   1.446   5.726  0.0002 -0.2300 -0.9586
  156SAPE   H7X17357   4.287   1.348   5.759  1.7967  0.6896 -0.2038
  156SAPE   H7Y17358   4.329   1.522   5.732 -0.4740  0.2094  0.0428
  156SAPE   C3817359   4.191   1.446   5.585  0.4705 -0.0397 -0.2109
  156SAPE   H8X17360   4.116   1.527   5.571 -2.5682 -1.6405  4.4318
  156SAPE   H8Y17361   4.137   1.349   5.581 -1.6869  1.0319  1.2322
  156SAPE   C3917362   4.295   1.452   5.481 -0.7507 -0.3823  0.0982
  156SAPE   H9X17363   4.372   1.373   5.493  0.0113  0.4983  1.1874
  156SAPE   H9Y17364   4.354   1.546   5.491  1.3805 -1.6825  0.5394
  156SAPE  C31017365   4.241   1.461   5.337  0.0045 -0.7160 -0.5625
  156SAPE  H10X17366   4.190   1.559   5.325 -1.0919 -0.9273  1.8837
  156SAPE  H10Y17367   4.168   1.377   5.336  0.5818 -1.2758  1.4230
  156SAPE  C31117368   4.352   1.429   5.229  0.3824  0.1603 -0.3777
  156SAPE  H11X17369   4.390   1.330   5.263 -1.1825 -0.8795 -1.5150
  156SAPE  H11Y17370   4.421   1.515   5.221 -0.2085  0.5128 -2.0451
  156SAPE  C31217371   4.292   1.407   5.088 -0.3811 -0.4602  0.3363
  156SAPE  H12X17372   4.229   1.317   5.069 -1.2172  0.5448 -2.0869
  156SAPE  H12Y17373   4.381   1.396   5.023  0.1809 -1.3638  1.2223
  156SAPE  C31317374   4.213   1.526   5.027  0.1171  0.4408  0.8641
  156SAPE  H13X17375   4.240   1.615   5.087  0.5172 -0.2258  1.7120
  156SAPE  H13Y17376   4.104   1.516   5.046 -0.3335  2.3920 -0.4652
  156SAPE  C31417377   4.226   1.543   4.880 -0.3738  0.0184  0.0099
  156SAPE  H14X17378   4.194   1.446   4.836  0.9339  0.8071 -2.9361
  156SAPE  H14Y17379   4.332   1.550   4.847  0.3512 -3.0547  1.3604
  156SAPE  C31517380   4.138   1.649   4.817 -0.1830  0.7587  0.3232
  156SAPE  H15X17381   4.174   1.744   4.860  1.7412 -0.0664  0.6516
  156SAPE  H15Y17382   4.034   1.619   4.840  0.0129  0.5946  1.0227
  156SAPE  C31617383   4.158   1.654   4.667  0.5049  0.3115  0.3237
  156SAPE  H16X17384   4.160   1.553   4.621  1.1485  1.1290 -1.5179
  156SAPE  H16Y17385   4.251   1.708   4.643  0.1835  0.4587 -0.6408
  156SAPE  C31717386   4.036   1.717   4.594  0.1103 -0.2635 -0.4253
  156SAPE  H17X17387   4.017   1.822   4.624 -4.7531 -0.0694 -3.1886
  156SAPE  H17Y17388   3.947   1.655   4.616  1.1624 -1.8886 -0.4950
  156SAPE  C31817389   4.049   1.718   4.440 -0.4447  0.1923 -0.3382
  156SAPE  H18X17390   4.049   1.614   4.403  0.6355 -0.5430  1.5930
  156SAPE  H18Y17391   4.154   1.749   4.423 -0.5966  0.6019 -0.5638
  156SAPE  H18Z17392   3.970   1.789   4.407 -1.2461 -0.5946 -0.1524
  157SAPE     N17393   3.589   5.324   7.292 -0.0440 -0.0952 -0.6055
  157SAPE   HN117394   3.546   5.398   7.351 -0.8972 -0.7997 -0.3312
  157SAPE   HN217395   3.665   5.272   7.340  0.4796  1.7092  0.6017
  157SAPE   HN317396   3.634   5.378   7.214 -0.0264 -0.7322 -1.0412
  157SAPE   C1217397   3.479   5.240   7.238  0.1935  0.1841 -0.6418
  157SAPE  H12A17398   3.443   5.195   7.333 -0.0060  0.6374 -0.4985
  157SAPE  H12B17399   3.529   5.170   7.168 -2.3184 -0.9475 -1.4376
  157SAPE   C1117400   3.365   5.326   7.187  0.3420 -0.6945 -1.2034
  157SAPE  H11A17401   3.285   5.252   7.166 -0.9074 -0.2025  1.4222
  157SAPE  H11B17402   3.412   5.383   7.104  2.1869 -0.4769 -0.0782
  157SAPE     P17403   3.259   5.564   7.236 -0.1338  0.4538  0.3623
  157SAPE   O1317404   3.146   5.584   7.324  0.2685 -0.5153  0.5209
  157SAPE   O1417405   3.373   5.655   7.244 -0.1594 -0.4893 -0.0212
  157SAPE   O1217406   3.314   5.421   7.282 -0.3382 -0.0244 -0.2303
  157SAPE   O1117407   3.216   5.548   7.078 -0.0844  0.3521 -0.6702
  157SAPE    C117408   3.078   5.511   7.053 -0.2957 -0.5426 -0.2131
  157SAPE    HA17409   3.033   5.446   7.132  3.8865 -1.2495  1.8781
  157SAPE    HB17410   3.018   5.604   7.046  1.0446  0.7286  3.0323
  157SAPE    C217411   3.059   5.442   6.918  0.6853  0.6866 -0.0777
  157SAPE    HS17412   2.949   5.432   6.902  0.5157 -0.3779  1.5129
  157SAPE   O2117413   3.123   5.310   6.909  0.1375 -0.0985 -0.4179
  157SAPE   C2117414   3.068   5.215   6.977 -0.4196 -0.8037  0.8843
  157SAPE   O2217415   2.977   5.215   7.054  0.3738  0.1153 -0.1294
  157SAPE   C2217416   3.148   5.087   6.948 -0.6868 -0.3849  0.3759
  157SAPE   H2R17417   3.257   5.111   6.951 -0.5443 -1.0695  0.7795
  157SAPE   H2S17418   3.140   5.025   7.040  2.8270 -0.1043  1.0275
  157SAPE    C317419   3.102   5.539   6.805 -0.4794  0.9496  0.9688
  157SAPE    HX17420   3.209   5.557   6.830 -1.1097  0.2404  4.8406
  157SAPE    HY17421   3.048   5.635   6.823 -1.9754  0.6370 -1.4345
  157SAPE   O3117422   3.074   5.491   6.675 -0.0496 -0.0343  0.3405
  157SAPE   C3117423   3.152   5.539   6.575  0.4430 -0.2727 -0.2525
  157SAPE   O3217424   3.257   5.598   6.583  0.2195 -0.4425  0.2638
  157SAPE   C3217425   3.091   5.493   6.441  1.0482 -0.1815  0.1295
  157SAPE   H2X17426   2.988   5.529   6.460  2.2329  2.2632  2.7288
  157SAPE   H2Y17427   3.101   5.382   6.443 -0.0257 -0.2936 -0.1776
  157SAPE   C2317428   3.111   5.020   6.819  0.2051 -0.1037 -0.0426
  157SAPE   H3R17429   3.124   5.086   6.731 -2.7563  0.4031 -0.1899
  157SAPE   H3S17430   3.003   4.995   6.816 -0.4514  2.5448 -2.4209
  157SAPE   C2417431   3.176   4.885   6.787  0.7816 -0.0330 -0.0332
  157SAPE   H4R17432   3.101   4.844   6.717  1.6847 -0.3817 -0.8192
  157SAPE   H4S17433   3.175   4.818   6.876 -3.9741 -0.4034 -0.1468
  157SAPE   C2517434   3.313   4.889   6.730  0.5113  0.2723  0.1436
  157SAPE   H5R17435   3.392   4.925   6.798  1.5343 -0.9648 -0.3408
  157SAPE   C2617436   3.348   4.838   6.607 -0.3222 -0.7190  0.1271
  157SAPE   H6R17437   3.452   4.842   6.572 -0.3609  1.8392  0.1576
  157SAPE   C2717438   3.253   4.798   6.495 -0.1968  0.2148  0.2174
  157SAPE   H7R17439   3.218   4.893   6.449  0.0240  0.5465  0.7183
  157SAPE   H7S17440   3.167   4.756   6.552 -1.0819  3.6444  1.6800
  157SAPE   C2817441   3.311   4.699   6.395  0.2957 -0.7210  0.2066
  157SAPE   H8R17442   3.410   4.655   6.410  0.9456 -0.0337 -1.8115
  157SAPE   C2917443   3.258   4.689   6.269 -0.7695 -0.3973  0.0913
  157SAPE   H9R17444   3.291   4.613   6.197 -0.6435  0.5740 -0.8939
  157SAPE  C21017445   3.133   4.762   6.227  0.3138  0.6670  0.1176
  157SAPE  H10R17446   3.081   4.817   6.308  0.6771  1.0951  0.0583
  157SAPE  H10S17447   3.063   4.686   6.186  1.3854 -0.6013  0.5653
  157SAPE  C21117448   3.168   4.855   6.113 -0.0470  0.6180 -0.5502
  157SAPE  H11R17449   3.238   4.929   6.155 -0.0702  0.6836 -0.6262
  157SAPE  C21217450   3.136   4.854   5.984  0.6920  0.2534  0.3184
  157SAPE  H12R17451   3.160   4.941   5.921 -4.0458  0.9982 -0.8816
  157SAPE  C21317452   3.046   4.758   5.910  0.4445 -0.1883 -0.0271
  157SAPE  H13R17453   2.997   4.815   5.828 -0.7150  0.7155  1.2660
  157SAPE  H13S17454   2.961   4.726   5.973 -0.2782  1.3544 -0.1736
  157SAPE  C21417455   3.120   4.636   5.867 -0.6153 -0.0690 -0.3597
  157SAPE  H14R17456   3.132   4.559   5.944 -1.2822  1.5375  1.4060
  157SAPE  C21517457   3.152   4.600   5.738  0.1264  0.7551 -0.3393
  157SAPE  H15R17458   3.179   4.494   5.725 -3.3749 -0.8141  3.2549
  157SAPE  C21617459   3.113   4.683   5.618 -0.2064  0.1073  0.6369
  157SAPE  H16R17460   3.202   4.703   5.554 -0.7826  2.9949  0.6357
  157SAPE  H16S17461   3.072   4.782   5.647 -0.9690 -1.0292  3.9034
  157SAPE  C21717462   3.021   4.584   5.538 -0.6060  0.4045 -0.0910
  157SAPE  H17R17463   2.922   4.587   5.587 -0.5287  2.4428  0.0410
  157SAPE  H17S17464   3.054   4.478   5.539 -1.3417  0.1578 -0.8935
  157SAPE  C21817465   3.025   4.618   5.385  0.4668 -0.1306  0.1885
  157SAPE  H18R17466   3.125   4.619   5.336  0.5176  3.0337  0.1484
  157SAPE  H18S17467   2.973   4.715   5.369 -2.8597 -1.7751  0.2838
  157SAPE  C21917468   2.938   4.523   5.291 -0.1254 -0.5816 -0.7295
  157SAPE  H19R17469   2.830   4.539   5.310  0.7751  3.1000  2.4993
  157SAPE  H19S17470   2.968   4.420   5.322  1.4463  0.2111  0.5652
  157SAPE  C22017471   2.975   4.542   5.146 -0.3410 -0.1980 -0.0470
  157SAPE  H20R17472   2.914   4.483   5.074  1.5721 -1.9581 -0.3429
  157SAPE  H20S17473   3.078   4.510   5.120 -0.1918  0.4687 -0.2867
  157SAPE  H20T17474   2.959   4.650   5.126  2.8549  0.4296  0.2506
  157SAPE   C3317475   3.156   5.564   6.317  0.5390  0.2558  0.0745
  157SAPE   H3X17476   3.266   5.546   6.317  0.8183  1.8469 -0.0023
  157SAPE   H3Y17477   3.140   5.673   6.322 -1.8163 -0.0526  0.5395
  157SAPE   C3417478   3.111   5.497   6.184 -0.3810 -0.3881  0.1158
  157SAPE   H4X17479   3.002   5.518   6.191 -0.0261  1.8768 -0.4932
  157SAPE   H4Y17480   3.133   5.389   6.170 -1.0230 -0.3750 -1.1264
  157SAPE   C3517481   3.175   5.566   6.056  0.8348  0.1732 -0.0373
  157SAPE   H5X17482   3.282   5.537   6.049  0.9297  0.6546 -0.7506
  157SAPE   H5Y17483   3.168   5.677   6.064 -1.5028 -0.0676  2.8720
  157SAPE   C3617484   3.103   5.526   5.919  0.3613  0.1268 -0.0938
  157SAPE   H6X17485   2.993   5.536   5.932  0.2282  0.5806 -1.4244
  157SAPE   H6Y17486   3.118   5.419   5.896 -1.2208  0.0522 -0.9105
  157SAPE   C3717487   3.159   5.605   5.802 -0.6810 -0.4840 -0.4914
  157SAPE   H7X17488   3.260   5.561   5.791 -0.1865  0.7326 -1.0206
  157SAPE   H7Y17489   3.163   5.712   5.832  0.3648  0.0735 -2.4023
  157SAPE   C3817490   3.077   5.598   5.683  0.5241  0.6538 -0.3008
  157SAPE   H8X17491   3.054   5.697   5.638 -2.0942 -0.1288 -0.8839
  157SAPE   H8Y17492   2.978   5.560   5.716  1.7211 -1.3003  1.2420
  157SAPE   C3917493   3.113   5.503   5.566 -0.2199  0.7136 -0.3584
  157SAPE   H9X17494   3.027   5.459   5.511  0.1112  0.9578 -1.0975
  157SAPE   H9Y17495   3.157   5.410   5.609  1.1943  2.2553  1.7205
  157SAPE  C31017496   3.213   5.560   5.473  0.0953 -0.5134 -0.6805
  157SAPE  H10X17497   3.297   5.585   5.541 -2.0807 -2.5022  3.0408
  157SAPE  H10Y17498   3.177   5.651   5.420  0.0931 -0.6287 -0.8798
  157SAPE  C31117499   3.252   5.466   5.363  0.2813  0.3999 -0.7469
  157SAPE  H11X17500   3.302   5.383   5.417  0.7957  1.3050  0.1974
  157SAPE  H11Y17501   3.339   5.512   5.311  1.1493  1.6002  1.6218
  157SAPE  C31217502   3.143   5.421   5.262  0.0706 -0.3090  0.2633
  157SAPE  H12X17503   3.091   5.512   5.224  0.5568  0.6805  1.8912
  157SAPE  H12Y17504   3.070   5.363   5.322 -1.5136 -2.6057 -3.5381
  157SAPE  C31317505   3.196   5.336   5.152 -0.1627 -0.4725 -0.6967
  157SAPE  H13X17506   3.104   5.297   5.103 -0.8649  0.7151 -0.3870
  157SAPE  H13Y17507   3.259   5.254   5.193  0.8154  1.2415  1.4221
  157SAPE  C31417508   3.277   5.415   5.050  0.8048  0.0987 -0.3605
  157SAPE  H14X17509   3.380   5.437   5.085  0.5033  1.9348 -0.4828
  157SAPE  H14Y17510   3.218   5.509   5.038 -0.5427 -0.7254 -0.3943
  157SAPE  C31517511   3.268   5.349   4.912 -0.0268 -0.4708 -0.5473
  157SAPE  H15X17512   3.281   5.417   4.826 -0.4227 -0.3530 -0.5168
  157SAPE  H15Y17513   3.170   5.298   4.903  0.0066 -0.8697  0.9383
  157SAPE  C31617514   3.364   5.239   4.891  0.2811  0.1995  0.7975
  157SAPE  H16X17515   3.360   5.168   4.976  1.1868  0.5235  1.1161
  157SAPE  H16Y17516   3.467   5.279   4.889 -0.4152  2.1202  1.6066
  157SAPE  C31717517   3.331   5.163   4.759  0.0006 -0.2881 -0.4363
  157SAPE  H17X17518   3.353   5.233   4.675 -2.1877  1.6715  0.5256
  157SAPE  H17Y17519   3.223   5.141   4.748 -0.2389  0.2554  0.6509
  157SAPE  C31817520   3.418   5.040   4.748  0.2818  0.9031  0.2375
  157SAPE  H18X17521   3.405   4.988   4.650  2.2370  1.3203 -0.2958
  157SAPE  H18Y17522   3.394   4.976   4.835  2.1666  2.5303  2.0394
  157SAPE  H18Z17523   3.526   5.055   4.766  0.4378 -1.6855  2.0117
  158SAPE     N17524   0.357   4.233   6.686 -0.1980 -0.2376 -0.3808
  158SAPE   HN117525   0.296   4.297   6.741  2.0082  1.5211  0.1151
  158SAPE   HN217526   0.439   4.228   6.749 -0.4668 -1.6548 -0.1003
  158SAPE   HN317527   0.395   4.283   6.604 -0.5426  2.3816  0.9711
  158SAPE   C1217528   0.290   4.098   6.685  0.0597  0.0358  0.1574
  158SAPE  H12A17529   0.224   4.106   6.596  1.8806  1.8843 -1.1337
  158SAPE  H12B17530   0.230   4.081   6.777 -0.0186  0.8105  0.2558
  158SAPE   C1117531   0.398   3.993   6.662  0.3335 -0.5742  0.0753
  158SAPE  H11A17532   0.462   4.020   6.576 -0.7029  0.5608 -0.3639
  158SAPE  H11B17533   0.341   3.898   6.653  0.5841 -0.6940 -0.2626
  158SAPE     P17534   0.604   4.059   6.822 -0.0980  0.3113 -0.1961
  158SAPE   O1317535   0.562   4.201   6.850 -0.0066 -0.0999 -0.1001
  158SAPE   O1417536   0.678   4.000   6.936  0.3401 -0.4458  0.2173
  158SAPE   O1217537   0.476   3.978   6.781 -0.1071 -0.3114 -0.3692
  158SAPE   O1117538   0.694   4.055   6.694 -0.3036 -0.0448 -0.0936
  158SAPE    C117539   0.802   4.148   6.663 -0.4651  0.1025 -0.7613
  158SAPE    HA17540   0.861   4.158   6.756 -0.9757  2.5140 -0.6205
  158SAPE    HB17541   0.867   4.094   6.591  0.3203 -1.5867  1.1213
  158SAPE    C217542   0.761   4.292   6.611 -0.0308  0.4067  0.4863
  158SAPE    HS17543   0.673   4.329   6.667 -0.8486  1.3017 -1.3173
  158SAPE   O2117544   0.744   4.295   6.465 -0.2629  0.2057  0.2773
  158SAPE   C2117545   0.633   4.245   6.423 -0.0884  0.3091 -0.8025
  158SAPE   O2217546   0.528   4.236   6.481 -0.1872  0.6334  0.2275
  158SAPE   C2217547   0.637   4.223   6.270 -0.0672 -0.3184  0.7877
  158SAPE   H2R17548   0.631   4.113   6.259  0.6397 -0.3200  0.3476
  158SAPE   H2S17549   0.553   4.285   6.231  0.6321  0.0697 -0.1447
  158SAPE    C317550   0.869   4.401   6.652 -0.9039 -0.2074 -0.0149
  158SAPE    HX17551   0.971   4.360   6.641 -0.9985 -0.2778 -0.6358
  158SAPE    HY17552   0.860   4.420   6.762 -0.0093  1.5075 -0.1991
  158SAPE   O3117553   0.854   4.529   6.583 -0.5844 -0.4267 -0.1553
  158SAPE   C3117554   0.959   4.586   6.544 -0.5229 -0.0316  0.6979
  158SAPE   O3217555   1.072   4.540   6.553  1.0198 -0.7973  0.3564
  158SAPE   C3217556   0.923   4.721   6.477 -0.0912 -0.2162  0.1636
  158SAPE   H2X17557   0.943   4.804   6.548  0.9507 -0.9628  0.7748
  158SAPE   H2Y17558   0.815   4.725   6.452  0.5960  1.8223 -3.1178
  158SAPE   C2317559   0.768   4.265   6.201  0.6643 -1.0692  0.0828
  158SAPE   H3R17560   0.848   4.215   6.261  0.0380 -1.1968  0.8237
  158SAPE   H3S17561   0.782   4.375   6.201 -2.8324 -0.5323 -0.6257
  158SAPE   C2417562   0.779   4.213   6.058 -0.6558  0.0326  0.2766
  158SAPE   H4R17563   0.769   4.103   6.067  0.8101 -0.2016 -0.5262
  158SAPE   H4S17564   0.881   4.241   6.024 -1.3827  0.5984 -1.5514
  158SAPE   C2517565   0.679   4.285   5.965  0.1680  1.0452  0.0778
  158SAPE   H5R17566   0.615   4.363   6.008  1.5218  1.3799  1.5789
  158SAPE   C2617567   0.676   4.260   5.831  0.0084 -0.5853  0.2278
  158SAPE   H6R17568   0.618   4.333   5.773  2.0925  2.1785  1.3414
  158SAPE   C2717569   0.761   4.165   5.745 -0.1500 -0.4809 -0.4191
  158SAPE   H7R17570   0.701   4.074   5.723 -0.6346  0.2538 -2.3446
  158SAPE   H7S17571   0.850   4.123   5.797 -0.1863 -0.6013 -0.4528
  158SAPE   C2817572   0.805   4.234   5.623  0.2092 -0.9059  0.0561
  158SAPE   H8R17573   0.876   4.316   5.640  1.2937 -1.6299 -0.8418
  158SAPE   C2917574   0.744   4.207   5.503  0.1052  0.3755  0.5917
  158SAPE   H9R17575   0.783   4.272   5.423  2.1965  2.3748  2.9880
  158SAPE  C21017576   0.646   4.103   5.469  0.5851  0.1466  0.4662
  158SAPE  H10R17577   0.658   4.029   5.551  1.2542  1.8928  2.0324
  158SAPE  H10S17578   0.644   4.070   5.363 -2.4169  1.6423 -0.0481
  158SAPE  C21117579   0.503   4.163   5.494 -0.7673 -0.0012  0.6614
  158SAPE  H11R17580   0.471   4.163   5.599 -1.3076  1.5104  0.5178
  158SAPE  C21217581   0.407   4.195   5.406  1.2820 -0.5343  0.5788
  158SAPE  H12R17582   0.313   4.246   5.431  0.8021 -0.3094 -1.5020
  158SAPE  C21317583   0.425   4.200   5.253 -0.5030 -0.0247 -0.4960
  158SAPE  H13R17584   0.329   4.220   5.200 -0.7585 -0.1261 -0.0728
  158SAPE  H13S17585   0.458   4.101   5.214 -0.4178 -0.4896  0.7179
  158SAPE  C21417586   0.528   4.305   5.208  0.7484  0.2449 -0.0392
  158SAPE  H14R17587   0.619   4.305   5.270 -0.1134  0.0936  1.2779
  158SAPE  C21517588   0.530   4.390   5.102 -0.3323 -0.2302 -0.1134
  158SAPE  H15R17589   0.610   4.465   5.097  1.3430 -1.5261  3.5869
  158SAPE  C21617590   0.426   4.403   4.990  0.1429  0.2051 -0.4147
  158SAPE  H16R17591   0.366   4.309   4.982  0.7783 -0.0758 -2.9586
  158SAPE  H16S17592   0.474   4.418   4.891  2.9414  0.6653  0.9271
  158SAPE  C21717593   0.341   4.527   5.040 -0.0640 -0.2286 -0.8570
  158SAPE  H17R17594   0.388   4.623   5.008 -3.4901  1.4287 -1.4125
  158SAPE  H17S17595   0.330   4.529   5.150  2.0798 -0.7411 -0.5939
  158SAPE  C21817596   0.201   4.522   4.977  0.2614  0.1678  0.0341
  158SAPE  H18R17597   0.161   4.429   5.022  0.1331  0.7770  1.2200
  158SAPE  H18S17598   0.213   4.492   4.871  0.8382 -0.9478  0.4016
  158SAPE  C21917599   0.111   4.645   4.997  0.8727  0.3255  0.4495
  158SAPE  H19R17600   0.005   4.626   4.968  0.3062  0.5819  2.1864
  158SAPE  H19S17601   0.158   4.732   4.947  2.2315 -0.7278 -0.1501
  158SAPE  C22017602   0.104   4.679   5.149  0.5494  0.5404 -0.2832
  158SAPE  H20R17603   0.205   4.680   5.197  0.1275 -1.3244  0.7277
  158SAPE  H20S17604   0.045   4.607   5.210 -1.3514  1.6825 -0.6898
  158SAPE  H20T17605   0.057   4.778   5.167  0.4956  0.2200  1.5989
  158SAPE   C3317606   1.018   4.734   6.360 -0.6773  0.0886  0.2250
  158SAPE   H3X17607   1.126   4.743   6.388 -0.1259 -1.3948 -1.2740
  158SAPE   H3Y17608   1.006   4.830   6.306 -1.4523 -0.4635 -0.6040
  158SAPE   C3417609   0.998   4.635   6.241  0.8687 -0.3348 -0.1416
  158SAPE   H4X17610   0.896   4.592   6.254  0.1343  1.4575  0.4513
  158SAPE   H4Y17611   1.074   4.555   6.236 -0.7515 -1.9102 -1.0189
  158SAPE   C3517612   0.987   4.706   6.099  0.1142 -0.3563  0.0196
  158SAPE   H5X17613   1.094   4.734   6.083 -0.2378  0.6682 -0.5890
  158SAPE   H5Y17614   0.914   4.789   6.106  0.0769 -0.2554 -1.3553
  158SAPE   C3617615   0.931   4.617   5.990  0.2218 -0.3572  0.6391
  158SAPE   H6X17616   0.835   4.563   5.997  0.9317 -1.6336  0.8036
  158SAPE   H6Y17617   1.007   4.536   5.978  1.1251  0.7698 -2.2313
  158SAPE   C3717618   0.929   4.691   5.856 -0.2302 -0.5608  0.4168
  158SAPE   H7X17619   1.030   4.733   5.837 -0.9513  0.2489 -1.9454
  158SAPE   H7Y17620   0.859   4.777   5.853 -0.5445 -0.8467 -1.1393
  158SAPE   C3817621   0.895   4.593   5.742 -0.8877 -0.2484  0.2376
  158SAPE   H8X17622   0.801   4.533   5.740 -1.8159  1.0784 -3.1347
  158SAPE   H8Y17623   0.977   4.519   5.751 -0.1848  0.4501 -0.2793
  158SAPE   C3917624   0.921   4.656   5.608 -0.7286  0.6948  0.2988
  158SAPE   H9X17625   1.002   4.731   5.620  0.4274 -0.0536 -2.1194
  158SAPE   H9Y17626   0.832   4.704   5.562 -3.0227 -3.4745 -0.0930
  158SAPE  C31017627   0.956   4.550   5.497 -0.4396  0.3676  0.1838
  158SAPE  H10X17628   0.871   4.479   5.495  0.5847 -0.9442  0.8921
  158SAPE  H10Y17629   1.049   4.500   5.534  0.2925  1.9113  0.5114
  158SAPE  C31117630   0.977   4.634   5.373 -0.5728 -0.1669 -0.7542
  158SAPE  H11X17631   1.087   4.644   5.362 -0.5789 -0.5515 -1.1811
  158SAPE  H11Y17632   0.935   4.737   5.376  0.4417  0.2628 -0.5428
  158SAPE  C31217633   0.926   4.562   5.246  0.3166 -0.6394  0.7125
  158SAPE  H12X17634   0.815   4.548   5.243  0.0493  1.2789 -0.1823
  158SAPE  H12Y17635   0.989   4.471   5.249  2.2961  0.7189  2.4715
  158SAPE  C31317636   0.967   4.627   5.117 -0.4339  0.2439  0.5577
  158SAPE  H13X17637   1.078   4.640   5.110 -0.1037 -2.2401  0.5326
  158SAPE  H13Y17638   0.924   4.729   5.122 -1.2862 -0.1165  0.6526
  158SAPE  C31417639   0.915   4.572   4.983 -0.8539 -0.3187 -0.1180
  158SAPE  H14X17640   0.811   4.535   4.999 -0.8601 -0.1556  0.2341
  158SAPE  H14Y17641   0.978   4.482   4.965  1.7269  1.5809 -1.1660
  158SAPE  C31517642   0.907   4.674   4.871 -0.0944 -0.0897  0.0206
  158SAPE  H15X17643   0.829   4.751   4.893 -1.2480 -1.1417 -0.2925
  158SAPE  H15Y17644   0.878   4.626   4.776  0.4062 -1.1765  0.4068
  158SAPE  C31617645   1.042   4.730   4.841 -0.0444 -0.0656 -0.5150
  158SAPE  H16X17646   1.114   4.653   4.807  0.7541  0.3884  0.1219
  158SAPE  H16Y17647   1.088   4.774   4.932  1.5289  0.6080 -1.5756
  158SAPE  C31717648   1.020   4.837   4.737 -0.2396 -0.5879 -0.5391
  158SAPE  H17X17649   0.940   4.903   4.778 -0.9036 -2.2994  1.0532
  158SAPE  H17Y17650   0.985   4.797   4.640 -0.9130  2.4243 -1.6598
  158SAPE  C31817651   1.153   4.920   4.709  0.4408 -0.1428  0.2723
  158SAPE  H18X17652   1.127   4.990   4.626 -0.4729 -0.7341  0.0523
  158SAPE  H18Y17653   1.231   4.845   4.683 -0.6153 -1.5486  1.0341
  158SAPE  H18Z17654   1.189   4.974   4.799 -2.2687 -1.6901  2.4181
  159SAPE     N17655   0.593   3.690   2.023  0.5075  0.7695  0.3144
  159SAPE   HN117656   0.559   3.782   2.058  0.0597  0.3099  1.0970
  159SAPE   HN217657   0.649   3.650   2.100  1.2823  0.1328 -0.5499
  159SAPE   HN317658   0.655   3.713   1.942  0.6219  2.7536  0.9008
  159SAPE   C1217659   0.463   3.607   1.992 -0.1446 -0.2322  0.1881
  159SAPE  H12A17660   0.401   3.595   2.083  1.4506  2.1078  1.7047
  159SAPE  H12B17661   0.488   3.507   1.949  1.4511 -0.4055  1.3952
  159SAPE   C1117662   0.373   3.693   1.899 -0.0374  0.1565 -0.1712
  159SAPE  H11A17663   0.278   3.637   1.883 -0.3929  0.4094  0.9321
  159SAPE  H11B17664   0.424   3.706   1.801  3.0024  0.2282  1.3168
  159SAPE     P17665   0.203   3.858   2.018  0.0573 -0.4494 -0.1396
  159SAPE   O1317666   0.202   3.997   2.063 -0.5593 -0.3674 -0.1779
  159SAPE   O1417667   0.107   3.830   1.910 -0.0088 -0.3052 -0.1030
  159SAPE   O1217668   0.349   3.818   1.967  0.0787  0.1439  0.2590
  159SAPE   O1117669   0.171   3.755   2.132 -0.1149 -0.1748 -0.5963
  159SAPE    C117670   0.077   3.780   2.248  0.2546 -0.2982  0.8170
  159SAPE    HA17671   0.085   3.888   2.272  0.9562 -0.4682  1.3642
  159SAPE    HB17672  -0.029   3.770   2.214  0.3353 -2.3624  1.0634
  159SAPE    C217673   0.098   3.690   2.373  0.0733  0.1931 -0.1660
  159SAPE    HS17674   0.038   3.733   2.456  1.1735  1.3429  0.0799
  159SAPE   O2117675   0.238   3.688   2.401 -0.6297  0.4285 -0.1470
  159SAPE   C2117676   0.302   3.798   2.427  0.8709 -0.1518  0.2177
  159SAPE   O2217677   0.247   3.905   2.443 -0.2685 -0.6003 -0.1964
  159SAPE   C2217678   0.453   3.775   2.433  0.0166  0.5690  0.0595
  159SAPE   H2R17679   0.468   3.671   2.468 -0.4049  0.4526 -0.0998
  159SAPE   H2S17680   0.497   3.793   2.332  1.6139  2.1804  0.9836
  159SAPE    C317681   0.049   3.549   2.347  0.2276 -0.6647 -0.1071
  159SAPE    HX17682   0.132   3.497   2.295  1.2435  2.8512 -2.3978
  159SAPE    HY17683  -0.036   3.564   2.277  0.2509  2.9634  0.4214
  159SAPE   O3117684   0.013   3.468   2.460  0.7108 -0.2480  0.2586
  159SAPE   C3117685  -0.102   3.491   2.517  0.3226 -0.3521  0.3569
  159SAPE   O3217686  -0.183   3.580   2.488  0.0211 -0.3922 -0.4450
  159SAPE   C3217687  -0.118   3.400   2.638 -0.1404 -0.4094 -0.6996
  159SAPE   H2X17688  -0.190   3.323   2.603  0.2077 -1.2204  0.3085
  159SAPE   H2Y17689  -0.169   3.462   2.714  3.1856  0.3204  1.1490
  159SAPE   C2317690   0.516   3.876   2.528  0.7127 -0.1935 -0.5837
  159SAPE   H3R17691   0.490   3.983   2.517 -0.3438 -0.2372  1.1203
  159SAPE   H3S17692   0.622   3.888   2.496  0.5472  1.2616 -0.6508
  159SAPE   C2417693   0.491   3.838   2.671 -0.0276 -0.1008 -0.7083
  159SAPE   H4R17694   0.530   3.734   2.682  1.3844  0.3169 -1.4772
  159SAPE   H4S17695   0.384   3.840   2.698  0.1155 -1.6609  0.0810
  159SAPE   C2517696   0.580   3.921   2.756  0.5158  0.2731 -0.2513
  159SAPE   H5R17697   0.684   3.930   2.724  0.4972  0.0695 -0.3729
  159SAPE   C2617698   0.533   4.004   2.856 -0.2465 -0.1541 -0.3868
  159SAPE   H6R17699   0.609   4.053   2.919 -0.1627  0.1000 -0.6837
  159SAPE   C2717700   0.391   4.017   2.897  0.0769  0.5181 -0.0613
  159SAPE   H7R17701   0.388   4.073   2.993 -1.7935 -0.0950  0.2754
  159SAPE   H7S17702   0.355   3.914   2.914  2.0017 -0.2323 -0.3488
  159SAPE   C2817703   0.298   4.078   2.795 -0.4146 -0.1580  0.5968
  159SAPE   H8R17704   0.235   4.012   2.733 -0.7604 -1.0462  1.8476
  159SAPE   C2917705   0.284   4.209   2.778 -0.1959 -0.5080  0.8378
  159SAPE   H9R17706   0.201   4.241   2.712 -0.1452 -0.7923  0.6323
  159SAPE  C21017707   0.353   4.326   2.842 -0.4820  0.3907 -0.4499
  159SAPE  H10R17708   0.461   4.332   2.819 -0.2848  0.3212  0.4438
  159SAPE  H10S17709   0.344   4.316   2.952 -1.8935 -0.6301 -0.6321
  159SAPE  C21117710   0.302   4.467   2.804  0.4933  0.3056 -0.3757
  159SAPE  H11R17711   0.339   4.518   2.714 -0.7343  2.9442  0.5170
  159SAPE  C21217712   0.245   4.553   2.893 -0.4650 -0.1531  1.3135
  159SAPE  H12R17713   0.215   4.655   2.865  0.5846 -0.2159 -0.1428
  159SAPE  C21317714   0.208   4.522   3.033 -0.7334 -0.0578  0.0176
  159SAPE  H13R17715   0.161   4.610   3.082 -0.3007  0.5843 -0.7038
  159SAPE  H13S17716   0.302   4.490   3.083 -0.6452  0.8036  0.4169
  159SAPE  C21417717   0.109   4.403   3.044  0.1636  0.5458  0.6402
  159SAPE  H14R17718   0.092   4.342   2.954 -1.0832 -0.6026  1.6145
  159SAPE  C21517719   0.041   4.373   3.158  0.2089  0.4079 -0.5406
  159SAPE  H15R17720  -0.029   4.288   3.168 -2.4806  2.5162 -0.3234
  159SAPE  C21617721   0.056   4.452   3.288  0.5140  0.3589  0.1904
  159SAPE  H16R17722  -0.018   4.535   3.285 -0.0739 -0.1525  0.5011
  159SAPE  H16S17723   0.155   4.502   3.296  1.2815 -0.6076 -2.2676
  159SAPE  C21717724   0.031   4.388   3.420  0.0868 -0.1709 -0.0322
  159SAPE  H17R17725   0.093   4.296   3.432  1.5979  0.9121  0.7523
  159SAPE  H17S17726  -0.074   4.352   3.419  0.0993 -0.2916  1.4424
  159SAPE  C21817727   0.068   4.475   3.541  0.1567 -0.0435 -0.0977
  159SAPE  H18R17728   0.005   4.566   3.531 -0.5554 -0.5439 -0.2660
  159SAPE  H18S17729   0.175   4.501   3.524  0.4459  1.3470  3.1024
  159SAPE  C21917730   0.063   4.393   3.669  0.0899 -0.2075  0.2976
  159SAPE  H19R17731   0.113   4.460   3.742  0.4100 -0.5329  0.3782
  159SAPE  H19S17732   0.133   4.309   3.656 -0.3064 -0.4434 -0.3715
  159SAPE  C22017733  -0.072   4.344   3.717 -0.0463  0.2112 -0.0210
  159SAPE  H20R17734  -0.115   4.402   3.801 -1.1080 -0.6851  0.0806
  159SAPE  H20S17735  -0.070   4.235   3.739  1.0530 -0.2512 -2.1661
  159SAPE  H20T17736  -0.141   4.345   3.630  1.9903 -1.3864 -1.7543
  159SAPE   C3317737   0.013   3.334   2.685  0.2559  0.5230 -0.6797
  159SAPE   H3X17738   0.088   3.402   2.730  1.1484 -0.5407 -0.5095
  159SAPE   H3Y17739   0.059   3.288   2.595  0.7993 -0.4018  0.0649
  159SAPE   C3417740  -0.027   3.216   2.787 -0.5954  0.0304 -0.7315
  159SAPE   H4X17741   0.056   3.147   2.815 -0.9591 -0.2612 -0.3434
  159SAPE   H4Y17742  -0.107   3.155   2.739 -3.1291  1.9158  0.8416
  159SAPE   C3517743  -0.080   3.265   2.921  0.1461  0.0286  0.1466
  159SAPE   H5X17744  -0.180   3.307   2.896 -0.3182 -1.2884 -0.2795
  159SAPE   H5Y17745  -0.013   3.342   2.964  0.4303 -2.2910  4.4317
  159SAPE   C3617746  -0.096   3.160   3.032  0.5771 -0.5024  0.3453
  159SAPE   H6X17747  -0.035   3.069   3.011  0.2526 -0.3151 -1.6315
  159SAPE   H6Y17748  -0.203   3.132   3.040  0.4177  0.2278  0.8601
  159SAPE   C3717749  -0.045   3.206   3.173  0.2391 -0.7244  0.6806
  159SAPE   H7X17750  -0.137   3.258   3.208  0.1355  0.0974 -0.7385
  159SAPE   H7Y17751   0.041   3.276   3.169  0.5249 -1.0714  0.7438
  159SAPE   C3817752  -0.023   3.093   3.265  0.7065  0.7175  0.1982
  159SAPE   H8X17753   0.015   3.128   3.363  2.5503 -0.5174 -0.0303
  159SAPE   H8Y17754   0.060   3.033   3.221  0.2385 -2.0038  2.6696
  159SAPE   C3917755  -0.149   3.003   3.279  0.1222 -0.7358  0.2497
  159SAPE   H9X17756  -0.129   2.902   3.238 -0.2821 -0.6380 -0.1952
  159SAPE   H9Y17757  -0.233   3.050   3.224  0.1751 -0.5199  0.3514
  159SAPE  C31017758  -0.195   2.986   3.428  0.3047  0.0230 -0.1088
  159SAPE  H10X17759  -0.291   2.933   3.416  0.3329  0.3792 -2.2761
  159SAPE  H10Y17760  -0.202   3.084   3.480  0.8357 -0.2771  0.5563
  159SAPE  C31117761  -0.092   2.892   3.503  0.6758 -0.0860 -0.9013
  159SAPE  H11X17762   0.005   2.941   3.528  0.6298 -2.0299  4.4168
  159SAPE  H11Y17763  -0.079   2.794   3.453 -0.8482 -0.2509 -1.0300
  159SAPE  C31217764  -0.144   2.859   3.644  0.5879  0.2185  0.2171
  159SAPE  H12X17765  -0.235   2.796   3.635  0.8010  0.1884 -2.5891
  159SAPE  H12Y17766  -0.149   2.950   3.707  0.6579  0.8040 -0.5992
  159SAPE  C31317767  -0.042   2.769   3.715  0.5244 -0.6766 -0.0817
  159SAPE  H13X17768   0.051   2.823   3.688  0.3449 -0.6089 -0.5926
  159SAPE  H13Y17769  -0.026   2.666   3.677  3.3919 -0.5286  0.5240
  159SAPE  C31417770  -0.051   2.764   3.870 -0.0604  0.4433  0.6441
  159SAPE  H14X17771  -0.128   2.693   3.908 -0.0789 -0.9824 -1.8382
  159SAPE  H14Y17772  -0.071   2.863   3.917 -1.1608  0.2355  0.6505
  159SAPE  C31517773   0.078   2.704   3.928 -1.5286 -0.7927  0.4031
  159SAPE  H15X17774   0.161   2.693   3.855 -0.7874 -0.6266  1.2092
  159SAPE  H15Y17775   0.059   2.602   3.967 -1.0832 -0.7080  0.8488
  159SAPE  C31617776   0.126   2.784   4.042 -0.4610 -0.2284  0.0476
  159SAPE  H16X17777   0.043   2.778   4.116 -0.9690  0.6351 -0.4347
  159SAPE  H16Y17778   0.145   2.888   4.005  0.5897  0.1361  1.5412
  159SAPE  C31717779   0.244   2.728   4.126 -0.1312  0.4045 -0.0736
  159SAPE  H17X17780   0.332   2.712   4.060  1.3170 -0.1884  1.9107
  159SAPE  H17Y17781   0.216   2.628   4.166  2.2580  0.0530  0.8907
  159SAPE  C31817782   0.290   2.819   4.248 -0.2357  1.2839  0.6183
  159SAPE  H18X17783   0.369   2.778   4.314  0.6305  2.2329  0.1843
  159SAPE  H18Y17784   0.203   2.834   4.315 -0.0574  2.3710  0.6146
  159SAPE  H18Z17785   0.323   2.916   4.207  0.7340  0.2127 -1.2595
  160SAPE     N17786   1.365   0.608   2.509  0.4753 -0.1076 -0.3141
  160SAPE   HN117787   1.312   0.587   2.422 -0.0831 -0.5668  0.1288
  160SAPE   HN217788   1.363   0.712   2.503  0.7024 -0.1396 -0.9608
  160SAPE   HN317789   1.460   0.569   2.495  0.3209 -0.2778 -0.9110
  160SAPE   C1217790   1.293   0.554   2.636  0.0232 -0.0853  0.1615
  160SAPE  H12A17791   1.331   0.615   2.721  0.9720 -0.1298 -0.2187
  160SAPE  H12B17792   1.328   0.450   2.653  0.9056 -0.0429 -1.2196
  160SAPE   C1117793   1.146   0.572   2.624 -0.0022  0.2735 -0.0932
  160SAPE  H11A17794   1.119   0.678   2.603 -2.1260 -0.1306  0.3666
  160SAPE  H11B17795   1.107   0.540   2.723  0.4187 -1.0851 -0.3423
  160SAPE     P17796   0.928   0.511   2.492  0.0822 -0.2023  0.5300
  160SAPE   O1317797   0.898   0.642   2.438 -0.0074 -0.1457 -0.0762
  160SAPE   O1417798   0.886   0.401   2.401 -0.4215  0.5027 -0.0674
  160SAPE   O1217799   1.084   0.485   2.527  0.5628 -0.2241  0.7028
  160SAPE   O1117800   0.870   0.506   2.633  0.4256 -0.0193  0.3264
  160SAPE    C117801   0.858   0.393   2.713 -0.3708  0.1938 -0.1453
  160SAPE    HA17802   0.825   0.304   2.656  0.3983 -0.2012  0.0122
  160SAPE    HB17803   0.956   0.382   2.764 -0.6111 -1.3816  0.0070
  160SAPE    C217804   0.762   0.419   2.832  0.6874  0.3340 -0.2830
  160SAPE    HS17805   0.775   0.518   2.880 -1.2705  1.4147 -1.8551
  160SAPE   O2117806   0.760   0.306   2.919  0.2961 -0.0509  0.2579
  160SAPE   C2117807   0.868   0.303   2.999 -0.0189  0.5029 -0.4605
  160SAPE   O2217808   0.945   0.393   3.029 -0.0719 -0.1492  0.2352
  160SAPE   C2217809   0.874   0.164   3.071 -0.6609  0.6558 -0.3665
  160SAPE   H2R17810   0.864   0.078   3.001  0.2777 -2.8923  3.4774
  160SAPE   H2S17811   0.975   0.148   3.114 -0.8443  1.1035  0.2370
  160SAPE    C317812   0.615   0.440   2.778  0.0543 -0.6354 -0.0446
  160SAPE    HX17813   0.595   0.356   2.708 -0.1285 -1.2460  0.7197
  160SAPE    HY17814   0.609   0.529   2.713 -2.0170 -0.6767  0.0206
  160SAPE   O3117815   0.515   0.451   2.882 -0.3158 -0.2472  0.3465
  160SAPE   C3117816   0.411   0.537   2.855  0.0132 -0.0204 -0.3675
  160SAPE   O3217817   0.377   0.581   2.748  0.0660 -0.1602 -0.1334
  160SAPE   C3217818   0.339   0.560   2.994 -0.2692 -0.2847 -0.2482
  160SAPE   H2X17819   0.305   0.456   3.014 -1.5493  0.2867  0.7711
  160SAPE   H2Y17820   0.246   0.620   2.981 -1.3822 -1.2683  2.3215
  160SAPE   C2317821   0.770   0.134   3.176  0.2449  0.7441 -0.5086
  160SAPE   H3R17822   0.804   0.059   3.251 -1.3575  0.7639  0.2872
  160SAPE   H3S17823   0.679   0.097   3.124  0.1000  1.4685 -0.7849
  160SAPE   C2417824   0.717   0.255   3.254  0.1912  0.9479 -0.1124
  160SAPE   H4R17825   0.640   0.218   3.324 -1.9101 -0.9942 -3.2092
  160SAPE   H4S17826   0.652   0.332   3.207 -1.0234  1.8840  2.8551
  160SAPE   C2517827   0.824   0.321   3.337  0.5775 -0.7266 -0.3552
  160SAPE   H5R17828   0.898   0.374   3.274 -0.6725 -0.0563 -1.3240
  160SAPE   C2617829   0.841   0.315   3.473  0.3211 -0.1611  0.4425
  160SAPE   H6R17830   0.926   0.363   3.523  0.6564 -1.7317  1.4179
  160SAPE   C2717831   0.755   0.257   3.580 -0.6087  0.8072  0.1634
  160SAPE   H7R17832   0.672   0.216   3.519  1.4943 -0.8140 -1.8194
  160SAPE   H7S17833   0.721   0.349   3.632 -0.1409  1.4616 -0.6622
  160SAPE   C2817834   0.810   0.150   3.671  0.0467 -0.5765  0.7219
  160SAPE   H8R17835   0.883   0.078   3.631  1.4153  0.6540  0.9036
  160SAPE   C2917836   0.789   0.146   3.801 -0.5426  0.6003 -0.5783
  160SAPE   H9R17837   0.832   0.062   3.858 -0.8049 -0.0539 -1.3335
  160SAPE  C21017838   0.713   0.248   3.881  0.2000  0.7086  0.5463
  160SAPE  H10R17839   0.621   0.286   3.832  0.2972  0.9795  0.5708
  160SAPE  H10S17840   0.778   0.335   3.901  3.0065 -1.0836 -0.2285
  160SAPE  C21117841   0.673   0.175   4.010  0.1246  1.0982 -0.6468
  160SAPE  H11R17842   0.581   0.117   3.990 -0.6633  2.3807 -0.8390
  160SAPE  C21217843   0.728   0.157   4.128 -0.5147  0.2195 -1.0418
  160SAPE  H12R17844   0.670   0.094   4.198  0.9339 -1.5888 -1.3659
  160SAPE  C21317845   0.858   0.221   4.170 -0.4375 -0.1228 -0.9022
  160SAPE  H13R17846   0.823   0.304   4.235 -0.8886 -0.0238 -1.2638
  160SAPE  H13S17847   0.912   0.259   4.080  0.3747  1.1097  0.0647
  160SAPE  C21417848   0.931   0.118   4.245 -0.0428  0.5423 -0.5897
  160SAPE  H14R17849   0.974   0.040   4.180  2.4346  2.4354 -1.4026
  160SAPE  C21517850   0.950   0.108   4.377  0.0674  0.6258 -0.1437
  160SAPE  H15R17851   1.017   0.035   4.425  1.8093  2.0815 -0.2619
  160SAPE  C21617852   0.895   0.208   4.481 -0.4042 -0.3683 -0.0814
  160SAPE  H16R17853   0.843   0.156   4.564 -3.2653  1.0046 -0.9039
  160SAPE  H16S17854   0.811   0.264   4.435 -0.4870 -0.8949 -0.5874
  160SAPE  C21717855   0.998   0.314   4.527 -0.5506  0.0833 -0.1981
  160SAPE  H17R17856   1.047   0.364   4.441 -0.2011 -0.4215 -0.2985
  160SAPE  H17S17857   1.080   0.261   4.581 -0.6298 -0.1259 -0.2806
  160SAPE  C21817858   0.933   0.418   4.621 -0.4086  0.0737 -0.6630
  160SAPE  H18R17859   0.865   0.360   4.687 -1.5663  0.9351 -1.0804
  160SAPE  H18S17860   0.870   0.489   4.565 -0.2171 -0.1577 -1.1780
  160SAPE  C21917861   1.037   0.504   4.700 -0.5156  0.4884 -0.3283
  160SAPE  H19R17862   0.980   0.580   4.756  0.8719  0.3713  1.3138
  160SAPE  H19S17863   1.104   0.554   4.626 -1.3118 -0.3244 -1.6542
  160SAPE  C22017864   1.130   0.414   4.790  0.3406  0.5694  0.2967
  160SAPE  H20R17865   1.193   0.360   4.717  0.6023  0.9043  0.2688
  160SAPE  H20S17866   1.064   0.341   4.841  0.0265 -0.4027 -1.4382
  160SAPE  H20T17867   1.197   0.475   4.855  0.0527  0.5057  0.6560
  160SAPE   C3317868   0.431   0.611   3.110 -0.2273  0.8260  0.4894
  160SAPE   H3X17869   0.488   0.698   3.072 -1.0467  0.8406 -0.7508
  160SAPE   H3Y17870   0.506   0.533   3.137 -1.3644 -0.0590  1.2142
  160SAPE   C3417871   0.356   0.671   3.235 -0.0388 -0.2808  0.1214
  160SAPE   H4X17872   0.290   0.583   3.247 -0.4826 -0.0298 -0.4349
  160SAPE   H4Y17873   0.298   0.763   3.210  2.6359  1.8073  1.1832
  160SAPE   C3517874   0.454   0.694   3.343 -0.6438 -0.4181  0.8641
  160SAPE   H5X17875   0.488   0.800   3.342 -0.9954 -0.2721 -1.6523
  160SAPE   H5Y17876   0.545   0.636   3.318 -1.3751 -0.5610 -1.6638
  160SAPE   C3617877   0.407   0.643   3.478  0.6598  0.1993 -0.5867
  160SAPE   H6X17878   0.375   0.536   3.474  1.6032 -0.3635  2.9984
  160SAPE   H6Y17879   0.329   0.709   3.520 -0.5362 -1.3526 -0.2450
  160SAPE   C3717880   0.521   0.626   3.587  1.1309 -0.2672  0.1987
  160SAPE   H7X17881   0.596   0.706   3.566  0.2017  1.0055  1.5649
  160SAPE   H7Y17882   0.570   0.529   3.563 -0.0593 -0.2586 -2.5851
  160SAPE   C3817883   0.479   0.632   3.738  0.1343  0.2516  0.1567
  160SAPE   H8X17884   0.431   0.536   3.764 -1.7401  1.3033  0.7318
  160SAPE   H8Y17885   0.409   0.717   3.754 -1.1151 -0.6054 -0.6417
  160SAPE   C3917886   0.603   0.645   3.828 -0.4604  0.6314 -0.6392
  160SAPE   H9X17887   0.644   0.748   3.822  1.0285  0.1910  1.1170
  160SAPE   H9Y17888   0.681   0.573   3.795 -2.4181 -0.7212 -2.5054
  160SAPE  C31017889   0.564   0.617   3.975 -0.1643  1.3066  0.1970
  160SAPE  H10X17890   0.522   0.516   3.993  0.0680  1.0298 -0.7448
  160SAPE  H10Y17891   0.483   0.687   4.004 -0.3037  1.0380  0.4630
  160SAPE  C31117892   0.685   0.627   4.069  0.0408  0.3142 -0.2088
  160SAPE  H11X17893   0.729   0.727   4.050 -1.1793  0.8461 -0.3733
  160SAPE  H11Y17894   0.752   0.540   4.057 -1.3075 -0.8772  0.4887
  160SAPE  C31217895   0.646   0.623   4.220  0.2317  0.5313 -0.4729
  160SAPE  H12X17896   0.595   0.526   4.236  1.6148  0.2314  3.2546
  160SAPE  H12Y17897   0.576   0.706   4.244  0.5754  0.6912  0.0110
  160SAPE  C31317898   0.760   0.637   4.320  0.8616  1.1995 -0.2528
  160SAPE  H13X17899   0.819   0.542   4.319 -0.6960  0.2017 -1.8937
  160SAPE  H13Y17900   0.720   0.642   4.424 -1.2395  0.3341 -0.9774
  160SAPE  C31417901   0.842   0.767   4.310  0.2678  0.4688 -0.6280
  160SAPE  H14X17902   0.774   0.851   4.335 -2.3950 -1.6381 -0.3389
  160SAPE  H14Y17903   0.882   0.769   4.207  0.9378  0.4413 -0.3755
  160SAPE  C31517904   0.950   0.755   4.419 -0.2519 -0.4064 -0.0184
  160SAPE  H15X17905   1.025   0.833   4.394 -0.2339 -0.6478 -0.7405
  160SAPE  H15Y17906   0.999   0.656   4.414 -0.0485 -0.3394  0.5725
  160SAPE  C31617907   0.888   0.787   4.557  0.7426 -0.0342  0.1953
  160SAPE  H16X17908   0.840   0.694   4.593 -0.1187  0.1665 -0.3972
  160SAPE  H16Y17909   0.805   0.861   4.545 -0.8319 -1.6782  0.4376
  160SAPE  C31717910   0.982   0.847   4.658  0.0511  0.1694  0.2381
  160SAPE  H17X17911   1.037   0.937   4.624  2.2198 -1.7380 -1.7042
  160SAPE  H17Y17912   1.062   0.773   4.683 -0.1232 -0.0044  0.2795
  160SAPE  C31817913   0.912   0.889   4.780 -0.3748 -0.0986 -0.2874
  160SAPE  H18X17914   0.856   0.812   4.837 -1.2692  0.8944  0.2075
  160SAPE  H18Y17915   0.843   0.975   4.765  0.5412  0.9001  1.0385
  160SAPE  H18Z17916   0.988   0.922   4.854  0.7757 -0.1769 -1.4004
  161SAPE     N17917   5.506   4.791   2.300 -0.2923 -0.2037  0.1449
  161SAPE   HN117918   5.494   4.688   2.297  0.7213 -0.4097  1.8404
  161SAPE   HN217919   5.609   4.808   2.301 -0.0703 -0.1983 -3.9658
  161SAPE   HN317920   5.452   4.834   2.378 -2.8932 -1.0085 -1.1174
  161SAPE   C1217921   5.455   4.849   2.176 -0.0127  0.1354 -0.4743
  161SAPE  H12A17922   5.345   4.842   2.181  0.1328 -1.6515  1.3532
  161SAPE  H12B17923   5.473   4.774   2.096 -2.1761 -0.0943 -0.7856
  161SAPE   C1117924   5.496   4.997   2.160  0.5796  0.1943 -0.1149
  161SAPE  H11A17925   5.412   5.036   2.097 -0.8161 -2.0874  0.2327
  161SAPE  H11B17926   5.580   4.994   2.087  0.0280  1.6101 -0.8651
  161SAPE     P17927   5.517   5.216   2.291  0.4648 -0.0863 -0.5555
  161SAPE   O1317928   5.594   5.277   2.182 -0.7069  0.3342  0.1539
  161SAPE   O1417929   5.379   5.265   2.321 -0.0354  0.3927 -0.2416
  161SAPE   O1217930   5.519   5.066   2.285 -0.6159  0.1545 -0.1429
  161SAPE   O1117931   5.599   5.245   2.429  0.0121 -0.2434 -0.1208
  161SAPE    C117932   5.728   5.185   2.435  0.3495 -0.0933 -0.0942
  161SAPE    HA17933   5.712   5.076   2.420 -2.9730  0.2173  0.3953
  161SAPE    HB17934   5.796   5.222   2.356  1.4313 -0.1773  0.7732
  161SAPE    C217935   5.778   5.205   2.577  0.7231 -0.0625 -0.5008
  161SAPE    HS17936   5.880   5.162   2.587  0.1548 -1.3872 -0.1647
  161SAPE   O2117937   5.684   5.134   2.655  0.3605 -0.3481  0.2857
  161SAPE   C2117938   5.693   5.002   2.665 -0.0144 -0.0072  0.2047
  161SAPE   O2217939   5.777   4.932   2.607  0.1078 -0.0300  0.0238
  161SAPE   C2217940   5.595   4.954   2.771 -0.0119  0.5675 -0.0349
  161SAPE   H2R17941   5.523   5.027   2.814  2.3653  3.3226 -0.4420
  161SAPE   H2S17942   5.527   4.881   2.722 -0.9679 -0.6010  2.7702
  161SAPE    C317943   5.800   5.358   2.612  0.1223  0.0162 -0.3310
  161SAPE    HX17944   5.712   5.419   2.583  0.1213  0.3979  0.4312
  161SAPE    HY17945   5.885   5.388   2.546 -0.8151 -1.0051 -2.0731
  161SAPE   O3117946   5.842   5.392   2.747  0.2690 -0.2120  0.3460
  161SAPE   C3117947   5.746   5.384   2.840 -0.9891 -0.9120 -0.1125
  161SAPE   O3217948   5.633   5.340   2.830 -0.7290  0.4214 -0.2140
  161SAPE   C3217949   5.806   5.448   2.969  0.3352  0.4714  0.4228
  161SAPE   H2X17950   5.811   5.555   2.940 -3.0012  0.2850 -1.2707
  161SAPE   H2Y17951   5.892   5.386   3.002  0.0771  0.6774  1.5100
  161SAPE   C2317952   5.659   4.893   2.890 -0.6377  0.0075 -0.1039
  161SAPE   H3R17953   5.708   4.797   2.864  0.8949  1.3472 -2.5064
  161SAPE   H3S17954   5.568   4.873   2.951 -1.6220 -2.1148 -2.1391
  161SAPE   C2417955   5.744   4.992   2.967  0.1218 -0.0042 -0.5069
  161SAPE   H4R17956   5.752   4.948   3.069  0.9499 -0.7948 -0.8974
  161SAPE   H4S17957   5.695   5.091   2.974 -0.6127 -0.1207 -3.2027
  161SAPE   C2517958   5.889   4.999   2.911  0.5985  0.2069  0.1124
  161SAPE   H5R17959   5.897   5.020   2.803  1.0125  1.5124  0.3877
  161SAPE   C2617960   6.005   4.996   2.984  0.7564 -0.1946  0.2978
  161SAPE   H6R17961   6.096   4.992   2.922 -0.6747  2.2785 -2.2348
  161SAPE   C2717962   6.008   4.984   3.139 -0.8280 -0.2947 -0.5462
  161SAPE   H7R17963   6.114   4.974   3.168 -0.9073  0.1843 -0.0755
  161SAPE   H7S17964   5.961   4.889   3.172  0.5292 -0.4401  1.0523
  161SAPE   C2817965   5.956   5.106   3.216  0.6382  0.4941  0.6645
  161SAPE   H8R17966   5.881   5.163   3.159  0.7870  0.7949  0.7668
  161SAPE   C2917967   5.995   5.142   3.341  0.7151 -0.2111  0.5241
  161SAPE   H9R17968   5.952   5.231   3.390  1.0861  0.6650 -0.6842
  161SAPE  C21017969   6.082   5.050   3.423 -0.3695  0.4276  0.3139
  161SAPE  H10R17970   6.167   5.020   3.358  0.7008  0.7746  1.5248
  161SAPE  H10S17971   6.037   4.950   3.435  1.4305 -0.4448  0.1179
  161SAPE  C21117972   6.112   5.118   3.556  0.1436 -1.0223 -0.5175
  161SAPE  H11R17973   6.182   5.202   3.542 -0.6637 -0.4927 -1.5202
  161SAPE  C21217974   6.059   5.094   3.678  0.1133 -0.2577 -0.0881
  161SAPE  H12R17975   6.090   5.165   3.756  1.0078 -1.1406  0.3841
  161SAPE  C21317976   5.952   4.992   3.707 -0.4223  0.2936  0.7436
  161SAPE  H13R17977   5.980   4.941   3.802  1.4235 -1.7331 -0.7964
  161SAPE  H13S17978   5.964   4.896   3.652  0.0865 -1.2808  3.3927
  161SAPE  C21417979   5.816   5.053   3.696  1.0961 -0.6071 -0.6850
  161SAPE  H14R17980   5.788   5.103   3.603 -0.2183 -0.1618 -0.0729
  161SAPE  C21517981   5.730   5.065   3.801 -0.2982  0.3277 -0.3620
  161SAPE  H15R17982   5.633   5.108   3.772 -1.9978 -1.9326  1.5239
  161SAPE  C21617983   5.756   5.016   3.943 -0.4258  0.1463 -0.3232
  161SAPE  H16R17984   5.865   5.025   3.963 -0.5644  1.6981 -0.1638
  161SAPE  H16S17985   5.722   4.910   3.949 -3.3820  0.9953 -0.4213
  161SAPE  C21717986   5.680   5.104   4.045  0.0289  0.7221  0.2381
  161SAPE  H17R17987   5.583   5.127   3.997 -1.2812  1.2174  2.9905
  161SAPE  H17S17988   5.736   5.194   4.077 -0.5696 -0.4318  5.2141
  161SAPE  C21817989   5.648   5.013   4.172  0.3383 -0.1235 -0.3944
  161SAPE  H18R17990   5.581   4.924   4.164 -0.0987  0.2189 -0.5819
  161SAPE  H18S17991   5.575   5.077   4.226  1.3538 -0.3268  1.2805
  161SAPE  C21917992   5.769   4.992   4.268 -0.1242  0.1949 -0.0652
  161SAPE  H19R17993   5.819   5.092   4.271 -1.6200  1.2556 -4.1046
  161SAPE  H19S17994   5.839   4.922   4.220  1.1541  1.6644 -0.4260
  161SAPE  C22017995   5.729   4.933   4.408 -0.1066 -0.1222 -0.1837
  161SAPE  H20R17996   5.638   4.987   4.440 -1.0721 -0.7376 -1.7588
  161SAPE  H20S17997   5.807   4.941   4.486 -0.7790 -0.8178  0.5778
  161SAPE  H20T17998   5.714   4.823   4.401  1.6138 -0.5280  1.5093
  161SAPE   C3317999   5.702   5.437   3.089 -0.3432 -0.2849 -0.5367
  161SAPE   H3X18000   5.677   5.329   3.080  0.1455 -0.5019  0.5828
  161SAPE   H3Y18001   5.603   5.489   3.087 -0.9061 -0.8125  3.6295
  161SAPE   C3418002   5.761   5.451   3.225 -0.1150 -0.0149 -0.1066
  161SAPE   H4X18003   5.787   5.557   3.243  0.6980 -0.6362  2.9439
  161SAPE   H4Y18004   5.851   5.385   3.227 -0.5672 -0.6507  1.8217
  161SAPE   C3518005   5.670   5.409   3.349  0.0255  0.0647  0.5609
  161SAPE   H5X18006   5.647   5.301   3.338 -0.9381  0.1112  1.9405
  161SAPE   H5Y18007   5.577   5.470   3.345 -0.1571  0.0523  2.9641
  161SAPE   C3618008   5.739   5.438   3.479 -0.3742  0.2017  0.4349
  161SAPE   H6X18009   5.770   5.545   3.480 -2.4531  0.8545  1.1293
  161SAPE   H6Y18010   5.835   5.384   3.489 -1.3803 -1.8014 -0.0884
  161SAPE   C3718011   5.638   5.416   3.591 -0.1214  0.1767 -0.8538
  161SAPE   H7X18012   5.614   5.308   3.603 -0.2719  0.4999  2.8813
  161SAPE   H7Y18013   5.543   5.467   3.566 -0.8163 -0.7585 -0.1746
  161SAPE   C3818014   5.682   5.462   3.733 -0.0370  0.2897  0.6889
  161SAPE   H8X18015   5.700   5.570   3.716 -1.9656  0.8119  1.6942
  161SAPE   H8Y18016   5.769   5.402   3.768 -0.4037 -0.9984 -0.4937
  161SAPE   C3918017   5.566   5.457   3.839 -0.3380 -0.2964 -1.0408
  161SAPE   H9X18018   5.521   5.357   3.827 -1.4462  0.3135 -2.3037
  161SAPE   H9Y18019   5.490   5.536   3.823  0.1141  0.0873 -1.3399
  161SAPE  C31018020   5.618   5.470   3.978 -0.0963  0.2273 -0.6568
  161SAPE  H10X18021   5.657   5.572   3.995 -2.3219  1.2566 -1.3696
  161SAPE  H10Y18022   5.701   5.397   3.990  2.2822  2.6005 -1.6626
  161SAPE  C31118023   5.509   5.446   4.087 -0.5846 -0.3081  0.0251
  161SAPE  H11X18024   5.461   5.349   4.060  0.9969 -0.9477 -0.6399
  161SAPE  H11Y18025   5.435   5.529   4.085  0.8012  1.0135  0.9976
  161SAPE  C31218026   5.580   5.435   4.225 -0.0361  0.3978  0.2441
  161SAPE  H12X18027   5.619   5.531   4.267  0.1753  0.6592 -0.5414
  161SAPE  H12Y18028   5.674   5.379   4.210 -0.0054  0.3617  0.5667
  161SAPE  C31318029   5.480   5.368   4.330 -0.3716 -1.2488 -0.5294
  161SAPE  H13X18030   5.440   5.267   4.307 -0.9698 -1.2606  0.5557
  161SAPE  H13Y18031   5.392   5.434   4.342 -0.2784 -1.2135 -0.0319
  161SAPE  C31418032   5.543   5.372   4.474  0.2412  0.5266  0.7401
  161SAPE  H14X18033   5.562   5.478   4.502 -1.6405  0.8671  0.8195
  161SAPE  H14Y18034   5.640   5.319   4.457  0.7065  1.5966 -0.0492
  161SAPE  C31518035   5.452   5.291   4.564 -0.1881  0.1662  0.3646
  161SAPE  H15X18036   5.446   5.182   4.540  4.2890 -0.2325  0.2752
  161SAPE  H15Y18037   5.352   5.338   4.552 -1.1689 -1.5604  1.3157
  161SAPE  C31618038   5.491   5.311   4.710 -0.4086  0.2023  0.6843
  161SAPE  H16X18039   5.509   5.417   4.734 -1.5319  1.0494 -1.8509
  161SAPE  H16Y18040   5.581   5.252   4.738 -1.0762 -0.6837  1.0413
  161SAPE  C31718041   5.383   5.263   4.806  0.2264 -0.4717  0.0246
  161SAPE  H17X18042   5.379   5.152   4.805  1.1950 -0.5177 -1.4436
  161SAPE  H17Y18043   5.284   5.306   4.782 -0.1362 -1.1983  0.1998
  161SAPE  C31818044   5.425   5.310   4.949 -0.4308  0.1548 -0.3056
  161SAPE  H18X18045   5.371   5.258   5.031  0.0511 -0.2824 -0.2640
  161SAPE  H18Y18046   5.414   5.421   4.957  0.5382  0.2190  0.2804
  161SAPE  H18Z18047   5.530   5.288   4.976 -0.4835  1.6446  1.2816
  162SAPE     N18048   5.452   1.392   2.180  0.0556 -0.1401 -0.0986
  162SAPE   HN118049   5.554   1.390   2.202  0.1495  0.1225 -0.4961
  162SAPE   HN218050   5.424   1.293   2.167  1.0145 -0.4500  0.1193
  162SAPE   HN318051   5.430   1.442   2.091 -0.1993 -2.2771 -1.3065
  162SAPE   C1218052   5.374   1.435   2.305  0.3443  0.1840 -0.1180
  162SAPE  H12A18053   5.295   1.503   2.268 -0.8698 -1.1218 -0.0049
  162SAPE  H12B18054   5.447   1.492   2.366 -0.7711  0.3497  1.0960
  162SAPE   C1118055   5.334   1.311   2.382 -0.2287  0.1640  0.1229
  162SAPE  H11A18056   5.261   1.347   2.457 -1.0974 -3.3296  1.1430
  162SAPE  H11B18057   5.424   1.277   2.439  2.1570  1.6542 -2.5113
  162SAPE     P18058   5.142   1.175   2.285 -0.1966 -0.4059  0.2186
  162SAPE   O1318059   5.081   1.298   2.223 -0.9396 -0.1100  0.2267
  162SAPE   O1418060   5.113   1.048   2.217 -0.2439  0.8231  0.1188
  162SAPE   O1218061   5.295   1.206   2.293  0.4090 -0.3451  0.0819
  162SAPE   O1118062   5.099   1.166   2.438 -0.3128  0.6391 -0.3529
  162SAPE    C118063   5.095   1.034   2.504 -0.1978 -0.5618 -0.3522
  162SAPE    HA18064   4.989   1.001   2.508 -0.4175  0.2360  2.8402
  162SAPE    HB18065   5.157   0.963   2.445  1.3976  0.0461  0.5114
  162SAPE    C218066   5.156   1.039   2.648  0.0427  0.2773 -0.2999
  162SAPE    HS18067   5.147   0.943   2.702 -0.2326 -0.2140 -1.1956
  162SAPE   O2118068   5.102   1.156   2.713  0.5102  0.6145  0.4386
  162SAPE   C2118069   4.985   1.150   2.765 -0.6392  0.5214  0.1739
  162SAPE   O2218070   4.909   1.055   2.766 -0.2957 -0.2591  0.1115
  162SAPE   C2218071   4.947   1.283   2.840  0.1870 -0.7634  0.6162
  162SAPE   H2R18072   5.040   1.343   2.841 -0.4669  0.2655  0.6272
  162SAPE   H2S18073   4.867   1.323   2.775  3.1203 -0.4484 -3.1567
  162SAPE    C318074   5.309   1.070   2.664 -0.2558  0.5544 -0.3813
  162SAPE    HX18075   5.325   1.180   2.653  0.9402  0.6541  1.9589
  162SAPE    HY18076   5.371   1.018   2.587  0.3533 -2.9048  2.2112
  162SAPE   O3118077   5.354   1.031   2.799  0.0595 -0.4733  0.4137
  162SAPE   C3118078   5.487   1.063   2.820  0.3764  0.3362  0.4393
  162SAPE   O3218079   5.553   1.130   2.749  0.0137  0.4122 -0.7579
  162SAPE   C3218080   5.536   1.002   2.955  0.5796 -0.5135 -0.8902
  162SAPE   H2X18081   5.566   0.896   2.937 -0.0586 -1.1695  1.5254
  162SAPE   H2Y18082   5.447   1.013   3.021 -1.0388  0.5992 -3.1197
  162SAPE   C2318083   4.908   1.272   2.986  0.4762  0.0142  0.4918
  162SAPE   H3R18084   4.834   1.190   2.996 -2.0386  1.7287 -2.0795
  162SAPE   H3S18085   4.841   1.359   3.004  0.9127  0.4437  0.0704
  162SAPE   C2418086   5.023   1.267   3.084  0.6397 -0.6343 -0.1060
  162SAPE   H4R18087   4.972   1.273   3.182 -1.3780  1.6828 -1.2072
  162SAPE   H4S18088   5.088   1.356   3.074 -1.1228  0.4879 -2.7650
  162SAPE   C2518089   5.099   1.138   3.088  0.2037  0.9868  0.3361
  162SAPE   H5R18090   5.072   1.070   3.007  0.1547 -0.5389  1.5786
  162SAPE   C2618091   5.179   1.096   3.184  0.1758  0.5322  0.8346
  162SAPE   H6R18092   5.222   0.995   3.176 -0.1767  0.3747  0.8991
  162SAPE   C2718093   5.215   1.175   3.304 -1.2775 -0.4621  0.0735
  162SAPE   H7R18094   5.127   1.236   3.334 -0.4825 -0.1888  1.9897
  162SAPE   H7S18095   5.280   1.262   3.284 -0.1582 -1.3668 -0.2941
  162SAPE   C2818096   5.261   1.092   3.426 -0.1854 -0.2036  0.7833
  162SAPE   H8R18097   5.321   1.004   3.397  1.2307  0.9018  0.2247
  162SAPE   C2918098   5.247   1.140   3.553 -0.8232  0.3935  0.6031
  162SAPE   H9R18099   5.292   1.070   3.624  2.0539  1.0938 -0.4077
  162SAPE  C21018100   5.179   1.260   3.609  0.4307  0.4648  0.6376
  162SAPE  H10R18101   5.171   1.344   3.537  1.6745  1.3450  1.4864
  162SAPE  H10S18102   5.247   1.304   3.685  3.0725  1.3916 -2.0888
  162SAPE  C21118103   5.043   1.232   3.665  0.3511 -0.7217 -0.2258
  162SAPE  H11R18104   4.974   1.214   3.581 -0.3691  1.0063 -0.0362
  162SAPE  C21218105   4.998   1.221   3.787  0.1593 -0.1517  0.0686
  162SAPE  H12R18106   4.889   1.214   3.798  0.1184 -0.1359 -0.3165
  162SAPE  C21318107   5.061   1.259   3.923  0.1839  0.1865  0.8159
  162SAPE  H13R18108   4.994   1.325   3.981 -2.6059 -0.5116 -1.4193
  162SAPE  H13S18109   5.153   1.319   3.907 -0.3764  0.8709  0.1131
  162SAPE  C21418110   5.094   1.135   4.012 -0.4434 -0.5085 -1.1206
  162SAPE  H14R18111   5.197   1.101   3.993  0.3002  0.4552  0.9265
  162SAPE  C21518112   5.003   1.065   4.083 -0.7399  0.6931 -0.2522
  162SAPE  H15R18113   5.041   0.994   4.158  0.4249  0.8995 -0.6156
  162SAPE  C21618114   4.862   1.114   4.113  0.9769  0.3002  0.2354
  162SAPE  H16R18115   4.796   1.035   4.153 -1.0256  1.3810 -0.7746
  162SAPE  H16S18116   4.812   1.153   4.021 -0.5463  2.5303  1.8872
  162SAPE  C21718117   4.860   1.223   4.225 -0.1895  0.4332  0.4029
  162SAPE  H17R18118   4.755   1.255   4.239 -1.4291 -2.6211 -1.2511
  162SAPE  H17S18119   4.909   1.320   4.197 -0.1451  1.2480  3.0415
  162SAPE  C21818120   4.923   1.175   4.363  0.0290  0.5953  0.0824
  162SAPE  H18R18121   5.032   1.171   4.340 -0.5697  0.9566 -3.3911
  162SAPE  H18S18122   4.887   1.075   4.395 -2.9636  1.4692 -0.2351
  162SAPE  C21918123   4.899   1.277   4.479 -0.4321 -0.7093 -0.1136
  162SAPE  H19R18124   4.954   1.241   4.569 -0.3344 -1.4350 -0.4543
  162SAPE  H19S18125   4.790   1.270   4.502 -1.0296 -0.8207 -2.7024
  162SAPE  C22018126   4.957   1.416   4.445 -0.1556  0.2550  0.3896
  162SAPE  H20R18127   5.066   1.402   4.427  0.1914  1.6342  1.2407
  162SAPE  H20S18128   4.938   1.493   4.523 -0.7133  1.6574 -1.0790
  162SAPE  H20T18129   4.905   1.471   4.363 -1.1834  0.7376  1.3338
  162SAPE   C3318130   5.652   1.072   3.023 -1.2554  0.3979  0.4062
  162SAPE   H3X18131   5.679   1.170   2.977 -0.9086 -0.5796 -1.5651
  162SAPE   H3Y18132   5.741   1.011   2.995 -0.6883  0.3548  2.1776
  162SAPE   C3418133   5.653   1.079   3.180 -0.0824 -0.2238  0.1626
  162SAPE   H4X18134   5.638   0.981   3.231 -0.8333  0.6468  1.6465
  162SAPE   H4Y18135   5.569   1.146   3.208  0.7814  0.3020  1.5744
  162SAPE   C3518136   5.776   1.147   3.246 -0.1680  0.2396  0.9731
  162SAPE   H5X18137   5.793   1.244   3.194  3.8456  0.2182  1.9373
  162SAPE   H5Y18138   5.862   1.080   3.226 -0.6352 -0.6708  1.9402
  162SAPE   C3618139   5.766   1.188   3.396 -0.3261 -0.5819 -0.8838
  162SAPE   H6X18140   5.682   1.261   3.401 -0.7143 -1.0576 -0.3479
  162SAPE   H6Y18141   5.847   1.257   3.427  0.3195 -1.6938 -0.0232
  162SAPE   C3718142   5.738   1.071   3.493 -0.5347 -0.4885  0.2556
  162SAPE   H7X18143   5.822   0.997   3.501 -1.5819 -2.1805 -2.7703
  162SAPE   H7Y18144   5.655   1.019   3.439  0.5823 -0.1250 -1.9435
  162SAPE   C3818145   5.703   1.107   3.641  0.3019 -0.8539 -0.4992
  162SAPE   H8X18146   5.634   1.193   3.629  0.5783 -0.7258 -1.2370
  162SAPE   H8Y18147   5.800   1.147   3.679  0.9601  0.6247 -3.4099
  162SAPE   C3918148   5.647   0.994   3.730  0.0135 -0.4139 -0.0045
  162SAPE   H9X18149   5.719   0.910   3.734 -1.0380 -1.3016  0.9280
  162SAPE   H9Y18150   5.555   0.950   3.685 -0.2846 -1.3043  1.4173
  162SAPE  C31018151   5.630   1.050   3.871  0.1603  0.4567 -0.0072
  162SAPE  H10X18152   5.724   1.102   3.903 -0.6581  2.1447 -0.2261
  162SAPE  H10Y18153   5.612   0.966   3.941  1.2079  1.0567  1.0379
  162SAPE  C31118154   5.520   1.156   3.890 -0.5517  0.0883 -0.3531
  162SAPE  H11X18155   5.505   1.158   4.000 -1.2448  1.7769 -0.4532
  162SAPE  H11Y18156   5.426   1.115   3.847  0.4610 -0.8457 -1.7729
  162SAPE  C31218157   5.526   1.302   3.838 -0.0775 -0.4915  0.7471
  162SAPE  H12X18158   5.485   1.294   3.735 -1.4110  1.7271  1.0371
  162SAPE  H12Y18159   5.632   1.338   3.834 -0.2041 -0.1883 -2.5557
  162SAPE  C31318160   5.443   1.394   3.922  0.0527 -0.4808  0.1123
  162SAPE  H13X18161   5.350   1.348   3.959 -1.0019  1.4505 -0.0035
  162SAPE  H13Y18162   5.420   1.484   3.860 -0.7639  0.7574  2.1059
  162SAPE  C31418163   5.525   1.465   4.039  0.1660  0.3857  0.8356
  162SAPE  H14X18164   5.627   1.501   4.017  0.8640 -2.6157 -1.5246
  162SAPE  H14Y18165   5.541   1.378   4.107 -2.6980 -1.2890 -0.4199
  162SAPE  C31518166   5.437   1.560   4.120 -0.0654 -0.5503  0.3164
  162SAPE  H15X18167   5.453   1.546   4.229 -2.7811  0.2228  0.8917
  162SAPE  H15Y18168   5.327   1.544   4.109  0.2345 -2.9874  0.4769
  162SAPE  C31618169   5.473   1.708   4.084 -0.0233 -0.4192  0.1229
  162SAPE  H16X18170   5.471   1.725   3.974  1.6827  0.3739  0.1793
  162SAPE  H16Y18171   5.583   1.710   4.098 -0.1463  1.1954  1.1197
  162SAPE  C31718172   5.395   1.818   4.164  0.0401  0.2212  0.2089
  162SAPE  H17X18173   5.367   1.784   4.266 -0.3216  2.3262  0.8584
  162SAPE  H17Y18174   5.303   1.834   4.104  0.3981 -0.8536 -0.6621
  162SAPE  C31818175   5.468   1.954   4.171  0.5964  0.3046 -0.2687
  162SAPE  H18X18176   5.574   1.941   4.201  1.0184  1.8714 -0.9638
  162SAPE  H18Y18177   5.424   2.018   4.251 -0.3747  0.9782 -1.3087
  162SAPE  H18Z18178   5.467   2.012   4.076  1.3582  2.8081  1.1370
  163SAPE     N18179   5.355   5.368   2.576 -0.0491 -0.8387  0.5584
  163SAPE   HN118180   5.269   5.413   2.613  1.5634  2.2419  0.9171
  163SAPE   HN218181   5.430   5.439   2.574 -1.5973  0.8809  0.8907
  163SAPE   HN318182   5.343   5.334   2.478 -1.5700 -1.1879  0.8365
  163SAPE   C1218183   5.380   5.256   2.667 -0.1689  0.1740  0.3154
  163SAPE  H12A18184   5.375   5.295   2.770  0.5873 -1.9201  1.1963
  163SAPE  H12B18185   5.477   5.205   2.650  0.5774  1.3042  1.1066
  163SAPE   C1118186   5.260   5.152   2.641  1.3112  0.3431  0.3428
  163SAPE  H11A18187   5.279   5.062   2.704  0.0411 -0.8931 -0.9473
  163SAPE  H11B18188   5.262   5.109   2.539 -1.0392 -0.8408  0.7287
  163SAPE     P18189   4.998   5.154   2.613 -0.3654  0.4568 -0.5440
  163SAPE   O1318190   4.886   5.236   2.669 -0.0207 -0.3512  0.3966
  163SAPE   O1418191   5.014   5.165   2.462 -0.2251  0.7827  0.3298
  163SAPE   O1218192   5.129   5.200   2.680 -0.1869  0.1075  0.1977
  163SAPE   O1118193   4.986   5.008   2.661 -0.0442  0.1117  0.2842
  163SAPE    C118194   5.012   4.955   2.794 -0.4916  0.1923  0.4060
  163SAPE    HA18195   5.011   4.844   2.790 -2.1977  0.2099 -1.5917
  163SAPE    HB18196   5.115   4.981   2.827 -0.2212 -1.7221  1.1927
  163SAPE    C218197   4.905   4.991   2.892 -0.4237  0.6426  0.2393
  163SAPE    HS18198   4.907   5.101   2.911 -2.1099  0.3231  2.7215
  163SAPE   O2118199   4.940   4.922   3.018 -0.5459 -0.1285 -0.2200
  163SAPE   C2118200   4.885   4.982   3.129 -0.1416 -0.1828  0.5819
  163SAPE   O2218201   4.835   5.091   3.133 -0.1650 -0.7518  0.3755
  163SAPE   C2218202   4.897   4.901   3.256  0.4122 -0.2154 -0.7671
  163SAPE   H2R18203   4.867   4.967   3.340  0.5014  0.2907 -1.1303
  163SAPE   H2S18204   4.836   4.809   3.249 -0.2917  0.0895  0.8955
  163SAPE    C318205   4.758   4.962   2.848 -0.0504  0.5236 -0.4300
  163SAPE    HX18206   4.744   5.019   2.754  0.4866  0.6474 -0.4377
  163SAPE    HY18207   4.688   5.014   2.918  0.1027  0.8163 -0.4892
  163SAPE   O3118208   4.719   4.822   2.833  0.2015  0.0346  0.2129
  163SAPE   C3118209   4.652   4.768   2.935  0.2048  0.3234  0.0013
  163SAPE   O3218210   4.602   4.827   3.025  0.0160 -0.3802  0.6377
  163SAPE   C3218211   4.649   4.620   2.908  0.9616  1.2015  0.1317
  163SAPE   H2X18212   4.646   4.602   2.799 -0.6946  0.8515  0.2158
  163SAPE   H2Y18213   4.547   4.582   2.931 -0.8250  1.4443 -5.7050
  163SAPE   C2318214   5.039   4.872   3.292 -0.0142  0.0570  0.1554
  163SAPE   H3R18215   5.100   4.962   3.270 -1.8122  0.5991 -3.3039
  163SAPE   H3S18216   5.074   4.798   3.217  2.4202  1.5003 -0.2214
  163SAPE   C2418217   5.057   4.802   3.427  0.0612 -0.0235 -0.3118
  163SAPE   H4R18218   5.013   4.860   3.510  1.9116 -2.3324  2.4477
  163SAPE   H4S18219   5.167   4.808   3.443 -0.0649 -0.7825  0.9039
  163SAPE   C2518220   5.009   4.654   3.444 -0.8574  0.2820 -0.2062
  163SAPE   H5R18221   5.062   4.581   3.380 -2.2462 -2.3338  1.4323
  163SAPE   C2618222   4.930   4.608   3.539  0.4700  1.2780  0.5548
  163SAPE   H6R18223   4.911   4.499   3.540  0.1506  1.3317  0.7409
  163SAPE   C2718224   4.863   4.696   3.642  0.7330  0.6194 -1.3005
  163SAPE   H7R18225   4.899   4.801   3.647  0.2128  0.7705 -0.2844
  163SAPE   H7S18226   4.896   4.654   3.740  4.3604  2.7175 -1.4506
  163SAPE   C2818227   4.713   4.705   3.629  1.2554 -0.6267 -0.4738
  163SAPE   H8R18228   4.673   4.741   3.533  1.2236  0.9802  0.1110
  163SAPE   C2918229   4.619   4.675   3.728 -0.3572 -0.4565  0.5609
  163SAPE   H9R18230   4.511   4.688   3.710 -0.6045 -1.1713  1.4428
  163SAPE  C21018231   4.649   4.618   3.867  0.3634 -0.3373  0.1122
  163SAPE  H10R18232   4.598   4.689   3.935 -0.4065  0.8358 -1.6256
  163SAPE  H10S18233   4.758   4.620   3.886  0.1745 -0.1895  1.2203
  163SAPE  C21118234   4.587   4.480   3.880  0.1464 -0.5911 -0.0116
  163SAPE  H11R18235   4.528   4.439   3.797 -0.8214  1.3327 -0.3167
  163SAPE  C21218236   4.582   4.406   3.990 -0.1294 -0.1865  0.1619
  163SAPE  H12R18237   4.523   4.314   3.985 -2.1202  0.9576  1.4025
  163SAPE  C21318238   4.649   4.440   4.121 -0.1740 -0.0772 -0.4054
  163SAPE  H13R18239   4.580   4.432   4.208 -0.0787  0.4834 -0.2700
  163SAPE  H13S18240   4.671   4.548   4.136 -3.0731  0.6368 -0.8205
  163SAPE  C21418241   4.771   4.353   4.155 -0.0026 -0.3093  0.5924
  163SAPE  H14R18242   4.755   4.245   4.169  0.4062 -0.6563 -1.3624
  163SAPE  C21518243   4.894   4.397   4.146 -0.3957  0.3225 -0.0900
  163SAPE  H15R18244   4.972   4.321   4.159 -2.2544 -2.0589 -1.9670
  163SAPE  C21618245   4.941   4.540   4.123 -0.0880  0.2343 -0.0711
  163SAPE  H16R18246   4.978   4.573   4.223 -2.6874 -1.0551  1.4374
  163SAPE  H16S18247   4.857   4.611   4.107 -1.3694 -0.4505  2.9062
  163SAPE  C21718248   5.048   4.565   4.012 -0.5780 -0.1858  0.4924
  163SAPE  H17R18249   5.049   4.674   3.989 -0.5005 -0.1047  0.8734
  163SAPE  H17S18250   5.017   4.517   3.916 -1.8237  0.8610  0.3487
  163SAPE  C21818251   5.198   4.540   4.046  1.1175 -0.8960 -0.1274
  163SAPE  H18R18252   5.215   4.431   4.057  3.1884 -0.4710  1.3194
  163SAPE  H18S18253   5.215   4.584   4.146  2.5001  0.3613 -0.8732
  163SAPE  C21918254   5.306   4.593   3.952 -0.4788 -0.2755  0.2276
  163SAPE  H19R18255   5.402   4.538   3.961  2.0736  3.6919 -0.5545
  163SAPE  H19S18256   5.328   4.694   3.991 -1.9535  0.4112 -0.6306
  163SAPE  C22018257   5.262   4.595   3.807 -0.2950 -0.4243  0.2023
  163SAPE  H20R18258   5.203   4.684   3.774 -2.5367 -0.9965  2.3328
  163SAPE  H20S18259   5.214   4.503   3.769  1.9294 -1.2087 -0.8627
  163SAPE  H20T18260   5.359   4.597   3.753  0.0003  0.6605  0.7385
  163SAPE   C3318261   4.749   4.538   2.986 -0.7598  0.6033  0.1207
  163SAPE   H3X18262   4.853   4.557   2.952 -1.0563  0.0958 -1.0914
  163SAPE   H3Y18263   4.742   4.432   2.953  1.9722 -0.0142  1.2252
  163SAPE   C3418264   4.733   4.530   3.138 -0.8028 -0.4080  0.0102
  163SAPE   H4X18265   4.714   4.625   3.193 -1.0323 -0.4532  0.0121
  163SAPE   H4Y18266   4.830   4.493   3.178  0.4960  1.4140 -1.3199
  163SAPE   C3518267   4.625   4.424   3.177  0.1112  0.4717  0.0487
  163SAPE   H5X18268   4.670   4.327   3.146 -0.5270  0.2219 -0.1144
  163SAPE   H5Y18269   4.538   4.456   3.116 -1.4308 -0.2930  1.7431
  163SAPE   C3618270   4.585   4.420   3.325  0.3019 -0.2606  0.0772
  163SAPE   H6X18271   4.482   4.379   3.327 -0.2902  1.1523  1.7464
  163SAPE   H6Y18272   4.588   4.521   3.372  2.4604 -0.8298  1.3076
  163SAPE   C3718273   4.680   4.328   3.404 -0.5344  0.0589  0.0543
  163SAPE   H7X18274   4.782   4.372   3.405  0.1373 -1.4419 -0.2551
  163SAPE   H7Y18275   4.694   4.235   3.345 -0.6407  1.5127 -2.4177
  163SAPE   C3818276   4.627   4.317   3.544 -0.2598  1.7380  0.8943
  163SAPE   H8X18277   4.519   4.293   3.542  0.0564  0.1958 -1.1444
  163SAPE   H8Y18278   4.641   4.417   3.590  0.1050  1.8612  0.5236
  163SAPE   C3918279   4.681   4.193   3.629 -0.6631 -0.0719 -0.0575
  163SAPE   H9X18280   4.644   4.109   3.567  1.4929  0.3168 -1.9888
  163SAPE   H9Y18281   4.628   4.195   3.727  1.1278  1.8630  0.9660
  163SAPE  C31018282   4.827   4.203   3.668 -0.5266 -0.7039  0.1975
  163SAPE  H10X18283   4.845   4.310   3.693 -0.2893 -0.6644 -0.1453
  163SAPE  H10Y18284   4.899   4.179   3.587 -1.3652 -1.0771 -0.4450
  163SAPE  C31118285   4.852   4.123   3.796 -0.5504 -0.1451 -0.5142
  163SAPE  H11X18286   4.868   4.016   3.772  3.4405  0.1477  0.0880
  163SAPE  H11Y18287   4.772   4.129   3.873  0.0583  0.5468  0.0885
  163SAPE  C31218288   4.980   4.155   3.860  0.6364 -0.4326 -0.7137
  163SAPE  H12X18289   4.977   4.260   3.894 -1.8611 -0.5242 -0.5263
  163SAPE  H12Y18290   5.058   4.142   3.781  1.0262 -1.4088 -0.1912
  163SAPE  C31318291   5.020   4.077   3.984  0.0639 -0.4771 -0.2362
  163SAPE  H13X18292   4.985   3.972   3.992 -1.3562 -0.2768 -2.7619
  163SAPE  H13Y18293   4.976   4.132   4.070 -0.0073  2.2613 -1.9036
  163SAPE  C31418294   5.170   4.091   4.001  0.3939 -0.2891 -0.9920
  163SAPE  H14X18295   5.189   4.199   3.985 -0.9309  0.8428  3.5662
  163SAPE  H14Y18296   5.224   4.025   3.930 -1.6351 -1.3682 -1.6417
  163SAPE  C31518297   5.208   4.046   4.149 -0.4445 -0.1849  0.3833
  163SAPE  H15X18298   5.142   3.961   4.175 -0.9957 -0.8862 -2.8581
  163SAPE  H15Y18299   5.181   4.128   4.218  1.9276 -1.1168  2.5820
  163SAPE  C31618300   5.355   4.025   4.169 -0.4751 -0.0182 -0.9584
  163SAPE  H16X18301   5.410   4.121   4.162 -0.0295 -0.1644  0.3670
  163SAPE  H16Y18302   5.403   3.958   4.093  1.5063  0.6245 -0.3463
  163SAPE  C31718303   5.398   3.961   4.299 -0.8159  0.1834 -0.6476
  163SAPE  H17X18304   5.503   3.928   4.287 -1.1631 -1.4756  0.6186
  163SAPE  H17Y18305   5.339   3.868   4.316  0.0925 -0.3868 -0.5358
  163SAPE  C31818306   5.394   4.048   4.428  0.8573  0.8616 -0.1698
  163SAPE  H18X18307   5.290   4.087   4.437  0.7801  0.2094  2.5913
  163SAPE  H18Y18308   5.447   4.145   4.417  0.7953  0.7295 -1.9407
  163SAPE  H18Z18309   5.418   3.993   4.521 -1.1863 -0.5276 -0.3960
  164SAPE     N18310   0.474   5.720   2.405 -0.0635 -0.3079 -0.5471
  164SAPE   HN118311   0.514   5.697   2.311  0.1320  0.9482 -0.7974
  164SAPE   HN218312   0.437   5.633   2.448  0.6428 -0.2417  0.2093
  164SAPE   HN318313   0.394   5.785   2.394 -1.0687 -1.1912  1.0980
  164SAPE   C1218314   0.588   5.783   2.474 -0.0572 -0.3774 -0.5499
  164SAPE  H12A18315   0.550   5.844   2.558 -2.9068 -1.1185 -1.2026
  164SAPE  H12B18316   0.635   5.854   2.403  0.0635 -0.5264 -0.6202
  164SAPE   C1118317   0.699   5.681   2.516  0.4513 -0.0198 -1.0341
  164SAPE  H11A18318   0.666   5.635   2.612  2.9904 -0.9490 -0.5018
  164SAPE  H11B18319   0.793   5.736   2.541 -0.0099  0.4717 -0.3150
  164SAPE     P18320   0.870   5.550   2.359  0.1949  0.1410  0.0701
  164SAPE   O1318321   0.858   5.441   2.261  0.5607  0.1708  0.5437
  164SAPE   O1418322   0.936   5.677   2.317  0.2431  0.0212 -0.5419
  164SAPE   O1218323   0.722   5.579   2.419 -0.4720 -0.1167 -0.2449
  164SAPE   O1118324   0.936   5.488   2.489 -0.5321 -0.3796 -0.2140
  164SAPE    C118325   0.872   5.419   2.595 -0.1129 -0.9624 -0.3149
  164SAPE    HA18326   0.869   5.492   2.679  0.4645 -0.7640 -0.4628
  164SAPE    HB18327   0.773   5.389   2.556  0.1924  0.1445 -2.0588
  164SAPE    C218328   0.961   5.288   2.629  0.5736  0.6747 -0.4494
  164SAPE    HS18329   0.964   5.217   2.544 -0.6726  1.2276 -0.9724
  164SAPE   O2118330   0.886   5.237   2.743 -0.1402  0.1572 -0.4324
  164SAPE   C2118331   0.889   5.104   2.754 -0.3639 -0.3786  0.8669
  164SAPE   O2218332   0.948   5.029   2.679 -0.5714  0.0524 -0.0376
  164SAPE   C2218333   0.806   5.062   2.866 -0.4408 -0.2514 -1.0011
  164SAPE   H2R18334   0.703   5.102   2.853 -1.0611 -0.7668  1.7209
  164SAPE   H2S18335   0.791   4.953   2.851  0.2029 -0.0017 -4.2883
  164SAPE    C318336   1.101   5.330   2.679  0.4825 -0.0041  0.1082
  164SAPE    HX18337   1.102   5.430   2.727  1.7881  1.4634 -2.7690
  164SAPE    HY18338   1.163   5.355   2.590  1.2214 -2.3235 -0.1088
  164SAPE   O3118339   1.164   5.244   2.775 -0.3680 -0.3868 -0.0280
  164SAPE   C3118340   1.250   5.158   2.717  0.3027 -0.1897  0.1121
  164SAPE   O3218341   1.260   5.146   2.593 -0.0431  0.1331 -0.5570
  164SAPE   C3218342   1.334   5.093   2.826 -1.0741  0.8067 -0.0453
  164SAPE   H2X18343   1.443   5.107   2.808 -0.9222  0.3446  0.4829
  164SAPE   H2Y18344   1.310   4.985   2.831 -0.1275  0.5590 -0.5382
  164SAPE   C2318345   0.857   5.110   3.005  0.0446  0.6855  0.1536
  164SAPE   H3R18346   0.917   5.202   2.991  1.2627 -0.1515 -0.3316
  164SAPE   H3S18347   0.929   5.031   3.033 -1.8077 -0.6602  1.3447
  164SAPE   C2418348   0.746   5.129   3.111 -0.5327 -0.4919  0.0126
  164SAPE   H4R18349   0.683   5.218   3.092  0.0762 -0.0214  0.1480
  164SAPE   H4S18350   0.792   5.145   3.212  1.0236  1.2433 -0.8952
  164SAPE   C2518351   0.656   5.012   3.113 -0.0172 -0.1306  0.5029
  164SAPE   H5R18352   0.599   4.998   3.020  0.7060  3.7139 -0.6868
  164SAPE   C2618353   0.639   4.918   3.217  0.2417  0.4237  0.1057
  164SAPE   H6R18354   0.561   4.840   3.211  0.6430  0.0629 -0.4911
  164SAPE   C2718355   0.715   4.906   3.346 -0.1259 -0.3958 -0.1532
  164SAPE   H7R18356   0.821   4.921   3.316  0.0823  0.3494  0.9223
  164SAPE   H7S18357   0.725   4.799   3.374  1.6816 -0.3218 -0.3919
  164SAPE   C2818358   0.676   4.995   3.461 -0.6613 -0.1058  0.1484
  164SAPE   H8R18359   0.686   5.104   3.449  0.1911 -0.3707 -1.7049
  164SAPE   C2918360   0.650   4.947   3.584  1.3212 -0.6824  0.4926
  164SAPE   H9R18361   0.616   5.014   3.665 -2.3451 -1.5414 -0.1515
  164SAPE  C21018362   0.634   4.796   3.615 -0.3916 -0.2552 -0.2821
  164SAPE  H10R18363   0.607   4.732   3.529 -3.4460 -0.6015  0.8248
  164SAPE  H10S18364   0.550   4.791   3.687 -1.9045  2.9888 -1.6274
  164SAPE  C21118365   0.760   4.749   3.686  0.2276 -0.3100  0.1945
  164SAPE  H11R18366   0.853   4.741   3.627 -1.0141  1.3468 -2.1407
  164SAPE  C21218367   0.772   4.703   3.813  0.2508 -0.1426  0.1611
  164SAPE  H12R18368   0.868   4.677   3.861  0.1963 -1.5344 -0.4220
  164SAPE  C21318369   0.665   4.697   3.921  0.7147  0.1073 -0.6631
  164SAPE  H13R18370   0.697   4.626   4.000 -0.6553  0.0235 -0.1565
  164SAPE  H13S18371   0.575   4.650   3.877  0.6602  0.8115 -1.3328
  164SAPE  C21418372   0.622   4.831   3.982 -0.4960  0.1819  0.3939
  164SAPE  H14R18373   0.625   4.917   3.913  0.9671  0.5537  0.8766
  164SAPE  C21518374   0.595   4.861   4.110  0.1692 -0.6177  0.0325
  164SAPE  H15R18375   0.571   4.967   4.124 -3.2103 -1.3630  0.7625
  164SAPE  C21618376   0.606   4.769   4.234  0.8127 -0.1144  0.1742
  164SAPE  H16R18377   0.629   4.666   4.200  1.3506  0.3659 -0.9645
  164SAPE  H16S18378   0.506   4.758   4.282  1.3373 -2.9484  0.7489
  164SAPE  C21718379   0.702   4.820   4.341 -0.1126  0.6681 -0.2000
  164SAPE  H17R18380   0.676   4.925   4.365  0.3991  0.3484  1.9147
  164SAPE  H17S18381   0.804   4.828   4.298  1.6607 -1.4735  3.2020
  164SAPE  C21818382   0.706   4.716   4.459 -0.0134  0.1894 -0.5866
  164SAPE  H18R18383   0.782   4.765   4.524 -0.5640 -0.1148  0.2963
  164SAPE  H18S18384   0.741   4.619   4.419 -0.1610 -0.3932  0.6604
  164SAPE  C21918385   0.580   4.703   4.538  0.5273  0.6644 -0.1648
  164SAPE  H19R18386   0.518   4.615   4.508 -0.9567  0.1971  3.7324
  164SAPE  H19S18387   0.515   4.792   4.529  0.6505  1.1007  2.5419
  164SAPE  C22018388   0.611   4.678   4.681  0.1784 -0.0985 -0.2506
  164SAPE  H20R18389   0.520   4.660   4.744  0.2011  0.0483 -0.1747
  164SAPE  H20S18390   0.659   4.773   4.712 -0.3671  1.6557 -4.1960
  164SAPE  H20T18391   0.675   4.587   4.685  1.0880  0.3872 -2.4275
  164SAPE   C3318392   1.308   5.161   2.962 -0.3342  0.6846 -0.5562
  164SAPE   H3X18393   1.206   5.129   2.994 -0.6347  0.2317 -1.9179
  164SAPE   H3Y18394   1.318   5.272   2.959 -0.7686  0.7157 -3.3434
  164SAPE   C3418395   1.420   5.128   3.069 -0.0227 -0.4139 -0.6934
  164SAPE   H4X18396   1.519   5.143   3.021  0.0837 -1.5889 -0.8895
  164SAPE   H4Y18397   1.428   5.019   3.087  0.4842 -0.3086 -0.3003
  164SAPE   C3518398   1.403   5.199   3.209  0.1754 -0.3097 -0.2026
  164SAPE   H5X18399   1.311   5.148   3.245  0.1106  0.7089  1.1426
  164SAPE   H5Y18400   1.384   5.307   3.196  0.1283 -0.2167  0.5906
  164SAPE   C3618401   1.507   5.160   3.310  0.0648  0.8562 -0.2080
  164SAPE   H6X18402   1.600   5.218   3.297  1.6092 -0.9896  1.9214
  164SAPE   H6Y18403   1.530   5.052   3.309  0.6748  0.9841 -0.1164
  164SAPE   C3718404   1.470   5.193   3.458  0.2205  0.0921 -0.3219
  164SAPE   H7X18405   1.370   5.148   3.479  1.0880 -1.2431  1.2061
  164SAPE   H7Y18406   1.457   5.302   3.477 -3.1736 -0.2093 -0.3084
  164SAPE   C3818407   1.554   5.130   3.567  0.1360 -0.1174 -0.7790
  164SAPE   H8X18408   1.656   5.174   3.566  0.4015 -0.7101 -2.3876
  164SAPE   H8Y18409   1.568   5.022   3.545 -1.0473 -0.8126  1.5458
  164SAPE   C3918410   1.499   5.125   3.712  0.4474 -0.1165 -0.3857
  164SAPE   H9X18411   1.572   5.073   3.777  1.3742  2.9561  1.2293
  164SAPE   H9Y18412   1.401   5.072   3.711  1.1788 -1.5246 -1.2552
  164SAPE  C31018413   1.468   5.265   3.779  0.1176 -0.2257 -0.8326
  164SAPE  H10X18414   1.368   5.306   3.750  0.7725  2.3337  0.1933
  164SAPE  H10Y18415   1.548   5.335   3.747 -0.1753 -0.1714 -1.4555
  164SAPE  C31118416   1.476   5.269   3.934 -0.4117 -0.0058  0.5117
  164SAPE  H11X18417   1.464   5.373   3.971  2.3914  0.3840  0.5006
  164SAPE  H11Y18418   1.578   5.237   3.964 -0.5892 -0.6088  0.4770
  164SAPE  C31218419   1.371   5.178   4.001 -0.6101  0.4826 -0.3781
  164SAPE  H12X18420   1.384   5.073   3.967 -0.0735 -0.0696  1.4298
  164SAPE  H12Y18421   1.275   5.216   3.958 -1.5030 -1.1190  0.1222
  164SAPE  C31318422   1.376   5.175   4.154  0.1020  0.3977  0.2460
  164SAPE  H13X18423   1.480   5.172   4.194  0.0854 -2.8194  0.3178
  164SAPE  H13Y18424   1.333   5.078   4.185 -0.0342 -0.4065 -2.2103
  164SAPE  C31418425   1.299   5.286   4.229 -0.2589 -0.3472  0.9829
  164SAPE  H14X18426   1.192   5.261   4.210  0.0318  0.1426 -1.6625
  164SAPE  H14Y18427   1.320   5.389   4.193 -1.3547  0.0283  1.3599
  164SAPE  C31518428   1.319   5.283   4.389 -0.6098  0.5690  0.1640
  164SAPE  H15X18429   1.429   5.279   4.406  0.0459  0.2197 -3.4822
  164SAPE  H15Y18430   1.277   5.189   4.431  0.9981 -0.8374 -1.2392
  164SAPE  C31618431   1.280   5.413   4.460  0.6920 -0.0283 -0.3206
  164SAPE  H16X18432   1.173   5.431   4.437  1.3516  1.1178 -2.7785
  164SAPE  H16Y18433   1.351   5.482   4.409  2.0645 -0.5850  0.7481
  164SAPE  C31718434   1.313   5.425   4.604 -0.5575 -0.6930 -0.4959
  164SAPE  H17X18435   1.311   5.532   4.635 -0.5356 -0.9273  0.3242
  164SAPE  H17Y18436   1.420   5.401   4.622 -1.0918 -2.3744  0.6862
  164SAPE  C31818437   1.226   5.334   4.699 -1.0346  0.4582  0.4914
  164SAPE  H18X18438   1.117   5.356   4.698 -1.0520  0.5237  1.7614
  164SAPE  H18Y18439   1.259   5.320   4.804 -0.8351 -0.1137  0.3569
  164SAPE  H18Z18440   1.240   5.230   4.662 -2.4862  0.0985  0.9111
  165SAPE     N18441   0.112   0.599   2.059 -0.3043  0.3271  0.2990
  165SAPE   HN118442   0.202   0.650   2.051  0.3663 -0.7923  0.4731
  165SAPE   HN218443   0.106   0.522   1.989  2.4088  0.4038 -0.1495
  165SAPE   HN318444   0.032   0.662   2.038 -0.5244 -0.3765 -1.0835
  165SAPE   C1218445   0.098   0.535   2.193  0.1226  0.2494  0.1220
  165SAPE  H12A18446   0.050   0.615   2.253 -0.4643  0.7055 -0.9288
  165SAPE  H12B18447   0.196   0.500   2.231 -0.5417 -1.2814  0.5004
  165SAPE   C1118448  -0.012   0.422   2.199 -0.0340  0.0052 -0.6553
  165SAPE  H11A18449  -0.108   0.474   2.180 -0.9604 -2.0110 -1.8480
  165SAPE  H11B18450  -0.013   0.387   2.304  2.1690  2.8208  0.4214
  165SAPE     P18451   0.075   0.176   2.150  0.2965  0.5879  0.0757
  165SAPE   O1318452   0.015   0.078   2.060  0.4900 -0.0162  0.1229
  165SAPE   O1418453   0.219   0.180   2.148 -0.3302  0.7756  0.2435
  165SAPE   O1218454   0.008   0.309   2.108  0.1847  0.1149  0.3338
  165SAPE   O1118455   0.035   0.143   2.305 -0.3847 -0.0803 -0.0239
  165SAPE    C118456   0.114   0.059   2.393 -0.3078 -0.2596  0.0722
  165SAPE    HA18457   0.194   0.007   2.334 -1.6478 -0.4862 -1.6371
  165SAPE    HB18458   0.154   0.114   2.480 -1.0440  0.4175 -0.0080
  165SAPE    C218459   0.032  -0.067   2.443  0.3815 -0.1532 -0.0979
  165SAPE    HS18460  -0.019  -0.099   2.350 -0.5826  1.9424 -0.3449
  165SAPE   O2118461  -0.068  -0.033   2.537  0.3055 -0.2438 -0.1082
  165SAPE   C2118462  -0.158  -0.125   2.570 -0.2275 -0.6168 -0.2387
  165SAPE   O2218463  -0.171  -0.230   2.514  0.6095 -0.3057 -0.0201
  165SAPE   C2218464  -0.255  -0.074   2.676  0.0267 -0.1309  1.0634
  165SAPE   H2R18465  -0.345  -0.038   2.621  0.6155  0.8324  0.7187
  165SAPE   H2S18466  -0.286  -0.157   2.743  0.4406 -1.2630 -0.1208
  165SAPE    C318467   0.131  -0.181   2.507 -0.2022  0.4985 -0.1039
  165SAPE    HX18468   0.204  -0.210   2.429  0.6882 -0.0992  0.9280
  165SAPE    HY18469   0.065  -0.269   2.524  0.8560 -0.2868  0.0329
  165SAPE   O3118470   0.173  -0.144   2.640 -0.1512  0.4797  0.0916
  165SAPE   C3118471   0.295  -0.083   2.641  0.4419  0.0165 -0.4461
  165SAPE   O3218472   0.368  -0.065   2.544  0.4106  0.6421  0.2529
  165SAPE   C3218473   0.332  -0.044   2.782  0.6408  0.2785  0.1147
  165SAPE   H2X18474   0.425  -0.102   2.796  0.1507 -0.3547  0.8182
  165SAPE   H2Y18475   0.252  -0.071   2.853 -0.7201  1.6306 -0.8151
  165SAPE   C2318476  -0.197   0.035   2.769 -0.1743  0.8681 -0.2993
  165SAPE   H3R18477  -0.272   0.117   2.761 -0.3267  0.6699 -0.9440
  165SAPE   H3S18478  -0.105   0.077   2.724 -0.3919  2.5946  0.7579
  165SAPE   C2418479  -0.194  -0.003   2.920 -0.6244 -0.0093 -0.2960
  165SAPE   H4R18480  -0.117  -0.082   2.933 -1.0471 -0.5987 -1.2872
  165SAPE   H4S18481  -0.289  -0.045   2.958 -0.7367 -1.2160 -1.8119
  165SAPE   C2518482  -0.147   0.117   3.002  0.2315 -0.2709  0.0739
  165SAPE   H5R18483  -0.168   0.215   2.956  1.1606  0.4615  1.1431
  165SAPE   C2618484  -0.082   0.117   3.121 -0.2595  0.0425 -0.2460
  165SAPE   H6R18485  -0.039   0.212   3.158  1.7527  0.3593 -3.0996
  165SAPE   C2718486  -0.044  -0.001   3.197 -0.8061  1.0476 -0.2615
  165SAPE   H7R18487   0.043   0.016   3.264  1.3717  0.2313 -2.7540
  165SAPE   H7S18488   0.007  -0.066   3.123  1.2575  0.8077  1.2678
  165SAPE   C2818489  -0.163  -0.068   3.264 -0.4843 -0.3285  0.1004
  165SAPE   H8R18490  -0.227  -0.131   3.201 -0.2089  0.4276 -0.9726
  165SAPE   C2918491  -0.175  -0.078   3.397  0.0190 -0.2750 -0.2289
  165SAPE   H9R18492  -0.274  -0.110   3.433 -0.7018 -0.3904 -2.1904
  165SAPE  C21018493  -0.082  -0.022   3.504  0.9137 -0.1951  0.6190
  165SAPE  H10R18494  -0.146   0.032   3.577  1.9855 -0.2718  1.6503
  165SAPE  H10S18495  -0.021   0.057   3.455 -0.6090  0.9189  0.4450
  165SAPE  C21118496  -0.003  -0.133   3.567 -0.3871  0.4502 -0.2364
  165SAPE  H11R18497  -0.002  -0.224   3.506  1.4535  0.2921 -0.0256
  165SAPE  C21218498   0.053  -0.141   3.689  0.5544 -0.3332 -0.2915
  165SAPE  H12R18499   0.098  -0.236   3.722 -1.0103 -0.7826  0.6671
  165SAPE  C21318500   0.056  -0.033   3.792  1.0637 -1.1125  0.0536
  165SAPE  H13R18501   0.058   0.066   3.741  1.6601 -1.1478 -0.0035
  165SAPE  H13S18502   0.147  -0.031   3.855  0.8510 -1.6114  0.3812
  165SAPE  C21418503  -0.070  -0.045   3.876  0.7728  0.5931  0.1493
  165SAPE  H14R18504  -0.164  -0.038   3.819  1.7738  1.8461 -1.4240
  165SAPE  C21518505  -0.068  -0.081   4.005  0.9478  0.1490  0.5166
  165SAPE  H15R18506  -0.170  -0.091   4.047  0.2205  1.8650 -0.7029
  165SAPE  C21618507   0.051  -0.094   4.093  0.3632 -0.1043 -0.5874
  165SAPE  H16R18508   0.126  -0.014   4.077  0.1354  0.7170  1.9435
  165SAPE  H16S18509   0.107  -0.190   4.101  0.3458  0.0514  3.7841
  165SAPE  C21718510   0.011  -0.082   4.243  0.0282  0.4277  0.6147
  165SAPE  H17R18511  -0.068  -0.158   4.261  0.6774 -0.2867  0.4900
  165SAPE  H17S18512  -0.032   0.015   4.276 -2.7045 -0.9148  1.2759
  165SAPE  C21818513   0.133  -0.118   4.328 -0.5663  0.1217 -0.6289
  165SAPE  H18R18514   0.218  -0.058   4.289 -1.0944 -0.6646 -3.1701
  165SAPE  H18S18515   0.154  -0.226   4.317 -0.6842 -0.1529  1.4695
  165SAPE  C21918516   0.105  -0.093   4.480  0.5830 -0.0478  0.5208
  165SAPE  H19R18517   0.003  -0.136   4.492  0.0995  0.5374 -1.2394
  165SAPE  H19S18518   0.114   0.012   4.516  2.1572 -0.2397  0.7764
  165SAPE  C22018519   0.210  -0.156   4.572 -0.1052 -0.1404 -0.0424
  165SAPE  H20R18520   0.189  -0.142   4.680  2.5315  0.7962  0.4184
  165SAPE  H20S18521   0.307  -0.110   4.545 -0.3719 -1.9358 -4.9744
  165SAPE  H20T18522   0.213  -0.267   4.565  0.3652 -0.1514  0.2517
  165SAPE   C3318523   0.369   0.106   2.807 -0.3148  0.3673 -0.2754
  165SAPE   H3X18524   0.278   0.170   2.808 -0.3528  0.3297  1.0658
  165SAPE   H3Y18525   0.433   0.141   2.724 -0.4530  2.5328  0.4401
  165SAPE   C3418526   0.432   0.123   2.950  0.3462 -0.4411  0.6974
  165SAPE   H4X18527   0.480   0.223   2.960  0.9950 -0.8346  1.5985
  165SAPE   H4Y18528   0.515   0.056   2.982 -0.2757 -1.1052  0.9332
  165SAPE   C3518529   0.321   0.125   3.066 -0.3672 -0.3609  0.1488
  165SAPE   H5X18530   0.306   0.018   3.090  1.3361 -0.8023 -0.5778
  165SAPE   H5Y18531   0.232   0.174   3.021  1.6721  2.9187 -0.6760
  165SAPE   C3618532   0.368   0.207   3.187  0.2795  0.7412  0.5689
  165SAPE   H6X18533   0.390   0.314   3.168 -0.9919  1.1483  1.2688
  165SAPE   H6Y18534   0.465   0.164   3.221 -0.1495 -1.4135 -0.7149
  165SAPE   C3718535   0.277   0.190   3.315  0.3171 -0.1617 -0.8858
  165SAPE   H7X18536   0.229   0.091   3.311 -1.0223  0.4443 -0.3282
  165SAPE   H7Y18537   0.196   0.265   3.303  0.2312  0.2247  1.6251
  165SAPE   C3818538   0.354   0.221   3.437 -0.2873  0.6312 -0.3306
  165SAPE   H8X18539   0.391   0.324   3.421 -1.2373  0.8844 -0.9726
  165SAPE   H8Y18540   0.447   0.161   3.451  0.2714  1.3410 -0.9321
  165SAPE   C3918541   0.268   0.201   3.568  0.2342  0.2774 -0.5043
  165SAPE   H9X18542   0.216   0.103   3.573  1.9135 -0.6912 -0.9507
  165SAPE   H9Y18543   0.191   0.280   3.573 -2.2832 -1.7997 -3.1450
  165SAPE  C31018544   0.356   0.221   3.697  0.3749  0.0808 -0.2702
  165SAPE  H10X18545   0.442   0.286   3.671  0.0554  0.7301  0.2582
  165SAPE  H10Y18546   0.401   0.127   3.735 -0.2837 -0.3114 -0.4469
  165SAPE  C31118547   0.274   0.284   3.806  0.4488  0.3679  0.5492
  165SAPE  H11X18548   0.170   0.244   3.809 -0.0534  1.3313 -1.7334
  165SAPE  H11Y18549   0.267   0.390   3.775  1.6832  0.7121  1.3744
  165SAPE  C31218550   0.328   0.262   3.945 -0.8901 -0.4088 -0.4879
  165SAPE  H12X18551   0.424   0.317   3.957 -1.1323 -0.4671  2.8827
  165SAPE  H12Y18552   0.341   0.152   3.959  0.3683 -0.4883 -2.0585
  165SAPE  C31318553   0.230   0.297   4.061 -0.6452  0.2059 -0.0907
  165SAPE  H13X18554   0.144   0.228   4.049  0.5054 -1.1432 -0.8308
  165SAPE  H13Y18555   0.197   0.401   4.039  0.4069  0.1333 -2.2096
  165SAPE  C31418556   0.289   0.275   4.198 -0.1444 -0.1904  0.0484
  165SAPE  H14X18557   0.394   0.311   4.200 -0.3578  0.4641 -0.5478
  165SAPE  H14Y18558   0.295   0.166   4.218  0.5708 -0.2734 -0.5627
  165SAPE  C31518559   0.196   0.332   4.312  0.1956  0.2434  0.2495
  165SAPE  H15X18560   0.102   0.273   4.304 -0.0204  0.2090  2.4869
  165SAPE  H15Y18561   0.176   0.440   4.294 -0.8125 -0.1028 -0.8501
  165SAPE  C31618562   0.224   0.305   4.464  0.1020  0.4433 -0.1005
  165SAPE  H16X18563   0.321   0.357   4.478  0.1891  0.0761  0.7783
  165SAPE  H16Y18564   0.241   0.195   4.471  3.1097  0.8268  0.1075
  165SAPE  C31718565   0.107   0.344   4.561  0.5877  0.3276  0.3930
  165SAPE  H17X18566   0.116   0.454   4.572 -0.3779  0.4147  0.3306
  165SAPE  H17Y18567   0.133   0.305   4.662 -0.3315 -0.4592  0.3421
  165SAPE  C31818568  -0.037   0.299   4.526  0.4594  0.2023  1.3168
  165SAPE  H18X18569  -0.091   0.291   4.624  0.6282  2.7630  1.6754
  165SAPE  H18Y18570  -0.034   0.202   4.472 -1.5257  0.7649  0.0565
  165SAPE  H18Z18571  -0.091   0.367   4.457  1.7545 -0.5403 -0.5003
  166SAPE     N18572   0.703   1.551   2.247  0.1861  0.0811 -0.0711
  166SAPE   HN118573   0.774   1.583   2.178  1.9953 -1.6159  0.9109
  166SAPE   HN218574   0.624   1.510   2.193 -0.2811  1.1115 -0.1939
  166SAPE   HN318575   0.665   1.639   2.287  0.9013  1.0322 -1.4021
  166SAPE   C1218576   0.773   1.468   2.351 -0.3408  0.0933 -0.9014
  166SAPE  H12A18577   0.754   1.359   2.343 -0.8342 -0.4405  4.2833
  166SAPE  H12B18578   0.737   1.508   2.448  4.3325  0.2266  1.0653
  166SAPE   C1118579   0.927   1.505   2.344 -0.1717  0.7654  0.0165
  166SAPE  H11A18580   0.972   1.477   2.246 -1.1334  0.4004 -0.3341
  166SAPE  H11B18581   0.974   1.442   2.423 -0.7764 -1.0979 -1.0599
  166SAPE     P18582   1.106   1.691   2.377 -0.3640 -0.0181  0.2843
  166SAPE   O1318583   1.176   1.632   2.262  0.3506 -0.6332 -0.1492
  166SAPE   O1418584   1.082   1.834   2.382  0.0622  0.2391 -0.1559
  166SAPE   O1218585   0.957   1.644   2.375 -0.1009 -0.2994  0.3898
  166SAPE   O1118586   1.170   1.625   2.503  0.1734  0.6246  0.6710
  166SAPE    C118587   1.088   1.631   2.624  0.1086 -0.0221 -0.1085
  166SAPE    HA18588   1.102   1.733   2.666 -1.2443 -0.4975  1.6059
  166SAPE    HB18589   0.981   1.610   2.604  0.5349  0.3235 -3.2723
  166SAPE    C218590   1.148   1.538   2.729 -0.0692 -0.1444 -0.0828
  166SAPE    HS18591   1.100   1.441   2.704  0.1245  0.3922 -2.8374
  166SAPE   O2118592   1.105   1.582   2.856  0.4668 -0.0259 -0.1397
  166SAPE   C2118593   1.114   1.491   2.953  0.1554 -0.3500 -0.7709
  166SAPE   O2218594   1.125   1.371   2.938 -0.0817  0.4222 -0.1893
  166SAPE   C2218595   1.101   1.562   3.090 -0.2000 -0.2633  0.2241
  166SAPE   H2R18596   1.172   1.648   3.087  1.8522 -1.8494  0.7824
  166SAPE   H2S18597   0.998   1.601   3.103  0.1381  1.5141 -1.7942
  166SAPE    C318598   1.307   1.534   2.717 -0.0984  0.2385  0.3889
  166SAPE    HX18599   1.340   1.630   2.761 -1.8878  1.5061 -0.8545
  166SAPE    HY18600   1.342   1.532   2.611 -0.8820  0.1805  0.1224
  166SAPE   O3118601   1.367   1.430   2.800  0.0120 -0.6101 -0.0346
  166SAPE   C3118602   1.368   1.309   2.746  0.7371 -0.5898  0.4716
  166SAPE   O3218603   1.300   1.276   2.652 -0.0201  0.5837  0.3255
  166SAPE   C3218604   1.471   1.225   2.825  0.2642 -1.0076  0.2612
  166SAPE   H2X18605   1.535   1.299   2.877 -2.2533  1.7901 -0.3639
  166SAPE   H2Y18606   1.528   1.170   2.746  0.2580 -0.7301  0.0642
  166SAPE   C2318607   1.139   1.477   3.216  0.6263  0.3250 -0.1998
  166SAPE   H3R18608   1.107   1.372   3.197  0.2429  0.1333  1.3646
  166SAPE   H3S18609   1.073   1.520   3.295  1.6562  2.7359 -0.5808
  166SAPE   C2418610   1.281   1.468   3.262  0.1557  0.4327  0.0970
  166SAPE   H4R18611   1.338   1.562   3.244 -0.4315  0.6530 -0.6737
  166SAPE   H4S18612   1.333   1.400   3.191  1.3319  1.5605 -0.1557
  166SAPE   C2518613   1.281   1.399   3.396 -0.2536 -0.1164 -0.8780
  166SAPE   H5R18614   1.306   1.292   3.385  0.9262 -0.0428  0.7963
  166SAPE   C2618615   1.272   1.452   3.516  0.4466  0.3924  0.3778
  166SAPE   H6R18616   1.277   1.380   3.598  1.3017  1.4883  1.3208
  166SAPE   C2718617   1.221   1.589   3.554  0.2058 -0.3015  0.2096
  166SAPE   H7R18618   1.133   1.592   3.622 -0.0969  0.2107 -0.2039
  166SAPE   H7S18619   1.163   1.629   3.469 -0.3486 -4.3920 -1.5866
  166SAPE   C2818620   1.323   1.679   3.617  0.1646  0.7959 -1.0354
  166SAPE   H8R18621   1.399   1.716   3.546  1.7106 -0.9680 -0.3786
  166SAPE   C2918622   1.325   1.724   3.747  0.4152 -0.7318 -0.4548
  166SAPE   H9R18623   1.402   1.786   3.795 -1.9113  2.2464 -0.2617
  166SAPE  C21018624   1.224   1.715   3.859 -0.1383  0.2714  0.1331
  166SAPE  H10R18625   1.133   1.659   3.830 -0.1996 -0.5865  1.8173
  166SAPE  H10S18626   1.191   1.818   3.887 -0.8548  0.3490 -0.9362
  166SAPE  C21118627   1.281   1.643   3.978  1.3042  0.1077 -0.8695
  166SAPE  H11R18628   1.353   1.564   3.949  1.9488  1.0875 -2.0328
  166SAPE  C21218629   1.229   1.652   4.107  0.7930  0.5767  0.5032
  166SAPE  H12R18630   1.274   1.587   4.184 -0.6022 -0.3845  0.5481
  166SAPE  C21318631   1.132   1.755   4.157  0.5861  0.2856 -0.0480
  166SAPE  H13R18632   1.077   1.716   4.246  1.4211  0.5604  0.6033
  166SAPE  H13S18633   1.058   1.775   4.077 -2.1853 -1.8030  1.7864
  166SAPE  C21418634   1.198   1.888   4.182 -0.6926 -0.1287  0.2803
  166SAPE  H14R18635   1.211   1.943   4.089 -0.5995 -0.4690  0.0905
  166SAPE  C21518636   1.243   1.933   4.302 -0.1745 -0.3489  0.0603
  166SAPE  H15R18637   1.307   2.023   4.303  0.3907 -0.7454  1.6706
  166SAPE  C21618638   1.220   1.872   4.437 -0.3665  0.3921 -0.4586
  166SAPE  H16R18639   1.314   1.892   4.493 -1.4645  3.0297  0.6551
  166SAPE  H16S18640   1.197   1.764   4.437 -0.0206  0.2882  1.2233
  166SAPE  C21718641   1.109   1.941   4.520  0.0854 -0.1025 -0.6247
  166SAPE  H17R18642   1.014   1.958   4.465 -0.1810  0.2739 -0.0600
  166SAPE  H17S18643   1.142   2.046   4.536  1.7619 -0.4408 -1.6374
  166SAPE  C21818644   1.073   1.886   4.661  0.0235 -0.2849 -0.5182
  166SAPE  H18R18645   1.003   1.954   4.714  0.6151 -1.6408  2.1888
  166SAPE  H18S18646   1.169   1.876   4.717  0.5795  0.9873 -1.2048
  166SAPE  C21918647   1.009   1.747   4.659  0.9440  0.4326 -0.3209
  166SAPE  H19R18648   0.984   1.732   4.766 -1.7978 -0.1107 -0.9520
  166SAPE  H19S18649   1.082   1.670   4.628  0.8770  0.5027 -0.6590
  166SAPE  C22018650   0.887   1.714   4.573  0.4677  0.3907  0.0724
  166SAPE  H20R18651   0.805   1.789   4.572  0.2786  0.1903  0.4484
  166SAPE  H20S18652   0.843   1.617   4.604  0.6547 -0.9583 -3.3554
  166SAPE  H20T18653   0.916   1.705   4.466 -0.9632 -0.2958 -0.2802
  166SAPE   C3318654   1.402   1.129   2.923  0.1447 -0.0173 -0.5101
  166SAPE   H3X18655   1.332   1.058   2.873 -0.6841  1.1686 -1.1093
  166SAPE   H3Y18656   1.335   1.185   2.992 -0.0953  0.2692 -0.9686
  166SAPE   C3418657   1.511   1.051   3.004 -0.3613  0.3840 -0.2268
  166SAPE   H4X18658   1.592   1.003   2.945  0.1884 -1.9096  2.2359
  166SAPE   H4Y18659   1.452   0.967   3.044 -1.7417  1.3734 -0.1070
  166SAPE   C3518660   1.587   1.128   3.113  0.2122 -0.1886 -0.5756
  166SAPE   H5X18661   1.517   1.199   3.164  1.8999  0.7620  0.5154
  166SAPE   H5Y18662   1.672   1.184   3.068 -0.3626  2.4055  1.3172
  166SAPE   C3618663   1.642   1.025   3.214  0.5265 -0.2938  0.5426
  166SAPE   H6X18664   1.693   0.942   3.161 -0.4753 -0.6166  0.0502
  166SAPE   H6Y18665   1.555   0.973   3.260 -0.1206 -0.1022 -0.4476
  166SAPE   C3718666   1.721   1.086   3.327  0.0422  0.4374 -0.3010
  166SAPE   H7X18667   1.784   1.172   3.295  1.6768 -0.6650 -0.1319
  166SAPE   H7Y18668   1.790   1.013   3.375  0.0958  0.2041 -0.7219
  166SAPE   C3818669   1.632   1.132   3.446 -0.2962  0.2594  0.8507
  166SAPE   H8X18670   1.566   1.049   3.477 -1.2201  2.1347  4.5400
  166SAPE   H8Y18671   1.575   1.224   3.418  2.8674  1.9772 -0.5671
  166SAPE   C3918672   1.709   1.172   3.572 -0.0773 -0.1214  0.5888
  166SAPE   H9X18673   1.773   1.262   3.563  2.3220 -1.6814  1.0747
  166SAPE   H9Y18674   1.775   1.085   3.592  0.9436 -0.1442 -2.4295
  166SAPE  C31018675   1.614   1.202   3.691  0.7303 -0.0383  0.3847
  166SAPE  H10X18676   1.563   1.105   3.710  2.3036 -1.4331 -2.0869
  166SAPE  H10Y18677   1.537   1.269   3.647 -2.6048 -2.8576  1.4323
  166SAPE  C31118678   1.675   1.263   3.823  0.0761 -0.1979 -0.0262
  166SAPE  H11X18679   1.597   1.272   3.902 -0.1236 -1.2774 -0.0856
  166SAPE  H11Y18680   1.703   1.369   3.806 -0.6765  0.7452  3.6603
  166SAPE  C31218681   1.784   1.185   3.889 -0.3506  1.1875  0.2931
  166SAPE  H12X18682   1.871   1.178   3.821 -0.3610  0.1517  0.3751
  166SAPE  H12Y18683   1.748   1.081   3.902  1.5153  0.5118  0.2631
  166SAPE  C31318684   1.827   1.268   4.018 -0.0764  0.0015 -0.0969
  166SAPE  H13X18685   1.824   1.378   4.006 -0.2761 -0.1699 -1.8116
  166SAPE  H13Y18686   1.933   1.245   4.041 -0.5451 -2.0470  0.2066
  166SAPE  C31418687   1.753   1.240   4.139  0.4883 -0.1738 -0.3170
  166SAPE  H14X18688   1.726   1.132   4.140  2.8206 -0.8564 -1.7293
  166SAPE  H14Y18689   1.657   1.294   4.153 -0.0826 -0.8936 -1.2944
  166SAPE  C31518690   1.830   1.253   4.267  0.5874  0.4132 -0.7788
  166SAPE  H15X18691   1.879   1.353   4.263 -0.9855  1.2369 -0.6235
  166SAPE  H15Y18692   1.907   1.174   4.259 -0.6926 -0.7764 -1.7870
  166SAPE  C31618693   1.750   1.238   4.398  0.4065  0.5298  0.2516
  166SAPE  H16X18694   1.721   1.132   4.411  2.0251  0.2566  2.0909
  166SAPE  H16Y18695   1.665   1.309   4.395 -0.0825 -0.0424 -3.0575
  166SAPE  C31718696   1.829   1.268   4.523 -0.8272 -0.0645  0.4089
  166SAPE  H17X18697   1.852   1.377   4.522  1.5879 -0.5204 -0.3106
  166SAPE  H17Y18698   1.926   1.216   4.519 -1.7375 -1.8076 -0.0965
  166SAPE  C31818699   1.758   1.229   4.651 -0.1862  0.0902  0.5393
  166SAPE  H18X18700   1.664   1.288   4.650  1.0568  2.1423  0.5069
  166SAPE  H18Y18701   1.819   1.260   4.738  0.9154  1.4785 -0.6753
  166SAPE  H18Z18702   1.739   1.119   4.656  2.8367 -0.5617 -0.2778
  167SAPE     N18703   1.018   3.153   2.314 -0.6614  0.0770  0.0486
  167SAPE   HN118704   1.076   3.131   2.397  0.5618  3.1728  0.1368
  167SAPE   HN218705   0.966   3.240   2.335 -3.0222 -1.4523  0.9164
  167SAPE   HN318706   0.946   3.080   2.299 -2.0867  1.6283 -1.0679
  167SAPE   C1218707   1.105   3.159   2.200 -0.3636  0.1827 -0.1490
  167SAPE  H12A18708   1.051   3.185   2.106 -2.1876 -3.1669 -0.1536
  167SAPE  H12B18709   1.160   3.064   2.186  2.6568  1.1807  3.1774
  167SAPE   C1118710   1.215   3.270   2.213  0.0707  1.1021 -0.3228
  167SAPE  H11A18711   1.258   3.304   2.116 -0.2787  2.4497 -0.0246
  167SAPE  H11B18712   1.294   3.229   2.279 -0.6260 -2.7127 -1.6040
  167SAPE     P18713   1.098   3.521   2.219  0.2108 -0.1045 -0.2601
  167SAPE   O1318714   1.210   3.600   2.159 -0.0799 -0.8874  0.0251
  167SAPE   O1418715   0.975   3.499   2.138 -0.1010  0.0720  0.1766
  167SAPE   O1218716   1.150   3.381   2.268 -0.0516  0.4230 -0.0286
  167SAPE   O1118717   1.051   3.598   2.347 -0.2781  0.1513  0.6302
  167SAPE    C118718   1.131   3.598   2.468  0.2830  0.1709  0.1564
  167SAPE    HA18719   1.238   3.600   2.441  0.2995 -1.4899 -0.0119
  167SAPE    HB18720   1.107   3.692   2.524  0.9123  0.4255  0.0075
  167SAPE    C218721   1.102   3.473   2.559 -0.5120  0.2538 -0.8001
  167SAPE    HS18722   1.118   3.378   2.502  0.4878 -0.0732 -0.0061
  167SAPE   O2118723   0.963   3.468   2.603 -0.1134 -0.6021 -0.3451
  167SAPE   C2118724   0.865   3.424   2.530  0.1710 -0.0351 -0.1219
  167SAPE   O2218725   0.870   3.370   2.421 -0.3903  0.4410 -0.3481
  167SAPE   C2218726   0.746   3.434   2.612  0.5114 -0.6332 -0.5366
  167SAPE   H2R18727   0.761   3.373   2.704  1.6363  1.1027  0.4837
  167SAPE   H2S18728   0.746   3.543   2.633  0.3944 -0.8323  0.5295
  167SAPE    C318729   1.198   3.475   2.685 -0.2031 -0.0533  0.0157
  167SAPE    HX18730   1.182   3.569   2.741  0.1629  0.5423 -0.8560
  167SAPE    HY18731   1.300   3.489   2.644 -0.6081 -1.5488 -1.6964
  167SAPE   O3118732   1.185   3.348   2.748  0.8036  0.2714 -0.4658
  167SAPE   C3118733   1.179   3.351   2.880 -0.5984 -0.4249 -0.3460
  167SAPE   O3218734   1.153   3.450   2.951  0.0924 -0.1937  0.5503
  167SAPE   C3218735   1.194   3.202   2.933 -0.4290 -0.4531  0.3823
  167SAPE   H2X18736   1.299   3.176   2.910 -0.5563 -1.3592  0.7620
  167SAPE   H2Y18737   1.125   3.147   2.865  0.2278  1.3213 -1.8399
  167SAPE   C2318738   0.617   3.387   2.545  0.5776  0.2605  0.2017
  167SAPE   H3R18739   0.627   3.277   2.533 -4.0350 -0.2045 -1.4821
  167SAPE   H3S18740   0.611   3.428   2.442  0.2105  0.3988  0.2770
  167SAPE   C2418741   0.478   3.400   2.619  0.3772 -0.5836  0.1772
  167SAPE   H4R18742   0.404   3.339   2.563 -0.8550 -1.1717  2.3179
  167SAPE   H4S18743   0.440   3.504   2.609  3.4393  0.5047 -1.3147
  167SAPE   C2518744   0.479   3.347   2.759 -0.0754 -0.6157 -0.3091
  167SAPE   H5R18745   0.523   3.246   2.767  0.1463 -0.5545 -0.7374
  167SAPE   C2618746   0.434   3.404   2.870  0.1727 -0.3865  0.3247
  167SAPE   H6R18747   0.457   3.360   2.968  0.5769  0.7221  0.7488
  167SAPE   C2718748   0.363   3.542   2.872 -0.3082  0.0672 -0.6443
  167SAPE   H7R18749   0.263   3.528   2.917 -0.4251  2.3997 -0.0068
  167SAPE   H7S18750   0.362   3.600   2.777 -0.2375  0.5211 -0.3737
  167SAPE   C2818751   0.444   3.623   2.974 -0.5746 -0.0146  0.0361
  167SAPE   H8R18752   0.524   3.686   2.932  0.7768 -1.6575  0.0310
  167SAPE   C2918753   0.436   3.621   3.111 -0.3746 -0.4903  0.6211
  167SAPE   H9R18754   0.518   3.670   3.166  0.6730  0.3111 -1.5246
  167SAPE  C21018755   0.347   3.540   3.201  0.1041  0.2260 -0.1703
  167SAPE  H10R18756   0.400   3.451   3.242 -0.6286 -0.5860 -0.9322
  167SAPE  H10S18757   0.272   3.499   3.130  0.6853  0.3188 -0.8530
  167SAPE  C21118758   0.267   3.615   3.300 -0.3719 -0.2194 -0.3664
  167SAPE  H11R18759   0.183   3.671   3.256 -0.5541 -0.0347  0.2094
  167SAPE  C21218760   0.287   3.607   3.434 -0.2672 -0.2736 -0.0523
  167SAPE  H12R18761   0.223   3.655   3.510  1.2826  0.4431  0.8378
  167SAPE  C21318762   0.406   3.535   3.498 -0.1772  0.0666 -0.0428
  167SAPE  H13R18763   0.476   3.611   3.537 -0.8322  0.9291 -0.4975
  167SAPE  H13S18764   0.464   3.477   3.423  0.5872  1.9664 -0.9906
  167SAPE  C21418765   0.367   3.448   3.616 -1.0718  0.1609  0.3850
  167SAPE  H14R18766   0.335   3.346   3.590  0.1141 -0.2753  0.5684
  167SAPE  C21518767   0.373   3.468   3.745  0.2182 -0.1279  0.2026
  167SAPE  H15R18768   0.322   3.395   3.809 -1.8129  1.0105 -0.0284
  167SAPE  C21618769   0.415   3.600   3.815 -0.0646 -0.1779  0.4229
  167SAPE  H16R18770   0.345   3.640   3.891  0.8558  2.9641 -0.2225
  167SAPE  H16S18771   0.400   3.682   3.741 -0.6124 -0.0192  0.7066
  167SAPE  C21718772   0.551   3.617   3.889 -0.1392 -0.1772  0.1933
  167SAPE  H17R18773   0.630   3.579   3.820 -0.4434 -0.6794  0.1178
  167SAPE  H17S18774   0.549   3.573   3.991  3.1861 -1.1308 -0.0296
  167SAPE  C21818775   0.601   3.760   3.918 -0.3091  0.2211 -0.4902
  167SAPE  H18R18776   0.687   3.758   3.988 -1.8134  1.5448  1.5269
  167SAPE  H18S18777   0.529   3.824   3.975  0.6137  2.4438 -1.6844
  167SAPE  C21918778   0.642   3.835   3.798 -0.5506  0.1836 -0.0344
  167SAPE  H19R18779   0.542   3.835   3.749  0.0276 -2.5213 -1.3960
  167SAPE  H19S18780   0.714   3.785   3.730 -0.9031  0.0707 -0.3271
  167SAPE  C22018781   0.699   3.982   3.822  0.0741  0.4187 -0.7211
  167SAPE  H20R18782   0.722   4.023   3.722  0.8559  0.1059 -0.6740
  167SAPE  H20S18783   0.794   3.980   3.880 -0.2637  1.3250 -0.1169
  167SAPE  H20T18784   0.632   4.045   3.884  1.0428  2.6494 -1.8453
  167SAPE   C3318785   1.177   3.178   3.088  0.6044  0.3058  0.3596
  167SAPE   H3X18786   1.079   3.196   3.136  1.0637 -1.0494  1.8792
  167SAPE   H3Y18787   1.241   3.255   3.137  1.3894 -0.1315  0.0425
  167SAPE   C3418788   1.203   3.036   3.142 -0.0473 -0.4021 -0.1668
  167SAPE   H4X18789   1.313   3.019   3.148  0.0491  0.3662  0.3873
  167SAPE   H4Y18790   1.154   2.966   3.071  2.6315 -1.0447 -1.5077
  167SAPE   C3518791   1.158   3.032   3.292 -0.1033 -0.0057  0.3143
  167SAPE   H5X18792   1.047   3.040   3.293 -0.0333  1.0700  0.4635
  167SAPE   H5Y18793   1.203   3.117   3.347  1.1081 -0.4024 -0.0448
  167SAPE   C3618794   1.195   2.903   3.374 -0.4361  0.0463 -0.2060
  167SAPE   H6X18795   1.298   2.921   3.413  0.0154 -2.1739 -0.2644
  167SAPE   H6Y18796   1.199   2.812   3.311  1.8204 -0.8094  1.0471
  167SAPE   C3718797   1.111   2.885   3.512  0.0399  0.1312  0.5635
  167SAPE   H7X18798   1.008   2.870   3.473 -0.6510  3.0041  0.9985
  167SAPE   H7Y18799   1.110   2.986   3.560 -0.1586  0.9430 -1.0648
  167SAPE   C3818800   1.171   2.772   3.592  0.7763  0.5787  0.0176
  167SAPE   H8X18801   1.279   2.785   3.614  0.8931  1.1923 -0.8434
  167SAPE   H8Y18802   1.170   2.680   3.528  0.0148 -0.9561  2.1170
  167SAPE   C3918803   1.099   2.757   3.728  0.3771 -0.2005 -0.7752
  167SAPE   H9X18804   0.996   2.728   3.699 -1.0013  0.7558  2.6643
  167SAPE   H9Y18805   1.094   2.861   3.766  2.4774  0.3665 -1.8785
  167SAPE  C31018806   1.175   2.663   3.818  0.4263  0.5085 -0.1217
  167SAPE  H10X18807   1.284   2.682   3.802  0.4724  0.7147  0.4376
  167SAPE  H10Y18808   1.156   2.563   3.774  3.1362  0.8915 -2.5145
  167SAPE  C31118809   1.153   2.687   3.963  0.0433 -0.8473 -0.3231
  167SAPE  H11X18810   1.051   2.650   3.990  0.5912 -1.2639  1.2874
  167SAPE  H11Y18811   1.146   2.797   3.978 -0.7775 -0.7857 -1.0838
  167SAPE  C31218812   1.251   2.634   4.072  0.1274 -0.3994 -0.2730
  167SAPE  H12X18813   1.317   2.714   4.112  0.8792  0.4890 -3.0516
  167SAPE  H12Y18814   1.313   2.553   4.028 -1.5789 -0.9562 -1.7709
  167SAPE  C31318815   1.182   2.571   4.199  0.7444  0.6440  0.4942
  167SAPE  H13X18816   1.107   2.495   4.169  0.3037  1.6296 -0.9997
  167SAPE  H13Y18817   1.119   2.652   4.242 -1.3910 -1.6021  1.8593
  167SAPE  C31418818   1.284   2.530   4.301  0.1076 -1.0330 -0.5288
  167SAPE  H14X18819   1.355   2.615   4.318 -0.2818 -0.8759  0.3712
  167SAPE  H14Y18820   1.351   2.449   4.265 -0.8778 -1.6446 -1.0258
  167SAPE  C31518821   1.221   2.509   4.445 -0.1616 -0.2484 -0.4840
  167SAPE  H15X18822   1.157   2.418   4.438 -0.5145 -0.3702  2.7265
  167SAPE  H15Y18823   1.153   2.592   4.473  0.5599  0.3308 -0.4367
  167SAPE  C31618824   1.330   2.480   4.556  0.0008 -0.2176  0.2821
  167SAPE  H16X18825   1.429   2.523   4.531 -0.5395 -0.2557 -2.0726
  167SAPE  H16Y18826   1.340   2.371   4.575 -0.0844 -0.6105 -1.7476
  167SAPE  C31718827   1.296   2.543   4.693 -0.1244 -0.1246 -0.0299
  167SAPE  H17X18828   1.358   2.493   4.771  0.8534 -1.0330 -1.3298
  167SAPE  H17Y18829   1.188   2.528   4.712 -0.8781 -1.8733 -4.3804
  167SAPE  C31818830   1.337   2.690   4.699  0.7133  0.5054 -0.7201
  167SAPE  H18X18831   1.299   2.735   4.793 -0.1151 -1.9644  0.2292
  167SAPE  H18Y18832   1.286   2.738   4.612 -0.3918 -0.6001 -0.7224
  167SAPE  H18Z18833   1.447   2.692   4.688  1.1120 -1.7823  1.8563
  168SAPE     N18834   3.524   0.107   2.298  0.1583 -0.7225  0.3245
  168SAPE   HN118835   3.485   0.153   2.383 -0.9592  0.5553 -0.8230
  168SAPE   HN218836   3.495   0.008   2.290  0.3500 -0.7957  0.5139
  168SAPE   HN318837   3.626   0.106   2.318  0.3287  0.6719 -0.3640
  168SAPE   C1218838   3.502   0.185   2.175 -0.5035  0.3476 -0.5975
  168SAPE  H12A18839   3.394   0.186   2.148 -1.7724 -0.2871  3.7758
  168SAPE  H12B18840   3.564   0.142   2.093  0.3523  0.8316 -0.2165
  168SAPE   C1118841   3.558   0.328   2.192 -0.8653  0.3137  0.5141
  168SAPE  H11A18842   3.522   0.363   2.291  0.0389  0.0128  0.9555
  168SAPE  H11B18843   3.521   0.381   2.102  1.7258 -1.2442 -1.6118
  168SAPE     P18844   3.797   0.301   2.295  0.1218  0.0798 -0.2978
  168SAPE   O1318845   3.793   0.391   2.407  0.0820 -0.7890 -0.3487
  168SAPE   O1418846   3.784   0.157   2.317 -0.2210  0.2573  0.2797
  168SAPE   O1218847   3.697   0.349   2.186  0.3246  0.9438 -0.0989
  168SAPE   O1118848   3.931   0.336   2.225 -0.2250 -0.6168 -0.4039
  168SAPE    C118849   4.050   0.260   2.231 -0.2974 -0.0413  0.2500
  168SAPE    HA18850   4.026   0.154   2.208 -0.0082  0.3821 -2.2204
  168SAPE    HB18851   4.120   0.293   2.152 -1.2678  1.4668 -0.0315
  168SAPE    C218852   4.130   0.257   2.369  0.4352  1.4013  0.3575
  168SAPE    HS18853   4.054   0.224   2.443 -0.3305 -0.3984 -1.1644
  168SAPE   O2118854   4.188   0.393   2.381  0.0865  0.9814 -0.0639
  168SAPE   C2118855   4.147   0.457   2.490  1.0281 -0.6862 -0.2366
  168SAPE   O2218856   4.081   0.412   2.582  0.1096 -0.4560  0.3885
  168SAPE   C2218857   4.193   0.608   2.491 -1.2143  0.1883  0.2142
  168SAPE   H2R18858   4.295   0.609   2.445 -1.0842  2.9268  0.3962
  168SAPE   H2S18859   4.126   0.672   2.430  1.7113  2.1541 -1.1924
  168SAPE    C318860   4.247   0.153   2.366 -0.5133  0.2037 -1.0358
  168SAPE    HX18861   4.300   0.187   2.274 -1.4364 -3.1328 -2.9713
  168SAPE    HY18862   4.215   0.049   2.341  2.0916 -0.4447 -2.0684
  168SAPE   O3118863   4.334   0.167   2.481 -0.0780 -0.0698 -0.3101
  168SAPE   C3118864   4.291   0.141   2.609 -0.3383  0.0894 -0.2123
  168SAPE   O3218865   4.184   0.087   2.627  0.1979  0.1396 -0.2172
  168SAPE   C3218866   4.375   0.193   2.719  0.3101  0.3366 -0.8234
  168SAPE   H2X18867   4.432   0.285   2.693 -0.3171  1.8090  2.5097
  168SAPE   H2Y18868   4.448   0.113   2.744  0.1323  0.4698  0.1679
  168SAPE   C2318869   4.209   0.667   2.632  0.0992  0.3702 -0.1985
  168SAPE   H3R18870   4.109   0.679   2.679 -0.1002  1.9611 -0.9591
  168SAPE   H3S18871   4.235   0.775   2.622  0.6368  0.1503 -1.3917
  168SAPE   C2418872   4.319   0.598   2.716  0.3590 -0.0574  0.0103
  168SAPE   H4R18873   4.421   0.640   2.698  0.5558 -1.1721 -1.6208
  168SAPE   H4S18874   4.310   0.489   2.698 -0.6443  0.1501 -0.7985
  168SAPE   C2518875   4.274   0.612   2.862  0.1589  0.1562  0.1329
  168SAPE   H5R18876   4.165   0.602   2.873  0.2147 -0.6845  0.0197
  168SAPE   C2618877   4.350   0.646   2.967 -0.6012  0.7127  0.4081
  168SAPE   H6R18878   4.302   0.660   3.065 -3.8308 -0.0204 -0.9289
  168SAPE   C2718879   4.502   0.672   2.970  0.7150  0.4524 -0.3971
  168SAPE   H7R18880   4.547   0.673   2.869 -2.0447  0.3920 -1.7322
  168SAPE   H7S18881   4.565   0.593   3.016 -1.0612  0.2126  1.7793
  168SAPE   C2818882   4.532   0.801   3.040  0.2315  0.5004 -0.4688
  168SAPE   H8R18883   4.450   0.869   3.068 -0.1824 -0.0969 -0.2317
  168SAPE   C2918884   4.649   0.827   3.096  0.4780  0.0119 -0.0051
  168SAPE   H9R18885   4.655   0.925   3.145 -0.5259 -0.5656  1.3568
  168SAPE  C21018886   4.775   0.745   3.079 -0.1410  0.8091 -0.6137
  168SAPE  H10R18887   4.786   0.719   2.972 -4.2194 -2.3420 -0.5444
  168SAPE  H10S18888   4.778   0.644   3.127  3.7169  1.0644  0.0517
  168SAPE  C21118889   4.897   0.826   3.135  0.2702  1.1700  0.0429
  168SAPE  H11R18890   4.974   0.854   3.062 -0.1004  0.8177 -0.4948
  168SAPE  C21218891   4.936   0.819   3.268  0.1940 -0.2975  0.6050
  168SAPE  H12R18892   5.022   0.875   3.307  0.5986  0.9566 -1.8556
  168SAPE  C21318893   4.847   0.759   3.369  0.2982  0.2521 -0.0131
  168SAPE  H13R18894   4.755   0.711   3.329 -0.5502 -0.3163  2.4709
  168SAPE  H13S18895   4.812   0.830   3.447  0.5141  0.4108 -0.0599
  168SAPE  C21418896   4.911   0.645   3.442 -0.6161  0.2232 -0.5807
  168SAPE  H14R18897   4.896   0.544   3.401 -0.4812  0.4934 -1.3041
  168SAPE  C21518898   4.994   0.654   3.548  0.1193 -0.2398 -0.3705
  168SAPE  H15R18899   5.035   0.560   3.586 -1.4714 -1.1911 -0.9316
  168SAPE  C21618900   5.024   0.783   3.627  0.4012  0.1255 -0.5360
  168SAPE  H16R18901   4.938   0.820   3.687  0.3349  0.6068 -0.9188
  168SAPE  H16S18902   5.058   0.852   3.547 -2.1192  0.2894 -1.5720
  168SAPE  C21718903   5.138   0.773   3.723  0.2961  0.0458 -0.7161
  168SAPE  H17R18904   5.177   0.875   3.744 -1.3435  0.8377 -1.3427
  168SAPE  H17S18905   5.225   0.719   3.680  1.3853  0.0707  1.3142
  168SAPE  C21818906   5.114   0.689   3.852 -0.2452 -0.2763 -0.0530
  168SAPE  H18R18907   5.105   0.584   3.818 -0.1161 -0.7073  1.1725
  168SAPE  H18S18908   5.022   0.723   3.905  0.0660  1.2246 -0.4390
  168SAPE  C21918909   5.232   0.694   3.947 -0.4149  0.6592  0.2572
  168SAPE  H19R18910   5.252   0.802   3.964 -0.2251  0.6341  0.2022
  168SAPE  H19S18911   5.326   0.649   3.909 -0.0510  1.7628 -0.2126
  168SAPE  C22018912   5.210   0.625   4.083 -0.0098 -0.1961  0.2470
  168SAPE  H20R18913   5.302   0.612   4.143  0.3096  1.4600  0.1384
  168SAPE  H20S18914   5.178   0.520   4.061  0.0457 -0.1766  0.0762
  168SAPE  H20T18915   5.125   0.673   4.136  0.9392  2.4250 -0.4983
  168SAPE   C3318916   4.303   0.218   2.861 -0.5466  0.2550  0.8831
  168SAPE   H3X18917   4.276   0.119   2.904 -0.6811 -0.9122 -1.6457
  168SAPE   H3Y18918   4.219   0.289   2.849  0.0330  0.5820 -1.9182
  168SAPE   C3418919   4.404   0.283   2.952  0.4802 -0.6987 -0.6695
  168SAPE   H4X18920   4.443   0.371   2.897  0.6251 -0.7791 -0.6961
  168SAPE   H4Y18921   4.484   0.206   2.961  0.2900 -0.9337 -0.9620
  168SAPE   C3518922   4.355   0.325   3.091  0.4569 -0.7446  0.4585
  168SAPE   H5X18923   4.288   0.245   3.129 -0.8698 -0.9897 -2.1534
  168SAPE   H5Y18924   4.301   0.420   3.071 -0.0623 -1.3322 -1.0375
  168SAPE   C3618925   4.465   0.363   3.192 -0.2100  0.6670  0.0977
  168SAPE   H6X18926   4.554   0.413   3.149 -1.0950  1.9300 -0.3493
  168SAPE   H6Y18927   4.490   0.266   3.239 -2.9850 -0.5085 -0.6436
  168SAPE   C3718928   4.411   0.459   3.295  0.2062 -0.2120 -0.1772
  168SAPE   H7X18929   4.327   0.409   3.348  0.4982  0.7282  1.2446
  168SAPE   H7Y18930   4.357   0.543   3.246 -2.5279  0.1448  3.0962
  168SAPE   C3818931   4.520   0.505   3.390  0.4477 -0.1620  0.0383
  168SAPE   H8X18932   4.613   0.538   3.339  1.1561 -2.1343 -0.0171
  168SAPE   H8Y18933   4.544   0.424   3.462 -0.7420  0.4854  1.2150
  168SAPE   C3918934   4.472   0.618   3.483 -0.4162  0.1774 -0.3997
  168SAPE   H9X18935   4.388   0.574   3.541  0.5991 -1.0516  0.1850
  168SAPE   H9Y18936   4.433   0.707   3.428 -0.3227 -0.2698 -1.2064
  168SAPE  C31018937   4.582   0.656   3.582  0.1217 -0.1874  0.5110
  168SAPE  H10X18938   4.674   0.702   3.541 -0.8085  0.3263 -1.0975
  168SAPE  H10Y18939   4.611   0.564   3.638 -0.8903  0.2880  1.8849
  168SAPE  C31118940   4.526   0.754   3.686 -0.4819 -0.0261  0.1072
  168SAPE  H11X18941   4.457   0.707   3.759 -0.7890  0.2271 -0.0176
  168SAPE  H11Y18942   4.463   0.830   3.634 -1.5983 -1.6238 -0.9572
  168SAPE  C31218943   4.637   0.825   3.756 -1.1181 -0.5516  0.2722
  168SAPE  H12X18944   4.606   0.917   3.811 -1.8296  1.2256 -2.8503
  168SAPE  H12Y18945   4.713   0.867   3.686 -1.8393  0.0292 -0.1828
  168SAPE  C31318946   4.712   0.736   3.856 -1.0962  0.3737  0.1677
  168SAPE  H13X18947   4.771   0.815   3.908  1.4126 -0.6711 -0.9199
  168SAPE  H13Y18948   4.782   0.682   3.789 -1.4899 -0.5257  0.4722
  168SAPE  C31418949   4.636   0.646   3.953 -0.4756 -0.6050  0.2529
  168SAPE  H14X18950   4.619   0.552   3.897 -1.2280 -0.4068  0.1368
  168SAPE  H14Y18951   4.534   0.676   3.987 -0.2778 -1.3806  1.6123
  168SAPE  C31518952   4.708   0.592   4.079 -0.3735 -0.8361  0.3991
  168SAPE  H15X18953   4.751   0.677   4.137 -1.1077 -0.2216  0.0615
  168SAPE  H15Y18954   4.796   0.541   4.034  1.3235  2.0870  0.1176
  168SAPE  C31618955   4.610   0.509   4.171  0.5253  1.6162 -0.0621
  168SAPE  H16X18956   4.574   0.417   4.119  3.4110 -0.0744  0.7014
  168SAPE  H16Y18957   4.525   0.570   4.208  1.5238  2.5120  0.7986
  168SAPE  C31718958   4.692   0.448   4.294  0.1494  0.5649 -0.1630
  168SAPE  H17X18959   4.744   0.526   4.353  1.7326 -1.1524  0.8535
  168SAPE  H17Y18960   4.779   0.397   4.246 -1.0251 -0.1698 -1.6142
  168SAPE  C31818961   4.616   0.352   4.391  0.1464  0.8734  0.5375
  168SAPE  H18X18962   4.677   0.317   4.478 -0.9982  0.4195  1.1764
  168SAPE  H18Y18963   4.580   0.265   4.333 -1.0025  0.8644  1.2224
  168SAPE  H18Z18964   4.531   0.412   4.429  1.1034  1.8952  1.1504
  169SAPE     N18965   2.731   2.643   2.087  0.5358  0.1761  0.1423
  169SAPE   HN118966   2.705   2.743   2.081  1.9052  0.4959 -1.0764
  169SAPE   HN218967   2.660   2.588   2.034 -0.1219  0.9350  0.2256
  169SAPE   HN318968   2.731   2.622   2.188  0.1233 -2.1021 -0.2641
  169SAPE   C1218969   2.870   2.626   2.040 -0.1426  0.3646  1.1376
  169SAPE  H12A18970   2.875   2.650   1.932  2.7769 -1.2046  0.8224
  169SAPE  H12B18971   2.893   2.517   2.043 -0.7757  0.2230  1.0822
  169SAPE   C1118972   2.963   2.700   2.137  0.0268  0.5399  0.5768
  169SAPE  H11A18973   3.060   2.708   2.084 -0.8678  1.4427 -1.0135
  169SAPE  H11B18974   2.967   2.643   2.232  0.4622 -0.2230  0.1100
  169SAPE     P18975   3.003   2.937   2.230  0.5444 -0.3899 -0.0109
  169SAPE   O1318976   3.092   2.982   2.120  0.4905 -0.4502  0.3843
  169SAPE   O1418977   2.929   3.047   2.297  0.4109 -0.2422 -0.0427
  169SAPE   O1218978   2.907   2.824   2.183 -0.4828  0.2970  0.3636
  169SAPE   O1118979   3.095   2.878   2.350  0.3739 -0.4365  0.0769
  169SAPE    C118980   3.216   2.812   2.312  0.6095  0.2700  0.1153
  169SAPE    HA18981   3.195   2.712   2.269  0.7763  0.4523 -0.4007
  169SAPE    HB18982   3.270   2.879   2.241 -0.1648  1.7415  0.8659
  169SAPE    C218983   3.308   2.789   2.430  0.2798 -0.7576  0.0999
  169SAPE    HS18984   3.399   2.741   2.388  0.8975  0.8060 -0.4280
  169SAPE   O2118985   3.247   2.710   2.531  0.1073 -0.0060 -0.3964
  169SAPE   C2118986   3.327   2.620   2.592 -0.2535 -0.6357 -0.2391
  169SAPE   O2218987   3.448   2.619   2.574  0.4299  0.0500 -0.6819
  169SAPE   C2218988   3.252   2.539   2.706  0.5459  0.1396 -0.0853
  169SAPE   H2R18989   3.166   2.601   2.738  0.7567  0.4102 -0.0404
  169SAPE   H2S18990   3.209   2.446   2.663 -0.7439  0.4009  0.6091
  169SAPE    C318991   3.345   2.926   2.488  0.0803 -0.0384 -0.4057
  169SAPE    HX18992   3.248   2.962   2.529 -0.3072 -1.2036 -0.2656
  169SAPE    HY18993   3.379   2.985   2.401  0.3925  2.9265  1.5772
  169SAPE   O3118994   3.448   2.920   2.585  0.3618  0.0978 -0.3290
  169SAPE   C3118995   3.429   2.968   2.707 -0.3165 -0.1552 -0.2631
  169SAPE   O3218996   3.320   3.007   2.748 -0.2936  0.2062 -0.4461
  169SAPE   C3218997   3.561   2.964   2.789 -0.6072  0.0370  0.1212
  169SAPE   H2X18998   3.647   3.007   2.734  1.2100 -3.4709  0.0001
  169SAPE   H2Y18999   3.588   2.858   2.808 -2.3956 -0.6307 -0.7880
  169SAPE   C2319000   3.350   2.489   2.812 -0.1421 -0.1001 -0.4725
  169SAPE   H3R19001   3.444   2.458   2.762  2.0196  1.7942  2.1220
  169SAPE   H3S19002   3.309   2.393   2.851 -3.1765  0.9286 -0.8428
  169SAPE   C2419003   3.385   2.598   2.916 -0.1093 -0.4002  1.1528
  169SAPE   H4R19004   3.421   2.694   2.873 -0.4627 -0.5516  0.5103
  169SAPE   H4S19005   3.473   2.570   2.978  0.9195 -0.2395 -0.1806
  169SAPE   C2519006   3.270   2.621   3.007  0.0675 -0.0027  0.1893
  169SAPE   H5R19007   3.190   2.669   2.950  0.3185 -0.3455 -0.4733
  169SAPE   C2619008   3.253   2.601   3.141 -0.5059 -0.6903  0.3887
  169SAPE   H6R19009   3.168   2.653   3.188 -0.9282 -0.8159 -0.2158
  169SAPE   C2719010   3.350   2.533   3.234  0.2143 -0.3842 -0.3266
  169SAPE   H7R19011   3.442   2.594   3.227 -0.6632  1.0037 -0.0754
  169SAPE   H7S19012   3.367   2.430   3.197  1.6614 -0.0740 -0.5616
  169SAPE   C2819013   3.312   2.539   3.380 -0.6901  1.0677  0.0132
  169SAPE   H8R19014   3.207   2.558   3.408 -0.0541  0.5365  3.0888
  169SAPE   C2919015   3.403   2.530   3.484  0.2247  0.0869 -0.5822
  169SAPE   H9R19016   3.360   2.517   3.585  0.9640  3.0081  0.2023
  169SAPE  C21019017   3.561   2.510   3.483  1.1932  0.4242  0.2206
  169SAPE  H10R19018   3.601   2.541   3.384  0.3645 -1.1564 -0.6505
  169SAPE  H10S19019   3.573   2.400   3.490 -1.1317  0.2105  1.8960
  169SAPE  C21119020   3.630   2.567   3.602 -0.5924 -0.3302  0.0703
  169SAPE  H11R19021   3.681   2.664   3.591  0.4231 -0.9120 -0.5297
  169SAPE  C21219022   3.644   2.516   3.728 -0.9383  0.0768  0.3292
  169SAPE  H12R19023   3.688   2.582   3.804  1.9725  0.2800 -1.4000
  169SAPE  C21319024   3.585   2.389   3.790  0.2857  0.3128  0.0189
  169SAPE  H13R19025   3.664   2.311   3.787 -0.0963 -0.4254  3.8419
  169SAPE  H13S19026   3.491   2.359   3.739 -1.2977  1.9452  1.8243
  169SAPE  C21419027   3.555   2.409   3.936 -0.3497 -0.7385 -0.1677
  169SAPE  H14R19028   3.501   2.502   3.960  1.1170  0.2120 -0.4524
  169SAPE  C21519029   3.606   2.334   4.036  0.4066  0.1904  0.5928
  169SAPE  H15R19030   3.584   2.355   4.141 -1.6538 -3.7903  1.1600
  169SAPE  C21619031   3.695   2.209   4.028  1.1465 -0.1200  0.3493
  169SAPE  H16R19032   3.805   2.227   4.032  0.6708  3.2774  2.6392
  169SAPE  H16S19033   3.674   2.161   3.930  2.2350  0.5023 -0.2118
  169SAPE  C21719034   3.664   2.102   4.132  0.6983 -0.1502  0.1086
  169SAPE  H17R19035   3.671   2.000   4.088 -3.9195 -1.8038  2.5495
  169SAPE  H17S19036   3.555   2.112   4.152  0.5540  0.5348 -0.9715
  169SAPE  C21819037   3.740   2.121   4.262 -0.3092  0.2120  0.5623
  169SAPE  H18R19038   3.742   2.226   4.298 -3.1097 -0.6182  3.6610
  169SAPE  H18S19039   3.848   2.102   4.245 -0.3698 -0.7790  1.1897
  169SAPE  C21919040   3.707   2.008   4.370  0.0402  0.1430  0.1334
  169SAPE  H19R19041   3.741   1.913   4.324  0.2010 -0.1230  0.7916
  169SAPE  H19S19042   3.597   1.991   4.380  0.1265 -1.9731 -1.6686
  169SAPE  C22019043   3.786   2.023   4.499  0.8020 -0.6304 -0.5100
  169SAPE  H20R19044   3.783   1.937   4.570  2.7337 -0.4953 -0.1988
  169SAPE  H20S19045   3.765   2.121   4.548  1.8257  0.2932 -1.8357
  169SAPE  H20T19046   3.895   2.037   4.482  1.1143  0.6744  1.9491
  169SAPE   C3319047   3.557   3.046   2.919 -0.8484 -0.7717 -1.0040
  169SAPE   H3X19048   3.521   3.150   2.903  0.0795 -0.5617 -1.8167
  169SAPE   H3Y19049   3.662   3.073   2.941 -1.3037  0.2720 -0.0266
  169SAPE   C3419050   3.488   2.963   3.029  0.0777 -0.4250  0.9446
  169SAPE   H4X19051   3.547   2.869   3.033 -0.1417 -0.6305 -0.2774
  169SAPE   H4Y19052   3.388   2.931   2.993 -0.6260  1.4955  1.0728
  169SAPE   C3519053   3.477   3.036   3.162  0.0297  0.2913 -0.9378
  169SAPE   H5X19054   3.398   3.115   3.161 -0.6579 -0.3831 -2.2793
  169SAPE   H5Y19055   3.580   3.070   3.184  0.1876 -0.8453  0.2390
  169SAPE   C3619056   3.444   2.942   3.281 -0.0027 -0.3325  0.3391
  169SAPE   H6X19057   3.510   2.853   3.286  1.2058  0.5345  0.4093
  169SAPE   H6Y19058   3.343   2.897   3.276 -0.0019 -0.4979  1.6984
  169SAPE   C3719059   3.459   3.007   3.421 -0.2058 -0.2275 -0.1353
  169SAPE   H7X19060   3.380   3.086   3.422  1.6441  1.9223 -3.8724
  169SAPE   H7Y19061   3.555   3.056   3.448 -0.4134 -0.3539  0.8934
  169SAPE   C3819062   3.436   2.915   3.537 -0.6779 -0.2045 -0.5312
  169SAPE   H8X19063   3.531   2.858   3.543  0.3257  1.4074 -0.4784
  169SAPE   H8Y19064   3.343   2.856   3.528 -1.5672  1.0653  0.0882
  169SAPE   C3919065   3.435   2.980   3.677  0.2372 -0.0266  0.2441
  169SAPE   H9X19066   3.340   3.033   3.700  1.2164  2.1337 -0.3572
  169SAPE   H9Y19067   3.508   3.063   3.687  0.0177  0.1242  0.5808
  169SAPE  C31019068   3.455   2.876   3.790 -0.8009  0.2313  0.3648
  169SAPE  H10X19069   3.549   2.820   3.770  0.5968  2.6687 -0.4108
  169SAPE  H10Y19070   3.366   2.810   3.796  0.6165 -1.7885 -0.0873
  169SAPE  C31119071   3.459   2.947   3.926 -0.2660 -0.5263  0.3768
  169SAPE  H11X19072   3.372   3.016   3.936 -0.8592 -1.0703 -0.8428
  169SAPE  H11Y19073   3.551   3.009   3.930 -0.7926  0.4431 -1.5010
  169SAPE  C31219074   3.469   2.840   4.034  0.5585 -0.1461  0.2977
  169SAPE  H12X19075   3.540   2.757   4.013  1.0839  0.9417 -2.9114
  169SAPE  H12Y19076   3.371   2.789   4.030 -1.5309  3.5055  1.0112
  169SAPE  C31319077   3.494   2.885   4.181 -0.1522  0.0291 -0.5247
  169SAPE  H13X19078   3.422   2.968   4.194 -1.2517 -1.1513  1.4166
  169SAPE  H13Y19079   3.601   2.915   4.186 -0.1429 -0.1736  0.6202
  169SAPE  C31419080   3.479   2.773   4.285 -0.3394 -0.3189  0.4143
  169SAPE  H14X19081   3.370   2.750   4.285 -0.6791  1.0356 -1.4477
  169SAPE  H14Y19082   3.507   2.827   4.378 -0.8949  0.2681  0.2466
  169SAPE  C31519083   3.558   2.646   4.265  0.9341 -0.0971 -0.2492
  169SAPE  H15X19084   3.543   2.604   4.163 -2.6686 -0.1569  0.1780
  169SAPE  H15Y19085   3.528   2.578   4.347  1.3494  0.1037  0.0742
  169SAPE  C31619086   3.707   2.677   4.278 -0.6473  0.5648 -0.3069
  169SAPE  H16X19087   3.733   2.718   4.378 -0.9978  0.6921 -0.2648
  169SAPE  H16Y19088   3.741   2.745   4.197 -0.5815  1.7932  0.7147
  169SAPE  C31719089   3.807   2.559   4.262  1.2411  0.5269  0.6687
  169SAPE  H17X19090   3.800   2.504   4.166 -1.8363 -3.7190  2.9672
  169SAPE  H17Y19091   3.772   2.479   4.330  1.2119  0.8109  0.9903
  169SAPE  C31819092   3.945   2.609   4.292 -0.1804  0.1812  0.4572
  169SAPE  H18X19093   4.000   2.653   4.206  0.6635 -2.3975 -0.4262
  169SAPE  H18Y19094   4.004   2.522   4.330 -1.8182 -0.3999  1.7749
  169SAPE  H18Z19095   3.955   2.679   4.377 -1.2700 -0.6347  1.2821
  170SAPE     N19096   1.513   5.493   2.322 -0.0284 -0.1068 -0.3035
  170SAPE   HN119097   1.495   5.513   2.423 -1.2111 -0.7138 -0.3730
  170SAPE   HN219098   1.515   5.577   2.262 -1.8207 -0.1955 -0.5287
  170SAPE   HN319099   1.419   5.452   2.303 -0.9438  0.7729  1.9653
  170SAPE   C1219100   1.619   5.399   2.295 -0.5166  0.3646 -0.0943
  170SAPE  H12A19101   1.610   5.369   2.189  0.6870 -2.7537  0.5643
  170SAPE  H12B19102   1.609   5.305   2.354  3.6465 -0.4462 -0.3938
  170SAPE   C1119103   1.754   5.466   2.310 -0.2066 -0.0364 -0.4981
  170SAPE  H11A19104   1.781   5.518   2.215 -0.9663 -0.1677 -0.7916
  170SAPE  H11B19105   1.823   5.380   2.325  0.9485  0.5557 -2.0427
  170SAPE     P19106   1.908   5.583   2.480 -0.0924 -0.2696  0.6956
  170SAPE   O1319107   1.984   5.608   2.353 -0.2301  0.1345 -1.2187
  170SAPE   O1419108   1.904   5.688   2.578 -0.2103 -0.5676  0.2356
  170SAPE   O1219109   1.760   5.543   2.436  0.2742  0.8541 -0.4205
  170SAPE   O1119110   1.971   5.450   2.538  0.3874  0.2489  0.0767
  170SAPE    C119111   1.883   5.372   2.629 -0.6458 -0.2697  0.3382
  170SAPE    HA19112   1.775   5.368   2.603 -0.7042 -0.5120  0.6167
  170SAPE    HB19113   1.920   5.268   2.621  1.4558  0.1556  2.9874
  170SAPE    C219114   1.902   5.410   2.781 -0.0602  0.5443  0.2022
  170SAPE    HS19115   1.888   5.519   2.794  1.1306  0.6601  0.6155
  170SAPE   O2119116   2.032   5.366   2.830 -0.2890 -0.3386  0.4814
  170SAPE   C2119117   2.127   5.467   2.848  0.5842  1.0493 -0.2055
  170SAPE   O2219118   2.111   5.587   2.823  0.3727  0.6903 -0.2909
  170SAPE   C2219119   2.246   5.403   2.901  0.4926 -0.2789 -0.4230
  170SAPE   H2R19120   2.288   5.351   2.813  1.2533  2.4935 -1.7877
  170SAPE   H2S19121   2.321   5.480   2.928 -0.0071 -0.2055  0.8271
  170SAPE    C319122   1.793   5.342   2.864  0.1333  0.3122 -0.0464
  170SAPE    HX19123   1.798   5.231   2.867  0.1915  0.3268  1.0539
  170SAPE    HY19124   1.698   5.368   2.813 -0.9751  0.1001  1.7941
  170SAPE   O3119125   1.788   5.391   3.001 -0.2756  0.0630  0.0500
  170SAPE   C3119126   1.859   5.319   3.088  0.3263 -0.3981  0.3158
  170SAPE   O3219127   1.905   5.207   3.058 -0.0912 -0.3025  0.5842
  170SAPE   C3219128   1.868   5.386   3.223  0.2755  0.0383  0.0549
  170SAPE   H2X19129   1.763   5.409   3.251  0.0157 -1.9933  0.9747
  170SAPE   H2Y19130   1.935   5.474   3.210  0.1996  0.1722  0.5427
  170SAPE   C2319131   2.218   5.319   3.034 -0.4637 -0.3588  0.3415
  170SAPE   H3R19132   2.158   5.231   3.003 -1.7522  0.2000  1.1491
  170SAPE   H3S19133   2.155   5.379   3.104 -3.7578 -1.5862 -1.3478
  170SAPE   C2419134   2.344   5.281   3.115  0.0834 -0.1813 -0.3689
  170SAPE   H4R19135   2.408   5.218   3.050 -1.5680 -0.2600 -1.9928
  170SAPE   H4S19136   2.306   5.216   3.197  0.2093  1.2008  0.8332
  170SAPE   C2519137   2.417   5.404   3.161  0.7100 -0.9700 -0.5302
  170SAPE   H5R19138   2.486   5.452   3.090  0.7607  1.6374  1.1612
  170SAPE   C2619139   2.407   5.449   3.288 -0.0226  0.2059 -0.2584
  170SAPE   H6R19140   2.470   5.537   3.307  0.4653 -0.0677 -0.5871
  170SAPE   C2719141   2.330   5.381   3.401 -0.2561 -0.0357  0.0502
  170SAPE   H7R19142   2.360   5.274   3.409  0.1591  0.1904  2.0549
  170SAPE   H7S19143   2.223   5.374   3.374 -0.2971 -1.4389  0.5013
  170SAPE   C2819144   2.337   5.457   3.528  0.3485 -0.2347  0.2040
  170SAPE   H8R19145   2.287   5.555   3.518  1.0890  0.0204 -1.4414
  170SAPE   C2919146   2.393   5.415   3.642  0.1055  0.4938 -0.1733
  170SAPE   H9R19147   2.392   5.470   3.737  0.9485  2.2754 -1.1330
  170SAPE  C21019148   2.470   5.290   3.664 -0.3761  0.0217 -0.0344
  170SAPE  H10R19149   2.560   5.328   3.716  0.2131 -1.0177 -0.2590
  170SAPE  H10S19150   2.496   5.242   3.566  0.0734  0.6658 -0.2377
  170SAPE  C21119151   2.386   5.202   3.749 -0.2576 -0.3935 -0.8303
  170SAPE  H11R19152   2.294   5.173   3.696 -0.6123 -0.4864 -0.1707
  170SAPE  C21219153   2.402   5.177   3.879 -0.7004  0.3584  0.1270
  170SAPE  H12R19154   2.332   5.110   3.929  1.5363 -1.3354  1.1564
  170SAPE  C21319155   2.522   5.224   3.969 -0.2692 -0.0084  0.7051
  170SAPE  H13R19156   2.617   5.251   3.918 -0.9558  0.6933 -0.2373
  170SAPE  H13S19157   2.549   5.135   4.030  0.0803 -0.2185  0.2502
  170SAPE  C21419158   2.487   5.346   4.050  0.0598  0.1600  0.1954
  170SAPE  H14R19159   2.516   5.442   4.005 -0.4718  1.6486  2.8072
  170SAPE  C21519160   2.444   5.352   4.181 -0.3995 -0.2768 -0.0619
  170SAPE  H15R19161   2.436   5.450   4.231  0.0134 -0.1084 -0.3199
  170SAPE  C21619162   2.395   5.245   4.266 -0.3594 -0.0825 -0.4597
  170SAPE  H16R19163   2.366   5.152   4.211 -0.5562 -0.7360  0.7107
  170SAPE  H16S19164   2.308   5.278   4.325  0.8896 -0.8539  1.9712
  170SAPE  C21719165   2.505   5.198   4.359  0.3417 -0.6703 -0.4720
  170SAPE  H17R19166   2.527   5.290   4.418 -2.1770  1.4889 -2.6446
  170SAPE  H17S19167   2.597   5.170   4.304 -1.0707 -0.7557 -2.9184
  170SAPE  C21819168   2.463   5.084   4.459 -0.1524 -0.2927  0.0093
  170SAPE  H18R19169   2.367   5.120   4.503 -0.4317 -2.8400  1.7024
  170SAPE  H18S19170   2.538   5.066   4.539  0.4083 -2.2936 -0.8958
  170SAPE  C21919171   2.428   4.951   4.394  0.1311 -0.6847 -0.0468
  170SAPE  H19R19172   2.505   4.930   4.316  1.8227  0.5545  1.2039
  170SAPE  H19S19173   2.332   4.963   4.341  1.5756  3.1055 -2.2400
  170SAPE  C22019174   2.420   4.829   4.483 -0.1523 -0.5087  0.6240
  170SAPE  H20R19175   2.407   4.736   4.423  0.9547  0.9038 -1.9965
  170SAPE  H20S19176   2.344   4.847   4.562 -1.0818  1.0142 -0.5416
  170SAPE  H20T19177   2.514   4.819   4.541 -0.8883 -0.9523  1.7600
  170SAPE   C3319178   1.933   5.298   3.332 -0.3156  0.2404  0.4434
  170SAPE   H3X19179   2.030   5.257   3.296  0.2158  0.4576  1.5556
  170SAPE   H3Y19180   1.861   5.217   3.355 -1.4054  1.3114  0.9522
  170SAPE   C3419181   1.941   5.374   3.466  0.1401  0.0839  0.2299
  170SAPE   H4X19182   1.834   5.401   3.480 -0.8377 -1.0633 -3.6689
  170SAPE   H4Y19183   2.009   5.462   3.459  0.9341 -0.5682 -0.5397
  170SAPE   C3519184   2.005   5.298   3.583  0.0622  0.2032  0.0852
  170SAPE   H5X19185   2.112   5.286   3.555 -0.6045  0.1798 -2.7506
  170SAPE   H5Y19186   1.955   5.199   3.583 -0.8456  0.6163 -1.4596
  170SAPE   C3619187   1.980   5.359   3.723  0.3148  0.2641  0.1202
  170SAPE   H6X19188   1.899   5.434   3.715 -0.5776 -0.7391 -0.4300
  170SAPE   H6Y19189   2.063   5.427   3.752  0.6064 -0.0527  0.0348
  170SAPE   C3719190   1.972   5.255   3.829  0.5298  0.0990  0.1680
  170SAPE   H7X19191   2.070   5.210   3.854  0.1405 -0.5739  0.5022
  170SAPE   H7Y19192   1.918   5.162   3.799  1.4716 -1.3629  2.6956
  170SAPE   C3819193   1.915   5.322   3.953  0.4766 -0.1115  1.0630
  170SAPE   H8X19194   1.811   5.339   3.918 -0.2901 -1.8903  2.3506
  170SAPE   H8Y19195   1.962   5.413   3.997  1.4267 -0.6852  1.2583
  170SAPE   C3919196   1.906   5.222   4.069  0.0464 -0.1125 -0.4649
  170SAPE   H9X19197   1.985   5.144   4.065 -1.0202 -1.2883  0.6989
  170SAPE   H9Y19198   1.808   5.169   4.062  0.9657 -1.7183 -2.2156
  170SAPE  C31019199   1.910   5.299   4.201 -0.1816 -0.6103 -0.9305
  170SAPE  H10X19200   1.836   5.381   4.192 -1.1945 -1.4319 -0.2816
  170SAPE  H10Y19201   2.013   5.342   4.206  0.3415 -1.8358 -0.8261
  170SAPE  C31119202   1.877   5.210   4.322  0.2236  0.2955 -0.6145
  170SAPE  H11X19203   1.771   5.178   4.321  0.1720  0.3968 -2.7541
  170SAPE  H11Y19204   1.893   5.272   4.413 -1.1320 -1.3936  0.8451
  170SAPE  C31219205   1.970   5.084   4.341 -0.0748  0.2019 -0.6249
  170SAPE  H12X19206   2.077   5.109   4.321 -0.3988  1.0227 -1.4527
  170SAPE  H12Y19207   1.941   5.016   4.258 -2.4195 -1.2542  1.2560
  170SAPE  C31319208   1.940   5.004   4.466  0.2649 -0.0433  0.4970
  170SAPE  H13X19209   1.967   4.897   4.451 -3.3176 -0.7881 -2.1449
  170SAPE  H13Y19210   1.829   5.004   4.470  0.0701 -2.9669 -1.7701
  170SAPE  C31419211   2.008   5.051   4.592  0.2280  0.0923  0.1445
  170SAPE  H14X19212   1.972   5.153   4.617  1.1165  1.0248 -2.0705
  170SAPE  H14Y19213   2.117   5.060   4.573  0.2430  0.2341  0.2983
  170SAPE  C31519214   2.006   4.947   4.700 -0.6559  0.2231  0.1851
  170SAPE  H15X19215   2.076   4.863   4.680 -0.6598  0.0146  1.0145
  170SAPE  H15Y19216   1.909   4.900   4.725  0.1160 -0.5377  1.9822
  170SAPE  C31619217   2.035   5.009   4.842 -0.3931 -0.2116  0.4256
  170SAPE  H16X19218   1.960   5.081   4.881 -0.8591 -1.0523  1.1123
  170SAPE  H16Y19219   2.125   5.073   4.825  0.6928 -2.0440 -1.1946
  170SAPE  C31719220   2.062   4.900   4.939 -0.0815 -0.0051 -0.5382
  170SAPE  H17X19221   2.152   4.850   4.896 -1.3769 -1.7039 -1.4123
  170SAPE  H17Y19222   1.972   4.834   4.937 -0.8844  1.0622 -0.3211
  170SAPE  C31819223   2.089   4.938   5.086  0.4084 -0.2509 -0.0792
  170SAPE  H18X19224   2.174   5.010   5.087  0.3559 -0.0982 -2.0230
  170SAPE  H18Y19225   2.119   4.854   5.152  1.5428  0.1730 -0.0322
  170SAPE  H18Z19226   1.999   4.982   5.132  1.4555 -0.1652  1.9989
  171SAPE     N19227   3.144   5.125   2.512 -0.1894  0.3633  0.3050
  171SAPE   HN119228   3.102   5.064   2.439  2.5979  1.7015 -2.6963
  171SAPE   HN219229   3.156   5.224   2.482  0.0676  0.4515  0.6913
  171SAPE   HN319230   3.243   5.106   2.537 -0.4552 -0.9688  0.4192
  171SAPE   C1219231   3.065   5.128   2.638  0.4378 -0.0943 -0.4403
  171SAPE  H12A19232   3.111   5.214   2.692  1.6943 -1.3063  0.4930
  171SAPE  H12B19233   3.085   5.035   2.694 -1.3328  0.7107  1.6936
  171SAPE   C1119234   2.919   5.162   2.624  0.6204 -0.5800  0.1106
  171SAPE  H11A19235   2.896   5.262   2.581 -0.5453 -0.4028  1.0887
  171SAPE  H11B19236   2.881   5.162   2.728 -1.2877  0.3946 -0.5354
  171SAPE     P19237   2.736   4.991   2.589 -0.1613  0.0770 -0.0734
  171SAPE   O1319238   2.613   5.075   2.573  0.0843  0.2095 -0.0819
  171SAPE   O1419239   2.726   4.856   2.523 -0.0118 -0.0935 -0.1983
  171SAPE   O1219240   2.863   5.065   2.547 -0.0882 -0.1960 -0.2999
  171SAPE   O1119241   2.744   4.965   2.743 -0.4288  0.2637 -0.5631
  171SAPE    C119242   2.783   4.837   2.791  0.0513  0.0634 -0.3762
  171SAPE    HA19243   2.870   4.791   2.740 -0.4420 -1.9476  0.5053
  171SAPE    HB19244   2.811   4.850   2.897  1.2549 -0.6976 -0.5751
  171SAPE    C219245   2.667   4.737   2.795  0.1386  0.0231  0.2204
  171SAPE    HS19246   2.642   4.720   2.688  0.2884 -0.8688  0.3161
  171SAPE   O2119247   2.563   4.789   2.881  0.3746 -0.3426 -0.0990
  171SAPE   C2119248   2.441   4.758   2.839  0.1026 -0.1504  0.5085
  171SAPE   O2219249   2.410   4.698   2.740 -0.0033 -0.4382 -0.2919
  171SAPE   C2219250   2.343   4.794   2.945  0.0689 -0.2170 -0.6031
  171SAPE   H2R19251   2.382   4.767   3.046 -0.4590  0.9847 -0.0490
  171SAPE   H2S19252   2.341   4.905   2.937  0.5809 -0.1933 -0.4304
  171SAPE    C319253   2.714   4.590   2.843  0.1667 -0.3991  0.2953
  171SAPE    HX19254   2.796   4.557   2.774  0.3624 -0.0564  0.3610
  171SAPE    HY19255   2.633   4.517   2.824  0.9849 -1.2060 -0.2346
  171SAPE   O3119256   2.752   4.584   2.984  0.3833 -0.2345 -0.0773
  171SAPE   C3119257   2.843   4.495   3.011  0.5864  0.3045 -0.6963
  171SAPE   O3219258   2.890   4.413   2.936  0.4464  0.4478  0.3259
  171SAPE   C3219259   2.884   4.501   3.161 -0.6610 -0.1095  0.0980
  171SAPE   H2X19260   2.811   4.442   3.220 -0.4976 -1.1639 -0.7236
  171SAPE   H2Y19261   2.893   4.609   3.187  2.3857  0.3850 -2.3791
  171SAPE   C2319262   2.203   4.734   2.932  0.8214 -0.0519 -0.0294
  171SAPE   H3R19263   2.215   4.624   2.922  1.7509 -0.0391  0.7802
  171SAPE   H3S19264   2.145   4.773   2.846  0.0009 -2.7241 -0.7553
  171SAPE   C2419265   2.117   4.775   3.062 -0.8118  0.2459  0.5388
  171SAPE   H4R19266   2.165   4.721   3.146 -1.5230  0.1952  0.9269
  171SAPE   H4S19267   2.010   4.746   3.052 -0.8958  1.0980 -1.5261
  171SAPE   C2519268   2.122   4.925   3.083  0.8137 -0.0016  0.3189
  171SAPE   H5R19269   2.107   4.985   2.992 -0.9998 -1.9387 -0.7580
  171SAPE   C2619270   2.144   4.986   3.197 -0.6818 -0.1533 -0.9778
  171SAPE   H6R19271   2.148   5.096   3.192  0.3803 -0.1516 -0.2641
  171SAPE   C2719272   2.162   4.936   3.340 -0.4179  0.6846  0.1193
  171SAPE   H7R19273   2.245   4.994   3.385 -0.8576 -0.0028  1.8716
  171SAPE   H7S19274   2.193   4.829   3.343 -1.9543  0.1834 -0.4989
  171SAPE   C2819275   2.034   4.948   3.418 -0.0005  0.0172  0.1162
  171SAPE   H8R19276   1.950   4.971   3.352  0.8768 -1.3618 -1.5532
  171SAPE   C2919277   2.016   4.927   3.550 -0.6449 -0.8365 -0.0321
  171SAPE   H9R19278   1.915   4.918   3.593 -0.1949 -1.6601  0.8885
  171SAPE  C21019279   2.122   4.897   3.656  0.0495  0.1531  0.3563
  171SAPE  H10R19280   2.112   4.967   3.741  1.1244  0.5842  0.1449
  171SAPE  H10S19281   2.226   4.905   3.617  1.5329  1.9922  4.2294
  171SAPE  C21119282   2.120   4.750   3.705 -0.8962 -0.5979 -0.4138
  171SAPE  H11R19283   2.106   4.676   3.625  0.1247 -1.4914  0.2142
  171SAPE  C21219284   2.144   4.708   3.829 -0.5494  0.0015  0.1189
  171SAPE  H12R19285   2.135   4.601   3.851 -2.3616  0.1492  0.2141
  171SAPE  C21319286   2.172   4.796   3.946 -0.0550 -0.3964  0.1089
  171SAPE  H13R19287   2.076   4.842   3.975  0.5123 -0.5141  2.3176
  171SAPE  H13S19288   2.232   4.885   3.915  0.1153  0.0171  1.5458
  171SAPE  C21419289   2.222   4.711   4.064  0.6159 -0.5335  0.2161
  171SAPE  H14R19290   2.327   4.677   4.060  0.9122  0.0494  2.0347
  171SAPE  C21519291   2.156   4.667   4.176  0.2093 -0.1035 -0.2877
  171SAPE  H15R19292   2.215   4.607   4.246  0.7982  2.1972  1.2910
  171SAPE  C21619293   2.021   4.707   4.220  0.1724  0.0489  0.1472
  171SAPE  H16R19294   1.944   4.696   4.140 -0.4767 -1.6218  0.9698
  171SAPE  H16S19295   2.018   4.813   4.255 -0.8351 -0.2456  1.0094
  171SAPE  C21719296   1.977   4.634   4.347 -0.1449  0.1122 -0.2372
  171SAPE  H17R19297   1.870   4.653   4.368 -0.6684 -2.9164  0.3157
  171SAPE  H17S19298   2.033   4.665   4.437 -0.1682 -2.8260  0.9080
  171SAPE  C21819299   1.986   4.483   4.322  0.3873  0.4474 -0.1057
  171SAPE  H18R19300   2.093   4.457   4.312  0.4001 -0.3958  1.8343
  171SAPE  H18S19301   1.934   4.470   4.224 -2.2815  1.1547  1.1128
  171SAPE  C21919302   1.927   4.399   4.442  0.5613 -0.3088  0.4694
  171SAPE  H19R19303   1.822   4.438   4.446  2.0054  4.1922  0.0617
  171SAPE  H19S19304   1.979   4.425   4.536 -2.4189 -0.5303  2.3376
  171SAPE  C22019305   1.937   4.251   4.429 -0.0246  0.7156  0.2470
  171SAPE  H20R19306   1.934   4.193   4.524  1.2761  0.0132 -0.1094
  171SAPE  H20S19307   2.036   4.224   4.386 -0.5383 -0.2562 -0.3748
  171SAPE  H20T19308   1.857   4.209   4.365 -1.2714  1.4039  1.3000
  171SAPE   C3319309   3.028   4.444   3.199  0.7150 -0.6943  0.2206
  171SAPE   H3X19310   3.109   4.481   3.133 -1.6000 -0.7729 -2.9151
  171SAPE   H3Y19311   3.019   4.336   3.173  2.1633 -0.2928 -2.2140
  171SAPE   C3419312   3.057   4.445   3.349 -0.0727 -0.8013  0.0371
  171SAPE   H4X19313   3.110   4.539   3.374 -2.0254  0.4729 -0.3990
  171SAPE   H4Y19314   3.127   4.360   3.366  0.0935 -0.9278 -1.1726
  171SAPE   C3519315   2.942   4.426   3.444 -0.0478  0.1070 -0.0752
  171SAPE   H5X19316   2.890   4.334   3.411 -0.9948  0.9589 -1.0026
  171SAPE   H5Y19317   2.861   4.501   3.449 -0.5769 -0.5186  1.2106
  171SAPE   C3619318   2.996   4.400   3.589 -0.9263  0.9365 -0.3604
  171SAPE   H6X19319   3.034   4.497   3.627 -0.3812  0.0278  1.5525
  171SAPE   H6Y19320   3.081   4.328   3.592  1.3692  3.4696  2.7936
  171SAPE   C3719321   2.893   4.334   3.680  0.3181 -0.1569  0.2045
  171SAPE   H7X19322   2.884   4.228   3.647 -2.9137  0.2880 -0.7684
  171SAPE   H7Y19323   2.801   4.395   3.669  2.2361  2.5130 -2.8808
  171SAPE   C3819324   2.944   4.328   3.827  0.1709  0.3959 -0.3726
  171SAPE   H8X19325   2.962   4.435   3.853  1.5770  0.8811 -2.9605
  171SAPE   H8Y19326   3.036   4.266   3.821  0.5717  1.0904 -2.0586
  171SAPE   C3919327   2.844   4.268   3.933  0.3138 -0.2800  0.7327
  171SAPE   H9X19328   2.799   4.183   3.878  2.6287 -1.6993  0.8676
  171SAPE   H9Y19329   2.765   4.345   3.949 -0.4581 -0.8437 -0.2930
  171SAPE  C31019330   2.894   4.223   4.072  0.3204 -0.6164  0.6262
  171SAPE  H10X19331   2.985   4.159   4.063  0.1005 -1.0127  1.1613
  171SAPE  H10Y19332   2.811   4.158   4.108 -0.0651 -0.3365  0.2523
  171SAPE  C31119333   2.898   4.349   4.154  0.2501 -0.6523  0.2051
  171SAPE  H11X19334   2.799   4.400   4.143 -0.1038 -1.6226 -1.3171
  171SAPE  H11Y19335   2.972   4.417   4.108 -2.3997  1.0542 -1.8576
  171SAPE  C31219336   2.912   4.325   4.307 -0.3977  1.2978  0.0515
  171SAPE  H12X19337   2.989   4.246   4.317 -2.0337 -0.1290  2.3880
  171SAPE  H12Y19338   2.819   4.299   4.362  0.6230  0.7914  1.5789
  171SAPE  C31319339   2.977   4.440   4.384  0.2648 -0.6754 -0.1708
  171SAPE  H13X19340   2.917   4.533   4.370  0.5764 -0.2949  0.9547
  171SAPE  H13Y19341   3.077   4.462   4.341 -0.1198 -0.7763 -1.1413
  171SAPE  C31419342   2.988   4.418   4.540 -0.4733 -0.1268  1.0744
  171SAPE  H14X19343   3.019   4.316   4.572  1.6264 -0.1924 -0.9396
  171SAPE  H14Y19344   2.885   4.427   4.579 -0.9029 -0.8777  0.1469
  171SAPE  C31519345   3.077   4.518   4.609 -0.0772 -0.3017 -0.0525
  171SAPE  H15X19346   3.053   4.621   4.574 -0.3458  1.2169  4.0940
  171SAPE  H15Y19347   3.181   4.497   4.575 -0.2287 -0.4958 -0.3973
  171SAPE  C31619348   3.060   4.519   4.758 -0.1830 -0.0264 -0.4615
  171SAPE  H16X19349   3.112   4.431   4.801 -4.1828 -1.7490  1.3819
  171SAPE  H16Y19350   2.957   4.517   4.798  0.4028 -2.4039  1.1335
  171SAPE  C31719351   3.108   4.656   4.813 -0.0175  1.4358 -0.5906
  171SAPE  H17X19352   3.112   4.648   4.924  1.5764  3.7342 -0.4115
  171SAPE  H17Y19353   3.034   4.731   4.779  0.0849  0.8448 -2.2131
  171SAPE  C31819354   3.258   4.692   4.789 -0.0108 -0.2028 -0.3283
  171SAPE  H18X19355   3.287   4.692   4.682  0.4789 -3.1392 -0.2945
  171SAPE  H18Y19356   3.323   4.621   4.844 -0.8575 -3.0058 -2.6747
  171SAPE  H18Z19357   3.273   4.794   4.828 -0.2731 -0.6848  1.0932
  172SAPE     N19358   3.099   6.615   2.549 -0.0540  0.1386 -0.2533
  172SAPE   HN119359   3.184   6.559   2.571 -0.5868 -0.1854  1.1143
  172SAPE   HN219360   3.076   6.592   2.450 -0.5982 -0.7149  0.0615
  172SAPE   HN319361   3.134   6.713   2.559 -0.4616  0.1933  0.8026
  172SAPE   C1219362   2.981   6.600   2.635 -0.5477  0.1418 -0.1702
  172SAPE  H12A19363   2.888   6.592   2.574  0.5635 -2.0814 -1.6856
  172SAPE  H12B19364   2.978   6.687   2.705  0.3635 -0.8343  1.1302
  172SAPE   C1119365   2.990   6.471   2.716 -0.6786  0.0881  0.0850
  172SAPE  H11A19366   2.929   6.473   2.809  0.0039  0.1663  0.5365
  172SAPE  H11B19367   3.097   6.453   2.740 -0.4784  0.4798 -0.4809
  172SAPE     P19368   2.828   6.279   2.638  0.3725 -0.0375 -0.0015
  172SAPE   O1319369   2.718   6.362   2.579  0.5397  0.0699 -0.6960
  172SAPE   O1419370   2.851   6.145   2.582 -0.1185 -0.4721  0.2891
  172SAPE   O1219371   2.957   6.367   2.626  0.5073 -0.1015  0.7369
  172SAPE   O1119372   2.804   6.266   2.794 -0.3363 -0.2508  0.4867
  172SAPE    C119373   2.875   6.171   2.865 -0.0671 -0.2813 -0.7121
  172SAPE    HA19374   2.944   6.112   2.801  0.0119  0.6396 -1.5050
  172SAPE    HB19375   2.937   6.230   2.937 -2.3595  1.4200 -0.0238
  172SAPE    C219376   2.773   6.086   2.944 -1.2967  0.2620 -0.2136
  172SAPE    HS19377   2.690   6.154   2.974 -1.9841 -0.0795 -1.2691
  172SAPE   O2119378   2.840   6.024   3.055 -0.1685  0.4063  0.6549
  172SAPE   C2119379   2.862   6.091   3.165  0.0337 -0.5857  0.3016
  172SAPE   O2219380   2.811   6.198   3.184  0.6482 -0.1447  0.1028
  172SAPE   C2219381   2.971   6.036   3.258  0.8362 -0.2009 -0.0909
  172SAPE   H2R19382   3.063   6.011   3.201  1.5335 -0.6543  1.1880
  172SAPE   H2S19383   2.997   6.119   3.327 -0.6352 -0.2448  0.5403
  172SAPE    C319384   2.700   5.978   2.849 -1.1642 -0.6239  0.3264
  172SAPE    HX19385   2.755   5.881   2.858  1.8870  0.5482 -3.1098
  172SAPE    HY19386   2.699   5.997   2.739 -0.0569 -0.7403  0.2894
  172SAPE   O3119387   2.569   5.966   2.900 -0.1258 -0.0208  0.0698
  172SAPE   C3119388   2.519   5.857   2.964 -0.5130 -0.2605  1.1232
  172SAPE   O3219389   2.575   5.749   2.977  0.4696  0.5345 -0.1665
  172SAPE   C3219390   2.373   5.882   3.001 -0.2788  0.1553  0.4314
  172SAPE   H2X19391   2.320   5.870   2.904  2.1595 -1.0111 -0.8438
  172SAPE   H2Y19392   2.366   5.986   3.039  1.5415  0.0910  1.0325
  172SAPE   C2319393   2.919   5.908   3.328 -0.8530  0.2494  0.0126
  172SAPE   H3R19394   2.998   5.870   3.397 -0.6088  1.5620  0.4901
  172SAPE   H3S19395   2.897   5.835   3.247 -1.4442  1.1254 -0.6235
  172SAPE   C2419396   2.778   5.927   3.402 -0.6286  0.2336  1.0680
  172SAPE   H4R19397   2.737   5.829   3.433 -3.2503  0.2448 -1.9334
  172SAPE   H4S19398   2.701   5.956   3.328 -0.4340 -0.8850  0.4075
  172SAPE   C2519399   2.789   6.030   3.518 -0.2107  0.3296  0.4510
  172SAPE   H5R19400   2.883   6.088   3.521 -0.8180  1.4240 -0.7152
  172SAPE   C2619401   2.721   6.019   3.634  0.0157 -0.7133 -0.0877
  172SAPE   H6R19402   2.740   6.092   3.714 -1.5462  1.5747 -1.6660
  172SAPE   C2719403   2.594   5.939   3.649  0.2318 -0.0584  0.4178
  172SAPE   H7R19404   2.565   5.925   3.542  3.1540  0.9237 -0.6198
  172SAPE   H7S19405   2.519   5.994   3.710  0.5410  0.6906  0.1327
  172SAPE   C2819406   2.606   5.801   3.717  0.3328  0.4094 -0.1832
  172SAPE   H8R19407   2.643   5.716   3.658 -0.8877 -2.0836  2.4056
  172SAPE   C2919408   2.568   5.763   3.838 -0.2443  0.2734 -0.5133
  172SAPE   H9R19409   2.567   5.657   3.870 -2.7279 -0.3329 -2.3085
  172SAPE  C21019410   2.508   5.851   3.945 -0.3490  0.1461 -0.3762
  172SAPE  H10R19411   2.456   5.781   4.013  0.1116 -1.7271 -1.8637
  172SAPE  H10S19412   2.426   5.911   3.901 -0.2964 -0.2300 -1.0010
  172SAPE  C21119413   2.610   5.936   4.019 -0.1301 -0.1888  0.5772
  172SAPE  H11R19414   2.705   5.943   3.963 -1.4437 -0.0456 -1.7659
  172SAPE  C21219415   2.595   6.005   4.138  0.0833 -0.0358 -0.0164
  172SAPE  H12R19416   2.679   6.062   4.180  2.0088 -2.1705 -0.7613
  172SAPE  C21319417   2.478   6.007   4.236 -0.0756  0.7938 -1.1420
  172SAPE  H13R19418   2.506   5.973   4.338 -4.1359 -0.9426 -0.4373
  172SAPE  H13S19419   2.400   5.937   4.201 -0.8887  0.5640  1.0272
  172SAPE  C21419420   2.426   6.144   4.241 -0.3339  0.0249 -0.1160
  172SAPE  H14R19421   2.441   6.211   4.155 -0.1172  0.5717  0.3421
  172SAPE  C21519422   2.374   6.211   4.347 -0.2334 -0.0654 -0.7827
  172SAPE  H15R19423   2.341   6.314   4.327  4.0195  1.3186 -1.7862
  172SAPE  C21619424   2.330   6.159   4.478 -0.6914 -0.4035  0.3126
  172SAPE  H16R19425   2.306   6.051   4.467 -1.3770 -0.1203 -1.3181
  172SAPE  H16S19426   2.235   6.208   4.506 -0.2676  1.7905 -1.7713
  172SAPE  C21719427   2.448   6.185   4.579  0.3123  0.2014  0.3977
  172SAPE  H17R19428   2.406   6.168   4.680 -0.1296  2.8579  0.7235
  172SAPE  H17S19429   2.477   6.293   4.577 -0.0304  0.3745  2.8392
  172SAPE  C21819430   2.582   6.118   4.558  0.0729  0.4384  0.2411
  172SAPE  H18R19431   2.615   6.144   4.456  0.5415 -1.2681 -0.0661
  172SAPE  H18S19432   2.564   6.008   4.559  0.8971  0.2960  0.8503
  172SAPE  C21919433   2.686   6.153   4.669 -0.2898 -0.1361  0.1032
  172SAPE  H19R19434   2.646   6.145   4.772 -1.9386 -1.4869 -0.5859
  172SAPE  H19S19435   2.720   6.259   4.664 -0.5732  0.0674  1.7685
  172SAPE  C22019436   2.807   6.075   4.658 -0.1840  0.7760 -0.2407
  172SAPE  H20R19437   2.871   6.083   4.749 -0.2305 -0.8456 -0.0338
  172SAPE  H20S19438   2.876   6.095   4.574  1.6710 -0.1534  0.9780
  172SAPE  H20T19439   2.775   5.969   4.648  1.1577  0.3843 -0.5441
  172SAPE   C3319440   2.320   5.784   3.113 -1.4180  0.9226  0.4381
  172SAPE   H3X19441   2.378   5.807   3.204 -0.2255 -2.1101  0.5841
  172SAPE   H3Y19442   2.338   5.679   3.079  0.5202  1.9394 -1.9840
  172SAPE   C3419443   2.163   5.804   3.127  0.2381  0.1018  0.4380
  172SAPE   H4X19444   2.115   5.760   3.036 -0.0677  0.8729  0.2127
  172SAPE   H4Y19445   2.147   5.914   3.127  0.2719  0.1612 -1.6935
  172SAPE   C3519446   2.112   5.739   3.259  0.1142 -0.7330 -0.0054
  172SAPE   H5X19447   2.145   5.633   3.271 -0.4491 -0.8089  0.9386
  172SAPE   H5Y19448   2.005   5.711   3.265  0.6076 -2.5877  0.9478
  172SAPE   C3619449   2.156   5.818   3.382 -0.0620  0.9560  0.1638
  172SAPE   H6X19450   2.156   5.928   3.365  0.7762  1.4013  2.6107
  172SAPE   H6Y19451   2.265   5.801   3.401 -0.2650 -1.1205 -0.2784
  172SAPE   C3719452   2.086   5.785   3.511 -0.3453  0.6104  0.1618
  172SAPE   H7X19453   2.084   5.675   3.494  1.9575  0.4758  0.4389
  172SAPE   H7Y19454   1.985   5.828   3.521 -1.0284 -0.7416 -0.6741
  172SAPE   C3819455   2.170   5.810   3.642  0.0744 -0.2933  0.1175
  172SAPE   H8X19456   2.175   5.920   3.646  1.1554 -0.1516 -2.9242
  172SAPE   H8Y19457   2.270   5.764   3.629 -0.2140 -0.0015 -4.5817
  172SAPE   C3919458   2.094   5.763   3.768  0.3601  0.1541  0.1507
  172SAPE   H9X19459   2.050   5.664   3.744 -0.5167  0.4659  0.4211
  172SAPE   H9Y19460   2.020   5.843   3.792  1.8710  1.4877  0.5541
  172SAPE  C31019461   2.183   5.759   3.894 -0.2129  0.0228 -0.3351
  172SAPE  H10X19462   2.231   5.858   3.907  0.3286 -0.1215 -1.1659
  172SAPE  H10Y19463   2.264   5.684   3.886 -0.6856 -0.3357 -2.3866
  172SAPE  C31119464   2.098   5.738   4.022 -0.7886 -0.5653 -0.4872
  172SAPE  H11X19465   2.073   5.633   4.047  2.1412 -1.1703  0.2995
  172SAPE  H11Y19466   1.999   5.786   4.010 -1.5261 -1.7029  0.7816
  172SAPE  C31219467   2.166   5.807   4.145  0.9193 -0.1835 -0.4806
  172SAPE  H12X19468   2.188   5.909   4.106 -0.0115  0.5255  0.7722
  172SAPE  H12Y19469   2.262   5.756   4.167  0.6182 -1.3123 -1.6438
  172SAPE  C31319470   2.073   5.798   4.262  0.0980 -0.2064  1.0083
  172SAPE  H13X19471   2.041   5.692   4.268  3.7695 -1.6335 -1.0157
  172SAPE  H13Y19472   1.979   5.853   4.240 -0.2771 -1.1992  0.0809
  172SAPE  C31419473   2.141   5.847   4.392 -0.0871  0.4556  0.2626
  172SAPE  H14X19474   2.176   5.949   4.369  1.2099 -0.3720 -1.6763
  172SAPE  H14Y19475   2.238   5.801   4.422 -0.1420 -0.2971 -0.6724
  172SAPE  C31519476   2.050   5.840   4.515  0.3611  0.1057  0.4737
  172SAPE  H15X19477   2.021   5.733   4.526  0.8985 -0.3036 -1.7434
  172SAPE  H15Y19478   1.963   5.904   4.488  0.6489  0.3867  0.2161
  172SAPE  C31619479   2.107   5.900   4.638 -0.5638  0.5911 -0.2900
  172SAPE  H16X19480   2.131   6.005   4.610 -1.9097  0.6853 -1.1776
  172SAPE  H16Y19481   2.195   5.836   4.657 -0.0424  0.6179 -2.3623
  172SAPE  C31719482   2.023   5.879   4.768 -0.0842  0.2993 -0.3244
  172SAPE  H17X19483   2.008   5.770   4.783  0.3563  0.3792  0.8053
  172SAPE  H17Y19484   1.922   5.921   4.748  0.2392  1.0675 -0.3950
  172SAPE  C31819485   2.087   5.944   4.897  0.1733  0.9310  0.3766
  172SAPE  H18X19486   2.191   5.910   4.914  0.1688  2.3057  3.8012
  172SAPE  H18Y19487   2.026   5.932   4.989 -1.8378  1.2264 -0.8412
  172SAPE  H18Z19488   2.107   6.052   4.875 -0.4073  0.9617 -0.0298
  173SLPC     N19489   2.831   5.328   7.584 -0.2601  0.5590  0.0837
  173SLPC   C1319490   2.831   5.193   7.528 -0.5722  0.6049 -0.2409
  173SLPC  H13A19491   2.929   5.150   7.521 -0.3409  1.0333  0.3038
  173SLPC  H13B19492   2.774   5.121   7.584 -0.2802 -0.2144 -0.9786
  173SLPC  H13C19493   2.788   5.198   7.428 -0.7803  0.0837 -0.1830
  173SLPC   C1419494   2.912   5.314   7.707  0.7007 -0.3900 -0.1895
  173SLPC  H14A19495   3.015   5.285   7.692  0.9110  0.6939 -0.9613
  173SLPC  H14B19496   2.909   5.407   7.762 -0.6587 -1.7712  2.2136
  173SLPC  H14C19497   2.857   5.252   7.775 -2.1847  1.7288 -0.3999
  173SLPC   C1519498   2.690   5.356   7.631  0.1940  0.2157  0.6777
  173SLPC  H15A19499   2.645   5.295   7.708  0.5831  1.2756  1.7669
  173SLPC  H15B19500   2.684   5.459   7.663 -3.8050 -0.0553  1.2268
  173SLPC  H15C19501   2.627   5.362   7.544  1.2350  1.9979 -0.0157
  173SLPC   C1219502   2.893   5.426   7.487 -0.1383  0.2643 -0.0785
  173SLPC  H12A19503   2.996   5.397   7.480 -0.2548  0.0501 -1.0489
  173SLPC  H12B19504   2.886   5.513   7.552 -1.9674 -0.9163  1.4186
  173SLPC   C1119505   2.836   5.447   7.346 -0.2827 -0.1166 -0.4341
  173SLPC  H11A19506   2.847   5.355   7.286 -0.1139  0.4606 -1.3138
  173SLPC  H11B19507   2.901   5.530   7.311 -0.3274 -0.3435 -1.0755
  173SLPC     P19508   2.631   5.586   7.262  0.4884  0.3079  0.4352
  173SLPC   O1319509   2.485   5.581   7.267 -0.2197 -0.1140 -0.3857
  173SLPC   O1419510   2.688   5.712   7.305 -0.2363  0.1944  0.7393
  173SLPC   O1219511   2.694   5.469   7.346  0.9980  0.0184 -0.1310
  173SLPC   O1119512   2.678   5.556   7.109 -0.4407  0.6291 -0.2500
  173SLPC    C119513   2.658   5.429   7.049  0.0393  0.0122  0.5192
  173SLPC    HA19514   2.748   5.368   7.072 -0.1595 -0.7423 -0.6303
  173SLPC    HB19515   2.570   5.378   7.094 -0.0059  0.3091  0.7749
  173SLPC    C219516   2.640   5.444   6.896  0.1738 -0.1402  0.2161
  173SLPC    HS19517   2.741   5.471   6.860 -0.2938  0.1626 -0.9139
  173SLPC   O2119518   2.545   5.550   6.883 -0.7789  0.3793 -0.2005
  173SLPC   C2119519   2.601   5.667   6.856  0.1321 -0.2003 -0.1629
  173SLPC   O2219520   2.717   5.690   6.831  0.0545  0.1743 -0.2745
  173SLPC   C2219521   2.479   5.766   6.856  0.1514 -0.0654 -0.6632
  173SLPC   H2R19522   2.417   5.753   6.947  1.6285 -0.1015  0.3737
  173SLPC   H2S19523   2.510   5.873   6.853  0.2434  0.0601  1.9726
  173SLPC    C319524   2.599   5.313   6.820  0.3078 -0.6751 -0.6728
  173SLPC    HX19525   2.499   5.273   6.844 -0.2876 -0.5725 -2.7509
  173SLPC    HY19526   2.657   5.225   6.854  2.4920  1.0803  0.4619
  173SLPC   O3119527   2.597   5.335   6.676  0.4984 -0.1146  0.0083
  173SLPC   C3119528   2.703   5.290   6.608  0.2583 -0.5228 -0.0535
  173SLPC   O3219529   2.798   5.236   6.657 -0.8293  0.2558  0.0401
  173SLPC   C3219530   2.710   5.346   6.466 -0.1450 -0.4300 -0.7486
  173SLPC   H2X19531   2.634   5.296   6.403 -0.7039 -1.5983  0.8152
  173SLPC   H2Y19532   2.816   5.331   6.436 -0.0500  0.3075 -0.8012
  173SLPC   C2319533   2.381   5.749   6.738 -0.4298 -0.0635  0.2633
  173SLPC   H3R19534   2.288   5.804   6.760 -0.7815 -0.6562  0.2870
  173SLPC   H3S19535   2.339   5.648   6.720 -1.0246  0.1091  0.6592
  173SLPC   C2419536   2.424   5.801   6.606  0.2351 -0.3722 -0.6743
  173SLPC   H4R19537   2.498   5.739   6.550  1.1536 -0.5928  0.7275
  173SLPC   H4S19538   2.480   5.894   6.631 -1.2640  0.3695  0.0324
  173SLPC   C2519539   2.309   5.839   6.515  0.2815  0.8141 -0.2726
  173SLPC   H5R19540   2.235   5.901   6.571  0.3158 -0.2386  0.9813
  173SLPC   H5S19541   2.250   5.752   6.479 -2.6010  2.8326 -0.7807
  173SLPC   C2619542   2.348   5.923   6.392 -0.7337 -0.0480 -0.0156
  173SLPC   H6R19543   2.424   5.862   6.338 -0.6934 -2.1791  2.2530
  173SLPC   H6S19544   2.403   6.008   6.439 -1.5736  0.6659 -0.3064
  173SLPC   C2719545   2.232   5.972   6.302 -0.4487  0.1648  0.5647
  173SLPC   H7R19546   2.180   6.047   6.366  2.9889  2.4246  1.0071
  173SLPC   H7S19547   2.167   5.888   6.273  0.9783 -1.1436  1.0130
  173SLPC   C2819548   2.294   6.036   6.180 -0.5983 -0.6253 -0.4348
  173SLPC   H8R19549   2.363   5.968   6.125 -0.7748 -1.7062  0.6257
  173SLPC   H8S19550   2.359   6.118   6.217 -0.8561 -0.3259 -0.6424
  173SLPC   C2919551   2.194   6.090   6.088 -0.3721 -0.8172  0.0632
  173SLPC   H9R19552   2.137   6.168   6.141  0.7745 -0.5641  0.9727
  173SLPC  C21019553   2.180   6.072   5.958  0.4638  0.6205  1.1847
  173SLPC  H10R19554   2.105   6.130   5.902 -2.2960 -1.1380  2.8228
  173SLPC  C21119555   2.252   5.982   5.863  0.2180 -0.9279 -0.0765
  173SLPC  H11R19556   2.307   5.905   5.920  1.0617 -1.9168 -2.1184
  173SLPC  H11S19557   2.342   6.029   5.818  0.5141  0.4996  1.8622
  173SLPC  C21219558   2.156   5.913   5.768 -0.1464  0.1548 -0.4543
  173SLPC  H12R19559   2.050   5.914   5.800  0.5176  1.0877  1.9266
  173SLPC  C21319560   2.191   5.847   5.655 -0.0841  0.6692  0.2450
  173SLPC  H13R19561   2.116   5.794   5.595  1.7111  0.4303 -1.9173
  173SLPC  C21419562   2.331   5.834   5.602 -0.3507  0.3273  0.2155
  173SLPC  H14R19563   2.339   5.727   5.573 -1.8966  0.0559  0.6836
  173SLPC  H14S19564   2.404   5.856   5.682  0.4584 -0.0924 -0.3894
  173SLPC  C21519565   2.357   5.922   5.482 -1.1028 -0.4597  0.0125
  173SLPC  H15R19566   2.462   5.924   5.447 -1.3736 -0.9562 -0.8475
  173SLPC  H15S19567   2.330   6.026   5.512  2.2995  0.7030 -0.5252
  173SLPC  C21619568   2.291   5.885   5.348 -0.3536  0.3375  0.3584
  173SLPC  H16R19569   2.333   5.952   5.270  2.4785 -1.6765  0.0013
  173SLPC  H16S19570   2.183   5.912   5.353 -0.7485 -0.3073 -2.6051
  173SLPC  C21719571   2.321   5.745   5.291  0.1051  0.3421  0.0391
  173SLPC  H17R19572   2.252   5.676   5.344 -0.3445 -0.5874 -1.6925
  173SLPC  H17S19573   2.428   5.719   5.304  0.2911  1.0217 -0.0760
  173SLPC  C21819574   2.300   5.747   5.140 -0.7468 -0.8202  0.4166
  173SLPC  H18R19575   2.282   5.643   5.106 -4.2619 -1.0747  2.5655
  173SLPC  H18S19576   2.383   5.795   5.084 -0.6398  0.1922  1.4103
  173SLPC  H18T19577   2.205   5.798   5.116  0.3664  0.9702 -0.4155
  173SLPC   C3319578   2.687   5.499   6.458  0.5326 -0.5468  0.2665
  173SLPC   H3X19579   2.745   5.554   6.535 -0.7422  1.0208  0.1689
  173SLPC   H3Y19580   2.582   5.519   6.489  0.3957 -1.0088  0.1075
  173SLPC   C3419581   2.712   5.545   6.310  0.2475  0.6261  0.0283
  173SLPC   H4X19582   2.793   5.479   6.271  1.0552  0.7668  1.4057
  173SLPC   H4Y19583   2.732   5.654   6.300  1.1910  0.4049 -0.5957
  173SLPC   C3519584   2.594   5.535   6.219  0.0526  0.4275 -0.1080
  173SLPC   H5X19585   2.504   5.593   6.249 -1.6149 -1.3162 -1.4985
  173SLPC   H5Y19586   2.557   5.431   6.207 -0.3359  0.7243 -1.8901
  173SLPC   C3619587   2.636   5.577   6.077  0.1828  0.1502  0.1261
  173SLPC   H6X19588   2.693   5.496   6.026 -2.6114 -0.2885 -2.6574
  173SLPC   H6Y19589   2.709   5.660   6.073  1.8901 -1.3076 -2.3415
  173SLPC   C3719590   2.515   5.602   5.988  1.1205 -0.0434 -0.4235
  173SLPC   H7X19591   2.442   5.660   6.049  0.7420 -0.9147 -0.0320
  173SLPC   H7Y19592   2.463   5.511   5.952 -3.3627  2.2574 -0.4096
  173SLPC   C3819593   2.554   5.669   5.852 -0.6236 -0.9301  0.0676
  173SLPC   H8X19594   2.622   5.757   5.860 -0.8328 -0.5572 -1.7759
  173SLPC   H8Y19595   2.457   5.691   5.803  0.0520  2.1380 -0.0826
  173SLPC   C3919596   2.615   5.575   5.751 -0.7397 -0.7393 -0.6952
  173SLPC   H9X19597   2.548   5.487   5.738 -1.3640 -0.2742 -0.7109
  173SLPC   H9Y19598   2.713   5.535   5.784 -0.2523  1.5819  0.9201
  173SLPC  C31019599   2.646   5.634   5.616  0.5411 -0.4964 -0.3975
  173SLPC  H10X19600   2.715   5.721   5.626 -0.5002  0.2311  0.7570
  173SLPC  H10Y19601   2.549   5.669   5.575 -0.2131 -1.9715  0.0688
  173SLPC  C31119602   2.706   5.533   5.524 -0.8941  0.0170 -0.0604
  173SLPC  H11X19603   2.661   5.432   5.523  0.1313 -0.4567 -0.1966
  173SLPC  H11Y19604   2.814   5.518   5.545 -1.0342 -1.6206 -0.4098
  173SLPC  C31219605   2.708   5.584   5.375 -0.1251  0.0377 -0.6941
  173SLPC  H12X19606   2.761   5.682   5.369  0.9149 -0.3588  1.1755
  173SLPC  H12Y19607   2.603   5.617   5.358 -0.6587 -0.7110  0.9551
  173SLPC  C31319608   2.744   5.477   5.266  0.5901 -0.0293  0.4174
  173SLPC  H13X19609   2.665   5.399   5.265  1.7901 -1.2802 -0.0900
  173SLPC  H13Y19610   2.836   5.421   5.296  0.4735  0.1515  1.1346
  173SLPC  C31419611   2.779   5.555   5.138 -0.3618  0.4612 -0.2130
  173SLPC  H14X19612   2.870   5.614   5.158  0.3974  0.0826 -2.2442
  173SLPC  H14Y19613   2.707   5.626   5.091  1.0804  1.9789 -0.1999
  173SLPC  C31519614   2.821   5.466   5.019 -0.3400 -0.3569 -0.3790
  173SLPC  H15X19615   2.744   5.389   5.002 -0.2310 -0.1832 -1.7999
  173SLPC  H15Y19616   2.924   5.431   5.041  0.8300  2.3524 -1.1229
  173SLPC  C31619617   2.821   5.536   4.885  0.1472  0.0781  0.0633
  173SLPC  H16X19618   2.882   5.629   4.891 -0.5472  0.4416  1.8371
  173SLPC  H16Y19619   2.715   5.568   4.874 -0.0402 -0.8066 -0.8812
  173SLPC  C31719620   2.864   5.455   4.766 -0.2337  0.2145 -0.1735
  173SLPC  H17X19621   2.793   5.370   4.763 -0.2817  0.2682 -0.5678
  173SLPC  H17Y19622   2.965   5.411   4.782  0.1318  0.5901 -1.3533
  173SLPC  C31819623   2.857   5.528   4.633 -0.4059 -0.3039 -0.8743
  173SLPC  H18X19624   2.767   5.593   4.630 -0.8758 -0.7813  1.3346
  173SLPC  H18Y19625   2.857   5.447   4.556 -0.6162 -0.5822 -0.5852
  173SLPC  H18Z19626   2.951   5.587   4.630 -0.9442  0.5332 -2.6109
  174SLPC     N19627   5.970   5.485   7.436  0.1639 -0.5852 -0.5029
  174SLPC   C1319628   6.018   5.374   7.532  0.9440 -0.1402 -0.0210
  174SLPC  H13A19629   5.983   5.281   7.489  2.4379  0.2839 -2.3191
  174SLPC  H13B19630   6.125   5.368   7.527  0.8801 -1.2046 -0.3672
  174SLPC  H13C19631   5.981   5.385   7.633 -1.1676 -0.8915 -0.6458
  174SLPC   C1419632   6.022   5.618   7.484 -0.0202 -0.3800 -0.0969
  174SLPC  H14A19633   5.987   5.649   7.581 -0.6353 -0.4841 -0.2807
  174SLPC  H14B19634   6.129   5.616   7.494 -0.1948  1.2327  3.9107
  174SLPC  H14C19635   6.013   5.702   7.416  1.8108  0.1274  0.2416
  174SLPC   C1519636   5.820   5.485   7.435  0.8643 -0.3622 -0.3635
  174SLPC  H15A19637   5.785   5.576   7.389  0.2880 -0.2690  0.2471
  174SLPC  H15B19638   5.778   5.397   7.388 -0.4347  0.2472 -0.3826
  174SLPC  H15C19639   5.782   5.488   7.536  1.0140  0.1945 -0.3211
  174SLPC   C1219640   6.024   5.467   7.292  0.2680  0.2273 -0.0901
  174SLPC  H12A19641   5.988   5.372   7.256 -0.3062 -0.6748  2.6432
  174SLPC  H12B19642   6.132   5.471   7.295  0.2563  0.1905  0.5622
  174SLPC   C1119643   5.977   5.579   7.191  0.2803  0.1820  0.3909
  174SLPC  H11A19644   5.869   5.606   7.187  0.8172  2.5520  0.1297
  174SLPC  H11B19645   5.984   5.539   7.087 -0.9475  2.5920 -0.7259
  174SLPC     P19646   6.220   5.678   7.162  0.0895 -0.3208  0.3632
  174SLPC   O1319647   6.293   5.799   7.198  0.2968  0.3974 -0.0380
  174SLPC   O1419648   6.271   5.560   7.219  0.3054 -0.8461 -0.1833
  174SLPC   O1219649   6.064   5.698   7.192  0.2363 -0.4428  0.0780
  174SLPC   O1119650   6.225   5.660   7.003  0.4368 -0.5928 -0.2061
  174SLPC    C119651   6.222   5.777   6.917  0.7869  0.1986  0.4042
  174SLPC    HA19652   6.285   5.858   6.961 -2.3443  1.5527  2.7657
  174SLPC    HB19653   6.264   5.745   6.819 -0.9385 -1.0386  0.0292
  174SLPC    C219654   6.077   5.827   6.881  0.7183 -0.1541  0.3485
  174SLPC    HS19655   6.025   5.851   6.977 -0.1836  0.2756 -0.2287
  174SLPC   O2119656   5.999   5.728   6.812  0.0831 -0.1570 -0.3450
  174SLPC   C2119657   5.867   5.719   6.845 -0.1367  0.1053 -0.5069
  174SLPC   O2219658   5.812   5.798   6.917 -0.1406  0.1447  0.6878
  174SLPC   C2219659   5.789   5.600   6.791  0.2008  0.4748 -0.2611
  174SLPC   H2R19660   5.859   5.531   6.740 -0.0574  0.2544 -0.3213
  174SLPC   H2S19661   5.762   5.545   6.884  3.1937 -0.1039  0.3606
  174SLPC    C319662   6.090   5.963   6.797 -0.2808 -0.0243  0.5142
  174SLPC    HX19663   6.156   6.028   6.857  0.7945 -1.3758  0.8440
  174SLPC    HY19664   5.990   6.011   6.787 -0.3508 -0.0983  0.8456
  174SLPC   O3119665   6.159   5.945   6.670 -0.0619  0.1380  0.5664
  174SLPC   C3119666   6.092   5.917   6.565  0.0823  0.1675  0.0927
  174SLPC   O3219667   5.971   5.914   6.558 -0.4230  0.5884  0.3827
  174SLPC   C3219668   6.193   5.903   6.460  0.2973 -0.1614  0.3212
  174SLPC   H2X19669   6.260   5.822   6.495  0.2403  0.9646  3.3851
  174SLPC   H2Y19670   6.254   5.996   6.457  2.1622 -1.2752  1.5772
  174SLPC   C2319671   5.655   5.627   6.721 -0.4051  0.6629  0.3789
  174SLPC   H3R19672   5.596   5.707   6.771 -0.4568 -0.2759  1.8912
  174SLPC   H3S19673   5.599   5.531   6.731  0.5989  0.1431  1.2776
  174SLPC   C2419674   5.677   5.667   6.576 -0.2657 -0.0654 -0.7896
  174SLPC   H4R19675   5.773   5.630   6.533 -0.0608  0.8787 -1.1600
  174SLPC   H4S19676   5.688   5.777   6.578 -1.3136  0.0421 -0.2165
  174SLPC   C2519677   5.569   5.626   6.478 -1.1195  0.5946 -0.6581
  174SLPC   H5R19678   5.467   5.638   6.521 -2.3807 -3.7312 -1.9035
  174SLPC   H5S19679   5.572   5.517   6.456 -0.8513  0.4896 -0.1008
  174SLPC   C2619680   5.587   5.704   6.348  0.0452  0.5500 -0.1889
  174SLPC   H6R19681   5.674   5.654   6.301  0.3677 -0.2472  1.1867
  174SLPC   H6S19682   5.606   5.809   6.378 -3.3290  1.2457 -0.0534
  174SLPC   C2719683   5.459   5.701   6.256 -0.7850  0.2742  0.9457
  174SLPC   H7R19684   5.480   5.768   6.170  0.7909 -0.6403  0.5584
  174SLPC   H7S19685   5.376   5.749   6.312  0.5502  1.4384  2.0202
  174SLPC   C2819686   5.418   5.553   6.227  0.6546  0.0241 -0.8244
  174SLPC   H8R19687   5.354   5.501   6.302  0.1745 -0.8643 -1.8193
  174SLPC   H8S19688   5.510   5.495   6.208 -0.4800 -1.6228 -1.5363
  174SLPC   C2919689   5.347   5.558   6.093  0.1655 -0.4308 -0.3278
  174SLPC   H9R19690   5.243   5.590   6.104  0.8338  1.0508  2.8916
  174SLPC  C21019691   5.401   5.577   5.973 -0.1210  1.4229  0.2190
  174SLPC  H10R19692   5.331   5.591   5.889 -0.7615 -0.6818  0.3351
  174SLPC  C21119693   5.543   5.578   5.930  0.2123 -0.4645  0.8789
  174SLPC  H11R19694   5.603   5.629   6.009  2.8953 -1.6406 -0.2480
  174SLPC  H11S19695   5.556   5.648   5.845 -0.6858  1.1391  1.9900
  174SLPC  C21219696   5.595   5.434   5.916  0.5903  0.2180  0.0694
  174SLPC  H12R19697   5.623   5.383   6.010 -1.4494 -0.3882  0.3998
  174SLPC  C21319698   5.634   5.377   5.805  0.0649  0.1576  0.5152
  174SLPC  H13R19699   5.664   5.272   5.800 -0.2926  0.0814 -0.0706
  174SLPC  C21419700   5.622   5.434   5.667  0.0449 -0.8782  0.6104
  174SLPC  H14R19701   5.722   5.426   5.619  0.7924  2.6664  1.2590
  174SLPC  H14S19702   5.597   5.542   5.658  1.4619 -0.7102 -2.4242
  174SLPC  C21519703   5.506   5.367   5.595 -0.9178 -0.0538 -0.7292
  174SLPC  H15R19704   5.414   5.383   5.655 -0.0525  2.2784  0.0604
  174SLPC  H15S19705   5.534   5.260   5.589  2.2816  0.6376  0.1542
  174SLPC  C21619706   5.481   5.427   5.455  0.2065  0.3836 -0.2237
  174SLPC  H16R19707   5.456   5.535   5.451  0.1756  0.4372  1.0328
  174SLPC  H16S19708   5.394   5.371   5.415 -1.0166  0.1715  2.5086
  174SLPC  C21719709   5.603   5.385   5.368 -0.0856  0.0672 -0.3347
  174SLPC  H17R19710   5.696   5.440   5.392  1.7600 -2.1428 -1.9663
  174SLPC  H17S19711   5.578   5.416   5.265  0.7711  1.4008 -0.1634
  174SLPC  C21819712   5.635   5.237   5.359  0.3686 -0.7893  0.7930
  174SLPC  H18R19713   5.663   5.206   5.462  0.4368 -0.5603  0.8419
  174SLPC  H18S19714   5.729   5.227   5.301  0.1585 -0.1547  0.3404
  174SLPC  H18T19715   5.556   5.176   5.310 -0.0065  1.5465 -1.7121
  174SLPC   C3319716   6.151   5.892   6.308  0.2453  0.1291  0.4347
  174SLPC   H3X19717   6.071   5.957   6.269 -0.5022 -2.6370 -3.1819
  174SLPC   H3Y19718   6.107   5.794   6.281 -0.6872  0.4812  0.6626
  174SLPC   C3419719   6.272   5.914   6.216 -0.1678  0.0724  0.3398
  174SLPC   H4X19720   6.352   5.840   6.236  0.5032  0.6221 -0.2693
  174SLPC   H4Y19721   6.307   6.016   6.239  2.5947 -0.7305  0.0280
  174SLPC   C3519722   6.231   5.915   6.073  0.0806  0.7800 -0.1730
  174SLPC   H5X19723   6.166   6.003   6.059 -2.1595 -0.7282  0.2030
  174SLPC   H5Y19724   6.174   5.819   6.064 -1.6990  1.7576  0.2433
  174SLPC   C3619725   6.337   5.932   5.961 -0.4304 -0.4035 -0.3832
  174SLPC   H6X19726   6.411   5.852   5.985  0.4858 -0.5684 -3.2949
  174SLPC   H6Y19727   6.392   6.028   5.974 -2.1221  0.4387  0.8396
  174SLPC   C3719728   6.277   5.915   5.822  0.0531 -0.5934  0.4706
  174SLPC   H7X19729   6.203   5.997   5.808  0.4017 -0.6053 -1.6616
  174SLPC   H7Y19730   6.239   5.811   5.810 -1.1089  0.0237 -1.4852
  174SLPC   C3819731   6.388   5.927   5.720  0.3995 -0.0785  0.2372
  174SLPC   H8X19732   6.458   5.842   5.729  1.1284  0.4349 -0.4037
  174SLPC   H8Y19733   6.445   6.021   5.736 -2.2177  1.4857  0.9300
  174SLPC   C3919734   6.338   5.930   5.578  0.0463  0.4162  0.8491
  174SLPC   H9X19735   6.267   6.016   5.572 -2.3230 -1.4423  0.7407
  174SLPC   H9Y19736   6.274   5.843   5.556 -0.9530  1.4938 -0.7301
  174SLPC  C31019737   6.431   5.953   5.461 -0.1467  0.9812  0.5204
  174SLPC  H10X19738   6.521   5.890   5.478  0.7579  2.7529  2.6110
  174SLPC  H10Y19739   6.473   6.055   5.464  1.5171  0.5099 -2.5939
  174SLPC  C31119740   6.375   5.929   5.321 -0.1397  0.6236 -1.0327
  174SLPC  H11X19741   6.266   5.951   5.315 -0.4262 -0.3245  0.2483
  174SLPC  H11Y19742   6.402   5.826   5.291  1.3041  1.0899 -1.3925
  174SLPC  C31219743   6.446   5.999   5.204  0.1094  0.5305  0.2053
  174SLPC  H12X19744   6.554   5.974   5.208 -0.1833 -1.4363 -1.9131
  174SLPC  H12Y19745   6.436   6.108   5.221 -1.7724 -0.0530  4.0882
  174SLPC  C31319746   6.400   5.959   5.063  0.5180  0.4319 -0.6725
  174SLPC  H13X19747   6.303   6.010   5.043  0.5845  1.1303  0.6397
  174SLPC  H13Y19748   6.381   5.853   5.038  0.1008  0.8749 -2.3541
  174SLPC  C31419749   6.493   6.004   4.953 -0.7988 -0.1711  0.1359
  174SLPC  H14X19750   6.578   5.934   4.939 -2.0157 -1.7873  0.5342
  174SLPC  H14Y19751   6.543   6.101   4.974 -1.6505 -0.1604  2.3824
  174SLPC  C31519752   6.423   6.003   4.813  0.1233 -0.1625 -0.3138
  174SLPC  H15X19753   6.329   6.062   4.821  0.9534  0.9631  2.2335
  174SLPC  H15Y19754   6.392   5.900   4.785 -0.3581  0.2236 -1.2319
  174SLPC  C31619755   6.519   6.057   4.708 -0.3235  0.5422  0.0287
  174SLPC  H16X19756   6.605   5.988   4.700 -0.3672  0.4990 -0.0728
  174SLPC  H16Y19757   6.568   6.151   4.743  0.2790  0.4152 -0.4664
  174SLPC  C31719758   6.450   6.082   4.571 -0.6941  0.2124  0.6990
  174SLPC  H17X19759   6.375   6.159   4.597  0.4703  1.1706  1.2913
  174SLPC  H17Y19760   6.406   5.986   4.536  1.0389 -0.6309  0.7219
  174SLPC  C31819761   6.535   6.132   4.455 -0.7951 -0.2875  1.2669
  174SLPC  H18X19762   6.632   6.079   4.443 -0.1719  0.9101  0.7573
  174SLPC  H18Y19763   6.575   6.232   4.481  2.7455 -1.3423  0.4878
  174SLPC  H18Z19764   6.480   6.125   4.359  0.2296  0.2665  0.6162
  175SLPC     N19765   2.825   1.338   6.858 -0.1117 -0.3624 -0.4864
  175SLPC   C1319766   2.901   1.299   6.733 -0.3865 -0.2006  0.1727
  175SLPC  H13A19767   2.851   1.347   6.650  0.3212  0.1660 -0.0427
  175SLPC  H13B19768   3.003   1.330   6.741 -0.2781 -0.8283  1.6254
  175SLPC  H13C19769   2.893   1.192   6.721 -0.3350 -0.3206  1.1390
  175SLPC   C1419770   2.681   1.311   6.831  0.6283  0.5995  0.8417
  175SLPC  H14A19771   2.619   1.323   6.919 -0.9625 -1.0127  0.0263
  175SLPC  H14B19772   2.636   1.360   6.746  2.2555 -0.5316 -0.7513
  175SLPC  H14C19773   2.662   1.208   6.804 -0.2171  1.2323 -1.1481
  175SLPC   C1519774   2.830   1.489   6.884 -0.7351 -0.1727  0.0373
  175SLPC  H15A19775   2.777   1.506   6.977  0.6494 -1.6269  1.1539
  175SLPC  H15B19776   2.931   1.524   6.895 -1.2425  0.4632  4.8011
  175SLPC  H15C19777   2.788   1.550   6.805  1.2208  1.1082 -0.0671
  175SLPC   C1219778   2.883   1.269   6.983 -0.2314 -0.4124 -0.1023
  175SLPC  H12A19779   2.987   1.298   6.980 -0.6270  1.0963  0.1480
  175SLPC  H12B19780   2.887   1.163   6.964  0.2360 -0.0098 -2.6491
  175SLPC   C1119781   2.819   1.299   7.128  0.2062  1.1671 -0.0897
  175SLPC  H11A19782   2.871   1.229   7.197  2.3254  1.9196 -0.8341
  175SLPC  H11B19783   2.713   1.271   7.114 -0.0788  1.6789  0.9927
  175SLPC     P19784   2.967   1.486   7.220  0.3290 -0.0916  0.0704
  175SLPC   O1319785   2.959   1.632   7.265 -0.1253  0.2352 -0.2357
  175SLPC   O1419786   3.023   1.386   7.320  0.2321 -0.3709  0.4045
  175SLPC   O1219787   2.824   1.432   7.172 -0.4543  0.8180 -0.0386
  175SLPC   O1119788   3.055   1.473   7.083  0.0395 -0.2508  0.1744
  175SLPC    C119789   3.184   1.541   7.061  0.3283 -0.6297 -0.2290
  175SLPC    HA19790   3.171   1.646   7.093  2.3770 -1.2127  3.1218
  175SLPC    HB19791   3.264   1.503   7.129 -0.3762 -0.3274  0.7921
  175SLPC    C219792   3.228   1.549   6.914  0.5215  0.6204  1.0615
  175SLPC    HS19793   3.329   1.594   6.913  0.2741  1.1933  1.3232
  175SLPC   O2119794   3.134   1.628   6.839  0.9245  0.1190  0.5532
  175SLPC   C2119795   3.125   1.756   6.861  0.1102 -0.1884 -0.4753
  175SLPC   O2219796   3.188   1.822   6.947 -0.1691 -0.0165 -0.1395
  175SLPC   C2219797   3.021   1.822   6.763 -0.5940 -0.1203 -0.1566
  175SLPC   H2R19798   3.060   1.792   6.664 -1.3806 -0.5040 -0.3578
  175SLPC   H2S19799   2.924   1.779   6.795  0.5910 -2.7119  0.1787
  175SLPC    C319800   3.232   1.406   6.858 -0.2477 -0.0022  0.1399
  175SLPC    HX19801   3.129   1.366   6.864  0.0477 -0.7106  0.6823
  175SLPC    HY19802   3.290   1.340   6.926 -0.4661  0.7804  1.0998
  175SLPC   O3119803   3.288   1.410   6.724 -0.4153 -0.3961  0.4357
  175SLPC   C3119804   3.261   1.309   6.646  0.2407  0.0992  0.4686
  175SLPC   O3219805   3.194   1.211   6.676 -0.3067 -0.2047  0.2080
  175SLPC   C3219806   3.319   1.330   6.503  0.7125 -0.2468 -0.4209
  175SLPC   H2X19807   3.403   1.402   6.512  2.4916 -2.2510 -0.2805
  175SLPC   H2Y19808   3.245   1.378   6.436  0.7684 -0.2984 -0.5207
  175SLPC   C2319809   3.014   1.978   6.754  0.7003  0.5638 -0.0321
  175SLPC   H3R19810   3.113   2.026   6.743  1.5819 -1.3555 -0.9449
  175SLPC   H3S19811   2.958   1.999   6.848  1.0069 -0.8612  0.4907
  175SLPC   C2419812   2.934   2.035   6.634  0.1636  0.3774  0.1989
  175SLPC   H4R19813   2.831   1.993   6.631 -0.7384  2.5068 -0.5109
  175SLPC   H4S19814   2.985   2.010   6.539  0.8086 -1.1142  0.9021
  175SLPC   C2519815   2.900   2.186   6.659  0.1466  0.0246  0.5285
  175SLPC   H5R19816   2.987   2.253   6.674  0.4715 -0.0364 -0.9373
  175SLPC   H5S19817   2.834   2.194   6.748 -1.4572 -0.6655 -0.5547
  175SLPC   C2619818   2.815   2.252   6.544  0.0234 -0.1158 -0.9235
  175SLPC   H6R19819   2.779   2.350   6.580  0.6629 -0.8630  1.9758
  175SLPC   H6S19820   2.728   2.187   6.521 -0.9846  1.5402 -1.9781
  175SLPC   C2719821   2.899   2.276   6.417 -0.0984  0.9097  0.5134
  175SLPC   H7R19822   2.954   2.182   6.392 -1.7062  0.0627  0.0528
  175SLPC   H7S19823   2.977   2.354   6.430  0.7103 -0.0990  2.0835
  175SLPC   C2819824   2.824   2.301   6.288 -1.1653  0.0722 -0.0862
  175SLPC   H8R19825   2.741   2.228   6.284 -0.8209 -0.3393  0.1994
  175SLPC   H8S19826   2.890   2.280   6.201 -0.2603  1.3047  0.2744
  175SLPC   C2919827   2.767   2.444   6.283 -0.1803  0.1470 -0.1067
  175SLPC   H9R19828   2.789   2.504   6.372 -0.8549 -2.2820  1.8354
  175SLPC  C21019829   2.715   2.513   6.173 -0.7127  0.5967 -0.7003
  175SLPC  H10R19830   2.683   2.616   6.195 -1.3951  0.2952 -0.2495
  175SLPC  C21119831   2.694   2.463   6.030  0.0665  0.5554  0.1156
  175SLPC  H11R19832   2.593   2.491   5.991 -0.8872 -0.6633  1.5983
  175SLPC  H11S19833   2.713   2.354   6.025 -0.9442  0.4075 -1.0434
  175SLPC  C21219834   2.803   2.520   5.943  0.1434 -0.3242  0.1262
  175SLPC  H12R19835   2.904   2.491   5.977 -0.2865 -0.7695  1.0630
  175SLPC  C21319836   2.797   2.569   5.817  0.3176 -0.3236 -0.3946
  175SLPC  H13R19837   2.890   2.595   5.764  1.8134 -2.4463  1.0161
  175SLPC  C21419838   2.674   2.609   5.741  0.0898 -0.1415  0.0263
  175SLPC  H14R19839   2.690   2.712   5.703 -0.6647 -0.4899 -1.2985
  175SLPC  H14S19840   2.591   2.613   5.815  1.1053 -1.7681  1.3214
  175SLPC  C21519841   2.647   2.509   5.627  0.4617 -0.6347  0.5225
  175SLPC  H15R19842   2.559   2.543   5.568 -0.2983 -1.7696  0.9730
  175SLPC  H15S19843   2.642   2.407   5.671  2.7481 -1.1622 -0.2792
  175SLPC  C21619844   2.759   2.497   5.522  0.0246  0.1474 -0.7008
  175SLPC  H16R19845   2.853   2.449   5.559 -1.1394 -1.3879  0.4462
  175SLPC  H16S19846   2.791   2.601   5.504  3.2170 -0.9237 -1.9674
  175SLPC  C21719847   2.724   2.431   5.389 -0.3760 -0.7048 -0.1884
  175SLPC  H17R19848   2.665   2.339   5.411 -1.8525  0.1396 -0.5019
  175SLPC  H17S19849   2.815   2.403   5.333  0.4860  2.1079 -0.3230
  175SLPC  C21819850   2.637   2.529   5.298  0.5498 -0.7142 -0.2146
  175SLPC  H18R19851   2.531   2.539   5.330  1.1102 -0.2990  1.6556
  175SLPC  H18S19852   2.649   2.489   5.195  2.5787 -2.3833  0.5859
  175SLPC  H18T19853   2.666   2.636   5.299  1.1542 -0.8665  1.1281
  175SLPC   C3319854   3.362   1.203   6.427  0.0889  0.3529  0.0626
  175SLPC   H3X19855   3.414   1.157   6.514 -2.0609 -0.6024  0.9116
  175SLPC   H3Y19856   3.434   1.212   6.343 -0.4723 -0.4223 -0.5190
  175SLPC   C3419857   3.258   1.105   6.377  0.5875  0.4325  0.5534
  175SLPC   H4X19858   3.174   1.103   6.450  2.2524  0.3126  2.5563
  175SLPC   H4Y19859   3.305   1.004   6.373  3.4857  1.7412 -1.1652
  175SLPC   C3519860   3.204   1.134   6.238  0.1810 -0.2447  0.3716
  175SLPC   H5X19861   3.181   1.241   6.217  2.0413 -0.2215 -1.8844
  175SLPC   H5Y19862   3.106   1.082   6.245 -0.0188  0.3649  2.8681
  175SLPC   C3619863   3.280   1.076   6.122 -0.4165 -0.4874 -0.2435
  175SLPC   H6X19864   3.299   0.967   6.134 -1.7528 -0.9669 -2.0390
  175SLPC   H6Y19865   3.379   1.125   6.135 -1.8928  2.4958  0.6781
  175SLPC   C3719866   3.234   1.112   5.976 -0.1247  0.2341 -0.4766
  175SLPC   H7X19867   3.239   1.223   5.968 -1.1332  0.4883  1.6944
  175SLPC   H7Y19868   3.128   1.079   5.974 -0.0531  0.0558 -1.4646
  175SLPC   C3819869   3.313   1.041   5.869 -0.9552  0.6495 -0.3117
  175SLPC   H8X19870   3.303   0.931   5.878  0.9185  0.6270  3.1278
  175SLPC   H8Y19871   3.418   1.078   5.875 -0.5832 -0.0730 -1.8357
  175SLPC   C3919872   3.270   1.076   5.726  0.1112 -0.7344 -0.5672
  175SLPC   H9X19873   3.355   1.103   5.660 -0.8191  0.0580 -1.4734
  175SLPC   H9Y19874   3.214   1.172   5.730  1.9606  0.3870 -0.1734
  175SLPC  C31019875   3.174   0.978   5.652  0.4506 -0.1347 -0.2873
  175SLPC  H10X19876   3.103   0.942   5.729 -0.4265  0.2734 -0.8876
  175SLPC  H10Y19877   3.221   0.885   5.615  1.7347 -0.0214  0.9676
  175SLPC  C31119878   3.080   1.036   5.551  0.1996  0.1568  0.3565
  175SLPC  H11X19879   3.061   1.142   5.577  1.6655  0.6609 -0.5114
  175SLPC  H11Y19880   2.990   0.972   5.565  1.9119 -2.2468  0.8484
  175SLPC  C31219881   3.133   1.035   5.401  0.3111 -0.4716 -1.2058
  175SLPC  H12X19882   3.132   0.925   5.384 -2.4118 -0.9885  1.3849
  175SLPC  H12Y19883   3.235   1.079   5.396 -0.7653  2.8202  1.4162
  175SLPC  C31319884   3.032   1.101   5.312 -0.7429 -0.1273  0.4463
  175SLPC  H13X19885   3.018   1.209   5.335  0.6229  0.7999 -2.5096
  175SLPC  H13Y19886   2.931   1.056   5.314 -0.8984 -0.3753 -3.6476
  175SLPC  C31419887   3.075   1.098   5.161 -0.0236 -0.2310  0.0582
  175SLPC  H14X19888   3.183   1.123   5.154 -0.6940  3.2541  0.6599
  175SLPC  H14Y19889   3.020   1.179   5.108  2.0237  2.2686  1.5224
  175SLPC  C31519890   3.049   0.953   5.106  0.4419  0.5955  1.0740
  175SLPC  H15X19891   2.938   0.943   5.102  0.6267 -1.4241 -0.8125
  175SLPC  H15Y19892   3.087   0.872   5.173  1.0075 -1.4021 -1.4845
  175SLPC  C31619893   3.088   0.924   4.961 -0.1886 -0.5651 -0.4578
  175SLPC  H16X19894   3.199   0.925   4.951  0.0713 -2.3906  1.3916
  175SLPC  H16Y19895   3.050   1.006   4.897  2.3476 -0.2710 -1.7447
  175SLPC  C31719896   3.048   0.781   4.914 -0.1753 -0.0636 -0.7853
  175SLPC  H17X19897   2.942   0.756   4.934  0.1125  1.0367  2.8112
  175SLPC  H17Y19898   3.106   0.703   4.968  0.8126  0.2711 -1.3342
  175SLPC  C31819899   3.053   0.767   4.761 -0.3563  0.1230  0.0127
  175SLPC  H18X19900   3.053   0.663   4.723 -2.1181  1.5374 -4.5280
  175SLPC  H18Y19901   3.144   0.818   4.720 -1.4423  2.2103  0.0453
  175SLPC  H18Z19902   2.958   0.808   4.720 -0.5580 -1.2968 -0.9914
  176SLPC     N19903   2.155   0.046   7.510  0.2571 -0.5887 -0.2016
  176SLPC   C1319904   2.251  -0.043   7.437  0.3693 -0.0476 -0.8537
  176SLPC  H13A19905   2.348  -0.042   7.484 -0.8264 -0.0595  1.7951
  176SLPC  H13B19906   2.215  -0.145   7.440  0.4553 -0.0575  0.0062
  176SLPC  H13C19907   2.251  -0.021   7.331 -1.6729  0.0267 -0.8800
  176SLPC   C1419908   2.116  -0.015   7.641 -0.2670 -0.3854 -0.4335
  176SLPC  H14A19909   2.192  -0.006   7.717  0.4582 -1.4179 -1.0113
  176SLPC  H14B19910   2.029   0.032   7.685  0.9383  0.0339  1.6262
  176SLPC  H14C19911   2.091  -0.119   7.630 -1.1535 -0.3875  1.2249
  176SLPC   C1519912   2.024   0.066   7.437  0.2404 -0.9107  0.0121
  176SLPC  H15A19913   2.030   0.131   7.352 -0.1371 -0.4548  0.3297
  176SLPC  H15B19914   1.980  -0.028   7.404 -0.1886 -1.0611  0.9561
  176SLPC  H15C19915   1.954   0.107   7.508  1.8371  2.5105 -0.2205
  176SLPC   C1219916   2.217   0.180   7.540 -0.3884  0.0325  0.4719
  176SLPC  H12A19917   2.320   0.173   7.572  0.0864  0.8875 -0.8219
  176SLPC  H12B19918   2.156   0.220   7.620 -3.3421 -3.3423  0.1523
  176SLPC   C1119919   2.225   0.273   7.422 -0.1729 -0.1935  0.4681
  176SLPC  H11A19920   2.125   0.322   7.412 -0.4920 -0.9150  0.0123
  176SLPC  H11B19921   2.237   0.219   7.325  0.9234 -2.1136  1.6119
  176SLPC     P19922   2.471   0.322   7.435  0.0277 -0.2010 -0.1613
  176SLPC   O1319923   2.556   0.437   7.412 -0.3653 -0.2986 -0.6797
  176SLPC   O1419924   2.500   0.226   7.538 -0.0523 -0.1885 -0.1675
  176SLPC   O1219925   2.319   0.374   7.442  0.0516 -0.0443 -0.6791
  176SLPC   O1119926   2.477   0.252   7.291  0.0917  0.4471  0.4169
  176SLPC    C119927   2.517   0.112   7.263 -0.4141 -0.7704 -0.3802
  176SLPC    HA19928   2.539   0.057   7.357  2.1963 -1.4784 -1.3234
  176SLPC    HB19929   2.443   0.060   7.197 -0.2604 -0.5741 -0.7101
  176SLPC    C219930   2.650   0.108   7.181  0.0462 -0.4245 -0.2691
  176SLPC    HS19931   2.726   0.143   7.255 -1.1593  1.0250  0.3423
  176SLPC   O2119932   2.644   0.197   7.067  0.3354 -0.0613 -0.0747
  176SLPC   C2119933   2.739   0.285   7.049 -0.6390 -0.5097 -0.5896
  176SLPC   O2219934   2.832   0.310   7.124 -0.1222  0.4672 -0.1489
  176SLPC   C2219935   2.723   0.358   6.920  0.5148 -0.0026 -0.4030
  176SLPC   H2R19936   2.691   0.290   6.838 -1.0409  0.8981 -0.5757
  176SLPC   H2S19937   2.647   0.436   6.940 -1.1965 -1.8596  0.7878
  176SLPC    C319938   2.679  -0.034   7.133 -0.2635 -0.3418 -0.8466
  176SLPC    HX19939   2.685  -0.098   7.224 -0.8427  1.4553  0.5135
  176SLPC    HY19940   2.783  -0.039   7.094  0.2873  1.1667  0.3446
  176SLPC   O3119941   2.577  -0.092   7.049  0.1306 -0.0491 -0.2358
  176SLPC   C3119942   2.613  -0.147   6.932  0.0904 -0.1590  0.6149
  176SLPC   O3219943   2.725  -0.157   6.888  0.4324  0.0488  0.3414
  176SLPC   C3219944   2.482  -0.173   6.852  0.2192  0.2787  0.0636
  176SLPC   H2X19945   2.396  -0.167   6.921 -1.5724  1.7928 -2.1602
  176SLPC   H2Y19946   2.501  -0.275   6.811 -0.1464 -0.3510  1.4079
  176SLPC   C2319947   2.848   0.434   6.857 -0.1456  0.0815 -0.1121
  176SLPC   H3R19948   2.932   0.362   6.872  0.3652  0.4835 -1.0036
  176SLPC   H3S19949   2.864   0.527   6.915  1.8103 -0.3863  0.1502
  176SLPC   C2419950   2.823   0.459   6.706 -0.5637  0.2826  0.1792
  176SLPC   H4R19951   2.732   0.519   6.688 -0.4523  0.5903  0.6188
  176SLPC   H4S19952   2.809   0.366   6.647 -1.1276  0.1363  0.5383
  176SLPC   C2519953   2.942   0.548   6.658  0.3101  0.4577  0.2066
  176SLPC   H5R19954   3.037   0.493   6.679  0.0517  0.2297  0.7990
  176SLPC   H5S19955   2.945   0.642   6.718 -2.2342  0.1179  0.9744
  176SLPC   C2619956   2.946   0.570   6.506 -0.1128  0.7984  0.7359
  176SLPC   H6R19957   2.854   0.622   6.471 -0.3588 -1.9132 -3.2842
  176SLPC   H6S19958   2.949   0.469   6.461  0.0397  1.8715 -1.7989
  176SLPC   C2719959   3.071   0.652   6.479 -0.0779 -0.8621  0.6523
  176SLPC   H7R19960   3.164   0.612   6.526  0.1300 -0.3610  0.6693
  176SLPC   H7S19961   3.053   0.751   6.526  2.5490 -0.9679  2.1404
  176SLPC   C2819962   3.092   0.663   6.325 -0.6376 -0.0864  0.0490
  176SLPC   H8R19963   3.176   0.733   6.303 -1.9744  1.8740  0.9138
  176SLPC   H8S19964   2.998   0.701   6.279  0.0047  0.6899 -0.6723
  176SLPC   C2919965   3.146   0.531   6.259 -0.8373  0.5234  0.5105
  176SLPC   H9R19966   3.189   0.461   6.332  0.5325 -1.1313 -1.7747
  176SLPC  C21019967   3.144   0.494   6.131 -0.2872  0.0009 -0.6948
  176SLPC  H10R19968   3.193   0.401   6.097 -0.6359 -0.0792 -0.9794
  176SLPC  C21119969   3.091   0.580   6.020 -0.2540  0.1072 -0.2487
  176SLPC  H11R19970   3.179   0.589   5.953  0.7592 -0.3779  0.9859
  176SLPC  H11S19971   3.074   0.686   6.048  2.3845  0.7401 -0.7395
  176SLPC  C21219972   2.962   0.535   5.954 -0.4525  0.3922  0.8014
  176SLPC  H12R19973   2.970   0.434   5.910  1.6558  0.3567  1.1963
  176SLPC  C21319974   2.840   0.598   5.950 -0.7155  0.4460 -0.0026
  176SLPC  H13R19975   2.752   0.545   5.910 -0.2481 -1.4110  1.2969
  176SLPC  C21419976   2.797   0.736   6.003  0.2741 -0.1439  0.0189
  176SLPC  H14R19977   2.795   0.801   5.913 -0.3172 -1.4027 -0.9163
  176SLPC  H14S19978   2.876   0.781   6.067 -0.6960  1.0151  0.4578
  176SLPC  C21519979   2.662   0.741   6.077 -0.7509 -0.5527  0.8778
  176SLPC  H15R19980   2.577   0.725   6.008 -0.9620  2.0665  0.4357
  176SLPC  H15S19981   2.648   0.841   6.123  0.9360  1.0838 -1.8857
  176SLPC  C21619982   2.652   0.636   6.191  0.2275 -0.3676 -0.3150
  176SLPC  H16R19983   2.750   0.629   6.244  0.2682  1.8834  0.0083
  176SLPC  H16S19984   2.628   0.538   6.144 -0.2914 -0.4835  0.1908
  176SLPC  C21719985   2.525   0.655   6.278  0.0045 -0.4889  0.4150
  176SLPC  H17R19986   2.441   0.642   6.207 -1.2581  0.2750  1.7238
  176SLPC  H17S19987   2.527   0.765   6.296  1.0034 -0.0343 -1.9979
  176SLPC  C21819988   2.516   0.564   6.398 -0.6619  0.0843  0.4638
  176SLPC  H18R19989   2.453   0.621   6.470  1.1783  3.0357 -0.0752
  176SLPC  H18S19990   2.620   0.554   6.434 -0.4117 -2.8983 -0.7857
  176SLPC  H18T19991   2.467   0.467   6.376  0.1796 -0.1408 -0.4943
  176SLPC   C3319992   2.469  -0.078   6.737  0.5754 -0.2576 -0.0033
  176SLPC   H3X19993   2.373  -0.108   6.690 -2.0375  3.6919  2.1631
  176SLPC   H3Y19994   2.553  -0.091   6.666  1.5241  0.2741  0.9888
  176SLPC   C3419995   2.464   0.071   6.784  0.1487 -1.3883  0.8419
  176SLPC   H4X19996   2.560   0.113   6.820 -1.4355  1.3705  2.2408
  176SLPC   H4Y19997   2.402   0.059   6.875  1.2451 -1.6068  1.5733
  176SLPC   C3519998   2.386   0.153   6.683 -1.2455 -0.0463 -0.5613
  176SLPC   H5X19999   2.348   0.236   6.747 -0.0853 -0.9053  1.3210
  176SLPC   H5Y20000   2.294   0.100   6.651 -0.4954 -0.6617 -1.8029
  176SLPC   C3620001   2.464   0.218   6.569 -0.4279 -0.1260 -0.1617
  176SLPC   H6X20002   2.547   0.267   6.625  0.1958 -2.2139  0.8446
  176SLPC   H6Y20003   2.405   0.301   6.526  0.2148  1.0495  1.1290
  176SLPC   C3720004   2.502   0.117   6.466  0.0214  0.2069  0.2556
  176SLPC   H7X20005   2.420   0.086   6.397  2.5574 -1.5602 -2.1986
  176SLPC   H7Y20006   2.534   0.020   6.509 -0.7757 -0.2877 -0.2392
  176SLPC   C3820007   2.623   0.172   6.389  0.4478 -0.2697  0.6566
  176SLPC   H8X20008   2.704   0.176   6.464  0.8250 -2.8913  0.4667
  176SLPC   H8Y20009   2.594   0.274   6.353  0.1288 -0.3342  0.7301
  176SLPC   C3920010   2.685   0.078   6.284  0.2324 -0.4646  0.7832
  176SLPC   H9X20011   2.719  -0.017   6.330 -1.1376 -0.7180  1.3373
  176SLPC   H9Y20012   2.771   0.126   6.232 -2.6690  1.4575 -2.6658
  176SLPC  C31020013   2.576   0.047   6.184 -0.4318  0.3663 -0.0277
  176SLPC  H10X20014   2.514   0.133   6.149 -2.0400 -0.2513  1.1844
  176SLPC  H10Y20015   2.509  -0.023   6.238  1.8003 -0.7218  1.4701
  176SLPC  C31120016   2.640  -0.015   6.047  0.2038 -0.7935  0.1794
  176SLPC  H11X20017   2.555  -0.049   5.983  0.0193 -0.3863  0.2016
  176SLPC  H11Y20018   2.701  -0.100   6.082 -0.2486 -0.5689  1.6217
  176SLPC  C31220019   2.725   0.089   5.967  0.4794 -0.2847  0.0607
  176SLPC  H12X20020   2.823   0.088   6.018 -0.2274 -1.6473  1.4508
  176SLPC  H12Y20021   2.689   0.194   5.972  0.1004 -0.3739 -0.5673
  176SLPC  C31320022   2.720   0.065   5.816  0.1688 -0.0103  0.1999
  176SLPC  H13X20023   2.619   0.061   5.770 -0.0726 -2.0591  0.7995
  176SLPC  H13Y20024   2.766  -0.036   5.805  0.7900  0.3885 -1.0971
  176SLPC  C31420025   2.810   0.168   5.744  0.9071 -0.1245 -0.0490
  176SLPC  H14X20026   2.866   0.123   5.659  1.3135 -1.5403  0.9318
  176SLPC  H14Y20027   2.884   0.202   5.819 -0.3406  1.3091  0.5802
  176SLPC  C31520028   2.729   0.287   5.689 -1.1473  0.5437 -0.5635
  176SLPC  H15X20029   2.811   0.344   5.640 -0.5585 -0.8061 -1.1970
  176SLPC  H15Y20030   2.681   0.352   5.765 -1.5065  0.4474 -0.7036
  176SLPC  C31620031   2.625   0.248   5.587 -0.0623 -0.0050  0.8057
  176SLPC  H16X20032   2.538   0.192   5.625  0.3101 -0.3517  1.1605
  176SLPC  H16Y20033   2.672   0.190   5.505 -2.6978 -0.9429 -0.1318
  176SLPC  C31720034   2.557   0.374   5.528 -0.2504 -0.0248 -0.8091
  176SLPC  H17X20035   2.645   0.433   5.495  2.1013 -2.1716  1.2363
  176SLPC  H17Y20036   2.506   0.427   5.611  0.4109 -1.5615  0.6152
  176SLPC  C31820037   2.457   0.348   5.416 -0.6500  0.3219 -0.4854
  176SLPC  H18X20038   2.387   0.266   5.442  0.8510 -1.6406 -2.2985
  176SLPC  H18Y20039   2.516   0.302   5.334 -1.0438  0.5230 -0.8935
  176SLPC  H18Z20040   2.405   0.440   5.380 -0.5380  1.1714  1.4314
  177SLPC     N20041   1.589   6.230   7.518  0.2412 -0.2099 -0.4570
  177SLPC   C1320042   1.517   6.232   7.653 -0.1849 -0.5707 -0.2291
  177SLPC  H13A20043   1.527   6.331   7.695 -0.4754 -0.7928  0.3701
  177SLPC  H13B20044   1.413   6.207   7.642 -0.4172  0.6787 -1.0817
  177SLPC  H13C20045   1.562   6.167   7.727 -1.4393  0.2909  1.3665
  177SLPC   C1420046   1.575   6.087   7.462 -0.3307 -0.0937 -0.2065
  177SLPC  H14A20047   1.588   6.011   7.538  0.8500 -0.1278 -0.4214
  177SLPC  H14B20048   1.476   6.073   7.423  0.4651  2.1166 -3.4329
  177SLPC  H14C20049   1.639   6.060   7.380 -2.2010 -1.0799 -1.4107
  177SLPC   C1520050   1.731   6.263   7.542  0.2356  0.2558  0.2640
  177SLPC  H15A20051   1.783   6.286   7.450 -0.1092 -0.7189 -0.1782
  177SLPC  H15B20052   1.751   6.344   7.611 -1.1827  0.5785  0.3145
  177SLPC  H15C20053   1.777   6.169   7.570  0.7884  1.0367  2.1730
  177SLPC   C1220054   1.520   6.335   7.434  0.0730 -0.4959 -0.5465
  177SLPC  H12A20055   1.547   6.428   7.482 -1.4563 -0.7247  0.8450
  177SLPC  H12B20056   1.414   6.318   7.426  0.1956 -0.5561 -2.4014
  177SLPC   C1120057   1.565   6.353   7.287  0.1005 -0.0002  0.0339
  177SLPC  H11A20058   1.502   6.442   7.263 -1.0847 -0.4688  1.2732
  177SLPC  H11B20059   1.532   6.279   7.212  0.9316  0.7627 -1.1155
  177SLPC     P20060   1.759   6.499   7.194 -0.1063 -0.3023 -0.3958
  177SLPC   O1320061   1.670   6.610   7.238 -0.1000  0.0810 -0.0259
  177SLPC   O1420062   1.901   6.501   7.239 -0.5607 -0.1261  0.2727
  177SLPC   O1220063   1.701   6.373   7.267 -0.3797 -0.1964 -0.5364
  177SLPC   O1120064   1.736   6.484   7.040  0.5701 -0.0975  1.0654
  177SLPC    C120065   1.762   6.371   6.952 -0.4853  0.2649 -0.7963
  177SLPC    HA20066   1.870   6.374   6.928 -0.5245  0.8077 -0.9339
  177SLPC    HB20067   1.735   6.276   7.002 -0.8329  1.1432  0.7793
  177SLPC    C220068   1.672   6.387   6.829 -0.6444  0.0267  0.5275
  177SLPC    HS20069   1.693   6.300   6.764 -0.2351 -0.1489  0.8943
  177SLPC   O2120070   1.712   6.506   6.759 -0.1519 -0.1360 -0.2756
  177SLPC   C2120071   1.748   6.497   6.631  0.1966  0.3301  0.6035
  177SLPC   O2220072   1.756   6.393   6.565  0.6379  0.2833  0.1579
  177SLPC   C2220073   1.763   6.637   6.562  0.7635 -0.2399 -0.0089
  177SLPC   H2R20074   1.809   6.695   6.645  2.7656 -0.8482 -0.6392
  177SLPC   H2S20075   1.838   6.628   6.480  0.6454 -1.5991  0.0117
  177SLPC    C320076   1.519   6.399   6.861 -0.6875 -0.5552  0.1471
  177SLPC    HX20077   1.513   6.494   6.917  0.2486 -1.4808  1.9317
  177SLPC    HY20078   1.501   6.318   6.935  0.5980 -0.5176  0.5265
  177SLPC   O3120079   1.436   6.398   6.741 -0.0312 -0.1142 -0.0783
  177SLPC   C3120080   1.313   6.413   6.761  0.7260 -1.0003  0.4300
  177SLPC   O3220081   1.254   6.424   6.866 -0.3234  0.1584  0.6979
  177SLPC   C3220082   1.243   6.420   6.632  0.2771 -0.0053  0.0249
  177SLPC   H2X20083   1.281   6.511   6.581  0.6000 -0.2959 -0.2535
  177SLPC   H2Y20084   1.132   6.427   6.625  0.3281 -0.6522 -2.5835
  177SLPC   C2320085   1.622   6.695   6.525 -0.3345  0.3267 -0.6387
  177SLPC   H3R20086   1.635   6.802   6.498 -0.2940  0.3894 -0.3699
  177SLPC   H3S20087   1.563   6.678   6.618  0.7340 -0.7296 -0.1266
  177SLPC   C2420088   1.551   6.614   6.414  0.7522 -0.6242 -0.2289
  177SLPC   H4R20089   1.449   6.658   6.416  1.0326  0.1138 -1.1293
  177SLPC   H4S20090   1.545   6.507   6.442 -0.6714 -0.0802  1.7561
  177SLPC   C2520091   1.605   6.658   6.277 -0.1416  0.2694  0.3451
  177SLPC   H5R20092   1.710   6.623   6.274  0.4233  1.9407 -0.6909
  177SLPC   H5S20093   1.608   6.767   6.258  1.7843 -0.2567 -3.2748
  177SLPC   C2620094   1.534   6.601   6.156  0.5416  0.7539 -1.2116
  177SLPC   H6R20095   1.433   6.647   6.160  1.2951  2.5727 -2.0881
  177SLPC   H6S20096   1.521   6.491   6.158 -0.1714  0.8362  1.0585
  177SLPC   C2720097   1.600   6.630   6.021 -0.4160 -0.5017 -0.7416
  177SLPC   H7R20098   1.706   6.596   6.022 -0.1869  0.1857  0.8422
  177SLPC   H7S20099   1.615   6.738   5.999 -1.8481 -0.5776 -2.3229
  177SLPC   C2820100   1.532   6.556   5.903  0.2620  0.0089  0.2213
  177SLPC   H8R20101   1.521   6.449   5.933 -0.4942 -0.5141 -1.7523
  177SLPC   H8S20102   1.605   6.560   5.819 -1.0078 -1.9886 -1.0842
  177SLPC   C2920103   1.397   6.612   5.872 -0.3882 -0.6531 -0.1959
  177SLPC   H9R20104   1.338   6.643   5.960  2.2904 -1.7720  2.1865
  177SLPC  C21020105   1.340   6.605   5.751  0.2344 -0.0685  0.3109
  177SLPC  H10R20106   1.247   6.657   5.723  0.8327 -0.6975 -3.3306
  177SLPC  C21120107   1.400   6.543   5.631 -0.2784 -0.5023  0.4952
  177SLPC  H11R20108   1.321   6.522   5.555 -1.0071  2.6993  0.2037
  177SLPC  H11S20109   1.443   6.445   5.660  3.2150  0.9046  0.4883
  177SLPC  C21220110   1.517   6.625   5.572 -0.2920  0.5203 -0.2988
  177SLPC  H12R20111   1.585   6.669   5.647  0.0600  1.5269 -1.1839
  177SLPC  C21320112   1.556   6.637   5.446 -0.6061  0.0107  0.6116
  177SLPC  H13R20113   1.646   6.691   5.413  0.3181 -1.4813  0.6078
  177SLPC  C21420114   1.496   6.582   5.321 -0.0382  0.3224  0.2320
  177SLPC  H14R20115   1.394   6.538   5.337  0.1170 -0.1758 -0.1219
  177SLPC  H14S20116   1.548   6.489   5.288 -3.4692 -0.6746 -3.0954
  177SLPC  C21520117   1.497   6.678   5.200 -0.4794  0.1319  0.0628
  177SLPC  H15R20118   1.600   6.715   5.186 -1.0689  2.1813  0.7368
  177SLPC  H15S20119   1.423   6.755   5.229 -1.4446 -1.1308  1.1193
  177SLPC  C21620120   1.454   6.619   5.069 -0.9097 -0.5220  0.3076
  177SLPC  H16R20121   1.459   6.695   4.988  1.1263 -2.2691 -1.3216
  177SLPC  H16S20122   1.356   6.567   5.069 -1.2470  0.0855 -0.6344
  177SLPC  C21720123   1.557   6.512   5.011 -0.4320  0.4417 -0.3132
  177SLPC  H17R20124   1.562   6.434   5.089 -0.3156  0.7164 -0.0414
  177SLPC  H17S20125   1.663   6.547   5.004  0.2672 -1.4326  0.4478
  177SLPC  C21820126   1.512   6.439   4.880  0.1445  0.8221  0.2682
  177SLPC  H18R20127   1.594   6.389   4.824 -2.0448 -0.0588 -2.4053
  177SLPC  H18S20128   1.471   6.507   4.802 -1.0665 -1.2264 -0.9678
  177SLPC  H18T20129   1.439   6.358   4.903  1.2614 -0.7246 -1.3494
  177SLPC   C3320130   1.281   6.303   6.542 -0.4309 -0.7075  0.0264
  177SLPC   H3X20131   1.246   6.203   6.575  1.3509 -0.9309  1.3440
  177SLPC   H3Y20132   1.391   6.289   6.539 -0.3513 -0.4449  1.2441
  177SLPC   C3420133   1.237   6.340   6.399  0.0722  0.1169  0.2671
  177SLPC   H4X20134   1.274   6.437   6.358 -0.6937 -0.2937 -1.4911
  177SLPC   H4Y20135   1.126   6.351   6.408  0.0560 -0.6850  1.1155
  177SLPC   C3520136   1.267   6.229   6.298 -0.4984 -0.4429 -0.3413
  177SLPC   H5X20137   1.219   6.245   6.199  0.6597 -1.0739 -1.0185
  177SLPC   H5Y20138   1.230   6.133   6.340  0.7531 -0.4929  0.6981
  177SLPC   C3620139   1.418   6.197   6.261  1.1096  0.0656  0.1646
  177SLPC   H6X20140   1.475   6.165   6.352 -0.5438 -2.9640  0.2741
  177SLPC   H6Y20141   1.462   6.294   6.229  0.5446 -0.0956 -1.1237
  177SLPC   C3720142   1.439   6.091   6.144  0.5303 -0.0414 -0.0740
  177SLPC   H7X20143   1.386   5.996   6.164 -2.1257  1.0546 -1.4735
  177SLPC   H7Y20144   1.549   6.072   6.141  0.4823 -1.0592  2.4251
  177SLPC   C3820145   1.390   6.134   6.007  0.2761  0.1390  0.2503
  177SLPC   H8X20146   1.439   6.230   5.977  0.3106 -0.0051 -0.1622
  177SLPC   H8Y20147   1.282   6.158   6.011 -0.5485 -3.2641  1.0459
  177SLPC   C3920148   1.420   6.041   5.885 -0.2401  0.5052  0.7714
  177SLPC   H9X20149   1.359   5.950   5.903 -1.1191  0.9770  0.2737
  177SLPC   H9Y20150   1.526   6.010   5.897 -0.8672 -1.0993  2.7110
  177SLPC  C31020151   1.388   6.107   5.754  0.0898  0.1686  0.2522
  177SLPC  H10X20152   1.457   6.193   5.741  0.0063 -0.0422 -2.0471
  177SLPC  H10Y20153   1.280   6.134   5.754  0.5263  2.5627 -2.7924
  177SLPC  C31120154   1.414   6.010   5.637  0.6445  0.5542 -0.1030
  177SLPC  H11X20155   1.379   5.908   5.667 -1.5518  1.3999  0.3871
  177SLPC  H11Y20156   1.523   6.006   5.616  0.3506  1.6417 -2.0772
  177SLPC  C31220157   1.354   6.057   5.503 -0.3333 -0.0794 -0.5411
  177SLPC  H12X20158   1.425   6.131   5.460 -0.8141  0.3274 -0.6445
  177SLPC  H12Y20159   1.249   6.092   5.511 -0.0219  0.8493 -0.4208
  177SLPC  C31320160   1.336   5.941   5.406  0.1082  0.2456  0.5540
  177SLPC  H13X20161   1.250   5.883   5.445  0.3966 -1.5736 -1.3369
  177SLPC  H13Y20162   1.423   5.872   5.400  0.9675  1.2845  0.7122
  177SLPC  C31420163   1.305   5.980   5.262  0.2184 -0.3718  0.2475
  177SLPC  H14X20164   1.371   6.060   5.222 -0.3657 -0.3092 -0.6122
  177SLPC  H14Y20165   1.207   6.033   5.260  1.7510  2.6869 -1.1701
  177SLPC  C31520166   1.292   5.859   5.167 -0.1820 -1.1643 -0.4513
  177SLPC  H15X20167   1.207   5.794   5.196 -0.0738 -2.0442 -2.0366
  177SLPC  H15Y20168   1.382   5.794   5.176  0.9714  0.3812 -0.5105
  177SLPC  C31620169   1.263   5.912   5.019  0.6516  0.1260 -0.0991
  177SLPC  H16X20170   1.270   5.816   4.964  0.3802 -0.4353  0.8214
  177SLPC  H16Y20171   1.348   5.977   4.991  0.7702 -0.5557 -1.4136
  177SLPC  C31720172   1.124   5.967   4.994  0.7013  0.4367 -0.0294
  177SLPC  H17X20173   1.109   6.012   4.893 -1.4723  3.2576  1.3936
  177SLPC  H17Y20174   1.102   6.052   5.062  0.7311  0.9002 -0.5877
  177SLPC  C31820175   1.006   5.876   5.020  0.0137  0.0034 -0.0639
  177SLPC  H18X20176   1.012   5.783   4.958  1.5059 -0.5683  0.8850
  177SLPC  H18Y20177   0.912   5.930   4.996  0.0206  0.2897  0.5503
  177SLPC  H18Z20178   1.000   5.849   5.127 -2.8581  0.6004  0.0004
  178SLPC     N20179   5.247   4.756   7.368 -0.2642 -0.0760 -0.8655
  178SLPC   C1320180   5.363   4.704   7.444  0.2682 -0.2051 -0.0623
  178SLPC  H13A20181   5.428   4.655   7.372 -0.6341 -0.8569 -0.4481
  178SLPC  H13B20182   5.424   4.783   7.483 -0.4071 -0.2866  1.1878
  178SLPC  H13C20183   5.345   4.644   7.532 -1.5677  0.8964  0.3591
  178SLPC   C1420184   5.154   4.813   7.468  0.3800 -0.1655 -0.8992
  178SLPC  H14A20185   5.181   4.904   7.519 -0.4203 -0.5580  0.2554
  178SLPC  H14B20186   5.055   4.827   7.427 -0.2443 -1.6215  0.0230
  178SLPC  H14C20187   5.134   4.750   7.553 -1.4749  0.9375 -0.4795
  178SLPC   C1520188   5.176   4.634   7.308  0.0504 -0.9686  0.1053
  178SLPC  H15A20189   5.079   4.647   7.262 -1.7725 -2.5273  3.1646
  178SLPC  H15B20190   5.247   4.589   7.240  0.9906  1.9998 -1.0450
  178SLPC  H15C20191   5.138   4.566   7.383 -1.2705  0.7843  1.1085
  178SLPC   C1220192   5.282   4.863   7.265  0.5458  0.7176 -1.1251
  178SLPC  H12A20193   5.312   4.950   7.322  0.2564 -0.1582  0.4150
  178SLPC  H12B20194   5.194   4.891   7.209 -0.4578  0.0638  0.0718
  178SLPC   C1120195   5.381   4.815   7.154  0.0746  0.2373 -0.5778
  178SLPC  H11A20196   5.393   4.887   7.071 -1.8374  0.3591 -0.7793
  178SLPC  H11B20197   5.327   4.739   7.095 -2.1847  0.9253  0.5039
  178SLPC     P20198   5.608   4.880   7.246  0.3221 -0.0362  0.2828
  178SLPC   O1320199   5.536   4.991   7.318 -0.1342  0.3041  0.6267
  178SLPC   O1420200   5.709   4.809   7.322  0.1063 -0.3225  0.4399
  178SLPC   O1220201   5.502   4.763   7.201 -0.1278  0.2496 -0.2925
  178SLPC   O1120202   5.661   4.927   7.104 -0.2675  0.4490  0.6539
  178SLPC    C120203   5.773   4.859   7.041 -0.0598  0.0304  0.8231
  178SLPC    HA20204   5.852   4.937   7.038 -0.0780  0.0207 -0.8646
  178SLPC    HB20205   5.812   4.770   7.094  0.7996  0.5808  1.1464
  178SLPC    C220206   5.741   4.812   6.900 -0.4282  0.1493 -0.0558
  178SLPC    HS20207   5.837   4.775   6.858  0.7469  1.5823  1.2376
  178SLPC   O2120208   5.691   4.926   6.826  0.4740  0.1872  0.3968
  178SLPC   C2120209   5.778   4.989   6.753  0.1280  0.4264 -0.0236
  178SLPC   O2220210   5.897   4.964   6.742  0.4587 -0.6958 -0.5901
  178SLPC   C2220211   5.706   5.069   6.651  0.3772  0.1509 -0.4168
  178SLPC   H2R20212   5.645   4.994   6.596 -0.1019 -1.9324  2.6685
  178SLPC   H2S20213   5.625   5.122   6.706 -0.6183  0.2279 -1.9088
  178SLPC    C320214   5.641   4.690   6.892  0.4382  0.4988 -0.2559
  178SLPC    HX20215   5.548   4.706   6.951  0.0186 -3.3258  0.4214
  178SLPC    HY20216   5.696   4.613   6.950  0.2428  0.9948  0.6113
  178SLPC   O3120217   5.618   4.651   6.754 -0.4020 -0.1514  0.0727
  178SLPC   C3120218   5.519   4.703   6.681 -0.5013  1.0806  0.7566
  178SLPC   O3220219   5.438   4.788   6.715  0.0161 -0.3070 -0.3040
  178SLPC   C3220220   5.521   4.646   6.538 -0.1742 -0.3733  0.4001
  178SLPC   H2X20221   5.500   4.537   6.540  1.1190 -0.6511  2.4101
  178SLPC   H2Y20222   5.625   4.668   6.505 -0.5031 -0.7354 -0.9337
  178SLPC   C2320223   5.783   5.173   6.568  0.8039 -0.4808 -0.1918
  178SLPC   H3R20224   5.878   5.136   6.525  0.7288  0.8807 -1.5911
  178SLPC   H3S20225   5.817   5.243   6.648 -1.3646  1.9043 -1.2271
  178SLPC   C2420226   5.700   5.230   6.462  0.1230 -0.3167 -0.3580
  178SLPC   H4R20227   5.760   5.315   6.422  0.4477  0.2235  1.2221
  178SLPC   H4S20228   5.598   5.263   6.492  0.2350  0.3130 -0.6518
  178SLPC   C2520229   5.669   5.135   6.345 -0.0179 -0.3611  0.6932
  178SLPC   H5R20230   5.598   5.191   6.279  3.1939  1.1859 -1.7183
  178SLPC   H5S20231   5.624   5.037   6.371 -1.7900  0.5130  1.1078
  178SLPC   C2620232   5.789   5.123   6.259  0.1081  0.4706  0.3079
  178SLPC   H6R20233   5.863   5.060   6.314  0.8126  0.5905 -0.4822
  178SLPC   H6S20234   5.833   5.222   6.234  2.7554 -0.6514  0.1807
  178SLPC   C2720235   5.757   5.041   6.134  0.1360  0.1107 -0.1491
  178SLPC   H7R20236   5.683   5.099   6.075  0.3297  0.0689 -0.4340
  178SLPC   H7S20237   5.703   4.956   6.181  0.8571 -0.2949 -0.0466
  178SLPC   C2820238   5.877   4.993   6.051 -0.6147 -0.3752 -0.2636
  178SLPC   H8R20239   5.843   4.909   5.987 -0.4323 -0.4662 -0.2387
  178SLPC   H8S20240   5.954   4.954   6.121 -1.7490 -1.1538  0.6057
  178SLPC   C2920241   5.941   5.109   5.970 -0.1016  0.1847  0.1726
  178SLPC   H9R20242   5.966   5.189   6.042 -0.5535 -1.6049  2.4284
  178SLPC  C21020243   5.979   5.116   5.835 -0.0560  0.6040  0.4985
  178SLPC  H10R20244   6.032   5.206   5.799  1.3942 -0.7802 -1.0302
  178SLPC  C21120245   5.934   5.028   5.719 -1.4662 -0.5368  0.2919
  178SLPC  H11R20246   5.998   4.937   5.713 -0.2880  0.3630 -1.1891
  178SLPC  H11S20247   5.956   5.076   5.621 -1.8899 -2.9328 -1.0554
  178SLPC  C21220248   5.792   4.986   5.714  0.0077  0.0757  0.2049
  178SLPC  H12R20249   5.727   5.005   5.800 -0.8055 -0.4616 -0.2847
  178SLPC  C21320250   5.739   4.919   5.609  0.1832 -0.1440  0.0680
  178SLPC  H13R20251   5.633   4.891   5.613  0.2540 -0.4810 -0.3397
  178SLPC  C21420252   5.809   4.856   5.494  0.2071  0.6194  0.1181
  178SLPC  H14R20253   5.758   4.759   5.478 -2.5396  1.8760  0.7178
  178SLPC  H14S20254   5.915   4.834   5.521 -0.0405  0.1897  0.7384
  178SLPC  C21520255   5.800   4.938   5.369  0.1786 -0.5126 -0.1261
  178SLPC  H15R20256   5.872   5.023   5.368  0.1056 -0.4170 -2.1820
  178SLPC  H15S20257   5.700   4.982   5.348 -0.0494 -0.1509  1.6044
  178SLPC  C21620258   5.855   4.863   5.243  0.2471  0.1910 -0.6296
  178SLPC  H16R20259   5.779   4.783   5.230 -2.1545  2.4345 -1.1839
  178SLPC  H16S20260   5.948   4.804   5.260  0.0419 -0.4127 -1.5765
  178SLPC  C21720261   5.859   4.950   5.117  0.4032 -0.2323 -0.4355
  178SLPC  H17R20262   5.756   4.991   5.113 -0.2710 -1.8570 -0.2316
  178SLPC  H17S20263   5.885   4.885   5.031  1.7501  0.8825 -0.9239
  178SLPC  C21820264   5.962   5.059   5.128 -0.4432  0.0330  0.3533
  178SLPC  H18R20265   5.988   5.120   5.039 -0.0648  2.0024  1.7466
  178SLPC  H18S20266   6.051   5.010   5.172 -2.0178 -1.4201  2.1152
  178SLPC  H18T20267   5.930   5.135   5.203 -0.8215 -0.9954  1.2700
  178SLPC   C3320268   5.423   4.724   6.443 -0.3666  0.4520  0.2678
  178SLPC   H3X20269   5.456   4.830   6.441 -1.2277  0.7206 -0.2630
  178SLPC   H3Y20270   5.318   4.722   6.478 -0.8066 -1.0306 -1.0400
  178SLPC   C3420271   5.432   4.656   6.303 -0.4590 -0.0659  0.2114
  178SLPC   H4X20272   5.367   4.701   6.224  0.4474  0.4023 -0.2835
  178SLPC   H4Y20273   5.399   4.550   6.305 -0.3476 -0.0992  0.2551
  178SLPC   C3520274   5.576   4.648   6.245  0.1420 -0.0937  0.2323
  178SLPC   H5X20275   5.649   4.604   6.316  0.0750 -0.2930  0.1766
  178SLPC   H5Y20276   5.610   4.752   6.225  1.8604 -1.0439 -2.3883
  178SLPC   C3620277   5.577   4.566   6.116 -0.4894  0.0331  1.2259
  178SLPC   H6X20278   5.532   4.465   6.127 -2.7176  0.7029 -0.8893
  178SLPC   H6Y20279   5.684   4.554   6.092 -1.1584 -0.8081 -1.6280
  178SLPC   C3720280   5.520   4.643   5.995  0.4887 -0.3175 -0.3476
  178SLPC   H7X20281   5.557   4.748   5.998  0.3176 -0.2749  1.0987
  178SLPC   H7Y20282   5.411   4.645   6.013  0.1202 -0.2952 -2.4273
  178SLPC   C3820283   5.546   4.571   5.867  0.5138 -0.1375 -0.0111
  178SLPC   H8X20284   5.512   4.466   5.884  0.6460 -0.0902  0.5902
  178SLPC   H8Y20285   5.655   4.584   5.849 -0.0481  2.9656 -1.7715
  178SLPC   C3920286   5.478   4.629   5.743  0.3734 -0.8340  0.3163
  178SLPC   H9X20287   5.527   4.727   5.722  0.5165 -0.6729  1.3565
  178SLPC   H9Y20288   5.371   4.654   5.760  0.2252 -0.5432 -0.9413
  178SLPC  C31020289   5.505   4.548   5.619  0.3160  0.2101 -0.4618
  178SLPC  H10X20290   5.453   4.450   5.631 -0.6094  0.5267 -1.6685
  178SLPC  H10Y20291   5.614   4.531   5.610  0.2869  0.7121 -2.0305
  178SLPC  C31120292   5.450   4.609   5.492 -0.0315 -0.5057  0.7671
  178SLPC  H11X20293   5.484   4.711   5.466 -0.7031 -0.9226 -2.1393
  178SLPC  H11Y20294   5.339   4.598   5.495 -0.1158  0.4725  2.3904
  178SLPC  C31220295   5.511   4.537   5.371 -0.3972  0.2630 -0.3082
  178SLPC  H12X20296   5.491   4.428   5.364 -0.2353  0.2596 -0.7463
  178SLPC  H12Y20297   5.620   4.552   5.381 -0.3211  0.1284 -0.8682
  178SLPC  C31320298   5.480   4.611   5.242 -0.6823  0.2712  0.3318
  178SLPC  H13X20299   5.492   4.720   5.258  1.0521  0.2428 -0.5561
  178SLPC  H13Y20300   5.375   4.594   5.209 -0.9416  1.3259  0.5734
  178SLPC  C31420301   5.575   4.563   5.127 -0.5496 -0.4340  0.0593
  178SLPC  H14X20302   5.572   4.453   5.108  3.8592 -0.4994 -1.2993
  178SLPC  H14Y20303   5.680   4.596   5.142 -0.8027  0.0164  0.8857
  178SLPC  C31520304   5.518   4.620   4.997 -0.0706  0.1823 -0.3309
  178SLPC  H15X20305   5.407   4.629   5.000 -0.2162 -1.6466  0.8041
  178SLPC  H15Y20306   5.537   4.555   4.909 -0.9300  1.2081 -1.2990
  178SLPC  C31620307   5.585   4.754   4.960  0.4535 -0.4643  1.3493
  178SLPC  H16X20308   5.695   4.761   4.958  0.3936  3.0418 -1.6603
  178SLPC  H16Y20309   5.547   4.825   5.036 -0.3879  1.5002 -0.7852
  178SLPC  C31720310   5.521   4.795   4.832 -0.4401 -0.2998  0.6362
  178SLPC  H17X20311   5.410   4.799   4.842 -0.5299  0.4261 -0.4369
  178SLPC  H17Y20312   5.525   4.710   4.760 -0.4728 -1.0177  1.4707
  178SLPC  C31820313   5.568   4.926   4.767 -0.4254  0.4239  0.2103
  178SLPC  H18X20314   5.564   5.016   4.833  1.7080  0.4188  0.4003
  178SLPC  H18Y20315   5.504   4.942   4.677  0.0275 -0.8255 -0.3557
  178SLPC  H18Z20316   5.671   4.915   4.726 -0.4496 -0.1895  0.3046
  179SLPC     N20317   4.713   2.000   1.407  0.3681  0.1216 -0.0142
  179SLPC   C1320318   4.670   2.130   1.337  0.2316  0.6295 -0.3565
  179SLPC  H13A20319   4.655   2.110   1.232 -2.9851  1.0032 -0.0794
  179SLPC  H13B20320   4.575   2.171   1.369 -1.0813 -1.6316 -1.0939
  179SLPC  H13C20321   4.743   2.209   1.346  0.8504  0.3114 -2.1971
  179SLPC   C1420322   4.842   1.963   1.341 -0.0321 -0.2756 -0.1546
  179SLPC  H14A20323   4.873   1.863   1.367 -1.6387 -0.9737 -0.8288
  179SLPC  H14B20324   4.838   1.984   1.235 -0.8724 -0.1245 -0.0963
  179SLPC  H14C20325   4.902   2.037   1.392  1.0507  1.7411 -3.9765
  179SLPC   C1520326   4.620   1.890   1.377  0.1206 -0.7241  0.2006
  179SLPC  H15A20327   4.523   1.909   1.420  0.3130 -1.5597  1.0387
  179SLPC  H15B20328   4.604   1.896   1.271 -0.2556 -1.8966  0.1799
  179SLPC  H15C20329   4.662   1.793   1.399  0.0381 -1.0661 -1.0914
  179SLPC   C1220330   4.720   2.017   1.560 -0.2950  0.1554 -0.0227
  179SLPC  H12A20331   4.775   1.936   1.605 -0.8479 -0.0632  0.2658
  179SLPC  H12B20332   4.621   2.010   1.603  0.0463  0.7055  0.8851
  179SLPC   C1120333   4.781   2.153   1.612 -0.6343  0.3680 -0.1757
  179SLPC  H11A20334   4.775   2.152   1.723  0.1182 -2.7707 -0.0706
  179SLPC  H11B20335   4.720   2.233   1.564  0.3561  1.0410 -0.3532
  179SLPC     P20336   5.048   2.156   1.649 -0.3683 -0.4861  0.1050
  179SLPC   O1320337   5.120   2.040   1.594  0.3527 -0.6271  0.7710
  179SLPC   O1420338   5.122   2.289   1.642  0.7061 -0.0365 -0.0347
  179SLPC   O1220339   4.913   2.161   1.572  0.0613 -0.3713 -0.3430
  179SLPC   O1120340   5.011   2.127   1.800  0.7379 -0.0709  0.3252
  179SLPC    C120341   4.939   2.222   1.883  0.1191 -0.0066 -0.5006
  179SLPC    HA20342   4.908   2.311   1.824  3.4932  0.6608 -1.4639
  179SLPC    HB20343   4.846   2.182   1.929 -0.7896  1.5455 -0.9317
  179SLPC    C220344   5.024   2.276   1.999  0.5446 -0.3022  0.2378
  179SLPC    HS20345   5.111   2.328   1.953 -1.6481  2.6849 -0.9353
  179SLPC   O2120346   5.059   2.166   2.081  0.1531 -0.5506  0.0837
  179SLPC   C2120347   5.186   2.140   2.095 -0.0466  0.2064 -0.2196
  179SLPC   O2220348   5.276   2.216   2.063  0.8151  0.0446 -0.2158
  179SLPC   C2220349   5.201   1.996   2.144  0.1012  0.2046 -0.3179
  179SLPC   H2R20350   5.161   1.934   2.061  0.2363  0.3239 -0.4755
  179SLPC   H2S20351   5.307   1.970   2.160  0.0971  0.4596  0.1342
  179SLPC    C320352   4.936   2.383   2.077  0.2262  0.0664  0.5421
  179SLPC    HX20353   4.839   2.331   2.091  0.4296 -0.1810  1.0857
  179SLPC    HY20354   4.914   2.473   2.017 -2.4828 -1.4003 -0.8510
  179SLPC   O3120355   4.997   2.396   2.210 -0.0858 -0.3325  0.0822
  179SLPC   C3120356   5.094   2.487   2.225 -0.1971 -0.8100  0.2789
  179SLPC   O3220357   5.125   2.565   2.132 -0.2291  0.1483  0.2855
  179SLPC   C3220358   5.176   2.465   2.349  0.8054  0.5788 -0.0962
  179SLPC   H2X20359   5.272   2.512   2.319  0.5468 -0.2591 -2.3920
  179SLPC   H2Y20360   5.202   2.358   2.359 -0.9913 -0.1395 -2.2767
  179SLPC   C2320361   5.134   1.979   2.285 -0.3480 -0.2468  0.0629
  179SLPC   H3R20362   5.023   1.984   2.287 -0.3197  1.3290 -1.0169
  179SLPC   H3S20363   5.184   2.052   2.352  0.7874  0.0807 -1.1094
  179SLPC   C2420364   5.170   1.839   2.339  0.2815 -0.5400  0.3262
  179SLPC   H4R20365   5.280   1.848   2.349  0.4832  1.8239 -2.6988
  179SLPC   H4S20366   5.143   1.756   2.270 -1.8741 -0.1392  0.6300
  179SLPC   C2520367   5.100   1.798   2.473 -0.3900  0.5823 -0.1626
  179SLPC   H5R20368   4.994   1.769   2.459 -0.2192 -0.9315  1.3343
  179SLPC   H5S20369   5.109   1.882   2.545  1.8504 -1.1086  1.6859
  179SLPC   C2620370   5.166   1.675   2.538 -0.3945 -0.2452 -0.3184
  179SLPC   H6R20371   5.173   1.598   2.459  1.0550  0.9899 -1.4544
  179SLPC   H6S20372   5.101   1.644   2.623 -0.6557 -1.4340 -0.9258
  179SLPC   C2720373   5.308   1.700   2.601  1.0653 -0.3816  0.3238
  179SLPC   H7R20374   5.312   1.787   2.670  0.5389  0.6821 -0.9485
  179SLPC   H7S20375   5.361   1.714   2.504  1.0590  1.4112  0.5323
  179SLPC   C2820376   5.349   1.575   2.679  0.8049 -0.0185 -0.0904
  179SLPC   H8R20377   5.330   1.478   2.629  2.0402  0.2164 -1.0604
  179SLPC   H8S20378   5.296   1.567   2.776  2.5097  0.2168  0.8994
  179SLPC   C2920379   5.498   1.590   2.706  0.7194 -0.0560  0.5574
  179SLPC   H9R20380   5.556   1.602   2.614  3.2418 -0.0615  2.0367
  179SLPC  C21020381   5.564   1.610   2.825 -1.0016  0.6441  0.4602
  179SLPC  H10R20382   5.673   1.627   2.826 -0.4979 -2.0982  2.2963
  179SLPC  C21120383   5.498   1.607   2.959 -0.1596 -0.1258 -1.0127
  179SLPC  H11R20384   5.393   1.644   2.953  0.1325  1.2639  1.2236
  179SLPC  H11S20385   5.538   1.674   3.039 -3.0934 -0.4343  0.8931
  179SLPC  C21220386   5.504   1.470   3.018 -0.2226  0.2093 -1.0384
  179SLPC  H12R20387   5.556   1.390   2.962  3.3120  2.0560 -0.6995
  179SLPC  C21320388   5.438   1.433   3.127  0.4392 -0.1086  0.6664
  179SLPC  H13R20389   5.461   1.331   3.159  1.0534 -0.0745  0.3640
  179SLPC  C21420390   5.359   1.519   3.215 -1.1078 -0.9689 -0.0563
  179SLPC  H14R20391   5.252   1.489   3.207 -1.7331  0.7260  1.4288
  179SLPC  H14S20392   5.363   1.627   3.191 -1.8386 -0.4003  2.1570
  179SLPC  C21520393   5.402   1.501   3.356 -0.3963  0.1186 -0.2951
  179SLPC  H15R20394   5.510   1.477   3.357 -0.6807 -1.3104  1.7070
  179SLPC  H15S20395   5.351   1.414   3.403  1.6699 -1.0955 -0.1992
  179SLPC  C21620396   5.359   1.622   3.433  0.2388  0.0191 -0.7715
  179SLPC  H16R20397   5.250   1.636   3.416 -0.2009 -0.4833  1.3466
  179SLPC  H16S20398   5.425   1.706   3.403 -1.2328  2.0682  1.3611
  179SLPC  C21720399   5.377   1.605   3.585 -0.4615  0.2602 -1.1209
  179SLPC  H17R20400   5.485   1.581   3.592 -0.2468  1.3197 -0.6552
  179SLPC  H17S20401   5.317   1.513   3.606 -1.3104  0.6268 -1.8432
  179SLPC  C21820402   5.342   1.728   3.668  0.4015 -0.1341 -0.3203
  179SLPC  H18R20403   5.406   1.811   3.631 -1.7119  0.4939 -2.7672
  179SLPC  H18S20404   5.360   1.710   3.776 -1.3606 -0.2560 -0.0255
  179SLPC  H18T20405   5.238   1.763   3.655  1.4242  2.5814 -2.1480
  179SLPC   C3320406   5.122   2.521   2.481  0.1277  0.7803 -0.3316
  179SLPC   H3X20407   5.017   2.486   2.493 -0.3561  2.3867  0.4063
  179SLPC   H3Y20408   5.125   2.632   2.481 -0.8583  0.8573  1.6550
  179SLPC   C3420409   5.187   2.464   2.606 -0.6065 -0.2832 -0.4001
  179SLPC   H4X20410   5.294   2.491   2.622 -0.7455  1.2287 -1.6859
  179SLPC   H4Y20411   5.168   2.356   2.594 -1.6163 -0.1428 -0.1415
  179SLPC   C3520412   5.112   2.506   2.727  0.1582  0.1809 -0.5045
  179SLPC   H5X20413   5.105   2.616   2.738  0.1717  0.0811  0.7573
  179SLPC   H5Y20414   5.005   2.477   2.726 -0.7789  3.3156  0.0464
  179SLPC   C3620415   5.155   2.442   2.860 -0.5040  0.1937  0.0397
  179SLPC   H6X20416   5.183   2.335   2.854 -0.4136  0.1424  1.1359
  179SLPC   H6Y20417   5.064   2.448   2.924  0.2947 -0.3094  1.2529
  179SLPC   C3720418   5.262   2.515   2.937 -0.0699  0.2837 -0.2896
  179SLPC   H7X20419   5.243   2.624   2.950  0.7680  0.5280 -1.0077
  179SLPC   H7Y20420   5.364   2.491   2.900  0.1326 -0.8754  0.9463
  179SLPC   C3820421   5.253   2.463   3.085  0.4700  0.1055  0.3018
  179SLPC   H8X20422   5.263   2.354   3.105  0.2851  0.4502  2.5278
  179SLPC   H8Y20423   5.160   2.503   3.130 -1.0686 -2.3421 -0.4775
  179SLPC   C3920424   5.380   2.509   3.169  0.0737  0.9525  1.1694
  179SLPC   H9X20425   5.403   2.616   3.150 -0.2014  0.7288 -0.5888
  179SLPC   H9Y20426   5.464   2.458   3.118 -1.3448  0.6373 -0.9827
  179SLPC  C31020427   5.369   2.479   3.315  0.0936 -0.1459  0.4466
  179SLPC  H10X20428   5.283   2.530   3.364  1.0548 -1.2933  3.6184
  179SLPC  H10Y20429   5.468   2.507   3.358  0.7785  1.4132 -1.9864
  179SLPC  C31120430   5.363   2.321   3.338 -0.8296  0.3407 -0.0801
  179SLPC  H11X20431   5.445   2.284   3.273  0.2066  3.1465 -0.4890
  179SLPC  H11Y20432   5.270   2.270   3.303  0.6664 -1.4097 -1.7323
  179SLPC  C31220433   5.406   2.286   3.480  0.0490 -0.0089  0.2847
  179SLPC  H12X20434   5.335   2.344   3.543  1.1125  0.6036  0.9597
  179SLPC  H12Y20435   5.505   2.333   3.495  0.5735 -1.0889  0.2894
  179SLPC  C31320436   5.399   2.140   3.516 -0.0824  0.9618 -0.4627
  179SLPC  H13X20437   5.466   2.089   3.444  3.0786  1.5713  1.8506
  179SLPC  H13Y20438   5.298   2.096   3.510  0.4308 -0.3683  0.3316
  179SLPC  C31420439   5.453   2.098   3.656  0.3370  0.3295 -0.5184
  179SLPC  H14X20440   5.546   2.155   3.680  0.5403 -0.5301  0.8690
  179SLPC  H14Y20441   5.481   1.991   3.658  1.7519  0.6647 -0.7417
  179SLPC  C31520442   5.351   2.136   3.769 -0.1918 -0.4456  0.8512
  179SLPC  H15X20443   5.345   2.047   3.835  2.3147 -2.2708 -1.1708
  179SLPC  H15Y20444   5.254   2.159   3.720  0.1018  2.3305  1.4293
  179SLPC  C31620445   5.392   2.261   3.852 -0.0219 -0.5024  0.1374
  179SLPC  H16X20446   5.401   2.353   3.789  0.4434 -0.6518 -0.0175
  179SLPC  H16Y20447   5.500   2.254   3.878 -0.0749 -2.0968  0.0288
  179SLPC  C31720448   5.305   2.284   3.974  0.4030 -0.9475 -0.4185
  179SLPC  H17X20449   5.317   2.202   4.048 -1.8935  0.7245  2.0022
  179SLPC  H17Y20450   5.199   2.286   3.942  0.1329 -0.3470  0.4879
  179SLPC  C31820451   5.338   2.415   4.052  0.3766 -0.0119 -0.2219
  179SLPC  H18X20452   5.339   2.513   4.001  2.5828  0.7220  1.0585
  179SLPC  H18Y20453   5.444   2.407   4.087  1.2376 -0.2347 -2.6486
  179SLPC  H18Z20454   5.278   2.422   4.145 -1.9051 -0.3991 -1.6037
  180SLPC     N20455   2.852   2.972   2.652 -0.4255  0.0048  0.3788
  180SLPC   C1320456   2.755   2.994   2.541 -0.3779 -0.2637  0.1503
  180SLPC  H13A20457   2.711   2.897   2.523  0.0201 -1.3362  4.1512
  180SLPC  H13B20458   2.676   3.052   2.586  1.2958  0.2898  2.5092
  180SLPC  H13C20459   2.795   3.032   2.448  0.5018  0.0530  0.6479
  180SLPC   C1420460   2.771   2.923   2.769  0.4847  0.3284 -0.5132
  180SLPC  H14A20461   2.827   2.856   2.832 -0.2103  1.7923  1.7993
  180SLPC  H14B20462   2.735   3.012   2.820  0.0359  1.3687 -2.5406
  180SLPC  H14C20463   2.686   2.867   2.734  1.3011 -0.7501 -0.8140
  180SLPC   C1520464   2.925   3.098   2.687 -0.6787  0.0583  0.1212
  180SLPC  H15A20465   2.958   3.139   2.593  2.9261 -0.2839  1.0929
  180SLPC  H15B20466   2.848   3.165   2.721 -2.2473 -0.2017 -2.6059
  180SLPC  H15C20467   2.993   3.082   2.769 -1.7300 -3.6662  0.4411
  180SLPC   C1220468   2.949   2.863   2.604 -0.0885 -0.5145  0.0723
  180SLPC  H12A20469   3.026   2.850   2.678 -0.2189 -1.6980  0.0240
  180SLPC  H12B20470   2.999   2.892   2.513  1.7257  2.9071  1.9867
  180SLPC   C1120471   2.886   2.718   2.587 -0.7724  0.1269 -0.1949
  180SLPC  H11A20472   2.870   2.674   2.688 -1.8518 -3.7443 -1.8506
  180SLPC  H11B20473   2.970   2.669   2.535  1.6185  0.6015  2.9290
  180SLPC     P20474   2.712   2.575   2.465  0.0922  0.0780 -0.2415
  180SLPC   O1320475   2.569   2.582   2.503 -0.1216 -0.4890  0.3366
  180SLPC   O1420476   2.742   2.544   2.328  0.8827  0.0079  0.6419
  180SLPC   O1220477   2.775   2.716   2.502  0.3898  0.8701 -0.6670
  180SLPC   O1120478   2.784   2.465   2.562  0.2677  0.6896  0.2714
  180SLPC    C120479   2.895   2.386   2.510  0.0223 -0.4977 -0.7896
  180SLPC    HA20480   2.869   2.349   2.409 -0.7950  0.6203 -1.0145
  180SLPC    HB20481   2.983   2.454   2.499  1.9125 -2.6337  0.2763
  180SLPC    C220482   2.934   2.278   2.600  0.7051  0.3112 -0.0610
  180SLPC    HS20483   2.860   2.196   2.610  2.9352 -1.7456  0.7834
  180SLPC   O2120484   2.981   2.332   2.725  0.2810 -0.0430 -0.4390
  180SLPC   C2120485   2.883   2.332   2.815  1.8111 -0.1612 -0.4416
  180SLPC   O2220486   2.780   2.265   2.814  0.6547 -1.0426  0.3587
  180SLPC   C2220487   2.924   2.432   2.929 -0.2492  0.3045 -0.3334
  180SLPC   H2R20488   3.035   2.427   2.941 -0.2476 -1.5165 -0.8688
  180SLPC   H2S20489   2.891   2.534   2.900 -0.3605  0.0480 -1.1377
  180SLPC    C320490   3.062   2.208   2.536  0.7481 -0.2982 -0.4746
  180SLPC    HX20491   3.129   2.290   2.502 -0.8797  0.7538 -1.2355
  180SLPC    HY20492   3.037   2.164   2.437 -0.1393  1.4712 -1.0671
  180SLPC   O3120493   3.137   2.127   2.623  0.9110  0.0668 -0.2605
  180SLPC   C3120494   3.078   2.009   2.640 -0.3491  0.0567  1.1418
  180SLPC   O3220495   2.968   1.981   2.594  0.2146  0.3775  0.0244
  180SLPC   C3220496   3.153   1.917   2.735 -0.1395  0.1367 -0.2421
  180SLPC   H2X20497   3.240   1.875   2.679  1.3041  1.0802  1.1968
  180SLPC   H2Y20498   3.072   1.848   2.766  0.3215  0.4408  1.8536
  180SLPC   C2320499   2.851   2.417   3.061  0.0306  0.7068 -0.6834
  180SLPC   H3R20500   2.744   2.403   3.035  0.1870 -0.9180 -0.5364
  180SLPC   H3S20501   2.857   2.513   3.117  1.0560 -0.5009  1.4151
  180SLPC   C2420502   2.914   2.313   3.150 -0.3324  0.3505 -0.5739
  180SLPC   H4R20503   3.015   2.350   3.178 -0.6236  3.0103 -2.6213
  180SLPC   H4S20504   2.932   2.223   3.088 -1.7599 -0.1460 -0.3084
  180SLPC   C2520505   2.842   2.270   3.273  0.0929  0.5131 -0.2651
  180SLPC   H5R20506   2.769   2.189   3.255 -1.7223  1.1957  3.1094
  180SLPC   H5S20507   2.786   2.351   3.325 -0.8143  0.1723 -0.6936
  180SLPC   C2620508   2.940   2.215   3.381  0.0504  0.4952  0.3516
  180SLPC   H6R20509   3.008   2.145   3.327  0.6658  0.4180  1.2105
  180SLPC   H6S20510   2.882   2.160   3.457  1.0125 -2.0487 -0.6624
  180SLPC   C2720511   3.030   2.320   3.442  0.0697 -0.1360  0.1535
  180SLPC   H7R20512   2.957   2.395   3.477 -0.7652 -1.7495  2.0948
  180SLPC   H7S20513   3.101   2.360   3.366  0.2662  0.3983  0.6115
  180SLPC   C2820514   3.109   2.271   3.562 -0.4360  0.0456 -0.4726
  180SLPC   H8R20515   3.212   2.254   3.525 -0.0041  1.1766  0.1744
  180SLPC   H8S20516   3.059   2.177   3.594  0.9297 -0.9421 -1.1266
  180SLPC   C2920517   3.127   2.373   3.672 -0.9465  0.2025 -0.2477
  180SLPC   H9R20518   3.104   2.475   3.639 -2.5425 -0.3110 -0.8334
  180SLPC  C21020519   3.152   2.347   3.806  0.4584 -0.3237  0.5415
  180SLPC  H10R20520   3.151   2.429   3.880 -0.9983  2.4635 -2.2936
  180SLPC  C21120521   3.161   2.219   3.883 -0.1250  0.2987  0.5100
  180SLPC  H11R20522   3.268   2.209   3.913  0.1243  3.1836  0.8579
  180SLPC  H11S20523   3.126   2.126   3.832 -1.1151  1.0375 -0.1870
  180SLPC  C21220524   3.079   2.226   4.008  0.0266 -0.3643  0.3443
  180SLPC  H12R20525   2.982   2.184   3.980  0.9768 -0.7698 -2.7555
  180SLPC  C21320526   3.117   2.256   4.131  0.3910  0.3754  0.1095
  180SLPC  H13R20527   3.047   2.256   4.216 -1.0186  1.1894 -1.0008
  180SLPC  C21420528   3.251   2.306   4.179 -0.3713 -0.5296 -0.1739
  180SLPC  H14R20529   3.240   2.401   4.236  1.0111 -0.9610  0.8772
  180SLPC  H14S20530   3.320   2.337   4.098 -1.4277  1.0887 -0.4908
  180SLPC  C21520531   3.317   2.218   4.283  0.9478 -0.0507  0.2574
  180SLPC  H15R20532   3.412   2.271   4.305 -0.3805  2.7014 -0.2238
  180SLPC  H15S20533   3.338   2.119   4.237  0.9430  0.7646 -1.5822
  180SLPC  C21620534   3.226   2.202   4.409  0.2280  0.8917 -0.2951
  180SLPC  H16R20535   3.136   2.144   4.379  0.0512  1.3591 -0.6621
  180SLPC  H16S20536   3.183   2.296   4.449 -1.1759  0.0267  0.3283
  180SLPC  C21720537   3.291   2.129   4.527 -0.1217  0.6111 -0.6432
  180SLPC  H17R20538   3.328   2.032   4.487 -0.8400 -0.0218  0.1778
  180SLPC  H17S20539   3.206   2.105   4.595  0.6977 -1.8967 -0.4085
  180SLPC  C21820540   3.409   2.207   4.599  0.1418  0.6624  0.4648
  180SLPC  H18R20541   3.462   2.155   4.681 -0.3665 -1.1771 -0.3155
  180SLPC  H18S20542   3.369   2.297   4.649 -0.0532 -0.3232  2.1620
  180SLPC  H18T20543   3.484   2.241   4.524 -2.0762  2.7709 -0.9236
  180SLPC   C3320544   3.213   1.989   2.853 -0.9051  0.2877 -0.2891
  180SLPC   H3X20545   3.293   2.056   2.815  0.5907  0.3455  2.6820
  180SLPC   H3Y20546   3.264   1.916   2.919  1.3558  1.0129 -1.1228
  180SLPC   C3420547   3.132   2.085   2.936  0.4606 -0.4542 -0.2315
  180SLPC   H4X20548   3.045   2.038   2.986  0.4195  0.3017  0.4232
  180SLPC   H4Y20549   3.082   2.151   2.861  0.8644 -0.8144 -0.8252
  180SLPC   C3520550   3.216   2.152   3.044  0.8129 -0.0260  0.5768
  180SLPC   H5X20551   3.148   2.220   3.101 -0.1519 -1.5481  1.3165
  180SLPC   H5Y20552   3.294   2.216   2.996  1.2370 -0.7456  0.2963
  180SLPC   C3620553   3.278   2.062   3.150  0.5633  0.2185 -0.1369
  180SLPC   H6X20554   3.351   1.995   3.098 -0.0572 -0.1999 -0.4834
  180SLPC   H6Y20555   3.199   1.999   3.197 -0.2481  1.9350  0.9139
  180SLPC   C3720556   3.352   2.141   3.261  0.0925  0.0989  0.3135
  180SLPC   H7X20557   3.282   2.210   3.313 -0.2147 -0.2869  0.4089
  180SLPC   H7Y20558   3.433   2.208   3.221 -0.1653 -0.1120 -0.5929
  180SLPC   C3820559   3.424   2.054   3.368  0.8520  0.1168  0.1960
  180SLPC   H8X20560   3.468   2.122   3.444  0.6520  1.9823 -1.2722
  180SLPC   H8Y20561   3.506   2.000   3.316  0.8297  0.4510 -0.1934
  180SLPC   C3920562   3.328   1.971   3.441  0.0527 -0.0419  0.0600
  180SLPC   H9X20563   3.278   1.900   3.373 -0.1005  0.7493 -0.6717
  180SLPC   H9Y20564   3.246   2.041   3.469 -0.5771 -1.3038  1.4866
  180SLPC  C31020565   3.385   1.895   3.554 -0.0420  0.5829 -0.8641
  180SLPC  H10X20566   3.462   1.829   3.508  0.4363  1.4818 -1.3741
  180SLPC  H10Y20567   3.309   1.826   3.597 -0.1947 -0.0692 -2.1353
  180SLPC  C31120568   3.462   1.972   3.662  0.5074 -0.0497  0.1008
  180SLPC  H11X20569   3.402   2.051   3.713  2.3859  0.2059  2.0459
  180SLPC  H11Y20570   3.551   2.028   3.624  0.4030 -0.0875 -0.2015
  180SLPC  C31220571   3.513   1.882   3.771  0.2885 -0.3994 -0.2398
  180SLPC  H12X20572   3.575   1.939   3.843 -2.1165  1.4874  0.4985
  180SLPC  H12Y20573   3.572   1.794   3.739  0.4286 -0.1136 -0.7844
  180SLPC  C31320574   3.395   1.819   3.856 -0.0447 -0.0093  0.0269
  180SLPC  H13X20575   3.354   1.733   3.798 -0.3399  1.1254 -1.5095
  180SLPC  H13Y20576   3.315   1.895   3.863  1.2798  1.4384 -0.0279
  180SLPC  C31420577   3.440   1.783   3.999  0.4075  0.1568 -0.1211
  180SLPC  H14X20578   3.476   1.880   4.040 -2.8136  0.8617  1.3484
  180SLPC  H14Y20579   3.527   1.713   3.997  1.8061  1.7342  1.4917
  180SLPC  C31520580   3.324   1.722   4.079 -0.5542  0.3272 -0.4653
  180SLPC  H15X20581   3.286   1.634   4.022 -0.2156 -0.1008 -0.0425
  180SLPC  H15Y20582   3.242   1.795   4.091 -2.1077 -1.4233  0.0576
  180SLPC  C31620583   3.366   1.672   4.216 -0.5384 -0.1666 -0.0715
  180SLPC  H16X20584   3.460   1.612   4.212  0.5317  1.5291 -1.2061
  180SLPC  H16Y20585   3.282   1.613   4.260  0.4184 -2.0909 -0.6925
  180SLPC  C31720586   3.385   1.794   4.318 -0.1034 -0.9837  0.0342
  180SLPC  H17X20587   3.295   1.858   4.326  1.0860  0.6236  1.4441
  180SLPC  H17Y20588   3.474   1.843   4.272  1.0552 -1.8100  1.3266
  180SLPC  C31820589   3.421   1.737   4.453  0.2940  0.6703  0.1043
  180SLPC  H18X20590   3.405   1.808   4.537  2.5557  0.2996  0.9120
  180SLPC  H18Y20591   3.527   1.703   4.445 -0.3734 -2.0443  1.6193
  180SLPC  H18Z20592   3.350   1.653   4.469  0.9093 -0.1069 -1.1107
  181SLPC     N20593   2.361   1.772   2.253  0.4052  0.2738  0.2119
  181SLPC   C1320594   2.455   1.818   2.153  0.4410 -0.5005  0.5206
  181SLPC  H13A20595   2.504   1.911   2.178 -1.4875  0.6270  0.2530
  181SLPC  H13B20596   2.535   1.747   2.137  1.1842  0.2735  0.7553
  181SLPC  H13C20597   2.402   1.842   2.062  1.1644  0.9187  0.4444
  181SLPC   C1420598   2.293   1.645   2.194  0.4470 -0.2724 -0.4622
  181SLPC  H14A20599   2.220   1.675   2.120  1.0769 -2.5595 -2.1225
  181SLPC  H14B20600   2.367   1.575   2.160  2.0292  0.9992  0.2407
  181SLPC  H14C20601   2.231   1.594   2.267  1.9805 -2.6286 -0.6814
  181SLPC   C1520602   2.259   1.868   2.272  0.5283 -0.4042  0.1811
  181SLPC  H15A20603   2.206   1.894   2.182  2.2026  0.0982 -0.6876
  181SLPC  H15B20604   2.182   1.839   2.343 -0.0726  0.2718 -0.1814
  181SLPC  H15C20605   2.296   1.958   2.318 -0.8434  0.1704  0.1982
  181SLPC   C1220606   2.443   1.741   2.370  0.4054 -0.8733  0.6880
  181SLPC  H12A20607   2.507   1.824   2.395 -0.7905 -0.2559  1.8061
  181SLPC  H12B20608   2.516   1.669   2.335  0.3310  0.1478 -1.6970
  181SLPC   C1120609   2.364   1.696   2.499  0.3779 -0.0088  0.2939
  181SLPC  H11A20610   2.277   1.762   2.519 -0.7083 -1.3671  0.2587
  181SLPC  H11B20611   2.426   1.705   2.590 -1.0225 -4.1048  1.8878
  181SLPC     P20612   2.421   1.447   2.480 -0.0798  0.3943 -0.0268
  181SLPC   O1320613   2.337   1.327   2.483  0.8030 -0.2637 -0.5316
  181SLPC   O1420614   2.510   1.451   2.358 -0.4213 -0.4222 -0.1804
  181SLPC   O1220615   2.319   1.566   2.493  0.1062 -0.0378  0.1575
  181SLPC   O1120616   2.511   1.452   2.611 -0.3998 -0.8480  0.2129
  181SLPC    C120617   2.634   1.523   2.618  0.1522 -0.3021 -0.1959
  181SLPC    HA20618   2.683   1.548   2.521 -0.9311 -1.3445 -1.0497
  181SLPC    HB20619   2.618   1.619   2.670 -0.4412  0.2985 -1.4451
  181SLPC    C220620   2.733   1.447   2.702  0.1263  0.6310  0.1916
  181SLPC    HS20621   2.716   1.340   2.678  0.2567 -0.0749  2.9133
  181SLPC   O2120622   2.711   1.484   2.840  0.1965  0.2104 -0.0839
  181SLPC   C2120623   2.736   1.383   2.929 -0.0435 -0.0624  0.4428
  181SLPC   O2220624   2.778   1.272   2.904 -0.6890 -0.3675 -0.6799
  181SLPC   C2220625   2.698   1.443   3.072  0.3356 -0.6994  0.5113
  181SLPC   H2R20626   2.718   1.552   3.071 -1.0787 -0.3965  1.2164
  181SLPC   H2S20627   2.588   1.428   3.068  0.4097 -0.9450 -1.1895
  181SLPC    C320628   2.873   1.506   2.669  0.0482 -0.0207  0.3194
  181SLPC    HX20629   2.864   1.616   2.676  1.9839  0.1959 -0.0119
  181SLPC    HY20630   2.903   1.497   2.562  0.9852  1.5904  0.4116
  181SLPC   O3120631   2.976   1.475   2.761  0.7635  0.4896  0.5918
  181SLPC   C3120632   3.023   1.354   2.740 -0.3672 -0.3596  0.1718
  181SLPC   O3220633   2.980   1.281   2.655 -0.1930 -0.0122 -0.1806
  181SLPC   C3220634   3.146   1.333   2.828  0.4357  0.3533  0.3364
  181SLPC   H2X20635   3.223   1.281   2.766 -0.6052 -1.2996  0.3732
  181SLPC   H2Y20636   3.113   1.273   2.915  0.2846  2.0964  1.5190
  181SLPC   C2320637   2.760   1.376   3.193  1.1128  0.1878 -0.4516
  181SLPC   H3R20638   2.867   1.394   3.169  1.1848 -1.1766 -1.3221
  181SLPC   H3S20639   2.775   1.266   3.184  3.2980  0.5755 -3.4257
  181SLPC   C2420640   2.710   1.422   3.330 -0.5142  0.3963  0.2531
  181SLPC   H4R20641   2.606   1.385   3.336 -1.1395  1.4355 -2.5414
  181SLPC   H4S20642   2.721   1.532   3.341  1.5603  0.3095 -0.4860
  181SLPC   C2520643   2.799   1.371   3.452 -0.5028 -0.1987  0.1696
  181SLPC   H5R20644   2.906   1.381   3.424 -0.9682  0.0527 -1.6647
  181SLPC   H5S20645   2.769   1.265   3.460  1.8129 -1.0117 -1.1330
  181SLPC   C2620646   2.763   1.446   3.582 -0.4949  0.3989  0.3609
  181SLPC   H6R20647   2.662   1.410   3.610 -1.3692  3.1015  0.9944
  181SLPC   H6S20648   2.764   1.554   3.556  0.9887  0.3369  0.0348
  181SLPC   C2720649   2.870   1.420   3.690  0.9069  0.0946 -0.2334
  181SLPC   H7R20650   2.957   1.477   3.652  0.8144  0.1619 -0.3426
  181SLPC   H7S20651   2.894   1.312   3.702 -1.2909 -0.5881 -1.4197
  181SLPC   C2820652   2.830   1.480   3.825 -0.9038  0.1463  0.5793
  181SLPC   H8R20653   2.745   1.417   3.859 -1.0223  0.6156  1.1619
  181SLPC   H8S20654   2.783   1.580   3.812  0.9560  1.0793  0.8630
  181SLPC   C2920655   2.930   1.486   3.939  0.4600 -0.5281 -0.3444
  181SLPC   H9R20656   3.021   1.540   3.909 -0.2200  1.1804  0.5601
  181SLPC  C21020657   2.922   1.438   4.063 -0.1837 -0.2658 -0.2832
  181SLPC  H10R20658   3.008   1.445   4.131 -1.2270 -2.2961  1.3793
  181SLPC  C21120659   2.811   1.376   4.129  0.1580  0.0444  0.1456
  181SLPC  H11R20660   2.844   1.271   4.148  1.2319  0.2969 -0.2119
  181SLPC  H11S20661   2.719   1.365   4.067  0.0576 -0.5640  0.3963
  181SLPC  C21220662   2.782   1.454   4.260 -0.1502  0.1868 -0.8321
  181SLPC  H12R20663   2.708   1.534   4.246 -0.8332 -0.6040 -1.9875
  181SLPC  C21320664   2.835   1.432   4.386 -0.4888  0.0438  0.6456
  181SLPC  H13R20665   2.812   1.507   4.463  2.5524  1.1822  0.5692
  181SLPC  C21420666   2.944   1.335   4.423 -0.0542 -0.7012  0.3883
  181SLPC  H14R20667   2.987   1.275   4.340  0.9179  1.4161 -0.6949
  181SLPC  H14S20668   2.900   1.256   4.488 -1.2265  0.2564  0.7889
  181SLPC  C21520669   3.061   1.400   4.489  0.5661  0.0371 -0.0456
  181SLPC  H15R20670   3.025   1.471   4.566  0.2703 -1.5054  1.3008
  181SLPC  H15S20671   3.130   1.451   4.418  0.0432 -1.0638 -1.4034
  181SLPC  C21620672   3.145   1.304   4.574 -0.1319  0.6646  0.4766
  181SLPC  H16R20673   3.191   1.249   4.489 -1.2102 -0.3593  0.5219
  181SLPC  H16S20674   3.085   1.227   4.626 -0.2828  0.3651 -0.1326
  181SLPC  C21720675   3.256   1.363   4.664  0.1385  0.2813 -0.0651
  181SLPC  H17R20676   3.202   1.432   4.732 -2.0391  0.7898 -2.1552
  181SLPC  H17S20677   3.329   1.416   4.599 -0.3925 -1.7537 -2.4842
  181SLPC  C21820678   3.332   1.255   4.740  0.0500  0.3806 -0.1345
  181SLPC  H18R20679   3.267   1.198   4.810 -0.3864  1.0495  0.0227
  181SLPC  H18S20680   3.419   1.286   4.802 -0.8213 -1.7592  2.3335
  181SLPC  H18T20681   3.372   1.189   4.660  1.1654  1.3927 -0.4350
  181SLPC   C3320682   3.226   1.455   2.886  0.1535  0.2246  0.1320
  181SLPC   H3X20683   3.237   1.529   2.804  0.1336  0.6024  0.4657
  181SLPC   H3Y20684   3.325   1.415   2.915  0.6162  0.8913 -0.4857
  181SLPC   C3420685   3.172   1.511   3.025  0.3213  0.1004 -0.5113
  181SLPC   H4X20686   3.062   1.526   3.030  0.4782  2.1657 -1.8862
  181SLPC   H4Y20687   3.210   1.615   3.037 -0.2151  0.1199  1.3228
  181SLPC   C3520688   3.231   1.428   3.139  0.3131 -0.4500 -0.6400
  181SLPC   H5X20689   3.338   1.403   3.125  0.6677 -0.0337  1.0352
  181SLPC   H5Y20690   3.171   1.335   3.139  1.5338 -1.4076  2.8969
  181SLPC   C3620691   3.221   1.485   3.283  0.2177  0.3810 -0.7809
  181SLPC   H6X20692   3.117   1.518   3.308  0.7298 -0.1949  2.6138
  181SLPC   H6Y20693   3.285   1.576   3.290 -0.7950  1.1599 -1.2697
  181SLPC   C3720694   3.263   1.380   3.383  0.3985  0.3142 -0.2976
  181SLPC   H7X20695   3.373   1.374   3.364  0.3437 -1.2581 -0.2412
  181SLPC   H7Y20696   3.210   1.285   3.361 -1.7437  1.4424 -0.2155
  181SLPC   C3820697   3.245   1.429   3.525 -0.3943 -0.0422 -0.1043
  181SLPC   H8X20698   3.138   1.439   3.555 -0.4258 -1.4436  0.3161
  181SLPC   H8Y20699   3.288   1.531   3.532  2.8848 -1.3876  1.0818
  181SLPC   C3920700   3.314   1.335   3.624 -0.0842  0.0074  0.0995
  181SLPC   H9X20701   3.420   1.310   3.601 -0.1855 -0.9555  0.6518
  181SLPC   H9Y20702   3.261   1.238   3.621 -2.0190  0.9536  1.3549
  181SLPC  C31020703   3.311   1.388   3.772 -0.0677 -0.0238  0.6975
  181SLPC  H10X20704   3.206   1.407   3.802 -0.2647 -0.2190  0.1328
  181SLPC  H10Y20705   3.365   1.485   3.777 -3.4350  2.0299  0.0858
  181SLPC  C31120706   3.380   1.287   3.876  0.9722 -0.2491 -0.1983
  181SLPC  H11X20707   3.483   1.260   3.845  1.3205 -2.6939  2.6327
  181SLPC  H11Y20708   3.308   1.203   3.882 -0.5866  1.0780  0.6390
  181SLPC  C31220709   3.371   1.340   4.019 -0.7372  0.1578  0.2166
  181SLPC  H12X20710   3.273   1.386   4.043 -0.3014  0.8437  0.7271
  181SLPC  H12Y20711   3.443   1.422   4.038  0.0542 -0.6955  0.9952
  181SLPC  C31320712   3.414   1.227   4.121 -0.3944 -0.3600 -0.0731
  181SLPC  H13X20713   3.494   1.168   4.071 -0.3121 -0.2755 -0.0409
  181SLPC  H13Y20714   3.317   1.173   4.123 -0.6592  0.1265  0.4132
  181SLPC  C31420715   3.454   1.261   4.260  0.1956 -0.2516  0.3298
  181SLPC  H14X20716   3.461   1.166   4.316  3.2492 -0.7466 -0.7370
  181SLPC  H14Y20717   3.381   1.333   4.305  0.4567  1.8819 -2.3719
  181SLPC  C31520718   3.587   1.319   4.287 -0.5350 -0.9999 -0.1997
  181SLPC  H15X20719   3.608   1.411   4.228 -0.3965 -1.4226 -0.8164
  181SLPC  H15Y20720   3.672   1.256   4.251  2.1061  3.2465 -2.2286
  181SLPC  C31620721   3.611   1.338   4.436 -0.0780  0.6447 -0.3328
  181SLPC  H16X20722   3.604   1.238   4.485  2.0298  0.2170 -0.8265
  181SLPC  H16Y20723   3.537   1.411   4.475  1.4350  1.5108  1.0375
  181SLPC  C31720724   3.752   1.392   4.477  0.2337 -0.3874  0.1863
  181SLPC  H17X20725   3.756   1.497   4.440 -1.1234  0.1084  1.3686
  181SLPC  H17Y20726   3.827   1.327   4.427 -1.2255 -0.2989 -2.2591
  181SLPC  C31820727   3.786   1.399   4.624 -0.6846  0.3451 -0.2717
  181SLPC  H18X20728   3.897   1.409   4.630  0.3886 -6.5677 -0.7215
  181SLPC  H18Y20729   3.759   1.305   4.677  0.7811  0.1771  0.2147
  181SLPC  H18Z20730   3.739   1.487   4.672  1.8302  0.8787  1.4373
  182SLPC     N20731   0.343   2.301   2.269  0.3607 -0.7760  1.0175
  182SLPC   C1320732   0.209   2.270   2.201 -0.1367 -0.0291 -0.3887
  182SLPC  H13A20733   0.229   2.180   2.145  0.0060 -0.0854 -0.2488
  182SLPC  H13B20734   0.135   2.232   2.270 -1.0415 -0.2536 -1.4659
  182SLPC  H13C20735   0.182   2.356   2.142  2.3039 -0.2287 -1.9359
  182SLPC   C1420736   0.312   2.421   2.355 -0.2076 -0.3694  0.4630
  182SLPC  H14A20737   0.384   2.424   2.435 -0.6288 -0.5712  0.8569
  182SLPC  H14B20738   0.317   2.519   2.310 -0.1392 -0.6492 -0.1422
  182SLPC  H14C20739   0.213   2.407   2.397  0.0383 -1.2659  0.7642
  182SLPC   C1520740   0.450   2.344   2.171  0.6327  0.5358  0.5767
  182SLPC  H15A20741   0.462   2.267   2.096 -0.3460  1.0797 -0.1626
  182SLPC  H15B20742   0.429   2.439   2.125 -0.5388  0.4883  0.9867
  182SLPC  H15C20743   0.547   2.348   2.219 -0.0747 -1.0220  2.2485
  182SLPC   C1220744   0.387   2.185   2.361 -0.5136 -0.1439 -0.0939
  182SLPC  H12A20745   0.316   2.172   2.441  0.1796  0.3629  0.6142
  182SLPC  H12B20746   0.482   2.210   2.406 -0.0866  0.9555 -1.5365
  182SLPC   C1120747   0.387   2.044   2.296 -0.0206  0.5976 -0.4916
  182SLPC  H11A20748   0.430   2.059   2.195  0.4802 -2.2264 -0.7756
  182SLPC  H11B20749   0.282   2.009   2.289  0.9569 -2.5316 -1.2154
  182SLPC     P20750   0.463   1.802   2.357  0.0742  0.2436  0.4003
  182SLPC   O1320751   0.401   1.775   2.227  0.8973 -0.3347  0.1932
  182SLPC   O1420752   0.595   1.748   2.379 -0.1754 -0.7597 -0.6236
  182SLPC   O1220753   0.472   1.961   2.368 -0.3502  0.1514  0.7791
  182SLPC   O1120754   0.367   1.762   2.467  0.0044  0.2712 -0.1689
  182SLPC    C120755   0.236   1.817   2.496 -0.1993 -0.1682 -0.1608
  182SLPC    HA20756   0.198   1.857   2.399 -1.1978 -0.9284 -0.0948
  182SLPC    HB20757   0.170   1.737   2.535 -0.7413  0.8351  1.0794
  182SLPC    C220758   0.236   1.925   2.600  0.3025 -0.5842 -0.7499
  182SLPC    HS20759   0.311   2.001   2.572 -0.1288  0.2295  0.2377
  182SLPC   O2120760   0.252   1.872   2.731 -0.4665 -0.0975  0.3047
  182SLPC   C2120761   0.329   1.955   2.810 -0.6951  0.4376  0.4306
  182SLPC   O2220762   0.403   2.047   2.777 -0.4243  0.2111  0.1601
  182SLPC   C2220763   0.294   1.917   2.958  0.0333  0.4092  1.0558
  182SLPC   H2R20764   0.212   1.986   2.986  0.6343  1.8824 -0.5913
  182SLPC   H2S20765   0.266   1.809   2.965  1.6824 -0.0426  1.1400
  182SLPC    C320766   0.100   1.991   2.605  0.9359  0.0716  0.2194
  182SLPC    HX20767   0.031   1.905   2.618  0.4693  0.1550 -1.4572
  182SLPC    HY20768   0.063   2.034   2.510  0.8245  2.0863  1.1194
  182SLPC   O3120769   0.080   2.072   2.715 -0.5673  0.0321 -0.4763
  182SLPC   C3120770   0.130   2.197   2.708  0.4119  0.5946  0.0371
  182SLPC   O3220771   0.194   2.241   2.616 -0.0037  0.1067 -0.3903
  182SLPC   C3220772   0.094   2.278   2.836 -0.6118 -0.3178 -0.1329
  182SLPC   H2X20773   0.095   2.209   2.923 -1.7350  0.1786  0.3014
  182SLPC   H2Y20774  -0.005   2.327   2.825  1.2393  4.5115  1.9280
  182SLPC   C2320775   0.423   1.942   3.042  0.1265  0.7845 -0.3873
  182SLPC   H3R20776   0.468   2.039   3.013 -0.1709  0.0458 -3.7908
  182SLPC   H3S20777   0.503   1.868   3.019 -0.6333  0.2103 -1.2608
  182SLPC   C2420778   0.386   1.929   3.187 -0.0013 -0.5507 -0.5331
  182SLPC   H4R20779   0.312   1.849   3.208  0.9397 -1.2293  0.3051
  182SLPC   H4S20780   0.328   2.022   3.204  1.1256  0.3070 -1.2739
  182SLPC   C2520781   0.503   1.923   3.289  0.2673  0.1829  0.4701
  182SLPC   H5R20782   0.570   2.011   3.278  0.5919 -0.2587 -1.4800
  182SLPC   H5S20783   0.562   1.830   3.271 -3.4422 -2.3501  0.3144
  182SLPC   C2620784   0.450   1.918   3.433 -0.1903  0.4829  0.0175
  182SLPC   H6R20785   0.375   1.836   3.440 -1.1469  1.4310  1.1420
  182SLPC   H6S20786   0.402   2.011   3.468  1.0066  1.7512 -1.5633
  182SLPC   C2720787   0.565   1.871   3.538  0.0768 -0.3492 -0.9314
  182SLPC   H7R20788   0.630   1.960   3.548  0.4523 -0.2931 -3.3313
  182SLPC   H7S20789   0.620   1.789   3.488 -0.0134 -0.0528 -1.5246
  182SLPC   C2820790   0.517   1.818   3.675  0.0481 -0.4378  0.0365
  182SLPC   H8R20791   0.610   1.799   3.732 -1.0354 -3.3304  1.0480
  182SLPC   H8S20792   0.488   1.714   3.648  2.8109 -1.3191  0.1959
  182SLPC   C2920793   0.409   1.891   3.743  0.0414 -0.0933  0.1707
  182SLPC   H9R20794   0.318   1.912   3.684 -0.7399 -4.5913 -0.5307
  182SLPC  C21020795   0.399   1.917   3.874 -0.1536  0.1509 -0.1643
  182SLPC  H10R20796   0.316   1.972   3.920 -0.1634 -0.9045  1.1414
  182SLPC  C21120797   0.502   1.875   3.977  0.7375 -0.5316 -0.1136
  182SLPC  H11R20798   0.592   1.828   3.931 -0.8584 -2.1597 -1.7258
  182SLPC  H11S20799   0.460   1.790   4.035 -0.7059 -3.3581 -4.7942
  182SLPC  C21220800   0.525   1.990   4.072 -0.3096  0.2479 -0.0782
  182SLPC  H12R20801   0.498   2.090   4.036 -0.1476 -0.1637 -1.4300
  182SLPC  C21320802   0.572   1.982   4.194  0.1014 -0.1761  0.1956
  182SLPC  H13R20803   0.575   2.074   4.255  5.2344  1.3426 -1.8539
  182SLPC  C21420804   0.625   1.858   4.266 -0.1044  0.2582 -0.2088
  182SLPC  H14R20805   0.735   1.866   4.277 -0.2598  0.9439  1.0434
  182SLPC  H14S20806   0.614   1.768   4.202 -0.8407  1.2490 -1.5310
  182SLPC  C21520807   0.552   1.842   4.405  0.8714 -0.4097 -0.0551
  182SLPC  H15R20808   0.565   1.931   4.470 -0.5699 -0.7784  0.7991
  182SLPC  H15S20809   0.593   1.759   4.467  0.1342  0.0423  1.0844
  182SLPC  C21620810   0.396   1.828   4.382  0.3753 -0.6338 -0.8834
  182SLPC  H16R20811   0.385   1.778   4.283  0.5563  0.4824 -1.4886
  182SLPC  H16S20812   0.375   1.935   4.363  3.2070 -0.0642 -1.2084
  182SLPC  C21720813   0.312   1.770   4.495  0.5942 -0.0515 -0.3563
  182SLPC  H17R20814   0.339   1.835   4.581  0.4530  0.1828 -0.4861
  182SLPC  H17S20815   0.338   1.664   4.514 -0.8797 -0.3210  0.2608
  182SLPC  C21820816   0.158   1.789   4.474 -0.2635  0.4139 -0.6458
  182SLPC  H18R20817   0.117   1.730   4.389 -0.9387 -0.2497  0.1199
  182SLPC  H18S20818   0.142   1.895   4.446 -1.3851  1.0803  2.2383
  182SLPC  H18T20819   0.095   1.760   4.560 -1.1724  0.9845 -1.1062
  182SLPC   C3320820   0.187   2.403   2.860  0.1839  0.6491 -0.4822
  182SLPC   H3X20821   0.146   2.456   2.949 -0.2942  1.5904 -1.2488
  182SLPC   H3Y20822   0.192   2.474   2.775  0.8011 -0.3315 -1.2895
  182SLPC   C3420823   0.330   2.351   2.905  0.1571  0.6071 -0.5409
  182SLPC   H4X20824   0.405   2.363   2.824  0.5456 -1.8235 -0.6128
  182SLPC   H4Y20825   0.320   2.244   2.933 -0.5957  1.2659  1.9209
  182SLPC   C3520826   0.378   2.424   3.027 -0.2735  0.0068 -0.4518
  182SLPC   H5X20827   0.325   2.520   3.037 -2.1479 -1.1794  2.4574
  182SLPC   H5Y20828   0.489   2.434   3.026 -0.1584 -1.1222 -0.8947
  182SLPC   C3620829   0.333   2.345   3.156 -0.5485 -0.0014  1.1063
  182SLPC   H6X20830   0.391   2.251   3.162  1.0892  0.5916 -2.6223
  182SLPC   H6Y20831   0.225   2.318   3.150 -0.3258 -0.8440  0.7711
  182SLPC   C3720832   0.356   2.434   3.278  0.3729  0.1019 -0.0417
  182SLPC   H7X20833   0.308   2.534   3.273  1.6996  0.8209  0.8511
  182SLPC   H7Y20834   0.462   2.467   3.287  0.1544  0.9138 -0.4102
  182SLPC   C3820835   0.316   2.353   3.402  0.5385  0.5106  0.0055
  182SLPC   H8X20836   0.361   2.251   3.406 -2.4224 -0.8700  2.7887
  182SLPC   H8Y20837   0.206   2.342   3.408  0.5595 -0.1033 -0.5296
  182SLPC   C3920838   0.373   2.421   3.527 -0.4869  0.2761 -0.5014
  182SLPC   H9X20839   0.420   2.516   3.492 -1.0900  0.6459 -0.3403
  182SLPC   H9Y20840   0.445   2.348   3.569 -0.2163  0.3323 -0.8624
  182SLPC  C31020841   0.267   2.480   3.625 -0.1948 -0.4400 -0.3408
  182SLPC  H10X20842   0.180   2.520   3.569 -0.6969 -0.2984  0.5213
  182SLPC  H10Y20843   0.303   2.570   3.679  0.0769  0.6343 -2.2203
  182SLPC  C31120844   0.235   2.377   3.732 -0.2725  0.0165 -0.7553
  182SLPC  H11X20845   0.238   2.283   3.673 -2.2288  1.4453 -3.3478
  182SLPC  H11Y20846   0.129   2.396   3.759  0.1984 -1.3663  2.7169
  182SLPC  C31220847   0.334   2.394   3.855 -0.0821 -0.5067 -0.6801
  182SLPC  H12X20848   0.346   2.502   3.881 -1.4238 -0.7626  1.1812
  182SLPC  H12Y20849   0.440   2.369   3.832  0.3173  1.2119 -0.8513
  182SLPC  C31320850   0.291   2.311   3.980  0.0364  0.1193  0.2911
  182SLPC  H13X20851   0.299   2.205   3.949  4.2429  0.1813  0.5875
  182SLPC  H13Y20852   0.190   2.355   3.996 -0.1013  0.1895 -0.7145
  182SLPC  C31420853   0.382   2.326   4.102 -0.3866  0.0922  0.0971
  182SLPC  H14X20854   0.397   2.434   4.121  0.0629 -0.3246  2.3502
  182SLPC  H14Y20855   0.479   2.277   4.076 -1.2224 -0.6866 -1.7800
  182SLPC  C31520856   0.313   2.273   4.226  0.5708  0.3773 -0.3305
  182SLPC  H15X20857   0.284   2.166   4.214 -1.9899  0.5986  2.5517
  182SLPC  H15Y20858   0.220   2.334   4.225 -0.3772 -0.9642 -2.3632
  182SLPC  C31620859   0.389   2.295   4.355 -0.1117 -0.2841 -0.8961
  182SLPC  H16X20860   0.401   2.405   4.369 -0.0161 -0.3718 -0.2521
  182SLPC  H16Y20861   0.494   2.259   4.353  0.2681  0.7603 -0.2673
  182SLPC  C31720862   0.297   2.248   4.474  1.4286  0.0758 -0.8560
  182SLPC  H17X20863   0.261   2.144   4.469 -3.8522  1.5193  0.9783
  182SLPC  H17Y20864   0.208   2.315   4.471  2.4916  1.5421 -1.0243
  182SLPC  C31820865   0.368   2.264   4.609 -0.3075  0.6296 -0.2868
  182SLPC  H18X20866   0.453   2.194   4.617 -0.0214  0.6145 -2.7158
  182SLPC  H18Y20867   0.296   2.259   4.693 -2.0107 -2.4414 -1.7568
  182SLPC  H18Z20868   0.399   2.371   4.601 -0.9351  0.9592  1.2825
  183SLPC     N20869   2.449   3.498   2.366 -0.1829  0.2557 -0.9784
  183SLPC   C1320870   2.386   3.591   2.270 -0.0109  0.7486  0.2112
  183SLPC  H13A20871   2.317   3.544   2.201 -0.1515 -0.2591  1.0258
  183SLPC  H13B20872   2.335   3.667   2.326  1.2245  0.6446  1.5398
  183SLPC  H13C20873   2.463   3.635   2.208 -0.5133  2.6714  0.8653
  183SLPC   C1420874   2.521   3.383   2.292  0.1051 -0.0982 -0.0338
  183SLPC  H14A20875   2.594   3.425   2.223  0.3600  0.0542  0.3242
  183SLPC  H14B20876   2.582   3.329   2.363  1.6553  3.1248  1.3236
  183SLPC  H14C20877   2.463   3.314   2.233  2.9855 -0.7819 -2.3554
  183SLPC   C1520878   2.341   3.431   2.454  0.1316  0.7175  0.2167
  183SLPC  H15A20879   2.278   3.504   2.503  1.0263  1.4518  0.2988
  183SLPC  H15B20880   2.277   3.377   2.385  0.3212  1.4467 -0.5484
  183SLPC  H15C20881   2.388   3.367   2.527 -0.1545  0.9433  0.6027
  183SLPC   C1220882   2.547   3.567   2.453 -0.6555  0.0465 -0.1616
  183SLPC  H12A20883   2.494   3.639   2.514  0.2650 -0.2602  1.0570
  183SLPC  H12B20884   2.617   3.627   2.397  0.0447 -0.7204 -0.1314
  183SLPC   C1120885   2.630   3.478   2.551  0.5166 -0.3196 -0.3728
  183SLPC  H11A20886   2.711   3.531   2.607  0.9863 -2.3847  1.0184
  183SLPC  H11B20887   2.691   3.394   2.511 -0.1186 -1.5179  1.0970
  183SLPC     P20888   2.559   3.279   2.710  0.6465 -0.1220 -0.0881
  183SLPC   O1320889   2.505   3.178   2.619  0.4734  0.1938 -0.2625
  183SLPC   O1420890   2.699   3.263   2.749  0.4748 -0.3605  0.6352
  183SLPC   O1220891   2.545   3.423   2.654 -0.1000 -0.4545  0.0307
  183SLPC   O1120892   2.471   3.289   2.846  0.3720 -0.2437 -0.2815
  183SLPC    C120893   2.353   3.368   2.842  0.4105  0.4386 -0.0622
  183SLPC    HA20894   2.309   3.371   2.740  0.3385 -0.3557 -0.0636
  183SLPC    HB20895   2.277   3.321   2.908  1.4539 -0.7997  0.2973
  183SLPC    C220896   2.375   3.514   2.890  0.3266  0.3724 -0.1214
  183SLPC    HS20897   2.448   3.557   2.818  1.2737 -0.1362  0.5145
  183SLPC   O2120898   2.440   3.508   3.024  0.3725  0.4597 -0.1117
  183SLPC   C2120899   2.513   3.614   3.050  0.4798  0.3358 -0.9959
  183SLPC   O2220900   2.523   3.708   2.972 -0.1410 -0.3653  0.1775
  183SLPC   C2220901   2.588   3.595   3.184 -0.0605  0.8254 -0.4860
  183SLPC   H2R20902   2.590   3.484   3.187 -2.3870  0.7513 -0.1876
  183SLPC   H2S20903   2.693   3.632   3.178  1.2261 -2.5045 -0.8181
  183SLPC    C320904   2.251   3.603   2.897 -0.3132  0.3861 -0.5277
  183SLPC    HX20905   2.219   3.621   2.792  0.4092 -1.8919 -1.2207
  183SLPC    HY20906   2.283   3.703   2.932  2.0204  0.6250 -3.0022
  183SLPC   O3120907   2.142   3.545   2.977  0.2659  0.1283 -0.0084
  183SLPC   C3120908   2.026   3.611   2.964 -0.1110  0.1858  0.3599
  183SLPC   O3220909   2.017   3.715   2.897  0.4841 -0.0504  0.8015
  183SLPC   C3220910   1.912   3.528   3.041  0.2924 -0.1827 -0.4390
  183SLPC   H2X20911   1.956   3.449   3.105  0.1843 -0.6853 -0.9749
  183SLPC   H2Y20912   1.844   3.470   2.975  0.5499 -3.2352  1.7611
  183SLPC   C2320913   2.509   3.656   3.299  0.5159  0.8489 -0.1888
  183SLPC   H3R20914   2.400   3.638   3.283  0.5458 -1.0797  1.4085
  183SLPC   H3S20915   2.525   3.766   3.302  0.2304  0.9576 -1.8792
  183SLPC   C2420916   2.548   3.604   3.430  0.5176  0.0812  0.1174
  183SLPC   H4R20917   2.484   3.657   3.503  0.4123 -0.1040  0.1621
  183SLPC   H4S20918   2.654   3.633   3.445  0.0632  0.6892  2.4979
  183SLPC   C2520919   2.527   3.458   3.462 -0.3689 -1.3550 -0.2972
  183SLPC   H5R20920   2.609   3.410   3.404 -0.1275 -0.8361 -0.3915
  183SLPC   H5S20921   2.422   3.430   3.439 -2.2607  2.1633  2.9930
  183SLPC   C2620922   2.561   3.419   3.606  0.2178  0.0677 -0.5451
  183SLPC   H6R20923   2.490   3.463   3.680 -1.5974 -2.6842 -0.5118
  183SLPC   H6S20924   2.664   3.454   3.626 -0.0495  0.5483  0.0225
  183SLPC   C2720925   2.563   3.264   3.631  0.2573  0.4740  0.5080
  183SLPC   H7R20926   2.658   3.232   3.582  0.0458  1.0290 -0.2769
  183SLPC   H7S20927   2.473   3.217   3.588  0.7257 -0.0477  0.0949
  183SLPC   C2820928   2.591   3.237   3.777  0.0099  0.8226 -0.5106
  183SLPC   H8R20929   2.647   3.324   3.817 -0.9415  1.9867 -1.6479
  183SLPC   H8S20930   2.652   3.144   3.785 -0.8758  0.3610  2.1157
  183SLPC   C2920931   2.453   3.247   3.845 -0.4209  0.1383 -0.1293
  183SLPC   H9R20932   2.376   3.205   3.779 -2.4075  2.7811  0.3092
  183SLPC  C21020933   2.410   3.302   3.962  0.8829  0.3123  0.1716
  183SLPC  H10R20934   2.305   3.283   3.985  0.6778 -3.6908 -2.9624
  183SLPC  C21120935   2.513   3.374   4.057 -0.0083 -0.0752  0.2510
  183SLPC  H11R20936   2.591   3.428   3.999 -1.0046  0.5740 -0.5062
  183SLPC  H11S20937   2.573   3.301   4.115  2.1116  0.9791 -0.5216
  183SLPC  C21220938   2.450   3.466   4.165  0.7700  0.3840  0.0920
  183SLPC  H12R20939   2.397   3.555   4.128  2.8920  1.3770 -0.6825
  183SLPC  C21320940   2.439   3.437   4.297 -0.2980 -0.7868  0.5002
  183SLPC  H13R20941   2.398   3.517   4.360  1.8746  1.9880 -1.3574
  183SLPC  C21420942   2.496   3.315   4.368  0.4318  0.1601  0.1449
  183SLPC  H14R20943   2.558   3.361   4.448  1.7932 -1.6317  0.1604
  183SLPC  H14S20944   2.559   3.252   4.302 -2.1149 -0.2136 -2.0922
  183SLPC  C21520945   2.393   3.228   4.440 -0.2570 -0.2389  0.1435
  183SLPC  H15R20946   2.336   3.293   4.509  0.3631  1.6028 -1.0158
  183SLPC  H15S20947   2.442   3.152   4.505 -1.2333  0.6838  2.0302
  183SLPC  C21620948   2.293   3.160   4.350  0.2771 -0.0672  0.2356
  183SLPC  H16R20949   2.342   3.103   4.268  0.7011  2.4641 -1.4242
  183SLPC  H16S20950   2.248   3.240   4.286  3.7876  1.6499 -0.3229
  183SLPC  C21720951   2.186   3.088   4.427  0.4216 -0.1773  0.2836
  183SLPC  H17R20952   2.109   3.044   4.360  1.4369 -3.1935  0.9593
  183SLPC  H17S20953   2.139   3.155   4.502 -0.4924 -1.3540  0.7940
  183SLPC  C21820954   2.233   2.977   4.521 -0.1751  0.8537 -0.2404
  183SLPC  H18R20955   2.250   2.888   4.457 -0.0993  0.3328  0.4941
  183SLPC  H18S20956   2.156   2.942   4.593 -0.3651  0.5390 -0.5966
  183SLPC  H18T20957   2.330   2.999   4.570 -0.5367  2.9400 -0.3590
  183SLPC   C3320958   1.827   3.632   3.121  0.6083 -0.2886  0.7615
  183SLPC   H3X20959   1.728   3.592   3.155  1.3225 -0.8159  2.3118
  183SLPC   H3Y20960   1.793   3.720   3.062  2.3156  0.1020  0.3331
  183SLPC   C3420961   1.891   3.674   3.250 -0.0430  0.7226  0.6331
  183SLPC   H4X20962   1.970   3.750   3.236 -0.6405  1.5603  1.6914
  183SLPC   H4Y20963   1.926   3.584   3.305 -0.2329  0.6567  0.6483
  183SLPC   C3520964   1.788   3.730   3.349  0.5012  0.3859  0.2351
  183SLPC   H5X20965   1.702   3.660   3.355  0.3148  0.6486  0.7637
  183SLPC   H5Y20966   1.742   3.824   3.311 -1.5121  0.2405  2.1275
  183SLPC   C3620967   1.838   3.745   3.493 -0.0455 -0.1855 -0.0122
  183SLPC   H6X20968   1.921   3.819   3.493  1.1019 -1.4045  1.7834
  183SLPC   H6Y20969   1.882   3.653   3.537  0.6224  0.9641  1.8529
  183SLPC   C3720970   1.735   3.785   3.605 -0.1257  0.3851 -0.3332
  183SLPC   H7X20971   1.642   3.724   3.596  0.3447 -0.2670 -0.8356
  183SLPC   H7Y20972   1.711   3.892   3.587  2.0145  0.5643 -2.6207
  183SLPC   C3820973   1.798   3.780   3.739  0.1144 -0.1207  0.1597
  183SLPC   H8X20974   1.891   3.841   3.735 -0.6809  1.0743 -0.7892
  183SLPC   H8Y20975   1.830   3.674   3.753 -1.1680 -0.3621  1.5730
  183SLPC   C3920976   1.710   3.829   3.847 -1.1202 -0.5175 -0.6141
  183SLPC   H9X20977   1.609   3.785   3.833 -1.3490 -0.1499 -0.1393
  183SLPC   H9Y20978   1.701   3.939   3.838  0.1982 -0.3204  0.2088
  183SLPC  C31020979   1.773   3.792   3.987 -0.7502  0.2959  0.3517
  183SLPC  H10X20980   1.872   3.840   3.993 -0.7762  0.5152 -0.8599
  183SLPC  H10Y20981   1.786   3.681   3.984 -1.8141  0.1587  0.1535
  183SLPC  C31120982   1.687   3.842   4.108  0.3688  0.3015  0.3711
  183SLPC  H11X20983   1.582   3.828   4.076  0.0718  2.3333  0.3153
  183SLPC  H11Y20984   1.699   3.953   4.111  0.9895  0.2480  0.1392
  183SLPC  C31220985   1.713   3.775   4.238  0.7725 -0.1069  0.3163
  183SLPC  H12X20986   1.821   3.776   4.263  0.2225  2.3430  3.2134
  183SLPC  H12Y20987   1.668   3.674   4.237 -1.7089  0.9143  0.9134
  183SLPC  C31320988   1.657   3.869   4.348  0.4584 -0.3097  0.0305
  183SLPC  H13X20989   1.549   3.894   4.342  0.3226 -0.7569  0.4726
  183SLPC  H13Y20990   1.711   3.966   4.347  0.6176 -0.3082 -3.4169
  183SLPC  C31420991   1.663   3.791   4.487 -0.0167 -0.4470  0.2141
  183SLPC  H14X20992   1.620   3.857   4.566  0.9433  2.5672 -1.5948
  183SLPC  H14Y20993   1.769   3.772   4.513  0.2762  0.3959 -0.3097
  183SLPC  C31520994   1.579   3.663   4.493  0.1827 -0.3599 -0.2002
  183SLPC  H15X20995   1.639   3.580   4.450 -0.0476 -1.9451  2.3262
  183SLPC  H15Y20996   1.488   3.677   4.431 -0.3393 -1.0757  0.3880
  183SLPC  C31620997   1.522   3.632   4.638 -0.3283  0.0421 -0.9752
  183SLPC  H16X20998   1.448   3.705   4.677  1.1177  0.3990  1.2892
  183SLPC  H16Y20999   1.601   3.630   4.716 -2.0589 -1.9835  0.8869
  183SLPC  C31721000   1.450   3.491   4.647 -0.1457  0.1652  0.0988
  183SLPC  H17X21001   1.376   3.487   4.565  2.4504  0.3479 -2.4092
  183SLPC  H17Y21002   1.406   3.477   4.748  0.9760 -0.0520  0.5756
  183SLPC  C31821003   1.554   3.370   4.633 -0.5267  0.3055  0.4308
  183SLPC  H18X21004   1.522   3.267   4.656 -1.0686  0.4281  0.2437
  183SLPC  H18Y21005   1.625   3.394   4.715 -0.8234 -0.8310  1.0366
  183SLPC  H18Z21006   1.590   3.372   4.528 -2.5154 -1.7544 -0.3678
  184SLPC     N21007   0.937   4.897   2.336 -0.3277  0.0319  0.0895
  184SLPC   C1321008   0.835   4.828   2.428  0.5553 -0.7481  0.1465
  184SLPC  H13A21009   0.872   4.728   2.444  1.8128 -1.0601 -3.6928
  184SLPC  H13B21010   0.817   4.874   2.523 -0.8652 -1.2300  0.1226
  184SLPC  H13C21011   0.735   4.816   2.390  0.4538 -3.1235  1.0118
  184SLPC   C1421012   0.875   5.025   2.288  0.2604 -0.0653  0.5165
  184SLPC  H14A21013   0.950   5.083   2.236  0.0860 -0.7608 -0.5655
  184SLPC  H14B21014   0.790   5.016   2.222  0.9626  1.7050 -0.7044
  184SLPC  H14C21015   0.838   5.078   2.374 -1.8215 -0.6805  0.0553
  184SLPC   C1521016   0.963   4.799   2.218  0.6667 -0.3321  0.2650
  184SLPC  H15A21017   0.869   4.772   2.173  0.9783  0.8497 -1.1518
  184SLPC  H15B21018   1.026   4.839   2.141 -1.3243  1.1253 -0.7027
  184SLPC  H15C21019   1.014   4.710   2.253 -0.1447 -0.9115  0.0081
  184SLPC   C1221020   1.073   4.927   2.401  0.9176 -0.0962 -0.1785
  184SLPC  H12A21021   1.053   4.994   2.483  1.5397 -3.6767  3.2158
  184SLPC  H12B21022   1.128   4.978   2.323 -0.3582  0.0391 -1.0089
  184SLPC   C1121023   1.158   4.802   2.447  0.0629  0.3621 -0.2773
  184SLPC  H11A21024   1.100   4.739   2.519  0.5349 -2.5167 -2.2158
  184SLPC  H11B21025   1.246   4.841   2.502 -1.1138  1.4389  0.9432
  184SLPC     P21026   1.317   4.770   2.246 -0.1474 -0.0977 -0.0178
  184SLPC   O1321027   1.285   4.746   2.102  0.1413  0.3055 -0.1554
  184SLPC   O1421028   1.362   4.907   2.270 -0.0019 -0.2682  0.3729
  184SLPC   O1221029   1.208   4.711   2.347 -0.1844 -0.5918 -0.2712
  184SLPC   O1121030   1.449   4.689   2.274 -0.0055  0.1014  0.4475
  184SLPC    C121031   1.559   4.758   2.341  0.0557  0.1573  0.0840
  184SLPC    HA21032   1.631   4.793   2.264 -0.9814 -1.7755 -1.8823
  184SLPC    HB21033   1.520   4.841   2.403 -2.2446 -2.0193  1.7400
  184SLPC    C221034   1.614   4.650   2.440 -0.3810  0.2225 -0.1727
  184SLPC    HS21035   1.650   4.570   2.371  2.0534 -0.2674  1.5589
  184SLPC   O2121036   1.508   4.594   2.521  0.0052  0.1750  0.4518
  184SLPC   C2121037   1.552   4.491   2.598 -0.0658 -0.3438 -0.0766
  184SLPC   O2221038   1.665   4.449   2.606  0.4842  0.3951 -0.2054
  184SLPC   C2221039   1.438   4.428   2.667 -0.7837 -0.7935 -0.0783
  184SLPC   H2R21040   1.355   4.406   2.596 -2.0256 -0.1488  1.1162
  184SLPC   H2S21041   1.473   4.334   2.715 -0.2876 -1.2234 -1.2482
  184SLPC    C321042   1.723   4.711   2.521 -0.7333  0.6047  0.0606
  184SLPC    HX21043   1.775   4.782   2.453 -0.0747 -0.0339 -0.1224
  184SLPC    HY21044   1.802   4.639   2.553  0.9066  2.4906  0.4704
  184SLPC   O3121045   1.674   4.780   2.639 -0.0442 -0.3395 -0.4900
  184SLPC   C3121046   1.777   4.818   2.725  0.3290  0.2780 -0.1270
  184SLPC   O3221047   1.891   4.788   2.706 -0.0001  0.7892 -0.6308
  184SLPC   C3221048   1.723   4.928   2.820 -0.4323 -0.0334 -0.2352
  184SLPC   H2X21049   1.612   4.927   2.821 -0.4333 -0.7188  0.5303
  184SLPC   H2Y21050   1.754   5.029   2.788 -0.1686  0.4447  1.4303
  184SLPC   C2321051   1.383   4.523   2.777  0.2984  0.3237  0.4415
  184SLPC   H3R21052   1.458   4.603   2.793 -0.6375  1.7015 -1.5586
  184SLPC   H3S21053   1.368   4.467   2.872  2.7467 -1.3581 -0.0414
  184SLPC   C2421054   1.257   4.602   2.738  0.0210 -0.4514 -0.5331
  184SLPC   H4R21055   1.173   4.532   2.717 -1.6002  0.2234  2.9985
  184SLPC   H4S21056   1.278   4.651   2.640  1.5784 -1.0686 -0.5379
  184SLPC   C2521057   1.206   4.708   2.839  0.5997 -0.1452 -0.6138
  184SLPC   H5R21058   1.114   4.759   2.802  1.0962  1.1555 -0.1148
  184SLPC   H5S21059   1.281   4.790   2.833  0.3899  0.1867  0.9112
  184SLPC   C2621060   1.201   4.668   2.986 -0.1710 -0.0867  0.7732
  184SLPC   H6R21061   1.304   4.672   3.027 -0.4335  2.2921  1.3502
  184SLPC   H6S21062   1.157   4.567   2.995  0.3031 -0.6051 -1.8243
  184SLPC   C2721063   1.135   4.776   3.081  0.1330 -0.7092 -0.2926
  184SLPC   H7R21064   1.025   4.783   3.065  0.1695 -0.1538 -0.3241
  184SLPC   H7S21065   1.181   4.867   3.036 -1.0450 -0.9269 -2.0391
  184SLPC   C2821066   1.182   4.754   3.226  0.2061  0.3341 -0.2049
  184SLPC   H8R21067   1.290   4.780   3.232  1.6435 -4.5907  0.5580
  184SLPC   H8S21068   1.166   4.653   3.269  1.9700  0.9147  2.0321
  184SLPC   C2921069   1.094   4.848   3.307  0.4509 -0.4382  0.3762
  184SLPC   H9R21070   1.052   4.931   3.248 -0.4335 -2.1910 -1.5762
  184SLPC  C21021071   1.076   4.838   3.444 -1.0809  0.7157 -0.0678
  184SLPC  H10R21072   1.004   4.899   3.500 -0.4653  0.9614  0.4619
  184SLPC  C21121073   1.154   4.739   3.532  0.2324 -0.2884 -0.0539
  184SLPC  H11R21074   1.197   4.655   3.472  0.8369 -0.2767  0.3564
  184SLPC  H11S21075   1.084   4.689   3.602  1.7380 -0.4346  1.4084
  184SLPC  C21221076   1.269   4.802   3.603 -0.2826  0.2705 -0.3579
  184SLPC  H12R21077   1.320   4.889   3.560 -1.3250  1.3850  0.5990
  184SLPC  C21321078   1.312   4.763   3.728 -0.1868  0.3215  0.4833
  184SLPC  H13R21079   1.402   4.818   3.759 -0.3006  1.3213 -0.8380
  184SLPC  C21421080   1.276   4.641   3.813 -0.1128  0.2604 -0.1056
  184SLPC  H14R21081   1.367   4.582   3.836  0.1337  0.8459  0.4606
  184SLPC  H14S21082   1.204   4.574   3.762  0.9402 -1.5178  0.6412
  184SLPC  C21521083   1.206   4.669   3.948 -0.1005  0.0961 -0.3091
  184SLPC  H15R21084   1.182   4.570   3.993  0.2917  0.0377 -0.2167
  184SLPC  H15S21085   1.117   4.726   3.917  0.1714  1.8529  1.9123
  184SLPC  C21621086   1.286   4.744   4.061 -0.3096  0.2431 -0.1212
  184SLPC  H16R21087   1.330   4.832   4.010  1.6806  0.4600  1.7987
  184SLPC  H16S21088   1.367   4.677   4.098 -0.4187 -0.9125 -1.8516
  184SLPC  C21721089   1.185   4.782   4.171  0.3237  0.3138  0.5195
  184SLPC  H17R21090   1.081   4.800   4.135 -0.1303  0.5705  1.8923
  184SLPC  H17S21091   1.220   4.879   4.213 -1.5043  1.3810 -0.2961
  184SLPC  C21821092   1.184   4.675   4.279  0.3204  0.3305  0.0631
  184SLPC  H18R21093   1.134   4.588   4.232  0.9262 -0.6771  1.2344
  184SLPC  H18S21094   1.120   4.715   4.360 -0.3984 -0.5346 -0.0647
  184SLPC  H18T21095   1.286   4.653   4.317  0.1779  1.1831  0.9789
  184SLPC   C3321096   1.761   4.892   2.960 -0.0458  0.6042 -0.3442
  184SLPC   H3X21097   1.716   4.971   3.025 -1.1900  0.9446 -1.5157
  184SLPC   H3Y21098   1.869   4.878   2.979 -0.4311 -2.1702  0.3358
  184SLPC   C3421099   1.694   4.769   3.010 -0.3221 -0.6786  0.8043
  184SLPC   H4X21100   1.731   4.673   2.967  1.0652 -0.5291  1.5890
  184SLPC   H4Y21101   1.592   4.771   2.968 -0.5227  0.9995  1.3135
  184SLPC   C3521102   1.708   4.759   3.162  0.1263 -0.8152  0.5493
  184SLPC   H5X21103   1.669   4.853   3.205  0.4631 -0.1573 -0.5322
  184SLPC   H5Y21104   1.815   4.749   3.191  0.3042 -0.9527 -0.1391
  184SLPC   C3621105   1.608   4.660   3.225  0.0528 -0.1610  0.7004
  184SLPC   H6X21106   1.652   4.557   3.219  0.4865  0.0739 -0.5537
  184SLPC   H6Y21107   1.513   4.661   3.168  0.0493  0.7184  0.7168
  184SLPC   C3721108   1.585   4.695   3.370 -0.2603  0.0738  0.4977
  184SLPC   H7X21109   1.509   4.619   3.397 -0.6718  1.2980  3.1359
  184SLPC   H7Y21110   1.547   4.799   3.380 -0.9613  0.1059 -2.0219
  184SLPC   C3821111   1.719   4.663   3.445  0.0106 -0.4740  0.7637
  184SLPC   H8X21112   1.809   4.717   3.409 -1.0469 -0.0427 -1.4165
  184SLPC   H8Y21113   1.748   4.556   3.440  3.7809  0.4263  1.0250
  184SLPC   C3921114   1.691   4.676   3.593 -0.1504 -0.1071  0.3350
  184SLPC   H9X21115   1.600   4.615   3.611  0.1273 -0.6636 -0.1048
  184SLPC   H9Y21116   1.680   4.785   3.608  1.3100 -0.1208  1.8627
  184SLPC  C31021117   1.800   4.611   3.683 -0.2648 -0.1754  0.4782
  184SLPC  H10X21118   1.903   4.640   3.656 -0.4611  0.0806 -0.0185
  184SLPC  H10Y21119   1.795   4.502   3.666 -1.7240 -0.5861  3.0017
  184SLPC  C31121120   1.756   4.627   3.828 -0.2854 -0.0046 -0.6923
  184SLPC  H11X21121   1.830   4.579   3.896 -1.6035  0.0500  0.8431
  184SLPC  H11Y21122   1.656   4.588   3.854  0.7041 -0.9779  1.9680
  184SLPC  C31221123   1.743   4.767   3.888 -0.1855  0.3065  0.5368
  184SLPC  H12X21124   1.697   4.833   3.810  0.1981 -0.3383 -0.2533
  184SLPC  H12Y21125   1.843   4.816   3.887  0.8397 -1.6679  1.4578
  184SLPC  C31321126   1.673   4.769   4.019 -0.6427  0.5100 -0.5810
  184SLPC  H13X21127   1.686   4.678   4.081 -2.6707 -0.7057 -1.8194
  184SLPC  H13Y21128   1.562   4.770   4.016 -0.7360  1.6005  1.4572
  184SLPC  C31421129   1.722   4.898   4.095 -0.1074  0.8198 -0.2443
  184SLPC  H14X21130   1.710   4.980   4.021 -2.8111  0.2524 -0.5593
  184SLPC  H14Y21131   1.828   4.886   4.127 -0.1102 -3.1302 -1.2074
  184SLPC  C31521132   1.620   4.928   4.208  0.1876  0.2995 -1.2495
  184SLPC  H15X21133   1.522   4.951   4.161  0.2113  1.7623 -0.6389
  184SLPC  H15Y21134   1.656   5.013   4.270 -1.2853  0.0091  0.0430
  184SLPC  C31621135   1.614   4.810   4.304  0.3325  0.7824 -0.2819
  184SLPC  H16X21136   1.716   4.789   4.344 -0.3722 -0.9867  0.7144
  184SLPC  H16Y21137   1.593   4.711   4.258  0.8784  0.2891  0.5042
  184SLPC  C31721138   1.518   4.821   4.425  0.0773  0.1289  0.2442
  184SLPC  H17X21139   1.419   4.849   4.383  0.2070 -1.0357 -0.8762
  184SLPC  H17Y21140   1.565   4.903   4.484  1.4747 -1.2304  1.0992
  184SLPC  C31821141   1.518   4.694   4.522 -0.0718  0.2196  0.5247
  184SLPC  H18X21142   1.465   4.610   4.472  1.9423  0.3740 -2.1169
  184SLPC  H18Y21143   1.451   4.717   4.608 -0.5613 -0.0086  0.2131
  184SLPC  H18Z21144   1.620   4.669   4.557 -0.4658 -3.8678 -0.7846
  185POPC     N21145   1.522   4.912   7.082 -0.0074 -0.2242 -0.0061
  185POPC   C1221146   1.373   4.895   7.087  1.1059 -0.1505 -1.0529
  185POPC  H12A21147   1.351   4.792   7.111 -1.6250  0.3560 -1.0479
  185POPC  H12B21148   1.331   4.913   6.990  1.6002 -0.2038 -1.2800
  185POPC   C1321149   1.586   4.904   7.208 -0.0310 -0.5497 -0.2568
  185POPC  H13A21150   1.692   4.921   7.198  0.0425  0.0384  1.2184
  185POPC  H13B21151   1.555   4.987   7.270 -1.4633 -0.9182 -0.4535
  185POPC  H13C21152   1.579   4.806   7.252  1.1721 -1.0665 -1.1528
  185POPC   C1421153   1.582   4.803   6.994 -0.6091  0.2340  0.0025
  185POPC  H14A21154   1.688   4.824   6.985 -0.5903  0.0915 -0.1302
  185POPC  H14B21155   1.575   4.703   7.035  0.9115  0.1115  0.0474
  185POPC  H14C21156   1.535   4.802   6.897 -0.1310 -0.5126 -0.2335
  185POPC   C1521157   1.549   5.042   7.023 -0.4508 -0.4077  0.4746
  185POPC  H15A21158   1.650   5.068   7.051 -0.1547 -1.0460  0.0240
  185POPC  H15B21159   1.489   5.122   7.064  0.4582 -0.7597  2.6443
  185POPC  H15C21160   1.538   5.043   6.916 -0.7099  1.6677  0.4866
  185POPC   C1121161   1.296   4.987   7.190 -0.5664 -0.0568 -0.2431
  185POPC  H11A21162   1.346   5.084   7.208  0.4728 -0.4741 -0.7890
  185POPC  H11B21163   1.314   4.947   7.292  0.0655  0.7315 -0.0380
  185POPC     P21164   1.082   5.108   7.105  0.2639  0.3498 -0.4881
  185POPC   O1321165   1.114   5.236   7.165 -0.3437 -1.1110  0.5335
  185POPC   O1421166   0.936   5.082   7.099 -0.0321  0.5169 -0.4015
  185POPC   O1221167   1.152   4.989   7.179 -0.7977 -0.8691  0.4347
  185POPC   O1121168   1.150   5.103   6.961  0.0625  0.2307 -0.2663
  185POPC    C121169   1.126   4.990   6.873  0.3299  0.6286 -0.0205
  185POPC    HA21170   1.068   4.908   6.920 -1.9914  2.2610  0.1273
  185POPC    HB21171   1.229   4.956   6.847  0.7737  1.3384  0.7534
  185POPC    C221172   1.042   5.017   6.749 -0.3752  0.3298 -0.7457
  185POPC    HS21173   1.027   4.920   6.696  1.3977 -0.9354  0.9325
  185POPC   O2121174   1.103   5.114   6.664  0.2999  0.3275 -0.0604
  185POPC   C2121175   1.212   5.076   6.602 -0.5500 -0.2646  0.4091
  185POPC   O2221176   1.266   4.962   6.599 -0.0964  0.3392 -0.1035
  185POPC   C2221177   1.256   5.196   6.524  0.0611 -0.2026 -0.2112
  185POPC   H2R21178   1.323   5.245   6.597 -0.1825 -0.5007  0.2141
  185POPC   H2S21179   1.167   5.257   6.498 -1.7440 -2.4338  0.3968
  185POPC    C321180   0.901   5.062   6.782  0.3899 -0.3333  0.4826
  185POPC    HX21181   0.920   5.153   6.843 -2.1834 -0.1066  1.0591
  185POPC    HY21182   0.851   4.986   6.846  0.4610  0.9559  2.1197
  185POPC   O3121183   0.830   5.098   6.664 -0.0261  0.0918  0.2895
  185POPC   C3121184   0.696   5.110   6.693 -1.3460  0.1289  0.8252
  185POPC   O3221185   0.648   5.091   6.804  0.2650 -0.5651  0.1894
  185POPC   C3221186   0.626   5.175   6.572 -0.0452 -0.2013 -0.2078
  185POPC   H2X21187   0.656   5.111   6.485 -0.6490  0.8108 -1.1839
  185POPC   H2Y21188   0.663   5.279   6.563 -0.1839 -0.2319 -1.2524
  185POPC   C2321189   1.330   5.157   6.393  0.6599  0.6594  0.2155
  185POPC   H3R21190   1.416   5.090   6.416  0.7496  0.8062  0.3139
  185POPC   H3S21191   1.373   5.251   6.353 -2.2129  2.2580  0.5927
  185POPC   C2421192   1.239   5.101   6.282  0.8194  0.6593 -0.6220
  185POPC   H4R21193   1.139   5.149   6.282 -1.6952 -3.8922  1.9805
  185POPC   H4S21194   1.221   4.994   6.306  0.0045  0.7744 -0.6861
  185POPC   C2521195   1.319   5.105   6.151  0.4835  0.0952  0.6603
  185POPC   H5R21196   1.416   5.050   6.154  0.4378  0.0176  0.6967
  185POPC   H5S21197   1.341   5.214   6.140 -0.2565  0.4154  2.0820
  185POPC   C2621198   1.235   5.045   6.033 -0.2259 -0.2420  0.2602
  185POPC   H6R21199   1.154   5.112   5.995  1.2054  1.4613  0.0708
  185POPC   H6S21200   1.206   4.947   6.077  1.8995  0.3192  3.2463
  185POPC   C2721201   1.334   5.009   5.920  0.5979 -0.1097 -0.6138
  185POPC   H7R21202   1.406   4.933   5.958  1.4341  1.1387  0.4168
  185POPC   H7S21203   1.402   5.095   5.902  1.6111 -1.0754 -1.5313
  185POPC   C2821204   1.275   4.956   5.782  0.6952  0.3169 -0.2998
  185POPC   H8R21205   1.229   4.856   5.789 -0.0444 -0.0678 -5.7417
  185POPC   H8S21206   1.365   4.944   5.717  1.4348  1.4045  0.4704
  185POPC   C2921207   1.174   5.053   5.725  0.3004  0.6437 -0.8515
  185POPC   H9121208   1.085   5.060   5.789  1.0568  1.0144  0.1856
  185POPC  C21021209   1.189   5.122   5.613  0.8468  0.6671 -0.7484
  185POPC  H10121210   1.107   5.187   5.580 -0.4684 -1.2141 -1.3529
  185POPC  C21121211   1.311   5.107   5.529  0.2712 -0.5855  0.7212
  185POPC  H11R21212   1.402   5.066   5.578 -0.2491 -3.4474 -0.5332
  185POPC  H11S21213   1.329   5.212   5.496  2.8013 -0.6965  1.5592
  185POPC  C21221214   1.288   5.023   5.401  0.0942 -0.1082 -0.3324
  185POPC  H12R21215   1.200   5.066   5.349  0.6374 -0.2657 -1.4148
  185POPC  H12S21216   1.258   4.921   5.433 -0.3893  0.4135  0.9829
  185POPC  C21321217   1.408   5.025   5.299  0.3285 -0.1353 -0.6872
  185POPC  H13R21218   1.496   4.975   5.347 -0.2196 -0.4135  0.0423
  185POPC  H13S21219   1.431   5.129   5.269 -2.1136  0.1373 -1.8304
  185POPC  C21421220   1.379   4.965   5.160 -0.3416  0.1869  0.2676
  185POPC  H14R21221   1.285   5.016   5.128 -1.0194  0.0064  1.8722
  185POPC  H14S21222   1.345   4.859   5.164 -1.5865  0.2779 -3.7609
  185POPC  C21521223   1.502   4.979   5.068  0.3789  0.0089 -0.4798
  185POPC  H15R21224   1.581   4.918   5.117  0.2410  0.6693  0.6076
  185POPC  H15S21225   1.521   5.088   5.069 -1.8044  0.4370 -0.0495
  185POPC  C21621226   1.488   4.928   4.923 -1.3576  0.7893  0.1036
  185POPC  H16R21227   1.416   4.983   4.858 -0.4607  0.5236 -1.1455
  185POPC  H16S21228   1.463   4.820   4.932 -0.3682  0.6503  1.3207
  185POPC  C21721229   1.626   4.938   4.845 -0.4594  0.1466 -1.1648
  185POPC  H17R21230   1.618   4.878   4.752  1.8495 -0.0400 -1.3162
  185POPC  H17S21231   1.706   4.897   4.910 -1.9141 -1.6400 -0.4050
  185POPC  C21821232   1.660   5.086   4.812  0.6205 -0.6829  0.5446
  185POPC  H18R21233   1.584   5.142   4.754  0.7629 -0.9459  0.1019
  185POPC  H18S21234   1.747   5.083   4.742 -1.1470  0.6107 -1.8321
  185POPC  H18T21235   1.666   5.150   4.902  0.0024 -0.8688  0.7218
  185POPC   C3321236   0.468   5.174   6.589 -0.1852  0.2611 -0.9021
  185POPC   H3X21237   0.440   5.236   6.677 -3.0864 -0.4374 -1.2363
  185POPC   H3Y21238   0.424   5.075   6.612 -1.9467  1.6428  2.2406
  185POPC   C3421239   0.390   5.238   6.473  0.7089  0.5769 -0.5542
  185POPC   H4X21240   0.443   5.335   6.458 -0.6638  1.3494 -0.5902
  185POPC   H4Y21241   0.284   5.257   6.501  1.1296  1.3845  0.6098
  185POPC   C3521242   0.410   5.153   6.349 -0.3247 -0.1652  0.2737
  185POPC   H5X21243   0.363   5.054   6.366 -2.1906 -0.0378 -3.2404
  185POPC   H5Y21244   0.517   5.130   6.332 -0.4067  1.2947 -3.1672
  185POPC   C3621245   0.356   5.232   6.223 -0.7258  0.1625 -0.0243
  185POPC   H6X21246   0.429   5.316   6.220 -1.5279  0.8709  0.0650
  185POPC   H6Y21247   0.254   5.272   6.241  0.3471  2.9010  0.3697
  185POPC   C3721248   0.359   5.156   6.093  0.3437 -0.4817 -0.2536
  185POPC   H7X21249   0.292   5.068   6.091 -1.1931  0.6518 -0.4036
  185POPC   H7Y21250   0.464   5.121   6.093  1.5525  2.7354  0.5746
  185POPC   C3821251   0.324   5.241   5.972  0.0156 -0.4902 -0.0359
  185POPC   H8X21252   0.397   5.324   5.981  0.3538 -0.9581  2.0599
  185POPC   H8Y21253   0.220   5.279   5.973 -0.3379 -1.3936 -0.9856
  185POPC   C3921254   0.352   5.169   5.842 -0.4898 -0.9373 -0.0514
  185POPC   H9X21255   0.281   5.084   5.838 -0.4202 -0.9472 -2.5295
  185POPC   H9Y21256   0.457   5.133   5.843 -0.1435  0.0459  0.8001
  185POPC  C31021257   0.328   5.256   5.721 -0.5833  0.3078  0.2810
  185POPC  H10X21258   0.401   5.339   5.707 -0.3859  0.2245  0.7988
  185POPC  H10Y21259   0.238   5.316   5.745  0.2142  1.8891 -0.4792
  185POPC  C31121260   0.317   5.171   5.594  0.7626 -0.3532 -0.3864
  185POPC  H11X21261   0.222   5.114   5.604  1.8635 -2.8935 -2.9125
  185POPC  H11Y21262   0.402   5.100   5.597  1.0693  0.0256  1.3341
  185POPC  C31221263   0.321   5.248   5.462 -0.2613 -0.2499  0.4263
  185POPC  H12X21264   0.405   5.320   5.456 -1.7837  1.7104  1.2737
  185POPC  H12Y21265   0.225   5.303   5.462 -0.6500 -0.8998  1.3591
  185POPC  C31321266   0.316   5.153   5.338  0.1822 -0.1192  0.0096
  185POPC  H13X21267   0.276   5.203   5.247 -2.8839 -1.0649  0.7053
  185POPC  H13Y21268   0.229   5.087   5.361 -2.4927  2.1470 -2.6591
  185POPC  C31421269   0.446   5.080   5.307 -0.0344 -0.4599 -0.4727
  185POPC  H14X21270   0.481   5.024   5.396 -1.1231  3.6117  2.8390
  185POPC  H14Y21271   0.521   5.156   5.276 -1.3948  1.2501  0.2532
  185POPC  C31521272   0.436   4.987   5.184  0.8283 -0.4226 -0.0443
  185POPC  H15X21273   0.437   5.049   5.092 -0.4619 -0.5913 -0.1966
  185POPC  H15Y21274   0.336   4.937   5.189  0.0811  0.9179 -0.8742
  185POPC  C31621275   0.539   4.877   5.172 -0.2537  0.6951 -1.1089
  185POPC  H16X21276   0.507   4.784   5.224 -1.2041  0.8598 -1.3674
  185POPC  H16Y21277   0.630   4.917   5.220 -0.4868  2.1318 -1.8053
  185POPC  H16Z21278   0.570   4.853   5.068  1.4530  0.1502 -0.5008
  186POPC     N21279   0.654   3.651   6.864  1.1062  0.2876 -0.0022
  186POPC   C1221280   0.763   3.739   6.809  0.2075 -0.0013  0.8548
  186POPC  H12A21281   0.852   3.734   6.870  1.8871 -0.0286 -1.4461
  186POPC  H12B21282   0.725   3.840   6.803  2.9013  1.0014 -2.9467
  186POPC   C1321283   0.524   3.672   6.795  0.0035 -0.3998 -0.5692
  186POPC  H13A21284   0.487   3.772   6.809 -0.2836 -0.5558 -0.2067
  186POPC  H13B21285   0.533   3.648   6.690 -3.9453 -0.1493 -1.1164
  186POPC  H13C21286   0.450   3.603   6.832 -0.3366  1.1725  1.9214
  186POPC   C1421287   0.693   3.505   6.835 -1.0159  0.0107  0.1666
  186POPC  H14A21288   0.643   3.435   6.900 -0.0426 -0.5874  0.2942
  186POPC  H14B21289   0.674   3.480   6.732 -0.5448 -2.5200  0.6394
  186POPC  H14C21290   0.799   3.493   6.855 -0.7342 -0.6141 -1.5290
  186POPC   C1521291   0.647   3.672   7.012  0.0570  0.4262 -0.2579
  186POPC  H15A21292   0.642   3.777   7.034 -1.1161  0.4460 -0.5708
  186POPC  H15B21293   0.735   3.626   7.054  0.7230  2.4716  0.7185
  186POPC  H15C21294   0.557   3.631   7.056 -0.0370  1.5576  0.6439
  186POPC   C1121295   0.817   3.699   6.664  0.5158  1.0836 -0.6821
  186POPC  H11A21296   0.858   3.789   6.612  2.4905 -0.1443 -1.3846
  186POPC  H11B21297   0.729   3.665   6.606  0.4895 -0.7086  0.3503
  186POPC     P21298   1.037   3.605   6.754  0.3384  0.2860 -0.0418
  186POPC   O1321299   1.011   3.516   6.872  0.3449  0.1121 -0.3515
  186POPC   O1421300   1.076   3.743   6.773  0.3311 -0.4960  0.1077
  186POPC   O1221301   0.912   3.595   6.667 -0.2176  0.3340 -0.0825
  186POPC   O1121302   1.152   3.524   6.673 -0.0770  0.3606 -0.0269
  186POPC    C121303   1.191   3.555   6.543  0.3974 -0.3237 -0.1059
  186POPC    HA21304   1.236   3.656   6.538 -0.7901  0.1916 -0.8011
  186POPC    HB21305   1.107   3.550   6.471  1.9306 -1.1105 -1.9552
  186POPC    C221306   1.300   3.452   6.498 -0.1214 -0.3253 -0.1032
  186POPC    HS21307   1.389   3.449   6.565 -0.4021 -0.0976  0.2801
  186POPC   O2121308   1.354   3.479   6.367  0.1076  0.4697 -0.1309
  186POPC   C2121309   1.396   3.603   6.333 -0.0484  0.0539 -0.0441
  186POPC   O2221310   1.431   3.692   6.408  0.0097  0.1393 -0.3328
  186POPC   C2221311   1.407   3.617   6.182 -0.2765  0.3133  0.2001
  186POPC   H2R21312   1.306   3.613   6.135  0.4256  2.1642 -1.6221
  186POPC   H2S21313   1.480   3.538   6.151  2.1798  2.2793  0.6889
  186POPC    C321314   1.250   3.302   6.502  0.3087 -0.2397 -0.8593
  186POPC    HX21315   1.155   3.296   6.443  1.3522 -0.2903 -2.6152
  186POPC    HY21316   1.230   3.286   6.610 -0.7972  0.9592 -0.8555
  186POPC   O3121317   1.339   3.204   6.443  0.1027  0.1146  0.1246
  186POPC   C3121318   1.441   3.164   6.529  0.1616 -0.3842 -0.3466
  186POPC   O3221319   1.453   3.197   6.645 -0.1966 -0.0833  0.3484
  186POPC   C3221320   1.553   3.095   6.459  0.2410  0.6530 -0.1587
  186POPC   H2X21321   1.513   3.044   6.369  0.1300  2.3740 -1.1222
  186POPC   H2Y21322   1.592   3.018   6.530 -2.0636  0.5901  1.1450
  186POPC   C2321323   1.479   3.745   6.138 -0.2537 -0.0882 -0.1284
  186POPC   H3R21324   1.588   3.730   6.152  0.0842 -1.6628 -3.4577
  186POPC   H3S21325   1.448   3.841   6.187 -0.7543  0.5663 -1.6711
  186POPC   C2421326   1.467   3.767   5.986 -0.0252 -0.4585  0.2911
  186POPC   H4R21327   1.515   3.861   5.952 -1.7529 -0.2022 -1.6022
  186POPC   H4S21328   1.358   3.779   5.968  0.1243 -1.1610 -1.2214
  186POPC   C2521329   1.516   3.652   5.894  0.1554  0.8567 -0.2828
  186POPC   H5R21330   1.455   3.561   5.911  1.5439 -0.1650 -0.6801
  186POPC   H5S21331   1.623   3.626   5.906  0.0414 -0.8672 -2.5103
  186POPC   C2621332   1.501   3.694   5.750  0.6694 -0.0438  0.3607
  186POPC   H6R21333   1.541   3.611   5.687 -2.2156  0.8809 -2.9859
  186POPC   H6S21334   1.565   3.781   5.727 -0.6154  0.6824 -0.5459
  186POPC   C2721335   1.359   3.723   5.705  0.4808 -0.7220 -0.1922
  186POPC   H7R21336   1.338   3.830   5.729  1.2573 -0.6086 -0.0011
  186POPC   H7S21337   1.293   3.656   5.764  1.2926 -0.3877  1.1308
  186POPC   C2821338   1.334   3.694   5.558  0.0959  0.1428 -0.0047
  186POPC   H8R21339   1.231   3.731   5.537  0.2116  0.5904  0.2001
  186POPC   H8S21340   1.332   3.587   5.530  1.3966  0.3833 -1.0629
  186POPC   C2921341   1.428   3.770   5.466  0.7749  0.3896 -0.3362
  186POPC   H9121342   1.411   3.878   5.450  0.5337  0.3658 -0.2442
  186POPC  C21021343   1.529   3.711   5.398 -0.0648 -0.5195  0.8687
  186POPC  H10121344   1.593   3.770   5.331 -0.6857 -0.2048  0.5497
  186POPC  C21121345   1.571   3.567   5.415  0.5039  0.2717  0.9764
  186POPC  H11R21346   1.536   3.521   5.510 -2.3623 -0.9095 -0.5449
  186POPC  H11S21347   1.682   3.562   5.418  0.6605  1.0369 -1.6055
  186POPC  C21221348   1.508   3.478   5.308  0.3459 -0.7690  0.0269
  186POPC  H12R21349   1.401   3.458   5.333  0.3441  0.6729  1.3214
  186POPC  H12S21350   1.549   3.375   5.302 -1.1453 -1.4319  0.6102
  186POPC  C21321351   1.512   3.535   5.161 -0.6603  0.8324  0.0384
  186POPC  H13R21352   1.617   3.568   5.148 -0.0681 -1.2833 -1.1073
  186POPC  H13S21353   1.438   3.618   5.166 -1.6156  0.1289 -1.6550
  186POPC  C21421354   1.473   3.438   5.055  0.3286  0.4094 -0.0705
  186POPC  H14R21355   1.549   3.357   5.059  0.9105  0.8433 -1.5189
  186POPC  H14S21356   1.476   3.489   4.957 -0.2772 -0.8889 -0.7930
  186POPC  C21521357   1.332   3.372   5.070  0.9120 -0.6175 -0.2226
  186POPC  H15R21358   1.249   3.446   5.062  1.6394  0.1215 -1.3230
  186POPC  H15S21359   1.330   3.314   5.164  1.1169 -0.5841 -0.1969
  186POPC  C21621360   1.308   3.260   4.962  0.2120  0.0773 -0.0751
  186POPC  H16R21361   1.337   3.302   4.864  1.0576  1.5687  0.7762
  186POPC  H16S21362   1.202   3.228   4.966  0.3825 -0.4338  2.2950
  186POPC  C21721363   1.388   3.133   4.989  0.0317  0.2768  0.1368
  186POPC  H17R21364   1.382   3.107   5.097 -0.4855  3.0154  0.8428
  186POPC  H17S21365   1.498   3.144   4.978  0.5789 -3.5140  0.3445
  186POPC  C21821366   1.358   3.023   4.884  0.0944  0.5215 -0.5850
  186POPC  H18R21367   1.400   3.056   4.787  0.3315 -0.6639 -0.9051
  186POPC  H18S21368   1.247   3.016   4.890  0.0748  0.2291 -1.1593
  186POPC  H18T21369   1.404   2.930   4.925 -1.0607 -0.3809 -1.2380
  186POPC   C3321370   1.654   3.197   6.411 -0.6987 -0.0830 -0.2471
  186POPC   H3X21371   1.747   3.137   6.395 -0.7947 -0.8393  1.7299
  186POPC   H3Y21372   1.677   3.266   6.495  1.6332 -1.7580  0.6034
  186POPC   C3421373   1.634   3.273   6.284 -0.1174 -0.1896 -0.0196
  186POPC   H4X21374   1.640   3.380   6.312  1.8070 -0.2324 -0.1136
  186POPC   H4Y21375   1.530   3.259   6.249 -0.4164  2.9976 -0.6673
  186POPC   C3521376   1.726   3.241   6.168 -0.1103 -0.1098 -0.0743
  186POPC   H5X21377   1.728   3.131   6.156  1.7026 -0.3683  1.8834
  186POPC   H5Y21378   1.831   3.275   6.186 -1.1510  2.9911  0.7494
  186POPC   C3621379   1.668   3.298   6.046  0.4360 -0.4163 -0.2579
  186POPC   H6X21380   1.676   3.408   6.045  0.5347 -0.3951  1.0974
  186POPC   H6Y21381   1.563   3.265   6.033 -0.1224 -0.3451  3.1814
  186POPC   C3721382   1.727   3.241   5.914  0.7877  0.1726  0.0129
  186POPC   H7X21383   1.705   3.132   5.912  2.7228 -0.2582 -2.0225
  186POPC   H7Y21384   1.837   3.254   5.918  1.2910 -1.9675 -3.1154
  186POPC   C3821385   1.679   3.320   5.793 -0.2066 -0.7609  0.3301
  186POPC   H8X21386   1.729   3.418   5.805 -0.2446 -0.7746  0.6028
  186POPC   H8Y21387   1.569   3.320   5.776 -0.1252 -0.3717 -0.2345
  186POPC   C3921388   1.718   3.250   5.660  0.1206 -0.4922  0.7116
  186POPC   H9X21389   1.659   3.293   5.577 -0.5115 -0.7677  1.0091
  186POPC   H9Y21390   1.695   3.141   5.666 -3.5233  0.1196  0.3752
  186POPC  C31021391   1.873   3.259   5.633  0.4074  0.6190 -0.0480
  186POPC  H10X21392   1.930   3.211   5.714  2.2703 -0.0162 -1.6687
  186POPC  H10Y21393   1.915   3.362   5.634 -1.2207  1.3354 -0.7739
  186POPC  C31121394   1.911   3.199   5.498 -0.0343 -0.2495 -0.2504
  186POPC  H11X21395   1.873   3.094   5.495  2.0462 -1.0542 -0.3411
  186POPC  H11Y21396   2.021   3.193   5.485  0.1060  0.3397  0.6293
  186POPC  C31221397   1.840   3.271   5.384 -0.4141 -0.5460 -0.0605
  186POPC  H12X21398   1.867   3.378   5.403 -2.7331  0.3254 -1.2701
  186POPC  H12Y21399   1.729   3.272   5.388 -0.4659  0.6084 -1.1049
  186POPC  C31321400   1.883   3.216   5.253  0.0900  0.2635  0.1756
  186POPC  H13X21401   1.838   3.114   5.250 -1.7654  1.0356 -2.6416
  186POPC  H13Y21402   1.993   3.200   5.256 -0.2212 -2.1147  1.5736
  186POPC  C31421403   1.831   3.292   5.127 -0.0379  0.2055  0.0903
  186POPC  H14X21404   1.867   3.396   5.111 -1.4267  0.5656 -0.9739
  186POPC  H14Y21405   1.725   3.307   5.158  0.3895 -0.1180  1.8219
  186POPC  C31521406   1.827   3.213   4.994  0.2234  0.4568 -0.0324
  186POPC  H15X21407   1.832   3.293   4.917  0.1069 -0.2571 -0.7855
  186POPC  H15Y21408   1.728   3.165   4.977  0.9750 -1.7228  1.3375
  186POPC  C31621409   1.942   3.112   4.974 -1.0245 -0.4559  0.0978
  186POPC  H16X21410   2.036   3.170   4.982 -1.7915  0.7778  0.3488
  186POPC  H16Y21411   1.941   3.062   4.874  0.6660 -3.6267  1.5431
  186POPC  H16Z21412   1.932   3.033   5.051 -3.1079  0.2886  0.6586
  187POPC     N21413   1.194   6.339   1.990 -0.0373 -0.1820 -0.6988
  187POPC   C1221414   1.270   6.334   2.123 -0.0057  0.1733 -0.6638
  187POPC  H12A21415   1.271   6.427   2.179 -0.9342 -1.7219  2.8014
  187POPC  H12B21416   1.374   6.331   2.094  0.0589  1.3476 -0.6049
  187POPC   C1321417   1.228   6.480   1.932 -0.6730  0.3923  0.2158
  187POPC  H13A21418   1.332   6.486   1.904 -0.4546  3.2230  1.3848
  187POPC  H13B21419   1.179   6.501   1.838 -0.7514  0.5308  0.2883
  187POPC  H13C21420   1.196   6.562   1.994 -2.4271  0.4526 -0.7101
  187POPC   C1421421   1.234   6.231   1.893  0.2998 -0.2364  0.6289
  187POPC  H14A21422   1.205   6.136   1.936  0.4304 -0.9349 -0.7836
  187POPC  H14B21423   1.196   6.239   1.793  1.4780  0.9410  0.2449
  187POPC  H14C21424   1.341   6.218   1.887  0.0737 -1.4228 -1.6935
  187POPC   C1521425   1.046   6.336   2.013  0.1867 -0.0379 -0.6586
  187POPC  H15A21426   1.021   6.420   2.076  0.7965 -1.2156  1.2304
  187POPC  H15B21427   1.008   6.258   2.076 -0.8433  0.6579 -0.3829
  187POPC  H15C21428   0.984   6.355   1.926 -0.4822  4.5275  0.5210
  187POPC   C1121429   1.242   6.221   2.227  0.6537 -0.0980  0.2166
  187POPC  H11A21430   1.316   6.228   2.310  0.2205  0.2101  0.5816
  187POPC  H11B21431   1.246   6.117   2.188  0.8919 -0.4024  1.0241
  187POPC     P21432   1.058   6.149   2.387  0.0376  0.1605 -0.1424
  187POPC   O1321433   1.103   6.011   2.366 -0.0524 -0.5510  0.7060
  187POPC   O1421434   0.911   6.171   2.401 -0.0513  0.1879  0.3412
  187POPC   O1221435   1.112   6.240   2.273  0.1262 -0.0790 -0.5481
  187POPC   O1121436   1.132   6.210   2.517 -0.3292 -0.4620 -0.2208
  187POPC    C121437   1.269   6.178   2.554 -0.7253  0.0801 -0.0995
  187POPC    HA21438   1.331   6.270   2.546 -2.6296  1.3232 -1.6404
  187POPC    HB21439   1.317   6.107   2.483  1.2078 -0.5697  1.7738
  187POPC    C221440   1.283   6.107   2.687 -0.3316  0.1668  0.2569
  187POPC    HS21441   1.294   5.999   2.662  2.3318  1.0320 -3.0623
  187POPC   O2121442   1.167   6.141   2.764  0.8792 -0.4608 -0.5489
  187POPC   C2121443   1.134   6.050   2.855  0.1381 -0.2039 -0.5848
  187POPC   O2221444   1.177   5.940   2.871  0.9319  1.0983  0.6066
  187POPC   C2221445   1.025   6.114   2.948 -0.6536 -0.1010  0.5158
  187POPC   H2R21446   0.937   6.109   2.881  0.5197  2.2460 -1.3604
  187POPC   H2S21447   1.054   6.220   2.967  1.2887 -0.5171  0.0956
  187POPC    C321448   1.411   6.145   2.754  0.3053  0.2170 -0.4366
  187POPC    HX21449   1.396   6.250   2.784 -0.5658 -0.3515  1.2610
  187POPC    HY21450   1.500   6.140   2.687  0.7724  1.5975  0.0444
  187POPC   O3121451   1.442   6.070   2.873  0.0482  0.8030 -0.1602
  187POPC   C3121452   1.506   5.953   2.853  0.1015 -0.0043  0.9387
  187POPC   O3221453   1.518   5.903   2.743  0.2172  0.4691  0.6395
  187POPC   C3221454   1.561   5.898   2.985 -0.2192 -0.1637 -1.3073
  187POPC   H2X21455   1.479   5.893   3.060  0.2536  0.5833 -0.7276
  187POPC   H2Y21456   1.631   5.977   3.020 -0.1641 -0.8455  0.2004
  187POPC   C2321457   1.016   6.040   3.083  0.8345  0.1496  0.1405
  187POPC   H3R21458   1.020   5.929   3.073  1.1398  0.1532  0.2035
  187POPC   H3S21459   0.917   6.064   3.126  0.0318 -1.5602 -0.6303
  187POPC   C2421460   1.130   6.073   3.181  0.5656  0.2818 -0.1495
  187POPC   H4R21461   1.113   6.180   3.203 -1.8495 -0.2237  0.7171
  187POPC   H4S21462   1.226   6.066   3.125  1.0626 -1.8087  0.8723
  187POPC   C2521463   1.122   5.986   3.300 -0.3037 -0.5164 -0.1305
  187POPC   H5R21464   1.118   5.882   3.259 -3.4289 -0.7013  0.3581
  187POPC   H5S21465   1.028   6.009   3.355 -0.5400  0.2116 -0.8159
  187POPC   C2621466   1.248   6.019   3.380  0.1505 -0.1107 -0.2806
  187POPC   H6R21467   1.238   6.114   3.436  1.8579  0.3766 -0.7403
  187POPC   H6S21468   1.336   6.020   3.313  1.4269 -0.3791  1.3183
  187POPC   C2721469   1.272   5.900   3.472  0.1155 -0.2600 -0.0230
  187POPC   H7R21470   1.380   5.910   3.495  0.3155  0.2170 -1.1303
  187POPC   H7S21471   1.256   5.813   3.405 -0.6618  1.1768 -1.7777
  187POPC   C2821472   1.177   5.875   3.595 -0.1277  0.4457  0.2202
  187POPC   H8R21473   1.196   5.772   3.633  0.8258 -0.1783 -1.7688
  187POPC   H8S21474   1.071   5.878   3.559  0.6670  0.7680 -2.3102
  187POPC   C2921475   1.204   5.973   3.697  0.6570 -0.2594  0.1548
  187POPC   H9121476   1.184   6.078   3.667 -2.8796 -0.7624  0.3310
  187POPC  C21021477   1.229   5.952   3.826  0.7123  0.1056 -0.1354
  187POPC  H10121478   1.226   6.041   3.891 -0.5668 -0.0584  0.0462
  187POPC  C21121479   1.229   5.816   3.893  0.9454  1.1141  0.2169
  187POPC  H11R21480   1.335   5.784   3.902  0.1503 -1.6542  1.1055
  187POPC  H11S21481   1.176   5.739   3.832  2.5631 -0.1554  0.3461
  187POPC  C21221482   1.160   5.819   4.034  0.1307  0.2675  0.0414
  187POPC  H12R21483   1.050   5.814   4.025  0.2181  1.1389 -2.3550
  187POPC  H12S21484   1.182   5.909   4.096  0.6331 -0.0825  0.3755
  187POPC  C21321485   1.194   5.697   4.116 -0.3380  0.3718  0.1637
  187POPC  H13R21486   1.296   5.717   4.156  0.3008  1.3791 -1.8218
  187POPC  H13S21487   1.190   5.604   4.056  3.7197 -0.0295  0.2707
  187POPC  C21421488   1.104   5.681   4.243  0.0124  0.0585  0.0778
  187POPC  H14R21489   1.084   5.574   4.265  1.5881 -0.4396 -0.8166
  187POPC  H14S21490   1.003   5.720   4.216  1.1127  0.8081 -3.5635
  187POPC  C21521491   1.173   5.761   4.352  0.3047  0.4118 -0.0410
  187POPC  H15R21492   1.192   5.865   4.320 -0.3854 -0.1036 -2.2529
  187POPC  H15S21493   1.269   5.710   4.375 -0.1584 -0.7118 -0.5205
  187POPC  C21621494   1.083   5.760   4.485  0.1425  0.1912 -0.4645
  187POPC  H16R21495   1.050   5.655   4.500 -1.8854  0.6796 -1.2721
  187POPC  H16S21496   0.998   5.829   4.471 -0.4310 -0.6350 -1.1596
  187POPC  C21721497   1.155   5.818   4.609  0.4262 -0.2039  0.5294
  187POPC  H17R21498   1.257   5.776   4.624 -0.4350 -2.4427  0.5522
  187POPC  H17S21499   1.093   5.805   4.701 -0.3982 -0.0116  0.0108
  187POPC  C21821500   1.180   5.967   4.583  0.4251 -0.0639  0.0768
  187POPC  H18R21501   1.192   6.014   4.683  0.7321 -0.8550  0.4146
  187POPC  H18S21502   1.091   6.023   4.547  1.1242  1.2934  0.3883
  187POPC  H18T21503   1.273   5.984   4.525 -0.1028  0.8234 -0.5500
  187POPC   C3321504   1.650   5.776   2.974 -0.3959  0.3366  0.7872
  187POPC   H3X21505   1.729   5.791   2.897  1.0673 -0.9293  1.9743
  187POPC   H3Y21506   1.600   5.688   2.928 -0.3637  1.5963 -1.9003
  187POPC   C3421507   1.719   5.736   3.100  0.0321  0.4349 -0.1867
  187POPC   H4X21508   1.791   5.818   3.120  2.0494 -0.6786 -2.3289
  187POPC   H4Y21509   1.768   5.641   3.069 -2.0080 -0.4468 -0.8788
  187POPC   C3521510   1.629   5.717   3.222 -0.7367 -0.2870  0.7786
  187POPC   H5X21511   1.549   5.640   3.215 -3.1402  2.1817 -0.8075
  187POPC   H5Y21512   1.568   5.810   3.234 -0.6347 -0.0546 -0.4238
  187POPC   C3621513   1.710   5.701   3.351  0.1372  0.1318 -0.1098
  187POPC   H6X21514   1.784   5.780   3.376  1.7286 -0.9371 -1.2224
  187POPC   H6Y21515   1.774   5.611   3.340  1.1784  0.5385  2.1143
  187POPC   C3721516   1.620   5.681   3.476 -0.3476 -0.3714  0.2860
  187POPC   H7X21517   1.540   5.608   3.450  1.4432 -1.5494 -2.3734
  187POPC   H7Y21518   1.582   5.785   3.491  0.2341 -0.0355 -0.4958
  187POPC   C3821519   1.698   5.636   3.607 -0.0217  0.7497 -0.0852
  187POPC   H8X21520   1.794   5.693   3.608 -0.0961  0.8975  1.9634
  187POPC   H8Y21521   1.720   5.528   3.598  2.3952  1.2126 -0.6762
  187POPC   C3921522   1.616   5.669   3.729  0.1499 -0.9469  0.2569
  187POPC   H9X21523   1.531   5.598   3.735 -0.9495  0.3987  1.3959
  187POPC   H9Y21524   1.566   5.765   3.704 -1.0827 -1.4009  0.9003
  187POPC  C31021525   1.695   5.677   3.860 -0.0633 -0.0326  0.5020
  187POPC  H10X21526   1.769   5.759   3.847 -0.8985  0.8205  0.9536
  187POPC  H10Y21527   1.747   5.579   3.865  1.4182  0.6341 -0.9244
  187POPC  C31121528   1.611   5.708   3.978 -0.4202 -0.4553  0.0763
  187POPC  H11X21529   1.536   5.626   3.986  0.3220 -1.6722 -3.5405
  187POPC  H11Y21530   1.556   5.804   3.964 -3.1452 -2.3035 -3.5154
  187POPC  C31221531   1.703   5.701   4.104  0.3933 -0.4511 -0.4130
  187POPC  H12X21532   1.780   5.781   4.104  0.8129 -0.7674  2.0702
  187POPC  H12Y21533   1.764   5.608   4.098 -0.9795 -1.3429 -1.0800
  187POPC  C31321534   1.623   5.719   4.235 -0.3308 -0.3317 -0.2392
  187POPC  H13X21535   1.532   5.656   4.243  1.1737 -3.0179 -2.4356
  187POPC  H13Y21536   1.591   5.824   4.251  3.4723  1.0092 -0.3996
  187POPC  C31421537   1.711   5.681   4.355  0.1017  0.4886 -0.3657
  187POPC  H14X21538   1.797   5.751   4.351  0.5711 -0.0909 -0.5793
  187POPC  H14Y21539   1.755   5.579   4.349 -1.4247 -0.2550  0.5920
  187POPC  C31521540   1.629   5.687   4.491 -0.3385  0.1087 -0.5148
  187POPC  H15X21541   1.521   5.706   4.473 -0.1773  2.4999  0.6716
  187POPC  H15Y21542   1.654   5.779   4.547  3.1274 -0.3194 -1.1631
  187POPC  C31621543   1.653   5.568   4.582 -0.1694 -0.8882  0.0649
  187POPC  H16X21544   1.620   5.590   4.686 -2.1488 -0.5650 -0.5848
  187POPC  H16Y21545   1.762   5.550   4.593  0.9826  3.4933 -1.7485
  187POPC  H16Z21546   1.603   5.476   4.546 -3.2882  0.3411  0.9541
  188POPC     N21547   6.505   4.973   2.565  0.5355  0.1238  0.0254
  188POPC   C1221548   6.478   5.117   2.610 -0.3408  1.0270  0.7563
  188POPC  H12A21549   6.554   5.134   2.685  1.2857 -1.0749 -0.2987
  188POPC  H12B21550   6.385   5.112   2.664  0.3661 -1.1051  1.9167
  188POPC   C1321551   6.523   4.875   2.677 -0.1414  0.2267 -0.1068
  188POPC  H13A21552   6.616   4.889   2.731  1.5098 -1.9741 -2.2001
  188POPC  H13B21553   6.436   4.889   2.739 -0.7165 -0.6697 -0.6949
  188POPC  H13C21554   6.527   4.773   2.643  0.2129 -0.3235  1.5013
  188POPC   C1421555   6.401   4.922   2.474  0.1997 -0.0024  0.2358
  188POPC  H14A21556   6.416   4.975   2.381 -0.7646 -0.2287 -0.0636
  188POPC  H14B21557   6.410   4.816   2.455  0.7162 -0.1261  1.1328
  188POPC  H14C21558   6.299   4.944   2.505  0.2034  3.5863 -1.7957
  188POPC   C1521559   6.630   4.962   2.491  0.1607  0.2148  0.6407
  188POPC  H15A21560   6.627   4.871   2.432  2.2630  0.4620  0.0999
  188POPC  H15B21561   6.719   4.949   2.550  0.5049  0.0971  0.1077
  188POPC  H15C21562   6.633   5.041   2.417 -2.2123 -1.5373 -1.5317
  188POPC   C1121563   6.468   5.224   2.502 -0.0986 -0.6520  0.1885
  188POPC  H11A21564   6.430   5.320   2.544  0.2684 -0.6772  0.5840
  188POPC  H11B21565   6.398   5.201   2.419 -0.8847  2.9134 -0.3130
  188POPC     P21566   6.671   5.400   2.488  0.0898  0.1813  0.0722
  188POPC   O1321567   6.575   5.510   2.446 -0.1990  0.6165 -0.0213
  188POPC   O1421568   6.802   5.404   2.423 -0.1732 -0.7856 -1.0245
  188POPC   O1221569   6.594   5.258   2.448 -0.1779 -0.1264 -0.2247
  188POPC   O1121570   6.688   5.399   2.641 -0.4213 -0.7582 -0.1793
  188POPC    C121571   6.640   5.505   2.729  0.3068 -0.8152 -0.2973
  188POPC    HA21572   6.620   5.477   2.835 -1.5171  1.7333  0.1052
  188POPC    HB21573   6.536   5.537   2.704  0.6677 -0.5703 -1.5334
  188POPC    C221574   6.744   5.617   2.737  0.2681  0.2054 -0.0077
  188POPC    HS21575   6.781   5.650   2.637  4.0099  1.1693  1.5354
  188POPC   O2121576   6.856   5.564   2.813 -0.6293  0.3597  0.6285
  188POPC   C2121577   6.962   5.639   2.803  0.2277  0.6897 -0.6703
  188POPC   O2221578   6.971   5.748   2.750  0.1173 -0.0677 -0.7052
  188POPC   C2221579   7.090   5.562   2.846  0.2050  0.6646 -0.0064
  188POPC   H2R21580   7.160   5.630   2.898 -0.4815  0.8721  0.6835
  188POPC   H2S21581   7.137   5.527   2.752  1.8483  0.8318  0.7230
  188POPC    C321582   6.665   5.740   2.790 -0.4536 -0.0962 -0.2077
  188POPC    HX21583   6.588   5.783   2.722 -0.1483  1.8753  0.6042
  188POPC    HY21584   6.734   5.826   2.806  0.1411 -0.5188 -0.4626
  188POPC   O3121585   6.600   5.716   2.918  0.4257  0.4098 -0.2559
  188POPC   C3121586   6.679   5.705   3.030 -0.2427 -0.1864  0.1360
  188POPC   O3221587   6.792   5.757   3.036 -0.1534 -0.5908  0.3435
  188POPC   C3221588   6.616   5.630   3.137 -1.2460  0.2182  0.5247
  188POPC   H2X21589   6.580   5.540   3.084 -4.0598  0.7438  1.3719
  188POPC   H2Y21590   6.526   5.687   3.169 -0.9655 -0.1151  1.9963
  188POPC   C2321591   7.068   5.442   2.943  0.0375  0.2432  0.5524
  188POPC   H3R21592   7.157   5.380   2.919  0.6189  2.2915 -3.4875
  188POPC   H3S21593   6.983   5.379   2.910 -0.7775  1.3961  0.3881
  188POPC   C2421594   7.065   5.480   3.093 -0.5166 -1.4389 -0.3567
  188POPC   H4R21595   6.978   5.548   3.099 -0.8763 -1.9222  0.0130
  188POPC   H4S21596   7.162   5.529   3.112 -1.4321  0.0610  0.6670
  188POPC   C2521597   7.041   5.365   3.194 -0.3376  0.6862  0.2868
  188POPC   H5R21598   7.137   5.309   3.196 -1.0350 -0.4970  0.9608
  188POPC   H5S21599   6.961   5.297   3.160  1.2526 -1.3055  0.3609
  188POPC   C2621600   7.017   5.402   3.333 -0.4649 -0.0582  0.5491
  188POPC   H6R21601   6.930   5.469   3.350 -1.8822 -1.2922 -1.3376
  188POPC   H6S21602   7.107   5.457   3.367  0.1042 -1.6720  1.7677
  188POPC   C2721603   7.003   5.274   3.423 -0.6938 -0.3561  0.0326
  188POPC   H7R21604   7.086   5.201   3.411 -0.4489 -0.1144  0.2314
  188POPC   H7S21605   6.906   5.226   3.397 -1.0045  0.3503 -0.1459
  188POPC   C2821606   6.999   5.303   3.574 -0.0051 -0.2871 -0.2178
  188POPC   H8R21607   6.955   5.402   3.599  1.5718  0.1502  0.9555
  188POPC   H8S21608   7.097   5.295   3.626 -0.9093  3.0787  2.3811
  188POPC   C2921609   6.904   5.211   3.643 -0.0004 -0.3588  0.4470
  188POPC   H9121610   6.823   5.174   3.579 -0.9680  1.0769  0.7891
  188POPC  C21021611   6.898   5.146   3.761 -0.0903 -0.3364  0.1051
  188POPC  H10121612   6.811   5.083   3.788  1.3658 -1.2011  3.2174
  188POPC  C21121613   6.994   5.167   3.872 -0.0407  0.7642 -0.7805
  188POPC  H11R21614   7.079   5.236   3.849 -0.6535  1.8534  0.1680
  188POPC  H11S21615   7.039   5.068   3.895  0.0147  0.4920 -1.9689
  188POPC  C21221616   6.918   5.211   4.002 -0.4677 -0.6460 -0.0589
  188POPC  H12R21617   6.837   5.136   4.017  1.0323 -2.1426  0.9864
  188POPC  H12S21618   6.876   5.314   3.999  1.3375  0.2198  1.6957
  188POPC  C21321619   7.009   5.205   4.131  0.5783 -0.3516 -0.5689
  188POPC  H13R21620   7.106   5.254   4.105  0.7131 -1.6732 -2.8505
  188POPC  H13S21621   7.039   5.101   4.153  3.0628 -0.0651 -2.0589
  188POPC  C21421622   6.941   5.251   4.261  0.0045 -0.7349  0.0862
  188POPC  H14R21623   6.848   5.195   4.288 -0.3996 -0.0279  0.1744
  188POPC  H14S21624   6.909   5.356   4.246 -0.4369 -0.7935  0.5892
  188POPC  C21521625   7.039   5.252   4.382 -0.0317  0.0742 -0.4786
  188POPC  H15R21626   7.144   5.266   4.350  0.2735 -2.7405 -0.9062
  188POPC  H15S21627   7.032   5.155   4.435 -2.1096  0.4174 -0.0053
  188POPC  C21621628   7.001   5.362   4.484  0.4207 -0.3757 -0.0844
  188POPC  H16R21629   6.982   5.454   4.424 -0.8727 -0.9683 -0.6058
  188POPC  H16S21630   7.093   5.387   4.540  0.6853  0.4280 -0.8415
  188POPC  C21721631   6.873   5.319   4.570 -0.7866  0.0379 -0.2988
  188POPC  H17R21632   6.909   5.262   4.659  1.1221 -0.7733 -1.5246
  188POPC  H17S21633   6.813   5.252   4.504 -1.5712 -0.4963  0.9156
  188POPC  C21821634   6.788   5.439   4.601  0.2756 -0.2439 -0.3922
  188POPC  H18R21635   6.854   5.492   4.673  1.6662 -2.0137 -0.2874
  188POPC  H18S21636   6.697   5.409   4.657 -0.0237  1.2662 -0.0352
  188POPC  H18T21637   6.763   5.504   4.514 -3.6611 -1.4134 -0.2984
  188POPC   C3321638   6.702   5.571   3.249  0.1493 -0.0427 -0.0450
  188POPC   H3X21639   6.793   5.636   3.252  1.1124 -1.3842  0.6729
  188POPC   H3Y21640   6.739   5.471   3.220 -0.8513 -0.1326 -1.0897
  188POPC   C3421641   6.626   5.581   3.379  0.5384 -0.4937 -0.1294
  188POPC   H4X21642   6.544   5.506   3.378 -1.2107  1.3223 -1.8303
  188POPC   H4Y21643   6.576   5.680   3.394 -2.9248 -2.0775 -0.2658
  188POPC   C3521644   6.705   5.553   3.512 -0.5713 -0.6011  0.0293
  188POPC   H5X21645   6.772   5.641   3.508  0.0620 -1.1185 -2.3570
  188POPC   H5Y21646   6.765   5.460   3.507 -1.3014 -1.0082 -3.0251
  188POPC   C3621647   6.625   5.574   3.638  1.0090  0.8062 -0.2628
  188POPC   H6X21648   6.550   5.493   3.638  1.8403 -0.0081  1.1547
  188POPC   H6Y21649   6.567   5.669   3.641 -2.4024 -1.1476  1.5395
  188POPC   C3721650   6.712   5.582   3.764 -0.3415 -0.9117 -0.2800
  188POPC   H7X21651   6.778   5.672   3.763  0.0890 -1.2202 -1.0075
  188POPC   H7Y21652   6.796   5.508   3.763 -1.1196 -1.8901  1.6429
  188POPC   C3821653   6.639   5.577   3.899 -0.1247 -0.2999 -0.4888
  188POPC   H8X21654   6.593   5.476   3.904  1.1774 -1.0787 -2.6421
  188POPC   H8Y21655   6.552   5.647   3.895  0.1467 -0.0231 -2.8137
  188POPC   C3921656   6.733   5.596   4.020  0.5166  0.2063  0.2564
  188POPC   H9X21657   6.776   5.698   4.027  1.2409  0.0272 -1.2262
  188POPC   H9Y21658   6.828   5.541   4.002  0.2157  0.4817 -2.6504
  188POPC  C31021659   6.668   5.560   4.160  0.0817  0.1741  0.2592
  188POPC  H10X21660   6.751   5.575   4.232 -1.3072 -0.3578  2.0380
  188POPC  H10Y21661   6.635   5.454   4.161  2.5036 -0.6930 -1.2906
  188POPC  C31121662   6.553   5.644   4.201  0.5994 -0.0281  0.2214
  188POPC  H11X21663   6.466   5.623   4.134 -0.8100 -0.4243  2.0823
  188POPC  H11Y21664   6.586   5.748   4.183  1.2120 -0.0422  1.1840
  188POPC  C31221665   6.516   5.641   4.348 -0.1461 -0.6269 -0.2601
  188POPC  H12X21666   6.600   5.687   4.404 -1.6902  1.4137  0.5020
  188POPC  H12Y21667   6.505   5.536   4.383 -0.8339 -0.5919 -0.3564
  188POPC  C31321668   6.392   5.721   4.387 -0.2419 -0.3066 -0.1894
  188POPC  H13X21669   6.292   5.694   4.346 -1.1242  0.3677  1.4267
  188POPC  H13Y21670   6.402   5.828   4.359 -0.4952  0.3105  1.8885
  188POPC  C31421671   6.384   5.717   4.539 -0.4744  0.2978 -0.4286
  188POPC  H14X21672   6.305   5.787   4.573  1.2202  1.1595  1.9587
  188POPC  H14Y21673   6.472   5.765   4.586 -0.8332 -0.2456  0.8180
  188POPC  C31521674   6.355   5.584   4.609 -0.1769  0.5178 -0.2917
  188POPC  H15X21675   6.423   5.500   4.586 -1.2247 -0.5149  0.2619
  188POPC  H15Y21676   6.257   5.550   4.569 -0.9306  3.2985 -1.0411
  188POPC  C31621677   6.348   5.592   4.761  0.0690  0.0769 -0.0657
  188POPC  H16X21678   6.276   5.670   4.794  0.0816 -0.2076  0.6514
  188POPC  H16Y21679   6.451   5.613   4.795  0.8467 -0.1983 -2.1123
  188POPC  H16Z21680   6.318   5.497   4.811 -1.5321  2.0513  3.0938
  189SAPI   C1221681   4.764   5.063   6.940  0.0783  0.6847  0.0813
  189SAPI    H221682   4.731   5.167   6.920 -1.1242  0.2431 -0.3021
  189SAPI    O221683   4.720   4.973   6.841  0.0942  0.8750 -0.0757
  189SAPI   HO221684   4.721   5.022   6.758  2.9595 -0.4913 -0.9708
  189SAPI   C1321685   4.913   5.070   6.932 -0.3017 -0.0389 -0.2013
  189SAPI    H321686   4.939   5.135   7.018 -4.3114  0.2353  1.0224
  189SAPI    O321687   4.948   5.132   6.810  0.3114  0.6174 -0.1117
  189SAPI   HO321688   5.014   5.200   6.825  1.1501 -0.1528 -0.2473
  189SAPI   C1421689   4.973   4.928   6.950  0.3797  0.5300 -0.0177
  189SAPI    H421690   4.948   4.887   6.850 -1.5039  0.8384  0.2885
  189SAPI    O421691   5.117   4.926   6.966 -0.4581  0.5681  0.8425
  189SAPI   HO421692   5.139   4.837   6.936  1.2338  1.2874 -0.1784
  189SAPI   C1521693   4.908   4.837   7.055 -0.0750 -0.3018  0.6910
  189SAPI    H521694   4.967   4.860   7.146  2.0183 -1.7776 -0.2247
  189SAPI    O521695   4.933   4.696   7.034  0.1432 -0.1164 -0.2864
  189SAPI   HO521696   4.856   4.657   6.992 -2.7696 -0.6440  4.7477
  189SAPI   C1621697   4.758   4.865   7.093 -0.1268 -0.2362 -0.3451
  189SAPI    H621698   4.710   4.799   7.018 -0.8675 -1.6141  1.2705
  189SAPI    O621699   4.724   4.814   7.225  0.0942  0.7043 -0.2867
  189SAPI   HO621700   4.632   4.786   7.216  0.3880 -0.1216 -0.8256
  189SAPI   C1121701   4.718   5.008   7.077 -0.3912 -1.1909  0.0575
  189SAPI    H121702   4.768   5.063   7.159 -3.8102  2.6199 -0.0787
  189SAPI     P21703   4.522   5.155   7.157  0.1084 -0.0316  0.0087
  189SAPI   O1321704   4.606   5.201   7.266  0.4541 -0.3046  0.3062
  189SAPI   O1421705   4.375   5.132   7.184  0.2752 -0.1612 -0.2165
  189SAPI   O1221706   4.578   5.019   7.097  0.5858  0.6825 -0.2845
  189SAPI   O1121707   4.525   5.264   7.044 -0.1707 -0.0950  0.3429
  189SAPI    C121708   4.411   5.297   6.968  0.4840  0.2494 -0.0149
  189SAPI    HA21709   4.332   5.220   6.961  0.3481  0.5349 -2.1230
  189SAPI    HB21710   4.369   5.390   7.012 -0.4257  0.5471 -1.4760
  189SAPI    C221711   4.463   5.325   6.819  0.5914  0.1335 -0.3419
  189SAPI    HS21712   4.507   5.230   6.782 -1.1644 -0.0197 -2.2000
  189SAPI   O2121713   4.567   5.422   6.824 -0.3548  0.0042 -0.1584
  189SAPI   C2121714   4.656   5.418   6.719  0.8054 -1.1323 -0.3320
  189SAPI   O2221715   4.641   5.357   6.615 -0.1715  0.6838  0.5187
  189SAPI   C2221716   4.777   5.501   6.751  0.3011 -0.1271  0.6135
  189SAPI   H2R21717   4.750   5.608   6.742  3.4219  1.0008  2.7150
  189SAPI   H2S21718   4.816   5.479   6.853  1.5952  0.2042  0.2173
  189SAPI    C321719   4.344   5.358   6.716 -0.2362  0.0237 -0.4411
  189SAPI    HX21720   4.325   5.466   6.734 -1.5321 -0.0521 -1.2650
  189SAPI    HY21721   4.246   5.314   6.744  0.5446 -2.5285 -1.4991
  189SAPI   O3121722   4.365   5.328   6.579  0.1214 -0.8311  0.0092
  189SAPI   C3121723   4.376   5.438   6.502  0.3902  0.2548 -0.6437
  189SAPI   O3221724   4.350   5.552   6.544 -0.1914 -0.2839 -0.6360
  189SAPI   C3221725   4.411   5.399   6.357 -0.3009 -0.1030 -0.4284
  189SAPI   H2X21726   4.326   5.333   6.327 -0.9292 -0.1524  1.3303
  189SAPI   H2Y21727   4.503   5.340   6.372  0.5070  1.3984  0.8145
  189SAPI   C2321728   4.894   5.478   6.659 -0.0280 -0.4683  0.4061
  189SAPI   H3R21729   4.916   5.369   6.652 -0.4099 -0.5119 -0.1823
  189SAPI   H3S21730   4.977   5.526   6.716 -0.0252  1.6375 -1.2471
  189SAPI   C2421731   4.883   5.539   6.517  0.0150  0.1416  0.3381
  189SAPI   H4R21732   4.857   5.647   6.527  0.7679  0.5338 -1.5159
  189SAPI   H4S21733   4.800   5.493   6.460  0.9611  0.9721 -1.8224
  189SAPI   C2521734   5.017   5.522   6.450  0.8265  1.3464  0.8906
  189SAPI   H5R21735   5.102   5.580   6.490  1.8897  1.7255 -1.7556
  189SAPI   C2621736   5.034   5.448   6.338  0.6528  0.8764 -0.6908
  189SAPI   H6R21737   5.133   5.422   6.297  0.3257 -0.9896 -0.3938
  189SAPI   C2721738   4.918   5.374   6.269  0.3901 -0.5391 -0.4415
  189SAPI   H7R21739   4.860   5.441   6.202  1.6422  2.9376  1.6744
  189SAPI   H7S21740   4.840   5.347   6.343 -0.0670 -0.3609 -0.8518
  189SAPI   C2821741   4.981   5.254   6.203 -0.6713 -0.1503  1.3465
  189SAPI   H8R21742   5.009   5.170   6.268 -2.1964 -1.0571  0.8861
  189SAPI   C2921743   5.005   5.233   6.068 -0.1090 -0.3257  0.1261
  189SAPI   H9R21744   5.058   5.142   6.036 -1.0234 -0.2478 -1.7191
  189SAPI  C21021745   4.966   5.331   5.955 -0.4410  0.0203 -0.5131
  189SAPI  H10R21746   4.932   5.429   5.993  0.7452  0.0717  0.4668
  189SAPI  H10S21747   4.877   5.300   5.896 -1.1775  0.3369  0.4025
  189SAPI  C21121748   5.086   5.387   5.883 -0.7743 -0.2239  0.9200
  189SAPI  H11R21749   5.154   5.439   5.951 -1.5891  0.6613  1.0683
  189SAPI  C21221750   5.098   5.405   5.749  0.2219  0.0949  0.7966
  189SAPI  H12R21751   5.185   5.453   5.701 -0.0245  0.3565  0.6045
  189SAPI  C21321752   5.012   5.355   5.631  0.5546  0.3308  0.3954
  189SAPI  H13R21753   4.937   5.286   5.675  0.0820  0.4758 -0.1686
  189SAPI  H13S21754   5.073   5.297   5.558 -0.7956 -0.9533  0.2329
  189SAPI  C21421755   4.936   5.462   5.561 -0.0559 -0.0655 -0.8163
  189SAPI  H14R21756   4.835   5.488   5.597  0.9634  2.6919  0.3711
  189SAPI  C21521757   4.980   5.539   5.464 -0.1881 -1.0436  0.1825
  189SAPI  H15R21758   4.909   5.611   5.419  2.4005  0.2971 -2.0572
  189SAPI  C21621759   5.116   5.531   5.402 -0.5011  0.9956  0.1661
  189SAPI  H16R21760   5.194   5.477   5.460 -1.1514 -0.5054 -0.3184
  189SAPI  H16S21761   5.153   5.635   5.390  0.8847  0.6101  0.8989
  189SAPI  C21721762   5.115   5.464   5.260  0.4341  0.0520 -0.8343
  189SAPI  H17R21763   5.076   5.362   5.278 -0.6968  0.9525  2.3736
  189SAPI  H17S21764   5.218   5.444   5.221 -0.7542 -2.8361 -2.8413
  189SAPI  C21821765   5.029   5.532   5.154  0.0773  0.1200  0.1786
  189SAPI  H18R21766   4.919   5.532   5.168 -0.3148  2.1728 -2.2553
  189SAPI  H18S21767   5.038   5.470   5.062  0.5510  0.3899  0.0382
  189SAPI  C21921768   5.072   5.674   5.110 -0.6150 -0.2793  0.3312
  189SAPI  H19R21769   5.045   5.747   5.189 -0.5806  1.0088 -0.8091
  189SAPI  H19S21770   5.021   5.714   5.020 -0.5991 -1.0243 -0.0180
  189SAPI  C22021771   5.216   5.691   5.066 -0.4180 -0.3536 -0.2584
  189SAPI  H20R21772   5.222   5.633   4.972 -1.4564  1.7376 -1.6946
  189SAPI  H20S21773   5.296   5.667   5.139  0.7141  0.8885 -1.0576
  189SAPI  H20T21774   5.225   5.794   5.026 -1.3137  0.3945  1.3313
  189SAPI   C3321775   4.411   5.522   6.267  0.4170  0.3696 -0.7058
  189SAPI   H3X21776   4.483   5.599   6.303  1.7944 -1.5240  0.8214
  189SAPI   H3Y21777   4.314   5.576   6.273  0.8818  1.2354 -0.8671
  189SAPI   C3421778   4.443   5.472   6.127 -1.0066  0.1540  0.0222
  189SAPI   H4X21779   4.354   5.415   6.092 -0.1308 -1.0473 -0.3523
  189SAPI   H4Y21780   4.537   5.411   6.126 -0.3487  1.1534 -0.4427
  189SAPI   C3521781   4.467   5.576   6.019  0.4859  0.1662 -0.4971
  189SAPI   H5X21782   4.560   5.621   6.058 -1.1209  2.1309  1.2753
  189SAPI   H5Y21783   4.391   5.657   6.013 -0.2635 -0.5477 -0.8875
  189SAPI   C3621784   4.471   5.516   5.875  0.0461  0.6987 -0.4106
  189SAPI   H6X21785   4.382   5.449   5.868 -1.2334  2.4637 -2.0109
  189SAPI   H6Y21786   4.566   5.458   5.864  0.7840  1.7101  0.4666
  189SAPI   C3721787   4.469   5.621   5.767 -0.0019 -0.3089  0.3151
  189SAPI   H7X21788   4.551   5.689   5.797  0.1339 -0.8160  1.1352
  189SAPI   H7Y21789   4.369   5.670   5.774 -0.6197 -1.4183 -0.3982
  189SAPI   C3821790   4.505   5.574   5.623  0.0011 -0.3145 -0.2370
  189SAPI   H8X21791   4.427   5.499   5.596 -1.6222  1.7416 -1.5029
  189SAPI   H8Y21792   4.607   5.530   5.627  0.4850  0.8501  0.7701
  189SAPI   C3921793   4.488   5.681   5.510  0.3862 -0.6203 -0.0315
  189SAPI   H9X21794   4.553   5.765   5.543  1.5871 -1.0255 -1.2403
  189SAPI   H9Y21795   4.383   5.714   5.515  0.4367 -0.6753  2.4659
  189SAPI  C31021796   4.529   5.638   5.363  0.1490 -0.4732 -0.5238
  189SAPI  H10X21797   4.472   5.546   5.339  0.4435 -0.6240 -0.6509
  189SAPI  H10Y21798   4.639   5.624   5.359  0.3886  1.1007 -0.4322
  189SAPI  C31121799   4.487   5.752   5.266 -0.2108  0.0864 -0.2208
  189SAPI  H11X21800   4.538   5.843   5.305  1.4763 -0.0733 -1.8629
  189SAPI  H11Y21801   4.378   5.769   5.273 -0.0604  1.6136 -1.1046
  189SAPI  C31221802   4.538   5.713   5.128 -0.0378 -0.4937 -0.4887
  189SAPI  H12X21803   4.491   5.624   5.081  0.4764 -0.6347 -0.7409
  189SAPI  H12Y21804   4.644   5.683   5.143 -0.6597 -1.9488  1.3408
  189SAPI  C31321805   4.542   5.835   5.039 -0.9766  0.1070  0.0762
  189SAPI  H13X21806   4.605   5.800   4.954 -1.3642  0.8198 -0.5135
  189SAPI  H13Y21807   4.592   5.920   5.089 -0.3368  0.1484 -0.6170
  189SAPI  C31421808   4.403   5.877   4.986 -0.2000  1.3622 -0.3274
  189SAPI  H14X21809   4.348   5.941   5.058  0.2385  1.5737 -0.1724
  189SAPI  H14Y21810   4.333   5.793   4.972  1.0297  0.3771 -0.7274
  189SAPI  C31521811   4.399   5.960   4.852  0.4167  0.3213 -0.0464
  189SAPI  H15X21812   4.294   5.996   4.840  1.0176  1.6756 -1.7334
  189SAPI  H15Y21813   4.405   5.884   4.772 -0.0516  0.2297  0.0005
  189SAPI  C31621814   4.498   6.075   4.824 -0.4034  0.2577 -0.6896
  189SAPI  H16X21815   4.601   6.036   4.841 -0.4730  0.7245  1.0519
  189SAPI  H16Y21816   4.480   6.156   4.898  1.0440 -0.1228  0.1292
  189SAPI  C31721817   4.502   6.128   4.685 -0.1468 -0.2149  0.4730
  189SAPI  H17X21818   4.404   6.133   4.635 -0.0483 -0.9894  0.2025
  189SAPI  H17Y21819   4.545   6.047   4.623 -0.3320  0.3520 -0.4190
  189SAPI  C31821820   4.571   6.263   4.666 -0.7028  0.7386 -0.0229
  189SAPI  H18X21821   4.501   6.342   4.700 -2.1269  0.1578 -1.4689
  189SAPI  H18Y21822   4.608   6.287   4.564 -0.1356 -1.3871 -0.3562
  189SAPI  H18Z21823   4.663   6.258   4.728 -1.7205 -1.0194  1.4465
  190SAPI   C1221824   5.672   1.416   7.004  0.0326  0.3577 -0.0719
  190SAPI    H221825   5.579   1.356   7.003  0.0527 -0.0784  4.4688
  190SAPI    O221826   5.655   1.516   6.908  0.0864 -0.0406 -0.0819
  190SAPI   HO221827   5.607   1.481   6.833  0.6395  1.3870 -1.1353
  190SAPI   C1321828   5.688   1.472   7.143  0.8890  0.2475  0.1059
  190SAPI    H321829   5.691   1.383   7.209  0.1769  0.1976  0.0780
  190SAPI    O321830   5.577   1.552   7.186  0.2320  0.3448  0.1922
  190SAPI   HO321831   5.596   1.643   7.160 -2.0152  0.4184 -1.6010
  190SAPI   C1421832   5.830   1.542   7.150  0.0818  0.4944 -0.1634
  190SAPI    H421833   5.806   1.647   7.122 -2.0657 -0.2557 -1.4284
  190SAPI    O421834   5.875   1.539   7.285  0.9200 -0.0679 -0.2855
  190SAPI   HO421835   5.900   1.450   7.310  2.2039  0.2380 -0.3752
  190SAPI   C1521836   5.947   1.498   7.058 -0.3635 -0.1145 -0.5240
  190SAPI    H521837   6.014   1.439   7.124 -0.5808  0.2562  0.0284
  190SAPI    O521838   6.036   1.603   7.015 -0.5154  0.1127  0.2647
  190SAPI   HO521839   6.127   1.574   7.023 -0.1082  0.9673 -1.0083
  190SAPI   C1621840   5.915   1.400   6.946  0.4869 -0.2227  1.4240
  190SAPI    H621841   5.903   1.457   6.852 -1.3247  0.4461  2.0104
  190SAPI    O621842   6.026   1.317   6.922  0.4731  0.2172 -0.0837
  190SAPI   HO621843   6.087   1.354   6.858  0.8930 -0.4476 -0.0836
  190SAPI   C1121844   5.784   1.320   6.972  0.1457 -0.6481  0.3061
  190SAPI    H121845   5.807   1.257   7.061 -0.9343 -1.7538 -0.1712
  190SAPI     P21846   5.697   1.099   6.854 -0.4381 -0.0490  0.0229
  190SAPI   O1321847   5.598   1.078   6.958  0.0465 -0.5308 -0.3773
  190SAPI   O1421848   5.820   1.016   6.863  0.3352  0.4768 -0.1166
  190SAPI   O1221849   5.749   1.251   6.851  0.3454 -0.1632 -1.1142
  190SAPI   O1121850   5.627   1.069   6.715 -0.0396  0.1873 -0.4496
  190SAPI    C121851   5.706   1.068   6.589 -0.0777 -0.0608 -0.1775
  190SAPI    HA21852   5.771   1.157   6.572  0.4902 -0.4636 -0.1328
  190SAPI    HB21853   5.769   0.977   6.583  1.3874  0.9888 -1.4993
  190SAPI    C221854   5.604   1.056   6.467  0.1830 -0.5763 -0.0510
  190SAPI    HS21855   5.537   0.970   6.488  1.9782 -1.8416  0.6432
  190SAPI   O2121856   5.680   1.039   6.350 -0.1266 -0.2677  0.3734
  190SAPI   C2121857   5.622   0.966   6.257 -0.2171 -0.0016 -0.1293
  190SAPI   O2221858   5.523   0.901   6.271  0.2416  0.4271  0.4221
  190SAPI   C2221859   5.714   0.954   6.138  1.0509 -0.0278  0.7069
  190SAPI   H2R21860   5.818   0.989   6.151  1.1289 -0.2780  0.7723
  190SAPI   H2S21861   5.703   0.846   6.113 -0.3467 -0.0195  1.1583
  190SAPI    C321862   5.526   1.185   6.450  0.2323 -0.4539  0.0213
  190SAPI    HX21863   5.601   1.264   6.426  2.0572 -2.3694 -0.8940
  190SAPI    HY21864   5.486   1.224   6.546  0.9625  0.0905  0.1198
  190SAPI   O3121865   5.429   1.185   6.346  0.4571  0.8881 -0.1988
  190SAPI   C3121866   5.312   1.130   6.373 -0.1217  0.1796  0.6405
  190SAPI   O3221867   5.279   1.073   6.480  0.6358 -0.1684  0.1813
  190SAPI   C3221868   5.221   1.143   6.252  0.1113  0.3133  0.1640
  190SAPI   H2X21869   5.224   1.249   6.217 -0.1826  0.5148  0.7393
  190SAPI   H2Y21870   5.118   1.119   6.286 -0.2770 -0.0550 -1.2098
  190SAPI   C2321871   5.653   1.035   6.016  0.2844 -0.3860 -0.5089
  190SAPI   H3R21872   5.739   1.066   5.952 -0.3692  2.0717 -0.2776
  190SAPI   H3S21873   5.598   1.127   6.045  0.8775  0.4302 -1.8504
  190SAPI   C2421874   5.550   0.958   5.927 -0.2048 -0.9955 -0.6812
  190SAPI   H4R21875   5.488   1.022   5.860 -2.6555 -1.3487  1.1068
  190SAPI   H4S21876   5.468   0.916   5.989 -0.6070  0.3711 -0.2539
  190SAPI   C2521877   5.623   0.851   5.853  0.3540  0.4044 -0.4794
  190SAPI   H5R21878   5.675   0.777   5.916 -0.0556 -0.3276 -0.9947
  190SAPI   C2621879   5.611   0.822   5.720 -0.1946  0.3728  0.1733
  190SAPI   H6R21880   5.678   0.746   5.677 -0.2902  1.0589 -1.2187
  190SAPI   C2721881   5.549   0.907   5.613 -0.3819  0.4815  0.2822
  190SAPI   H7R21882   5.637   0.959   5.571 -1.4162  1.0615 -1.2686
  190SAPI   H7S21883   5.490   0.994   5.649  2.0891  2.1492  0.4806
  190SAPI   C2821884   5.471   0.831   5.507  0.4895 -0.0179  0.1253
  190SAPI   H8R21885   5.391   0.782   5.565  1.1834  0.2995  1.3736
  190SAPI   C2921886   5.479   0.826   5.370  0.0271 -0.1769  0.1353
  190SAPI   H9R21887   5.402   0.761   5.325 -1.2646 -0.2561  2.2979
  190SAPI  C21021888   5.583   0.894   5.295  0.0746  0.5488 -0.1871
  190SAPI  H10R21889   5.591   0.843   5.196  0.6456 -0.2877  0.2788
  190SAPI  H10S21890   5.683   0.883   5.343  0.1754  2.0194 -0.0082
  190SAPI  C21121891   5.576   1.042   5.273 -0.7569  0.4871  0.1198
  190SAPI  H11R21892   5.502   1.096   5.334  0.2481  1.9847  0.0737
  190SAPI  C21221893   5.640   1.114   5.181 -0.3260 -0.1733  0.5600
  190SAPI  H12R21894   5.623   1.222   5.175 -2.2018 -0.4768 -0.1363
  190SAPI  C21321895   5.745   1.066   5.080 -0.2257  0.1839 -0.5014
  190SAPI  H13R21896   5.798   0.974   5.110 -1.3024 -0.4307 -0.4308
  190SAPI  H13S21897   5.835   1.131   5.073 -0.1686  0.2053  0.3552
  190SAPI  C21421898   5.695   1.040   4.943 -0.0780 -0.1413  0.2589
  190SAPI  H14R21899   5.585   1.035   4.931  0.0219  2.2235 -2.5910
  190SAPI  C21521900   5.757   1.038   4.821 -0.3626  0.1307 -0.0497
  190SAPI  H15R21901   5.692   1.024   4.733  0.6497 -0.1989 -0.7690
  190SAPI  C21621902   5.909   1.050   4.798  0.3405  0.6089  0.6394
  190SAPI  H16R21903   5.956   1.061   4.897 -0.8766 -0.3641  1.3543
  190SAPI  H16S21904   5.938   1.125   4.721 -0.4758 -0.1290 -0.4261
  190SAPI  C21721905   5.965   0.920   4.735  0.4584  0.9702 -0.2077
  190SAPI  H17R21906   5.912   0.908   4.639  0.0149 -1.1500  0.2456
  190SAPI  H17S21907   5.930   0.830   4.792  1.3989  0.4769 -0.3928
  190SAPI  C21821908   6.116   0.912   4.708 -1.1545  0.2094  0.3445
  190SAPI  H18R21909   6.150   0.807   4.696 -1.4823  0.1696 -0.2812
  190SAPI  H18S21910   6.178   0.954   4.789 -0.1508  1.2834 -0.9245
  190SAPI  C21921911   6.140   0.969   4.572 -0.0973  0.2096  0.6234
  190SAPI  H19R21912   6.111   1.075   4.553  0.5667  0.3895  0.6117
  190SAPI  H19S21913   6.071   0.903   4.515 -0.0048 -0.8073  1.6461
  190SAPI  C22021914   6.281   0.939   4.525  0.1811  0.4497  0.4010
  190SAPI  H20R21915   6.302   0.960   4.418 -1.7976 -1.0683 -0.3653
  190SAPI  H20S21916   6.305   0.830   4.522 -1.3791  0.0685  0.8040
  190SAPI  H20T21917   6.348   0.995   4.593 -1.8946  0.9304  2.1879
  190SAPI   C3321918   5.276   1.041   6.157 -0.2140 -0.2290 -0.4026
  190SAPI   H3X21919   5.260   0.937   6.192  1.3024 -0.5670 -0.6714
  190SAPI   H3Y21920   5.383   1.064   6.137 -0.0265  1.0424  1.7666
  190SAPI   C3421921   5.223   1.060   6.013 -0.3594  0.4547  0.2934
  190SAPI   H4X21922   5.113   1.051   6.026 -0.1482  0.7748  2.9434
  190SAPI   H4Y21923   5.254   0.981   5.942 -0.4046  0.2687  0.4794
  190SAPI   C3521924   5.247   1.203   5.948  0.0435 -0.3225  0.1542
  190SAPI   H5X21925   5.350   1.215   5.908  0.4948  0.0102  1.3580
  190SAPI   H5Y21926   5.240   1.281   6.026 -0.2538  0.8259 -0.9901
  190SAPI   C3621927   5.158   1.227   5.822  0.1603  0.6330 -0.3046
  190SAPI   H6X21928   5.150   1.335   5.797  0.8485  0.2821 -2.2018
  190SAPI   H6Y21929   5.053   1.204   5.851 -0.0356  1.0470 -0.6611
  190SAPI   C3721930   5.203   1.147   5.699 -0.3265  0.6210 -0.5061
  190SAPI   H7X21931   5.204   1.037   5.715 -0.9920  0.5412 -0.9654
  190SAPI   H7Y21932   5.307   1.176   5.676  0.5379  1.5099  3.7697
  190SAPI   C3821933   5.122   1.185   5.575  0.1349 -0.4813  0.2895
  190SAPI   H8X21934   5.065   1.281   5.576  1.8245  0.6614 -1.6993
  190SAPI   H8Y21935   5.056   1.098   5.559  0.2166 -0.7016  1.1062
  190SAPI   C3921936   5.219   1.193   5.453 -0.1243 -0.7910 -0.1229
  190SAPI   H9X21937   5.284   1.102   5.455  0.2862 -0.4847  1.2812
  190SAPI   H9Y21938   5.283   1.284   5.449 -1.4141  0.1359 -3.5684
  190SAPI  C31021939   5.143   1.198   5.317  0.2401  0.7953  0.3808
  190SAPI  H10X21940   5.092   1.296   5.318  0.7008  1.0367  1.1662
  190SAPI  H10Y21941   5.060   1.125   5.304 -0.1820  1.4652 -0.8236
  190SAPI  C31121942   5.246   1.180   5.208 -0.4915 -0.5501  0.3776
  190SAPI  H11X21943   5.271   1.071   5.209  1.1204 -0.2516 -1.1528
  190SAPI  H11Y21944   5.343   1.231   5.228  0.1982 -1.2276 -1.0138
  190SAPI  C31221945   5.200   1.231   5.065 -0.4384  0.0867 -0.4981
  190SAPI  H12X21946   5.171   1.338   5.071  0.9111  0.4197  0.5656
  190SAPI  H12Y21947   5.115   1.169   5.028 -0.4235  0.6868 -1.5664
  190SAPI  C31321948   5.313   1.217   4.965 -0.7666 -0.6833 -0.2334
  190SAPI  H13X21949   5.358   1.116   4.971 -0.2560 -0.4837 -0.6777
  190SAPI  H13Y21950   5.393   1.291   4.987 -0.5710 -1.1681  0.7554
  190SAPI  C31421951   5.263   1.216   4.824 -0.2906 -0.2720 -0.5497
  190SAPI  H14X21952   5.206   1.307   4.796 -2.2264 -1.7786 -1.7132
  190SAPI  H14Y21953   5.182   1.144   4.798 -0.5432  0.0471 -0.6486
  190SAPI  C31521954   5.379   1.201   4.723  0.3635 -0.6200  0.2528
  190SAPI  H15X21955   5.406   1.095   4.743 -2.3977 -1.3468  0.5997
  190SAPI  H15Y21956   5.462   1.266   4.758 -0.3933  1.7834 -2.0468
  190SAPI  C31621957   5.340   1.251   4.584 -0.1705  0.5667  0.0531
  190SAPI  H16X21958   5.300   1.354   4.575  1.0325  0.9577 -1.1496
  190SAPI  H16Y21959   5.256   1.183   4.559 -3.2102  1.7455  5.4690
  190SAPI  C31721960   5.455   1.227   4.488  0.0444  0.2976  0.3969
  190SAPI  H17X21961   5.474   1.117   4.493  0.7402  0.3273 -1.0467
  190SAPI  H17Y21962   5.546   1.276   4.527  2.1696  0.4818 -4.1186
  190SAPI  C31821963   5.427   1.277   4.344  0.5324  0.6459 -0.1617
  190SAPI  H18X21964   5.510   1.259   4.272  0.4473 -0.1711 -0.0580
  190SAPI  H18Y21965   5.404   1.386   4.348 -2.5459  0.0709  0.3021
  190SAPI  H18Z21966   5.341   1.224   4.297  0.5228  0.1136  0.4400
  191SAPI   C1221967   6.063   3.630   2.337 -0.4742  0.5014  0.5385
  191SAPI    H221968   6.116   3.533   2.335  1.2013  1.3356  1.6074
  191SAPI    O221969   6.075   3.663   2.473  0.8335 -1.1023 -1.1966
  191SAPI   HO221970   6.021   3.594   2.512 -0.0252 -0.7720 -1.7693
  191SAPI   C1321971   6.137   3.716   2.243 -0.5335  0.5165  0.2453
  191SAPI    H321972   6.131   3.681   2.138 -1.0755  0.7490  0.1954
  191SAPI    O321973   6.281   3.719   2.272 -0.3447 -0.5373  0.4476
  191SAPI   HO321974   6.328   3.682   2.196 -0.1592 -0.4225  0.5044
  191SAPI   C1421975   6.080   3.859   2.235 -0.4695 -1.1101 -0.7370
  191SAPI    H421976   6.094   3.902   2.336 -2.0338 -0.8895 -0.6006
  191SAPI    O421977   6.154   3.947   2.154  0.5234  0.0538  0.1856
  191SAPI   HO421978   6.234   3.965   2.204  0.5509 -0.7607  0.4499
  191SAPI   C1521979   5.932   3.865   2.207 -0.6427  0.0584  1.1180
  191SAPI    H521980   5.927   3.853   2.096 -1.1063 -0.4116  1.1846
  191SAPI    O521981   5.877   4.000   2.239 -0.2359 -0.0670  0.1982
  191SAPI   HO521982   5.810   4.020   2.173  0.6748  2.3584 -0.1245
  191SAPI   C1621983   5.854   3.752   2.273  0.2511 -0.1028  0.1393
  191SAPI    H621984   5.836   3.786   2.377 -1.8575 -0.2372 -0.1228
  191SAPI    O621985   5.724   3.743   2.221  0.2133  0.3798  0.1759
  191SAPI   HO621986   5.675   3.680   2.275  0.3626  1.3342  1.4673
  191SAPI   C1121987   5.918   3.619   2.287  0.2084 -0.2961 -0.3178
  191SAPI    H121988   5.912   3.568   2.189  0.6023 -0.4380 -0.2710
  191SAPI     P21989   5.875   3.370   2.387  0.2371 -0.2436 -0.3176
  191SAPI   O1321990   5.955   3.327   2.276 -0.1604 -0.0645 -0.2159
  191SAPI   O1421991   5.748   3.296   2.411 -0.0039  0.7892 -0.1525
  191SAPI   O1221992   5.838   3.528   2.367 -0.0579 -0.5836  0.3131
  191SAPI   O1121993   5.969   3.366   2.510 -0.0389  0.7449 -0.5548
  191SAPI    C121994   5.915   3.410   2.635  0.5655 -0.4596 -1.1372
  191SAPI    HA21995   5.860   3.506   2.631  1.6386  0.2307 -0.1076
  191SAPI    HB21996   5.840   3.337   2.673  1.2919 -0.2378  0.8281
  191SAPI    C221997   6.020   3.425   2.753 -0.2504  0.5058  0.1764
  191SAPI    HS21998   6.115   3.403   2.699 -0.7210 -1.1419 -0.0274
  191SAPI   O2121999   5.998   3.323   2.852  0.1211  0.3020 -0.1230
  191SAPI   C2122000   6.101   3.287   2.913 -0.4743 -0.0815 -0.4286
  191SAPI   O2222001   6.211   3.337   2.910 -0.4322  0.1905 -0.7644
  191SAPI   C2222002   6.073   3.165   3.001  0.6289 -0.0434  0.7798
  191SAPI   H2R22003   5.970   3.127   2.983  1.1970 -1.1610 -0.2646
  191SAPI   H2S22004   6.145   3.083   2.979 -1.0088 -1.0368 -1.3052
  191SAPI    C322005   6.038   3.570   2.814 -0.0833  0.2401 -0.5942
  191SAPI    HX22006   5.945   3.584   2.874 -0.3712  0.6511 -1.1149
  191SAPI    HY22007   6.033   3.642   2.729  2.0297  0.7800 -0.3023
  191SAPI   O3122008   6.157   3.591   2.891 -0.4737  0.5377  0.8294
  191SAPI   C3122009   6.256   3.660   2.831  0.0699 -0.1705  0.3620
  191SAPI   O3222010   6.276   3.684   2.709 -0.2383  0.2120 -0.9250
  191SAPI   C3222011   6.340   3.714   2.950 -0.0016 -0.3026  0.1076
  191SAPI   H2X22012   6.343   3.636   3.028 -1.6563  0.8119  1.3442
  191SAPI   H2Y22013   6.299   3.808   2.994 -0.9559 -1.0220  0.7807
  191SAPI   C2322014   6.088   3.200   3.153 -0.4331 -0.4516  0.1752
  191SAPI   H3R22015   6.198   3.211   3.168 -0.0063 -1.5943 -1.8148
  191SAPI   H3S22016   6.049   3.113   3.211  0.3905 -0.3886  0.8575
  191SAPI   C2422017   6.011   3.323   3.207  0.1674 -0.2913 -0.2413
  191SAPI   H4R22018   5.907   3.311   3.171  0.1755 -0.4794 -0.2053
  191SAPI   H4S22019   6.054   3.411   3.156  0.2931 -1.8260 -2.9977
  191SAPI   C2522020   6.014   3.325   3.355 -0.2333 -0.5773 -0.8073
  191SAPI   H5R22021   5.915   3.303   3.400  0.4870 -0.6877  0.8001
  191SAPI   C2622022   6.114   3.330   3.449  0.6056 -0.4436  0.1921
  191SAPI   H6R22023   6.088   3.328   3.556 -0.5469  0.0104 -0.0672
  191SAPI   C2722024   6.264   3.320   3.434  0.9324 -0.8574 -0.0817
  191SAPI   H7R22025   6.290   3.247   3.354 -0.8378 -1.4026 -0.2143
  191SAPI   H7S22026   6.309   3.266   3.520 -1.6540 -2.5880  0.3256
  191SAPI   C2822027   6.339   3.442   3.408 -0.3821 -0.7264 -0.4510
  191SAPI   H8R22028   6.321   3.493   3.312  1.3812  2.0671  0.5618
  191SAPI   C2922029   6.429   3.497   3.493  1.0605  0.5407  0.0834
  191SAPI   H9R22030   6.471   3.595   3.463  0.3494  1.7671  2.7945
  191SAPI  C21022031   6.460   3.453   3.636  1.0011 -0.5745 -0.0046
  191SAPI  H10R22032   6.376   3.384   3.661  0.6475 -0.1988 -0.1512
  191SAPI  H10S22033   6.453   3.539   3.705 -0.3392 -0.0679 -0.7436
  191SAPI  C21122034   6.588   3.389   3.659 -0.5126 -0.2163  0.1334
  191SAPI  H11R22035   6.670   3.410   3.589 -0.1145  0.8840  0.9117
  191SAPI  C21222036   6.612   3.302   3.762 -0.5891  0.1048  0.2754
  191SAPI  H12R22037   6.710   3.251   3.761 -2.0046 -2.7803 -0.7496
  191SAPI  C21322038   6.514   3.264   3.875 -0.5345  0.0268  0.3887
  191SAPI  H13R22039   6.416   3.228   3.836 -0.7867  1.1959 -0.1101
  191SAPI  H13S22040   6.499   3.352   3.941  2.5478  0.8128  0.1776
  191SAPI  C21422041   6.564   3.150   3.955  0.0016 -0.1259 -0.5769
  191SAPI  H14R22042   6.506   3.058   3.938 -4.5779  2.4690 -0.8164
  191SAPI  C21522043   6.647   3.164   4.060 -0.9996 -0.0968  0.4049
  191SAPI  H15R22044   6.674   3.073   4.116  0.0196 -0.5439 -0.7522
  191SAPI  C21622045   6.704   3.292   4.112  0.2754  0.6657 -0.9790
  191SAPI  H16R22046   6.639   3.382   4.098  0.1348  1.0351  1.5936
  191SAPI  H16S22047   6.800   3.313   4.060  0.9977 -0.8886 -0.3058
  191SAPI  C21722048   6.730   3.277   4.264  0.0634 -0.3889 -0.4640
  191SAPI  H17R22049   6.795   3.363   4.291 -1.1125  0.7249 -1.0400
  191SAPI  H17S22050   6.784   3.183   4.288  1.3867  0.3793 -0.3281
  191SAPI  C21822051   6.596   3.291   4.348  0.7550  0.6990 -0.1242
  191SAPI  H18R22052   6.524   3.361   4.300  0.1159  0.8240  0.9881
  191SAPI  H18S22053   6.602   3.332   4.452  0.2800 -2.5127  1.2740
  191SAPI  C21922054   6.513   3.162   4.375  0.3794 -0.3021 -0.7839
  191SAPI  H19R22055   6.576   3.086   4.425 -0.1311 -1.0209 -1.2087
  191SAPI  H19S22056   6.491   3.112   4.278 -2.8929  1.3889 -1.0821
  191SAPI  C22022057   6.380   3.187   4.463 -0.0596  0.2366  0.4999
  191SAPI  H20R22058   6.387   3.236   4.563  0.3869 -0.2506  0.7093
  191SAPI  H20S22059   6.328   3.091   4.477  1.7722 -0.5388  2.8231
  191SAPI  H20T22060   6.317   3.255   4.403  1.6156 -0.1783 -1.8610
  191SAPI   C3322061   6.484   3.748   2.897  0.3661 -0.5462  0.5685
  191SAPI   H3X22062   6.477   3.818   2.811 -0.3316  0.2957  1.2866
  191SAPI   H3Y22063   6.527   3.657   2.851  2.4969 -0.5444  2.3985
  191SAPI   C3422064   6.580   3.782   3.007  0.0543  0.1295  0.6352
  191SAPI   H4X22065   6.686   3.770   2.977 -0.0995  0.5838 -0.1215
  191SAPI   H4Y22066   6.561   3.723   3.099  1.4600 -1.2604  0.0755
  191SAPI   C3522067   6.575   3.931   3.042  0.1397 -0.8460 -0.0988
  191SAPI   H5X22068   6.477   3.962   3.083 -0.3307 -0.8853 -1.1649
  191SAPI   H5Y22069   6.608   3.990   2.954  1.9048  0.8424  1.5861
  191SAPI   C3622070   6.688   3.967   3.147 -0.2078 -0.2597  0.0450
  191SAPI   H6X22071   6.691   4.077   3.166 -1.0801 -0.6382  2.7923
  191SAPI   H6Y22072   6.783   3.926   3.108  0.8422  0.2632  1.9227
  191SAPI   C3722073   6.671   3.912   3.293  0.1417  0.2469 -0.6678
  191SAPI   H7X22074   6.764   3.919   3.354 -0.7169 -2.4893  1.1770
  191SAPI   H7Y22075   6.649   3.803   3.292  2.3885 -0.2656 -0.2128
  191SAPI   C3822076   6.559   3.989   3.363  0.0432  0.1383 -0.5922
  191SAPI   H8X22077   6.465   3.990   3.304  1.1798 -1.5522 -2.5439
  191SAPI   H8Y22078   6.592   4.094   3.379  2.1724 -0.7053  1.0280
  191SAPI   C3922079   6.530   3.922   3.503  1.0489  0.1219  0.9370
  191SAPI   H9X22080   6.522   3.812   3.496  1.7233  0.0716  0.8847
  191SAPI   H9Y22081   6.432   3.968   3.531  0.5412  0.4507 -1.2209
  191SAPI  C31022082   6.638   3.951   3.609  0.5092 -0.3681  0.7346
  191SAPI  H10X22083   6.670   4.057   3.602 -3.4598  1.0916  1.8514
  191SAPI  H10Y22084   6.720   3.883   3.578  0.6940  0.2876 -0.2841
  191SAPI  C31122085   6.597   3.933   3.754  0.0731  0.3014  0.5611
  191SAPI  H11X22086   6.557   3.829   3.762  0.1456  0.2875  0.7545
  191SAPI  H11Y22087   6.510   3.999   3.772 -0.9289  0.4637 -3.7995
  191SAPI  C31222088   6.712   3.930   3.856 -0.4955 -0.3831 -0.1530
  191SAPI  H12X22089   6.740   4.036   3.879 -1.5229 -0.4792  1.8210
  191SAPI  H12Y22090   6.804   3.893   3.807  0.0753  0.9482 -0.1272
  191SAPI  C31322091   6.679   3.853   3.985  0.7289  0.3905  0.1609
  191SAPI  H13X22092   6.646   3.751   3.956  0.0685  0.7055 -0.2307
  191SAPI  H13Y22093   6.595   3.908   4.033  0.4364 -0.4762  0.6640
  191SAPI  C31422094   6.803   3.840   4.072  0.4802 -0.0289 -0.0972
  191SAPI  H14X22095   6.836   3.943   4.096  1.9140 -0.2872 -0.7987
  191SAPI  H14Y22096   6.880   3.782   4.015 -0.1865 -1.6354  0.5666
  191SAPI  C31522097   6.761   3.758   4.189  0.4822  0.3346 -0.5279
  191SAPI  H15X22098   6.717   3.659   4.162 -2.3714  0.6055  2.4582
  191SAPI  H15Y22099   6.684   3.814   4.247  1.5229 -0.2264  1.4632
  191SAPI  C31622100   6.879   3.733   4.285 -0.0882  0.1660  0.5284
  191SAPI  H16X22101   6.967   3.684   4.239  0.1842  0.1981  1.0079
  191SAPI  H16Y22102   6.834   3.655   4.350 -1.0375  1.1923  1.1549
  191SAPI  C31722103   6.921   3.865   4.355 -0.1271 -0.0802  0.2843
  191SAPI  H17X22104   6.828   3.889   4.411  1.1879 -2.1550  3.6458
  191SAPI  H17Y22105   6.939   3.938   4.273 -3.1199 -1.8296 -2.1095
  191SAPI  C31822106   7.041   3.846   4.444  0.5332  0.4728  0.6155
  191SAPI  H18X22107   7.008   3.769   4.516  2.5124 -0.1827  0.8752
  191SAPI  H18Y22108   7.072   3.936   4.501 -0.3760  0.5675  0.9767
  191SAPI  H18Z22109   7.124   3.796   4.390  0.5256  0.8302  0.2640
  192SAPI   C1222110   1.788   3.033   2.876 -0.2280 -0.2391  0.0602
  192SAPI    H222111   1.884   3.024   2.932  1.8276  2.9436 -2.5965
  192SAPI    O222112   1.741   2.903   2.852 -0.1334 -0.3847  0.0111
  192SAPI   HO222113   1.727   2.861   2.938 -0.7155 -1.4272 -0.5641
  192SAPI   C1322114   1.698   3.124   2.964  0.1718 -0.2898 -0.1722
  192SAPI    H322115   1.764   3.211   2.987 -0.1726  1.2235 -4.1838
  192SAPI    O322116   1.659   3.051   3.079  0.2515 -0.2970 -0.5454
  192SAPI   HO322117   1.614   2.971   3.052  0.2666  0.5542 -3.4668
  192SAPI   C1422118   1.579   3.191   2.899  0.4047  0.0089  0.6533
  192SAPI    H422119   1.503   3.112   2.908  1.9615 -2.1639 -2.8916
  192SAPI    O422120   1.546   3.306   2.973  0.2039 -0.4060  0.2662
  192SAPI   HO422121   1.565   3.286   3.065 -1.6304 -1.4392  0.4663
  192SAPI   C1522122   1.597   3.206   2.747 -0.0523 -0.3381  0.4728
  192SAPI    H522123   1.630   3.307   2.715 -1.3335 -0.3387 -0.9953
  192SAPI    O522124   1.472   3.207   2.680 -0.1063  0.2524 -0.0388
  192SAPI   HO522125   1.482   3.271   2.609 -0.6498  1.6455  1.1043
  192SAPI   C1622126   1.709   3.122   2.667  0.4620  0.6797  0.3953
  192SAPI    H622127   1.668   3.024   2.636  2.2361 -0.3991  1.2882
  192SAPI    O622128   1.741   3.183   2.546 -0.2477 -0.7189 -0.0534
  192SAPI   HO622129   1.828   3.155   2.518  0.0974  0.2480  0.0121
  192SAPI   C1122130   1.830   3.103   2.755  0.5218  0.0598 -0.8177
  192SAPI    H122131   1.873   3.200   2.789  1.5464 -1.0069  1.1052
  192SAPI     P22132   2.086   3.082   2.676  0.1186 -0.1499 -0.3066
  192SAPI   O1322133   2.078   3.226   2.637  0.0079  0.2351  0.6294
  192SAPI   O1422134   2.158   2.991   2.586  0.3144  0.2219 -0.3332
  192SAPI   O1222135   1.928   3.024   2.686 -0.5397 -0.6187  0.3071
  192SAPI   O1122136   2.137   3.069   2.823  0.8016 -0.9619 -0.0737
  192SAPI    C122137   2.144   2.933   2.872  0.1876  0.2783 -0.5824
  192SAPI    HA22138   2.044   2.886   2.864  0.8536 -1.9576  2.6209
  192SAPI    HB22139   2.201   2.858   2.813 -1.2842 -0.3014 -1.3139
  192SAPI    C222140   2.190   2.938   3.021 -0.1582  0.5772  0.5120
  192SAPI    HS22141   2.227   2.835   3.042 -3.1130 -0.3326  1.8414
  192SAPI   O2122142   2.083   2.976   3.107 -0.1952  0.1866  0.0249
  192SAPI   C2122143   2.076   2.927   3.223  0.5644 -0.3437  0.2135
  192SAPI   O2222144   2.151   2.855   3.287  0.1167  0.4133 -0.0581
  192SAPI   C2222145   1.946   2.980   3.279  0.5603  0.0778  0.5881
  192SAPI   H2R22146   1.863   2.944   3.214  0.0544  1.1212  0.6449
  192SAPI   H2S22147   1.925   2.928   3.375 -1.8616 -0.9355 -0.3875
  192SAPI    C322148   2.305   3.039   3.043 -0.2089 -0.6537  0.0482
  192SAPI    HX22149   2.280   3.139   3.002 -0.5111 -0.6363  0.2725
  192SAPI    HY22150   2.386   3.017   2.970  0.8809  1.7190  0.4449
  192SAPI   O3122151   2.355   3.053   3.180  0.1861  0.4562 -0.0508
  192SAPI   C3122152   2.435   2.950   3.207  0.4080 -0.2167 -0.3013
  192SAPI   O3222153   2.459   2.864   3.128  0.0303  0.1488 -0.0272
  192SAPI   C3222154   2.512   2.972   3.336  0.2622 -0.1694  0.2526
  192SAPI   H2X22155   2.531   3.081   3.345 -0.7464 -0.0505  1.1286
  192SAPI   H2Y22156   2.602   2.908   3.328 -1.5273 -2.8850  0.2944
  192SAPI   C2322157   1.942   3.133   3.301 -0.2794 -0.2989 -0.3556
  192SAPI   H3R22158   1.842   3.162   3.341 -0.1503  1.0521 -0.9494
  192SAPI   H3S22159   1.956   3.179   3.201  0.8900  1.4794  0.5717
  192SAPI   C2422160   2.057   3.174   3.393  0.2401  0.2311  1.0556
  192SAPI   H4R22161   2.154   3.119   3.389  0.2395  0.3027 -0.5723
  192SAPI   H4S22162   2.025   3.156   3.498 -0.0993  3.0934  1.5330
  192SAPI   C2522163   2.102   3.319   3.382 -0.8046 -0.6002 -0.2586
  192SAPI   H5R22164   2.111   3.368   3.284  0.0420  2.3517  1.1678
  192SAPI   C2622165   2.125   3.402   3.483  0.3501 -0.4319  0.3529
  192SAPI   H6R22166   2.142   3.508   3.461  0.7898 -0.4626  0.5427
  192SAPI   C2722167   2.116   3.370   3.631 -0.4538  0.6261  0.4020
  192SAPI   H7R22168   2.191   3.433   3.683  0.6623  0.2370 -0.7056
  192SAPI   H7S22169   2.138   3.266   3.664  1.8104  0.3308 -1.7568
  192SAPI   C2822170   1.971   3.387   3.677  0.1170 -0.2636 -0.6224
  192SAPI   H8R22171   1.900   3.391   3.593  0.9918  2.6232 -1.3364
  192SAPI   C2922172   1.927   3.389   3.803  0.5321 -0.5502 -0.2574
  192SAPI   H9R22173   1.819   3.373   3.819  0.3190  0.1552 -0.9286
  192SAPI  C21022174   2.012   3.411   3.926  0.0779 -0.1297  1.3790
  192SAPI  H10R22175   1.981   3.512   3.961 -0.0454  0.1535  0.4597
  192SAPI  H10S22176   2.123   3.416   3.913 -0.0417  1.9216  0.8315
  192SAPI  C21122177   1.981   3.304   4.031  0.0059  0.0290  0.1966
  192SAPI  H11R22178   2.025   3.207   4.002  0.5991  0.6583 -1.0808
  192SAPI  C21222179   1.925   3.303   4.151 -0.0137  0.1025  0.0552
  192SAPI  H12R22180   1.912   3.205   4.200 -1.3274 -0.8592 -2.0558
  192SAPI  C21322181   1.880   3.422   4.228  0.1555 -0.4745  0.1136
  192SAPI  H13R22182   1.788   3.465   4.183 -0.6896 -3.3606 -1.1715
  192SAPI  H13S22183   1.959   3.500   4.214  1.5545 -2.1567 -2.0809
  192SAPI  C21422184   1.841   3.397   4.369 -0.0092 -0.1824 -0.3010
  192SAPI  H14R22185   1.737   3.376   4.398  0.5543  1.2976  3.3067
  192SAPI  C21522186   1.928   3.409   4.474  0.0662  0.0972  0.3685
  192SAPI  H15R22187   1.891   3.399   4.577 -0.2362  1.1196  0.3732
  192SAPI  C21622188   2.072   3.442   4.459 -0.5707  0.0011  0.2021
  192SAPI  H16R22189   2.106   3.431   4.354  0.0157 -0.5225  0.4353
  192SAPI  H16S22190   2.131   3.374   4.524 -0.4331  0.7130  0.8399
  192SAPI  C21722191   2.111   3.568   4.520  0.1421 -0.1707 -0.1194
  192SAPI  H17R22192   2.221   3.560   4.534  0.2028 -0.1706 -0.5798
  192SAPI  H17S22193   2.067   3.571   4.622 -1.5404 -0.8733 -0.7846
  192SAPI  C21822194   2.078   3.694   4.433  0.1087 -0.1075  0.5434
  192SAPI  H18R22195   1.971   3.719   4.448  0.2057 -0.8219  2.8174
  192SAPI  H18S22196   2.107   3.680   4.327  0.6511 -0.6641  0.7637
  192SAPI  C21922197   2.144   3.810   4.504 -0.2006 -0.6172 -0.2827
  192SAPI  H19R22198   2.252   3.810   4.478  0.8813 -0.4383  3.5860
  192SAPI  H19S22199   2.136   3.796   4.614 -1.2964  2.8342  0.2024
  192SAPI  C22022200   2.093   3.949   4.453 -0.3357  0.2796  0.3117
  192SAPI  H20R22201   2.112   3.965   4.344 -0.8170  0.8748  0.3148
  192SAPI  H20S22202   2.157   4.028   4.497 -0.5927 -0.4480  2.0732
  192SAPI  H20T22203   1.989   3.970   4.484 -0.4564 -1.4710  1.2282
  192SAPI   C3322204   2.438   2.929   3.470  0.5339  0.8999 -0.0794
  192SAPI   H3X22205   2.339   2.980   3.465  1.6145  3.1249 -0.1549
  192SAPI   H3Y22206   2.496   2.987   3.545  1.6763  2.6496 -2.2023
  192SAPI   C3422207   2.416   2.781   3.484 -0.1494 -0.0051 -0.4089
  192SAPI   H4X22208   2.520   2.745   3.470 -0.7619 -1.6687 -0.9915
  192SAPI   H4Y22209   2.353   2.734   3.405 -0.2010 -0.0228 -0.3573
  192SAPI   C3522210   2.356   2.736   3.619 -0.1044  0.9815  0.5190
  192SAPI   H5X22211   2.336   2.627   3.615  0.9945  0.7494  1.0415
  192SAPI   H5Y22212   2.256   2.780   3.639 -1.3973 -2.2464  1.8842
  192SAPI   C3622213   2.454   2.758   3.737  0.2342 -0.4243  0.2041
  192SAPI   H6X22214   2.477   2.867   3.733  2.7354 -0.9283 -1.4925
  192SAPI   H6Y22215   2.546   2.697   3.721 -0.7987 -2.2870  1.0396
  192SAPI   C3722216   2.392   2.715   3.866 -0.0915 -0.3831 -0.2806
  192SAPI   H7X22217   2.350   2.613   3.861 -1.1299 -0.0191  0.6541
  192SAPI   H7Y22218   2.309   2.787   3.880  1.6640  1.3824  1.9404
  192SAPI   C3822219   2.494   2.716   3.982  0.0720  0.0517 -0.6713
  192SAPI   H8X22220   2.541   2.816   3.977 -0.2947  0.1670 -3.3076
  192SAPI   H8Y22221   2.577   2.642   3.973 -0.8767 -0.8335 -3.0763
  192SAPI   C3922222   2.429   2.689   4.116 -0.3963  0.1275 -0.5871
  192SAPI   H9X22223   2.399   2.582   4.114 -0.9029  0.2674 -1.0217
  192SAPI   H9Y22224   2.341   2.756   4.120 -1.3312 -1.0299 -0.9481
  192SAPI  C31022225   2.516   2.717   4.235  0.3358  0.2271 -0.1000
  192SAPI  H10X22226   2.622   2.684   4.227  0.5327  0.6277  0.7777
  192SAPI  H10Y22227   2.479   2.661   4.323  1.3674 -2.2180 -1.1351
  192SAPI  C31122228   2.531   2.869   4.255 -0.3965 -0.1986  0.0996
  192SAPI  H11X22229   2.438   2.898   4.308 -1.6475 -0.1241 -2.0248
  192SAPI  H11Y22230   2.539   2.911   4.152  0.9551 -4.5120 -1.7961
  192SAPI  C31222231   2.635   2.913   4.350 -0.7615 -0.9217  0.7459
  192SAPI  H12X22232   2.628   3.023   4.357 -1.8204 -1.0133  1.2403
  192SAPI  H12Y22233   2.738   2.900   4.309 -1.0436 -0.6265 -0.0729
  192SAPI  C31322234   2.637   2.844   4.491  0.6460  0.4432 -0.3511
  192SAPI  H13X22235   2.649   2.734   4.482 -1.3462  0.0633  0.9216
  192SAPI  H13Y22236   2.537   2.858   4.537  1.2067 -1.4810  1.6296
  192SAPI  C31422237   2.742   2.896   4.589 -0.5935 -0.7225 -0.5903
  192SAPI  H14X22238   2.702   2.998   4.611 -3.1465 -1.5472 -1.1066
  192SAPI  H14Y22239   2.847   2.897   4.552 -0.5279  0.2000 -0.4236
  192SAPI  C31522240   2.749   2.811   4.715 -0.4221 -0.1368  0.8386
  192SAPI  H15X22241   2.839   2.844   4.770  1.0211 -1.4717 -0.6200
  192SAPI  H15Y22242   2.771   2.706   4.688  3.2006  0.6628  0.2680
  192SAPI  C31622243   2.623   2.826   4.804 -0.2668  0.0214  0.4760
  192SAPI  H16X22244   2.545   2.750   4.782 -0.7152 -0.1773  2.4856
  192SAPI  H16Y22245   2.568   2.921   4.792  1.4164  1.0285  0.4130
  192SAPI  C31722246   2.674   2.824   4.948  0.3929  0.2635 -0.5487
  192SAPI  H17X22247   2.600   2.849   5.028 -0.3963 -2.3215 -0.3745
  192SAPI  H17Y22248   2.743   2.911   4.958  1.5183 -0.2301 -3.3122
  192SAPI  C31822249   2.734   2.689   4.999 -0.6295 -0.1284 -0.2190
  192SAPI  H18X22250   2.826   2.669   4.940 -1.1873 -1.5682 -0.6395
  192SAPI  H18Y22251   2.655   2.612   4.984 -1.1564  0.3605 -0.0399
  192SAPI  H18Z22252   2.761   2.685   5.107  1.9490 -0.9803 -0.8491
  193SOD    SOD22253   0.517   2.945   7.905  0.2664  0.2247 -0.1678
  194SOD    SOD22254   6.507   5.178   2.017 -0.3719 -0.1832 -0.0349
  195SOD    SOD22255   4.928   2.440   7.565  0.3652  0.4949  0.1403
  196SOD    SOD22256   5.889   0.942   1.982 -0.3046  0.3623 -0.1099
  197SOD    SOD22257   5.396   4.420   0.271 -0.1534 -0.7977 -0.1438
  198SOD    SOD22258   0.333   1.259   7.484 -0.2887  0.2213 -0.2621
  199SOD    SOD22259   2.073   0.944   0.812 -0.0451 -0.1606 -0.4117
  200SOD    SOD22260   5.439   2.202   1.922 -0.3500  0.3263 -0.2981
  201SOD    SOD22261   5.664   5.008   7.532 -0.0401 -0.0731 -0.5933
  202SOD    SOD22262   5.146   1.222   7.512 -0.0757  0.1107  0.2538
  203SOD    SOD22263   4.566   3.790   7.201 -0.2543 -0.0864 -0.1474
  204SOD    SOD22264   2.134   0.910   7.498 -0.0572  0.0134 -0.6463
  205SOD    SOD22265   3.677   3.774   7.924  0.2956 -0.2916 -0.3381
  206SOD    SOD22266   5.044   0.095   0.546  0.0041 -0.4316 -0.0621
  207SOD    SOD22267   5.180   0.572   7.553 -0.4210 -0.2827 -0.1163
  208SOD    SOD22268   1.585   3.812   0.747 -0.0039  0.1422 -0.4227
  209SOD    SOD22269   2.870   2.087   1.627 -0.3849 -0.3629  0.0833
  210SOD    SOD22270   0.014   6.288   0.469 -0.4624 -0.1633  0.0268
  211SOD    SOD22271   1.194   5.605   1.031 -0.0286  0.1779  0.2091
  212SOD    SOD22272   4.159   3.249   1.962  0.4533 -0.1783 -0.1252
  213SOD    SOD22273   0.855   0.519   8.217  0.2005 -0.1152  0.5048
  214SOD    SOD22274   2.518   3.970   1.439  0.1579  0.0652 -0.2863
  215SOD    SOD22275   6.407   0.762   1.386  0.6683  0.0267  0.6475
  216SOD    SOD22276   1.964   5.866   0.377  0.0557 -0.2467 -0.1449
  217SOD    SOD22277   3.208   1.980   7.121  0.1366 -0.0816  0.0742
  218SOD    SOD22278   3.144   6.192   2.241 -0.2952 -0.4700 -0.2084
  219SOD    SOD22279   5.904   3.836   1.575  0.3313  0.0962 -0.0858
  220SOD    SOD22280   6.289   3.767   2.502 -0.5732  0.0206 -0.1330
  221SOD    SOD22281   5.893   1.942   6.874 -0.4793 -0.3103  0.3555
  222SOD    SOD22282   5.468   2.133   7.891 -0.5502  0.3950 -0.3382
  223SOD    SOD22283   5.069   6.597   2.564 -0.7213  0.1486 -0.1639
  224SOD    SOD22284   5.878   5.380   9.063 -0.2622 -0.3168  0.1937
  225SOD    SOD22285   0.989   1.066   0.210 -0.2005  0.4046  0.2563
  226SOD    SOD22286   0.821   5.764   8.994  0.0088 -0.3077 -0.1151
  227SOD    SOD22287   0.330   4.444   7.560 -0.6605 -0.4401  0.2621
  228SOD    SOD22288   2.101   4.831   1.800 -0.5840 -0.2411  0.3291
  229SOD    SOD22289   1.568   2.749   7.568  0.2825 -0.1064  0.3749
  230SOD    SOD22290   0.698   3.867   7.609 -0.3709  0.0574 -0.4689
  231SOD    SOD22291   1.814   5.423   7.993 -0.0159 -0.3285 -0.3252
  232SOD    SOD22292   4.394   6.316   8.565  0.1968  0.3055 -0.2159
  233SOD    SOD22293   3.179   3.184   2.055  0.0329  0.7528 -0.3787
  234CLA    CLA22294   5.301   6.254   1.064 -0.1181 -0.1046  0.6214
  235CLA    CLA22295   0.627   5.691   8.531  0.2156 -0.1046  0.0690
  236CLA    CLA22296   2.562   4.667   0.162 -0.1759 -0.4048  0.4237
  237CLA    CLA22297   5.627   1.583   1.304 -0.2063  0.0756 -0.1495
  238CLA    CLA22298   2.549   0.575   7.778 -0.1392  0.0694  0.0671
  239CLA    CLA22299   3.648   3.492   8.268 -0.0529  0.0483  0.1337
  240CLA    CLA22300   6.114   3.382   1.465 -0.2309 -0.0530 -0.0225
  241CLA    CLA22301   1.184   0.672   0.094  0.8326 -0.0521  0.0048
  242CLA    CLA22302   5.993   3.636   0.318 -0.5073 -0.1425 -0.3620
  243CLA    CLA22303   1.756   0.016   0.212  0.1890  0.0162  0.2326
  244CLA    CLA22304   6.107   1.536   8.917  0.4949 -0.0030  0.2108
  245CLA    CLA22305   6.343   1.352   7.685 -0.0873 -0.4526  0.2593
  246CLA    CLA22306   5.612   5.280   8.511  0.3673  0.0923 -0.1518
  247CLA    CLA22307   1.723   5.801   0.300  0.0685 -0.0860  0.6682
  248CLA    CLA22308   5.537   6.622   0.240 -0.3346  0.1152 -0.4012
  249CLA    CLA22309   1.053   5.629   8.910  0.2341  0.5527  0.0952
  250CLA    CLA22310   5.506   6.522   8.407  0.1542 -0.0820 -0.1956
  251TIP3   OH222311   2.408   4.949   1.499 -0.2250  0.1263  0.0054
  251TIP3    H122312   2.431   4.949   1.406  2.3564 -1.8527  0.5226
  251TIP3    H222313   2.453   5.027   1.534 -0.4833  0.3925 -0.2484
  252TIP3   OH222314   6.462   0.413   7.170 -0.6055 -0.2826 -0.1273
  252TIP3    H122315   6.500   0.356   7.103  0.6516 -2.4529  2.2813
  252TIP3    H222316   6.528   0.482   7.183  1.7181 -2.7555  2.4041
  253TIP3   OH222317   6.026   4.511   7.099  0.2734  0.3310  0.1790
  253TIP3    H122318   6.018   4.453   7.023  0.9619  1.1265 -0.5167
  253TIP3    H222319   6.116   4.498   7.130  0.5832  1.3373 -0.2561
  254TIP3   OH222320   5.963   6.458   8.674 -0.7803  0.1431 -0.1950
  254TIP3    H122321   6.014   6.446   8.595 -0.2138  4.2886 -0.6944
  254TIP3    H222322   5.872   6.458   8.644 -0.5766  1.5332 -0.9198
  255TIP3   OH222323   3.298   5.290   8.011 -0.1705  0.0263  0.2290
  255TIP3    H122324   3.215   5.254   7.980 -0.9620 -0.1647  2.3761
  255TIP3    H222325   3.294   5.281   8.107  2.0072  0.7115  0.4493
  256TIP3   OH222326   0.246   3.330   2.064 -0.0511 -0.3254 -0.2375
  256TIP3    H122327   0.296   3.343   1.983 -0.2779  0.4021 -0.2648
  256TIP3    H222328   0.312   3.310   2.130  0.0957 -1.4036 -0.6943
  257TIP3   OH222329   4.313   1.635   7.985  0.2089  0.6240 -0.9546
  257TIP3    H122330   4.327   1.544   8.012 -0.6225  0.4185 -1.2065
  257TIP3    H222331   4.379   1.685   8.034 -0.5621  0.1264  0.6552
  258TIP3   OH222332   3.676   1.150   0.254  0.1805 -0.0351 -0.1115
  258TIP3    H122333   3.585   1.177   0.269  0.4895  1.1652 -0.3316
  258TIP3    H222334   3.723   1.232   0.236  1.6075 -0.4546  1.4723
  259TIP3   OH222335   5.096   0.872   0.850 -0.0467  0.1090 -0.0190
  259TIP3    H122336   5.168   0.891   0.789 -0.0002  0.6920  0.2085
  259TIP3    H222337   5.132   0.808   0.911 -0.0402 -0.3562 -0.5038
  260TIP3   OH222338   6.219   4.174   7.873 -0.4662 -0.2085 -0.4055
  260TIP3    H122339   6.254   4.093   7.910 -1.7137 -0.1855  0.8908
  260TIP3    H222340   6.179   4.148   7.790  0.2287 -0.6857 -0.5980
  261TIP3   OH222341   6.249   2.888   6.739 -0.4579 -0.0535  0.1112
  261TIP3    H122342   6.319   2.864   6.799 -0.7310 -1.1067  0.0282
  261TIP3    H222343   6.287   2.874   6.652 -0.1768  1.1401  0.0171
  262TIP3   OH222344   6.375   2.736   1.685  0.4798  0.0207 -0.5940
  262TIP3    H122345   6.406   2.672   1.750  0.9416  1.6554  0.8551
  262TIP3    H222346   6.286   2.756   1.712  0.1448 -0.3836 -1.3662
  263TIP3   OH222347   1.186   4.629   1.763  0.0267  0.9523 -0.3978
  263TIP3    H122348   1.217   4.709   1.804 -0.6305  0.1539  1.8056
  263TIP3    H222349   1.105   4.607   1.810 -0.8814  0.0184 -2.2496
  264TIP3   OH222350   5.991   6.137   7.484  0.3649 -0.0289 -0.7151
  264TIP3    H122351   5.914   6.109   7.435 -0.7790  0.5954  0.6490
  264TIP3    H222352   6.036   6.197   7.426  0.0899 -0.7586 -1.7182
  265TIP3   OH222353   3.793   0.051   7.098  0.1333  0.2064 -0.7291
  265TIP3    H122354   3.808   0.026   7.189 -1.2121 -0.4500 -0.6602
  265TIP3    H222355   3.880   0.074   7.065  1.1823 -2.5039 -0.1589
  266TIP3   OH222356   1.456   4.002   0.254  0.3773  0.0391 -0.1186
  266TIP3    H122357   1.534   3.971   0.298 -0.4864  0.0635  1.5074
  266TIP3    H222358   1.487   4.073   0.197  1.7992 -1.2669 -1.0501
  267TIP3   OH222359   4.194   4.260   8.459  0.0132  0.1066 -0.7625
  267TIP3    H122360   4.217   4.304   8.540 -0.4012  1.6557 -1.4447
  267TIP3    H222361   4.228   4.171   8.468  1.1547  0.6596  0.5374
  268TIP3   OH222362   2.937   4.886   0.749 -0.2419 -0.1077 -0.6279
  268TIP3    H122363   2.910   4.964   0.701 -1.2820 -0.3438 -0.4474
  268TIP3    H222364   2.939   4.912   0.841  0.4880 -0.0048 -0.6664
  269TIP3   OH222365   3.794   3.115   0.386  0.3119 -0.3842 -0.0679
  269TIP3    H122366   3.857   3.102   0.315 -0.4219 -1.5486 -0.5348
  269TIP3    H222367   3.733   3.041   0.378 -2.2950  1.7147 -0.8761
  270TIP3   OH222368   2.894   1.043   7.636  0.1681 -0.6474 -0.1609
  270TIP3    H122369   2.934   1.115   7.589 -1.6048  0.6695  0.2643
  270TIP3    H222370   2.944   1.038   7.718  0.3320  0.0550 -0.2133
  271TIP3   OH222371   4.269   2.175   8.872  0.0676 -0.1795  0.4924
  271TIP3    H122372   4.206   2.106   8.895 -1.2633  0.3979 -1.2732
  271TIP3    H222373   4.228   2.256   8.900 -0.2777  0.2573 -1.1889
  272TIP3   OH222374   3.298   1.731   1.757 -0.4854 -0.2514 -0.1205
  272TIP3    H122375   3.353   1.782   1.698 -0.6220  1.8938  1.4946
  272TIP3    H222376   3.352   1.717   1.835 -1.5207  0.1744  0.7022
  273TIP3   OH222377   1.470   3.339   0.808 -0.1306 -0.6602  0.3701
  273TIP3    H122378   1.397   3.277   0.802 -0.9663  0.4381 -1.5142
  273TIP3    H222379   1.536   3.304   0.748 -0.0899 -0.3670  0.2463
  274TIP3   OH222380   2.297   5.444   9.203  0.1262 -0.1769 -0.2267
  274TIP3    H122381   2.297   5.537   9.179 -0.1077  0.1673  1.0351
  274TIP3    H222382   2.210   5.413   9.180 -0.7400  0.6125  1.7893
  275TIP3   OH222383   1.879   1.296   2.948  0.2908 -0.0120  1.0041
  275TIP3    H122384   1.899   1.354   3.021 -1.0299  0.6683  0.8575
  275TIP3    H222385   1.959   1.297   2.894  0.0758  2.2899  0.6179
  276TIP3   OH222386   3.509   5.193   7.601  1.0164  0.0953 -0.3360
  276TIP3    H122387   3.423   5.232   7.586  1.1534  0.8698  0.7361
  276TIP3    H222388   3.546   5.245   7.672  1.6915 -1.2608  0.3402
  277TIP3   OH222389   4.407   2.444   8.478 -0.5904 -0.2610 -0.6153
  277TIP3    H122390   4.336   2.415   8.421 -1.8034  1.1251  0.1324
  277TIP3    H222391   4.408   2.380   8.550 -0.4685 -0.7983 -1.0891
  278TIP3   OH222392   0.053   1.213   0.824  0.1640 -0.3513  0.4322
  278TIP3    H122393  -0.038   1.183   0.829 -0.2243  1.0019  2.2671
  278TIP3    H222394   0.081   1.222   0.915  1.5883  0.9222 -0.0847
  279TIP3   OH222395   6.075   2.451   8.110  0.1379 -0.3729  0.0941
  279TIP3    H122396   6.020   2.474   8.185  0.1423 -0.5100  0.1406
  279TIP3    H222397   6.108   2.363   8.131 -1.7929 -1.4670 -1.1714
  280TIP3   OH222398   2.567   5.208   7.361 -0.7548  0.1980  0.2533
  280TIP3    H122399   2.608   5.153   7.294 -2.7818 -0.3139 -0.6418
  280TIP3    H222400   2.585   5.298   7.335  2.2487  0.0689  1.5066
  281TIP3   OH222401   1.408   2.529   2.058  0.2973  0.3256 -0.2807
  281TIP3    H122402   1.440   2.472   1.989 -1.1084 -0.1838 -0.5450
  281TIP3    H222403   1.482   2.588   2.077  0.7977  0.3114 -2.0205
  282TIP3   OH222404   1.528   1.846   0.157  0.6051  0.3386  0.3564
  282TIP3    H122405   1.610   1.856   0.206  0.8511  1.1469 -0.2174
  282TIP3    H222406   1.460   1.851   0.224  0.9917  0.1971  0.7696
  283TIP3   OH222407   1.511   2.789   8.930 -0.2085  0.5392  0.3212
  283TIP3    H122408   1.553   2.704   8.943 -0.8593  0.0109 -0.8099
  283TIP3    H222409   1.489   2.790   8.836 -2.8421  0.7086  0.8643
  284TIP3   OH222410   1.969   4.210   8.827  0.1030 -0.0538 -1.0730
  284TIP3    H122411   1.886   4.199   8.873 -0.2950 -2.3133 -2.1850
  284TIP3    H222412   1.988   4.304   8.834 -0.1561 -0.1307  3.1131
  285TIP3   OH222413   5.066   1.605   6.664  0.0103  0.1333 -0.2875
  285TIP3    H122414   5.101   1.542   6.601  1.4174 -0.3496  0.9234
  285TIP3    H222415   5.047   1.552   6.742  1.6850  1.2439  0.9277
  286TIP3   OH222416   6.475   4.771   0.889 -0.1220 -0.0794 -0.0992
  286TIP3    H122417   6.506   4.710   0.821 -1.6033 -2.6072  1.3371
  286TIP3    H222418   6.478   4.720   0.969 -0.6897  2.0697  1.3634
  287TIP3   OH222419   5.995   0.142   2.570 -0.1110  0.2939 -0.1899
  287TIP3    H122420   5.956   0.084   2.504  0.7127  0.5877 -0.9624
  287TIP3    H222421   5.992   0.092   2.651  0.0822 -0.6189 -0.7309
  288TIP3   OH222422   3.738   5.030   0.034  0.0279 -0.2834  0.1716
  288TIP3    H122423   3.807   5.085   0.072  0.5993 -0.7693 -0.1519
  288TIP3    H222424   3.763   5.020  -0.058 -0.3068 -0.7164  0.1271
  289TIP3   OH222425   5.213   3.554   8.032 -0.6264 -0.6254 -0.1202
  289TIP3    H122426   5.264   3.481   7.998  0.3279 -0.1037  0.1791
  289TIP3    H222427   5.187   3.527   8.120  0.4926 -0.2428  0.3358
  290TIP3   OH222428   1.830   1.719   7.796 -0.4400  0.1079  0.4791
  290TIP3    H122429   1.741   1.736   7.827  0.1603 -0.5701  2.7084
  290TIP3    H222430   1.819   1.690   7.705 -2.5388 -0.6201  0.9234
  291TIP3   OH222431   1.848   5.964   1.359 -0.2733 -1.1012  0.0615
  291TIP3    H122432   1.813   6.031   1.299  1.6738  0.4683  0.5850
  291TIP3    H222433   1.829   5.999   1.446  1.6714 -0.6598  0.3478
  292TIP3   OH222434   2.847   2.446   7.879  0.0914  0.3549  0.6042
  292TIP3    H122435   2.851   2.516   7.814  1.3778 -0.1225  0.1394
  292TIP3    H222436   2.875   2.368   7.832  0.2871 -0.1501  1.5321
  293TIP3   OH222437   3.357   2.222   2.051  0.1995  0.3821  0.1516
  293TIP3    H122438   3.444   2.227   2.011  0.2114  0.6919  0.2142
  293TIP3    H222439   3.330   2.313   2.061  0.0571  0.2976  0.5521
  294TIP3   OH222440   4.432   3.077   0.356 -0.0767 -0.0883  0.7364
  294TIP3    H122441   4.449   3.011   0.423  0.8667  0.3082  0.8934
  294TIP3    H222442   4.385   3.146   0.402 -1.8308 -0.9883  0.3936
  295TIP3   OH222443   3.981   3.372   8.546  0.0780 -0.2669 -0.0296
  295TIP3    H122444   3.910   3.435   8.531  0.2832 -0.7358 -4.3921
  295TIP3    H222445   4.060   3.425   8.550 -0.0670 -0.0259 -0.3182
  296TIP3   OH222446   2.052   0.214   7.150  0.1565 -0.4085 -0.1787
  296TIP3    H122447   2.042   0.281   7.083 -0.3688 -0.2849  0.0143
  296TIP3    H222448   1.968   0.214   7.196  0.6451 -0.2134  0.7382
  297TIP3   OH222449   3.249   4.784   8.738 -0.2342 -0.5324 -0.3415
  297TIP3    H122450   3.209   4.870   8.750 -0.0140 -0.6838  1.9529
  297TIP3    H222451   3.194   4.740   8.674 -0.7104  1.0753 -1.0893
  298TIP3   OH222452   6.259   1.909   7.705 -0.3491  0.2376  0.1497
  298TIP3    H122453   6.332   1.861   7.666  0.2756  0.7395  0.6639
  298TIP3    H222454   6.301   1.978   7.756 -1.2046  2.0269 -1.4270
  299TIP3   OH222455   4.962   4.023   0.710 -0.5121  0.1724  0.2493
  299TIP3    H122456   5.053   4.040   0.686 -0.3933 -0.2415  0.3989
  299TIP3    H222457   4.967   3.961   0.783 -0.9596 -2.4341 -1.7870
  300TIP3   OH222458   0.206   1.407   6.693  0.6701 -0.1603 -0.4374
  300TIP3    H122459   0.157   1.357   6.628  2.2209 -1.1027 -0.9403
  300TIP3    H222460   0.153   1.403   6.772 -1.1701  0.8384 -1.5418
  301TIP3   OH222461   3.191   2.431   1.495 -0.5108  0.0006 -0.9190
  301TIP3    H122462   3.278   2.396   1.512 -0.7668 -0.3523 -0.2980
  301TIP3    H222463   3.206   2.520   1.464 -0.0393  1.8047  3.7119
  302TIP3   OH222464   3.958   0.842   9.091 -0.4070 -0.5735  0.0990
  302TIP3    H122465   3.993   0.905   9.029  1.1130 -2.5285 -1.1433
  302TIP3    H222466   3.880   0.806   9.048  0.1720 -1.3313 -0.3334
  303TIP3   OH222467   3.682   4.852   8.594 -0.1081  0.3695  0.1777
  303TIP3    H122468   3.750   4.786   8.580  0.6502  1.0434  0.5936
  303TIP3    H222469   3.605   4.816   8.551  1.0367  0.5179 -2.1915
  304TIP3   OH222470   4.969   4.433   8.059  0.4111  0.3105 -0.3286
  304TIP3    H122471   4.976   4.377   8.136  1.2478 -0.0120 -0.6312
  304TIP3    H222472   4.969   4.373   7.985 -0.0567  0.6385 -0.5992
  305TIP3   OH222473   4.861   0.355   8.734 -0.3615  0.2537 -0.4939
  305TIP3    H122474   4.843   0.384   8.645 -0.2914 -0.0163 -0.5983
  305TIP3    H222475   4.777   0.363   8.779 -0.3798  0.4595 -0.5650
  306TIP3   OH222476   2.495   0.681   1.377  0.7744  0.7603 -0.7328
  306TIP3    H122477   2.466   0.771   1.390 -0.6334  0.2785 -0.3532
  306TIP3    H222478   2.545   0.660   1.456  0.0066  0.8045 -0.2219
  307TIP3   OH222479   5.011   3.064   7.078  0.0818  0.1881 -0.1333
  307TIP3    H122480   5.068   3.001   7.124  0.7762  0.9457  0.0731
  307TIP3    H222481   5.062   3.146   7.078 -0.6709  0.6610 -0.6835
  308TIP3   OH222482   5.060   2.548   1.300 -0.1123  0.7529  0.5019
  308TIP3    H122483   4.967   2.523   1.304  0.2462 -1.3202 -1.5800
  308TIP3    H222484   5.074   2.571   1.209  1.6695 -0.1187  0.5244
  309TIP3   OH222485   0.648   6.497   8.137 -0.3211 -0.2171 -0.7238
  309TIP3    H122486   0.668   6.417   8.089 -0.5970 -0.7342 -0.0021
  309TIP3    H222487   0.590   6.468   8.208  0.3734  0.4601  0.1367
  310TIP3   OH222488   0.528   1.219   2.007  0.0286  0.3521 -1.0564
  310TIP3    H122489   0.621   1.202   2.022 -0.3691  0.9537  3.6664
  310TIP3    H222490   0.489   1.132   1.999  0.6528 -0.1506  0.7732
  311TIP3   OH222491   5.602   1.114   1.086  0.7584 -0.8378 -0.3033
  311TIP3    H122492   5.559   1.083   1.007  0.3948 -1.6633  0.2152
  311TIP3    H222493   5.584   1.047   1.152 -0.4734  0.6719  0.9873
  312TIP3   OH222494   3.559   6.062   2.525  0.5244  0.5577 -0.1538
  312TIP3    H122495   3.652   6.057   2.547  0.1865  0.1944  1.3243
  312TIP3    H222496   3.531   6.148   2.557 -0.1447 -0.2787  1.6386
  313TIP3   OH222497   1.779   2.040   7.486  0.0318 -0.0544 -0.4065
  313TIP3    H122498   1.753   2.079   7.402 -0.6214 -3.1564 -1.7839
  313TIP3    H222499   1.714   2.072   7.549  0.1631  1.8337 -1.1680
  314TIP3   OH222500   1.471   3.403   2.464 -0.1136  0.0888  0.8094
  314TIP3    H122501   1.530   3.457   2.516  0.0400  0.7871 -0.0665
  314TIP3    H222502   1.428   3.464   2.404 -0.3063 -0.6879  0.1342
  315TIP3   OH222503   0.023   1.093   7.832  0.3313  0.5953  0.6187
  315TIP3    H122504  -0.011   1.177   7.860  0.4240  0.9130 -0.1943
  315TIP3    H222505   0.108   1.085   7.875  0.5093  1.1080  0.3646
  316TIP3   OH222506   3.493   4.890   7.141  0.0615  0.4511  0.0338
  316TIP3    H122507   3.544   4.813   7.118  0.9126  0.2398  2.4026
  316TIP3    H222508   3.508   4.951   7.068  0.4051 -1.0888 -1.2531
  317TIP3   OH222509   0.964   3.595   9.223 -0.3796 -0.0315  0.0491
  317TIP3    H122510   0.954   3.501   9.236  0.2743 -0.0806  0.2147
  317TIP3    H222511   0.931   3.633   9.305  1.0372 -0.2097  0.7294
  318TIP3   OH222512   4.170   6.170   0.593 -0.1083  0.1371 -0.1272
  318TIP3    H122513   4.179   6.076   0.575 -0.8038 -0.7010  3.2147
  318TIP3    H222514   4.076   6.186   0.591  0.0743  1.3554 -2.7932
  319TIP3   OH222515   1.688   2.858   7.032  0.5601 -0.3064  0.1868
  319TIP3    H122516   1.782   2.875   7.026  0.8964 -1.6481  1.1800
  319TIP3    H222517   1.681   2.785   7.093 -1.1222 -0.3761 -0.0503
  320TIP3   OH222518   5.919   2.398   6.648  0.4846  0.2522  0.0159
  320TIP3    H122519   5.940   2.387   6.741  0.7082  0.1753 -0.0439
  320TIP3    H222520   5.996   2.440   6.611  0.2791  0.5510 -0.0776
  321TIP3   OH222521   6.338   2.636   7.852  0.1408  0.0308  0.2514
  321TIP3    H122522   6.376   2.622   7.939 -0.9318  0.7662  0.8556
  321TIP3    H222523   6.244   2.639   7.866  0.0018  1.4441 -0.7299
  322TIP3   OH222524   2.415   4.343   2.457  0.2863 -0.0771 -0.0107
  322TIP3    H122525   2.357   4.419   2.461  0.3161 -0.0989  1.9129
  322TIP3    H222526   2.482   4.367   2.393  0.4015  1.6077  0.6918
  323TIP3   OH222527   3.222   0.996   6.821 -0.1071  0.4805 -0.3830
  323TIP3    H122528   3.207   1.076   6.771 -1.3622  1.1361  0.9452
  323TIP3    H222529   3.290   0.949   6.773  1.0144  2.5686 -0.9368
  324TIP3   OH222530   2.210   3.185   1.484  0.3271  0.5218  0.4718
  324TIP3    H122531   2.288   3.148   1.526  1.4881  0.2835 -1.7464
  324TIP3    H222532   2.245   3.237   1.411 -1.5175  2.0524  0.6053
  325TIP3   OH222533   4.333   0.165   0.235 -0.2079 -0.8057 -0.4109
  325TIP3    H122534   4.353   0.111   0.311 -1.9333 -1.2046 -0.2143
  325TIP3    H222535   4.268   0.115   0.186 -0.7195  0.4171 -1.0190
  326TIP3   OH222536   1.464   1.989   7.060  0.0195 -0.0937  0.0871
  326TIP3    H122537   1.481   1.918   7.121  0.0954  0.2590  0.4815
  326TIP3    H222538   1.422   2.057   7.113  1.6631  0.9161  0.1517
  327TIP3   OH222539   6.304   4.407   7.160 -0.0562 -0.1136  0.0614
  327TIP3    H122540   6.259   4.334   7.203  0.7572 -1.6397 -1.5656
  327TIP3    H222541   6.390   4.372   7.137  2.0288  2.6309  2.8428
  328TIP3   OH222542   4.572   6.258   8.909 -0.4906  0.0666  0.4238
  328TIP3    H122543   4.532   6.281   8.825 -2.3126 -0.9780  0.9477
  328TIP3    H222544   4.533   6.319   8.972  0.6502  0.6578  0.5908
  329TIP3   OH222545   2.016   2.485   2.076  0.3647  0.1536  0.0599
  329TIP3    H122546   2.037   2.491   1.983  0.9269 -0.5293  0.1347
  329TIP3    H222547   1.962   2.406   2.084 -1.9931  1.6743 -0.0729
  330TIP3   OH222548   6.247   3.162   1.669  0.2686  0.0756  0.1661
  330TIP3    H122549   6.183   3.119   1.726  1.3446 -0.2710  1.1437
  330TIP3    H222550   6.194   3.206   1.603 -0.9331 -1.4117  0.0887
  331TIP3   OH222551   1.265   2.735   9.277 -0.0902 -0.4493  0.1265
  331TIP3    H122552   1.325   2.686   9.221 -1.4920 -1.0994 -0.8535
  331TIP3    H222553   1.198   2.768   9.218 -1.2725 -0.6248  1.3323
  332TIP3   OH222554   0.796   1.332   0.489  0.2293 -0.0498 -0.4099
  332TIP3    H122555   0.776   1.268   0.420 -0.4356  0.1266 -0.3887
  332TIP3    H222556   0.868   1.292   0.538 -0.7366 -1.2023  0.1359
  333TIP3   OH222557   1.108   2.792   7.935 -0.5937 -0.1617  0.0173
  333TIP3    H122558   1.190   2.753   7.966  0.0923 -0.7666 -2.3385
  333TIP3    H222559   1.042   2.726   7.955  0.0395 -1.1198 -0.9133
  334TIP3   OH222560   1.429   3.709   7.501 -0.2848 -0.1901  0.0364
  334TIP3    H122561   1.494   3.689   7.434 -1.5217  0.4911 -1.4319
  334TIP3    H222562   1.458   3.792   7.539  0.9061 -1.0223  1.0166
  335TIP3   OH222563   1.647   2.293   7.848 -0.4972  0.2895 -0.1223
  335TIP3    H122564   1.726   2.330   7.887 -0.5640  0.1233  0.1767
  335TIP3    H222565   1.576   2.348   7.880 -0.3262  1.7892 -2.0936
  336TIP3   OH222566   0.568   3.193   0.676  0.6527  0.5357  0.1219
  336TIP3    H122567   0.543   3.201   0.584  0.2621  0.2505  0.2023
  336TIP3    H222568   0.497   3.144   0.716  1.3213 -0.2643  0.3570
  337TIP3   OH222569   1.785   3.482   7.347  0.3977 -0.4083  0.0724
  337TIP3    H122570   1.818   3.453   7.262  0.1007 -1.0606  0.1693
  337TIP3    H222571   1.692   3.460   7.345  0.0845  0.8142  0.0469
  338TIP3   OH222572   2.434   5.935   1.047  0.2796  0.2158 -0.3724
  338TIP3    H122573   2.443   6.019   1.092  1.1028 -0.3110  0.4759
  338TIP3    H222574   2.522   5.916   1.013  0.3478 -0.7540  0.2893
  339TIP3   OH222575   1.379   4.385   7.569  0.2111  0.4992  0.1579
  339TIP3    H122576   1.295   4.416   7.537  0.2640  0.8252  0.3342
  339TIP3    H222577   1.409   4.453   7.629  0.0137 -0.1845  1.0704
  340TIP3   OH222578   3.350   3.231   7.277 -0.0584  0.0180 -0.0790
  340TIP3    H122579   3.435   3.276   7.278 -0.8026  1.4810  0.4627
  340TIP3    H222580   3.340   3.203   7.186  1.0780 -0.3660 -0.1107
  341TIP3   OH222581   2.057   1.525   2.434 -0.1090 -0.2399  0.0332
  341TIP3    H122582   2.145   1.546   2.464 -0.6518  0.6977  1.1059
  341TIP3    H222583   2.049   1.430   2.444  0.6477 -0.2810  0.2891
  342TIP3   OH222584   0.766   3.453   0.235  0.3369  1.3223 -0.0704
  342TIP3    H122585   0.811   3.531   0.203 -0.1201  1.0353 -1.4912
  342TIP3    H222586   0.833   3.406   0.285  0.7581  2.3645  0.3645
  343TIP3   OH222587   1.393   4.343   8.060  0.5680  0.6029  0.3437
  343TIP3    H122588   1.472   4.394   8.042  0.9790 -0.6781 -1.9201
  343TIP3    H222589   1.323   4.391   8.016  0.9410 -0.5888 -1.7128
  344TIP3   OH222590   6.113   3.778   7.860  0.1585  0.4164  0.2763
  344TIP3    H122591   6.036   3.810   7.906  0.1034 -0.6754  0.9754
  344TIP3    H222592   6.182   3.840   7.883 -0.3061  0.9160  0.3373
  345TIP3   OH222593   1.868   5.466   0.188  0.6946 -0.7725 -0.2743
  345TIP3    H122594   1.913   5.485   0.271  2.7842  1.4859 -1.7771
  345TIP3    H222595   1.814   5.544   0.173 -1.1061 -1.9615 -0.2103
  346TIP3   OH222596   3.280   0.335   1.595  1.0290 -0.0026  0.0999
  346TIP3    H122597   3.295   0.332   1.689 -0.3869  0.2186  0.3558
  346TIP3    H222598   3.250   0.247   1.572  0.1206  0.2953  0.1020
  347TIP3   OH222599   2.221   5.622   0.151  0.3768  0.3229  0.5213
  347TIP3    H122600   2.237   5.716   0.161  0.3476  0.3332  0.4711
  347TIP3    H222601   2.194   5.612   0.059  1.8037  0.0661  0.1040
  348TIP3   OH222602   1.054   2.846   2.432 -0.0501 -0.0993 -0.0097
  348TIP3    H122603   1.079   2.785   2.502 -1.5965  1.0570  1.6523
  348TIP3    H222604   1.008   2.793   2.368 -2.3714 -0.6055  1.9471
  349TIP3   OH222605   6.375   1.621   8.265 -0.1659  0.3084  0.3572
  349TIP3    H122606   6.418   1.699   8.230  1.2489  0.4840  2.3286
  349TIP3    H222607   6.309   1.655   8.326 -0.6203 -0.0280  0.0617
  350TIP3   OH222608   2.545   1.891   8.648  0.0453 -0.1542 -0.6142
  350TIP3    H122609   2.477   1.824   8.638 -1.1571  1.0257 -0.4806
  350TIP3    H222610   2.529   1.953   8.577  0.6661  0.4065 -0.2737
  351TIP3   OH222611   1.534   4.951   1.840 -0.8562 -0.4459  0.1627
  351TIP3    H122612   1.612   4.975   1.791 -0.4968 -2.0457 -0.1031
  351TIP3    H222613   1.533   5.011   1.915  1.9946 -1.8669  1.4951
  352TIP3   OH222614   4.541   4.422   9.075  0.2921 -0.0470  0.0072
  352TIP3    H122615   4.603   4.440   9.145  0.2833  0.8569 -0.2020
  352TIP3    H222616   4.580   4.464   8.998 -1.1523  1.6125  0.1351
  353TIP3   OH222617   5.141   4.154   8.178 -0.0705  0.4709  0.3905
  353TIP3    H122618   5.111   4.067   8.150  2.1164 -0.4686  0.7787
  353TIP3    H222619   5.074   4.184   8.239 -1.2205 -0.6209 -0.2970
  354TIP3   OH222620   2.872   4.866   2.085  0.3535 -0.1522  0.6784
  354TIP3    H122621   2.811   4.830   2.021  2.5473  0.3166 -1.8671
  354TIP3    H222622   2.846   4.957   2.096  0.1638 -0.1395  0.1496
  355TIP3   OH222623   2.750   6.478   2.341  0.9026  0.0982 -0.3756
  355TIP3    H122624   2.730   6.447   2.429 -3.2223 -0.5670 -1.3182
  355TIP3    H222625   2.709   6.564   2.336  3.1426  1.2056 -1.0263
  356TIP3   OH222626   3.101   5.969   8.701  0.1641 -0.7899 -0.3538
  356TIP3    H122627   3.070   5.888   8.741 -0.9690 -0.4240 -0.4465
  356TIP3    H222628   3.021   6.013   8.671  0.7956  0.1325 -0.7361
  357TIP3   OH222629   1.319   4.794   7.874 -0.8298  0.0921  0.4675
  357TIP3    H122630   1.357   4.777   7.788  1.5661  0.7969  1.3003
  357TIP3    H222631   1.394   4.820   7.929 -2.5422  1.6132  2.2525
  358TIP3   OH222632   6.104   3.470   1.747 -0.2770 -0.1434 -0.5911
  358TIP3    H122633   6.095   3.492   1.655 -1.0609  2.2181 -0.0277
  358TIP3    H222634   6.030   3.414   1.767 -0.0226 -0.7807 -1.4148
  359TIP3   OH222635   6.136   2.519   1.022 -0.0117  0.5513 -0.3663
  359TIP3    H122636   6.112   2.608   0.996  1.0230  0.5088 -1.5511
  359TIP3    H222637   6.232   2.520   1.026  0.1515 -0.9515 -2.1887
  360TIP3   OH222638   4.114   0.302   8.470 -0.1751 -0.0494 -0.1346
  360TIP3    H122639   4.062   0.279   8.393 -1.2093 -1.4741  0.9287
  360TIP3    H222640   4.071   0.379   8.506  0.1249  0.4335 -0.7970
  361TIP3   OH222641   5.657   1.316   1.464 -0.0764  0.4525 -0.0727
  361TIP3    H122642   5.650   1.325   1.369  0.1505  1.6142 -0.0016
  361TIP3    H222643   5.571   1.340   1.498 -0.6941 -1.6354 -0.0467
  362TIP3   OH222644   3.488   3.529   8.717  0.1915 -0.0082  0.2223
  362TIP3    H122645   3.473   3.442   8.681 -3.6059  0.6144 -0.1150
  362TIP3    H222646   3.486   3.587   8.640 -0.1965  0.6170  0.6925
  363TIP3   OH222647   6.364   6.330   8.891  0.4768  0.9654  0.1432
  363TIP3    H122648   6.406   6.366   8.969  1.1095  1.6263 -0.4888
  363TIP3    H222649   6.335   6.408   8.843 -2.5623  0.5750  1.1019
  364TIP3   OH222650   6.351   5.100   8.367  0.7947 -0.4741 -0.2442
  364TIP3    H122651   6.411   5.076   8.297  1.2646  1.9267 -0.7591
  364TIP3    H222652   6.383   5.053   8.444  1.9170 -1.0174 -1.0227
  365TIP3   OH222653   2.466   1.239   0.067  0.6072 -0.0887 -0.7553
  365TIP3    H122654   2.524   1.181   0.019  1.7944  0.4224  0.0140
  365TIP3    H222655   2.379   1.198   0.060  1.1988 -1.2950 -1.2452
  366TIP3   OH222656   3.876   5.258   7.675  0.4012  0.0208 -0.5967
  366TIP3    H122657   3.814   5.210   7.621  0.0717 -0.0472 -0.1693
  366TIP3    H222658   3.952   5.200   7.680 -0.4609 -1.0643  0.9377
  367TIP3   OH222659   1.870   5.839   0.655 -0.2741  0.3307  0.3077
  367TIP3    H122660   1.874   5.744   0.641  2.7545  0.7108 -2.7195
  367TIP3    H222661   1.795   5.867   0.603  0.7852 -0.1445 -1.5691
  368TIP3   OH222662   2.601   0.698   2.065  0.8767  0.5005  0.3552
  368TIP3    H122663   2.567   0.724   1.980 -0.0559  1.5068  0.9977
  368TIP3    H222664   2.527   0.655   2.109  1.4520 -0.3431  0.5296
  369TIP3   OH222665   0.543   3.534   0.524  0.5871  0.1755  0.3381
  369TIP3    H122666   0.607   3.537   0.595  1.1321  1.6434 -0.1717
  369TIP3    H222667   0.579   3.592   0.457  0.1446 -1.2503 -1.1991
  370TIP3   OH222668   0.356   3.010   8.607  0.3445  0.2909  0.1504
  370TIP3    H122669   0.412   3.049   8.674  0.9715  1.7546 -1.1598
  370TIP3    H222670   0.321   3.085   8.558 -0.2234 -0.7257 -1.0672
  371TIP3   OH222671   1.978   6.153   8.241 -0.0777 -0.2746 -0.2157
  371TIP3    H122672   1.980   6.210   8.318 -2.0790  2.6182 -2.0750
  371TIP3    H222673   2.063   6.110   8.240  0.2017 -0.0690  3.2899
  372TIP3   OH222674   0.528   0.827   8.851 -0.1962 -0.3885 -0.8611
  372TIP3    H122675   0.548   0.819   8.758  1.3106 -3.4277 -0.3894
  372TIP3    H222676   0.515   0.737   8.880 -1.9065  0.5725  1.6463
  373TIP3   OH222677   0.703   5.205   7.045  0.0519  0.2820  0.0321
  373TIP3    H122678   0.777   5.151   7.072  0.2963  0.1438 -0.8828
  373TIP3    H222679   0.708   5.207   6.949 -0.4224  1.2658  0.0119
  374TIP3   OH222680   2.118   2.896   1.608  0.0353 -0.0454  0.6360
  374TIP3    H122681   2.082   2.827   1.664  1.9003 -0.0461  1.9015
  374TIP3    H222682   2.052   2.965   1.609 -1.1142 -1.1145  0.7102
  375TIP3   OH222683   5.881   3.302   7.201 -0.1443  0.0657 -0.1113
  375TIP3    H122684   5.911   3.356   7.128  0.9234 -0.1949  0.1219
  375TIP3    H222685   5.957   3.295   7.258 -0.9335  0.1697  0.9733
  376TIP3   OH222686   5.969   0.318   1.512  0.3691  0.8151  0.0071
  376TIP3    H122687   5.906   0.247   1.496  0.2077  0.9590 -0.0020
  376TIP3    H222688   6.005   0.339   1.426 -0.4353  1.5312 -0.1682
  377TIP3   OH222689   2.310   4.479   0.188  0.0841  0.0965  0.0539
  377TIP3    H122690   2.269   4.516   0.109  0.6831  2.8581  0.9060
  377TIP3    H222691   2.372   4.546   0.216 -0.8088 -0.2918  3.4468
  378TIP3   OH222692   0.144   3.490   9.328  0.4805 -0.1234 -0.3602
  378TIP3    H122693   0.162   3.528   9.243  0.9469 -2.4542 -1.3757
  378TIP3    H222694   0.055   3.519   9.349 -0.7836 -1.7184 -3.0058
  379TIP3   OH222695   4.652   0.471   8.560 -0.8692  0.6690 -0.2347
  379TIP3    H122696   4.587   0.405   8.534 -0.7304 -0.6722  2.4483
  379TIP3    H222697   4.731   0.447   8.512 -0.6829 -1.5154  1.0256
  380TIP3   OH222698   4.050   5.945   7.636  0.2472 -0.2863 -0.3428
  380TIP3    H122699   4.007   6.018   7.682 -2.1644 -0.7840 -1.6167
  380TIP3    H222700   4.019   5.867   7.681  0.9537 -0.6162 -0.4250
  381TIP3   OH222701   2.626   5.470   1.630 -0.5792  0.1994 -0.8397
  381TIP3    H122702   2.571   5.464   1.708 -0.2894  0.0589 -0.6454
  381TIP3    H222703   2.598   5.551   1.587  0.6420  1.3927  0.4844
  382TIP3   OH222704   2.295   2.363   8.251 -0.6718 -0.3195  0.4665
  382TIP3    H122705   2.259   2.284   8.210 -0.7111  0.4493 -1.0658
  382TIP3    H222706   2.222   2.401   8.300 -0.9907 -0.5828  0.1957
  383TIP3   OH222707   5.581   2.037   0.904 -0.1829  0.5768 -0.1670
  383TIP3    H122708   5.648   1.981   0.864  0.2518 -0.5384  1.9707
  383TIP3    H222709   5.498   1.993   0.884  0.0366 -0.0242  0.2170
  384TIP3   OH222710   4.175   0.276   1.449 -0.0990  0.0793 -0.4065
  384TIP3    H122711   4.139   0.206   1.504  1.4399  0.4488  1.1356
  384TIP3    H222712   4.140   0.356   1.487  2.1674  0.4401  1.0703
  385TIP3   OH222713   5.210   3.087   7.532 -0.0334  0.2106 -0.2450
  385TIP3    H122714   5.173   3.171   7.507  0.9702  0.2479 -1.7613
  385TIP3    H222715   5.201   3.084   7.627 -1.9263  1.1149 -0.3463
  386TIP3   OH222716   0.799   5.354   0.057  0.5050  0.2450 -0.4202
  386TIP3    H122717   0.857   5.381  -0.014  0.0001 -1.2821 -1.4605
  386TIP3    H222718   0.858   5.321   0.125  0.8976 -0.3714 -1.0545
  387TIP3   OH222719   5.645   0.629   8.050 -0.5845 -0.5543 -0.0646
  387TIP3    H122720   5.622   0.557   8.109 -2.3399 -0.0031 -0.0082
  387TIP3    H222721   5.575   0.694   8.063 -0.6287 -0.0924 -2.2022
  388TIP3   OH222722   2.750   5.514   2.576 -0.5159 -0.2870  0.2886
  388TIP3    H122723   2.681   5.467   2.622 -0.4250 -0.7691 -0.0593
  388TIP3    H222724   2.704   5.578   2.522 -0.6068  0.4850  1.2644
  389TIP3   OH222725   4.750   1.772   9.112  0.5593  0.2638 -0.2139
  389TIP3    H122726   4.772   1.823   9.033  0.2768 -0.0819 -0.5205
  389TIP3    H222727   4.715   1.837   9.173  0.6558  0.5172 -0.4234
  390TIP3   OH222728   6.082   5.770   9.312 -0.7380  0.4912 -0.2479
  390TIP3    H122729   6.026   5.759   9.388  0.0598  1.6945  0.5545
  390TIP3    H222730   6.063   5.859   9.280  0.4478  0.8003 -0.1509
  391TIP3   OH222731   6.314   0.288   8.888  0.2668  0.1641  0.5049
  391TIP3    H122732   6.253   0.261   8.820 -0.6786  1.5197  0.7679
  391TIP3    H222733   6.267   0.273   8.970  0.0348  1.7325  0.6873
  392TIP3   OH222734   0.262   0.472   2.520  0.2534 -0.1123  0.2671
  392TIP3    H122735   0.176   0.434   2.540 -0.7039  0.3786 -2.3942
  392TIP3    H222736   0.279   0.531   2.592 -1.9364  0.1785  0.6310
  393TIP3   OH222737   2.903   4.696   2.412  0.0648  0.1480  0.3131
  393TIP3    H122738   2.843   4.770   2.406 -0.4799 -0.2322  1.0310
  393TIP3    H222739   2.976   4.729   2.464  0.3895  0.5351 -0.3621
  394TIP3   OH222740   0.121   5.793   1.662 -0.6656  0.0030 -0.0926
  394TIP3    H122741   0.083   5.839   1.737 -0.1763 -1.1081  0.8647
  394TIP3    H222742   0.215   5.787   1.683 -0.3375  0.6193 -1.3043
  395TIP3   OH222743   1.564   5.341   1.294  0.0431  0.3561  0.0403
  395TIP3    H122744   1.541   5.302   1.378  2.5913 -1.4283  0.0413
  395TIP3    H222745   1.629   5.408   1.316  0.1726  0.3927 -0.4488
  396TIP3   OH222746   4.378   1.577   1.344  0.6233  0.4362 -0.5207
  396TIP3    H122747   4.295   1.535   1.319 -0.2242  1.5585  0.2770
  396TIP3    H222748   4.434   1.568   1.267 -0.3914  0.0033 -1.2317
  397TIP3   OH222749   1.596   2.255   0.900  0.0045  0.6946 -0.1639
  397TIP3    H122750   1.629   2.345   0.910 -0.3491  0.8337 -0.2386
  397TIP3    H222751   1.663   2.211   0.848 -0.1257  1.0965 -0.6833
  398TIP3   OH222752   5.832   0.528   7.465  0.3243  0.9948  0.3776
  398TIP3    H122753   5.844   0.510   7.372 -0.4617  0.4226  0.3862
  398TIP3    H222754   5.850   0.445   7.508  0.3197  1.1666  0.7164
  399TIP3   OH222755   0.910   5.749   8.327 -0.1305 -0.2539  0.6783
  399TIP3    H122756   0.888   5.830   8.373 -0.2285 -0.7489  1.5335
  399TIP3    H222757   0.950   5.693   8.394 -1.0540 -1.3111  0.3871
  400TIP3   OH222758   2.082   4.931   8.358 -0.6401  0.1483 -0.0105
  400TIP3    H122759   2.058   4.985   8.433 -0.2881 -0.0820  0.2724
  400TIP3    H222760   2.022   4.857   8.361 -0.5098  0.0489  0.1483
  401TIP3   OH222761   6.373   0.160   0.991 -0.6623 -0.1090 -0.3177
  401TIP3    H122762   6.342   0.247   1.018 -1.0479  0.3117 -1.9780
  401TIP3    H222763   6.332   0.099   1.052 -1.3120  0.7941  0.1624
  402TIP3   OH222764   0.004   0.488   2.644  0.6211  0.1519  0.3363
  402TIP3    H122765  -0.034   0.562   2.595  1.7001  0.2032 -0.4552
  402TIP3    H222766  -0.039   0.411   2.607  0.9847  0.2372 -0.2856
  403TIP3   OH222767   5.482   3.498   8.901  0.0046 -0.0491  0.3398
  403TIP3    H122768   5.451   3.424   8.849  0.3960 -0.6535  0.9440
  403TIP3    H222769   5.479   3.572   8.841 -0.7182 -0.4824 -0.1820
  404TIP3   OH222770   0.615   1.960   7.788  0.4133 -0.5881  0.0120
  404TIP3    H122771   0.611   1.926   7.877  4.8373 -0.2646  0.5835
  404TIP3    H222772   0.632   2.053   7.798  0.0200 -0.3656 -1.2065
  405TIP3   OH222773   5.218   3.572   8.601 -0.0534  0.5955 -0.0291
  405TIP3    H122774   5.168   3.583   8.520 -0.0497  1.9128  0.1225
  405TIP3    H222775   5.165   3.616   8.668  0.3496  0.2618  0.5148
  406TIP3   OH222776   1.890   2.820   8.848 -0.1647 -0.3951  0.1152
  406TIP3    H122777   1.894   2.812   8.943 -0.2456 -0.6985  0.0945
  406TIP3    H222778   1.981   2.806   8.819  0.4238  2.4425  0.3334
  407TIP3   OH222779   1.132   5.897   0.355  0.3539  0.3488 -0.1835
  407TIP3    H122780   1.216   5.856   0.374  1.0075  0.8245 -1.9079
  407TIP3    H222781   1.080   5.827   0.314  0.7875  0.6829 -1.3421
  408TIP3   OH222782   5.383   3.875   8.389  0.1356 -0.4060 -0.0182
  408TIP3    H122783   5.348   3.896   8.476 -1.2855 -0.2506 -0.6039
  408TIP3    H222784   5.329   3.801   8.359  0.6422 -0.4875 -0.7504
  409TIP3   OH222785   4.993   1.455   1.826 -0.1457 -0.6622  0.1596
  409TIP3    H122786   4.915   1.441   1.771 -0.7210  2.1327  0.1032
  409TIP3    H222787   5.063   1.474   1.764 -0.3390  0.5173  0.2670
  410TIP3   OH222788   0.746   4.807   8.151  0.0476 -0.4526  0.2348
  410TIP3    H122789   0.656   4.839   8.150 -0.0240 -0.5055  1.9991
  410TIP3    H222790   0.795   4.870   8.099 -0.3339  1.8278  2.4548
  411TIP3   OH222791   6.060   3.833   7.109 -0.3071  0.2432 -0.0974
  411TIP3    H122792   6.001   3.813   7.036  0.6044 -0.8145 -0.5664
  411TIP3    H222793   6.147   3.838   7.070  0.0041  1.3715  0.6557
  412TIP3   OH222794   4.232   6.245   8.412  0.3181 -0.2070 -0.4635
  412TIP3    H122795   4.159   6.199   8.452 -2.1318  2.9080 -0.9467
  412TIP3    H222796   4.243   6.203   8.326  0.6960 -2.1675  0.5037
  413TIP3   OH222797   2.323   6.575   1.942 -0.2207 -0.1789  0.1845
  413TIP3    H122798   2.289   6.487   1.960 -1.1677  0.4407  1.6493
  413TIP3    H222799   2.391   6.588   2.008 -1.9574  1.1667  1.8125
  414TIP3   OH222800   0.469   3.860   7.608 -0.0195 -0.4096  0.0516
  414TIP3    H122801   0.419   3.937   7.634  2.3977  1.2221  0.2371
  414TIP3    H222802   0.439   3.840   7.519 -2.2623 -0.7250  0.8032
  415TIP3   OH222803   1.019   0.895   2.407 -0.4996 -0.6311 -0.5848
  415TIP3    H122804   0.994   0.806   2.431  0.4076 -0.6115  0.4930
  415TIP3    H222805   0.986   0.950   2.478  2.4503 -0.6107  0.9117
  416TIP3   OH222806   2.552   1.500   8.511 -0.4855 -0.2026 -0.1126
  416TIP3    H122807   2.515   1.550   8.584 -1.2820  0.4965 -0.9620
  416TIP3    H222808   2.633   1.546   8.489 -0.2623 -0.3932  0.3029
  417TIP3   OH222809   2.593   1.587   8.076 -0.0570 -0.0928 -0.7118
  417TIP3    H122810   2.534   1.615   8.005 -0.1176 -0.4079 -0.7887
  417TIP3    H222811   2.597   1.662   8.135 -1.9194 -0.6291  0.2075
  418TIP3   OH222812   3.965   4.245   1.109  0.2498  0.4204 -0.2894
  418TIP3    H122813   4.060   4.239   1.097  0.2673  0.2564 -0.0658
  418TIP3    H222814   3.929   4.190   1.040  0.2658  1.7303 -1.3963
  419TIP3   OH222815   2.755   1.161   1.635  0.5943 -0.3103 -0.3086
  419TIP3    H122816   2.787   1.083   1.591  1.1900  0.8539 -2.0527
  419TIP3    H222817   2.833   1.213   1.653  0.1378  0.3053 -0.0307
  420TIP3   OH222818   1.330   0.952   1.863  0.0390 -0.2586  0.3138
  420TIP3    H122819   1.330   1.045   1.883 -2.0146 -0.2675  0.5240
  420TIP3    H222820   1.248   0.937   1.816  0.7234 -1.8244 -0.4530
  421TIP3   OH222821   0.233   4.788   1.891  0.3189 -0.2889 -0.2168
  421TIP3    H122822   0.143   4.780   1.859 -0.2783  1.1778  1.0168
  421TIP3    H222823   0.287   4.770   1.813 -0.9995 -1.3596 -0.9386
  422TIP3   OH222824   0.044   5.759   1.050 -0.5389 -0.2373  0.4083
  422TIP3    H122825   0.129   5.801   1.053 -0.9046  0.5861 -0.2510
  422TIP3    H222826   0.062   5.669   1.025 -0.0384  0.7508 -3.4993
  423TIP3   OH222827   5.048   3.563   2.228 -0.5769  0.4678 -0.3467
  423TIP3    H122828   5.015   3.516   2.305 -1.4139 -1.7320 -1.9397
  423TIP3    H222829   5.131   3.520   2.208 -0.2816  1.1453 -0.6005
  424TIP3   OH222830   5.248   1.842   7.496 -0.0374 -0.5160  0.0404
  424TIP3    H122831   5.204   1.912   7.448 -1.7674  1.3068  3.8242
  424TIP3    H222832   5.186   1.769   7.495  0.3518 -0.8396 -1.2166
  425TIP3   OH222833   3.812   4.517   7.821  0.6207 -0.2302 -0.2701
  425TIP3    H122834   3.800   4.611   7.808 -1.1771 -0.2076  1.2304
  425TIP3    H222835   3.738   4.477   7.775  0.9082 -0.8637 -0.1839
  426TIP3   OH222836   1.801   3.920   8.878 -0.7495 -0.1438 -0.1780
  426TIP3    H122837   1.809   3.885   8.789 -1.1292  0.9218 -0.6460
  426TIP3    H222838   1.733   3.987   8.872  0.1688  0.9075  0.6051
  427TIP3   OH222839   2.929   6.131   2.329  0.3148 -1.0228 -0.0569
  427TIP3    H122840   2.850   6.079   2.311 -1.2529  0.5543  1.8195
  427TIP3    H222841   2.923   6.152   2.422  2.0017  0.7250 -0.2756
  428TIP3   OH222842   3.594   5.155   8.707  0.3560 -0.4386  0.1424
  428TIP3    H122843   3.681   5.179   8.740  0.7356 -3.3803  1.5467
  428TIP3    H222844   3.533   5.208   8.759  1.2049 -0.6041  1.3375
  429TIP3   OH222845   4.813   0.127   8.295  0.5023  0.2228  0.0331
  429TIP3    H122846   4.865   0.114   8.216 -0.0498 -0.2047 -0.2735
  429TIP3    H222847   4.862   0.191   8.346  0.3087  1.4203 -1.1924
  430TIP3   OH222848   3.236   5.863   7.998 -0.1309  0.1333 -0.0281
  430TIP3    H122849   3.320   5.827   8.025  0.1762  0.1165 -0.9872
  430TIP3    H222850   3.247   5.884   7.906 -1.4462 -0.6655 -0.3980
  431TIP3   OH222851   1.012   3.239   8.492 -0.3726  0.2993 -0.4975
  431TIP3    H122852   0.945   3.293   8.450  0.4459  1.8944  0.1649
  431TIP3    H222853   1.083   3.234   8.427 -1.5544 -2.4884 -1.7415
  432TIP3   OH222854   3.515   4.571   0.095  0.6380  0.1458  0.4367
  432TIP3    H122855   3.592   4.514   0.094 -0.1164 -0.8973 -0.1915
  432TIP3    H222856   3.548   4.656   0.066  1.4722 -0.4065 -0.3067
  433TIP3   OH222857   4.176   1.863   6.697  1.0640  0.1574  0.0641
  433TIP3    H122858   4.259   1.821   6.672  1.0764  0.5142 -0.5070
  433TIP3    H222859   4.201   1.954   6.715  1.1578 -0.1879  1.9325
  434TIP3   OH222860   0.121   5.381   7.565 -0.2522 -0.3946  0.3228
  434TIP3    H122861   0.106   5.288   7.552 -2.9615  0.1981 -1.5785
  434TIP3    H222862   0.078   5.423   7.491  1.2804  2.3816  0.8672
  435TIP3   OH222863   1.762   1.301   0.567  0.0183  0.0794 -0.0577
  435TIP3    H122864   1.694   1.357   0.530 -0.1653  0.2779  0.5780
  435TIP3    H222865   1.721   1.261   0.644  0.2297 -0.7275 -0.3574
  436TIP3   OH222866   2.809   4.047   0.761  0.7940 -0.0194  0.2329
  436TIP3    H122867   2.851   4.100   0.693  0.8818  0.1668  0.4339
  436TIP3    H222868   2.778   3.969   0.714 -0.3667  0.7267 -0.2747
  437TIP3   OH222869   1.530   6.058   2.219 -0.6008 -0.1189  0.2472
  437TIP3    H122870   1.561   6.120   2.286 -0.6631  1.0470 -0.7630
  437TIP3    H222871   1.562   5.973   2.249  1.6778  0.7121  0.4365
  438TIP3   OH222872   1.155   3.395   1.854 -0.5925 -0.1593 -0.1914
  438TIP3    H122873   1.201   3.313   1.839 -1.6506 -0.5588 -1.5845
  438TIP3    H222874   1.223   3.461   1.857  0.1096 -0.7145 -2.2507
  439TIP3   OH222875   3.684   6.319   7.176  0.1422  0.7795 -0.1335
  439TIP3    H122876   3.641   6.259   7.116  1.3880 -0.6100  0.3011
  439TIP3    H222877   3.770   6.334   7.138  0.6333  0.5491  0.8510
  440TIP3   OH222878   3.585   0.215   1.838  0.3067  0.5467  0.6073
  440TIP3    H122879   3.515   0.153   1.817  1.0610 -0.1804  0.1970
  440TIP3    H222880   3.542   0.300   1.837 -0.6755  0.0685  0.8405
  441TIP3   OH222881   4.579   3.246   7.335 -0.4730 -0.2539 -1.0722
  441TIP3    H122882   4.579   3.335   7.370 -2.2528 -0.2414 -1.0283
  441TIP3    H222883   4.518   3.249   7.261  0.1602 -1.2267 -1.6506
  442TIP3   OH222884   0.723   1.930   7.191 -0.0133  0.2269  0.1118
  442TIP3    H122885   0.783   1.856   7.198  1.7721  1.6851  1.0670
  442TIP3    H222886   0.714   1.944   7.097  1.7987  0.4400 -0.0628
  443TIP3   OH222887   6.556   4.235   9.072 -0.8155  0.3845  0.2337
  443TIP3    H122888   6.556   4.141   9.094  3.1317  0.5592  1.8908
  443TIP3    H222889   6.544   4.278   9.157 -0.9950  1.3534 -0.2819
  444TIP3   OH222890   3.687   2.985   2.399 -0.1293  0.5474 -0.3294
  444TIP3    H122891   3.625   3.056   2.418 -2.4310 -1.7721  1.4672
  444TIP3    H222892   3.763   3.005   2.453 -0.4373  1.9459 -0.3535
  445TIP3   OH222893   0.871   6.538   0.340 -0.2654  0.5331  0.1292
  445TIP3    H122894   0.854   6.613   0.398  1.1697 -0.0584  1.3908
  445TIP3    H222895   0.784   6.512   0.308 -0.8878  2.0719  0.5074
  446TIP3   OH222896   2.339   2.008   0.728  0.4636 -0.3250 -0.3843
  446TIP3    H122897   2.334   2.099   0.756 -0.1429 -0.4027 -0.2431
  446TIP3    H222898   2.410   2.007   0.663  2.3087 -0.2559  1.5320
  447TIP3   OH222899   4.315   4.816   0.037  0.0294  0.0640  0.1437
  447TIP3    H122900   4.298   4.729   0.002 -0.3889 -0.2073  1.0052
  447TIP3    H222901   4.265   4.875  -0.020 -0.9115 -0.4042  0.4666
  448TIP3   OH222902   3.622   2.899   0.485 -0.0887 -0.6487  0.2209
  448TIP3    H122903   3.663   2.837   0.546  1.2136  0.5297  0.6041
  448TIP3    H222904   3.559   2.948   0.539 -0.2948 -0.8688  0.1813
  449TIP3   OH222905   4.610   0.270   0.333  0.0661 -0.0325  0.0014
  449TIP3    H122906   4.534   0.232   0.288  0.4576  0.8551 -1.4625
  449TIP3    H222907   4.576   0.297   0.418 -1.5648  1.3382 -1.0221
  450TIP3   OH222908   6.587   5.377   1.891 -0.5975 -0.3028  0.6462
  450TIP3    H122909   6.671   5.379   1.845  0.2384 -1.0327  2.0678
  450TIP3    H222910   6.529   5.431   1.837 -0.0980 -2.1951 -2.0166
  451TIP3   OH222911   2.495   5.517   2.720 -0.3191 -0.3707 -0.0461
  451TIP3    H122912   2.548   5.485   2.793 -0.2865 -1.3301 -0.4717
  451TIP3    H222913   2.499   5.447   2.655  0.3832  0.8459 -1.3543
  452TIP3   OH222914   5.569   3.440   0.268 -0.9922  0.2983 -0.2692
  452TIP3    H122915   5.633   3.440   0.198 -0.8613 -0.5100 -0.1538
  452TIP3    H222916   5.506   3.508   0.243  0.5367  1.9738  0.2131
  453TIP3   OH222917   0.759   4.720   0.250  0.0633 -0.3854  0.3764
  453TIP3    H122918   0.735   4.812   0.259  2.0514  0.3124 -0.7987
  453TIP3    H222919   0.676   4.675   0.236 -0.8332  1.4420 -0.5315
  454TIP3   OH222920   6.169   3.446   0.874  0.0430 -0.0203  0.3595
  454TIP3    H122921   6.116   3.520   0.843 -2.0011  0.4619  4.3492
  454TIP3    H222922   6.134   3.370   0.829 -0.2107  0.9868 -1.2086
  455TIP3   OH222923   3.791   5.676   7.979 -0.0127 -0.2764 -0.1712
  455TIP3    H122924   3.710   5.634   8.007  0.2671 -1.0702 -0.5430
  455TIP3    H222925   3.766   5.768   7.965 -1.4051 -0.9272 -2.4678
  456TIP3   OH222926   3.339   2.895   7.351  0.0289 -0.1844 -0.0826
  456TIP3    H122927   3.401   2.947   7.402  0.4038 -1.1512  0.4749
  456TIP3    H222928   3.365   2.909   7.260 -0.3809  1.2174 -0.0069
  457TIP3   OH222929   0.707   0.072   1.704 -0.1565 -0.1113  0.7342
  457TIP3    H122930   0.632   0.098   1.650 -0.4210 -0.6411  0.8401
  457TIP3    H222931   0.703   0.129   1.781  1.2130  1.8631 -0.5598
  458TIP3   OH222932   3.712   4.747   9.222 -0.2747 -0.1159 -0.2344
  458TIP3    H122933   3.655   4.823   9.209  1.9586  1.4471 -1.4701
  458TIP3    H222934   3.715   4.736   9.318 -1.1402  0.9360 -0.0691
  459TIP3   OH222935   1.038   1.442   8.318  0.0498  0.4870 -0.2906
  459TIP3    H122936   0.987   1.448   8.398  0.7058  0.6674  0.1302
  459TIP3    H222937   0.984   1.392   8.258 -0.8011  1.0529 -0.0140
  460TIP3   OH222938   5.274   1.091   8.667  0.1336 -0.6953  0.2631
  460TIP3    H122939   5.277   1.101   8.762 -0.9523 -0.6738  0.3065
  460TIP3    H222940   5.221   1.165   8.637 -0.7070 -1.4731 -0.2185
  461TIP3   OH222941   2.655   1.179   0.286 -0.2139 -0.4861  0.0179
  461TIP3    H122942   2.608   1.257   0.255  0.9169 -0.1280 -0.8791
  461TIP3    H222943   2.610   1.106   0.244  0.4013 -0.1039 -1.4020
  462TIP3   OH222944   3.907   1.254   8.077 -0.1628 -0.1595  0.3307
  462TIP3    H122945   3.830   1.225   8.126  0.1420 -1.8253 -0.1339
  462TIP3    H222946   3.978   1.255   8.142  0.2238 -2.2834 -0.0049
  463TIP3   OH222947   2.958   6.010   0.606  0.1540 -0.1786  0.4409
  463TIP3    H122948   2.993   6.008   0.695 -0.5411 -0.5444  0.7147
  463TIP3    H222949   2.869   5.975   0.614 -0.6652  1.6310 -0.0510
  464TIP3   OH222950   5.752   2.775   7.833 -0.2065  0.0198  0.1229
  464TIP3    H122951   5.717   2.783   7.922 -0.1341  1.2141  0.0689
  464TIP3    H222952   5.846   2.789   7.843  0.2597 -2.6591  0.1965
  465TIP3   OH222953   5.819   6.472   0.897  0.6136  0.5662 -0.0032
  465TIP3    H122954   5.867   6.390   0.904  2.0521  1.3474 -0.2748
  465TIP3    H222955   5.837   6.519   0.978 -0.4962  0.4813  0.3114
  466TIP3   OH222956   5.981   6.539   2.730 -0.1113 -0.7365  0.8087
  466TIP3    H122957   6.019   6.487   2.660 -1.9694 -0.4539 -0.4937
  466TIP3    H222958   5.942   6.476   2.790  0.1132 -0.9266  0.7535
  467TIP3   OH222959   2.954   4.463   7.624  0.5823 -0.3594  0.3392
  467TIP3    H122960   2.913   4.377   7.613 -0.7939  0.4470 -1.0850
  467TIP3    H222961   2.970   4.494   7.535  1.5795  0.6450  0.8458
  468TIP3   OH222962   6.220   4.086   7.009 -0.1594 -0.0863 -0.6157
  468TIP3    H122963   6.232   4.075   6.915  0.7572  0.1319 -0.5344
  468TIP3    H222964   6.129   4.114   7.019 -0.2844 -0.1987 -1.4256
  469TIP3   OH222965   2.087   1.143   1.230 -0.5638  0.0918  0.3422
  469TIP3    H122966   2.002   1.145   1.273 -0.6197  1.8219  0.2419
  469TIP3    H222967   2.125   1.229   1.248  0.1216  0.2599 -1.5978
  470TIP3   OH222968   6.404   6.163   2.611  0.3419 -0.3410 -0.0117
  470TIP3    H122969   6.496   6.159   2.635  0.1008 -0.2764  0.9587
  470TIP3    H222970   6.397   6.241   2.556  0.6948  0.2274  0.7317
  471TIP3   OH222971   4.292   1.522   8.753 -0.2300 -0.1411 -0.6939
  471TIP3    H122972   4.203   1.552   8.770 -0.0869 -0.0201 -0.1498
  471TIP3    H222973   4.285   1.427   8.752 -0.1848 -0.1691  0.4119
  472TIP3   OH222974   1.102   2.029   1.541  0.5293 -0.4386  0.4655
  472TIP3    H122975   1.030   1.968   1.557  1.2692 -1.4126  0.1365
  472TIP3    H222976   1.139   2.045   1.628  1.2440 -1.6135  0.3945
  473TIP3   OH222977   2.960   2.138   0.660 -0.0260 -0.1794 -0.2135
  473TIP3    H122978   2.929   2.137   0.751 -1.9184  0.4980 -0.8005
  473TIP3    H222979   2.948   2.048   0.630  1.0429 -0.5191  0.3039
  474TIP3   OH222980   1.261   3.648   0.064  0.2482  0.8521  0.4384
  474TIP3    H122981   1.302   3.563   0.046  0.9626  0.8716  1.8124
  474TIP3    H222982   1.311   3.710   0.011  0.8991  0.6424  0.7937
  475TIP3   OH222983   0.474   1.526   0.538  0.1359  0.6086  0.0349
  475TIP3    H122984   0.483   1.443   0.586 -1.3228 -0.3354 -1.1984
  475TIP3    H222985   0.382   1.550   0.550 -0.3725  0.1637 -2.4681
  476TIP3   OH222986   0.567   0.427   0.709 -0.2738  0.2710  0.1317
  476TIP3    H122987   0.629   0.407   0.779 -0.0442 -2.1835 -0.6834
  476TIP3    H222988   0.621   0.459   0.637 -0.2510  0.5840  0.2872
  477TIP3   OH222989   2.482   0.859   7.878 -0.7844  0.5710 -0.7230
  477TIP3    H122990   2.503   0.766   7.883  0.0570  0.7766 -0.1623
  477TIP3    H222991   2.528   0.891   7.800 -0.1453  0.7332 -0.2895
  478TIP3   OH222992   2.404   5.618   8.762 -0.7171 -0.3535 -0.4566
  478TIP3    H122993   2.363   5.677   8.698  1.3792  0.4827 -1.1236
  478TIP3    H222994   2.478   5.579   8.714  1.7498  1.3144  1.7243
  479TIP3   OH222995   5.177   4.671   2.387 -0.4780  0.1519 -1.1481
  479TIP3    H122996   5.210   4.729   2.455  0.1762 -0.3893 -0.9829
  479TIP3    H222997   5.160   4.588   2.432 -2.1283  0.4284 -1.2278
  480TIP3   OH222998   0.951   0.972   7.256  0.2369  0.0685 -0.3207
  480TIP3    H122999   0.957   1.064   7.279 -0.1546 -0.1520  0.7101
  480TIP3    H223000   1.035   0.935   7.281  0.1310  0.0027 -0.0615
  481TIP3   OH223001   3.130   0.332   1.112 -0.4772  0.3815  0.1496
  481TIP3    H123002   3.183   0.264   1.070 -0.1373 -0.3555  1.6841
  481TIP3    H223003   3.041   0.314   1.082 -0.2022  0.0921 -0.5143
  482TIP3   OH223004   6.388   1.345   1.281  0.5514  0.2387  0.0898
  482TIP3    H123005   6.331   1.377   1.211 -0.9669  0.0942  1.2150
  482TIP3    H223006   6.419   1.260   1.250 -1.2620 -0.4912  0.1623
  483TIP3   OH223007   1.472   4.229   9.304 -0.0926  0.2883  0.2089
  483TIP3    H123008   1.530   4.254   9.376 -0.3093 -0.6908  0.7464
  483TIP3    H223009   1.503   4.142   9.278 -0.9090  0.0291  0.0712
  484TIP3   OH223010   4.159   0.573   8.322  0.6572  0.1506 -0.9401
  484TIP3    H123011   4.099   0.503   8.343  0.3052  0.9363  0.8015
  484TIP3    H223012   4.226   0.570   8.390  0.0439  2.1476 -0.1828
  485TIP3   OH223013   5.605   2.412   8.234  0.3268 -0.4801  0.2209
  485TIP3    H123014   5.666   2.470   8.188  0.0407 -0.3441  0.0107
  485TIP3    H223015   5.558   2.469   8.294  0.3960 -0.5847  0.3771
  486TIP3   OH223016   5.518   4.244   0.158  0.1554 -0.4174 -0.1361
  486TIP3    H123017   5.525   4.187   0.081 -1.1949 -1.8466  0.7355
  486TIP3    H223018   5.579   4.206   0.221  2.9786  2.0473 -1.1266
  487TIP3   OH223019   2.120   6.603   7.971 -0.3234  0.6148 -0.0586
  487TIP3    H123020   2.177   6.628   8.043  2.2122 -1.1580 -1.2681
  487TIP3    H223021   2.049   6.667   7.972  0.5863  1.7147  2.8288
  488TIP3   OH223022   4.595   3.199   6.779 -0.1423  0.2552  0.9788
  488TIP3    H123023   4.635   3.215   6.864 -0.8608  1.3875  1.1222
  488TIP3    H223024   4.517   3.254   6.779  1.2911  2.4878 -1.5233
  489TIP3   OH223025   4.172   4.715   7.662  0.5933 -0.1774 -0.0224
  489TIP3    H123026   4.090   4.674   7.635  0.7991  0.6363 -2.0836
  489TIP3    H223027   4.166   4.805   7.629  1.5693  0.4324  1.3852
  490TIP3   OH223028   6.393   0.361   8.166 -0.0534  0.2447  0.3384
  490TIP3    H123029   6.433   0.426   8.109  1.5843  0.3066  1.4755
  490TIP3    H223030   6.424   0.383   8.254 -2.1735 -0.0702  1.2509
  491TIP3   OH223031   0.290   2.036   0.070 -0.0895  0.1784 -0.2581
  491TIP3    H123032   0.290   2.130   0.090  2.5230  0.1071  0.4587
  491TIP3    H223033   0.198   2.015   0.056 -1.1922  2.1834  2.8155
  492TIP3   OH223034   5.726   0.292   2.106 -0.2907  0.1660 -0.1176
  492TIP3    H123035   5.769   0.338   2.178 -0.5532 -0.3554  0.3825
  492TIP3    H223036   5.711   0.203   2.140  0.9884 -0.5719 -1.3569
  493TIP3   OH223037   3.715   1.905   8.461 -0.3708 -0.5476 -0.0987
  493TIP3    H123038   3.764   1.950   8.392  1.1622 -0.9697  0.6852
  493TIP3    H223039   3.661   1.974   8.499  0.2641  0.1297 -0.3982
  494TIP3   OH223040   1.712   4.220   7.976 -0.1206 -0.1317  0.2933
  494TIP3    H123041   1.668   4.304   7.985 -0.3448  0.3573 -3.5067
  494TIP3    H223042   1.805   4.242   7.976 -0.1356 -0.0758  0.7810
  495TIP3   OH223043   1.445   5.069   7.669  0.1975  0.2547  0.3031
  495TIP3    H123044   1.349   5.080   7.669  0.3996  2.7587 -0.4047
  495TIP3    H223045   1.472   5.101   7.755  0.3900 -0.7815  0.6353
  496TIP3   OH223046   2.965   0.028   1.738 -0.0252  0.0667  0.3781
  496TIP3    H123047   2.966  -0.056   1.784 -0.0958 -0.4563 -0.5558
  496TIP3    H223048   2.935   0.090   1.804 -0.8676 -0.7955  0.8505
  497TIP3   OH223049   1.435   0.811   2.065  0.1885  0.5633 -0.2316
  497TIP3    H123050   1.524   0.843   2.057  0.5872 -0.3273  0.3900
  497TIP3    H223051   1.389   0.847   1.990  1.8403 -1.4702 -2.3949
  498TIP3   OH223052   4.885   1.064   0.216 -0.5232  0.4310  0.1277
  498TIP3    H123053   4.854   1.089   0.303 -0.5528 -1.3434  0.6728
  498TIP3    H223054   4.816   1.006   0.182  0.4800 -0.6328 -0.1528
  499TIP3   OH223055   5.099   2.745   8.286  0.3124  0.3642  0.0367
  499TIP3    H123056   5.038   2.785   8.347 -0.0704  0.0528 -0.1397
  499TIP3    H223057   5.119   2.659   8.324  0.0176  0.1396 -0.3089
  500TIP3   OH223058   0.020   0.802   8.014  0.5966  0.5143  0.3474
  500TIP3    H123059   0.037   0.772   8.103  1.1169 -0.1759  0.0239
  500TIP3    H223060   0.085   0.870   7.998  1.9589 -0.8656 -0.2518
  501TIP3   OH223061   2.864   0.564   7.810  0.4302 -0.0514  0.0275
  501TIP3    H123062   2.889   0.625   7.741  0.7713  1.2248  1.2320
  501TIP3    H223063   2.768   0.567   7.811  0.3099 -1.6884 -1.7476
  502TIP3   OH223064   2.832   2.785   8.816 -0.3637  0.2397 -0.3587
  502TIP3    H123065   2.820   2.837   8.736 -2.0174  1.2672  0.5107
  502TIP3    H223066   2.926   2.764   8.817 -0.0252  1.5157 -1.7719
  503TIP3   OH223067   5.799   5.075   7.715  0.2821 -0.4790 -0.5329
  503TIP3    H123068   5.841   5.144   7.768  1.1353 -0.8582 -0.7088
  503TIP3    H223069   5.794   5.000   7.774 -0.6670 -0.2763 -0.3361
  504TIP3   OH223070   5.950   5.989   1.470 -0.3510 -0.7958 -0.3387
  504TIP3    H123071   5.942   6.070   1.520 -0.1676 -0.8840 -0.1663
  504TIP3    H223072   5.875   5.936   1.499  1.2957 -2.0157  1.9961
  505TIP3   OH223073   2.216   2.174   8.983 -0.7407 -0.0685 -0.0248
  505TIP3    H123074   2.143   2.222   9.024 -2.2192 -0.4055 -2.1248
  505TIP3    H223075   2.240   2.228   8.908 -0.0775 -0.8957 -0.4131
  506TIP3   OH223076   4.775   2.612   8.721  0.3232 -0.4281  0.6595
  506TIP3    H123077   4.835   2.596   8.794  0.0625 -2.5114  0.4802
  506TIP3    H223078   4.827   2.596   8.643 -0.5022 -2.8087  0.5054
  507TIP3   OH223079   5.826   5.135   1.824 -0.3020  0.1459 -0.2973
  507TIP3    H123080   5.779   5.218   1.823  2.3034  1.7315 -1.5416
  507TIP3    H223081   5.854   5.122   1.734  0.7206 -1.2676  0.1907
  508TIP3   OH223082   0.282   3.217   9.263 -0.3372 -0.6429 -0.2120
  508TIP3    H123083   0.217   3.287   9.274 -0.6699 -1.1903  1.6077
  508TIP3    H223084   0.231   3.136   9.269  0.2833 -1.0606 -0.5411
  509TIP3   OH223085   5.462   1.664   7.843  0.4068 -0.0896  0.0975
  509TIP3    H123086   5.401   1.598   7.812  0.6556  0.8202 -2.6209
  509TIP3    H223087   5.530   1.615   7.889 -1.6695 -1.2189  2.1458
  510TIP3   OH223088   0.349   5.777   1.812  0.3692  0.0703 -0.1389
  510TIP3    H123089   0.419   5.839   1.791  0.5232  0.3082  0.9953
  510TIP3    H223090   0.393   5.693   1.819  0.5614  0.2234  0.5976
  511TIP3   OH223091   2.742   3.568   7.636 -0.1213  0.0499  0.2840
  511TIP3    H123092   2.775   3.524   7.714 -1.6753 -2.0259 -0.1348
  511TIP3    H223093   2.671   3.623   7.669  0.2550  0.4050  0.5144
  512TIP3   OH223094   5.506   0.446   0.813 -0.3448 -0.3584  0.1454
  512TIP3    H123095   5.555   0.405   0.742  1.1817 -1.4937  1.7715
  512TIP3    H223096   5.423   0.399   0.815 -0.2974 -0.4987 -0.6860
  513TIP3   OH223097   3.902   1.505   7.011 -0.2795 -0.1057  0.6588
  513TIP3    H123098   3.976   1.506   6.950 -1.4285 -0.2112 -0.7806
  513TIP3    H223099   3.861   1.590   7.000 -1.2470 -0.6012  0.3111
  514TIP3   OH223100   2.665   1.038   8.307  0.2628  0.1550  0.5175
  514TIP3    H123101   2.583   1.009   8.268 -0.0052 -0.6805  1.6513
  514TIP3    H223102   2.688   1.118   8.259  0.7642 -1.5753 -2.3815
  515TIP3   OH223103   0.397   5.510   0.357 -0.2518 -0.2277 -0.9495
  515TIP3    H123104   0.419   5.454   0.432 -0.0502 -0.6589 -1.3289
  515TIP3    H223105   0.466   5.494   0.293 -0.6045 -0.1127 -1.3663
  516TIP3   OH223106   6.595   1.506   7.616 -0.0391 -0.2600  0.1408
  516TIP3    H123107   6.603   1.525   7.523 -0.8269 -1.6331 -0.2390
  516TIP3    H223108   6.510   1.463   7.625 -1.0790  1.9450  1.8878
  517TIP3   OH223109   4.338   3.556   9.028  0.2191 -0.3287 -0.2169
  517TIP3    H123110   4.333   3.464   9.052 -2.5770 -0.8555 -2.2958
  517TIP3    H223111   4.287   3.602   9.095  2.1234 -0.1168  1.1680
  518TIP3   OH223112   5.899   0.408   1.817  0.0251 -0.1473 -0.6451
  518TIP3    H123113   5.883   0.342   1.750 -0.2459 -0.7876  0.0278
  518TIP3    H223114   5.815   0.416   1.863  0.5882 -0.8512  0.5785
  519TIP3   OH223115   3.157   1.042   2.534 -0.2642 -0.0829  0.1977
  519TIP3    H123116   3.228   1.100   2.562 -0.0733  0.2831 -0.9678
  519TIP3    H223117   3.095   1.099   2.490  1.1229 -0.9481 -3.2991
  520TIP3   OH223118   6.487   2.960   7.153 -0.7852 -0.2910  0.5686
  520TIP3    H123119   6.449   2.886   7.201  1.3016 -1.7378  0.0865
  520TIP3    H223120   6.462   2.944   7.062 -2.1498  0.8138  0.7143
  521TIP3   OH223121   2.793   2.415   0.276 -0.3352 -0.5664  0.1019
  521TIP3    H123122   2.869   2.400   0.220  0.2689 -0.1001  0.7830
  521TIP3    H223123   2.825   2.399   0.365 -1.3337 -1.4859  0.3082
  522TIP3   OH223124   3.074   5.728   2.052 -0.0475  0.2659  0.5398
  522TIP3    H123125   2.991   5.703   2.093 -0.5314  2.5607  1.0779
  522TIP3    H223126   3.049   5.753   1.963 -0.1472  2.0035  1.0305
  523TIP3   OH223127   2.347   0.447   8.225 -0.4610 -0.1553 -0.4585
  523TIP3    H123128   2.414   0.509   8.196 -0.6615 -0.1302 -0.8732
  523TIP3    H223129   2.387   0.361   8.210 -0.4260 -0.1354 -0.4805
  524TIP3   OH223130   2.289   5.360   0.202  0.1885  0.2671  0.4037
  524TIP3    H123131   2.208   5.309   0.199  0.9724 -1.2426  2.3023
  524TIP3    H223132   2.264   5.448   0.175 -1.9651 -0.2936  0.4213
  525TIP3   OH223133   4.150   2.569   8.335 -0.0048  0.3653 -0.0163
  525TIP3    H123134   4.136   2.605   8.422  3.2300  1.2220  0.2897
  525TIP3    H223135   4.164   2.475   8.350 -0.5679  0.3130  0.2115
  526TIP3   OH223136   0.643   0.727   0.926  0.3624 -0.4338 -0.2036
  526TIP3    H123137   0.649   0.817   0.958 -0.9000 -0.6189  0.6465
  526TIP3    H223138   0.601   0.734   0.841 -1.5227 -0.3142  0.6833
  527TIP3   OH223139   5.202   6.006   1.952 -0.2675  0.2102  0.5474
  527TIP3    H123140   5.209   6.025   2.045  0.2218 -0.1918  0.5996
  527TIP3    H223141   5.144   5.930   1.947  1.0267 -0.8193  0.6683
  528TIP3   OH223142   4.009   0.572   2.133 -0.1669  0.0187  0.1794
  528TIP3    H123143   3.994   0.488   2.175 -0.9812 -0.3338 -0.8027
  528TIP3    H223144   3.974   0.636   2.195 -0.0720 -0.3960  0.6685
  529TIP3   OH223145   4.498   1.436   0.027  0.1902 -0.2307 -0.4418
  529TIP3    H123146   4.530   1.408   0.113 -2.0915 -0.0846  0.5004
  529TIP3    H223147   4.516   1.530   0.025 -2.2843  0.3473  1.1228
  530TIP3   OH223148   5.903   5.311   8.370 -0.3623 -0.1415  1.2875
  530TIP3    H123149   5.831   5.280   8.425 -0.0643 -1.1491  1.1327
  530TIP3    H223150   5.964   5.238   8.367 -0.9920 -0.6783 -1.4844
  531TIP3   OH223151   2.509   6.186   1.194  0.3148  0.0980  0.0974
  531TIP3    H123152   2.581   6.234   1.235  0.1318  0.4559 -0.0004
  531TIP3    H223153   2.430   6.231   1.223  0.1585  0.0698 -0.2755
  532TIP3   OH223154   2.486   0.226   8.134 -0.1566 -0.3470 -0.4209
  532TIP3    H123155   2.571   0.243   8.174  0.8319 -2.3527 -1.5367
  532TIP3    H223156   2.504   0.223   8.040 -1.4215 -0.9439 -0.6679
  533TIP3   OH223157   4.599   4.239   7.675 -0.0437 -0.2738 -0.1298
  533TIP3    H123158   4.597   4.295   7.752 -0.1063  0.6685 -0.8049
  533TIP3    H223159   4.540   4.281   7.613 -0.5106 -1.3771 -0.4607
  534TIP3   OH223160   0.077   2.519   8.148  0.4079 -0.8264 -0.6281
  534TIP3    H123161   0.084   2.510   8.243  0.6247 -2.3712 -0.7627
  534TIP3    H223162   0.140   2.456   8.114  0.2503 -0.3686 -1.8082
  535TIP3   OH223163   6.574   3.924   7.882 -0.3417 -0.0495  0.1999
  535TIP3    H123164   6.663   3.889   7.887  1.3460  3.7477  0.4796
  535TIP3    H223165   6.562   3.943   7.789 -1.1685 -1.0770  0.0760
  536TIP3   OH223166   0.952   6.163   8.798 -0.1584  0.1862 -0.2183
  536TIP3    H123167   0.956   6.118   8.713  1.0392  2.5131 -1.5060
  536TIP3    H223168   0.861   6.193   8.805 -0.3177 -0.1987 -0.5651
  537TIP3   OH223169   4.873   0.400   1.565 -0.0163 -0.1180 -0.3863
  537TIP3    H123170   4.901   0.368   1.651 -1.4006 -1.0070 -0.2256
  537TIP3    H223171   4.813   0.333   1.533  0.5772  0.1421 -2.1253
  538TIP3   OH223172   5.749   0.128   0.411  0.2914  0.2233  0.3219
  538TIP3    H123173   5.683   0.097   0.348  0.7071  1.9369 -1.0205
  538TIP3    H223174   5.815   0.058   0.413 -1.2613 -1.2920  1.3170
  539TIP3   OH223175   4.440   3.954   8.300 -0.4339  0.4652  0.4142
  539TIP3    H123176   4.441   4.039   8.256 -0.2911  0.0660 -0.3638
  539TIP3    H223177   4.377   3.965   8.371 -0.3793  1.2358  0.3540
  540TIP3   OH223178   2.207   4.374   1.778 -0.4144 -0.1577  0.1010
  540TIP3    H123179   2.156   4.303   1.817 -0.8608 -1.1280 -2.1291
  540TIP3    H223180   2.162   4.393   1.696  2.8362 -1.1305 -2.0707
  541TIP3   OH223181   0.898   1.815   9.311  0.4561 -0.7726 -0.1011
  541TIP3    H123182   0.811   1.814   9.350 -0.4384 -1.7800 -2.0322
  541TIP3    H223183   0.889   1.768   9.228  3.1613 -2.2655  0.3155
  542TIP3   OH223184   6.354   3.634   0.907  0.2408  0.2654  0.1840
  542TIP3    H123185   6.307   3.551   0.900  1.3832 -0.4744  0.8118
  542TIP3    H223186   6.411   3.622   0.983  1.8332  0.8891 -0.8600
  543TIP3   OH223187   0.006   2.470   7.497  0.3318 -0.0264 -0.1611
  543TIP3    H123188  -0.032   2.500   7.580  4.2997  0.4182  1.7362
  543TIP3    H223189   0.079   2.530   7.481  1.8102 -2.1523 -2.1214
  544TIP3   OH223190   5.019   3.312   7.493  0.4369  0.0150  1.0790
  544TIP3    H123191   4.991   3.402   7.476 -0.0777 -0.0393  1.6063
  544TIP3    H223192   4.941   3.259   7.480  1.0935 -0.5793 -0.7931
  545TIP3   OH223193   3.762   5.396   1.613 -0.2639 -0.5025 -1.1241
  545TIP3    H123194   3.773   5.470   1.673 -1.6303 -0.0660 -1.3793
  545TIP3    H223195   3.830   5.333   1.639 -1.4527 -0.7746  1.5502
  546TIP3   OH223196   2.783   5.119   2.136 -0.3410  0.5803 -0.3051
  546TIP3    H123197   2.697   5.147   2.168  0.6581  0.7341  2.6047
  546TIP3    H223198   2.840   5.194   2.151  0.8261 -0.4120  0.4824
  547TIP3   OH223199   4.926   5.749   2.296  0.2474  0.2615  0.2237
  547TIP3    H123200   4.982   5.817   2.333  3.0711 -0.4844 -2.2737
  547TIP3    H223201   4.968   5.667   2.323 -2.4987 -0.6192  2.3171
  548TIP3   OH223202   0.512   5.568   8.805  0.7568  0.0317  0.3771
  548TIP3    H123203   0.460   5.646   8.825 -1.3013 -0.9947 -0.7161
  548TIP3    H223204   0.570   5.596   8.734  0.9456  0.9082  0.8652
  549TIP3   OH223205   3.375   1.888   9.232 -0.5030 -0.0590  0.7039
  549TIP3    H123206   3.458   1.841   9.230  0.0285  0.8691 -0.1276
  549TIP3    H223207   3.380   1.942   9.312 -1.0253 -1.2182  1.5425
  550TIP3   OH223208   1.020   3.540   7.138 -0.1416  0.0369 -0.3506
  550TIP3    H123209   0.945   3.488   7.169  0.8703 -2.0127 -1.1714
  550TIP3    H223210   1.021   3.525   7.043  2.1790 -1.2548 -0.1791
  551TIP3   OH223211   4.960   6.557   8.688 -0.2734  0.2706 -0.6583
  551TIP3    H123212   4.959   6.473   8.734  0.9172  0.3188 -0.5123
  551TIP3    H223213   4.870   6.569   8.658 -0.8430 -0.2631  0.7458
  552TIP3   OH223214   4.135   0.237   0.902 -0.2347 -0.2628  0.0168
  552TIP3    H123215   4.053   0.272   0.937  0.0861 -0.5036  1.0488
  552TIP3    H223216   4.157   0.295   0.829 -2.7367 -1.8101 -2.1347
  553TIP3   OH223217   3.832   6.600   7.382 -0.1521  0.1944  0.2149
  553TIP3    H123218   3.765   6.552   7.430  0.0061 -2.2359 -1.7796
  553TIP3    H223219   3.915   6.575   7.423  0.0008 -2.0298 -1.2925
  554TIP3   OH223220   1.075   3.634   0.483 -0.0587 -0.3120  0.5172
  554TIP3    H123221   1.060   3.599   0.395  1.9210  1.8991 -0.8214
  554TIP3    H223222   1.003   3.697   0.497 -0.4577 -0.7736  0.5680
  555TIP3   OH223223   2.854   3.657   8.743  0.0362 -0.0324  0.4669
  555TIP3    H123224   2.830   3.709   8.819  0.7071  0.6465  0.2277
  555TIP3    H223225   2.945   3.630   8.760  0.8774  1.7282 -0.9278
  556TIP3   OH223226   3.225   3.362   8.602  0.2299 -0.8944 -0.2033
  556TIP3    H123227   3.306   3.312   8.599  0.6360 -0.3061  0.5112
  556TIP3    H223228   3.250   3.450   8.575 -0.0535 -0.5726  0.5505
  557TIP3   OH223229   0.652   4.936   1.400 -0.3890 -0.7562  0.0478
  557TIP3    H123230   0.739   4.921   1.363 -0.4257 -0.1046 -0.3170
  557TIP3    H223231   0.660   4.909   1.492  0.3027 -0.3737  0.1098
  558TIP3   OH223232   3.123   3.138   8.301 -0.3211  0.4304  0.3832
  558TIP3    H123233   3.142   3.047   8.320 -0.1199  0.8708  2.5331
  558TIP3    H223234   3.038   3.138   8.258 -0.2095 -0.7617  0.1506
  559TIP3   OH223235   4.633   5.102   0.323  0.3209  0.5679 -0.8172
  559TIP3    H123236   4.581   5.164   0.375  0.7989  0.4527 -0.1933
  559TIP3    H223237   4.571   5.068   0.258 -0.3565  0.5299 -0.1730
  560TIP3   OH223238   4.251   2.007   0.859 -0.3941 -0.0494  0.2734
  560TIP3    H123239   4.172   2.053   0.831 -0.2277 -0.1653 -0.3950
  560TIP3    H223240   4.302   1.996   0.779  0.9206  1.2188  0.9089
  561TIP3   OH223241   3.165   3.219   0.195 -0.3506 -0.4896 -0.1123
  561TIP3    H123242   3.254   3.241   0.219 -0.0635 -1.3269 -0.3496
  561TIP3    H223243   3.160   3.124   0.206 -0.9095 -0.5855 -1.0428
  562TIP3   OH223244   3.172   1.282   1.860 -0.2808  0.3468  0.0239
  562TIP3    H123245   3.161   1.370   1.895 -2.0924 -0.1243  0.7531
  562TIP3    H223246   3.175   1.225   1.937  4.2666 -0.0750 -0.1604
  563TIP3   OH223247   1.132   1.856   0.919  0.0264 -0.8205 -0.1687
  563TIP3    H123248   1.157   1.943   0.889  0.9063 -0.7533  0.7297
  563TIP3    H223249   1.050   1.869   0.966 -0.5498 -0.6928 -1.1895
  564TIP3   OH223250   0.089   0.953   0.755 -0.1097 -0.1375  0.7013
  564TIP3    H123251   0.082   1.044   0.783  1.9402  0.2020  0.2759
  564TIP3    H223252   0.063   0.954   0.663  0.0938  0.0667  0.6439
  565TIP3   OH223253   1.145   2.114   7.792  0.4655 -0.5055  0.5653
  565TIP3    H123254   1.120   2.142   7.704  0.8259  1.1991  0.9720
  565TIP3    H223255   1.153   2.195   7.842 -1.2183 -1.4914  2.5978
  566TIP3   OH223256   2.354   2.935   7.277 -0.1698  0.2667 -0.0186
  566TIP3    H123257   2.315   2.897   7.199  0.0967 -0.1274  0.0384
  566TIP3    H223258   2.439   2.967   7.248 -0.4368  0.9317 -0.0933
  567TIP3   OH223259   0.759   6.167   8.333  0.6158 -0.4597  0.1577
  567TIP3    H123260   0.744   6.212   8.416  0.9393  1.4756 -0.7708
  567TIP3    H223261   0.672   6.160   8.294  0.6531  0.0411 -0.0190
  568TIP3   OH223262   4.651   1.040   8.245 -0.2205 -0.2046  0.1339
  568TIP3    H123263   4.562   1.007   8.231 -0.4610  0.1129  0.8169
  568TIP3    H223264   4.641   1.103   8.316  0.1162  1.8412 -1.5570
  569TIP3   OH223265   2.814   3.823   8.942 -0.0400 -0.3036  0.6668
  569TIP3    H123266   2.724   3.809   8.971 -0.1291 -0.1420  0.4695
  569TIP3    H223267   2.856   3.867   9.016 -0.3587  0.4161  0.4327
  570TIP3   OH223268   6.412   1.519   9.255  0.2080 -0.8147  0.4053
  570TIP3    H123269   6.437   1.527   9.163 -1.7322 -0.8964 -0.1812
  570TIP3    H223270   6.327   1.475   9.253 -0.8365  0.9653  2.1238
  571TIP3   OH223271   4.529   5.278   9.177  0.5182  0.0894 -0.7251
  571TIP3    H123272   4.562   5.234   9.099  0.2140  0.5924 -1.1483
  571TIP3    H223273   4.500   5.364   9.146 -0.5929 -0.0907 -0.2639
  572TIP3   OH223274   2.740   4.458   8.714  0.1435  0.2674  0.3633
  572TIP3    H123275   2.793   4.529   8.751  1.5483  0.6709 -2.1948
  572TIP3    H223276   2.672   4.503   8.663 -0.6294 -0.2615  0.9098
  573TIP3   OH223277   2.452   1.373   9.143 -0.3023  0.3120 -0.2720
  573TIP3    H123278   2.492   1.317   9.211 -1.2271  0.3612  0.3337
  573TIP3    H223279   2.456   1.461   9.180 -0.0310  0.4626 -0.6606
  574TIP3   OH223280   4.298   0.249   7.711 -0.3764  0.0019 -0.4242
  574TIP3    H123281   4.284   0.248   7.616 -0.6183  1.5649 -0.4355
  574TIP3    H223282   4.317   0.158   7.733 -0.3827 -0.4100 -1.9584
  575TIP3   OH223283   6.448   4.895   7.994 -0.1193  0.0932 -0.3689
  575TIP3    H123284   6.478   4.923   8.081  0.2340  0.2523 -0.5399
  575TIP3    H223285   6.364   4.939   7.983 -0.2498 -0.0713 -0.0317
  576TIP3   OH223286   1.674   6.002   8.800 -0.2323 -0.3917 -0.2919
  576TIP3    H123287   1.669   6.086   8.754  1.9937 -1.4257 -2.7120
  576TIP3    H223288   1.755   6.008   8.850  0.7241 -1.5548 -1.6383
  577TIP3   OH223289   3.611   2.344   8.505 -0.3266 -0.8652  0.8238
  577TIP3    H123290   3.545   2.413   8.507  0.1197 -0.3014 -1.2252
  577TIP3    H223291   3.691   2.386   8.538  0.0680 -0.1780 -0.8732
  578TIP3   OH223292   1.765   4.236   1.683  0.5735 -0.2131  0.0988
  578TIP3    H123293   1.797   4.155   1.642  0.1321  0.5722 -1.9005
  578TIP3    H223294   1.722   4.206   1.763 -0.0026 -2.0277 -0.8130
  579TIP3   OH223295   1.842   5.746   0.031 -0.0779  0.4436 -0.7096
  579TIP3    H123296   1.781   5.678   0.002  2.1201 -2.3645  0.7634
  579TIP3    H223297   1.806   5.777   0.114 -0.0818 -0.3933 -0.3933
  580TIP3   OH223298   1.253   1.044   0.642  0.0484 -0.1254 -0.3942
  580TIP3    H123299   1.344   1.031   0.617  0.0163 -1.0931 -0.0459
  580TIP3    H223300   1.256   1.051   0.738 -0.4363 -2.1497 -0.1868
  581TIP3   OH223301   3.644   1.230   7.150  0.5270  0.5419  0.1902
  581TIP3    H123302   3.725   1.219   7.099 -0.7703 -1.4346 -1.5986
  581TIP3    H223303   3.665   1.299   7.213  3.2432  0.8759 -0.9348
  582TIP3   OH223304   1.298   3.773   1.412  0.0873  0.3403  0.1691
  582TIP3    H123305   1.310   3.678   1.408 -0.6704  0.2576 -0.3096
  582TIP3    H223306   1.384   3.806   1.437  0.1413 -0.5256  1.2204
  583TIP3   OH223307   0.481   6.581   0.910 -0.1138 -0.2917 -0.0928
  583TIP3    H123308   0.479   6.665   0.864 -2.0981 -0.6409 -0.7739
  583TIP3    H223309   0.521   6.600   0.994  1.4725  0.8591 -1.0613
  584TIP3   OH223310   0.552   3.735   7.944  0.4471  0.1152 -0.6720
  584TIP3    H123311   0.512   3.817   7.914 -0.2951 -0.1645 -0.4756
  584TIP3    H223312   0.620   3.716   7.879 -0.6688 -0.1142 -1.8213
  585TIP3   OH223313   5.322   5.817   0.715 -0.5563 -0.0040  0.2132
  585TIP3    H123314   5.288   5.822   0.626  0.5827 -1.0346 -0.2969
  585TIP3    H223315   5.255   5.860   0.768 -1.6000 -0.0256 -1.0364
  586TIP3   OH223316   3.437   2.530   7.657 -0.3374 -0.4973 -0.3152
  586TIP3    H123317   3.410   2.461   7.718  1.8468 -0.3806  0.8873
  586TIP3    H223318   3.363   2.591   7.656 -0.8859 -1.0636  1.3572
  587TIP3   OH223319   5.120   6.012   8.672  0.3328 -0.1665  0.2736
  587TIP3    H123320   5.198   5.959   8.653 -0.4798 -0.7772 -1.6727
  587TIP3    H223321   5.057   5.987   8.604 -0.9282  1.6264  0.6965
  588TIP3   OH223322   4.376   3.961   2.082  0.1535  0.3724 -0.4238
  588TIP3    H123323   4.459   3.993   2.118  0.8930  0.3862 -2.0845
  588TIP3    H223324   4.372   3.997   1.994 -1.4307  0.0129 -0.5294
  589TIP3   OH223325   0.692   0.268   8.595 -0.4485 -0.6125 -0.0736
  589TIP3    H123326   0.758   0.281   8.663 -0.8423 -0.9617  0.3840
  589TIP3    H223327   0.717   0.328   8.525 -0.1143 -0.1510  0.4356
  590TIP3   OH223328   2.538   1.345   8.225 -0.3853 -0.3629 -0.1272
  590TIP3    H123329   2.566   1.434   8.202  2.0810 -1.3261 -1.2364
  590TIP3    H223330   2.545   1.342   8.321 -1.9091  1.0185  0.0615
  591TIP3   OH223331   2.306   6.276   1.416  0.9304  0.1064 -0.1861
  591TIP3    H123332   2.291   6.339   1.486 -0.4818  0.4188 -0.7426
  591TIP3    H223333   2.220   6.237   1.400  1.3914 -0.5359 -1.2007
  592TIP3   OH223334   3.721   4.622   8.979  0.0020  0.0952  0.0516
  592TIP3    H123335   3.803   4.669   8.963 -0.3725  1.5136  1.9282
  592TIP3    H223336   3.694   4.651   9.066 -1.4943 -1.8682  0.2915
  593TIP3   OH223337   1.309   5.459   1.891 -0.1527  0.3014 -0.0412
  593TIP3    H123338   1.219   5.456   1.858 -0.2432  2.6862 -0.1779
  593TIP3    H223339   1.303   5.513   1.970  1.1561  0.5272 -0.0839
  594TIP3   OH223340   4.922   3.315   0.853 -0.4286  0.2845  0.5642
  594TIP3    H123341   4.982   3.334   0.925 -0.7464  1.3655  0.5621
  594TIP3    H223342   4.857   3.256   0.891  1.5290 -2.3560  0.1273
  595TIP3   OH223343   2.257   6.132   0.375  0.6002  1.3433  0.2091
  595TIP3    H123344   2.199   6.085   0.435  1.6099 -0.1926  0.0369
  595TIP3    H223345   2.269   6.072   0.301  1.5006  2.0962 -0.2776
  596TIP3   OH223346   2.820   0.579   8.195  0.0857  0.0869  0.3142
  596TIP3    H123347   2.734   0.566   8.155  0.2640  2.4044 -0.9979
  596TIP3    H223348   2.819   0.669   8.228  1.9190  0.0883  0.5164
  597TIP3   OH223349   2.112   3.481   1.294 -0.1586  0.0710 -0.1462
  597TIP3    H123350   2.025   3.452   1.266 -0.5449 -0.8411  1.8755
  597TIP3    H223351   2.172   3.419   1.252 -0.6606 -0.7854  0.3715
  598TIP3   OH223352   4.620   2.497   1.673  0.1925 -0.3382 -0.2223
  598TIP3    H123353   4.626   2.454   1.588  1.1186 -1.5916  0.4378
  598TIP3    H223354   4.708   2.531   1.689  0.6631 -2.0237  1.1460
  599TIP3   OH223355   4.559   1.872   0.713 -0.1634 -0.0464 -0.0170
  599TIP3    H123356   4.583   1.958   0.678  0.5653  0.0386  0.6848
  599TIP3    H223357   4.470   1.857   0.679  0.5086  0.0151 -1.9303
  600TIP3   OH223358   4.544   0.383   7.798  0.9228 -0.1826  0.0241
  600TIP3    H123359   4.541   0.392   7.893  1.9572  0.9505 -0.0167
  600TIP3    H223360   4.468   0.329   7.776 -0.1459  0.7250  1.3487
  601TIP3   OH223361   2.630   0.128   2.001 -0.3425  0.0225  0.2990
  601TIP3    H123362   2.589   0.081   2.073 -1.6600  0.0777 -0.3836
  601TIP3    H223363   2.655   0.059   1.939 -0.7844  0.0895  0.0401
  602TIP3   OH223364   2.677   5.265   8.937  0.2878  0.2320 -0.7715
  602TIP3    H123365   2.660   5.247   9.029 -1.1678  1.1514 -0.8373
  602TIP3    H223366   2.685   5.360   8.931  0.8019  0.1510 -1.5281
  603TIP3   OH223367   1.976   1.876   8.723 -0.0777  0.0598 -0.4662
  603TIP3    H123368   1.898   1.864   8.777 -0.3992  1.5208 -0.5689
  603TIP3    H223369   1.984   1.971   8.712  0.4696 -0.1427 -2.2584
  604TIP3   OH223370   6.286   1.572   7.109 -0.4181 -0.6918 -0.4966
  604TIP3    H123371   6.306   1.665   7.123 -1.6339 -0.3384 -0.9404
  604TIP3    H223372   6.368   1.535   7.077  0.9206 -0.4017  2.2696
  605TIP3   OH223373   2.255   1.824   7.882 -0.5649 -0.3541  0.5326
  605TIP3    H123374   2.211   1.760   7.936  0.5577 -2.1596 -0.5707
  605TIP3    H223375   2.312   1.772   7.825  1.7082  1.6977  0.7372
  606TIP3   OH223376   3.434   4.908   7.415 -0.4075  0.3905 -0.1681
  606TIP3    H123377   3.521   4.884   7.447 -0.8541  0.4911  1.1781
  606TIP3    H223378   3.427   4.866   7.329  0.1420 -1.4415  0.6489
  607TIP3   OH223379   3.150   5.180   1.600 -0.2957 -0.1861 -0.0111
  607TIP3    H123380   3.072   5.150   1.647  0.0910 -0.7199  0.3073
  607TIP3    H223381   3.219   5.117   1.625  0.5783  1.0338  0.7741
  608TIP3   OH223382   5.556   6.242   1.833 -0.4962  0.0358  0.8474
  608TIP3    H123383   5.512   6.302   1.893 -1.4910 -0.0073  0.1799
  608TIP3    H223384   5.605   6.300   1.774 -0.2888  0.1215  1.1037
  609TIP3   OH223385   3.506   2.909   0.245 -0.2843 -0.1241 -0.2060
  609TIP3    H123386   3.541   2.912   0.334 -1.0323  1.5424  0.0686
  609TIP3    H223387   3.412   2.926   0.256 -0.4136 -0.1076 -1.2907
  610TIP3   OH223388   0.270   2.539   0.780 -0.9104  0.1576 -0.6513
  610TIP3    H123389   0.323   2.461   0.800  1.1101  1.5841 -0.1051
  610TIP3    H223390   0.182   2.515   0.808 -0.2138 -1.7028  0.1473
  611TIP3   OH223391   4.766   4.148   1.814 -0.5164 -0.1741 -0.0868
  611TIP3    H123392   4.839   4.135   1.876  0.1294 -0.0057 -0.7957
  611TIP3    H223393   4.807   4.141   1.728 -0.8065  2.5947 -0.5386
  612TIP3   OH223394   1.815   5.975   2.689 -0.5396 -0.3238 -0.0928
  612TIP3    H123395   1.896   5.938   2.723 -0.6332 -1.1501 -0.7312
  612TIP3    H223396   1.817   6.067   2.715  0.5835 -0.3507 -0.0653
  613TIP3   OH223397   1.448   2.856   2.709  0.0079 -0.4618 -0.0756
  613TIP3    H123398   1.428   2.773   2.664  0.9655 -0.4157 -0.6027
  613TIP3    H223399   1.435   2.923   2.642 -0.9111 -0.1558  0.3905
  614TIP3   OH223400   2.267   4.980   8.957  0.0783  0.2585  0.1387
  614TIP3    H123401   2.286   5.056   8.901  2.7610 -1.4934 -1.5528
  614TIP3    H223402   2.340   4.977   9.019  0.2790 -1.1572 -0.1281
  615TIP3   OH223403   5.814   5.617   7.834  0.2352 -0.2258 -0.4554
  615TIP3    H123404   5.741   5.561   7.807  0.3525 -0.8483  0.4760
  615TIP3    H223405   5.812   5.614   7.930  1.5748 -0.3766 -0.4173
  616TIP3   OH223406   4.802   5.187   1.526  0.0936  0.1315  0.5021
  616TIP3    H123407   4.722   5.238   1.510  0.5052  0.6935  0.1813
  616TIP3    H223408   4.827   5.153   1.440 -0.1140 -0.5220  0.6973
  617TIP3   OH223409   3.706   5.501   2.586 -0.6658  0.3511 -0.1905
  617TIP3    H123410   3.750   5.420   2.562  0.6453  1.8251 -3.2936
  617TIP3    H223411   3.613   5.482   2.575 -0.4885 -1.0657  0.5180
  618TIP3   OH223412   4.900   2.378   0.762  0.0422  0.6285 -0.1720
  618TIP3    H123413   4.960   2.363   0.836  1.9762  1.5984 -1.4481
  618TIP3    H223414   4.813   2.366   0.799  0.9956 -0.6219  1.8466
  619TIP3   OH223415   1.090   2.797   7.465  0.0728  0.1956 -0.4011
  619TIP3    H123416   1.161   2.780   7.526 -0.4239  0.6696  0.3181
  619TIP3    H223417   1.024   2.731   7.485 -0.0426  0.2768 -0.5092
  620TIP3   OH223418   3.116   4.531   8.622  0.1085  0.5067  0.2755
  620TIP3    H123419   3.057   4.455   8.612  0.4402  0.3512 -0.5832
  620TIP3    H223420   3.202   4.492   8.635  0.1291  0.7429  0.8815
  621TIP3   OH223421   3.838   3.144   2.605 -0.3165  0.1151  1.0248
  621TIP3    H123422   3.776   3.200   2.559 -0.6087 -1.1547 -0.1687
  621TIP3    H223423   3.880   3.203   2.668 -1.9924  1.2251  1.1668
  622TIP3   OH223424   0.869   4.097   1.924  0.1502 -0.1069  0.0634
  622TIP3    H123425   0.805   4.154   1.967 -0.9219 -0.7637 -0.6152
  622TIP3    H223426   0.857   4.012   1.966 -0.2107 -0.5039 -0.8251
  623TIP3   OH223427   4.711   2.391   7.515  0.0497  0.0822  0.5674
  623TIP3    H123428   4.647   2.326   7.545  0.4862 -0.2567  0.7685
  623TIP3    H223429   4.664   2.441   7.448 -0.0710 -0.8991 -0.1109
  624TIP3   OH223430   2.537   0.327   8.926  0.1819  0.2148 -0.0300
  624TIP3    H123431   2.599   0.399   8.936 -0.4705  1.0028 -1.3305
  624TIP3    H223432   2.514   0.301   9.015  1.3836  0.7731  0.4582
  625TIP3   OH223433   4.475   1.112   2.369 -0.2007 -0.4005 -0.4739
  625TIP3    H123434   4.513   1.030   2.338  0.9719  0.2128 -0.7298
  625TIP3    H223435   4.410   1.085   2.434 -0.4358 -1.5623 -1.1595
  626TIP3   OH223436   2.107   2.271   0.759  0.4429  0.6923 -0.4425
  626TIP3    H123437   2.021   2.311   0.754  0.2394  0.2968 -0.1581
  626TIP3    H223438   2.162   2.325   0.702 -0.6295 -0.7267 -2.9701
  627TIP3   OH223439   6.055   2.789   0.676  0.5680  0.5835 -0.2068
  627TIP3    H123440   6.060   2.694   0.688  0.3734  0.6736  0.6422
  627TIP3    H223441   6.083   2.803   0.585  0.0621 -0.3320 -0.5214
  628TIP3   OH223442   3.770   5.598   0.277 -0.8618 -0.0061 -0.4392
  628TIP3    H123443   3.684   5.629   0.303 -0.7259 -0.5718  0.7588
  628TIP3    H223444   3.758   5.505   0.259 -0.3751 -0.2437  0.4134
  629TIP3   OH223445   4.789   1.544   0.371 -0.1012  0.0032  0.1452
  629TIP3    H123446   4.775   1.612   0.306  1.9626 -0.6893 -1.1001
  629TIP3    H223447   4.799   1.591   0.454 -0.5014  1.0515 -0.3930
  630TIP3   OH223448   1.936   2.634   7.383 -0.2123  0.0192 -0.3249
  630TIP3    H123449   1.939   2.629   7.479  3.4463  1.5064 -0.1985
  630TIP3    H223450   1.873   2.704   7.365 -0.6677 -0.0190  1.0076
  631TIP3   OH223451   2.679   1.818   7.326  0.3707  0.2128 -0.6749
  631TIP3    H123452   2.693   1.725   7.309 -1.9078 -0.3242  0.0239
  631TIP3    H223453   2.612   1.844   7.263 -0.7044  0.7480  0.6243
  632TIP3   OH223454   6.454   6.076   0.190 -0.1184  0.8147 -0.0725
  632TIP3    H123455   6.418   6.074   0.101 -0.9064  1.9000  0.1973
  632TIP3    H223456   6.381   6.106   0.244  0.5336  0.7691  0.8411
  633TIP3   OH223457   4.518   6.155   2.203  0.0474  0.2186 -0.6634
  633TIP3    H123458   4.577   6.211   2.151 -1.2261  1.5493 -0.7222
  633TIP3    H223459   4.552   6.162   2.292  1.0796 -0.5160 -0.9849
  634TIP3   OH223460   2.127   3.972   2.317 -0.2778  0.2079 -0.2076
  634TIP3    H123461   2.066   3.943   2.249 -0.2890 -2.9182  0.9812
  634TIP3    H223462   2.175   3.893   2.341  0.4049  1.4103  2.7343
  635TIP3   OH223463   2.203   0.063   0.156  0.1817 -0.6301 -0.5445
  635TIP3    H123464   2.245   0.149   0.160  0.9219 -0.9868 -0.6197
  635TIP3    H223465   2.198   0.034   0.247  0.5560 -0.8063 -0.5792
  636TIP3   OH223466   1.953   6.305   9.224 -0.8308  0.2336  0.4615
  636TIP3    H123467   1.945   6.392   9.184 -0.1507 -0.0671 -0.3614
  636TIP3    H223468   1.902   6.247   9.166 -0.8611 -0.0075  0.7245
  637TIP3   OH223469   1.296   5.452   7.925 -0.2954 -0.1357 -0.3063
  637TIP3    H123470   1.257   5.395   7.859 -0.3382 -1.1592  0.5744
  637TIP3    H223471   1.361   5.503   7.877 -1.9900  0.9231 -1.6161
  638TIP3   OH223472   3.232   2.894   8.967 -0.4680 -0.5292  0.3115
  638TIP3    H123473   3.226   2.949   8.889  0.0782 -2.1887 -0.9652
  638TIP3    H223474   3.326   2.884   8.982 -0.5692 -0.6124  0.8990
  639TIP3   OH223475   5.383   2.861   0.807  0.3058  0.1886 -0.3494
  639TIP3    H123476   5.442   2.789   0.832  0.6475  0.9490  1.1425
  639TIP3    H223477   5.301   2.818   0.786  0.5802 -0.6680  0.2710
  640TIP3   OH223478   3.975   1.850   7.119 -0.0665 -0.1327 -0.2729
  640TIP3    H123479   3.976   1.945   7.127  1.7802 -0.1666  0.2180
  640TIP3    H223480   4.036   1.831   7.048  1.8587 -1.0491  1.5248
  641TIP3   OH223481   4.118   6.092   2.263 -0.0596  0.4756  0.4812
  641TIP3    H123482   4.109   6.120   2.354  2.2881  0.2609  0.8365
  641TIP3    H223483   4.154   6.003   2.269 -1.6853 -0.3068 -0.6730
  642TIP3   OH223484   4.299   4.088   1.670  0.4270  0.6316  0.4153
  642TIP3    H123485   4.305   4.117   1.579  1.7033  0.1976  0.3457
  642TIP3    H223486   4.205   4.085   1.688  0.0214 -1.5438 -1.6138
  643TIP3   OH223487   2.160   2.769   8.835  0.1013 -0.4668  0.1939
  643TIP3    H123488   2.215   2.748   8.759  0.0321 -0.3823  0.1214
  643TIP3    H223489   2.223   2.783   8.906  0.3391  1.9095 -0.3954
  644TIP3   OH223490   3.668   2.680   7.624  0.2394  0.0683  0.6996
  644TIP3    H123491   3.618   2.759   7.646 -0.6975 -0.6099  1.0263
  644TIP3    H223492   3.604   2.610   7.622  1.0407 -0.6699  0.2311
  645TIP3   OH223493   3.653   4.570   2.449 -0.2428 -0.4610  0.0596
  645TIP3    H123494   3.572   4.584   2.402 -0.4012 -1.1843  0.1141
  645TIP3    H223495   3.630   4.585   2.541  0.0348  0.8131 -0.0602
  646TIP3   OH223496   3.405   4.089   0.871 -0.0081  0.3624 -0.0578
  646TIP3    H123497   3.396   3.999   0.902 -0.8105  1.0054  1.6893
  646TIP3    H223498   3.331   4.101   0.812  0.1639 -0.1361 -0.3894
  647TIP3   OH223499   5.831   3.113   7.916 -0.2106  0.1712  0.4839
  647TIP3    H123500   5.914   3.066   7.907  0.1883  1.0373 -0.5669
  647TIP3    H223501   5.764   3.045   7.907  0.3434 -0.1884 -1.4013
  648TIP3   OH223502   1.622   4.493   8.078 -0.3404  0.1219  0.5344
  648TIP3    H123503   1.675   4.522   8.152  0.4431  0.4668 -0.1522
  648TIP3    H223504   1.671   4.521   8.001 -1.7574  0.8731 -0.1194
  649TIP3   OH223505   0.977   6.396   8.455  0.0666 -0.5194  0.2842
  649TIP3    H123506   0.992   6.472   8.512  0.3626  0.4424 -1.0429
  649TIP3    H223507   0.883   6.380   8.461 -0.6245  2.0436 -1.8908
  650TIP3   OH223508   3.575   5.723   8.584  0.4819  0.6691  0.4142
  650TIP3    H123509   3.617   5.675   8.655  0.8769 -0.4515 -0.5352
  650TIP3    H223510   3.482   5.724   8.606  0.6922  1.0701  1.3414
  651TIP3   OH223511   4.007   2.051   1.489  0.3876  0.0363 -0.3894
  651TIP3    H123512   4.099   2.024   1.482  0.6154  0.4579  0.7552
  651TIP3    H223513   3.967   1.984   1.543  0.4547  0.7914  0.6298
  652TIP3   OH223514   2.446   3.925   2.135 -0.0367 -0.6660 -0.0731
  652TIP3    H123515   2.418   4.006   2.177 -0.6486 -1.0942  0.3552
  652TIP3    H223516   2.542   3.925   2.145  0.1101  0.5857 -1.1616
  653TIP3   OH223517   5.673   2.533   0.370  0.5926  0.0929  0.7931
  653TIP3    H123518   5.671   2.568   0.281  0.7528  1.7478  1.3908
  653TIP3    H223519   5.748   2.473   0.371  1.2926  0.9246  0.0953
  654TIP3   OH223520   4.891   2.014   6.943  0.4307 -0.1250  0.8733
  654TIP3    H123521   4.843   1.944   6.898 -1.2944 -0.0733  2.4877
  654TIP3    H223522   4.969   2.028   6.890  0.0874 -2.2504 -0.2971
  655TIP3   OH223523   3.033   4.730   7.716  1.0874  0.5993  0.3468
  655TIP3    H123524   2.972   4.793   7.678  0.3938  0.0010  0.4489
  655TIP3    H223525   2.988   4.646   7.709  1.6547  0.2353  0.9706
  656TIP3   OH223526   6.596   4.087   6.702 -0.0338  0.7827  0.2314
  656TIP3    H123527   6.572   4.016   6.760  2.6829  0.8526  1.5895
  656TIP3    H223528   6.586   4.166   6.755 -0.3794  1.1566 -0.3739
  657TIP3   OH223529   0.448   5.666   7.297 -0.5125  0.3314 -0.3025
  657TIP3    H123530   0.525   5.660   7.241 -1.5327 -1.3843 -1.6096
  657TIP3    H223531   0.374   5.665   7.236 -1.5975  1.5557  0.9364
  658TIP3   OH223532   2.626   3.404   1.889  0.2484 -0.2700 -0.1799
  658TIP3    H123533   2.627   3.478   1.951 -2.3047 -0.0800 -0.2647
  658TIP3    H223534   2.569   3.340   1.930  1.4975 -1.7564 -0.6713
  659TIP3   OH223535   4.682   1.510   7.677  0.3299 -0.2559 -0.0279
  659TIP3    H123536   4.658   1.597   7.647 -0.1523 -0.4580 -0.2510
  659TIP3    H223537   4.599   1.470   7.704  0.6110 -0.4620  0.5678
  660TIP3   OH223538   1.552   4.017   7.903 -0.1779  0.3284 -0.4895
  660TIP3    H123539   1.500   4.068   7.841  0.8940 -0.0359 -1.7375
  660TIP3    H223540   1.597   4.082   7.956  0.9242  0.7078 -1.8519
  661TIP3   OH223541   3.338   3.043   1.955 -0.3037 -0.2967 -0.3274
  661TIP3    H123542   3.383   3.011   2.033 -2.4432 -1.3804  0.5369
  661TIP3    H223543   3.285   2.968   1.926  0.3807  0.0843 -2.8262
  662TIP3   OH223544   0.675   3.846   9.081  0.4601  0.8839 -0.6400
  662TIP3    H123545   0.656   3.757   9.111 -0.9583  0.8518 -1.5508
  662TIP3    H223546   0.592   3.893   9.089  1.2312  2.1912 -0.0017
  663TIP3   OH223547   1.785   6.021   8.503 -0.0089  0.3859  0.0340
  663TIP3    H123548   1.839   6.094   8.535 -0.7084  1.6541 -1.5390
  663TIP3    H223549   1.732   6.060   8.433  0.5466 -1.9327 -1.7874
  664TIP3   OH223550   6.064   3.538   8.269  0.1197 -0.2793  0.2513
  664TIP3    H123551   6.044   3.484   8.192 -1.5067 -1.9113  1.7090
  664TIP3    H223552   6.059   3.628   8.238 -0.9221 -0.8845 -1.4613
  665TIP3   OH223553   3.123   0.386   2.023  0.1126  0.4105  0.3333
  665TIP3    H123554   3.098   0.469   1.982 -0.2886 -0.4125 -1.1395
  665TIP3    H223555   3.051   0.368   2.084 -0.1013  0.8306  0.2113
  666TIP3   OH223556   2.318   3.004   8.636  0.2074 -0.4403  0.0122
  666TIP3    H123557   2.320   3.093   8.671 -0.9895 -0.4482  0.1645
  666TIP3    H223558   2.342   3.014   8.544  1.6115 -0.1817  0.3826
  667TIP3   OH223559   3.347   5.665   0.803 -0.0349 -0.4212  0.0403
  667TIP3    H123560   3.294   5.586   0.809  1.5866 -1.4569  2.1522
  667TIP3    H223561   3.301   5.720   0.740 -1.8076 -2.5754 -0.6793
  668TIP3   OH223562   5.400   1.827   0.878  0.1463  0.5124  0.3936
  668TIP3    H123563   5.423   1.786   0.961 -1.3057  0.5409  0.8500
  668TIP3    H223564   5.317   1.786   0.854  0.9036 -0.0156 -1.4265
  669TIP3   OH223565   0.272   2.730   7.608 -0.2365 -0.4484  0.9598
  669TIP3    H123566   0.254   2.823   7.619 -1.7146 -0.7966  1.6223
  669TIP3    H223567   0.352   2.728   7.555 -1.2082  1.1956 -0.7019
  670TIP3   OH223568   1.535   0.761   8.879 -0.7394  0.5377  0.7068
  670TIP3    H123569   1.498   0.806   8.803 -0.5540  0.8013  0.7724
  670TIP3    H223570   1.473   0.690   8.897 -1.9397  1.7582  1.6153
  671TIP3   OH223571   4.101   0.649   1.663  0.3469 -0.1643  0.1890
  671TIP3    H123572   4.049   0.593   1.606 -0.3603 -0.1665  0.8182
  671TIP3    H223573   4.044   0.667   1.738  1.5236 -0.8038  1.2858
  672TIP3   OH223574   4.148   5.257   7.175  0.3166  0.5745 -0.8500
  672TIP3    H123575   4.096   5.178   7.161  1.8053 -0.9256  1.4329
  672TIP3    H223576   4.237   5.225   7.189  1.1470  2.7499 -0.7691
  673TIP3   OH223577   0.809   2.651   0.624  0.9133 -1.1373  0.0165
  673TIP3    H123578   0.903   2.648   0.643  0.6232  0.5824  2.1376
  673TIP3    H223579   0.767   2.649   0.710 -0.8753  0.3022 -0.7564
  674TIP3   OH223580   4.117   5.347   8.749  0.2651  0.3966 -0.0312
  674TIP3    H123581   4.075   5.265   8.775 -0.1576  0.0185 -1.8110
  674TIP3    H223582   4.189   5.320   8.692 -0.9135  1.2942 -2.0161
  675TIP3   OH223583   6.179   5.518   9.277 -0.5515 -0.2571 -0.5354
  675TIP3    H123584   6.274   5.522   9.281 -0.4745 -1.8488 -0.1358
  675TIP3    H223585   6.150   5.608   9.287  0.8890  0.1424  0.1269
  676TIP3   OH223586   1.188   3.280   1.485  0.3735  0.0997 -0.3860
  676TIP3    H123587   1.149   3.343   1.545  0.0671 -0.7357  0.3105
  676TIP3    H223588   1.133   3.203   1.492  0.9304 -0.3650 -0.9867
  677TIP3   OH223589   5.898   5.168   8.992  0.0871 -0.3340  0.3152
  677TIP3    H123590   5.917   5.112   9.068 -0.6849 -1.4722 -0.3047
  677TIP3    H223591   5.826   5.124   8.948  1.0504 -0.1283 -1.5463
  678TIP3   OH223592   4.171   4.924   9.147 -0.2109 -0.0011  0.2673
  678TIP3    H123593   4.133   4.870   9.077 -1.3551 -0.8067  1.4492
  678TIP3    H223594   4.161   5.014   9.116  0.6720 -0.3869 -1.2429
  679TIP3   OH223595   2.922   4.244   0.588 -0.4489 -0.4273  0.2254
  679TIP3    H123596   2.937   4.199   0.504 -0.3313 -1.1863  0.6468
  679TIP3    H223597   2.953   4.334   0.573  1.9127 -1.1879  0.1941
  680TIP3   OH223598   4.998   3.855   7.028 -0.9224 -0.0142 -0.0562
  680TIP3    H123599   5.073   3.901   7.067 -0.4082 -0.7122 -0.2042
  680TIP3    H223600   4.996   3.885   6.937 -0.3133 -0.6128 -0.2735
  681TIP3   OH223601   2.072   2.347   7.543  0.0749  0.4082  0.2821
  681TIP3    H123602   2.150   2.320   7.496  0.6527  0.8372  0.9714
  681TIP3    H223603   2.097   2.429   7.587 -0.8706  0.7556  0.2086
  682TIP3   OH223604   1.713   1.059   0.237 -0.3757 -0.2745  0.0446
  682TIP3    H123605   1.641   1.017   0.190  0.3204 -1.5171  0.0260
  682TIP3    H223606   1.772   1.089   0.168 -0.9434  0.8926  0.0549
  683TIP3   OH223607   1.743   5.773   7.526 -0.3165  0.2597  0.1452
  683TIP3    H123608   1.751   5.788   7.432 -0.8954  1.5762  0.2909
  683TIP3    H223609   1.832   5.754   7.554  0.2123  1.8071 -0.3631
  684TIP3   OH223610   1.032   4.422   8.594 -0.2873 -0.2881  0.3461
  684TIP3    H123611   0.940   4.447   8.581 -0.9858 -2.2757  1.1057
  684TIP3    H223612   1.039   4.404   8.688  0.9338 -0.0183  0.3222
  685TIP3   OH223613   2.337   0.297   0.139 -0.3654 -0.3272 -0.3889
  685TIP3    H123614   2.366   0.323   0.226 -0.9587  0.4486 -0.4106
  685TIP3    H223615   2.389   0.351   0.079  0.0186 -0.8354 -0.5240
  686TIP3   OH223616   2.309   0.418   1.672 -0.4530  0.5250 -0.2481
  686TIP3    H123617   2.243   0.434   1.604 -0.4063  1.7993 -0.0245
  686TIP3    H223618   2.284   0.477   1.743  0.3100  0.2251  0.2765
  687TIP3   OH223619   0.663   3.448   1.778  0.7767 -0.3246  0.0351
  687TIP3    H123620   0.707   3.415   1.856  1.6116  0.0701 -0.2507
  687TIP3    H223621   0.721   3.424   1.706 -0.0128 -0.7277 -0.4695
  688TIP3   OH223622   0.698   3.175   1.094  0.0238 -0.2643 -0.1841
  688TIP3    H123623   0.771   3.170   1.155  0.0639 -0.4586 -0.2466
  688TIP3    H223624   0.623   3.141   1.143 -0.0065 -0.1434 -0.1469
  689TIP3   OH223625   0.824   0.814   8.577 -0.3629  0.1009  0.5986
  689TIP3    H123626   0.743   0.865   8.585 -1.8255 -1.9675 -0.0751
  689TIP3    H223627   0.809   0.737   8.632  0.6505 -0.8997 -0.4622
  690TIP3   OH223628   0.675   1.589   8.681  0.5491  0.0441 -0.2470
  690TIP3    H123629   0.625   1.670   8.669 -0.0014 -0.0982  1.0131
  690TIP3    H223630   0.657   1.539   8.602 -0.4130  0.4637 -0.3012
  691TIP3   OH223631   5.030   1.732   0.511  0.1010  0.0717  0.3123
  691TIP3    H123632   5.105   1.790   0.502 -0.3320  0.6761  0.4838
  691TIP3    H223633   4.995   1.724   0.422 -0.2798  0.6927  0.3983
  692TIP3   OH223634   4.069   0.067   7.053  0.1714  0.5524  0.0308
  692TIP3    H123635   4.163   0.051   7.055  0.0864  0.0946  0.9217
  692TIP3    H223636   4.036   0.009   6.984  0.3577 -0.4289  0.7402
  693TIP3   OH223637   0.017   3.915   2.646 -0.1094 -0.2673  0.0020
  693TIP3    H123638   0.109   3.918   2.620  0.0843  0.8828  0.7372
  693TIP3    H223639  -0.031   3.905   2.564  0.6250  0.2606 -0.5051
  694TIP3   OH223640   4.624   5.868   7.837  0.2121  0.1109 -0.3157
  694TIP3    H123641   4.624   5.963   7.850  0.7691  0.1608 -0.6594
  694TIP3    H223642   4.700   5.837   7.887  0.4608 -0.0674 -0.8026
  695TIP3   OH223643   2.830   1.727   1.210 -0.0497 -0.4557 -0.0098
  695TIP3    H123644   2.865   1.734   1.299  0.8801  0.0525 -0.4000
  695TIP3    H223645   2.805   1.635   1.201 -0.2832 -0.4815  0.8185
  696TIP3   OH223646   4.131   5.265   7.866  0.6204  0.2020 -0.4145
  696TIP3    H123647   4.094   5.352   7.882 -0.7413 -0.1520 -1.4645
  696TIP3    H223648   4.206   5.280   7.808  0.6134  0.6977 -0.2948
  697TIP3   OH223649   1.553   3.271   1.086  0.5545  0.0736  0.0432
  697TIP3    H123650   1.535   3.310   1.000  1.1796  0.9529  0.2934
  697TIP3    H223651   1.472   3.284   1.135  0.3608  0.0072 -0.2556
  698TIP3   OH223652   4.690   2.728   7.169  0.5356  0.8340 -0.0887
  698TIP3    H123653   4.658   2.702   7.083  2.6835 -0.7960 -0.4682
  698TIP3    H223654   4.661   2.819   7.179 -0.1011  0.9297 -2.3561
  699TIP3   OH223655   2.941   3.921   7.704 -0.1761 -0.4904 -0.3464
  699TIP3    H123656   2.984   3.849   7.659  0.7961  0.0900 -0.3661
  699TIP3    H223657   2.909   3.883   7.786 -0.2290 -1.0852 -0.6424
  700TIP3   OH223658   2.620   4.708   1.488 -0.4790  0.0658 -0.3923
  700TIP3    H123659   2.668   4.628   1.507  2.1103  1.3809 -0.9520
  700TIP3    H223660   2.586   4.695   1.399 -0.0395 -0.3708 -0.4998
  701TIP3   OH223661   2.537   6.125   8.469 -0.2097  0.5240 -0.2642
  701TIP3    H123662   2.566   6.117   8.560  0.2502  0.0229 -0.4536
  701TIP3    H223663   2.516   6.218   8.459  2.5776  1.1994 -0.4906
  702TIP3   OH223664   3.863   1.412   1.980  0.1746  0.0783  0.0596
  702TIP3    H123665   3.809   1.491   1.985  0.4675  0.2324  1.0869
  702TIP3    H223666   3.802   1.340   1.989 -0.1258  0.1583 -1.1186
  703TIP3   OH223667   1.211   3.544   0.690  0.3043  0.0148 -0.2381
  703TIP3    H123668   1.161   3.463   0.703  0.3913 -0.0028 -0.0154
  703TIP3    H223669   1.170   3.585   0.614  0.7094 -0.5904 -0.7961
  704TIP3   OH223670   1.067   5.194   1.729  0.3502  0.0749  0.2050
  704TIP3    H123671   1.047   5.133   1.800 -0.2276  1.2308  1.0611
  704TIP3    H223672   1.000   5.177   1.663 -0.3135  0.3304  0.7963
  705TIP3   OH223673   3.833   3.508   0.589 -0.1354  0.2731  0.6492
  705TIP3    H123674   3.895   3.524   0.659  0.0187 -0.3624  0.6655
  705TIP3    H223675   3.844   3.582   0.529  0.1024  0.5460  1.0295
  706TIP3   OH223676   2.353   1.839   0.987  0.4217  0.9420 -0.1798
  706TIP3    H123677   2.351   1.918   1.040 -2.0163  0.9630 -0.1823
  706TIP3    H223678   2.328   1.867   0.899 -0.3009  0.2147 -0.2217
  707TIP3   OH223679   2.018   5.307   7.940  0.1921  0.3390 -0.2005
  707TIP3    H123680   2.056   5.287   7.854  1.2226  0.9356  0.1141
  707TIP3    H223681   2.088   5.292   8.002 -0.2638  0.8564  0.4547
  708TIP3   OH223682   0.363   3.343   1.816  0.0451  0.3960  0.0840
  708TIP3    H123683   0.457   3.322   1.810  0.0302  0.3445  0.0200
  708TIP3    H223684   0.336   3.355   1.725  0.3274  1.9507  0.1888
  709TIP3   OH223685   1.474   4.588   9.108 -0.0104 -0.0374 -0.0752
  709TIP3    H123686   1.557   4.595   9.155  0.1572  0.8106 -0.4699
  709TIP3    H223687   1.495   4.536   9.030  0.1869  0.2821 -0.2389
  710TIP3   OH223688   1.753   6.107   1.659  0.4416 -0.3678  0.1536
  710TIP3    H123689   1.693   6.181   1.675 -0.5416 -1.0714 -0.1756
  710TIP3    H223690   1.835   6.134   1.701  0.0856  0.8754  0.1119
  711TIP3   OH223691   5.159   0.040   2.368 -1.2918  0.0397 -0.1999
  711TIP3    H123692   5.240   0.076   2.331 -1.3927 -0.9239 -1.4366
  711TIP3    H223693   5.144  -0.041   2.318 -1.4821 -1.3275  1.9284
  712TIP3   OH223694   0.842   2.948   1.230  0.2398 -0.0148  0.3313
  712TIP3    H123695   0.928   2.907   1.233  0.0378 -0.9034 -2.9583
  712TIP3    H223696   0.781   2.875   1.230 -0.2664  0.3385 -2.1774
  713TIP3   OH223697   1.682   3.964   0.390  0.4409  0.1854 -0.2986
  713TIP3    H123698   1.665   3.993   0.480 -0.3597  1.2323 -0.7717
  713TIP3    H223699   1.730   3.882   0.400 -1.1432 -0.6061  1.0852
  714TIP3   OH223700   2.900   3.225   7.522  0.2359  0.0791 -0.0554
  714TIP3    H123701   2.812   3.262   7.521  0.1226 -0.1429  1.0616
  714TIP3    H223702   2.930   3.233   7.612  1.0109 -0.6624 -0.2229
  715TIP3   OH223703   4.706   0.210   1.715  0.0782 -0.0198  0.3343
  715TIP3    H123704   4.800   0.211   1.733  0.3824  0.7612 -1.1901
  715TIP3    H223705   4.685   0.117   1.703  1.0326 -0.0827 -1.0663
  716TIP3   OH223706   3.476   3.990   1.412  0.2770 -0.2351  0.3586
  716TIP3    H123707   3.547   3.927   1.425  0.5052 -0.1128 -0.2918
  716TIP3    H223708   3.475   4.007   1.318  0.6675  1.2663  0.6041
  717TIP3   OH223709   2.393   0.265   2.555  0.0748 -0.3235 -0.2135
  717TIP3    H123710   2.333   0.205   2.511 -1.1538 -0.9911  2.2221
  717TIP3    H223711   2.383   0.347   2.506 -0.7669 -1.1472 -1.5210
  718TIP3   OH223712   3.839   2.486   1.441  0.5197  0.0751  0.7235
  718TIP3    H123713   3.889   2.542   1.501  1.1522 -0.3116  0.5693
  718TIP3    H223714   3.820   2.408   1.492  0.8288 -0.1432  0.5069
  719TIP3   OH223715   2.206   6.202   8.711  0.4831  0.0596  0.7343
  719TIP3    H123716   2.254   6.284   8.717 -0.6151  0.7120  0.7861
  719TIP3    H223717   2.224   6.171   8.622  0.2676  0.7564  0.4429
  720TIP3   OH223718   1.457   0.501   0.730  0.0888  0.1087  0.0021
  720TIP3    H123719   1.383   0.558   0.751  0.3009  0.2554  0.3619
  720TIP3    H223720   1.418   0.418   0.705 -0.2830  0.7375 -1.6398
  721TIP3   OH223721   1.990   1.132   0.685  0.1175  0.0672 -0.2204
  721TIP3    H123722   1.973   1.222   0.657 -1.0109 -0.5497 -1.6537
  721TIP3    H223723   1.958   1.078   0.613 -0.1478 -1.5240  1.0276
  722TIP3   OH223724   2.387   6.105   7.918  0.0582  0.3555  0.5916
  722TIP3    H123725   2.429   6.165   7.856  1.1190 -2.2746 -1.4208
  722TIP3    H223726   2.300   6.089   7.882  0.3598 -0.5031  0.2090
  723TIP3   OH223727   5.919   2.681   8.810 -0.4201  0.1605 -0.5179
  723TIP3    H123728   5.840   2.679   8.757 -0.5675  2.2953 -0.4633
  723TIP3    H223729   5.979   2.737   8.761  0.7855 -0.7699 -0.1616
  724TIP3   OH223730   0.993   3.847   0.873 -0.8896 -0.3298 -0.4194
  724TIP3    H123731   1.012   3.927   0.921 -1.9299  0.4349 -1.2424
  724TIP3    H223732   0.907   3.820   0.905 -0.7119 -0.9078 -0.4212
  725TIP3   OH223733   3.609   2.493   1.286  0.6427  0.1839 -0.3952
  725TIP3    H123734   3.701   2.486   1.311  0.4879 -1.2897 -0.1757
  725TIP3    H223735   3.600   2.438   1.209 -0.2110 -0.3224  0.0409
  726TIP3   OH223736   6.183   5.519   8.737  0.1191  0.0107  0.3830
  726TIP3    H123737   6.188   5.426   8.714  2.5929 -0.3480  1.9933
  726TIP3    H223738   6.170   5.564   8.654  1.6963 -1.6248 -0.8280
  727TIP3   OH223739   0.062   5.248   7.255  0.2049 -0.6574 -0.4612
  727TIP3    H123740   0.006   5.325   7.255  1.1367  0.0398 -1.0696
  727TIP3    H223741   0.091   5.239   7.164  0.7542 -1.2413 -0.2386
  728TIP3   OH223742   1.033   3.141   0.930  0.2097 -0.6414 -0.0383
  728TIP3    H123743   1.074   3.180   1.008  2.8053 -2.0669 -0.5816
  728TIP3    H223744   1.042   3.046   0.943  0.5711 -0.9143 -2.0035
  729TIP3   OH223745   0.691   1.406   8.404  0.0437 -0.3931 -0.0960
  729TIP3    H123746   0.726   1.487   8.366  0.9607 -0.7774 -0.1042
  729TIP3    H223747   0.766   1.367   8.449 -0.9131 -0.1180  1.8579
  730TIP3   OH223748   5.635   4.507   1.481 -0.8260  0.1439 -0.4995
  730TIP3    H123749   5.675   4.576   1.536 -1.4765 -0.7524  1.1622
  730TIP3    H223750   5.582   4.555   1.417 -2.3108  1.2209  1.4419
  731TIP3   OH223751   0.225   2.817   0.426  0.5419 -0.0206  0.4244
  731TIP3    H123752   0.130   2.817   0.430  0.4566 -1.9591 -0.6717
  731TIP3    H223753   0.247   2.759   0.353  2.6020 -1.7431  2.2631
  732TIP3   OH223754   5.692   5.944   1.269  0.1838 -0.4697 -0.1580
  732TIP3    H123755   5.691   5.967   1.176 -0.2224 -1.0768 -0.3150
  732TIP3    H223756   5.773   5.894   1.280  0.6761  0.3543  0.0141
  733TIP3   OH223757   1.348   4.158   8.831 -0.4593  0.1285 -0.3700
  733TIP3    H123758   1.319   4.075   8.793  1.4140 -1.6031  1.7372
  733TIP3    H223759   1.286   4.176   8.901  0.6623 -1.0008  0.9586
  734TIP3   OH223760   4.221   1.218   8.878  0.1461 -0.2477  0.3938
  734TIP3    H123761   4.239   1.126   8.895  0.2446 -0.0425  1.4967
  734TIP3    H223762   4.298   1.264   8.912 -0.0705  0.2716  0.1966
  735TIP3   OH223763   5.082   0.649   2.652  0.0430 -0.1430  0.3320
  735TIP3    H123764   5.161   0.653   2.707  0.6887 -0.4190 -0.5468
  735TIP3    H223765   5.094   0.571   2.599  0.4346  1.1632 -1.6175
  736TIP3   OH223766   2.731   0.510   9.004 -0.0277  0.6104  0.6480
  736TIP3    H123767   2.726   0.605   9.017 -1.3377  0.5978  0.3833
  736TIP3    H223768   2.819   0.487   9.031  1.4842  2.3644 -2.2263
  737TIP3   OH223769   3.517   5.827   1.848 -0.1138 -0.3678  0.6505
  737TIP3    H123770   3.534   5.759   1.913  1.4710  0.4080  1.0961
  737TIP3    H223771   3.526   5.783   1.764 -1.0394 -1.1245  0.9308
  738TIP3   OH223772   2.906   6.047   8.094  0.2353 -0.1939  0.1786
  738TIP3    H123773   2.974   6.015   8.154 -0.8887  0.8101  2.1271
  738TIP3    H223774   2.830   6.061   8.151 -1.6557 -1.3303 -1.9258
  739TIP3   OH223775   3.344   0.008   7.550 -0.4593  0.6074  0.2369
  739TIP3    H123776   3.260   0.053   7.543 -0.9223 -0.2694 -0.0340
  739TIP3    H223777   3.332  -0.072   7.499 -0.1009 -0.4433  1.7332
  740TIP3   OH223778   4.525   4.378   8.733 -0.1574  0.4913  0.2256
  740TIP3    H123779   4.431   4.365   8.739 -0.0125 -0.5145  0.3655
  740TIP3    H223780   4.535   4.473   8.726 -1.2687  0.5294 -1.4427
  741TIP3   OH223781   3.934   3.494   8.091 -0.2172 -0.2203  0.3047
  741TIP3    H123782   3.876   3.494   8.167  0.0084  2.0882  0.5787
  741TIP3    H223783   4.017   3.460   8.124 -0.5289 -0.5694  0.7351
  742TIP3   OH223784   5.516   2.459   1.144  0.4088  0.7070 -0.4056
  742TIP3    H123785   5.568   2.483   1.220 -0.2681 -0.0809  0.3196
  742TIP3    H223786   5.476   2.542   1.116 -0.0390  0.8577  0.6335
  743TIP3   OH223787   4.630   2.860   6.518 -0.3037  0.2929  0.4565
  743TIP3    H123788   4.568   2.789   6.498 -0.0445  0.1128  0.2824
  743TIP3    H223789   4.673   2.832   6.599 -2.1100  1.5210  1.9142
  744TIP3   OH223790   0.789   5.873   0.163  0.2662  0.1756 -0.2564
  744TIP3    H123791   0.825   5.960   0.184 -0.5539  0.8248 -1.4171
  744TIP3    H223792   0.694   5.887   0.156 -0.2408 -1.4212  2.3599
  745TIP3   OH223793   2.881   2.692   7.166  0.7661 -0.7987  0.4298
  745TIP3    H123794   2.824   2.660   7.096  1.1925 -1.0235  0.1776
  745TIP3    H223795   2.899   2.783   7.143 -0.9587 -0.1530  1.4810
  746TIP3   OH223796   0.196   3.788   0.194  0.7921  0.0166 -0.5163
  746TIP3    H123797   0.151   3.704   0.184  0.0053  0.3043  0.4663
  746TIP3    H223798   0.254   3.775   0.269  1.8125 -0.1157 -1.3116
  747TIP3   OH223799   5.841   0.511   0.725 -0.2353 -0.1628  0.0092
  747TIP3    H123800   5.858   0.433   0.778  3.4384  0.8138  0.5734
  747TIP3    H223801   5.856   0.481   0.635 -0.3716 -0.4744  0.0898
  748TIP3   OH223802   4.260   0.577   6.643 -0.3800  0.2751  0.4753
  748TIP3    H123803   4.314   0.497   6.642  1.4680  1.4543  0.5588
  748TIP3    H223804   4.289   0.626   6.567 -0.6629  1.3874  1.0738
  749TIP3   OH223805   4.106   2.894   7.633 -0.6175  0.2255 -0.2708
  749TIP3    H123806   4.024   2.936   7.610 -0.1550  0.7714 -0.9777
  749TIP3    H223807   4.119   2.915   7.725 -1.1432  0.3452 -0.2234
  750TIP3   OH223808   0.024   1.072   0.504  0.2715 -0.7230 -0.1595
  750TIP3    H123809   0.064   1.158   0.490 -0.8671 -0.1172  0.2191
  750TIP3    H223810   0.045   1.023   0.424  0.6079  0.0220 -0.5389
  751TIP3   OH223811   5.579   4.372   0.985  0.3096  0.3686  0.1159
  751TIP3    H123812   5.594   4.379   1.079  2.9716  1.2670 -0.2784
  751TIP3    H223813   5.487   4.348   0.976 -0.0488  0.4506  2.9201
  752TIP3   OH223814   2.245   4.147   8.472 -0.3857 -0.7489 -0.0565
  752TIP3    H123815   2.336   4.175   8.461 -0.7769  0.1272 -1.2191
  752TIP3    H223816   2.230   4.154   8.566  0.2376  0.8150 -0.0326
  753TIP3   OH223817   4.752   4.055   0.417  0.1525 -0.3787  0.0168
  753TIP3    H123818   4.796   4.020   0.339 -0.7011 -1.2217 -0.0990
  753TIP3    H223819   4.711   3.979   0.457 -1.7365  0.4677 -0.2229
  754TIP3   OH223820   1.547   4.882   1.184  0.0365 -0.1582 -0.1328
  754TIP3    H123821   1.472   4.845   1.137  1.3307  0.2018 -2.6772
  754TIP3    H223822   1.618   4.820   1.168  0.7356  0.4233  0.6496
  755TIP3   OH223823   0.269   6.071   1.977 -0.8253 -0.2041  0.5765
  755TIP3    H123824   0.350   6.090   1.929 -1.8973  0.2339 -1.1436
  755TIP3    H223825   0.275   6.125   2.056 -0.8286  2.3330 -1.0446
  756TIP3   OH223826   3.916   0.197   8.955  0.3309 -0.1019  0.3025
  756TIP3    H123827   3.863   0.264   8.998 -0.4612  0.6867 -1.7437
  756TIP3    H223828   3.907   0.216   8.861  3.8382 -0.2132 -0.2150
  757TIP3   OH223829   4.075   4.492   9.266 -0.3470  0.1577  0.0446
  757TIP3    H123830   4.107   4.490   9.356 -0.2901  0.2882  0.0273
  757TIP3    H223831   4.128   4.559   9.223  1.0986 -1.3759 -0.6566
  758TIP3   OH223832   1.882   5.755   8.419 -0.2271  0.0977  0.3613
  758TIP3    H123833   1.858   5.842   8.451 -2.1225  0.7198 -2.4317
  758TIP3    H223834   1.801   5.718   8.386  0.3925 -3.0910  2.0036
  759TIP3   OH223835   3.231   5.280   8.611 -0.1476  0.0164  0.2379
  759TIP3    H123836   3.138   5.296   8.596  0.2509  1.7326 -0.6955
  759TIP3    H223837   3.254   5.212   8.547 -0.5529  0.3007 -0.2181
  760TIP3   OH223838   5.966   6.424   1.328 -0.3446  0.2551  0.5450
  760TIP3    H123839   6.047   6.396   1.286 -1.6780 -0.5360 -1.6595
  760TIP3    H223840   5.947   6.510   1.290 -1.2803 -0.2214 -0.1134
  761TIP3   OH223841   0.659   5.263   2.250 -0.3722  0.1188 -0.2471
  761TIP3    H123842   0.671   5.202   2.178 -0.4241 -0.3174  0.1107
  761TIP3    H223843   0.739   5.315   2.252  0.3852 -1.0286  0.4733
  762TIP3   OH223844   6.133   0.220   8.704  0.4915  0.2999 -0.2914
  762TIP3    H123845   6.066   0.196   8.640  0.8080 -1.5087  0.0051
  762TIP3    H223846   6.208   0.247   8.652  0.9597 -1.7370 -0.7510
  763TIP3   OH223847   3.302   4.948   1.973 -0.0009  0.1087  0.1690
  763TIP3    H123848   3.390   4.931   1.939 -0.5551 -2.2147 -0.2924
  763TIP3    H223849   3.301   4.907   2.060 -0.4993  0.5070  0.3580
  764TIP3   OH223850   6.104   0.545   7.889  0.1330  0.2838 -0.5458
  764TIP3    H123851   6.085   0.506   7.975  0.6018  2.0611  0.4131
  764TIP3    H223852   6.175   0.491   7.854 -1.1916 -1.5185 -0.6301
  765TIP3   OH223853   0.892   1.021   9.328 -0.2738 -0.1929  0.0670
  765TIP3    H123854   0.876   0.950   9.265  1.9584 -1.5752  0.9082
  765TIP3    H223855   0.806   1.056   9.347 -1.3214 -1.7309 -1.4849
  766TIP3   OH223856   6.028   2.808   0.953  0.3896  0.1113 -0.3852
  766TIP3    H123857   6.084   2.877   0.986  2.4401 -1.5683 -0.1442
  766TIP3    H223858   6.021   2.824   0.859 -0.7324  1.6644 -0.0712
  767TIP3   OH223859   1.678   3.042   0.381 -0.3507  0.0390 -0.8916
  767TIP3    H123860   1.686   3.137   0.385  1.6268 -0.0408 -1.8038
  767TIP3    H223861   1.720   3.011   0.461 -0.0113 -0.0931 -1.1180
  768TIP3   OH223862   4.217   2.507   7.234  0.4273  0.5359 -0.2009
  768TIP3    H123863   4.229   2.577   7.170  1.1426  0.4011 -0.2217
  768TIP3    H223864   4.125   2.480   7.223  0.3909  0.8743 -0.7922
  769TIP3   OH223865   2.536   2.232   7.595 -0.1304  0.0333  0.5287
  769TIP3    H123866   2.534   2.245   7.690  1.3856  2.6878  0.2871
  769TIP3    H223867   2.627   2.206   7.577 -0.0127  0.9774 -0.3081
  770TIP3   OH223868   4.836   4.473   8.929 -0.1891  0.4336 -0.4695
  770TIP3    H123869   4.836   4.519   8.845  1.4389  1.9057  0.2771
  770TIP3    H223870   4.927   4.478   8.959 -0.6877 -0.2709  1.2710
  771TIP3   OH223871   5.107   0.627   2.227  0.3813 -0.0157  0.2880
  771TIP3    H123872   5.163   0.627   2.304 -0.8847 -1.9997  1.2799
  771TIP3    H223873   5.041   0.695   2.245  0.1320 -0.4255  0.9263
  772TIP3   OH223874   6.051   2.064   0.195 -0.1376  0.2977  0.1445
  772TIP3    H123875   6.005   2.002   0.139 -0.9078  0.8417  0.1625
  772TIP3    H223876   6.133   2.081   0.149  0.1011 -0.7645  0.1689
  773TIP3   OH223877   0.298   3.373   8.207 -0.2136 -0.1504  0.5035
  773TIP3    H123878   0.349   3.304   8.250  0.5583  0.5205  0.6995
  773TIP3    H223879   0.364   3.439   8.182 -0.7578 -0.1630 -1.0033
  774TIP3   OH223880   3.118   5.695   8.863 -0.4250  0.1818 -0.1632
  774TIP3    H123881   3.137   5.613   8.909 -1.0105  0.0916 -0.0684
  774TIP3    H223882   3.047   5.735   8.914  0.5355  1.2535  0.3864
  775TIP3   OH223883   4.970   4.600   1.209 -0.3643  0.5702  0.2774
  775TIP3    H123884   4.996   4.666   1.274  2.2835  1.2755 -1.3849
  775TIP3    H223885   4.922   4.650   1.143  0.9790  0.7340 -0.5988
  776TIP3   OH223886   2.469   2.141   0.290  0.1598  0.3429 -0.3810
  776TIP3    H123887   2.520   2.163   0.211 -1.7848 -0.3564 -1.9196
  776TIP3    H223888   2.430   2.225   0.316  1.2812  0.6942  0.2324
  777TIP3   OH223889   0.484   2.845   7.454 -0.2234 -0.1312 -0.2464
  777TIP3    H123890   0.491   2.832   7.359  0.0641  0.0942 -0.2570
  777TIP3    H223891   0.573   2.833   7.486 -0.0925  0.9815 -0.1578
  778TIP3   OH223892   0.395   3.111   9.001 -0.2279 -0.2782  0.1634
  778TIP3    H123893   0.395   3.128   9.096 -1.1017  1.4509 -0.1008
  778TIP3    H223894   0.349   3.186   8.964 -1.7703 -1.9571 -1.4779
  779TIP3   OH223895   3.544   2.136   7.885  0.1220  0.4562  0.3839
  779TIP3    H123896   3.616   2.199   7.893 -1.9272  2.9982  0.2013
  779TIP3    H223897   3.531   2.103   7.973  1.1402  0.4011  0.5218
  780TIP3   OH223898   3.038   0.033   7.629  0.3028 -0.0439  0.6979
  780TIP3    H123899   2.989   0.017   7.548 -0.7290  2.4096  0.7730
  780TIP3    H223900   3.099   0.103   7.607  0.5059  0.1664  1.8665
  781TIP3   OH223901   5.225   3.147   8.306  0.4527 -0.2814 -0.4316
  781TIP3    H123902   5.194   3.139   8.396  1.1799  2.4510  0.1502
  781TIP3    H223903   5.319   3.163   8.314  0.5844 -0.3211 -1.6999
  782TIP3   OH223904   4.939   1.827   6.565  0.0497  0.3971  0.1165
  782TIP3    H123905   4.880   1.828   6.641 -0.5456  1.0821 -0.3359
  782TIP3    H223906   5.003   1.759   6.585 -0.3500  0.2741  1.0412
  783TIP3   OH223907   3.057   0.886   2.241 -0.4135  0.4737 -0.0945
  783TIP3    H123908   3.085   0.976   2.254 -1.3058  0.7240  0.1302
  783TIP3    H223909   2.968   0.882   2.276 -0.5034 -0.4147 -0.3793
  784TIP3   OH223910   6.589   1.526   7.325  0.5877 -0.0997  0.1667
  784TIP3    H123911   6.598   1.610   7.280  2.0996 -0.5198 -0.3904
  784TIP3    H223912   6.599   1.461   7.255  0.5928 -0.7516  0.7684
  785TIP3   OH223913   0.336   1.985   1.780  0.2587  0.4370 -0.4138
  785TIP3    H123914   0.275   1.933   1.727 -1.5961  0.6305  1.4052
  785TIP3    H223915   0.383   1.920   1.833 -0.8525  0.4652  0.6418
  786TIP3   OH223916   0.436   2.281   9.037 -0.5481 -0.5981 -0.4277
  786TIP3    H123917   0.496   2.345   8.997  0.0155 -0.6612  0.3081
  786TIP3    H223918   0.462   2.197   8.999 -1.4160 -0.3900 -1.5451
  787TIP3   OH223919   6.107   6.242   7.910 -0.3652  0.3415 -0.1486
  787TIP3    H123920   6.190   6.283   7.887 -1.0584  1.8549 -0.0213
  787TIP3    H223921   6.077   6.201   7.828  0.7069 -0.6395 -0.0765
  788TIP3   OH223922   4.176   4.919   1.682  0.1863 -0.2338 -0.2762
  788TIP3    H123923   4.160   4.944   1.773 -0.4328  1.7301 -0.8676
  788TIP3    H223924   4.266   4.945   1.665  0.2614 -0.4851 -0.2678
  789TIP3   OH223925   3.793   6.380   8.965 -0.2806 -0.1363  0.7577
  789TIP3    H123926   3.779   6.329   9.045 -0.6411  0.0520  0.8179
  789TIP3    H223927   3.833   6.461   8.995 -0.3715 -0.0857  0.7428
  790TIP3   OH223928   6.412   4.401   8.483  0.0582  0.4453  0.3807
  790TIP3    H123929   6.447   4.315   8.460 -2.0783 -0.3645 -0.1059
  790TIP3    H223930   6.436   4.412   8.575 -0.1562 -0.9796  0.6372
  791TIP3   OH223931   0.635   4.783   0.810  0.7729  0.2884 -0.5231
  791TIP3    H123932   0.570   4.770   0.741 -3.0654  1.7247  2.4651
  791TIP3    H223933   0.621   4.709   0.870  0.8898  1.3472  0.8512
  792TIP3   OH223934   0.612   4.570   0.982  0.5173  0.5676  0.1474
  792TIP3    H123935   0.637   4.648   1.032  1.1046  0.5791 -0.1454
  792TIP3    H223936   0.537   4.534   1.029  0.4379  1.1323  0.4661
  793TIP3   OH223937   6.377   4.466   8.943 -0.8357 -0.0561  0.3961
  793TIP3    H123938   6.414   4.511   9.018  0.5564 -0.9623  0.2805
  793TIP3    H223939   6.367   4.375   8.971  2.1099 -1.0100 -1.2322
  794TIP3   OH223940   3.685   4.778   7.490 -0.2493 -0.1820  0.5670
  794TIP3    H123941   3.750   4.848   7.485 -0.0125 -0.4609 -0.6017
  794TIP3    H223942   3.728   4.709   7.540 -0.4021  0.4033  1.5342
  795TIP3   OH223943   1.609   6.537   0.939  0.0461  0.0705 -0.0702
  795TIP3    H123944   1.562   6.472   0.886 -2.6853  2.3250 -0.6594
  795TIP3    H223945   1.686   6.490   0.972 -1.1070 -3.0557 -1.4255
  796TIP3   OH223946   2.150   5.266   7.709  0.1767  0.4797  0.1931
  796TIP3    H123947   2.109   5.317   7.640  1.6501  1.6235  0.1150
  796TIP3    H223948   2.105   5.181   7.706 -1.3359  1.2664 -0.6261
  797TIP3   OH223949   2.479   3.667   7.734 -1.0005 -0.0582  0.3900
  797TIP3    H123950   2.453   3.716   7.812  0.6684  2.3139 -0.4361
  797TIP3    H223951   2.401   3.615   7.712 -2.2036  0.7469  2.4440
  798TIP3   OH223952   0.736   6.617   1.176 -0.0037  0.0190 -0.2463
  798TIP3    H123953   0.712   6.683   1.241  0.4588 -0.1341  0.0848
  798TIP3    H223954   0.729   6.661   1.092 -0.4236  0.2738 -0.0776
  799TIP3   OH223955   0.977   4.482   1.065  0.1651  0.0785  0.1679
  799TIP3    H123956   1.067   4.481   1.098  0.3624 -0.9803 -0.3585
  799TIP3    H223957   0.924   4.449   1.137  0.2303  0.4175  0.3735
  800TIP3   OH223958   2.237   5.676   2.294  0.0138 -0.7807 -0.2045
  800TIP3    H123959   2.286   5.593   2.294  0.3502 -0.6460  2.2171
  800TIP3    H223960   2.153   5.655   2.334  0.7752  0.3465  2.1284
  801TIP3   OH223961   4.803   3.572   2.075  0.1587  0.9122  0.2187
  801TIP3    H123962   4.771   3.483   2.089  0.3702  0.2312 -3.0109
  801TIP3    H223963   4.885   3.576   2.124 -0.6725 -0.0753  1.7659
  802TIP3   OH223964   5.804   1.766   0.588  0.1438 -0.2812 -0.0160
  802TIP3    H123965   5.881   1.820   0.572  0.5396 -1.0523 -0.8409
  802TIP3    H223966   5.737   1.804   0.532  0.3198 -0.4192 -0.3249
  803TIP3   OH223967   3.380   3.137   6.730 -0.4109 -1.0696 -0.1034
  803TIP3    H123968   3.423   3.090   6.659 -0.0632 -0.9640  0.0357
  803TIP3    H223969   3.396   3.230   6.711 -0.5041 -1.0324 -0.0049
  804TIP3   OH223970   5.561   3.964   2.322 -0.4287  0.0061  0.1598
  804TIP3    H123971   5.611   4.005   2.393  0.2596  0.5028 -0.5826
  804TIP3    H223972   5.627   3.921   2.268 -1.0293 -1.0732  0.2652
  805TIP3   OH223973   4.589   3.214   9.030 -0.0795 -0.1488  0.3261
  805TIP3    H123974   4.619   3.258   9.109 -0.7480  2.0522 -0.5710
  805TIP3    H223975   4.496   3.236   9.023  0.1751  0.4965 -1.5455
  806TIP3   OH223976   5.216   3.089   0.958 -0.2064  0.1087 -0.1793
  806TIP3    H123977   5.292   3.142   0.984 -0.1943  0.0219 -0.0411
  806TIP3    H223978   5.249   3.030   0.891 -0.2670  0.4228 -0.4905
  807TIP3   OH223979   0.879   5.505   8.536 -0.0104 -0.2475 -0.2994
  807TIP3    H123980   0.852   5.425   8.491  0.3536 -1.9066  2.2042
  807TIP3    H223981   0.802   5.562   8.534 -0.0377 -0.2743 -2.7820
  808TIP3   OH223982   3.966   3.929   1.938 -0.1442  0.3117 -0.2849
  808TIP3    H123983   4.014   3.855   1.902  0.4461  0.0964  0.9125
  808TIP3    H223984   3.950   3.906   2.029 -1.7639  0.7674 -0.4123
  809TIP3   OH223985   3.242   4.408   7.704 -0.1936  0.2129 -0.8050
  809TIP3    H123986   3.188   4.487   7.695  1.8872  1.6362 -1.4776
  809TIP3    H223987   3.193   4.340   7.657 -1.9471  1.1269 -0.3768
  810TIP3   OH223988   2.714   1.123   8.570 -0.4600 -0.0723 -0.2472
  810TIP3    H123989   2.719   1.088   8.481 -0.5199 -0.0837 -0.2459
  810TIP3    H223990   2.637   1.180   8.569 -0.7929 -0.5108 -0.0498
  811TIP3   OH223991   0.028   1.043   1.243 -0.0000 -0.1661 -0.0008
  811TIP3    H123992   0.012   1.134   1.217 -0.4510  0.0412  0.9587
  811TIP3    H223993   0.079   1.050   1.324 -0.0844 -0.7710  0.1113
  812TIP3   OH223994   0.891   5.717   2.929  0.1823  0.2369 -0.0287
  812TIP3    H123995   0.986   5.723   2.912  0.1838 -0.3797 -0.2791
  812TIP3    H223996   0.852   5.776   2.865  0.3228 -0.5563 -0.8765
  813TIP3   OH223997   3.743   3.269   1.397  0.1900 -0.6380  0.1174
  813TIP3    H123998   3.740   3.251   1.303  3.1788 -0.7021 -0.0751
  813TIP3    H223999   3.653   3.291   1.420 -0.4820  0.4262 -2.9630
  814TIP3   OH224000   6.536   1.264   0.152  0.4573  0.4424  0.1541
  814TIP3    H124001   6.535   1.231   0.242 -1.4694  1.4282  0.5595
  814TIP3    H224002   6.482   1.343   0.155 -0.6006 -0.1195 -2.0647
  815TIP3   OH224003   6.571   0.906   8.494 -0.5446 -0.2839  0.0442
  815TIP3    H124004   6.522   0.910   8.412 -0.3683 -3.4134 -0.3073
  815TIP3    H224005   6.520   0.848   8.550  1.1633 -1.1177  0.8022
  816TIP3   OH224006   3.553   5.968   1.547  0.1978 -0.0657  0.4060
  816TIP3    H124007   3.511   5.883   1.558  0.8974 -0.5443 -0.5252
  816TIP3    H224008   3.589   5.966   1.459  2.0800  0.3696  1.1267
  817TIP3   OH224009   0.109   6.054   0.496  0.5655 -0.1411 -0.4130
  817TIP3    H124010   0.137   6.006   0.418  1.4147 -1.0092  0.3946
  817TIP3    H224011   0.176   6.035   0.561 -0.8385 -0.5932  0.9701
  818TIP3   OH224012   1.403   0.781   1.538  0.1912  0.1480  0.0363
  818TIP3    H124013   1.477   0.811   1.485 -0.7601 -0.6995 -1.8407
  818TIP3    H224014   1.428   0.804   1.628  2.6436  0.0233 -0.5442
  819TIP3   OH224015   3.223   3.379   1.940  0.4059 -0.5389  0.2785
  819TIP3    H124016   3.224   3.323   1.863  2.0343 -2.5236  1.6221
  819TIP3    H224017   3.173   3.456   1.914  3.4303  0.3973 -3.7944
  820TIP3   OH224018   0.465   5.531   1.929 -0.1759  0.6135 -0.0624
  820TIP3    H124019   0.544   5.511   1.878  0.9424 -0.1995  1.8592
  820TIP3    H224020   0.421   5.446   1.939 -1.1821  1.0119 -0.8545
  821TIP3   OH224021   2.845   5.785   1.799 -0.3654  0.4158  0.0344
  821TIP3    H124022   2.917   5.763   1.740 -1.3857 -0.1677 -1.0377
  821TIP3    H224023   2.776   5.818   1.742 -1.2031  0.3172  0.9587
  822TIP3   OH224024   1.914   5.841   0.946  0.3648 -0.0270 -0.0929
  822TIP3    H124025   1.923   5.852   0.852 -1.2200  0.4728 -0.2162
  822TIP3    H224026   1.956   5.919   0.984  0.6375 -0.0249 -0.3969
  823TIP3   OH224027   5.034   4.360   7.590  0.0966 -0.4202 -0.2597
  823TIP3    H124028   5.092   4.285   7.574  1.2330  0.7232 -1.7626
  823TIP3    H224029   4.947   4.327   7.567  0.8019 -0.8447 -2.6193
  824TIP3   OH224030   3.081   1.317   0.261 -0.3791 -0.4425  0.3741
  824TIP3    H124031   3.093   1.248   0.327 -2.7654 -1.7936 -0.4820
  824TIP3    H224032   3.007   1.368   0.292  0.2650  0.6828  0.1114
  825TIP3   OH224033   5.379   3.874   7.277  0.1613 -0.4681 -0.0313
  825TIP3    H124034   5.332   3.791   7.275 -1.6993  0.5483 -1.5907
  825TIP3    H224035   5.413   3.881   7.366  0.2499 -2.8033  0.1706
  826TIP3   OH224036   0.416   2.061   8.836 -0.4829  0.4146  0.1017
  826TIP3    H124037   0.334   2.014   8.826  0.7319 -1.6784 -0.6337
  826TIP3    H224038   0.422   2.116   8.758 -0.9924  0.2768 -0.0377
  827TIP3   OH224039   2.359   4.868   0.248  0.4466  0.1742  0.3318
  827TIP3    H124040   2.436   4.920   0.270  2.0211 -1.4480 -0.9850
  827TIP3    H224041   2.395   4.789   0.206 -1.9373 -0.7101 -0.2034
  828TIP3   OH224042   0.630   4.114   7.483  0.3754  0.4008 -0.1241
  828TIP3    H124043   0.636   4.076   7.395 -2.1334 -0.5752  0.0309
  828TIP3    H224044   0.590   4.200   7.469  0.0580  0.2818  0.0490
  829TIP3   OH224045   6.334   0.569   1.268 -0.2746  0.6615  0.1364
  829TIP3    H124046   6.301   0.603   1.185  1.8418  1.3246 -0.5123
  829TIP3    H224047   6.374   0.485   1.245 -1.7641 -0.3114  0.9643
  830TIP3   OH224048   4.000   3.979   8.605 -0.4862 -0.5063  0.0219
  830TIP3    H124049   3.972   4.069   8.593  0.7960 -0.2062 -1.0077
  830TIP3    H224050   3.973   3.956   8.694 -1.9511  0.4578 -0.1544
  831TIP3   OH224051   2.001   2.698   1.385  0.5419  0.5759  0.1180
  831TIP3    H124052   1.948   2.746   1.321  1.0483  1.5728  0.4213
  831TIP3    H224053   2.053   2.766   1.428  0.7782 -0.1777  1.0456
  832TIP3   OH224054   1.623   2.032   8.085 -0.3037  0.2039 -0.2262
  832TIP3    H124055   1.686   2.036   8.013  0.3074  0.6038  0.3159
  832TIP3    H224056   1.538   2.023   8.042  0.1205 -0.3818 -0.9726
  833TIP3   OH224057   6.258   0.750   1.567 -0.2588 -0.4262 -0.9483
  833TIP3    H124058   6.181   0.725   1.618  0.5914 -1.3319 -0.0530
  833TIP3    H224059   6.331   0.745   1.629  0.5969 -0.0587 -1.8852
  834TIP3   OH224060   0.356   0.023   7.765  0.1602  0.3845  0.2179
  834TIP3    H124061   0.324  -0.054   7.812 -0.6274  1.4923  1.5509
  834TIP3    H224062   0.381  -0.011   7.679 -0.5596 -1.2788  0.6218
  835TIP3   OH224063   3.884   0.006   1.074 -0.0460  0.1354 -0.1033
  835TIP3    H124064   3.938  -0.045   1.015 -0.6811 -1.3612  0.5538
  835TIP3    H224065   3.919   0.095   1.069  2.2933 -0.7098  0.0945
  836TIP3   OH224066   3.310   1.343   0.595  0.1481  0.1744  0.2444
  836TIP3    H124067   3.278   1.258   0.563  0.3791  0.3196 -0.3865
  836TIP3    H224068   3.266   1.354   0.680 -0.1488 -0.4167  0.1792
  837TIP3   OH224069   6.615   4.624   7.134  0.7121  0.1143 -0.3474
  837TIP3    H124070   6.701   4.609   7.175  0.6987 -2.4482 -1.1095
  837TIP3    H224071   6.625   4.589   7.045 -1.3793 -1.1570 -0.1402
  838TIP3   OH224072   4.518   2.139   7.572 -0.9996  0.4521  0.2602
  838TIP3    H124073   4.451   2.116   7.637  0.9389 -1.7698  1.6438
  838TIP3    H224074   4.488   2.100   7.491 -1.1016 -1.0999  1.0149
  839TIP3   OH224075   2.583   2.854   2.004  0.0565 -0.3423  0.2211
  839TIP3    H124076   2.492   2.848   2.033  0.3131 -1.0144  0.9187
  839TIP3    H224077   2.601   2.948   2.001 -0.7095 -0.1997 -0.0895
  840TIP3   OH224078   4.354   6.465   0.970  0.2709 -0.2687 -0.0526
  840TIP3    H124079   4.270   6.505   0.947  0.0665 -1.2981 -1.1588
  840TIP3    H224080   4.345   6.374   0.943  1.0110 -0.9036  1.7087
  841TIP3   OH224081   5.732   4.227   0.350 -0.4135 -0.4239 -0.0109
  841TIP3    H124082   5.782   4.261   0.424  0.6655  1.2333 -1.4338
  841TIP3    H224083   5.771   4.142   0.331  0.7361  0.0897 -0.0171
  842TIP3   OH224084   0.076   5.764   8.821  0.8520  0.2088 -0.0470
  842TIP3    H124085   0.044   5.681   8.856  3.0036 -0.7243 -0.1405
  842TIP3    H224086   0.008   5.792   8.759  0.1901 -1.6137 -0.1961
  843TIP3   OH224087   3.488   2.055   0.391 -0.9473 -0.0434  0.1048
  843TIP3    H124088   3.418   2.099   0.439 -0.5180 -0.2643  0.9525
  843TIP3    H224089   3.508   1.978   0.444 -1.2191 -0.9041 -1.0027
  844TIP3   OH224090   3.954   4.676   0.482  0.1902 -0.5036  0.1202
  844TIP3    H124091   4.025   4.612   0.483  1.4213  0.8131  0.1871
  844TIP3    H224092   3.975   4.737   0.553 -0.5355  0.4012 -0.4140
  845TIP3   OH224093   1.820   5.169   1.189 -0.0933  0.0711  0.1740
  845TIP3    H124094   1.889   5.230   1.214  1.1532 -1.8330  1.6090
  845TIP3    H224095   1.739   5.220   1.197  0.8884  1.5090  1.4099
  846TIP3   OH224096   3.993   1.309   8.739  0.7888 -0.2920  0.1167
  846TIP3    H124097   3.913   1.287   8.788  0.9293 -1.3497 -0.1042
  846TIP3    H224098   4.062   1.259   8.783  1.0568 -0.6018 -0.6386
  847TIP3   OH224099   0.862   4.306   7.637  0.3860 -0.1876  0.1816
  847TIP3    H124100   0.853   4.238   7.571  1.2298  0.1315 -0.2633
  847TIP3    H224101   0.819   4.383   7.599 -2.5781 -0.9942  1.5567
  848TIP3   OH224102   2.290   1.335   3.067  0.2313 -0.2068  0.1804
  848TIP3    H124103   2.240   1.268   3.020  0.1568 -0.3583  0.4713
  848TIP3    H224104   2.352   1.368   3.003 -1.7955  1.6902 -0.9158
  849TIP3   OH224105   5.530   0.060   8.782 -0.1268 -0.1192 -0.1011
  849TIP3    H124106   5.447   0.071   8.737 -0.5670  0.6612  0.8907
  849TIP3    H224107   5.507   0.052   8.874  0.9886  1.8751  0.4021
  850TIP3   OH224108   5.081   2.864   9.142  0.3830 -0.5801  0.4136
  850TIP3    H124109   5.122   2.830   9.222  0.3631 -0.9778  0.2518
  850TIP3    H224110   5.034   2.943   9.171 -0.4544 -1.2747  0.9774
  851TIP3   OH224111   1.760   0.547   7.744  0.2442 -0.0960 -0.1113
  851TIP3    H124112   1.673   0.508   7.734  0.5536 -1.2439  1.2137
  851TIP3    H224113   1.754   0.633   7.703 -1.1063 -0.7115 -1.2627
  852TIP3   OH224114   1.351   2.748   8.062 -0.3002  0.1670 -0.3774
  852TIP3    H124115   1.385   2.833   8.091 -0.5806 -0.4118  1.8524
  852TIP3    H224116   1.429   2.693   8.053 -0.2484  0.2000 -0.1420
  853TIP3   OH224117   4.950   3.637   7.180 -0.3475  0.1570  0.0960
  853TIP3    H124118   4.950   3.725   7.141 -0.1018  0.9847  1.8389
  853TIP3    H224119   4.862   3.628   7.217  0.1442  0.3943  1.3822
  854TIP3   OH224120   5.268   6.353   0.386  0.3520  0.7062  0.1182
  854TIP3    H124121   5.362   6.368   0.389  0.8936 -1.4006 -2.1953
  854TIP3    H224122   5.238   6.403   0.310 -0.0559  0.0692 -0.1527
  855TIP3   OH224123   2.907   2.916   0.634 -0.2484  0.3030  0.3379
  855TIP3    H124124   2.966   2.991   0.620 -0.4547  0.2554 -0.9288
  855TIP3    H224125   2.871   2.898   0.547 -1.6209 -0.1043  0.9685
  856TIP3   OH224126   5.434   6.374   2.035  0.3451  0.2550 -0.3098
  856TIP3    H124127   5.399   6.331   2.114 -0.1648 -0.2406 -0.7952
  856TIP3    H224128   5.362   6.428   2.003 -0.6329 -2.0380 -2.2500
  857TIP3   OH224129   2.723   5.212   9.229  0.3702 -0.4638 -0.4533
  857TIP3    H124130   2.812   5.229   9.199 -0.1653  0.8424 -1.3975
  857TIP3    H224131   2.727   5.125   9.269  2.5722  0.5279  1.7038
  858TIP3   OH224132   4.715   3.599   6.896 -0.6821  0.1236 -0.3489
  858TIP3    H124133   4.804   3.569   6.882 -0.6415 -0.7915  1.5620
  858TIP3    H224134   4.659   3.529   6.862 -0.5883 -1.6687  2.8151
  859TIP3   OH224135   3.708   1.462   7.339  0.1304  0.1902 -0.4648
  859TIP3    H124136   3.653   1.505   7.404 -1.7412 -1.7101 -0.6755
  859TIP3    H224137   3.795   1.461   7.378 -0.1980  2.1985  0.4295
  860TIP3   OH224138   1.047   6.258   0.794 -0.5336 -0.3432  0.1865
  860TIP3    H124139   1.073   6.234   0.705 -1.0017 -0.4718  0.0781
  860TIP3    H224140   1.057   6.177   0.844 -3.7209 -1.3458 -0.5359
  861TIP3   OH224141   3.984   3.912   0.178  0.2389  0.0078  0.4243
  861TIP3    H124142   3.921   3.966   0.130 -0.6929 -0.8859  0.6138
  861TIP3    H224143   3.998   3.959   0.261 -2.4094 -1.1409  1.6485
  862TIP3   OH224144   3.689   3.588   9.060  0.8328 -0.4931  0.5067
  862TIP3    H124145   3.628   3.657   9.084  1.4924  0.0281  0.7043
  862TIP3    H224146   3.675   3.574   8.967  3.8063  3.1474 -0.7250
  863TIP3   OH224147   3.295   6.423   1.310 -0.0350  0.4641 -0.2528
  863TIP3    H124148   3.286   6.344   1.364 -1.5767 -0.7442 -2.1163
  863TIP3    H224149   3.382   6.415   1.271 -0.1881 -0.3770 -0.4549
  864TIP3   OH224150   2.831   0.638   0.449 -0.2923 -0.6446  0.0514
  864TIP3    H124151   2.906   0.579   0.443  2.0898  2.0745  0.6197
  864TIP3    H224152   2.794   0.639   0.361  0.4881 -1.8721 -0.3205
  865TIP3   OH224153   6.462   2.159   2.088 -0.3140  0.4060  0.3204
  865TIP3    H124154   6.425   2.169   2.000 -2.1197  0.5020  1.0341
  865TIP3    H224155   6.495   2.246   2.110  2.7393 -0.2077 -1.2613
  866TIP3   OH224156   6.010   3.986   1.899 -0.0854 -0.0794 -0.1422
  866TIP3    H124157   6.058   3.974   1.981 -0.4856 -1.5215 -0.0941
  866TIP3    H224158   6.061   3.938   1.834 -0.4924 -0.0889 -0.4621
  867TIP3   OH224159   2.330   4.315   7.759 -0.0214 -0.4863 -0.6391
  867TIP3    H124160   2.265   4.310   7.689 -2.8497 -0.6968  1.7977
  867TIP3    H224161   2.335   4.225   7.793  0.2246 -0.1208  0.3143
  868TIP3   OH224162   0.432   4.230   7.635 -0.4915 -0.0050 -0.3448
  868TIP3    H124163   0.501   4.164   7.641  0.1984  0.8056  1.4084
  868TIP3    H224164   0.355   4.187   7.670 -1.4469 -1.4777 -3.8339
  869TIP3   OH224165   4.448   6.432   9.188 -0.3469 -0.7739  0.3381
  869TIP3    H124166   4.378   6.405   9.247 -0.0835  0.1340  1.0807
  869TIP3    H224167   4.525   6.442   9.244 -0.1085  0.1637 -0.1370
  870TIP3   OH224168   1.502   5.926   0.528 -0.1446 -0.1284  0.1620
  870TIP3    H124169   1.560   5.893   0.460  0.1269 -1.0387  0.8235
  870TIP3    H224170   1.462   6.004   0.489  1.0073  0.1377 -0.5437
  871TIP3   OH224171   1.224   4.071   0.830 -0.0570 -0.1324 -0.4749
  871TIP3    H124172   1.280   4.120   0.770  1.6253 -0.4714  0.7362
  871TIP3    H224173   1.273   3.991   0.849 -1.7109 -1.2130 -0.6244
  872TIP3   OH224174   1.295   6.034   7.753  0.2645  0.2434  0.6888
  872TIP3    H124175   1.374   5.999   7.794 -0.7644 -1.0953  1.6053
  872TIP3    H224176   1.236   6.053   7.826 -0.4961  0.6389 -0.0094
  873TIP3   OH224177   2.543   4.268   8.833  0.1678  0.2246 -0.7396
  873TIP3    H124178   2.629   4.310   8.835  0.2304  0.0651  0.6096
  873TIP3    H224179   2.562   4.175   8.844 -0.2799  0.4283  3.0177
  874TIP3   OH224180   4.599   6.204   1.059  1.1629  0.5216  0.0598
  874TIP3    H124181   4.665   6.219   0.992  0.2918 -0.1066 -0.9789
  874TIP3    H224182   4.642   6.225   1.141  2.3344  1.0762 -0.6798
  875TIP3   OH224183   0.671   0.713   0.317  0.3773 -0.3041 -0.2717
  875TIP3    H124184   0.759   0.693   0.349 -0.1092 -1.3740  0.4742
  875TIP3    H224185   0.620   0.634   0.337 -0.5387 -0.0681 -1.5129
  876TIP3   OH224186   3.188   0.783   7.011  0.0698 -0.4622 -0.6275
  876TIP3    H124187   3.172   0.847   6.942 -1.0828 -1.8091 -1.6658
  876TIP3    H224188   3.273   0.744   6.989  1.0878  1.0997  0.3683
  877TIP3   OH224189   2.728   6.010   8.285  0.0473 -0.0792  0.1388
  877TIP3    H124190   2.788   6.038   8.354  0.1628 -1.2492  0.5505
  877TIP3    H224191   2.647   6.058   8.303  1.2904  2.8445 -1.4360
  878TIP3   OH224192   3.042   0.869   8.879  0.3175  0.0446 -0.7713
  878TIP3    H124193   3.017   0.947   8.830 -0.3419 -0.7359 -1.6986
  878TIP3    H224194   3.060   0.901   8.968 -0.8074  1.1160 -0.9153
  879TIP3   OH224195   0.616   0.791   7.984 -0.0340  0.6752  0.4107
  879TIP3    H124196   0.682   0.817   7.920 -1.1597 -1.8627 -1.9849
  879TIP3    H224197   0.648   0.708   8.019 -0.1016  1.3736  2.2281
  880TIP3   OH224198   1.268   0.285   0.669  0.2570 -0.1202 -0.2796
  880TIP3    H124199   1.313   0.202   0.653 -0.6939 -0.6180 -0.4013
  880TIP3    H224200   1.209   0.268   0.742  0.9771  0.8047  0.5458
  881TIP3   OH224201   4.524   0.277   0.605 -0.1599  0.2933  0.3592
  881TIP3    H124202   4.510   0.183   0.619  1.0639  0.0522  0.1008
  881TIP3    H224203   4.583   0.303   0.675  0.0644  0.7187  0.0162
  882TIP3   OH224204   1.714   0.314   7.961  0.1730 -0.2883 -0.5571
  882TIP3    H124205   1.631   0.362   7.960  0.5171  0.3463 -2.5264
  882TIP3    H224206   1.779   0.379   7.935  1.0691 -1.1726 -0.5642
  883TIP3   OH224207   3.463   4.096   1.155 -0.2235  0.2417 -0.0464
  883TIP3    H124208   3.484   4.060   1.068  0.4931 -1.4313  0.7691
  883TIP3    H224209   3.486   4.188   1.149 -0.0529  0.1297 -1.6000
  884TIP3   OH224210   5.540   4.033   8.698 -0.4730  0.1199  0.2216
  884TIP3    H124211   5.458   3.989   8.672 -0.1786 -0.7800  0.7751
  884TIP3    H224212   5.558   4.093   8.625 -0.7107 -0.9201 -0.7286
  885TIP3   OH224213   5.229   5.932   2.217  0.6229 -0.0955  0.1661
  885TIP3    H124214   5.162   5.936   2.286 -1.6298  0.8740 -1.9352
  885TIP3    H224215   5.224   5.842   2.184  0.5371 -0.0924  0.1702
  886TIP3   OH224216   0.071   6.590   8.691  0.0508  0.4365 -0.4355
  886TIP3    H124217   0.037   6.655   8.752 -2.0097 -0.1404 -0.9214
  886TIP3    H224218   0.037   6.506   8.722  1.0104 -0.1826 -0.9780
  887TIP3   OH224219   4.506   3.660   9.238  0.3108 -0.2174  0.7508
  887TIP3    H124220   4.474   3.623   9.156  2.2014 -1.0250  0.3290
  887TIP3    H224221   4.575   3.721   9.212  0.4396  0.0692  1.7150
  888TIP3   OH224222   3.654   1.774   7.943  0.3014 -0.2994  0.5432
  888TIP3    H124223   3.564   1.797   7.919  1.2273  1.3054 -1.7235
  888TIP3    H224224   3.662   1.805   8.034 -1.4744 -0.7102  0.8856
  889TIP3   OH224225   2.909   2.679   8.258 -0.2763 -0.0151  0.2694
  889TIP3    H124226   2.913   2.671   8.353  0.8042 -0.2983  0.2067
  889TIP3    H224227   2.886   2.591   8.228 -1.6847  0.3095  0.3059
  890TIP3   OH224228   4.931   3.453   2.453 -1.2295  0.5512 -0.0893
  890TIP3    H124229   4.837   3.442   2.458 -1.0879 -0.8557 -0.3059
  890TIP3    H224230   4.965   3.367   2.429  0.1422  0.9491  0.3195
  891TIP3   OH224231   3.369   4.689   1.112  0.5262  0.0936 -0.2866
  891TIP3    H124232   3.429   4.726   1.177  0.1176  0.0296  0.1396
  891TIP3    H224233   3.350   4.601   1.145 -0.4101  0.3937  0.0139
  892TIP3   OH224234   4.900   5.638   1.840 -0.0468  0.7063 -0.3095
  892TIP3    H124235   4.889   5.545   1.823  1.8210  0.3431  0.2092
  892TIP3    H224236   4.811   5.674   1.839 -0.9503 -1.3443  1.0599
  893TIP3   OH224237   0.894   4.757   1.138  0.0101 -0.6751  0.1838
  893TIP3    H124238   0.968   4.699   1.119  0.5176 -0.1375  0.4669
  893TIP3    H224239   0.879   4.804   1.056  1.9267  1.3405  0.8713
  894TIP3   OH224240   4.952   3.307   1.375 -0.2040 -0.7319  0.1468
  894TIP3    H124241   4.946   3.229   1.431 -0.4659  0.5317  1.9659
  894TIP3    H224242   4.864   3.317   1.339 -0.2545 -1.0809  0.1672
  895TIP3   OH224243   4.044   2.872   0.518  0.1254  0.1785 -0.1232
  895TIP3    H124244   4.075   2.942   0.460 -2.2722  1.3583 -0.0879
  895TIP3    H224245   4.029   2.797   0.461  0.7725  0.3311 -0.4989
  896TIP3   OH224246   0.371   3.497   8.592  0.2973 -0.2654  0.1833
  896TIP3    H124247   0.319   3.578   8.593  0.5605  0.0551  4.0294
  896TIP3    H224248   0.307   3.428   8.609  0.4692 -0.4984 -0.1211
  897TIP3   OH224249   5.991   0.984   1.769  0.0237  0.1584  0.0964
  897TIP3    H124250   5.972   1.051   1.704 -1.3022  1.5762  1.8543
  897TIP3    H224251   6.082   1.000   1.795 -0.6392  2.1240  1.3709
  898TIP3   OH224252   3.100   3.678   8.209 -0.5257 -0.1077  0.6937
  898TIP3    H124253   3.187   3.686   8.169  0.4710  1.9049  2.9983
  898TIP3    H224254   3.105   3.599   8.261 -0.5091 -0.6514 -0.1186
  899TIP3   OH224255   1.590   3.167   2.293 -0.1631  0.7008 -0.3722
  899TIP3    H124256   1.575   3.255   2.259  1.1892  0.7955 -0.7874
  899TIP3    H224257   1.624   3.181   2.381 -1.0244  0.5403 -0.0022
  900TIP3   OH224258   5.300   0.112   0.083  0.4667 -0.7983 -0.0757
  900TIP3    H124259   5.366   0.061   0.131  0.6435  0.4463  1.0620
  900TIP3    H224260   5.304   0.199   0.123 -2.2674 -0.8301  0.4222
  901TIP3   OH224261   4.266   4.619   6.533 -0.3790  0.6570 -0.2100
  901TIP3    H124262   4.217   4.700   6.519 -0.1904  0.5613 -1.5362
  901TIP3    H224263   4.204   4.549   6.514 -0.1623  0.5086 -0.3700
  902TIP3   OH224264   1.292   6.612   8.600 -0.2466  0.6172 -0.2027
  902TIP3    H124265   1.345   6.631   8.523 -0.1006 -2.8614 -1.1631
  902TIP3    H224266   1.352   6.621   8.674  0.8124 -0.0888 -0.9487
  903TIP3   OH224267   3.037   6.476   0.641 -0.2801  0.1636  0.2534
  903TIP3    H124268   2.985   6.557   0.643 -2.0784 -0.9650  1.2298
  903TIP3    H224269   3.059   6.465   0.548 -0.2714  1.5826  0.0572
  904TIP3   OH224270   2.104   6.455   2.274 -0.0315  0.5074 -0.5452
  904TIP3    H124271   2.022   6.496   2.246 -0.3826 -0.1602 -0.5045
  904TIP3    H224272   2.103   6.462   2.370  0.0794  0.7206 -0.5585
  905TIP3   OH224273   3.307   0.138   0.043  0.5410  0.7178 -0.3454
  905TIP3    H124274   3.357   0.185   0.110  0.9763  0.9991 -0.8613
  905TIP3    H224275   3.343   0.050   0.044 -0.1873  0.4168  0.5337
  906TIP3   OH224276   4.636   2.000   7.288 -0.1427  0.2262  0.6608
  906TIP3    H124277   4.674   2.071   7.236 -1.6184 -0.4033 -1.4202
  906TIP3    H224278   4.650   1.922   7.235 -1.2406 -0.5409  1.4543
  907TIP3   OH224279   2.274   0.121   2.226  0.0691 -0.0952 -0.4009
  907TIP3    H124280   2.334   0.051   2.200  0.0824 -0.1359 -0.2617
  907TIP3    H224281   2.255   0.103   2.318 -0.1966 -0.1107 -0.4578
  908TIP3   OH224282   2.483   0.591   8.417  0.3108 -0.4070  0.0506
  908TIP3    H124283   2.419   0.617   8.483 -1.4672 -0.3740 -1.5749
  908TIP3    H224284   2.540   0.667   8.407  1.2850 -0.7785  2.2251
  909TIP3   OH224285   3.131   2.731   1.439  0.2657  0.4410  0.3240
  909TIP3    H124286   3.223   2.729   1.466  0.3496  0.3541  0.0285
  909TIP3    H224287   3.132   2.773   1.353  0.0202  0.4964  0.3470
  910TIP3   OH224288   1.110   4.785   8.024  0.1093  0.6005 -0.3860
  910TIP3    H124289   1.173   4.783   7.952 -1.1698  0.2243 -1.5307
  910TIP3    H224290   1.148   4.727   8.090  1.6632  1.5364 -0.4224
  911TIP3   OH224291   1.780   0.736   9.011 -0.3796 -0.2505 -0.1135
  911TIP3    H124292   1.718   0.766   8.944 -0.2826 -0.6871 -0.4022
  911TIP3    H224293   1.856   0.706   8.962 -0.4406 -0.8863  0.1615
  912TIP3   OH224294   6.225   4.280   6.464  0.1311  0.0486 -0.1680
  912TIP3    H124295   6.291   4.347   6.442  1.2063  0.0115  2.5335
  912TIP3    H224296   6.272   4.197   6.455 -0.4169 -0.1846 -0.9584
  913TIP3   OH224297   3.600   4.975   1.544  0.3644 -0.0357  0.1357
  913TIP3    H124298   3.677   5.030   1.527  0.5304 -0.3692 -0.1874
  913TIP3    H224299   3.636   4.895   1.582  0.0559  0.4325  1.4951
  914TIP3   OH224300   2.303   0.251   7.847 -0.4225 -0.7267  0.0437
  914TIP3    H124301   2.234   0.313   7.821 -0.6708 -0.2237  1.8009
  914TIP3    H224302   2.384   0.292   7.816 -0.6681  0.0692  0.4299
  915TIP3   OH224303   5.501   2.469   7.176 -0.6258 -0.6054  0.1566
  915TIP3    H124304   5.422   2.419   7.194 -0.3057 -0.7067  1.4253
  915TIP3    H224305   5.484   2.556   7.212 -0.4875 -0.3537 -0.3684
  916TIP3   OH224306   0.525   2.442   7.807  0.2273 -0.5912  0.5548
  916TIP3    H124307   0.601   2.437   7.865  0.0550 -2.8877  0.6861
  916TIP3    H224308   0.545   2.380   7.737 -0.8561 -0.0425 -0.2631
  917TIP3   OH224309   0.590   2.716   7.819  0.9286  0.0410  0.4924
  917TIP3    H124310   0.637   2.728   7.736  0.8354  1.9322  0.6739
  917TIP3    H224311   0.550   2.629   7.812  1.4513 -0.0907 -1.1738
  918TIP3   OH224312   2.460   2.993   6.571 -0.1871  0.3905 -0.0963
  918TIP3    H124313   2.528   2.994   6.638  1.1641 -0.6052 -1.3794
  918TIP3    H224314   2.421   3.080   6.575  1.3830  1.1076  0.4982
  919TIP3   OH224315   4.705   5.281   3.006  0.2592  0.0858 -0.1035
  919TIP3    H124316   4.640   5.297   3.074 -0.8672 -1.1922 -0.8381
  919TIP3    H224317   4.773   5.229   3.050  0.1602  0.3359  0.3520
  920TIP3   OH224318   5.633   5.329   1.922 -0.0707 -0.0688  0.2091
  920TIP3    H124319   5.623   5.336   2.017 -0.1433  0.3040  0.1724
  920TIP3    H224320   5.709   5.383   1.901  1.0410 -1.5292  0.2686
  921TIP3   OH224321   4.877   5.792   7.883 -0.2556  0.2825  0.1385
  921TIP3    H124322   4.899   5.852   7.954  1.5121 -1.0276  0.7676
  921TIP3    H224323   4.930   5.820   7.809  1.4434 -1.0783  0.7639
  922TIP3   OH224324   6.537   3.629   8.700  0.5989 -0.6509  0.4279
  922TIP3    H124325   6.551   3.668   8.614  1.3984 -0.8674  0.4508
  922TIP3    H224326   6.446   3.649   8.722  0.3469 -0.7250 -0.5310
  923TIP3   OH224327   1.878   2.034   9.155  0.5857 -0.1181  0.2551
  923TIP3    H124328   1.843   2.013   9.242 -1.7294 -1.2897 -0.8600
  923TIP3    H224329   1.950   1.973   9.143 -0.3070 -1.2869  0.6260
  924TIP3   OH224330   2.237   4.073   8.147 -0.2785  0.1081 -0.0062
  924TIP3    H124331   2.298   4.144   8.128  0.5927 -0.8263 -0.8279
  924TIP3    H224332   2.287   4.012   8.201 -0.8730 -0.0939  0.3218
  925TIP3   OH224333   2.709   4.085   9.146  0.2429  0.2045 -0.1090
  925TIP3    H124334   2.734   4.169   9.107 -0.4149  1.7532  2.5367
  925TIP3    H224335   2.791   4.038   9.156  0.6813  0.6837 -1.2372
  926TIP3   OH224336   1.461   2.797   1.299 -0.3548 -0.1040  0.1876
  926TIP3    H124337   1.416   2.859   1.357  2.5269  2.3637  0.0610
  926TIP3    H224338   1.534   2.764   1.351  0.4261 -0.3336 -1.0206
  927TIP3   OH224339   5.775   2.404   2.071 -0.1120  0.9187  0.2933
  927TIP3    H124340   5.784   2.308   2.076 -1.5074  0.7598  0.0199
  927TIP3    H224341   5.778   2.424   1.978  0.0258  1.1284  0.3417
  928TIP3   OH224342   2.581   5.124   1.049  0.1351  0.2540 -0.6826
  928TIP3    H124343   2.558   5.073   0.972  1.1096 -0.1045 -0.7539
  928TIP3    H224344   2.646   5.187   1.016 -0.1536  0.7359 -0.3447
  929TIP3   OH224345   0.694   1.861   9.019 -0.2961 -1.0706  0.5275
  929TIP3    H124346   0.771   1.806   9.033 -0.5358 -1.5625 -0.0667
  929TIP3    H224347   0.727   1.937   8.971 -0.6823 -2.8157 -2.7665
  930TIP3   OH224348   3.243   0.754   7.914 -0.1017 -0.6651 -0.5436
  930TIP3    H124349   3.185   0.724   7.984 -2.5034  1.5865 -1.4151
  930TIP3    H224350   3.217   0.703   7.837 -0.1104 -0.4671 -0.6714
  931TIP3   OH224351   6.385   5.477   2.267  0.2048 -0.0978 -0.4074
  931TIP3    H124352   6.455   5.492   2.330  0.5576 -0.1325 -0.7836
  931TIP3    H224353   6.305   5.490   2.316  0.3901 -2.9614  0.8385
  932TIP3   OH224354   2.943   0.921   8.009 -0.0317  0.2156  0.2411
  932TIP3    H124355   2.959   1.014   7.993  1.1310  0.0639  0.4502
  932TIP3    H224356   2.996   0.876   7.943 -0.2827 -0.3138  0.3971
  933TIP3   OH224357   3.856   5.872   0.285 -0.7630 -0.8414  0.4002
  933TIP3    H124358   3.811   5.940   0.235 -2.2502 -1.5199  0.7463
  933TIP3    H224359   3.848   5.793   0.232 -1.0236 -1.2267  0.9925
  934TIP3   OH224360   1.760   4.190   1.056 -0.0225  0.2180 -0.2191
  934TIP3    H124361   1.685   4.239   1.090  0.4853  1.0587 -0.2724
  934TIP3    H224362   1.827   4.199   1.123  0.5261  0.7325 -0.8293
  935TIP3   OH224363   2.957   5.441   2.364 -0.3052 -0.1033 -0.1298
  935TIP3    H124364   2.886   5.440   2.428 -0.0552  0.7578  0.1801
  935TIP3    H224365   3.006   5.521   2.385  1.3811 -1.2175  0.3585
  936TIP3   OH224366   0.569   4.088   0.122 -0.5774  0.4950 -0.0818
  936TIP3    H124367   0.564   4.180   0.146 -0.4206  1.1134 -2.2440
  936TIP3    H224368   0.642   4.054   0.173  0.5996  2.0541 -0.6678
  937TIP3   OH224369   2.336   5.080   8.513  0.4281 -0.2370 -0.8722
  937TIP3    H124370   2.340   5.014   8.445  4.3140 -0.5220 -0.6021
  937TIP3    H224371   2.336   5.030   8.595 -1.0600  0.1478 -0.5958
  938TIP3   OH224372   3.154   4.137   1.110 -0.2535  0.4210  0.3224
  938TIP3    H124373   3.096   4.092   1.049 -1.3865  1.8920  0.2549
  938TIP3    H224374   3.218   4.071   1.136  1.6952  0.2288 -4.1380
  939TIP3   OH224375   1.314   1.597   0.780 -0.0935  0.7340  0.1571
  939TIP3    H124376   1.330   1.504   0.764  1.5203  0.7073  1.5983
  939TIP3    H224377   1.229   1.600   0.823 -0.2503 -0.0564 -0.0876
  940TIP3   OH224378   3.910   0.802   7.758 -0.1807 -0.1576  0.1958
  940TIP3    H124379   3.847   0.863   7.720  0.2289  1.5022  1.9792
  940TIP3    H224380   3.991   0.853   7.766  0.5200 -1.3043  0.7070
  941TIP3   OH224381   0.678   1.177   9.274 -0.2954 -0.0448 -0.1615
  941TIP3    H124382   0.703   1.180   9.181  2.8527 -0.9742  0.5337
  941TIP3    H224383   0.709   1.260   9.310 -0.1787 -0.2961  0.3270
  942TIP3   OH224384   3.206   1.955   1.339  0.0537 -0.4568  0.4178
  942TIP3    H124385   3.243   1.868   1.350  0.7490 -0.0465  1.3851
  942TIP3    H224386   3.261   1.996   1.273  2.1086  0.5375  2.6205
  943TIP3   OH224387   0.737   2.479   0.978 -0.0827 -0.5174 -0.0341
  943TIP3    H124388   0.790   2.536   0.923  1.1217 -1.5239  0.0282
  943TIP3    H224389   0.652   2.521   0.982 -0.0905 -0.2196 -2.3417
  944TIP3   OH224390   5.117   1.271   9.202 -0.1817  0.3229  0.1768
  944TIP3    H124391   5.079   1.349   9.162 -1.7630 -1.3015 -1.6566
  944TIP3    H224392   5.043   1.214   9.219  1.0080 -1.1206  0.7434
  945TIP3   OH224393   6.120   2.193   8.030  0.0222 -0.4827  0.2851
  945TIP3    H124394   6.086   2.250   7.960  0.6976  0.6968  0.8840
  945TIP3    H224395   6.107   2.104   7.997  0.1640  0.0411 -1.2632
  946TIP3   OH224396   5.887   3.244   8.147  0.0979 -0.3711  0.3590
  946TIP3    H124397   5.884   3.194   8.065  0.9018 -1.8761  1.2099
  946TIP3    H224398   5.873   3.335   8.120  0.1235 -0.8578 -1.4149
  947TIP3   OH224399   1.546   4.890   7.991 -0.0114  0.3792  0.5169
  947TIP3    H124400   1.632   4.889   8.033  0.3957  0.9093 -0.2714
  947TIP3    H224401   1.528   4.983   7.976 -0.6362  0.2585  0.5063
  948TIP3   OH224402   1.350   1.647   7.673 -0.2377  0.7522  0.2136
  948TIP3    H124403   1.271   1.700   7.686 -2.4811 -2.5604  1.6711
  948TIP3    H224404   1.319   1.556   7.681  3.4479 -0.8166 -1.1019
  949TIP3   OH224405   2.275   0.746   8.204  0.6140  0.0030 -0.1062
  949TIP3    H124406   2.302   0.661   8.237 -1.2207 -0.2900  0.8000
  949TIP3    H224407   2.181   0.737   8.188  0.6050  1.5163 -1.1029
  950TIP3   OH224408   3.585   1.261   2.475  0.1957 -0.7189 -0.3002
  950TIP3    H124409   3.646   1.288   2.406  0.0110  0.7948  0.0824
  950TIP3    H224410   3.637   1.206   2.534  0.2664 -2.3247 -1.7823
  951TIP3   OH224411   1.537   6.430   1.976 -0.3786 -0.1677  0.7151
  951TIP3    H124412   1.608   6.492   1.959  0.0886 -0.4510  1.5453
  951TIP3    H224413   1.528   6.430   2.071 -0.3191 -1.4208  0.7410
  952TIP3   OH224414   2.876   1.001   0.341 -0.4492  0.1436 -0.1318
  952TIP3    H124415   2.870   1.097   0.344 -1.7076  0.0704  0.0200
  952TIP3    H224416   2.791   0.972   0.308 -1.2189 -1.0345  2.6058
  953TIP3   OH224417   0.243   2.599   7.213 -0.0797 -0.2972  0.3154
  953TIP3    H124418   0.323   2.585   7.163  0.2339  0.8225  0.4741
  953TIP3    H224419   0.259   2.557   7.297  0.2646 -0.2665  0.2656
  954TIP3   OH224420   3.416   4.832   0.232  0.3841 -0.4248  0.2504
  954TIP3    H124421   3.397   4.901   0.295  0.0165  1.1686 -1.5465
  954TIP3    H224422   3.330   4.797   0.208  0.3709  0.2525 -0.7331
  955TIP3   OH224423   3.626   5.579   0.588  0.4564  0.0664 -0.3301
  955TIP3    H124424   3.655   5.496   0.550 -0.1630  0.5299 -1.8798
  955TIP3    H224425   3.603   5.633   0.513 -1.0503  0.9543  0.7140
  956TIP3   OH224426   4.250   2.371   0.614 -0.1101  0.0035 -0.3696
  956TIP3    H124427   4.317   2.439   0.625  0.2051 -0.3108 -0.3286
  956TIP3    H224428   4.167   2.416   0.632  0.0936  0.3814 -0.3632
  957TIP3   OH224429   3.880   1.274   2.306 -0.3914  0.0594 -0.0093
  957TIP3    H124430   3.814   1.290   2.238 -0.4724 -0.0245  0.0500
  957TIP3    H224431   3.918   1.189   2.282 -0.3565  0.0729 -0.0013
  958TIP3   OH224432   6.196   0.818   0.036  0.0973 -0.8211  0.0174
  958TIP3    H124433   6.276   0.854   0.073 -0.1707 -0.0161 -0.1599
  958TIP3    H224434   6.209   0.723   0.037  0.9313 -0.7093  0.2427
  959TIP3   OH224435   4.132   5.642   1.686  0.1565  0.1112 -0.3491
  959TIP3    H124436   4.074   5.642   1.610 -0.8427 -0.4609  0.3898
  959TIP3    H224437   4.176   5.557   1.682  1.5581  0.8487 -1.3362
  960TIP3   OH224438   3.016   4.519   8.143  0.1603 -0.0305  0.3761
  960TIP3    H124439   3.006   4.453   8.074  0.0816  2.9130 -2.6523
  960TIP3    H224440   3.097   4.564   8.122 -0.3444  1.5842  1.6799
  961TIP3   OH224441   6.491   6.412   0.357 -0.0062  0.2091  0.5156
  961TIP3    H124442   6.514   6.488   0.305  1.2344 -1.8181 -2.1446
  961TIP3    H224443   6.410   6.379   0.316 -0.6986  0.2203  1.8211
  962TIP3   OH224444   3.653   6.606   1.624  0.0787 -0.4018  0.1054
  962TIP3    H124445   3.618   6.532   1.574  1.0883 -0.1109 -1.0732
  962TIP3    H224446   3.719   6.567   1.681 -0.8864 -0.6955  1.0539
  963TIP3   OH224447   5.725   0.293   0.125  0.3859  0.3590 -0.0032
  963TIP3    H124448   5.691   0.375   0.160 -3.2848 -0.3207 -1.5293
  963TIP3    H224449   5.670   0.226   0.165  3.2094 -1.4859  1.1183
  964TIP3   OH224450   3.230   5.165   9.307 -0.1844 -0.4668  0.6705
  964TIP3    H124451   3.216   5.120   9.391 -3.8836 -1.0869 -0.0985
  964TIP3    H224452   3.227   5.258   9.329  2.3957 -0.5231  1.5896
  965TIP3   OH224453   2.839   3.735   0.950  0.3311 -0.1259  0.2280
  965TIP3    H124454   2.758   3.742   0.899 -0.4995  1.4254  1.6260
  965TIP3    H224455   2.829   3.653   0.999  0.1754 -0.5707 -0.5418
  966TIP3   OH224456   1.045   0.519   7.561  0.0896  0.3580 -0.6753
  966TIP3    H124457   0.951   0.534   7.570  0.5266  3.9246 -0.9015
  966TIP3    H224458   1.064   0.541   7.470  1.0725 -1.2142 -0.8980
  967TIP3   OH224459   6.013   3.926   0.417  0.2013  0.3951  0.1454
  967TIP3    H124460   6.099   3.900   0.447  0.2291  0.8031  0.4220
  967TIP3    H224461   5.984   3.854   0.361  0.4053 -0.0842  0.6498
  968TIP3   OH224462   3.799   2.370   0.545 -0.6633  0.0123  0.2862
  968TIP3    H124463   3.772   2.343   0.458 -0.5469 -0.5856  0.4282
  968TIP3    H224464   3.753   2.310   0.604 -0.0909 -0.1335  0.5934
  969TIP3   OH224465   5.261   1.644   9.075  0.1617 -0.0395 -0.7021
  969TIP3    H124466   5.297   1.637   8.986  0.1453  0.4842 -0.7509
  969TIP3    H224467   5.319   1.705   9.120  0.2357 -0.3907 -0.3143
  970TIP3   OH224468   4.103   4.500   1.649 -0.0213  0.4368  0.0900
  970TIP3    H124469   4.014   4.469   1.659 -0.0273  0.8148  1.2879
  970TIP3    H224470   4.118   4.558   1.724  0.9933  0.9260 -0.4644
  971TIP3   OH224471   2.659   4.448   1.469 -0.7903  0.1188  0.4741
  971TIP3    H124472   2.616   4.482   1.391 -0.7906 -0.0632  0.3955
  971TIP3    H224473   2.599   4.382   1.503 -0.6975  0.0557  0.5166
  972TIP3   OH224474   0.134   6.446   1.864  0.0934 -0.1298  0.4517
  972TIP3    H124475   0.118   6.387   1.937 -2.5140  0.9644  0.8687
  972TIP3    H224476   0.067   6.514   1.872 -1.1194 -0.5358 -3.5150
  973TIP3   OH224477   4.341   0.540   7.984 -0.2031 -0.7960 -0.1750
  973TIP3    H124478   4.259   0.517   7.940  0.6194  0.3096 -2.4525
  973TIP3    H224479   4.340   0.636   7.987  1.9310 -0.6207 -2.3012
  974TIP3   OH224480   2.387   0.645   0.855  0.4183 -0.6043 -0.3813
  974TIP3    H124481   2.474   0.675   0.828  0.3829 -0.3542 -0.2262
  974TIP3    H224482   2.393   0.639   0.950 -0.3320  1.4095 -0.1573
  975TIP3   OH224483   5.000   0.603   8.844 -0.6530 -0.3824  0.2614
  975TIP3    H124484   5.093   0.611   8.824 -0.5351  0.9994  1.1992
  975TIP3    H224485   4.974   0.519   8.807  0.7871 -0.4367 -0.6998
  976TIP3   OH224486   1.485   5.569   8.732 -0.3457 -0.4427 -0.4424
  976TIP3    H124487   1.534   5.651   8.742 -4.5080  2.0825  1.9638
  976TIP3    H224488   1.427   5.586   8.657 -1.2861 -1.1554  0.1134
  977TIP3   OH224489   3.704   0.274   9.295 -0.0345 -0.0380 -0.3576
  977TIP3    H124490   3.795   0.262   9.323  0.3409 -0.1343 -1.5581
  977TIP3    H224491   3.670   0.342   9.353  0.8473  0.0900  0.0243
  978TIP3   OH224492   2.885   5.391   1.616  0.3347 -0.2566 -0.3696
  978TIP3    H124493   2.856   5.328   1.682 -0.2276 -0.7147 -1.0341
  978TIP3    H224494   2.811   5.451   1.607  0.8705  0.5175  0.2644
  979TIP3   OH224495   1.019   4.587   0.794  0.8260  0.2176 -0.3279
  979TIP3    H124496   0.979   4.515   0.746 -2.0065  0.2343  1.7367
  979TIP3    H224497   1.021   4.558   0.885 -1.7983  3.1235  0.8373
  980TIP3   OH224498   1.597   2.174   9.126 -0.1021  0.1527 -0.5541
  980TIP3    H124499   1.594   2.217   9.212  0.2877 -0.3038 -0.3059
  980TIP3    H224500   1.683   2.132   9.124  0.2274  0.8364 -1.5031
  981TIP3   OH224501   1.354   6.441   0.222  0.0527 -0.2981 -0.0160
  981TIP3    H124502   1.363   6.346   0.211  0.5346 -0.2133 -0.3943
  981TIP3    H224503   1.263   6.460   0.197  0.0448 -0.6188 -0.2346
  982TIP3   OH224504   6.185   1.039   8.385  0.4959  0.3743 -0.1988
  982TIP3    H124505   6.112   1.100   8.377  0.8562  1.0641  1.3035
  982TIP3    H224506   6.184   1.013   8.478  2.3629  0.6897 -0.0507
  983TIP3   OH224507   3.937   4.549   0.888 -0.0043  0.1048 -0.2236
  983TIP3    H124508   4.006   4.542   0.822  0.7566 -2.2506  0.7027
  983TIP3    H224509   3.969   4.617   0.948  0.3976  0.6492 -1.0435
  984TIP3   OH224510   4.279   5.834   7.626 -0.0206 -0.6303  0.2143
  984TIP3    H124511   4.211   5.898   7.646  0.1780 -0.5263  0.5573
  984TIP3    H224512   4.243   5.783   7.553 -1.0736 -1.4960  1.2910
  985TIP3   OH224513   4.266   3.103   7.249 -0.3381  0.1120 -0.0288
  985TIP3    H124514   4.203   3.105   7.177  0.9668  0.8172 -1.2028
  985TIP3    H224515   4.341   3.154   7.217  1.2606 -1.5150  0.9145
  986TIP3   OH224516   5.317   1.437   8.574 -0.3508  0.2472 -0.2645
  986TIP3    H124517   5.249   1.417   8.638  0.1547 -2.5030 -0.4732
  986TIP3    H224518   5.387   1.478   8.626 -1.3972  1.4569  0.2464
  987TIP3   OH224519   0.877   5.007   0.026  0.9615  0.5452 -0.0486
  987TIP3    H124520   0.965   4.973   0.045  0.6253  0.5004  1.5388
  987TIP3    H224521   0.848   5.046   0.108 -1.1670 -0.9150 -0.0340
  988TIP3   OH224522   2.048   1.345   1.829  0.5010  0.6278  0.5497
  988TIP3    H124523   2.139   1.320   1.843  0.4243  0.6365  1.1025
  988TIP3    H224524   1.997   1.269   1.858  0.3685 -0.2478 -1.7673
  989TIP3   OH224525   0.598   4.893   7.580  0.1121  0.2283  0.6380
  989TIP3    H124526   0.631   4.953   7.647 -0.4919 -0.7802  1.8554
  989TIP3    H224527   0.605   4.806   7.619 -0.1236 -0.3920 -0.6602
  990TIP3   OH224528   0.913   1.698   9.077 -0.2656 -0.2353  0.4509
  990TIP3    H124529   0.935   1.608   9.051  1.5960 -0.1904  1.6162
  990TIP3    H224530   0.998   1.738   9.096 -1.1779  1.1487  1.8700
  991TIP3   OH224531   1.279   2.304   8.196  0.3930  0.2403 -0.3647
  991TIP3    H124532   1.257   2.213   8.214 -0.8390  0.6979  0.5612
  991TIP3    H224533   1.375   2.306   8.196  0.4307 -0.9067  0.3484
  992TIP3   OH224534   3.697   0.485   1.157 -0.1025 -0.1296 -0.1861
  992TIP3    H124535   3.612   0.465   1.195  1.2442 -1.6274  2.3084
  992TIP3    H224536   3.748   0.522   1.229  0.9325  2.2396 -2.0194
  993TIP3   OH224537   3.864   3.018   8.125 -0.3704  0.1555 -0.3467
  993TIP3    H124538   3.805   3.093   8.140 -1.2787 -0.7361  0.6630
  993TIP3    H224539   3.815   2.962   8.064 -1.1428 -1.1572  1.3910
  994TIP3   OH224540   1.184   5.833   1.463 -0.2467  0.0454  0.6708
  994TIP3    H124541   1.121   5.878   1.519  1.5321  1.9156  1.2894
  994TIP3    H224542   1.232   5.776   1.523 -1.4136 -1.5294  0.1679
  995TIP3   OH224543   0.854   0.786   0.689  0.2654  0.6503 -0.0784
  995TIP3    H124544   0.895   0.850   0.747  0.1358 -1.9742  3.2115
  995TIP3    H224545   0.762   0.810   0.689  0.3535  1.0190  0.3357
  996TIP3   OH224546   4.708   3.051   0.157  0.6138  0.1111  0.2946
  996TIP3    H124547   4.677   2.961   0.153  2.4242 -0.5113 -2.6167
  996TIP3    H224548   4.627   3.104   0.156 -0.5067 -1.4756 -1.9350
  997TIP3   OH224549   5.386   0.627   7.668 -0.1671  0.0530  0.0230
  997TIP3    H124550   5.482   0.627   7.666 -0.1581  0.1601  0.3711
  997TIP3    H224551   5.364   0.693   7.733 -0.4816  0.1068 -0.1385
  998TIP3   OH224552   2.047   2.085   2.906 -0.0596 -0.0967 -0.8921
  998TIP3    H124553   2.127   2.137   2.896 -0.6831  1.6136  1.7165
  998TIP3    H224554   2.072   1.997   2.881  2.5986  0.4223 -0.4073
  999TIP3   OH224555   0.835   1.305   1.331 -0.9310  0.6624 -0.1848
  999TIP3    H124556   0.792   1.330   1.413 -0.2724  0.8684  0.1057
  999TIP3    H224557   0.915   1.358   1.329 -0.1835 -0.4308 -0.2250
 1000TIP3   OH224558   2.743   5.088   7.176  0.0495 -0.0591 -0.0628
 1000TIP3    H124559   2.712   5.033   7.104  0.4041 -1.1572  0.6030
 1000TIP3    H224560   2.801   5.151   7.134 -0.2392 -0.2902 -0.8266
 1001TIP3   OH224561   4.904   5.219   0.361 -0.0754 -0.0936  0.3440
 1001TIP3    H124562   4.963   5.155   0.402  1.2808 -0.2820 -1.7516
 1001TIP3    H224563   4.819   5.175   0.360  0.8178 -1.9149 -0.9979
 1002TIP3   OH224564   5.757   4.097   8.267 -0.8669 -0.5590 -0.0779
 1002TIP3    H124565   5.674   4.071   8.226 -0.9460 -0.2074 -0.1472
 1002TIP3    H224566   5.762   4.191   8.252  0.3025 -0.8190 -1.4312
 1003TIP3   OH224567   5.543   4.990   0.407 -0.2212 -0.1501  0.1404
 1003TIP3    H124568   5.616   5.020   0.462  0.5939 -0.3468 -0.8048
 1003TIP3    H224569   5.534   5.058   0.341 -0.9646 -0.0925  0.2914
 1004TIP3   OH224570   6.111   2.892   8.127 -0.2877 -0.2343 -0.4551
 1004TIP3    H124571   6.132   2.963   8.067  0.4212  0.3948  0.5126
 1004TIP3    H224572   6.195   2.850   8.145 -0.5939 -0.8581 -0.4366
 1005TIP3   OH224573   5.573   0.788   7.164 -0.6215 -0.2481 -0.3479
 1005TIP3    H124574   5.570   0.729   7.239 -3.7354  0.8848  0.5514
 1005TIP3    H224575   5.482   0.802   7.141  0.0797  2.6219 -1.7950
 1006TIP3   OH224576   1.416   1.631   0.507  0.6642 -0.3275 -0.1141
 1006TIP3    H124577   1.388   1.677   0.428  0.2114 -0.3950  0.0031
 1006TIP3    H224578   1.356   1.664   0.575  1.7463  0.5648  0.4359
 1007TIP3   OH224579   2.915   6.541   1.354  0.0012 -0.6687  0.3982
 1007TIP3    H124580   2.873   6.574   1.434  0.6425  2.3843 -0.3846
 1007TIP3    H224581   2.885   6.600   1.285  2.9387 -0.3795 -0.7739
 1008TIP3   OH224582   5.567   0.998   7.956 -0.3128 -0.1786 -0.1548
 1008TIP3    H124583   5.571   1.088   7.987 -0.4468 -0.3118  0.2641
 1008TIP3    H224584   5.626   0.950   8.014 -1.5251 -0.6610  0.7269
 1009TIP3   OH224585   0.413   4.493   1.180  0.1821 -0.0618 -0.5925
 1009TIP3    H124586   0.412   4.581   1.220  0.5310 -0.6910  0.8935
 1009TIP3    H224587   0.502   4.463   1.192 -0.3748 -1.3293  0.6031
 1010TIP3   OH224588   2.917   3.816   0.362  0.1823 -0.2683 -0.2869
 1010TIP3    H124589   2.968   3.740   0.334 -0.7078 -1.2067  0.5100
 1010TIP3    H224590   2.840   3.815   0.305  0.1568  0.0160 -0.2566
 1011TIP3   OH224591   3.484   0.815   1.102  0.1263  0.3752  1.1476
 1011TIP3    H124592   3.501   0.805   1.196 -1.5951  1.0859  1.5636
 1011TIP3    H224593   3.558   0.867   1.070  1.2165 -0.6443  1.8948
 1012TIP3   OH224594   3.535   5.541   7.459  0.5429 -0.0661 -0.0304
 1012TIP3    H124595   3.500   5.616   7.409  0.8958 -0.0678 -0.2823
 1012TIP3    H224596   3.544   5.574   7.548 -0.7164 -0.2517  0.1895
 1013TIP3   OH224597   2.066   2.891   0.194 -0.2931  0.4080 -0.3419
 1013TIP3    H124598   2.136   2.941   0.153 -0.9888  0.1067 -1.9664
 1013TIP3    H224599   2.100   2.802   0.200 -1.0697 -0.1314 -2.7091
 1014TIP3   OH224600   5.484   3.009   8.916  0.6987  0.1576  0.0446
 1014TIP3    H124601   5.413   3.062   8.880  0.8382 -0.0884 -0.6016
 1014TIP3    H224602   5.472   3.015   9.011  1.0945  1.8692  0.0251
 1015TIP3   OH224603   3.247   1.444   7.665  0.8735 -0.4817 -0.5459
 1015TIP3    H124604   3.291   1.396   7.595  0.8095 -2.6837  0.8145
 1015TIP3    H224605   3.289   1.530   7.666  2.3284 -1.1304 -1.9020
 1016TIP3   OH224606   0.993   2.253   7.598  0.1419  0.3584 -0.0850
 1016TIP3    H124607   0.901   2.232   7.584 -0.0261 -0.3572  1.7671
 1016TIP3    H224608   1.001   2.346   7.576 -1.5303  1.0032  1.7402
 1017TIP3   OH224609   5.532   5.974   0.118  0.3315 -0.0094 -0.3041
 1017TIP3    H124610   5.464   6.040   0.130 -0.6071 -0.7750 -1.1709
 1017TIP3    H224611   5.528   5.952   0.025  1.5561 -0.3101 -0.3025
 1018TIP3   OH224612   4.751   5.022   7.701  0.0298  0.4349  0.3532
 1018TIP3    H124613   4.751   5.092   7.636  0.0710 -0.9161 -1.1546
 1018TIP3    H224614   4.674   5.040   7.755 -0.4321  1.1712 -0.5199
 1019TIP3   OH224615   4.762   0.764   2.036  0.1487 -0.3301 -0.0381
 1019TIP3    H124616   4.697   0.701   2.006  0.1523  1.1903 -3.7583
 1019TIP3    H224617   4.844   0.736   1.996  0.9107  0.1429  1.1081
 1020TIP3   OH224618   6.368   2.824   8.534  0.0379  0.0368 -0.2010
 1020TIP3    H124619   6.370   2.894   8.469 -0.5296 -0.7993 -1.1314
 1020TIP3    H224620   6.413   2.862   8.610  0.2077  1.2236 -0.8620
 1021TIP3   OH224621   6.595   3.194   2.318  0.0708  0.2301  0.6804
 1021TIP3    H124622   6.518   3.228   2.271 -0.2231 -1.1527  0.1117
 1021TIP3    H224623   6.565   3.182   2.408 -1.0604 -2.2658  0.0305
 1022TIP3   OH224624   1.907   4.693   8.692  0.0325  0.3248 -1.1450
 1022TIP3    H124625   1.817   4.667   8.713 -0.0834  0.0366 -1.9489
 1022TIP3    H224626   1.913   4.784   8.719 -0.4392  0.2880 -0.9076
 1023TIP3   OH224627   2.492   0.884   1.073 -0.2266 -0.5877  0.1488
 1023TIP3    H124628   2.469   0.926   0.990 -0.4120 -1.6486 -0.3511
 1023TIP3    H224629   2.407   0.862   1.113 -0.1620 -2.3838 -0.6001
 1024TIP3   OH224630   6.266   3.513   1.225 -0.7199 -0.0663  0.4390
 1024TIP3    H124631   6.212   3.586   1.194  0.3555  0.6670  0.2627
 1024TIP3    H224632   6.212   3.470   1.292 -0.6785  1.9464  1.8308
 1025TIP3   OH224633   0.667   1.093   7.303  0.5047  0.0252 -0.1643
 1025TIP3    H124634   0.675   1.002   7.273  2.3599 -0.1469  0.7032
 1025TIP3    H224635   0.742   1.105   7.363  0.7509  2.3487 -0.8503
 1026TIP3   OH224636   3.061   4.347   7.936 -0.0945  0.2028  0.1258
 1026TIP3    H124637   3.140   4.334   7.883 -0.8756  1.6820 -1.5338
 1026TIP3    H224638   2.992   4.303   7.887 -0.5091 -0.0343  0.9185
 1027TIP3   OH224639   5.132   2.306   0.955  0.4777 -0.3104  0.5873
 1027TIP3    H124640   5.148   2.261   1.038  0.5832 -1.0736  0.1596
 1027TIP3    H224641   5.218   2.317   0.916  0.5068  0.7084  0.9013
 1028TIP3   OH224642   3.754   1.506   7.949  0.5491 -0.5816  0.1175
 1028TIP3    H124643   3.721   1.596   7.939  1.5111 -0.3374 -1.0487
 1028TIP3    H224644   3.813   1.511   8.024 -1.4113 -0.8669  1.7662
 1029TIP3   OH224645   0.868   5.905   2.711 -0.5521 -0.2597 -0.5487
 1029TIP3    H124646   0.803   5.966   2.676  0.2296  0.5653 -0.5821
 1029TIP3    H224647   0.928   5.890   2.638 -0.6516 -0.9562 -0.4925
 1030TIP3   OH224648   1.287   5.654   8.525  0.4224 -0.2853  0.5313
 1030TIP3    H124649   1.224   5.692   8.585 -0.1585 -2.0029  1.0810
 1030TIP3    H224650   1.285   5.711   8.448 -4.8750 -2.3114 -1.2965
 1031TIP3   OH224651   3.942   3.562   6.763 -0.1606  0.4173  0.3400
 1031TIP3    H124652   3.919   3.618   6.689 -0.0327 -0.3057 -0.2554
 1031TIP3    H224653   3.881   3.489   6.758 -0.4657  0.6091  1.2403
 1032TIP3   OH224654   5.006   4.937   7.762 -0.1165  0.3832  0.1325
 1032TIP3    H124655   4.919   4.962   7.731  0.1658  1.2294 -0.0172
 1032TIP3    H224656   5.051   5.020   7.774  0.9789 -0.0745 -0.6792
 1033TIP3   OH224657   5.101   4.922   9.074 -0.3208 -0.0481  0.0191
 1033TIP3    H124658   5.017   4.891   9.107 -0.0029 -0.0325  0.8767
 1033TIP3    H224659   5.106   4.888   8.985 -1.1289 -0.2431  0.0441
 1034TIP3   OH224660   3.619   4.264   8.500  0.2618 -0.4750 -0.1856
 1034TIP3    H124661   3.643   4.356   8.506 -1.2275 -0.1519  1.8348
 1034TIP3    H224662   3.556   4.260   8.428 -3.1546  1.0505  2.4543
 1035TIP3   OH224663   4.169   5.103   2.606  0.0673 -0.7088  0.2570
 1035TIP3    H124664   4.190   5.139   2.692  3.3078  1.3359 -1.1773
 1035TIP3    H224665   4.095   5.155   2.575  0.8166  0.6042  0.6322
 1036TIP3   OH224666   2.885   1.707   2.158 -0.1152 -0.2007 -0.1029
 1036TIP3    H124667   2.877   1.735   2.249  0.5824  1.9028 -0.6379
 1036TIP3    H224668   2.808   1.652   2.143 -0.1983 -0.6480  1.7488
 1037TIP3   OH224669   0.906   3.676   1.956 -0.1531 -0.1473 -0.1947
 1037TIP3    H124670   0.920   3.601   2.014 -0.3888  0.0721  0.1482
 1037TIP3    H224671   0.993   3.713   1.943 -0.0005 -0.6108 -0.5511
 1038TIP3   OH224672   1.433   1.786   1.604  0.7031  1.0041  0.0012
 1038TIP3    H124673   1.475   1.725   1.665  1.5355  1.4217 -0.1360
 1038TIP3    H224674   1.464   1.757   1.517 -0.6335  0.2838 -0.2593
 1039TIP3   OH224675   5.806   2.671   1.860 -0.1579 -0.5673 -0.6221
 1039TIP3    H124676   5.817   2.716   1.944 -2.0129 -1.4660  0.1669
 1039TIP3    H224677   5.803   2.741   1.795 -1.2084  0.3407  0.3649
 1040TIP3   OH224678   0.499   3.019   7.679 -0.0123 -0.2529  0.4203
 1040TIP3    H124679   0.493   2.966   7.599  0.5153  0.1472  0.1032
 1040TIP3    H224680   0.574   3.077   7.663  0.2828 -0.3687  1.3280
 1041TIP3   OH224681   2.736   6.375   7.524  0.3156 -0.4117  0.4369
 1041TIP3    H124682   2.809   6.371   7.461  0.0044 -0.2757  0.0589
 1041TIP3    H224683   2.720   6.468   7.536 -0.0202 -0.4437  0.2516
 1042TIP3   OH224684   4.340   1.386   8.108 -0.9499  0.7545  0.7188
 1042TIP3    H124685   4.410   1.397   8.172 -0.6321 -2.9315  1.2447
 1042TIP3    H224686   4.277   1.329   8.152 -2.0746  0.3700 -1.3032
 1043TIP3   OH224687   4.930   1.506   0.926  0.0273 -0.3450  0.3531
 1043TIP3    H124688   4.959   1.508   0.835 -0.8560  1.1067  0.0580
 1043TIP3    H224689   4.876   1.585   0.935  1.6518  0.5893  2.6677
 1044TIP3   OH224690   3.913   4.816   1.688 -0.8864 -0.3744  0.1257
 1044TIP3    H124691   3.924   4.852   1.777 -1.5627 -2.4112  1.0788
 1044TIP3    H224692   4.001   4.820   1.651 -0.1853 -1.2091  1.5998
 1045TIP3   OH224693   1.516   5.077   2.065 -0.3166  0.2530  0.6171
 1045TIP3    H124694   1.587   5.101   2.125 -0.6717  1.2671  0.6390
 1045TIP3    H224695   1.451   5.034   2.120  0.2301 -0.6138  0.6104
 1046TIP3   OH224696   5.054   0.641   8.130 -0.1704  0.3214 -0.1479
 1046TIP3    H124697   5.066   0.701   8.055  0.1365 -1.0787 -1.2633
 1046TIP3    H224698   4.997   0.689   8.190 -0.5327  1.4404 -1.3347
 1047TIP3   OH224699   3.892   3.398   7.171  0.8115  0.2381  0.1749
 1047TIP3    H124700   3.851   3.483   7.161 -0.2864 -0.3604 -0.7164
 1047TIP3    H224701   3.922   3.396   7.262  0.0063  1.2026  0.4800
 1048TIP3   OH224702   5.338   2.842   6.883  0.2586  0.1950 -0.3199
 1048TIP3    H124703   5.433   2.832   6.882  0.1879 -0.5793 -0.3597
 1048TIP3    H224704   5.319   2.908   6.816  0.6762 -0.5498 -1.1869
 1049TIP3   OH224705   0.036   0.661   0.385  0.0108 -0.0535 -0.1286
 1049TIP3    H124706   0.047   0.660   0.480 -0.6470  1.3449 -0.0061
 1049TIP3    H224707   0.072   0.578   0.355  0.3006 -0.4755  1.3354
 1050TIP3   OH224708   0.142   0.695   8.229 -0.0873  0.5539  0.8091
 1050TIP3    H124709   0.124   0.607   8.196  1.5097  0.7254 -0.6463
 1050TIP3    H224710   0.142   0.686   8.324  1.1825 -1.2779  0.6853
 1051TIP3   OH224711   5.504   3.737   0.984  0.4222  0.0318 -0.1988
 1051TIP3    H124712   5.437   3.778   0.929  0.2225 -0.9279 -0.6802
 1051TIP3    H224713   5.504   3.645   0.958  0.6753 -0.3442  1.0458
 1052TIP3   OH224714   6.222   5.184   1.592 -0.3587  1.1139 -0.1219
 1052TIP3    H124715   6.135   5.172   1.555 -0.1659 -0.4041 -0.1327
 1052TIP3    H224716   6.280   5.187   1.516 -0.2663  0.8143 -0.0641
 1053TIP3   OH224717   1.513   3.328   1.609 -0.6638  0.2241 -0.0977
 1053TIP3    H124718   1.429   3.317   1.654 -1.3667 -1.4564 -1.7171
 1053TIP3    H224719   1.532   3.241   1.572  1.7207  0.6040  0.0882
 1054TIP3   OH224720   3.245   0.904   9.131  0.2053 -0.1038  0.0600
 1054TIP3    H124721   3.235   0.979   9.190 -2.5471 -0.8134  0.6134
 1054TIP3    H224722   3.296   0.939   9.057  1.4812  1.4956  1.5983
 1055TIP3   OH224723   1.019   2.575   6.882 -0.2600 -0.5256 -0.5563
 1055TIP3    H124724   0.976   2.661   6.881 -0.7940 -0.7158  1.4076
 1055TIP3    H224725   1.112   2.594   6.893 -0.2657 -0.1867 -1.0799
 1056TIP3   OH224726   1.966   1.442   8.919 -0.1450 -0.0345  0.1757
 1056TIP3    H124727   1.910   1.379   8.965 -0.6606  0.3585  0.0958
 1056TIP3    H224728   1.942   1.431   8.827 -0.3131  0.3498  0.1734
 1057TIP3   OH224729   5.163   3.998   1.849 -0.4972 -0.8694  0.2637
 1057TIP3    H124730   5.112   4.069   1.888  0.7902 -0.6870  1.6973
 1057TIP3    H224731   5.170   3.932   1.918  0.5236 -1.2282 -0.1556
 1058TIP3   OH224732   2.903   2.467   8.763 -0.5089 -0.2042 -0.1541
 1058TIP3    H124733   2.918   2.520   8.841  1.1876 -1.3404  0.3699
 1058TIP3    H224734   2.818   2.426   8.777 -1.1638  1.2212  0.1054
 1059TIP3   OH224735   3.317   1.984   1.623  0.5066  0.1235 -0.0795
 1059TIP3    H124736   3.274   2.012   1.542  1.5590 -0.7777 -0.9796
 1059TIP3    H224737   3.268   2.028   1.693 -1.2778 -0.1500 -1.1049
 1060TIP3   OH224738   5.938   2.562   8.337 -0.4679 -0.3340 -0.0321
 1060TIP3    H124739   5.986   2.631   8.383 -1.2474  0.2928 -0.1237
 1060TIP3    H224740   5.854   2.557   8.383 -0.8668 -0.4054 -0.7398
 1061TIP3   OH224741   3.796   3.624   8.538 -0.8659  0.6466 -0.1137
 1061TIP3    H124742   3.838   3.700   8.497  0.5535 -0.3616 -0.5940
 1061TIP3    H224743   3.755   3.577   8.465  1.9805 -1.3537 -0.5600
 1062TIP3   OH224744   2.069   0.732   0.009 -0.3599 -0.0548  0.3044
 1062TIP3    H124745   2.140   0.669   0.017 -0.3517 -0.5838 -2.7564
 1062TIP3    H224746   1.989   0.679   0.008 -0.4112  0.0003 -1.3383
 1063TIP3   OH224747   0.353   4.882   7.434 -0.2138  0.0497  0.0685
 1063TIP3    H124748   0.398   4.919   7.358  0.8974 -0.7950  0.2835
 1063TIP3    H224749   0.421   4.879   7.502 -0.6295 -1.1530  0.4404
 1064TIP3   OH224750   2.810   3.328   7.082  0.0238 -0.0273  0.1392
 1064TIP3    H124751   2.741   3.375   7.129  1.0650  0.9730  0.7352
 1064TIP3    H224752   2.854   3.396   7.030 -0.5853 -0.9651 -1.6925
 1065TIP3   OH224753   3.669   0.808   8.995  0.8422  0.4834  0.2276
 1065TIP3    H124754   3.650   0.894   9.033 -1.8061 -0.4466  1.2550
 1065TIP3    H224755   3.594   0.791   8.938  1.4269 -1.0664 -0.1119
 1066TIP3   OH224756   3.343   0.647   1.861  0.1100  0.3167 -0.0248
 1066TIP3    H124757   3.395   0.725   1.881 -0.1568  0.7559 -0.9578
 1066TIP3    H224758   3.253   0.679   1.857 -0.1924 -0.3632  1.1816
 1067TIP3   OH224759   4.684   5.855   2.216  0.2350 -0.5047  0.1625
 1067TIP3    H124760   4.759   5.810   2.254  0.7476 -0.0853 -0.3459
 1067TIP3    H224761   4.716   5.942   2.194 -0.5761 -0.1039  0.5252
 1068TIP3   OH224762   2.096   5.527   8.634  0.5158  0.0497 -0.3702
 1068TIP3    H124763   2.080   5.616   8.666  0.1508  0.3126 -1.2600
 1068TIP3    H224764   2.134   5.481   8.709 -2.3367  0.0129  1.2090
 1069TIP3   OH224765   2.261   6.169   9.144  0.0289 -0.2081  0.1906
 1069TIP3    H124766   2.165   6.164   9.150 -0.3010 -2.9066 -3.5977
 1069TIP3    H224767   2.278   6.255   9.106 -1.1201 -0.4974 -1.0525
 1070TIP3   OH224768   0.491   0.620   7.559 -0.4822  0.1477 -0.1213
 1070TIP3    H124769   0.550   0.545   7.548  0.0761  0.7362 -1.3551
 1070TIP3    H224770   0.503   0.671   7.479  0.7889  2.7338  1.5930
 1071TIP3   OH224771   3.407   6.449   8.311 -0.2987  0.0048  0.0509
 1071TIP3    H124772   3.415   6.366   8.358 -0.4344  0.3944  0.7731
 1071TIP3    H224773   3.358   6.427   8.231 -1.1320 -0.4510  0.6706
 1072TIP3   OH224774   4.308   5.600   7.868 -0.6653  0.1186  0.2347
 1072TIP3    H124775   4.402   5.582   7.869 -0.2411  2.1029  1.3785
 1072TIP3    H224776   4.282   5.592   7.960 -1.2808  1.1068  0.1525
 1073TIP3   OH224777   4.541   5.588   8.404 -0.1584  0.4857  0.1168
 1073TIP3    H124778   4.560   5.568   8.312 -0.4867  0.5819  0.0283
 1073TIP3    H224779   4.602   5.533   8.453 -0.5365 -0.1754 -0.1440
 1074TIP3   OH224780   4.418   1.512   7.719 -0.3277 -0.2742 -0.2366
 1074TIP3    H124781   4.333   1.469   7.720 -0.1435 -0.7760  2.2996
 1074TIP3    H224782   4.406   1.591   7.770  1.2578 -1.7986  2.8125
 1075TIP3   OH224783   1.944   6.081   0.460  0.1547 -0.3703  0.5216
 1075TIP3    H124784   1.935   6.107   0.552  0.5885  0.2256  0.3981
 1075TIP3    H224785   1.949   6.163   0.412  1.2732 -0.6688  0.0982
 1076TIP3   OH224786   0.933   3.547   7.792 -0.1166  0.1428 -0.4999
 1076TIP3    H124787   0.967   3.511   7.710 -1.1874 -1.9873 -0.0847
 1076TIP3    H224788   1.009   3.591   7.833  0.4669  1.1055 -2.4976
 1077TIP3   OH224789   6.033   5.236   2.199  0.2805 -0.0115 -0.1787
 1077TIP3    H124790   5.954   5.194   2.163  0.9559 -2.2892  0.8114
 1077TIP3    H224791   6.012   5.329   2.201 -1.7997 -0.3944 -1.3599
 1078TIP3   OH224792   2.247   0.882   6.977  0.3249 -0.1096  0.4174
 1078TIP3    H124793   2.231   0.970   6.944  1.0225  0.0554  0.5059
 1078TIP3    H224794   2.338   0.863   6.954  0.3215 -0.6279  0.7999
 1079TIP3   OH224795   2.967   5.363   9.146 -0.6836 -0.1829  0.0282
 1079TIP3    H124796   2.952   5.367   9.241 -0.3944  1.0260  0.0333
 1079TIP3    H224797   2.937   5.447   9.113 -1.9989 -1.0796 -1.1608
 1080TIP3   OH224798   6.053   0.058   7.427 -0.3530 -0.1296  0.2125
 1080TIP3    H124799   6.025   0.040   7.337 -0.5936 -1.3984  0.5142
 1080TIP3    H224800   6.148   0.052   7.424 -0.3267  0.4475 -0.0828
 1081TIP3   OH224801   0.461   6.385   8.304  0.4259 -0.2599  0.2340
 1081TIP3    H124802   0.372   6.410   8.283  0.7837  1.3385  0.4719
 1081TIP3    H224803   0.457   6.290   8.317 -1.1970 -0.2385  0.1061
 1082TIP3   OH224804   3.389   5.291   8.843  0.0248  0.3384 -0.6764
 1082TIP3    H124805   3.318   5.293   8.778 -0.8489 -2.0332  0.0797
 1082TIP3    H224806   3.346   5.262   8.924  1.7494 -0.6937 -0.0765
 1083TIP3   OH224807   4.425   2.691   6.450  0.1766  0.2653  0.4578
 1083TIP3    H124808   4.366   2.766   6.461  0.7338  0.7604  0.1725
 1083TIP3    H224809   4.368   2.615   6.447 -0.5567  0.8266 -0.9460
 1084TIP3   OH224810   3.927   1.637   7.478 -0.1793  0.1312 -1.1820
 1084TIP3    H124811   4.011   1.663   7.515 -0.0614  0.3439 -1.5912
 1084TIP3    H224812   3.946   1.617   7.387 -0.7548  1.2018 -1.5566
 1085TIP3   OH224813   6.124   4.464   1.240  0.4502  0.6465  0.0665
 1085TIP3    H124814   6.204   4.412   1.234 -0.0341 -0.4262  1.9780
 1085TIP3    H224815   6.132   4.512   1.323 -1.0446  0.1597  0.5382
 1086TIP3   OH224816   4.670   2.220   8.451 -0.4252 -0.2440  0.4192
 1086TIP3    H124817   4.627   2.258   8.374 -0.6081 -2.0377 -0.3968
 1086TIP3    H224818   4.639   2.274   8.524 -0.1313  1.5922 -0.7503
 1087TIP3   OH224819   1.715   6.613   1.901  0.1410 -0.4354 -0.5924
 1087TIP3    H124820   1.783   6.615   1.834  0.4197  0.6577 -0.3024
 1087TIP3    H224821   1.666   6.695   1.888 -1.6869 -1.5863 -1.3570
 1088TIP3   OH224822   5.463   3.865   8.985 -0.7359 -0.1141 -0.1815
 1088TIP3    H124823   5.389   3.922   8.961  1.1873  2.7351  0.1275
 1088TIP3    H224824   5.493   3.829   8.902 -0.5814  1.2394 -0.7421
 1089TIP3   OH224825   3.900   2.569   1.176 -0.2242  0.1946 -0.6256
 1089TIP3    H124826   3.992   2.547   1.181 -0.4646 -1.7649 -2.8506
 1089TIP3    H224827   3.869   2.567   1.266  1.9548  1.3924  0.2183
 1090TIP3   OH224828   2.313   3.684   0.593  0.1580  0.1906 -0.3684
 1090TIP3    H124829   2.331   3.618   0.526 -0.2263 -2.4445  1.9155
 1090TIP3    H224830   2.395   3.693   0.642  0.0661  1.0743 -0.3595
 1091TIP3   OH224831   4.385   1.204   7.902  0.8662 -0.6315  0.2087
 1091TIP3    H124832   4.369   1.285   7.951  1.5423 -0.3321 -0.0523
 1091TIP3    H224833   4.373   1.134   7.966 -0.7645 -0.3959  0.1910
 1092TIP3   OH224834   5.216   5.311   1.791 -0.4670  0.3348  0.7676
 1092TIP3    H124835   5.185   5.227   1.758 -2.1157  1.6369 -1.2316
 1092TIP3    H224836   5.136   5.359   1.813  0.4586  1.1863  2.5028
 1093TIP3   OH224837   4.734   3.085   0.854 -0.4011  0.0816  0.3946
 1093TIP3    H124838   4.652   3.049   0.887 -0.2750 -0.6485 -0.0706
 1093TIP3    H224839   4.715   3.110   0.764 -0.0381 -0.3390  0.2003
 1094TIP3   OH224840   6.542   0.006   8.934  0.1306  0.6361  0.6225
 1094TIP3    H124841   6.487  -0.050   8.989 -0.0544 -0.3456 -0.4990
 1094TIP3    H224842   6.613   0.034   8.992  0.2098 -0.7531  1.2620
 1095TIP3   OH224843   5.600   1.765   8.073  0.1811  0.3783  0.0709
 1095TIP3    H124844   5.678   1.814   8.048  1.4726 -1.4643  0.3019
 1095TIP3    H224845   5.628   1.673   8.074 -1.4823 -0.1810  2.0372
 1096TIP3   OH224846   2.581   4.210   0.897  0.1825 -0.0819 -0.0997
 1096TIP3    H124847   2.631   4.264   0.835 -1.7425 -0.2397 -1.8599
 1096TIP3    H224848   2.647   4.151   0.935  1.6454  0.9088 -0.9796
 1097TIP3   OH224849   5.929   0.647   7.168  0.1809 -0.3415 -0.1650
 1097TIP3    H124850   5.856   0.591   7.142 -0.2234  1.4930 -3.5821
 1097TIP3    H224851   5.900   0.736   7.147  2.7285  0.6462  0.0909
 1098TIP3   OH224852   1.114   0.492   0.983  0.2465  0.3220 -0.1187
 1098TIP3    H124853   1.092   0.400   0.994 -0.3430  0.3285 -1.1148
 1098TIP3    H224854   1.092   0.532   1.067  3.0816 -0.8642  1.3284
 1099TIP3   OH224855   2.890   0.257   9.201  0.0679 -0.2270  0.4346
 1099TIP3    H124856   2.892   0.260   9.105  2.6652  0.9959  0.4504
 1099TIP3    H224857   2.883   0.348   9.227  0.6136 -0.4581  1.4108
 1100TIP3   OH224858   4.440   3.559   7.572 -0.2460  0.4124  0.1898
 1100TIP3    H124859   4.371   3.577   7.508  2.2334  0.7461 -2.6142
 1100TIP3    H224860   4.437   3.464   7.584 -0.1699  0.2144 -1.2014
 1101TIP3   OH224861   3.357   0.634   0.937  0.0740  0.1809  0.7491
 1101TIP3    H124862   3.422   0.702   0.951  0.8847 -0.5021  0.3810
 1101TIP3    H224863   3.283   0.679   0.896  0.5595  0.8481  0.6022
 1102TIP3   OH224864   0.529   1.744   7.613 -0.1697 -0.1407 -0.3526
 1102TIP3    H124865   0.601   1.682   7.628  1.0693  1.1000 -0.9978
 1102TIP3    H224866   0.541   1.811   7.680 -1.1153 -0.2422 -0.0716
 1103TIP3   OH224867   0.440   3.589   8.984 -0.2420  0.4776  0.3102
 1103TIP3    H124868   0.481   3.625   8.906 -1.6794 -0.7661 -1.0988
 1103TIP3    H224869   0.513   3.563   9.041  0.8967 -0.2790 -1.4281
 1104TIP3   OH224870   3.257   5.780   0.420 -0.3996  0.5452 -0.3764
 1104TIP3    H124871   3.213   5.811   0.341 -2.6011 -0.6423  0.2999
 1104TIP3    H224872   3.349   5.770   0.395 -0.2970  3.7517 -1.6894
 1105TIP3   OH224873   3.197   4.032   1.422  0.3974 -0.5612  0.2845
 1105TIP3    H124874   3.232   4.008   1.337  1.4363 -0.2461  0.6124
 1105TIP3    H224875   3.267   4.081   1.464 -0.1532 -0.5930  1.2690
 1106TIP3   OH224876   6.253   6.168   1.781 -0.4411 -0.2301 -0.5756
 1106TIP3    H124877   6.165   6.194   1.754 -0.4291  0.1279 -0.2735
 1106TIP3    H224878   6.250   6.168   1.877  0.0759  0.4474 -0.5538
 1107TIP3   OH224879   0.948   5.225   7.975 -0.1569 -0.5289  0.2524
 1107TIP3    H124880   0.951   5.287   8.048  1.8737 -2.6077  2.1085
 1107TIP3    H224881   0.956   5.280   7.897 -0.2634  1.6527  1.6829
 1108TIP3   OH224882   2.976   6.064   1.633 -0.2955 -0.0506 -0.9576
 1108TIP3    H124883   2.948   6.149   1.667 -0.9061 -0.3782 -0.6170
 1108TIP3    H224884   2.895   6.022   1.603  0.1447 -0.0457 -2.2124
 1109TIP3   OH224885   6.454   3.683   2.026 -0.3292 -0.2742 -0.1208
 1109TIP3    H124886   6.528   3.622   2.024  0.8391  1.1012 -1.8364
 1109TIP3    H224887   6.410   3.670   1.943  0.3956  1.6897 -0.8674
 1110TIP3   OH224888   5.596   3.685   7.454  0.8566 -0.3923  0.5058
 1110TIP3    H124889   5.645   3.750   7.403  2.6349 -0.5727  1.8966
 1110TIP3    H224890   5.518   3.732   7.483  1.8988  1.0379  1.1341
 1111TIP3   OH224891   5.591   0.757   8.978  0.3295 -0.0834 -0.0737
 1111TIP3    H124892   5.556   0.835   8.935 -1.1858 -0.6799  0.0143
 1111TIP3    H224893   5.636   0.709   8.908  0.7408  0.5688 -0.2607
 1112TIP3   OH224894   0.059   3.545   2.001 -0.2800 -0.3016  0.0696
 1112TIP3    H124895   0.122   3.488   2.045  1.5639 -0.3764 -2.4610
 1112TIP3    H224896   0.082   3.633   2.031  0.2833 -0.4336  0.0416
 1113TIP3   OH224897   4.525   0.585   1.947 -0.1458 -0.0444 -0.1601
 1113TIP3    H124898   4.435   0.606   1.972  0.7032  1.1451  2.1455
 1113TIP3    H224899   4.516   0.529   1.870 -2.8427  0.1313 -0.0531
 1114TIP3   OH224900   3.758   4.803   7.902 -0.1435  0.1040  0.9883
 1114TIP3    H124901   3.836   4.833   7.949  0.9110  1.5366 -1.4961
 1114TIP3    H224902   3.715   4.884   7.872 -1.6126 -0.7163  0.7778
 1115TIP3   OH224903   0.737   2.853   0.039  0.5120 -0.1773  0.0640
 1115TIP3    H124904   0.683   2.841   0.117  0.3558 -0.8489 -0.1423
 1115TIP3    H224905   0.765   2.945   0.043  0.2338 -0.1169  0.7315
 1116TIP3   OH224906   4.088   3.291   0.595 -0.1805  0.0113 -0.3309
 1116TIP3    H124907   4.061   3.378   0.566  0.0516  0.2602  0.1773
 1116TIP3    H224908   4.006   3.244   0.608 -0.4097  0.7518  1.1691
 1117TIP3   OH224909   4.990   0.309   1.802  0.0727 -0.1582  0.4174
 1117TIP3    H124910   5.043   0.377   1.759 -2.2515  1.6274  0.1810
 1117TIP3    H224911   4.988   0.335   1.894  0.2888 -0.6944  0.5767
 1118TIP3   OH224912   3.892   5.528   7.659  1.0822  0.3787 -0.2154
 1118TIP3    H124913   3.893   5.523   7.563  3.5636  1.2684 -0.3073
 1118TIP3    H224914   3.863   5.441   7.687 -2.2017  0.8223 -1.6832
 1119TIP3   OH224915   2.043   4.992   7.749 -0.0412 -0.4753  0.0124
 1119TIP3    H124916   2.069   4.998   7.841  3.2999  0.7021 -0.8657
 1119TIP3    H224917   2.028   4.899   7.734 -2.0868 -0.5447  2.0169
 1120TIP3   OH224918   1.435   0.991   8.265  0.3049  0.0614 -0.6050
 1120TIP3    H124919   1.484   0.937   8.327 -2.2851 -1.5283  0.2102
 1120TIP3    H224920   1.441   0.944   8.182 -0.6862 -0.7330 -0.2478
 1121TIP3   OH224921   0.740   0.162   9.173  0.0619  0.3792 -0.3488
 1121TIP3    H124922   0.690   0.153   9.091  0.0206  1.3921 -0.4469
 1121TIP3    H224923   0.750   0.256   9.184  2.6936  0.2189 -0.7858
 1122TIP3   OH224924   5.133   1.395   1.435 -0.2673  0.3225 -0.3691
 1122TIP3    H124925   5.122   1.404   1.340 -2.7752  0.3990 -0.1454
 1122TIP3    H224926   5.222   1.362   1.446 -0.3865 -1.0819 -2.8425
 1123TIP3   OH224927   3.487   3.336   8.498  0.4429  0.0979 -0.2205
 1123TIP3    H124928   3.535   3.258   8.471 -0.7104  0.0915 -2.4681
 1123TIP3    H224929   3.530   3.409   8.452  1.8255  0.9666  2.2328
 1124TIP3   OH224930   1.694   5.512   7.591  0.0649  0.2662  0.2366
 1124TIP3    H124931   1.675   5.473   7.506 -0.2611  0.8303  0.0460
 1124TIP3    H224932   1.726   5.600   7.571 -0.0987  0.4387  0.6985
 1125TIP3   OH224933   5.803   4.419   7.276 -0.0242  0.3828 -0.2055
 1125TIP3    H124934   5.750   4.349   7.239  0.7163 -0.1857 -0.2164
 1125TIP3    H224935   5.865   4.441   7.207 -1.1225  2.0324 -0.7235
 1126TIP3   OH224936   5.932   1.413   1.439  0.1879 -0.3103 -0.0238
 1126TIP3    H124937   5.888   1.368   1.368  0.9338 -0.2059 -0.5663
 1126TIP3    H224938   5.862   1.458   1.486 -0.1527  0.9842 -1.6687
 1127TIP3   OH224939   4.476   1.970   8.827  0.3743 -0.6346  0.3574
 1127TIP3    H124940   4.397   2.024   8.837  0.8878  0.0452  0.8516
 1127TIP3    H224941   4.471   1.907   8.899  0.3704 -0.4809  0.4922
 1128TIP3   OH224942   2.344   5.992   1.603 -0.4408 -0.0302 -0.1633
 1128TIP3    H124943   2.324   6.061   1.665  0.4495  1.6073 -1.6023
 1128TIP3    H224944   2.259   5.958   1.576 -0.9398  1.0844 -0.0453
 1129TIP3   OH224945   5.016   0.404   2.063  0.3326  0.4055  0.4878
 1129TIP3    H124946   4.939   0.422   2.117  1.3233  2.8540  1.2021
 1129TIP3    H224947   5.082   0.464   2.095  1.5601  0.6694 -2.2742
 1130TIP3   OH224948   3.323   3.248   2.237 -0.3619  0.1720  0.4167
 1130TIP3    H124949   3.375   3.324   2.211 -1.1305  0.2805 -0.8870
 1130TIP3    H224950   3.376   3.204   2.303 -0.3064  2.3264  1.8711
 1131TIP3   OH224951   5.559   4.664   8.334  0.0467 -0.5685 -0.0310
 1131TIP3    H124952   5.560   4.760   8.339 -0.8970 -0.4728 -1.1626
 1131TIP3    H224953   5.635   4.636   8.385 -0.0134  0.7552  0.8203
 1132TIP3   OH224954   3.138   2.751   8.106  0.4282  0.2169 -0.4470
 1132TIP3    H124955   3.131   2.844   8.085  0.9457  0.1078 -1.1192
 1132TIP3    H224956   3.058   2.732   8.155  0.0624  0.8938 -0.7676
 1133TIP3   OH224957   4.806   2.869   8.901 -0.1744 -0.3059 -0.6017
 1133TIP3    H124958   4.854   2.792   8.932 -2.3476 -2.8075 -2.9042
 1133TIP3    H224959   4.746   2.890   8.973  1.9637  0.8582  0.9868
 1134TIP3   OH224960   5.189   4.173   1.381  0.0410 -0.3534  0.5494
 1134TIP3    H124961   5.219   4.220   1.459 -0.4587 -1.5732  1.5130
 1134TIP3    H224962   5.141   4.239   1.331 -4.2467 -0.5362  3.8224
 1135TIP3   OH224963   2.180   3.376   0.748  0.0179 -0.4563  0.1179
 1135TIP3    H124964   2.121   3.439   0.706 -0.1517  0.5054  1.6956
 1135TIP3    H224965   2.135   3.292   0.741 -0.9159  0.0319  0.1333
 1136TIP3   OH224966   5.486   6.554   1.103 -0.1001  0.4383 -0.3002
 1136TIP3    H124967   5.416   6.592   1.156  2.1579  0.6693  2.7796
 1136TIP3    H224968   5.460   6.463   1.089 -2.3059  1.2186 -1.8137
 1137TIP3   OH224969   0.152   1.576   0.185 -0.1446  0.7078  0.0152
 1137TIP3    H124970   0.120   1.607   0.100 -2.5062 -0.9359  0.2161
 1137TIP3    H224971   0.148   1.481   0.179 -0.3405  0.5596  1.9672
 1138TIP3   OH224972   1.476   5.296   8.671  0.3466 -0.5437 -0.2866
 1138TIP3    H124973   1.469   5.262   8.760 -1.9059 -0.0627 -0.2012
 1138TIP3    H224974   1.496   5.389   8.683 -1.8878 -0.0197 -0.1254
 1139TIP3   OH224975   6.053   6.223   0.029  0.1741  0.1528 -0.4100
 1139TIP3    H124976   6.116   6.248  -0.038  0.5890 -0.6855 -0.3439
 1139TIP3    H224977   5.976   6.193  -0.019  0.9333 -1.6619 -0.5687
 1140TIP3   OH224978   4.220   5.524   8.098  0.1279  0.1485 -0.1017
 1140TIP3    H124979   4.225   5.585   8.172 -0.0452  1.0586 -0.8217
 1140TIP3    H224980   4.127   5.504   8.089  0.1219  0.2328 -0.2294
 1141TIP3   OH224981   2.432   2.822   9.276  0.2077 -0.1631 -0.3950
 1141TIP3    H124982   2.492   2.801   9.347  0.6382  1.0430 -0.3722
 1141TIP3    H224983   2.356   2.861   9.320 -0.6466 -1.7241 -0.4190
 1142TIP3   OH224984   3.583   5.588   7.737  0.7321 -0.4365  0.4027
 1142TIP3    H124985   3.538   5.503   7.740  0.1833 -0.1156  2.1015
 1142TIP3    H224986   3.675   5.566   7.727  0.3568 -1.1168 -2.7921
 1143TIP3   OH224987   5.238   0.045   1.727 -0.0512  0.0413  0.2049
 1143TIP3    H124988   5.238   0.129   1.774 -1.6252  0.1744  0.0089
 1143TIP3    H224989   5.229  -0.021   1.795  1.8843 -0.0434  0.4234
 1144TIP3   OH224990   4.171   4.065   2.229  0.4533 -0.8419 -0.1183
 1144TIP3    H124991   4.258   4.053   2.192 -0.2825 -1.0530 -1.8629
 1144TIP3    H224992   4.159   4.160   2.231  0.4969 -0.8266 -0.4575
 1145TIP3   OH224993   3.332   4.216   9.244 -1.0618  0.3098 -0.1875
 1145TIP3    H124994   3.298   4.284   9.186  1.2441  0.8101 -1.0674
 1145TIP3    H224995   3.425   4.210   9.221 -0.6036 -1.1671  1.8365
 1146TIP3   OH224996   3.821   3.633   0.962 -0.3080 -0.1847  0.4981
 1146TIP3    H124997   3.766   3.597   0.893 -0.0898  2.3056 -1.0594
 1146TIP3    H224998   3.760   3.658   1.031 -1.3068  2.6496 -1.2491
 1147TIP3   OH224999   5.097   4.085   1.083  0.1308 -0.2691  0.5205
 1147TIP3    H125000   5.174   4.033   1.060 -1.0300 -1.8449  0.0528
 1147TIP3    H225001   5.055   4.036   1.154 -0.4829  0.5395  0.7308
 1148TIP3   OH225002   5.295   3.809   1.460  0.2658  0.4143 -0.2951
 1148TIP3    H125003   5.352   3.822   1.535  1.5709  0.1192 -1.1929
 1148TIP3    H225004   5.351   3.826   1.384 -0.6513 -0.5525 -1.2320
 1149TIP3   OH225005   4.501   4.123   1.845  0.3929  0.4113  0.4168
 1149TIP3    H125006   4.593   4.117   1.819  0.6159  0.7404  1.1093
 1149TIP3    H225007   4.452   4.117   1.762  0.9358 -1.6089  0.2081
 1150TIP3   OH225008   5.796   2.743   1.055 -0.3444  0.1211  0.4724
 1150TIP3    H125009   5.803   2.678   1.126 -3.6423  0.4089  1.2446
 1150TIP3    H225010   5.884   2.749   1.019  0.2022 -4.7274  0.3732
 1151TIP3   OH225011   0.967   5.416   9.155  0.3762 -0.5992 -0.7207
 1151TIP3    H125012   0.992   5.486   9.094  1.5216  1.0052  1.4657
 1151TIP3    H225013   1.041   5.357   9.156  0.9147  0.0741  0.0598
 1152TIP3   OH225014   3.892   4.650   8.555 -0.2084 -0.2367  0.5492
 1152TIP3    H125015   3.922   4.616   8.639  2.0542  0.0191 -0.1018
 1152TIP3    H225016   3.888   4.573   8.498  0.5276 -0.0827  0.2822
 1153TIP3   OH225017   5.779   2.552   7.339 -0.1932  0.3084 -0.5056
 1153TIP3    H125018   5.684   2.557   7.330 -0.5568 -2.9527  0.2551
 1153TIP3    H225019   5.800   2.605   7.416 -1.4163  0.8224 -0.5165
 1154TIP3   OH225020   5.154   1.947   8.370  0.0192  0.0972  0.1877
 1154TIP3    H125021   5.059   1.958   8.365 -0.0494 -0.1972  0.7327
 1154TIP3    H225022   5.182   1.938   8.279 -0.2042  2.2719 -0.1478
 1155TIP3   OH225023   2.276   6.441   9.026 -0.3505  0.1842  0.5484
 1155TIP3    H125024   2.296   6.493   9.104 -1.2196  0.3815  0.6503
 1155TIP3    H225025   2.196   6.480   8.991  0.6104  0.7786 -1.0675
 1156TIP3   OH225026   6.368   3.319   2.246 -0.0240 -0.1080  0.4393
 1156TIP3    H125027   6.367   3.339   2.153  1.5073  0.4094  0.5007
 1156TIP3    H225028   6.295   3.259   2.259 -0.1106 -0.3733 -1.1344
 1157TIP3   OH225029   1.605   0.083   8.103  0.0377 -0.3615 -0.9102
 1157TIP3    H125030   1.538   0.070   8.036  0.2156 -1.0321 -0.9594
 1157TIP3    H225031   1.655   0.159   8.072  0.1010 -0.6519 -1.5271
 1158TIP3   OH225032   2.733   4.635   7.522  0.2402 -0.2929 -0.7279
 1158TIP3    H125033   2.768   4.594   7.601 -0.2717  2.1711  0.8645
 1158TIP3    H225034   2.638   4.622   7.528 -0.0583  2.0157  0.4211
 1159TIP3   OH225035   5.418   4.704   8.020 -0.2506 -0.6180 -0.3490
 1159TIP3    H125036   5.511   4.725   8.012 -0.2127 -0.4894  0.3004
 1159TIP3    H225037   5.374   4.762   7.958  0.0714 -0.4259 -0.3968
 1160TIP3   OH225038   1.351   3.112   0.611  0.4007 -0.0381  0.4038
 1160TIP3    H125039   1.265   3.127   0.651  0.4042 -0.8339  0.7330
 1160TIP3    H225040   1.336   3.121   0.517 -0.3979 -1.6663  0.3295
 1161TIP3   OH225041   3.757   2.952   0.820  0.6064 -0.0033 -0.5732
 1161TIP3    H125042   3.697   3.016   0.782 -0.9933 -1.5419 -0.7582
 1161TIP3    H225043   3.726   2.938   0.909  1.0773 -0.3716 -0.4598
 1162TIP3   OH225044   4.631   1.763   7.596 -0.5944  1.0530 -0.1717
 1162TIP3    H125045   4.587   1.815   7.663 -0.7607  1.3094 -0.4780
 1162TIP3    H225046   4.709   1.814   7.573  1.2292 -0.5181  2.1051
 1163TIP3   OH225047   1.850   5.662   1.923 -0.0758  0.5436  0.4791
 1163TIP3    H125048   1.940   5.669   1.892  0.1644  0.4506  1.1464
 1163TIP3    H225049   1.803   5.731   1.877  0.0613 -0.1877 -0.8146
 1164TIP3   OH225050   2.678   4.366   0.214  0.3555 -0.1739 -0.4356
 1164TIP3    H125051   2.621   4.293   0.189  0.2015 -0.3324  0.3330
 1164TIP3    H225052   2.629   4.445   0.191 -0.8539 -0.2799  1.5551
 1165TIP3   OH225053   5.879   0.362   9.160 -0.0363 -0.0759  0.2216
 1165TIP3    H125054   5.803   0.365   9.218 -0.3144  0.7999 -0.1655
 1165TIP3    H225055   5.842   0.360   9.072  0.3896 -0.9993  0.0545
 1166TIP3   OH225056   0.936   4.608   7.069 -0.1463  0.8667 -0.5727
 1166TIP3    H125057   1.024   4.631   7.098  0.3124  0.4747 -1.6246
 1166TIP3    H225058   0.892   4.692   7.057 -0.1206  1.0547  0.5188
 1167TIP3   OH225059   4.957   1.674   8.413 -0.5310 -0.0896  0.2507
 1167TIP3    H125060   5.023   1.737   8.443 -2.2343  1.1811  1.5081
 1167TIP3    H225061   4.874   1.710   8.443 -1.7017 -2.3318 -0.0846
 1168TIP3   OH225062   4.687   2.579   1.141 -0.6426 -0.7420 -0.0053
 1168TIP3    H125063   4.754   2.645   1.123 -0.2102 -1.2564 -0.3126
 1168TIP3    H225064   4.607   2.615   1.101 -0.0109 -1.2190 -1.7998
 1169TIP3   OH225065   3.053   5.943   0.249 -0.0140 -0.3954 -0.2362
 1169TIP3    H125066   3.047   6.005   0.321  0.4402 -0.2766 -0.3002
 1169TIP3    H225067   2.996   5.871   0.275 -1.4016  0.5044 -0.6261
 1170TIP3   OH225068   3.445   6.608   1.837  0.1918  0.4908 -0.1204
 1170TIP3    H125069   3.480   6.573   1.919 -3.4342 -1.6573  0.7410
 1170TIP3    H225070   3.509   6.582   1.771  1.2835 -1.3157  1.5217
 1171TIP3   OH225071   4.125   3.330   7.639  0.4514  0.2993  0.4299
 1171TIP3    H125072   4.046   3.279   7.622 -0.0865  1.1959  0.1492
 1171TIP3    H225073   4.098   3.392   7.708  1.5496 -0.8623  1.9596
 1172TIP3   OH225074   3.165   4.391   1.608  0.0935  0.0699 -0.0299
 1172TIP3    H125075   3.165   4.466   1.548  2.3024 -0.7049 -1.0900
 1172TIP3    H225076   3.129   4.319   1.556  1.4993 -0.4692 -0.3050
 1173TIP3   OH225077   1.175   3.125   2.557  0.3962  0.0774  0.2492
 1173TIP3    H125078   1.241   3.072   2.511  1.5209  1.2162  0.4747
 1173TIP3    H225079   1.225   3.168   2.627 -1.0400 -0.7265  1.8477
 1174TIP3   OH225080   5.460   5.210   1.725  0.8438 -0.2299 -0.5445
 1174TIP3    H125081   5.521   5.259   1.781 -0.1246  0.6122 -0.2076
 1174TIP3    H225082   5.374   5.245   1.747  0.1687 -1.8033 -0.6049
 1175TIP3   OH225083   0.610   3.900   8.364  0.4757 -0.0537 -0.1267
 1175TIP3    H125084   0.525   3.862   8.384  0.0613  0.8089 -0.1972
 1175TIP3    H225085   0.654   3.835   8.309 -0.4654 -0.1417 -0.7934
 1176TIP3   OH225086   6.090   6.629   2.239 -0.2833  0.0074  0.0733
 1176TIP3    H125087   6.006   6.607   2.280  0.1965 -1.4924  0.2773
 1176TIP3    H225088   6.078   6.607   2.146  0.5416 -2.2778  0.4539
 1177TIP3   OH225089   2.486   2.791   8.355  0.2269  0.2159  0.2258
 1177TIP3    H125090   2.574   2.807   8.321  0.1274  2.1166  0.7707
 1177TIP3    H225091   2.453   2.718   8.302  2.1771 -0.6540  0.1340
 1178TIP3   OH225092   1.652   5.586   9.298  0.5270 -0.0048  0.2820
 1178TIP3    H125093   1.592   5.654   9.268  0.5826  0.9189  2.1449
 1178TIP3    H225094   1.617   5.505   9.260 -2.0385  0.4654  1.4184
 1179TIP3   OH225095   4.398   0.987   7.269  0.4556 -0.2483  0.4637
 1179TIP3    H125096   4.457   1.016   7.200  0.4108  0.7114  0.8099
 1179TIP3    H225097   4.451   0.991   7.349 -0.0176  0.4634  0.7529
 1180TIP3   OH225098   3.281   2.497   0.845 -0.3402 -0.5507  0.0957
 1180TIP3    H125099   3.349   2.563   0.834  0.1164 -1.0581 -0.2352
 1180TIP3    H225100   3.329   2.419   0.875 -0.5648 -1.3293 -1.4911
 1181TIP3   OH225101   4.429   3.273   8.556  0.6042 -1.1079  0.0306
 1181TIP3    H125102   4.418   3.181   8.578 -1.3138 -0.8412  0.3237
 1181TIP3    H225103   4.374   3.287   8.479  1.5389 -0.3804 -0.5374
 1182TIP3   OH225104   4.188   5.833   2.277 -0.5192 -0.0001  0.5255
 1182TIP3    H125105   4.207   5.833   2.183 -0.1978 -0.3625  0.5860
 1182TIP3    H225106   4.274   5.840   2.319 -0.6438 -0.0639  0.7952
 1183TIP3   OH225107   0.523   0.166   1.928  0.5232 -0.0627  0.1817
 1183TIP3    H125108   0.453   0.101   1.923 -0.1814  0.7594 -4.0298
 1183TIP3    H225109   0.483   0.241   1.973 -0.2952 -0.6818  0.5098
 1184TIP3   OH225110   0.903   2.037   0.805  0.7767  0.0242  0.1814
 1184TIP3    H125111   0.953   2.118   0.801  0.6379  0.1528  0.8605
 1184TIP3    H225112   0.848   2.047   0.883  0.5708 -0.6138  0.1245
 1185TIP3   OH225113   5.246   5.162   9.089  0.2766  0.3945 -0.7296
 1185TIP3    H125114   5.224   5.199   9.003 -0.6547 -0.1480 -0.7387
 1185TIP3    H225115   5.215   5.072   9.085  0.1930  0.3736  0.1923
 1186TIP3   OH225116   3.442   2.119   0.738 -0.7669  0.5455  0.1641
 1186TIP3    H125117   3.392   2.144   0.661 -2.1397  2.5055  1.6091
 1186TIP3    H225118   3.406   2.034   0.763 -1.8408  0.9129 -0.0963
 1187TIP3   OH225119   1.739   3.402   9.194 -0.3093 -0.3352  0.7645
 1187TIP3    H125120   1.717   3.494   9.178 -0.2905 -0.3895  0.4204
 1187TIP3    H225121   1.680   3.353   9.137 -0.4428 -0.5472  1.0771
 1188TIP3   OH225122   5.101   0.781   0.495 -0.0282  0.4169  0.6729
 1188TIP3    H125123   5.074   0.714   0.559  1.7981 -0.5170  0.5303
 1188TIP3    H225124   5.173   0.827   0.538  1.0522 -0.0501 -0.5723
 1189TIP3   OH225125   2.743   3.009   0.087  0.5883 -0.0775 -0.2894
 1189TIP3    H125126   2.694   3.073   0.035 -1.6447 -0.5394  1.1128
 1189TIP3    H225127   2.728   2.926   0.043  1.0974 -0.0583 -0.5038
 1190TIP3   OH225128   0.153   4.624   7.581 -0.1729 -0.3988  0.3010
 1190TIP3    H125129   0.058   4.621   7.570 -0.1716 -0.7786  0.3702
 1190TIP3    H225130   0.171   4.709   7.621 -0.2909  0.5136 -1.5048
 1191TIP3   OH225131   0.604   2.912   1.730 -0.2491  0.4245 -0.4238
 1191TIP3    H125132   0.535   2.845   1.723  0.5594 -0.3084 -1.6613
 1191TIP3    H225133   0.678   2.876   1.682  0.9365  1.3206  0.6573
 1192TIP3   OH225134   4.997   6.147   1.113 -0.2517  0.4134 -0.4932
 1192TIP3    H125135   5.089   6.174   1.111 -0.3493  1.1831  1.8902
 1192TIP3    H225136   4.957   6.192   1.039  1.1487  0.6172 -1.1646
 1193TIP3   OH225137   4.989   3.983   1.322  0.0330 -0.3430 -0.3209
 1193TIP3    H125138   4.984   3.908   1.381  3.4671 -2.0188 -1.8936
 1193TIP3    H225139   5.037   4.049   1.371 -2.8162  0.9391  0.9882
 1194TIP3   OH225140   6.008   3.637   8.756  1.0425  0.2950 -0.3663
 1194TIP3    H125141   6.028   3.551   8.720 -2.5220 -0.8426 -0.0208
 1194TIP3    H225142   5.966   3.684   8.683 -0.1612  0.4122  0.3653
 1195TIP3   OH225143   2.582   0.708   7.466  0.4832  0.0593 -0.0254
 1195TIP3    H125144   2.589   0.625   7.419  1.0624  0.2790 -0.3343
 1195TIP3    H225145   2.567   0.683   7.557  1.0365 -0.3844 -0.0547
 1196TIP3   OH225146   4.699   3.082   8.099  0.3434  0.3985  0.3005
 1196TIP3    H125147   4.786   3.073   8.138  0.2795  1.4860  0.7351
 1196TIP3    H225148   4.641   3.102   8.173 -0.0866  0.7262 -0.1170
 1197TIP3   OH225149   4.458   4.797   8.566  0.1824  0.7182  0.1847
 1197TIP3    H125150   4.374   4.751   8.568 -0.0505  1.1353  0.1537
 1197TIP3    H225151   4.492   4.782   8.478 -1.1694  2.8339 -0.7810
 1198TIP3   OH225152   5.019   0.990   1.755 -0.4242 -0.1793  0.0982
 1198TIP3    H125153   5.072   1.040   1.817  0.7666 -0.8173 -0.3772
 1198TIP3    H225154   4.969   1.057   1.708  0.0856  0.4505  0.4372
 1199TIP3   OH225155   1.426   4.521   0.553  0.0030 -0.4982 -0.6715
 1199TIP3    H125156   1.387   4.570   0.625  1.5630 -0.2009  0.0166
 1199TIP3    H225157   1.520   4.541   0.558  0.5467 -2.6916 -1.0397
 1200TIP3   OH225158   3.238   4.610   0.139 -0.7387  0.7800  0.2895
 1200TIP3    H125159   3.328   4.585   0.118 -1.2456 -1.0262  0.0502
 1200TIP3    H225160   3.197   4.626   0.054 -0.6444  1.5968  0.3972
 1201TIP3   OH225161   0.874   3.941   9.233  0.2633 -0.3662 -0.1483
 1201TIP3    H125162   0.822   3.919   9.156  2.2123 -1.2689 -1.2797
 1201TIP3    H225163   0.872   3.862   9.286 -0.8124  0.1492  0.6253
 1202TIP3   OH225164   1.620   4.276   0.202 -0.1171 -0.7023  0.2541
 1202TIP3    H125165   1.622   4.353   0.260  1.8139  0.2643 -0.9677
 1202TIP3    H225166   1.712   4.263   0.178 -0.8308 -0.9468 -2.6994
 1203TIP3   OH225167   4.597   5.363   8.627  0.0722 -0.5845  0.0020
 1203TIP3    H125168   4.675   5.311   8.645 -0.9328 -1.8805  0.7916
 1203TIP3    H225169   4.596   5.431   8.695 -0.9305 -2.2741  1.7734
 1204TIP3   OH225170   6.414   1.815   0.545  0.2612  0.3376 -0.3272
 1204TIP3    H125171   6.372   1.742   0.590 -0.0649 -0.4987 -1.9274
 1204TIP3    H225172   6.460   1.775   0.471 -1.4214  1.8772 -2.3360
 1205TIP3   OH225173   3.925   1.931   2.254  0.2460  0.8154  0.4012
 1205TIP3    H125174   3.948   1.863   2.318 -1.7058  1.0731  1.4615
 1205TIP3    H225175   3.840   1.904   2.220  0.8469  1.1560 -1.4805
 1206TIP3   OH225176   6.327   3.563   6.398  0.1239 -0.6978 -0.1453
 1206TIP3    H125177   6.399   3.626   6.399  0.1895 -0.7795  0.3713
 1206TIP3    H225178   6.354   3.497   6.334  0.0026 -0.1473 -0.7743
 1207TIP3   OH225179   2.843   6.471   9.325  0.2840 -0.5798  0.1264
 1207TIP3    H125180   2.937   6.474   9.341  0.6271  0.3323 -1.7412
 1207TIP3    H225181   2.830   6.529   9.249 -1.6914 -1.1777 -0.0453
 1208TIP3   OH225182   6.063   0.190   0.233  0.1087 -0.7193  0.5815
 1208TIP3    H125183   6.084   0.108   0.187  1.9050 -0.1000  0.2157
 1208TIP3    H225184   6.071   0.169   0.326 -0.0058 -1.0857  0.5109
 1209TIP3   OH225185   4.750   5.884   8.895  0.1883  0.8551  0.4515
 1209TIP3    H125186   4.786   5.954   8.949  1.4261  0.6873 -0.1244
 1209TIP3    H225187   4.809   5.810   8.907 -0.4505  0.2768  0.1485
 1210TIP3   OH225188   5.988   2.112   1.706  0.2433 -0.1667  0.1327
 1210TIP3    H125189   6.066   2.136   1.655  0.5371  0.4448  0.8435
 1210TIP3    H225190   6.023   2.062   1.781  0.1599  1.5715  1.3887
 1211TIP3   OH225191   1.782   3.582   8.346 -0.1596  0.0260  0.8683
 1211TIP3    H125192   1.844   3.517   8.314  1.2626  1.4176  0.6551
 1211TIP3    H225193   1.796   3.658   8.290 -0.0541  1.3450  2.6072
 1212TIP3   OH225194   5.024   1.296   0.501 -0.0916 -0.0260 -0.3144
 1212TIP3    H125195   4.942   1.272   0.458 -0.7741  0.0378  0.8959
 1212TIP3    H225196   5.078   1.217   0.495 -0.3840 -0.1955 -0.7851
 1213TIP3   OH225197   4.333   0.961   8.957  0.1298 -0.1453  0.3893
 1213TIP3    H125198   4.321   0.867   8.967 -0.7532  0.1984  3.6073
 1213TIP3    H225199   4.421   0.978   8.990  0.4445  0.1372 -0.5596
 1214TIP3   OH225200   2.530   1.512   0.740  0.0972 -0.1071  0.3922
 1214TIP3    H125201   2.534   1.606   0.754  0.6772 -0.1890  0.8133
 1214TIP3    H225202   2.619   1.481   0.760  0.2452 -0.5857 -0.8907
 1215TIP3   OH225203   1.885   3.412   7.583  0.0013  0.7632 -0.7287
 1215TIP3    H125204   1.843   3.438   7.500 -0.3145  0.9825 -0.5037
 1215TIP3    H225205   1.962   3.469   7.589  0.5726  0.0874 -1.3387
 1216TIP3   OH225206   2.066   4.758   7.987  0.5259  0.2902  0.6194
 1216TIP3    H125207   2.069   4.742   7.893  2.0602  1.0575  0.5166
 1216TIP3    H225208   2.091   4.849   7.997 -0.7896  0.5635  1.7157
 1217TIP3   OH225209   1.183   1.827   0.629 -0.3846  0.1035 -0.2276
 1217TIP3    H125210   1.166   1.817   0.723 -0.2626 -0.0507 -0.2197
 1217TIP3    H225211   1.224   1.913   0.621  0.6068 -0.3269  0.0084
 1218TIP3   OH225212   1.915   1.023   0.972 -0.0536  0.0060 -0.3237
 1218TIP3    H125213   1.828   0.987   0.991  0.0713 -1.1490 -1.7548
 1218TIP3    H225214   1.907   1.116   0.993 -1.6346 -0.0753 -0.4074
 1219TIP3   OH225215   4.687   6.513   8.254  0.1462  0.0811 -0.3192
 1219TIP3    H125216   4.759   6.460   8.221  1.0099  1.4803 -0.7610
 1219TIP3    H225217   4.726   6.598   8.272 -1.5007  1.0411 -1.0769
 1220TIP3   OH225218   0.450   4.458   0.534  0.5354 -0.7261  0.1144
 1220TIP3    H125219   0.440   4.494   0.446 -1.9188 -1.0092  0.2128
 1220TIP3    H225220   0.388   4.507   0.588 -0.3269 -2.6725  0.9999
 1221TIP3   OH225221   1.985   3.831   0.391 -0.3768  0.1122 -0.2283
 1221TIP3    H125222   2.000   3.926   0.385  0.2873  0.0965  0.8735
 1221TIP3    H225223   1.934   3.810   0.313  1.5316  0.9558 -1.7764
 1222TIP3   OH225224   6.450   3.131   7.377 -0.1319 -0.1164 -0.0636
 1222TIP3    H125225   6.473   3.089   7.295  1.5305  1.2747 -0.3663
 1222TIP3    H225226   6.460   3.225   7.360 -3.0328  0.4335  0.7729
 1223TIP3   OH225227   2.845   1.462   1.508 -0.6928 -0.6038  0.0848
 1223TIP3    H125228   2.900   1.390   1.539 -0.0154 -0.7509 -1.3535
 1223TIP3    H225229   2.776   1.471   1.573 -0.0571 -1.7180  0.9261
 1224TIP3   OH225230   3.571   0.094   9.062  0.0846  0.4622  0.2489
 1224TIP3    H125231   3.517   0.166   9.030  0.6858  0.2422 -1.3132
 1224TIP3    H225232   3.656   0.134   9.081  0.1826  0.3064  0.1394
 1225TIP3   OH225233   0.283   3.503   6.868 -0.0212  0.0114  0.2166
 1225TIP3    H125234   0.225   3.427   6.877  0.4773 -0.3630  0.2909
 1225TIP3    H225235   0.228   3.571   6.829 -0.2464 -0.6531 -0.6378
 1226TIP3   OH225236   5.378   1.243   7.460  0.1444  0.1370 -0.0020
 1226TIP3    H125237   5.466   1.239   7.497  0.4225 -0.1254 -0.6844
 1226TIP3    H225238   5.392   1.248   7.365 -0.5497  1.0336 -0.0721
 1227TIP3   OH225239   3.409   2.273   0.974 -0.0383 -0.3999 -0.0212
 1227TIP3    H125240   3.497   2.256   1.007 -0.0300  0.1824  0.2708
 1227TIP3    H225241   3.399   2.214   0.899  0.7183 -0.2474 -0.2454
 1228TIP3   OH225242   5.806   3.460   0.090 -0.6331  0.4103 -0.1742
 1228TIP3    H125243   5.791   3.365   0.091 -0.9004  0.4580  1.2486
 1228TIP3    H225244   5.860   3.477   0.167  0.7981  1.2245 -1.2829
 1229TIP3   OH225245   0.015   4.496   8.185 -0.5592  0.3162  0.3507
 1229TIP3    H125246  -0.057   4.488   8.122  0.9607 -1.8818 -1.2625
 1229TIP3    H225247   0.056   4.580   8.163 -0.2072 -0.2923 -1.5120
 1230TIP3   OH225248   1.981   1.993   2.261 -0.3802  0.2222 -0.3506
 1230TIP3    H125249   1.913   1.940   2.302 -0.3279  0.0002 -0.5437
 1230TIP3    H225250   2.035   2.024   2.333 -1.2409  1.1959 -0.1090
 1231TIP3   OH225251   6.298   1.304   1.833  0.0777  0.8975  0.2629
 1231TIP3    H125252   6.278   1.266   1.919  0.1739 -2.0545 -0.8983
 1231TIP3    H225253   6.216   1.300   1.785  0.2528  1.6173 -0.1138
 1232TIP3   OH225254   4.930   1.345   2.520 -0.3839 -0.5787  0.2494
 1232TIP3    H125255   5.008   1.290   2.524 -0.6213 -1.4409 -3.4144
 1232TIP3    H225256   4.860   1.285   2.496 -0.8643  1.0013 -2.7432
 1233TIP3   OH225257   5.975   3.261   8.506  0.2349  0.4988 -0.0634
 1233TIP3    H125258   5.996   3.211   8.427  1.3240  3.3543 -1.7636
 1233TIP3    H225259   5.885   3.292   8.491  0.0885  0.2513  0.2905
 1234TIP3   OH225260   2.842   2.686   8.523  0.2135  0.2776 -0.3724
 1234TIP3    H125261   2.892   2.629   8.582 -0.3025 -0.5254 -0.6839
 1234TIP3    H225262   2.751   2.662   8.539 -0.2398  2.7435  1.2435
 1235TIP3   OH225263   5.724   1.105   1.995  0.7032 -0.3701 -0.1895
 1235TIP3    H125264   5.703   1.163   1.922  0.0048  1.0366  1.0533
 1235TIP3    H225265   5.644   1.102   2.047  1.1813 -1.3207  0.5300
 1236TIP3   OH225266   2.264   6.110   8.163 -0.2757  0.3757 -0.1007
 1236TIP3    H125267   2.305   6.108   8.076 -1.4834  0.4922 -0.6949
 1236TIP3    H225268   2.295   6.031   8.207 -0.3453 -0.1402 -0.9680
 1237TIP3   OH225269   4.733   1.020   1.881  0.1158  0.0837  0.0120
 1237TIP3    H125270   4.761   0.997   1.969 -0.2534 -0.0778  0.0887
 1237TIP3    H225271   4.724   0.937   1.835 -0.3181  0.1222  0.0165
 1238TIP3   OH225272   3.435   3.259   7.745  0.7330 -0.2323  0.1713
 1238TIP3    H125273   3.341   3.247   7.729  1.0724  0.5089 -3.1351
 1238TIP3    H225274   3.454   3.200   7.818 -2.5507  0.8141  2.1130
 1239TIP3   OH225275   1.614   3.769   8.694 -0.1314  0.1933 -0.4317
 1239TIP3    H125276   1.546   3.702   8.695 -0.4590  0.4703 -1.6515
 1239TIP3    H225277   1.578   3.839   8.639 -0.3714  2.0130  1.8533
 1240TIP3   OH225278   0.411   4.815   1.675 -0.5123 -0.1962  0.7928
 1240TIP3    H125279   0.332   4.869   1.670  1.5001  2.8918 -1.1919
 1240TIP3    H225280   0.418   4.775   1.589  1.3726  1.6808  0.0208
 1241TIP3   OH225281   4.617   3.561   6.352  0.0594  0.1359 -0.5392
 1241TIP3    H125282   4.681   3.544   6.420 -0.7651 -1.7746 -0.1526
 1241TIP3    H225283   4.597   3.474   6.316 -1.1234  0.8536 -1.7169
 1242TIP3   OH225284   4.659   4.439   7.856  0.1610 -0.0711  0.0551
 1242TIP3    H125285   4.670   4.514   7.915  1.8885 -0.6723  0.5307
 1242TIP3    H225286   4.747   4.404   7.844 -0.4032 -1.0676 -1.4532
 1243TIP3   OH225287   6.300   0.451   0.708  0.2473 -0.4474 -0.4252
 1243TIP3    H125288   6.267   0.537   0.733  0.4000 -0.2001 -1.0696
 1243TIP3    H225289   6.249   0.427   0.631  0.4161 -0.8033 -0.4291
 1244TIP3   OH225290   3.298   4.699   7.544 -0.3487 -0.0437  0.4102
 1244TIP3    H125291   3.339   4.773   7.500  0.5793 -0.2847  0.8368
 1244TIP3    H225292   3.221   4.736   7.587  0.6112  0.9028  1.4036
 1245TIP3   OH225293   0.141   3.202   8.516 -0.0034 -0.8385  0.5781
 1245TIP3    H125294   0.157   3.193   8.422  0.2926  2.1000  0.2553
 1245TIP3    H225295   0.047   3.186   8.526  0.2215 -2.7389  0.0911
 1246TIP3   OH225296   0.455   0.310   7.988 -0.3302  0.2950 -0.2315
 1246TIP3    H125297   0.456   0.244   8.057  0.7839 -0.2716 -0.7687
 1246TIP3    H225298   0.379   0.288   7.934 -0.4578 -0.0239  0.0777
 1247TIP3   OH225299   5.705   2.125   7.921 -0.2783  0.1999  0.5943
 1247TIP3    H125300   5.773   2.192   7.908  1.9124 -1.5321  2.2559
 1247TIP3    H225301   5.713   2.068   7.844  0.0161  0.1378  0.6677
 1248TIP3   OH225302   2.608   3.458   7.215  0.8005  0.2722  0.0010
 1248TIP3    H125303   2.629   3.415   7.298  3.8735 -1.5954 -1.5476
 1248TIP3    H225304   2.634   3.549   7.227  0.7491  0.1343  1.2140
 1249TIP3   OH225305   6.397   5.807   0.354  0.0066 -0.1075 -0.2560
 1249TIP3    H125306   6.413   5.886   0.303  0.3656  0.6386  0.9519
 1249TIP3    H225307   6.479   5.791   0.400  0.4381 -2.0754 -1.5956
 1250TIP3   OH225308   2.667   1.968   1.192  0.5421  0.3253  0.1681
 1250TIP3    H125309   2.701   1.883   1.221  0.5578  0.3471  0.2135
 1250TIP3    H225310   2.723   2.032   1.236  0.0905  0.3732  0.6826
 1251TIP3   OH225311   4.140   0.721   0.918  0.3219 -0.2966 -0.0102
 1251TIP3    H125312   4.137   0.766   0.834  1.0361 -0.8556 -0.3531
 1251TIP3    H225313   4.195   0.645   0.902 -0.5411 -1.0895  0.6488
 1252TIP3   OH225314   4.949   3.875   0.927  0.4239 -0.7411 -0.3675
 1252TIP3    H125315   4.928   3.882   1.020  0.9994  1.6310 -0.3412
 1252TIP3    H225316   4.923   3.786   0.903 -0.7099 -1.0728  1.8043
 1253TIP3   OH225317   3.738   4.608   8.260  0.3597  0.1801 -0.4974
 1253TIP3    H125318   3.680   4.630   8.187 -1.6930 -0.0587  0.9641
 1253TIP3    H225319   3.782   4.690   8.281 -0.4270  0.7059 -0.8377
 1254TIP3   OH225320   5.151   5.067   1.453  0.0397  0.4548  0.2117
 1254TIP3    H125321   5.071   5.092   1.408 -0.4429 -0.9400  0.2618
 1254TIP3    H225322   5.125   5.056   1.545  0.2336 -0.2315  0.1882
 1255TIP3   OH225323   5.548   0.534   0.499  0.0413  0.1256 -0.3189
 1255TIP3    H125324   5.601   0.476   0.554  3.1127  1.0873 -2.0614
 1255TIP3    H225325   5.534   0.484   0.419  0.8686  0.9528 -0.9969
 1256TIP3   OH225326   6.582   2.820   0.481 -0.0233  0.2868  0.5265
 1256TIP3    H125327   6.537   2.735   0.480  0.0478  0.2008  2.2465
 1256TIP3    H225328   6.576   2.849   0.571  0.8833  1.6338  0.1783
 1257TIP3   OH225329   4.231   4.589   8.099  0.0202  0.2879  0.4192
 1257TIP3    H125330   4.187   4.531   8.162 -0.1582  1.8712  1.8343
 1257TIP3    H225331   4.198   4.560   8.014 -1.6564 -0.3647  1.2304
 1258TIP3   OH225332   3.744   1.824   0.151 -0.5724  0.2785 -0.4436
 1258TIP3    H125333   3.758   1.836   0.244 -2.3310 -0.4356 -0.0366
 1258TIP3    H225334   3.831   1.810   0.115  0.0108 -1.1649  1.3766
 1259TIP3   OH225335   4.129   1.523   1.225 -0.1538 -0.0156 -0.4545
 1259TIP3    H125336   4.069   1.466   1.176 -1.1262 -0.7944  1.5501
 1259TIP3    H225337   4.119   1.609   1.183 -2.8456 -0.0695 -0.1061
 1260TIP3   OH225338   3.664   3.409   6.435  0.1219  0.0874 -0.8306
 1260TIP3    H125339   3.706   3.396   6.520 -0.3343  2.0368 -0.2442
 1260TIP3    H225340   3.573   3.381   6.449 -0.2597  1.4940 -0.2740
 1261TIP3   OH225341   5.396   4.328   7.547 -0.2289  0.1121 -0.3791
 1261TIP3    H125342   5.314   4.330   7.497 -1.1528 -1.4742  0.9436
 1261TIP3    H225343   5.368   4.315   7.638  1.4872 -0.0791  0.1581
 1262TIP3   OH225344   2.840   6.604   7.842  0.3526 -0.3069 -0.1522
 1262TIP3    H125345   2.913   6.626   7.785 -0.3435 -0.9564 -1.3493
 1262TIP3    H225346   2.821   6.512   7.823 -0.3305 -0.3524  0.6451
 1263TIP3   OH225347   0.251   2.966   1.248  0.2890 -0.1241  0.5421
 1263TIP3    H125348   0.328   2.985   1.301  0.2075  1.6166  0.1043
 1263TIP3    H225349   0.189   2.925   1.309  0.3028  1.5689  1.7439
 1264TIP3   OH225350   2.156   5.881   0.530  0.0557  0.4425  0.3804
 1264TIP3    H125351   2.129   5.909   0.617  0.5134 -0.2583  0.7566
 1264TIP3    H225352   2.217   5.809   0.546 -0.1106  0.0921 -0.5319
 1265TIP3   OH225353   4.136   3.678   0.266 -0.3662 -0.2800 -0.0586
 1265TIP3    H125354   4.075   3.743   0.232  0.8980  0.3534 -1.1912
 1265TIP3    H225355   4.189   3.651   0.191  0.4676 -1.1367  0.7895
 1266TIP3   OH225356   4.083   2.912   7.924 -0.1562  0.1611 -0.2079
 1266TIP3    H125357   3.996   2.878   7.946 -0.8128  1.5323 -0.5592
 1266TIP3    H225358   4.081   3.003   7.953  0.8821  0.4335 -0.9386
 1267TIP3   OH225359   3.381   0.906   1.590  0.1710  0.1911 -0.1485
 1267TIP3    H125360   3.426   0.892   1.673  0.2889 -1.1255 -0.4008
 1267TIP3    H225361   3.294   0.868   1.603  0.0643  0.3036 -0.5040
 1268TIP3   OH225362   1.220   5.980   8.565 -0.2779  0.4928 -0.2696
 1268TIP3    H125363   1.251   5.933   8.643 -0.0246 -0.0550 -0.6917
 1268TIP3    H225364   1.127   5.959   8.560 -0.4439  1.0589  0.2472
 1269TIP3   OH225365   1.011   3.396   7.565  0.3417  0.2791  0.0216
 1269TIP3    H125366   1.016   3.396   7.470 -0.8472  1.0410 -0.0719
 1269TIP3    H225367   0.917   3.401   7.584  0.5997  1.1813  1.2143
 1270TIP3   OH225368   1.275   2.004   2.173  0.0713  0.7369  0.3991
 1270TIP3    H125369   1.195   1.952   2.181  0.1956  0.1394 -1.6261
 1270TIP3    H225370   1.345   1.940   2.159  0.4570  1.3615 -0.6719
 1271TIP3   OH225371   0.504   6.617   0.448  0.2199 -0.0213  0.2562
 1271TIP3    H125372   0.438   6.583   0.509 -0.5324  1.6093  0.4023
 1271TIP3    H225373   0.548   6.687   0.497 -0.3716  1.2958 -1.0145
 1272TIP3   OH225374   6.586   5.343   0.821  0.0036  0.2189  0.2704
 1272TIP3    H125375   6.552   5.376   0.738  1.8379  0.5642 -0.3958
 1272TIP3    H225376   6.614   5.422   0.868  0.5053 -0.0851  0.4896
 1273TIP3   OH225377   5.825   3.152   1.715 -0.3907  0.4985  0.1553
 1273TIP3    H125378   5.820   3.220   1.783 -1.7338  1.1865 -0.5766
 1273TIP3    H225379   5.805   3.198   1.633 -1.4666 -0.7752 -0.3518
 1274TIP3   OH225380   6.181   0.931   0.875 -0.0730  0.5560 -0.3133
 1274TIP3    H125381   6.176   1.024   0.850 -2.4010 -0.0201 -2.4594
 1274TIP3    H225382   6.153   0.884   0.797 -0.7704 -1.8889  1.2941
 1275TIP3   OH225383   5.153   2.480   0.365 -0.1141 -0.5376 -0.0679
 1275TIP3    H125384   5.237   2.509   0.401  0.4983 -2.6773  0.3754
 1275TIP3    H225385   5.138   2.539   0.290  1.4392  0.3125  0.2258
 1276TIP3   OH225386   1.171   1.740   9.148  0.0025  0.5013 -0.0083
 1276TIP3    H125387   1.257   1.704   9.127  0.3637  0.8619  0.8035
 1276TIP3    H225388   1.189   1.812   9.210 -0.8982  0.3527  0.4519
 1277TIP3   OH225389   4.382   0.408   7.373 -0.5059 -0.0707  0.5206
 1277TIP3    H125390   4.405   0.318   7.350 -1.6066 -0.4388  0.8045
 1277TIP3    H225391   4.466   0.451   7.387  0.1715 -0.3372 -2.1933
 1278TIP3   OH225392   2.382   1.382   1.644  0.3978  0.2357  0.2221
 1278TIP3    H125393   2.369   1.333   1.725  2.8108  1.7976  1.6748
 1278TIP3    H225394   2.300   1.430   1.632  0.9293  2.3238  3.5440
 1279TIP3   OH225395   5.034   1.842   0.045 -0.1977  0.0217 -0.0563
 1279TIP3    H125396   5.005   1.865  -0.043 -0.5989  0.0482  0.0827
 1279TIP3    H225397   5.118   1.887   0.055  0.3782 -0.8276 -0.8172
 1280TIP3   OH225398   2.432   3.004   7.007 -0.4550 -0.0998  0.4766
 1280TIP3    H125399   2.520   3.038   7.021  0.2042 -1.8567  0.8387
 1280TIP3    H225400   2.423   3.002   6.911 -0.2275  0.3766  0.4410
 1281TIP3   OH225401   0.825   1.301   7.527 -0.2827  0.0995 -0.3201
 1281TIP3    H125402   0.900   1.245   7.548  0.4390  1.7329  1.9309
 1281TIP3    H225403   0.860   1.363   7.463  1.0392  2.0615  2.1006
 1282TIP3   OH225404   1.568   1.663   8.711  0.4464 -0.0059 -0.4578
 1282TIP3    H125405   1.537   1.590   8.658  0.9188  0.5408 -1.5257
 1282TIP3    H225406   1.642   1.698   8.661  0.2017  1.2185  0.0133
 1283TIP3   OH225407   0.300   1.767   7.779  0.0182  0.1683  0.3273
 1283TIP3    H125408   0.277   1.860   7.780 -1.0065 -0.0543 -0.0775
 1283TIP3    H225409   0.265   1.736   7.695  0.8287 -0.4716  0.2168
 1284TIP3   OH225410   2.344   4.934   8.277 -0.1052  0.1339 -0.3648
 1284TIP3    H125411   2.359   4.906   8.186  2.3061  0.9067 -0.2689
 1284TIP3    H225412   2.250   4.921   8.290 -0.6778  0.6958 -3.1975
 1285TIP3   OH225413   3.838   2.915   8.608 -0.1420 -0.0866  0.2655
 1285TIP3    H125414   3.803   2.980   8.547  0.5803 -1.7931 -2.0983
 1285TIP3    H225415   3.930   2.939   8.619 -0.6907  1.3692  2.3822
 1286TIP3   OH225416   2.414   5.655   1.541  0.3585 -0.3993  0.2170
 1286TIP3    H125417   2.409   5.640   1.447  0.5993  0.3121  0.0827
 1286TIP3    H225418   2.412   5.750   1.550  0.5013 -0.4550  0.9225
 1287TIP3   OH225419   1.603   2.136   1.603 -0.7230 -0.2549  0.0381
 1287TIP3    H125420   1.623   2.098   1.689 -0.3905  0.9431  0.5241
 1287TIP3    H225421   1.661   2.212   1.598  1.0730 -1.6525 -2.3101
 1288TIP3   OH225422   4.511   2.691   8.591  0.6600  0.3026  0.1797
 1288TIP3    H125423   4.484   2.612   8.544  2.1843  0.4090 -0.9808
 1288TIP3    H225424   4.607   2.691   8.584  0.7211  2.0603  0.4553
 1289TIP3   OH225425   3.386   1.064   8.961 -0.5391  0.6198  0.3526
 1289TIP3    H125426   3.420   1.114   9.036 -0.7673  0.3392  0.6491
 1289TIP3    H225427   3.377   1.129   8.891  3.1646  0.2666 -0.6638
 1290TIP3   OH225428   2.476   2.966   9.052  0.0078  0.0155 -0.0967
 1290TIP3    H125429   2.459   2.907   8.978 -0.0867 -1.1891  0.8439
 1290TIP3    H225430   2.477   2.908   9.129  1.8098  0.9722  0.6652
 1291TIP3   OH225431   0.260   2.440   0.405 -0.2074 -0.9437  0.2875
 1291TIP3    H125432   0.288   2.353   0.431 -0.5603 -1.3393 -0.6265
 1291TIP3    H225433   0.339   2.494   0.414  0.3959 -1.6612 -0.5298
 1292TIP3   OH225434   4.079   6.458   0.656  0.4817 -0.0210 -0.4113
 1292TIP3    H125435   4.102   6.367   0.637 -0.9428 -0.2499 -1.1171
 1292TIP3    H225436   4.075   6.500   0.570 -1.8604 -0.0521 -0.3814
 1293TIP3   OH225437   4.006   5.049   0.420 -0.5210 -0.0037  0.2584
 1293TIP3    H125438   4.048   4.980   0.367 -1.3590 -2.1517  2.2236
 1293TIP3    H225439   4.067   5.066   0.491 -0.2591  1.4493 -0.2856
 1294TIP3   OH225440   3.632   1.782   1.020 -0.1796 -0.2597 -0.3486
 1294TIP3    H125441   3.692   1.730   1.073  1.1220 -0.0846 -1.5891
 1294TIP3    H225442   3.569   1.719   0.986  0.2231 -0.7019 -0.2747
 1295TIP3   OH225443   5.339   2.296   0.635 -0.0045  0.2963 -0.1873
 1295TIP3    H125444   5.258   2.245   0.627  0.4754 -0.8324  1.5035
 1295TIP3    H225445   5.381   2.288   0.549 -0.8378 -0.6213 -0.5239
 1296TIP3   OH225446   0.718   1.124   6.753 -0.1839  0.3237 -0.0062
 1296TIP3    H125447   0.736   1.195   6.815  1.1466  0.2411 -0.2699
 1296TIP3    H225448   0.794   1.066   6.761 -0.6009 -0.3402 -0.8072
 1297TIP3   OH225449   3.647   0.108   1.350  0.2478 -0.1276 -0.2283
 1297TIP3    H125450   3.553   0.122   1.351  0.1185 -0.7355 -1.6463
 1297TIP3    H225451   3.663   0.038   1.413 -0.4167 -0.9049 -0.9059
 1298TIP3   OH225452   5.283   2.216   7.804  0.1421 -1.0694  0.2174
 1298TIP3    H125453   5.230   2.291   7.776  1.6420  0.6776  1.7268
 1298TIP3    H225454   5.227   2.140   7.791 -2.5712  0.5966  1.3164
 1299TIP3   OH225455   0.243   4.261   8.404 -0.1272 -0.4585  0.1872
 1299TIP3    H125456   0.285   4.346   8.394 -0.0580 -0.4503  0.5323
 1299TIP3    H225457   0.165   4.265   8.347  0.0697 -0.2977 -0.0720
 1300TIP3   OH225458   2.347   3.338   1.278  0.0573 -0.6392  0.0774
 1300TIP3    H125459   2.415   3.389   1.323 -0.2661 -0.5506  0.4705
 1300TIP3    H225460   2.390   3.256   1.255 -0.1695 -1.3453  1.9416
 1301TIP3   OH225461   1.119   2.597   7.700  0.4135  0.6957 -0.1465
 1301TIP3    H125462   1.093   2.558   7.616  0.1707 -2.5237  1.2698
 1301TIP3    H225463   1.043   2.586   7.756  1.2393  0.9976  1.0627
 1302TIP3   OH225464   6.274   3.089   8.748 -0.5082  0.5296  0.6549
 1302TIP3    H125465   6.364   3.102   8.715 -0.9586  0.1673 -0.7983
 1302TIP3    H225466   6.244   3.178   8.767 -0.5563  0.8863 -0.9104
 1303TIP3   OH225467   3.089   1.672   0.580 -0.5069  0.3555 -0.1799
 1303TIP3    H125468   3.166   1.628   0.545  0.9914  3.4292 -1.1166
 1303TIP3    H225469   3.107   1.682   0.674  0.2052  0.9185 -0.3669
 1304TIP3   OH225470   6.273   4.752   9.121 -0.3039 -0.4837 -0.0773
 1304TIP3    H125471   6.324   4.671   9.130 -1.8958 -1.4853  0.2303
 1304TIP3    H225472   6.224   4.759   9.203 -0.9147  0.2897 -0.4959
 1305TIP3   OH225473   2.229   0.454   2.144  0.0235 -0.5318 -0.0547
 1305TIP3    H125474   2.226   0.364   2.111  0.1454 -0.1621 -1.1256
 1305TIP3    H225475   2.207   0.446   2.237 -2.2098 -1.4262 -0.5852
 1306TIP3   OH225476   5.928   6.578   2.004  0.0435 -0.6151  0.6332
 1306TIP3    H125477   5.958   6.627   1.928 -1.5580 -1.0267 -0.2967
 1306TIP3    H225478   5.832   6.585   2.001 -0.0840 -1.3855  2.1063
 1307TIP3   OH225479   3.069   3.456   1.093  0.4256 -0.6229 -0.6041
 1307TIP3    H125480   3.001   3.512   1.132 -2.3091 -1.9360 -3.0946
 1307TIP3    H225481   3.082   3.386   1.157 -0.2402 -0.0970  0.1325
 1308TIP3   OH225482   1.629   4.014   0.899 -0.1684 -0.2685 -0.2157
 1308TIP3    H125483   1.686   4.065   0.957 -1.0553  0.7871 -0.2364
 1308TIP3    H225484   1.563   3.976   0.957  0.0213 -0.7549 -0.3101
 1309TIP3   OH225485   0.702   3.965   7.808  0.3973  0.0853 -0.6071
 1309TIP3    H125486   0.785   3.973   7.856  0.6763 -0.1743 -1.0403
 1309TIP3    H225487   0.672   4.055   7.795  2.3452  0.4544 -3.4384
 1310TIP3   OH225488   4.567   1.866   0.986  0.1326  0.1942  0.0917
 1310TIP3    H125489   4.557   1.872   0.891 -3.3713  0.7669  0.3765
 1310TIP3    H225490   4.532   1.949   1.018  3.4482  1.0684  1.8960
 1311TIP3   OH225491   3.045   2.478   8.529  0.6076  0.3756  0.3247
 1311TIP3    H125492   3.105   2.403   8.531 -0.3942 -0.4270  0.7715
 1311TIP3    H225493   2.983   2.461   8.599  0.6604  1.8931  0.7720
 1312TIP3   OH225494   3.686   4.797   0.146  0.3537  0.6040  0.0120
 1312TIP3    H125495   3.718   4.885   0.125 -0.4859  1.1462  0.9449
 1312TIP3    H225496   3.606   4.811   0.195  0.1940 -0.6952  0.1631
 1313TIP3   OH225497   4.398   2.389   7.835  0.3335  0.5235 -0.1375
 1313TIP3    H125498   4.451   2.446   7.780  1.6676  0.1799  0.7498
 1313TIP3    H225499   4.323   2.366   7.780 -0.2758  3.1109 -0.5159
 1314TIP3   OH225500   4.407   3.287   7.648 -0.1840 -0.0903 -0.4245
 1314TIP3    H125501   4.316   3.268   7.627 -0.2375 -0.6463  0.2743
 1314TIP3    H225502   4.415   3.265   7.741  0.6670 -0.0687 -0.4875
 1315TIP3   OH225503   0.578   0.353   7.548 -0.5308 -0.3689 -0.1247
 1315TIP3    H125504   0.596   0.259   7.546 -0.1773 -0.2983 -2.2130
 1315TIP3    H225505   0.626   0.385   7.625  0.9928 -1.6008 -0.5185
 1316TIP3   OH225506   1.035   0.010   1.083 -0.5583 -0.0455 -0.5683
 1316TIP3    H125507   1.064   0.066   1.154  0.3095 -0.2439 -0.7568
 1316TIP3    H225508   0.967  -0.046   1.122 -1.2021  0.9055 -0.3049
 1317TIP3   OH225509   6.466   2.621   8.093  0.5403  0.2247 -0.1881
 1317TIP3    H125510   6.553   2.602   8.129  0.4693  1.6419  0.8113
 1317TIP3    H225511   6.407   2.617   8.169  0.2683  2.5052 -0.2093
 1318TIP3   OH225512   2.643   1.139   2.071  0.1823 -0.2823 -0.2890
 1318TIP3    H125513   2.628   1.091   1.990  0.4879  0.0006 -0.5136
 1318TIP3    H225514   2.562   1.188   2.086 -0.3832 -1.3335  0.2744
 1319TIP3   OH225515   2.731   0.344   0.262 -0.8486  0.6526  0.4715
 1319TIP3    H125516   2.816   0.336   0.304 -0.8484  0.2764  0.3942
 1319TIP3    H225517   2.748   0.394   0.183 -0.1641 -1.9510 -1.1378
 1320TIP3   OH225518   5.807   1.214   0.860  0.5461  0.7874 -0.2276
 1320TIP3    H125519   5.730   1.182   0.907  0.2643  0.5271 -0.8605
 1320TIP3    H225520   5.836   1.290   0.911 -0.2435  1.0071 -0.0948
 1321TIP3   OH225521   5.352   0.407   2.280  0.2543  0.3531 -0.0656
 1321TIP3    H125522   5.321   0.493   2.309  0.5281  0.4810 -0.1445
 1321TIP3    H225523   5.372   0.419   2.187 -0.0052  0.1180 -0.1530
 1322TIP3   OH225524   2.887   4.286   1.513 -0.1811 -0.3272  0.0586
 1322TIP3    H125525   2.829   4.362   1.516  0.3829  0.0840  1.1722
 1322TIP3    H225526   2.930   4.292   1.428  1.2545  1.7135  0.8459
 1323TIP3   OH225527   0.290   3.871   1.035  0.6219  0.1745 -0.1787
 1323TIP3    H125528   0.339   3.905   1.110  2.2147 -1.9508 -0.1613
 1323TIP3    H225529   0.344   3.895   0.959 -0.2188  1.0045 -0.5295
 1324TIP3   OH225530   5.935   4.919   7.999 -0.2894 -0.0151  0.6905
 1324TIP3    H125531   5.882   4.844   7.973 -1.9520  1.5042 -0.5464
 1324TIP3    H225532   5.892   4.953   8.077 -0.3189  0.4142  0.4882
 1325TIP3   OH225533   0.200   4.385   7.768  0.2749 -0.7973  0.1191
 1325TIP3    H125534   0.200   4.297   7.731 -0.1474 -0.8563  0.2576
 1325TIP3    H225535   0.253   4.377   7.848 -1.4641 -1.4278  1.2785
 1326TIP3   OH225536   6.021   0.776   9.031 -0.4422  0.0603 -0.8566
 1326TIP3    H125537   6.113   0.773   9.055 -0.4304 -0.2805 -0.9456
 1326TIP3    H225538   6.020   0.755   8.937 -0.6308 -0.1882 -0.7992
 1327TIP3   OH225539   5.121   3.733   8.819 -0.6651 -0.5052  0.1756
 1327TIP3    H125540   5.098   3.657   8.872 -0.0804 -1.5577 -1.0418
 1327TIP3    H225541   5.037   3.768   8.789 -1.2243  1.5180  3.5621
 1328TIP3   OH225542   2.221   3.876   7.546 -0.1884  0.4618 -0.2762
 1328TIP3    H125543   2.149   3.937   7.539 -0.8299 -0.4312 -2.0954
 1328TIP3    H225544   2.209   3.815   7.473  1.3087 -0.8800  0.5161
 1329TIP3   OH225545   1.392   0.291   8.499 -0.0634 -0.1714 -0.2851
 1329TIP3    H125546   1.398   0.263   8.408  0.5525  0.8647 -0.5794
 1329TIP3    H225547   1.299   0.283   8.520 -0.3839  0.5514 -1.3365
 1330TIP3   OH225548   2.986   0.187   8.036 -0.3971 -0.0000  0.3515
 1330TIP3    H125549   2.963   0.105   8.078 -0.5160 -0.8036 -1.2063
 1330TIP3    H225550   2.935   0.188   7.955 -0.2538  1.5268  0.2507
 1331TIP3   OH225551   0.830   2.357   6.855 -0.0656  0.2403 -0.1456
 1331TIP3    H125552   0.894   2.428   6.866 -0.1894  0.3617 -0.2103
 1331TIP3    H225553   0.748   2.393   6.888 -0.0461 -0.0055  0.1834
 1332TIP3   OH225554   1.054   2.526   0.786  0.6699 -0.6567  0.1284
 1332TIP3    H125555   0.982   2.555   0.842 -1.3880 -0.3265 -2.4939
 1332TIP3    H225556   1.099   2.606   0.761  1.1414 -0.7418  0.6652
 1333TIP3   OH225557   0.454   0.604   9.145 -0.2486 -0.5055  0.1093
 1333TIP3    H125558   0.490   0.655   9.217  1.2504 -0.8622 -0.3492
 1333TIP3    H225559   0.407   0.667   9.091  1.8529  0.5213 -0.6347
 1334TIP3   OH225560   3.367   4.429   8.675 -0.1889 -0.8976  0.1430
 1334TIP3    H125561   3.443   4.428   8.617  0.4535 -0.4726  0.9479
 1334TIP3    H225562   3.388   4.495   8.741 -1.6806 -0.0733 -0.1608
 1335TIP3   OH225563   2.608   4.815   7.826 -0.1254  0.1232 -0.6036
 1335TIP3    H125564   2.679   4.859   7.781  0.7088 -0.5740  0.0054
 1335TIP3    H225565   2.641   4.727   7.843 -1.5379 -0.5776 -1.2933
 1336TIP3   OH225566   2.719   0.770   8.420  0.3099  1.0307 -0.0015
 1336TIP3    H125567   2.783   0.734   8.482 -0.4420 -0.5669 -0.1026
 1336TIP3    H225568   2.743   0.862   8.411  0.4706  1.3201  2.6486
 1337TIP3   OH225569   0.532   2.627   9.266 -0.2971 -0.7004  0.5188
 1337TIP3    H125570   0.491   2.713   9.271  0.0641 -0.5989  2.0449
 1337TIP3    H225571   0.556   2.606   9.356  0.7355 -1.8568  0.0051
 1338TIP3   OH225572   4.642   5.430   0.924 -0.0596 -0.5800  0.1024
 1338TIP3    H125573   4.679   5.500   0.871 -0.3772 -0.1373  0.4624
 1338TIP3    H225574   4.570   5.395   0.871 -0.6209  0.1129  0.3937
 1339TIP3   OH225575   1.357   3.517   8.967  0.2131  0.1815  0.0458
 1339TIP3    H125576   1.424   3.534   8.901 -0.8561 -1.4749 -1.5624
 1339TIP3    H225577   1.338   3.603   9.004  1.8212  0.9619 -0.8199
 1340TIP3   OH225578   3.760   4.459   0.012  0.3778  0.4965  0.2523
 1340TIP3    H125579   3.841   4.427   0.053  0.4160 -1.8289 -1.4169
 1340TIP3    H225580   3.789   4.495  -0.071 -0.4015 -3.0611 -1.7674
 1341TIP3   OH225581   2.985   0.970   6.938 -0.3361 -0.2520 -0.0127
 1341TIP3    H125582   2.920   0.939   6.876  0.7049  1.2091 -1.9513
 1341TIP3    H225583   3.063   0.987   6.885  0.9339  0.1380  1.8660
 1342TIP3   OH225584   6.563   4.793   2.179 -0.3272 -0.1767  0.4576
 1342TIP3    H125585   6.645   4.817   2.222 -0.2134  0.7592 -0.2461
 1342TIP3    H225586   6.584   4.712   2.133  0.1782  0.0008  0.3631
 1343TIP3   OH225587   4.473   4.754   7.902 -0.0238  0.6612  0.3068
 1343TIP3    H125588   4.499   4.701   7.977  1.2473 -1.3155 -1.4351
 1343TIP3    H225589   4.553   4.766   7.852 -1.1858  0.1746 -1.7665
 1344TIP3   OH225590   2.014   4.994   1.065  0.6675  0.0037  0.0852
 1344TIP3    H125591   1.926   5.016   1.096  0.8382  0.4758  0.2364
 1344TIP3    H225592   2.065   4.982   1.145  0.6175 -0.8053  0.0085
 1345TIP3   OH225593   3.423   0.784   8.871 -0.0113  0.2721 -0.9023
 1345TIP3    H125594   3.345   0.733   8.893  1.1992 -1.0037  0.6710
 1345TIP3    H225595   3.401   0.874   8.897 -0.4343 -0.3389  1.0446
 1346TIP3   OH225596   5.651   5.432   0.836  0.3261  0.4859 -0.5095
 1346TIP3    H125597   5.588   5.502   0.857  0.1262  0.1490  0.0413
 1346TIP3    H225598   5.596   5.356   0.816  0.5415  0.5005 -1.1618
 1347TIP3   OH225599   5.586   3.494   8.411  0.1489 -0.0362 -0.2133
 1347TIP3    H125600   5.568   3.560   8.344  0.1807 -1.0128 -1.1946
 1347TIP3    H225601   5.678   3.506   8.433  0.4477 -0.4629 -1.1903
 1348TIP3   OH225602   4.475   5.228   0.509  0.1997 -0.3463 -0.2165
 1348TIP3    H125603   4.466   5.216   0.604 -1.3376  0.9675 -0.1547
 1348TIP3    H225604   4.515   5.314   0.499 -1.5101  0.4196 -0.7537
 1349TIP3   OH225605   4.412   2.161   8.004  0.0645  0.0501  0.7203
 1349TIP3    H125606   4.380   2.075   7.977 -0.6654  0.3034  0.7349
 1349TIP3    H225607   4.431   2.206   7.921  2.9507 -0.9775  0.7027
 1350TIP3   OH225608   0.181   3.625   1.058  0.4618 -0.2552  0.0041
 1350TIP3    H125609   0.206   3.717   1.052  0.0314 -0.2215 -1.9658
 1350TIP3    H225610   0.099   3.626   1.107  0.1127  0.4967 -0.5739
 1351TIP3   OH225611   5.771   2.559   8.101 -0.6402 -0.1292 -0.3285
 1351TIP3    H125612   5.821   2.570   8.182 -0.7904 -0.6880 -0.1560
 1351TIP3    H225613   5.769   2.647   8.062  0.1258 -0.0179 -0.1364
 1352TIP3   OH225614   3.142   0.982   7.802 -0.0054 -0.1233 -0.0402
 1352TIP3    H125615   3.189   0.917   7.853  0.2493  1.6559  2.1417
 1352TIP3    H225616   3.209   1.047   7.779  0.0144 -1.0555 -3.1968
 1353TIP3   OH225617   3.781   1.313   6.861  0.1367  0.1506 -0.8206
 1353TIP3    H125618   3.830   1.370   6.920 -0.8433  0.4365 -0.2781
 1353TIP3    H225619   3.835   1.234   6.854 -0.4865 -0.5897  1.7707
 1354TIP3   OH225620   4.540   0.290   1.087 -0.1546  0.8620 -0.1456
 1354TIP3    H125621   4.447   0.279   1.106 -0.3366  1.5207 -0.6263
 1354TIP3    H225622   4.571   0.348   1.156  0.3462 -0.8682  1.1572
 1355TIP3   OH225623   4.575   2.406   9.268 -0.3945  0.4038  0.4852
 1355TIP3    H125624   4.590   2.350   9.192  0.5834  0.2579  0.7797
 1355TIP3    H225625   4.559   2.493   9.232 -2.8042 -0.1627 -0.0400
 1356TIP3   OH225626   4.598   3.010   8.359  0.1497 -1.0310 -0.0575
 1356TIP3    H125627   4.555   3.019   8.444 -0.9105 -0.5517 -0.6260
 1356TIP3    H225628   4.691   3.005   8.379 -0.1484 -1.9244  1.2036
 1357TIP3   OH225629   1.322   3.965   1.677 -0.2444 -0.3211 -0.2774
 1357TIP3    H125630   1.347   3.995   1.765  0.6994  0.8508 -0.9198
 1357TIP3    H225631   1.402   3.926   1.642 -0.5513 -0.5582 -0.7215
 1358TIP3   OH225632   4.097   2.137   7.510 -0.1037  0.2068  0.1371
 1358TIP3    H125633   4.080   2.053   7.466 -0.3208 -0.2464  1.0688
 1358TIP3    H225634   4.048   2.201   7.458  0.3291 -0.1824 -0.7793
 1359TIP3   OH225635   6.437   5.907   1.593  0.2907 -0.2497  0.2651
 1359TIP3    H125636   6.518   5.959   1.593 -0.1724  0.4798  0.6172
 1359TIP3    H225637   6.417   5.895   1.685 -0.0479 -0.3591  0.1762
 1360TIP3   OH225638   4.422   5.291   7.726  0.2332 -0.7128  0.2311
 1360TIP3    H125639   4.437   5.208   7.680 -0.2214 -0.1607 -0.9725
 1360TIP3    H225640   4.400   5.353   7.656  0.4501  0.3985  1.1161
 1361TIP3   OH225641   2.769   6.258   0.724 -0.4122  0.3285 -0.2707
 1361TIP3    H125642   2.862   6.266   0.748 -0.1357  1.3357 -1.5663
 1361TIP3    H225643   2.734   6.193   0.785  0.7732  1.0708  1.2650
 1362TIP3   OH225644   2.406   0.894   7.404 -0.1408 -0.4242 -0.3847
 1362TIP3    H125645   2.449   0.905   7.319  0.5513 -1.4537 -0.1876
 1362TIP3    H225646   2.461   0.832   7.451 -1.4802 -1.2737  0.1354
 1363TIP3   OH225647   1.908   2.544   0.125  0.5542  0.5022 -0.2837
 1363TIP3    H125648   1.873   2.534   0.213  0.0819 -0.6977 -0.5802
 1363TIP3    H225649   1.998   2.573   0.137  0.6213 -0.0461  0.6046
 1364TIP3   OH225650   3.750   2.255   7.503  0.5312 -0.1729  0.3349
 1364TIP3    H125651   3.794   2.340   7.505  0.3510 -0.0790  0.3159
 1364TIP3    H225652   3.767   2.221   7.415  0.5065 -0.1065  0.3051
 1365TIP3   OH225653   3.260   3.298   8.969  0.0764  0.8962  0.1636
 1365TIP3    H125654   3.244   3.224   8.911 -4.0251 -0.2855  2.4295
 1365TIP3    H225655   3.303   3.260   9.046 -2.0210  0.6904  1.3228
 1366TIP3   OH225656   3.040   1.822   1.788 -0.2205  0.4305 -0.2039
 1366TIP3    H125657   3.008   1.738   1.821 -0.4169  0.9291  0.9002
 1366TIP3    H225658   3.134   1.808   1.775  0.1593  0.5930  1.9186
 1367TIP3   OH225659   1.946   3.803   2.634 -0.1928  0.4537  0.3384
 1367TIP3    H125660   1.923   3.772   2.722  0.2346  0.8161  0.5836
 1367TIP3    H225661   1.893   3.882   2.622  0.5530  1.0218  0.7139
 1368TIP3   OH225662   1.257   1.132   7.892  0.0590 -0.3460  0.5180
 1368TIP3    H125663   1.227   1.080   7.817 -1.9178 -1.3418  1.9167
 1368TIP3    H225664   1.193   1.114   7.961  0.7451  1.9910  1.8811
 1369TIP3   OH225665   3.305   5.253   8.276 -0.0830  0.0878 -0.2452
 1369TIP3    H125666   3.240   5.308   8.319  1.5530  2.1508 -0.2044
 1369TIP3    H225667   3.387   5.273   8.322  0.9852 -0.7336 -1.6918
 1370TIP3   OH225668   6.210   1.671   8.482 -0.5135  0.0397  0.0663
 1370TIP3    H125669   6.212   1.616   8.560 -1.9395  1.6063  1.2745
 1370TIP3    H225670   6.121   1.663   8.449 -0.3079  0.4781 -0.6268
 1371TIP3   OH225671   3.546   2.701   1.912 -0.3235 -0.1808  0.2867
 1371TIP3    H125672   3.480   2.741   1.855 -1.2617 -2.0729 -0.0448
 1371TIP3    H225673   3.612   2.666   1.851 -0.9175 -1.4935  0.3560
 1372TIP3   OH225674   3.626   6.532   7.528 -0.6192 -0.8890  0.1751
 1372TIP3    H125675   3.601   6.624   7.517 -1.5185 -1.1876 -0.3434
 1372TIP3    H225676   3.543   6.486   7.538 -0.1497 -1.5805  1.0270
 1373TIP3   OH225677   1.680   0.298   1.015  0.0637  0.1009  0.6670
 1373TIP3    H125678   1.697   0.246   1.094 -0.5483 -1.0853  0.0534
 1373TIP3    H225679   1.740   0.262   0.949 -0.7280 -0.1888  0.0911
 1374TIP3   OH225680   4.116   1.209   7.291  0.2161  0.1701 -0.9201
 1374TIP3    H125681   4.092   1.126   7.331  0.6481 -0.5573 -2.1022
 1374TIP3    H225682   4.085   1.275   7.352 -1.9097 -0.8003 -0.8787
 1375TIP3   OH225683   5.459   1.636   0.208 -0.4363  0.5017  0.0109
 1375TIP3    H125684   5.474   1.657   0.115  1.0720  0.8680  0.3045
 1375TIP3    H225685   5.547   1.635   0.246 -0.9838 -0.2717  1.3154
 1376TIP3   OH225686   0.935   1.653   8.626  0.0791  0.0070 -0.7586
 1376TIP3    H125687   0.929   1.726   8.687 -0.4465 -0.1081 -0.6700
 1376TIP3    H225688   0.868   1.591   8.655 -1.4634  0.7518 -2.5098
 1377TIP3   OH225689   4.039   4.138   1.744 -0.2388  0.1083 -0.0910
 1377TIP3    H125690   4.007   4.063   1.795  2.1561 -0.9076  0.0734
 1377TIP3    H225691   4.033   4.109   1.653 -0.3657  0.1759 -0.1050
 1378TIP3   OH225692   0.545   1.190   7.580 -0.0856  0.0511 -0.1069
 1378TIP3    H125693   0.620   1.181   7.521 -0.5321 -0.1552 -0.6520
 1378TIP3    H225694   0.584   1.202   7.667  0.5735 -0.2486 -0.3542
 1379TIP3   OH225695   4.618   0.006   7.783 -0.3116  0.1428  0.1932
 1379TIP3    H125696   4.540  -0.018   7.732 -0.5492  1.3298 -0.0185
 1379TIP3    H225697   4.587   0.011   7.873 -0.7003  1.4553  0.0062
 1380TIP3   OH225698   1.921   0.528   7.951  0.3156 -0.0662 -0.2156
 1380TIP3    H125699   1.972   0.603   7.980  2.3469  0.0920 -3.6221
 1380TIP3    H225700   1.865   0.562   7.881 -0.5257 -1.3028 -0.1852
 1381TIP3   OH225701   2.608   1.853   8.991 -0.1595  0.4940  0.2897
 1381TIP3    H125702   2.573   1.860   9.080 -0.1457 -0.7214  0.4139
 1381TIP3    H225703   2.551   1.788   8.948  1.6021 -1.2065  0.3707
 1382TIP3   OH225704   5.645   0.694   0.820  0.3276  0.4047  0.2840
 1382TIP3    H125705   5.723   0.655   0.781 -0.0623  0.1857 -0.2899
 1382TIP3    H225706   5.583   0.622   0.827  0.3954  0.4377  1.3384
 1383TIP3   OH225707   5.429   0.534   9.192  0.0504 -0.7254  0.0770
 1383TIP3    H125708   5.497   0.598   9.170 -0.4498  0.1999  1.1253
 1383TIP3    H225709   5.441   0.463   9.128  0.9908  0.1380 -0.7385
 1384TIP3   OH225710   1.368   3.606   1.917  0.0048  0.4304  0.2654
 1384TIP3    H125711   1.423   3.678   1.949  0.9436 -0.2237  0.1692
 1384TIP3    H225712   1.304   3.593   1.987  2.5143 -1.5324  2.4511
 1385TIP3   OH225713   5.799   1.778   1.114  0.2623 -0.1302  0.0160
 1385TIP3    H125714   5.728   1.742   1.166  0.2890 -1.2353 -0.6677
 1385TIP3    H225715   5.866   1.802   1.178 -0.9850  1.6719  0.7406
 1386TIP3   OH225716   1.992   5.946   7.405  0.4589 -0.1391 -0.3860
 1386TIP3    H125717   1.932   5.990   7.345 -0.1194 -0.4186 -0.0258
 1386TIP3    H225718   2.079   5.961   7.368  0.1810  0.4156 -0.8231
 1387TIP3   OH225719   6.324   2.736   7.158  0.2571  0.0892 -0.4448
 1387TIP3    H125720   6.337   2.721   7.064  1.2148 -3.4281  0.0896
 1387TIP3    H225721   6.346   2.652   7.199 -2.4820  0.7183  2.7609
 1388TIP3   OH225722   4.989   5.487   0.429 -0.3949 -0.9363  0.4396
 1388TIP3    H125723   5.079   5.459   0.445 -0.1594 -0.6821 -0.3767
 1388TIP3    H225724   4.954   5.423   0.368 -0.2872 -0.2488 -0.3742
 1389TIP3   OH225725   1.920   2.869   7.704  0.4475  0.1199 -0.4245
 1389TIP3    H125726   2.000   2.915   7.732 -1.2006  1.6108  2.1715
 1389TIP3    H225727   1.924   2.784   7.748  0.6101  0.1789 -0.3238
 1390TIP3   OH225728   0.589   2.807   0.270 -0.3164 -0.3714 -0.2906
 1390TIP3    H125729   0.538   2.888   0.280 -0.5862 -0.1235 -2.8689
 1390TIP3    H225730   0.523   2.738   0.266 -0.3620 -0.2750 -1.6393
 1391TIP3   OH225731   3.913   2.498   0.182 -0.2508  0.5698 -0.0434
 1391TIP3    H125732   3.841   2.514   0.122 -0.2912  1.1269  0.1542
 1391TIP3    H225733   3.990   2.492   0.126 -0.1893  1.7388 -0.1006
 1392TIP3   OH225734   1.308   2.950   1.437 -0.1302 -0.1911 -0.5228
 1392TIP3    H125735   1.364   2.975   1.511 -0.4927  1.4720 -0.7702
 1392TIP3    H225736   1.219   2.970   1.467 -0.3024  0.2455 -1.3068
 1393TIP3   OH225737   5.510   5.898   2.138 -0.2315 -0.4377  0.5043
 1393TIP3    H125738   5.559   5.865   2.213 -0.3866 -0.9346  0.3907
 1393TIP3    H225739   5.426   5.851   2.141 -0.8939  0.7296  0.9573
 1394TIP3   OH225740   2.308   4.059   0.205  0.4711 -0.3198  0.6266
 1394TIP3    H125741   2.233   4.089   0.153 -1.3451 -2.8598  1.5651
 1394TIP3    H225742   2.379   4.119   0.182 -0.4361 -0.6214 -4.0254
 1395TIP3   OH225743   2.002   2.400   8.786  0.0766 -0.0989  0.4318
 1395TIP3    H125744   1.956   2.431   8.707  1.1539 -0.8569 -0.5215
 1395TIP3    H225745   1.945   2.426   8.858 -0.4737  1.4973 -0.5210
 1396TIP3   OH225746   3.279   4.884   9.273 -0.2524  0.5926 -0.0742
 1396TIP3    H125747   3.271   4.966   9.321 -0.7556 -0.1089  1.1004
 1396TIP3    H225748   3.369   4.883   9.241  0.6752  0.3674  2.3148
 1397TIP3   OH225749   1.844   0.214   9.318  0.1135  0.6131 -0.2876
 1397TIP3    H125750   1.821   0.138   9.371  2.1657 -0.0972 -0.3022
 1397TIP3    H225751   1.904   0.265   9.373  0.8065  0.8315 -1.2137
 1398TIP3   OH225752   3.762   0.451   1.841  0.9367  0.0631  0.0584
 1398TIP3    H125753   3.708   0.457   1.762  2.8240 -0.8948 -1.3677
 1398TIP3    H225754   3.749   0.361   1.871 -1.5416  1.0202  2.2623
 1399TIP3   OH225755   4.898   0.989   7.476  0.6886  0.0555 -0.2200
 1399TIP3    H125756   4.831   0.934   7.517  0.1281  1.3944  0.7187
 1399TIP3    H225757   4.885   1.076   7.514  0.8469  1.1220 -2.4580
 1400TIP3   OH225758   3.527   6.208   0.262  0.5472  0.0139  0.3965
 1400TIP3    H125759   3.594   6.267   0.229 -0.4249  0.6287 -0.5712
 1400TIP3    H225760   3.452   6.223   0.204 -0.0196 -1.5320  0.6787
 1401TIP3   OH225761   4.204   6.410   8.696 -0.0216 -0.0438 -0.0132
 1401TIP3    H125762   4.172   6.397   8.785 -0.3926  3.2692  0.4578
 1401TIP3    H225763   4.191   6.503   8.679  0.7179 -0.4140 -3.2927
 1402TIP3   OH225764   1.526   1.843   7.308  0.0722 -0.4073 -0.2599
 1402TIP3    H125765   1.595   1.777   7.298  1.9917  1.2436  1.2036
 1402TIP3    H225766   1.515   1.853   7.403 -0.5939  0.9165 -0.4448
 1403TIP3   OH225767   6.132   5.912   2.238 -0.4180  0.3812 -0.0559
 1403TIP3    H125768   6.045   5.885   2.268 -0.1357 -0.7673 -0.2369
 1403TIP3    H225769   6.130   5.898   2.143 -0.7648  2.4835 -0.4200
 1404TIP3   OH225770   6.623   6.476   7.668 -0.0140  0.6722  0.3052
 1404TIP3    H125771   6.694   6.491   7.605  0.4553 -0.2248  0.5966
 1404TIP3    H225772   6.553   6.437   7.616  0.3931 -0.1214  0.3306
 1405TIP3   OH225773   0.720   2.797   8.638  0.2144 -0.1337 -0.5232
 1405TIP3    H125774   0.717   2.852   8.560  0.3818 -0.6535 -0.9038
 1405TIP3    H225775   0.766   2.850   8.703  0.6606  0.0565 -0.9880
 1406TIP3   OH225776   0.006   2.916   0.205 -0.1020  0.8662 -0.0893
 1406TIP3    H125777   0.043   2.838   0.165  1.3693  2.4189 -1.9805
 1406TIP3    H225778  -0.028   2.887   0.289 -0.6404 -1.9992 -1.2067
 1407TIP3   OH225779   4.248   4.037   7.207  0.1482  0.2360  0.1592
 1407TIP3    H125780   4.286   4.123   7.223 -0.1769  0.4034  0.0457
 1407TIP3    H225781   4.302   3.999   7.138 -0.0774  0.5999 -0.2238
 1408TIP3   OH225782   0.262   5.677   0.533 -0.0377 -0.1810 -0.0430
 1408TIP3    H125783   0.314   5.622   0.474  0.6268 -0.1794  0.5335
 1408TIP3    H225784   0.323   5.745   0.563  0.2058 -1.2382  2.0925
 1409TIP3   OH225785   3.505   0.385   7.845  0.2127 -0.6355  0.2628
 1409TIP3    H125786   3.413   0.379   7.818  0.1059 -0.4861  0.5844
 1409TIP3    H225787   3.514   0.318   7.913  0.1167 -0.0697  0.8396
 1410TIP3   OH225788   4.934   6.297   0.058 -0.4242  0.2494  0.1317
 1410TIP3    H125789   4.841   6.316   0.046 -0.6672 -0.1837  1.1691
 1410TIP3    H225790   4.956   6.236  -0.012 -0.5286  1.5062 -1.0355
 1411TIP3   OH225791   5.199   0.151   1.466  0.0136  0.0853 -0.0418
 1411TIP3    H125792   5.241   0.109   1.541  1.4725  1.3450 -0.0938
 1411TIP3    H225793   5.218   0.244   1.477  0.4968  0.2934 -2.0770
 1412TIP3   OH225794   3.584   1.008   7.364 -0.1906 -0.0931 -0.5145
 1412TIP3    H125795   3.640   0.983   7.290 -0.1847 -1.2257 -0.1521
 1412TIP3    H225796   3.545   1.091   7.337 -0.0442 -0.3875 -1.7184
 1413TIP3   OH225797   3.537   6.574   7.150  0.1144 -0.2671 -0.1138
 1413TIP3    H125798   3.551   6.493   7.199 -0.2216 -0.5749 -0.5204
 1413TIP3    H225799   3.625   6.604   7.127  0.2267 -0.6615 -0.2001
 1414TIP3   OH225800   2.355   2.916   0.412 -0.1410  0.1935  0.2568
 1414TIP3    H125801   2.349   2.953   0.499  0.6059  1.4441 -0.2075
 1414TIP3    H225802   2.427   2.853   0.417  0.8004  1.2303  0.2352
 1415TIP3   OH225803   4.638   2.390   0.526 -0.1427  0.0299 -0.1524
 1415TIP3    H125804   4.665   2.298   0.530 -0.9755 -0.2140 -0.0949
 1415TIP3    H225805   4.706   2.432   0.473  1.4822 -0.1645  1.6667
 1416TIP3   OH225806   3.826   6.570   0.752  0.1191 -0.2021  0.4242
 1416TIP3    H125807   3.915   6.568   0.719 -0.2709  0.6592 -0.7041
 1416TIP3    H225808   3.773   6.529   0.684 -0.3020 -1.2100  1.3133
 1417TIP3   OH225809   2.054   4.221   7.446 -0.5978  0.0372  0.3268
 1417TIP3    H125810   1.984   4.181   7.497 -0.1030  1.0413  1.8729
 1417TIP3    H225811   2.010   4.277   7.382 -1.2140  0.1357  0.8355
 1418TIP3   OH225812   3.725   5.985   7.592  0.3662  0.2842  0.0549
 1418TIP3    H125813   3.649   5.960   7.645 -0.1722 -1.0904 -1.2531
 1418TIP3    H225814   3.695   6.061   7.542  0.0755  0.1693  0.0514
 1419TIP3   OH225815   0.157   6.156   9.226 -0.3337  0.1005  0.1266
 1419TIP3    H125816   0.066   6.138   9.203 -1.2530  0.0868  3.3351
 1419TIP3    H225817   0.198   6.070   9.230 -0.3157  0.0606 -0.6930
 1420TIP3   OH225818   5.373   6.209   0.080 -0.2521  0.1352 -0.0276
 1420TIP3    H125819   5.277   6.213   0.077 -0.3734 -1.7494 -0.0534
 1420TIP3    H225820   5.401   6.241  -0.006 -0.8965  0.0954 -0.2628
 1421TIP3   OH225821   0.792   3.917   0.309 -0.1039  0.5249  0.2526
 1421TIP3    H125822   0.741   3.878   0.379  1.2984 -1.1765  0.4126
 1421TIP3    H225823   0.851   3.978   0.354 -0.4406  0.7919  0.3338
 1422TIP3   OH225824   3.606   0.189   0.488  0.4265 -0.1455 -0.1883
 1422TIP3    H125825   3.515   0.158   0.491  0.6072 -0.7015 -0.3719
 1422TIP3    H225826   3.631   0.198   0.580  0.2761 -0.2681 -0.1346
 1423TIP3   OH225827   2.541   1.151   7.341  0.2548  0.3872 -0.3789
 1423TIP3    H125828   2.528   1.209   7.266  0.4129  0.0284 -0.6859
 1423TIP3    H225829   2.502   1.068   7.315 -0.8229  0.6247  0.4273
 1424TIP3   OH225830   0.183   4.460   1.612  0.3101  0.1817 -0.1519
 1424TIP3    H125831   0.152   4.543   1.575  0.1001  0.5741  0.8633
 1424TIP3    H225832   0.230   4.418   1.540 -2.3813 -0.3686 -1.6978
 1425TIP3   OH225833   3.814   5.117   1.777 -0.2491 -0.2946 -0.3553
 1425TIP3    H125834   3.773   5.149   1.857  0.5340  1.7946 -0.7177
 1425TIP3    H225835   3.888   5.064   1.807  1.2074  2.0064  0.4183
 1426TIP3   OH225836   0.857   3.755   0.105 -0.1610 -0.2087 -0.5576
 1426TIP3    H125837   0.850   3.823   0.172 -0.2862  1.0399 -1.7898
 1426TIP3    H225838   0.767   3.727   0.090 -0.1573 -0.3227 -0.3681
 1427TIP3   OH225839   5.698   6.208   0.726  0.3155 -0.0468  0.3802
 1427TIP3    H125840   5.614   6.252   0.727  0.5456  0.3854  1.5838
 1427TIP3    H225841   5.751   6.259   0.665  0.4815  1.1969  1.5168
 1428TIP3   OH225842   4.367   5.010   7.582 -0.2067 -0.1913 -0.4958
 1428TIP3    H125843   4.422   4.935   7.602 -0.6721  0.0587  1.9855
 1428TIP3    H225844   4.348   5.001   7.488  2.4604 -1.2993 -1.0343
 1429TIP3   OH225845   2.449   4.230   1.626 -0.5145  0.0020 -0.3558
 1429TIP3    H125846   2.528   4.236   1.680 -0.9381  0.5594  0.2172
 1429TIP3    H225847   2.377   4.246   1.687 -0.9615  1.5634 -1.2228
 1430TIP3   OH225848   1.303   0.323   8.194 -0.4262 -0.3009 -0.2686
 1430TIP3    H125849   1.219   0.364   8.170 -0.1775 -0.1438 -0.8800
 1430TIP3    H225850   1.290   0.230   8.176 -1.5022 -0.8010  2.4945
 1431TIP3   OH225851   5.596   2.485   7.556 -0.3110 -0.6460  0.1958
 1431TIP3    H125852   5.511   2.495   7.512 -0.3159 -1.6226 -0.0596
 1431TIP3    H225853   5.629   2.574   7.565 -0.4877 -0.3775 -1.4660
 1432TIP3   OH225854   4.067   5.927   0.510 -0.0840 -0.0231  0.0018
 1432TIP3    H125855   4.000   5.942   0.443  0.2728 -1.6737 -0.7621
 1432TIP3    H225856   4.039   5.847   0.555 -0.2239  0.9499  1.7527
 1433TIP3   OH225857   4.282   1.193   0.169  0.2784 -0.1393 -0.2401
 1433TIP3    H125858   4.285   1.174   0.076  0.3765  0.2488 -0.3181
 1433TIP3    H225859   4.359   1.149   0.205 -0.5245 -1.4937 -0.1045
 1434TIP3   OH225860   0.910   1.320   8.558 -0.1428 -0.5697  0.0946
 1434TIP3    H125861   0.850   1.261   8.603  0.5807 -0.1749  1.6206
 1434TIP3    H225862   0.983   1.331   8.618  0.6495  0.3380 -0.9931
 1435TIP3   OH225863   3.062   6.124   7.562  0.0256  0.6228 -0.3854
 1435TIP3    H125864   3.014   6.105   7.643  2.4404 -0.1337  0.9858
 1435TIP3    H225865   3.098   6.212   7.576  0.5886  0.4218 -0.5288
 1436TIP3   OH225866   3.732   5.191   1.253  0.0127 -0.3508 -0.6369
 1436TIP3    H125867   3.654   5.213   1.303  0.1969 -0.8782 -0.1099
 1436TIP3    H225868   3.700   5.136   1.181 -0.5124  1.8377 -2.2010
 1437TIP3   OH225869   6.128   3.189   0.720 -0.8723 -0.0524 -0.2968
 1437TIP3    H125870   6.049   3.176   0.667 -1.7879 -0.6736  1.1639
 1437TIP3    H225871   6.115   3.132   0.796  0.7077  0.3147  0.2748
 1438TIP3   OH225872   4.087   3.764   7.718 -0.2193  0.1548  0.1725
 1438TIP3    H125873   4.062   3.851   7.686 -0.9672 -0.1874 -0.2215
 1438TIP3    H225874   4.174   3.776   7.755  0.7653  0.5698 -2.1244
 1439TIP3   OH225875   3.827   0.956   8.541 -0.1408 -0.6504 -0.4632
 1439TIP3    H125876   3.832   1.044   8.505 -1.9641 -0.2573  0.1659
 1439TIP3    H225877   3.748   0.918   8.503  0.3118 -1.8116 -0.2807
 1440TIP3   OH225878   0.644   5.188   1.268  0.3704 -0.7668 -0.1984
 1440TIP3    H125879   0.646   5.100   1.305 -0.5859 -1.2827 -1.3088
 1440TIP3    H225880   0.716   5.190   1.205  0.5178 -0.6716 -0.0306
 1441TIP3   OH225881   1.469   3.273   9.127 -0.6644 -0.7034  0.6070
 1441TIP3    H125882   1.470   3.180   9.108  2.6169 -0.3815 -1.5811
 1441TIP3    H225883   1.493   3.315   9.044  1.0728  1.8532  2.2347
 1442TIP3   OH225884   2.550   0.283   1.620 -0.4730  0.1652  0.2378
 1442TIP3    H125885   2.464   0.317   1.646 -1.0801 -1.4458  0.4687
 1442TIP3    H225886   2.564   0.318   1.532 -1.0336  1.0182  0.4680
 1443TIP3   OH225887   1.223   6.104   7.496  0.0244 -0.1499 -0.7077
 1443TIP3    H125888   1.239   6.084   7.589  1.9331  1.0254 -0.7401
 1443TIP3    H225889   1.139   6.062   7.477 -0.9322  0.4616  1.8266
 1444TIP3   OH225890   4.053   3.927   8.177 -0.0253  0.4951  0.1164
 1444TIP3    H125891   4.025   3.881   8.099 -0.3768  0.4459  0.2688
 1444TIP3    H225892   4.145   3.901   8.189 -0.0991  0.1630 -0.0293
 1445TIP3   OH225893   2.547   0.565   0.594  0.9998  0.8158 -0.0686
 1445TIP3    H125894   2.617   0.540   0.654  1.9650  0.6959 -1.2174
 1445TIP3    H225895   2.559   0.659   0.580  0.2955  1.0034  0.5142
 1446TIP3   OH225896   0.610   4.635   8.475  0.0213 -0.1439  0.7226
 1446TIP3    H125897   0.577   4.545   8.475 -1.1076  0.2560  0.1032
 1446TIP3    H225898   0.559   4.679   8.542  0.0550  0.2232  0.5092
 1447TIP3   OH225899   1.200   1.232   8.626  0.4454 -0.1005 -0.7106
 1447TIP3    H125900   1.276   1.258   8.574  1.0461 -1.8345 -0.7727
 1447TIP3    H225901   1.172   1.312   8.670  2.5515  0.5071 -0.3785
 1448TIP3   OH225902   2.116   4.963   7.482  0.2828 -0.1192  0.4256
 1448TIP3    H125903   2.131   4.960   7.576 -0.9209  0.4627  0.6616
 1448TIP3    H225904   2.146   4.878   7.449  1.3302 -0.0677  1.2263
 1449TIP3   OH225905   0.033   5.829   1.388 -0.6417 -0.2797 -0.1463
 1449TIP3    H125906   0.041   5.780   1.470 -0.6109  1.6370  1.0578
 1449TIP3    H225907  -0.004   5.914   1.414 -0.7333  0.3488 -2.1384
 1450TIP3   OH225908   2.223   0.046   2.491 -0.1836  0.2455 -1.1948
 1450TIP3    H125909   2.137   0.018   2.523  0.1085  1.2144  0.5762
 1450TIP3    H225910   2.285   0.013   2.556  0.5430  1.5134 -1.2155
 1451TIP3   OH225911   1.095   0.926   7.809  0.0508  0.1097 -0.5044
 1451TIP3    H125912   1.166   0.863   7.819 -0.4676 -0.2245  1.6627
 1451TIP3    H225913   1.080   0.959   7.898 -2.7752 -0.1689 -0.7877
 1452TIP3   OH225914   4.948   2.674   7.526 -0.3333  0.2064 -0.4080
 1452TIP3    H125915   4.876   2.695   7.585 -1.2933  0.1858 -1.5349
 1452TIP3    H225916   4.925   2.716   7.443  1.1760  0.5688 -0.6811
 1453TIP3   OH225917   1.941   1.318   8.447  0.2791 -0.3705 -0.4724
 1453TIP3    H125918   1.898   1.237   8.418 -4.9171  1.7059  0.4251
 1453TIP3    H225919   1.941   1.374   8.370 -2.4187  0.9428  0.3623
 1454TIP3   OH225920   2.060   2.614   3.115 -0.2531  0.0321 -0.2225
 1454TIP3    H125921   2.086   2.545   3.053  0.9776 -1.5726  1.9533
 1454TIP3    H225922   2.142   2.643   3.154 -1.0329  0.5991  1.0479
 1455TIP3   OH225923   5.351   2.966   8.537 -0.4400  0.1250 -0.0022
 1455TIP3    H125924   5.266   3.007   8.530 -0.7105 -0.1555  1.3797
 1455TIP3    H225925   5.337   2.891   8.596  0.8873  0.4762  0.7959
 1456TIP3   OH225926   5.611   1.526   1.832 -0.2085 -0.0708 -0.4410
 1456TIP3    H125927   5.653   1.597   1.783  0.5369 -0.1066  0.1372
 1456TIP3    H225928   5.537   1.568   1.876 -0.4945  0.0958 -1.0713
 1457TIP3   OH225929   4.879   4.489   7.300  0.1497  0.1787  0.0817
 1457TIP3    H125930   4.818   4.516   7.369  0.0608 -2.0853  0.9859
 1457TIP3    H225931   4.848   4.534   7.222 -2.6966 -0.7818  0.5128
 1458TIP3   OH225932   5.299   1.988   1.122  0.2568  0.1537  0.0163
 1458TIP3    H125933   5.345   1.916   1.165  1.7089  1.9738  1.6671
 1458TIP3    H225934   5.366   2.054   1.105 -1.3165  1.9159  0.2587
 1459TIP3   OH225935   6.041   1.300   7.621  0.1990  0.4179  0.2244
 1459TIP3    H125936   6.033   1.236   7.692  0.0527  0.8980  0.6415
 1459TIP3    H225937   6.118   1.352   7.645 -0.2479  1.0101  0.3730
 1460TIP3   OH225938   2.912   3.423   0.840  0.1895 -0.6048 -0.4000
 1460TIP3    H125939   2.975   3.452   0.906  0.2748 -1.5312 -0.0585
 1460TIP3    H225940   2.900   3.329   0.857 -2.7568 -0.1441  0.8323
 1461TIP3   OH225941   2.881   3.204   0.239 -0.0161 -0.4002  0.1210
 1461TIP3    H125942   2.973   3.214   0.213  0.1265 -2.1043 -0.1337
 1461TIP3    H225943   2.832   3.208   0.157 -0.1660  0.2219  0.2301
 1462TIP3   OH225944   6.168   1.399   0.275 -0.1924  0.6795  0.8854
 1462TIP3    H125945   6.126   1.346   0.207  0.8193 -0.5727  1.2025
 1462TIP3    H225946   6.106   1.471   0.291 -1.7239 -0.5363  0.6270
 1463TIP3   OH225947   3.407   0.561   9.261 -0.3591 -0.3357  0.3101
 1463TIP3    H125948   3.448   0.567   9.174 -0.5062  0.8083  0.3034
 1463TIP3    H225949   3.480   0.544   9.320 -0.0985  0.0043  0.0927
 1464TIP3   OH225950   6.000   1.941   7.845 -0.2245 -0.5736  0.2939
 1464TIP3    H125951   6.037   1.857   7.872  0.9385  0.1446  1.0282
 1464TIP3    H225952   6.067   1.979   7.789 -1.0307 -0.4115 -0.5794
 1465TIP3   OH225953   5.239   5.307   0.993  0.0007 -0.4870  0.2847
 1465TIP3    H125954   5.318   5.305   1.047 -0.4342 -0.0583  0.9507
 1465TIP3    H225955   5.185   5.375   1.032  0.6478  1.5415 -2.0771
 1466TIP3   OH225956   4.393   3.798   1.075 -0.5299 -0.5917  0.6170
 1466TIP3    H125957   4.351   3.871   1.030 -0.9495 -1.1776  0.0480
 1466TIP3    H225958   4.405   3.731   1.007  1.1145 -0.5339  0.8129
 1467TIP3   OH225959   4.228   3.424   0.820 -0.3370 -0.1179 -0.0085
 1467TIP3    H125960   4.160   3.421   0.887 -1.1168 -1.2143 -0.8160
 1467TIP3    H225961   4.190   3.379   0.745  0.6460  0.7766 -1.0866
 1468TIP3   OH225962   2.011   4.729   7.342 -0.4981 -0.0698 -0.0841
 1468TIP3    H125963   2.052   4.717   7.428 -0.6076 -0.7709 -0.1169
 1468TIP3    H225964   2.045   4.656   7.290 -1.8059 -0.7041 -0.0945
 1469TIP3   OH225965   6.501   1.720   1.201 -0.1346  0.1842 -0.0170
 1469TIP3    H125966   6.549   1.801   1.184 -1.4260  0.6800 -1.6619
 1469TIP3    H225967   6.423   1.727   1.145  0.2510 -2.6781 -1.0574
 1470TIP3   OH225968   5.444   5.311   1.160 -0.0624 -0.3244 -0.0183
 1470TIP3    H125969   5.424   5.332   1.252  2.4225 -0.0493  0.5184
 1470TIP3    H225970   5.489   5.389   1.127 -1.2625 -0.2660 -1.6309
 1471TIP3   OH225971   5.862   1.777   8.906  0.0798 -0.8164  0.2927
 1471TIP3    H125972   5.925   1.842   8.937 -1.0794  0.1372  0.7236
 1471TIP3    H225973   5.906   1.693   8.920  3.0603 -0.1466 -3.4757
 1472TIP3   OH225974   2.360   0.787   8.583 -0.2634  0.0574  0.0842
 1472TIP3    H125975   2.268   0.792   8.556 -0.4091 -0.6407  0.4399
 1472TIP3    H225976   2.382   0.876   8.610 -0.4428  0.5383 -1.2569
 1473TIP3   OH225977   6.479   2.562   1.868  0.4217  0.0529  0.2501
 1473TIP3    H125978   6.499   2.477   1.829  1.2361  0.9691 -1.3940
 1473TIP3    H225979   6.526   2.562   1.952  1.6719 -0.5407 -0.4254
 1474TIP3   OH225980   1.026   3.012   0.583 -0.3155  0.1902  0.1477
 1474TIP3    H125981   1.086   2.941   0.605  0.3113  0.8026  0.4274
 1474TIP3    H225982   0.943   2.987   0.625 -0.1154 -0.3979  0.1972
 1475TIP3   OH225983   3.288   4.959   0.444 -0.0489 -0.0506  0.7817
 1475TIP3    H125984   3.220   4.927   0.503  1.6442 -2.2257  1.7077
 1475TIP3    H225985   3.360   4.983   0.501  1.0665 -0.7115 -0.3018
 1476TIP3   OH225986   2.667   5.838   8.611 -0.0909 -0.8471  0.5444
 1476TIP3    H125987   2.718   5.771   8.656  0.6303 -0.8107 -0.1908
 1476TIP3    H225988   2.678   5.818   8.518 -0.9383 -0.4810  0.3592
 1477TIP3   OH225989   2.795   1.636   8.438 -0.6602  0.7563  0.1003
 1477TIP3    H125990   2.836   1.687   8.508 -0.5805  0.5437  0.2092
 1477TIP3    H225991   2.859   1.637   8.367 -0.9219  1.3372 -0.1324
 1478TIP3   OH225992   4.609   2.764   0.748 -0.4082  0.1982  0.4316
 1478TIP3    H125993   4.575   2.675   0.755  0.3038 -0.0658  0.6239
 1478TIP3    H225994   4.695   2.753   0.708 -0.4175  0.8273  0.2272
 1479TIP3   OH225995   0.895   2.806   6.875 -0.0851 -0.2113 -0.2216
 1479TIP3    H125996   0.908   2.887   6.826  0.2491  0.5998  1.1582
 1479TIP3    H225997   0.803   2.783   6.860  0.1007 -0.1869 -1.4959
 1480TIP3   OH225998   2.026   2.492   2.350  0.1952 -0.3522  0.1850
 1480TIP3    H125999   2.025   2.501   2.255  2.4356  2.0917  0.2581
 1480TIP3    H226000   2.104   2.439   2.368  0.4754  0.2078  0.6616
 1481TIP3   OH226001   1.331   4.134   1.403  0.0591  0.3412  0.3157
 1481TIP3    H126002   1.381   4.206   1.441 -1.2280  0.6514  1.5227
 1481TIP3    H226003   1.326   4.068   1.473  2.7140 -1.7912 -1.3199
 1482TIP3   OH226004   2.805   0.846   0.614 -0.1210  0.1021 -0.0622
 1482TIP3    H126005   2.772   0.915   0.557  0.1747 -0.6222 -1.1439
 1482TIP3    H226006   2.812   0.769   0.557 -1.3682 -1.0992  1.3054
 1483TIP3   OH226007   3.577   2.258   7.086 -0.4529  0.1455 -0.5771
 1483TIP3    H126008   3.669   2.244   7.066 -0.5351 -1.6925  0.1812
 1483TIP3    H226009   3.564   2.352   7.071  1.6185  0.5257 -0.3258
 1484TIP3   OH226010   3.990   2.245   0.333 -0.3379 -0.0619 -0.0372
 1484TIP3    H126011   3.904   2.218   0.364 -0.4882 -0.4477 -0.7648
 1484TIP3    H226012   3.974   2.329   0.290  0.1467  1.3360  2.3218
 1485TIP3   OH226013   2.988   1.722   7.953  0.4938  0.6062  0.5809
 1485TIP3    H126014   3.012   1.796   8.009  1.0928  0.2034  0.8618
 1485TIP3    H226015   2.926   1.672   8.006  2.2597 -0.6372  1.5422
 1486TIP3   OH226016   6.562   0.692   1.533  0.2292 -0.3605  0.2785
 1486TIP3    H126017   6.573   0.716   1.625 -2.5866 -1.6832  1.0721
 1486TIP3    H226018   6.642   0.644   1.511  0.4457 -1.0897  2.4317
 1487TIP3   OH226019   4.497   6.407   7.276  0.1899  0.9384 -0.1372
 1487TIP3    H126020   4.404   6.420   7.292  0.2404  2.3614 -0.8394
 1487TIP3    H226021   4.502   6.321   7.233 -0.8356  0.9829 -0.3676
 1488TIP3   OH226022   0.453   4.589   7.704 -0.1713  0.4048 -0.0459
 1488TIP3    H126023   0.426   4.674   7.740 -0.1002 -0.4075  2.0696
 1488TIP3    H226024   0.443   4.528   7.777  1.6990 -1.0474 -0.9175
 1489TIP3   OH226025   2.786   1.582   0.055  0.7004  0.1070  0.1630
 1489TIP3    H126026   2.857   1.520   0.037 -0.4491 -0.9910 -0.8884
 1489TIP3    H226027   2.723   1.531   0.107 -0.7605 -0.0221 -1.6221
 1490TIP3   OH226028   2.941   3.457   1.926 -0.0403  0.5440 -0.3170
 1490TIP3    H126029   2.869   3.422   1.979 -0.8382 -1.3553 -2.4835
 1490TIP3    H226030   2.900   3.485   1.845  1.4415  1.1584 -0.8962
 1491TIP3   OH226031   1.213   6.250   8.476 -0.3911 -0.1691  0.5859
 1491TIP3    H126032   1.180   6.161   8.462 -0.6463 -0.1126  0.8312
 1491TIP3    H226033   1.135   6.305   8.474 -0.1814  0.1104 -0.0589
 1492TIP3   OH226034   4.171   4.529   0.197 -0.1954  0.1513  0.2220
 1492TIP3    H126035   4.136   4.445   0.227  1.5666 -0.0477  1.9002
 1492TIP3    H226036   4.195   4.575   0.278  1.8788  0.8970 -0.7589
 1493TIP3   OH226037   2.801   3.295   6.712  0.0682  0.1084  0.6435
 1493TIP3    H126038   2.828   3.383   6.687  1.1080  0.1635  1.8484
 1493TIP3    H226039   2.862   3.237   6.667 -1.2686 -0.0969 -1.0028
 1494TIP3   OH226040   2.080   4.411   2.041 -0.1136  0.5901  0.4306
 1494TIP3    H126041   2.041   4.361   2.112 -0.0900 -0.0358  0.0119
 1494TIP3    H226042   2.150   4.355   2.007 -0.2065  0.8228 -0.1648
 1495TIP3   OH226043   4.017   6.590   7.810  0.2364 -0.2905 -0.0535
 1495TIP3    H126044   3.989   6.660   7.869  0.8381  0.1419 -0.2762
 1495TIP3    H226045   3.937   6.542   7.790  0.0004 -0.3635  1.0089
 1496TIP3   OH226046   4.702   0.337   7.422  0.1346 -0.0617 -0.2289
 1496TIP3    H126047   4.717   0.344   7.516  0.1335 -1.3989 -0.1110
 1496TIP3    H226048   4.682   0.245   7.407  1.4825 -0.1777 -1.7181
 1497TIP3   OH226049   0.599   0.455   0.381 -0.3451 -0.5959 -0.2666
 1497TIP3    H126050   0.551   0.403   0.316 -0.3028  0.9229 -1.5709
 1497TIP3    H226051   0.684   0.411   0.388  0.1295 -0.0780 -2.2397
 1498TIP3   OH226052   2.014   0.739   8.157  0.1728  0.2531 -0.2938
 1498TIP3    H126053   2.037   0.831   8.143  0.5152  0.2211  0.0650
 1498TIP3    H226054   1.935   0.741   8.211  1.5848  0.3214  1.8915
 1499TIP3   OH226055   2.773   2.905   7.709 -0.0430  0.2708 -0.8356
 1499TIP3    H126056   2.832   2.945   7.644  0.4822 -0.4122 -0.7930
 1499TIP3    H226057   2.686   2.914   7.671  0.2880 -0.3797 -1.7746
 1500TIP3   OH226058   3.566   1.872   1.630  0.3490 -0.1516  0.1694
 1500TIP3    H126059   3.496   1.938   1.638 -0.5953 -1.0435 -0.4760
 1500TIP3    H226060   3.576   1.860   1.536  1.5679  0.1408  0.2526
 1501TIP3   OH226061   1.997   2.318   1.138 -0.8566  0.4043  0.1837
 1501TIP3    H126062   1.992   2.250   1.205  0.1896 -1.9038 -1.9091
 1501TIP3    H226063   1.907   2.349   1.129 -1.4279 -0.9045  1.0095
 1502TIP3   OH226064   0.417   4.572   8.169 -0.6192  0.2826 -0.3583
 1502TIP3    H126065   0.332   4.551   8.207 -0.1960  0.3482  0.6426
 1502TIP3    H226066   0.436   4.660   8.200  0.1927 -0.0506  0.1053
 1503TIP3   OH226067   1.623   3.727   9.310 -0.4176 -0.3253 -0.0088
 1503TIP3    H126068   1.663   3.689   9.232 -1.0422  1.3762 -1.2158
 1503TIP3    H226069   1.553   3.666   9.334  0.6150 -1.5311  0.0296
 1504TIP3   OH226070   5.040   3.529   9.002 -0.4271 -0.4622 -0.7827
 1504TIP3    H126071   4.955   3.512   9.044 -0.5683 -0.5302 -1.0927
 1504TIP3    H226072   5.089   3.448   9.013 -0.2722 -0.3056 -0.2973
 1505TIP3   OH226073   4.125   0.984   7.755  0.0241  0.0090  0.1253
 1505TIP3    H126074   4.194   1.019   7.698 -0.7814  1.2682 -0.1282
 1505TIP3    H226075   4.070   1.060   7.775 -0.2816 -0.6121  1.7840
 1506TIP3   OH226076   6.534   1.838   7.493  0.6650 -0.9459  0.4826
 1506TIP3    H126077   6.488   1.767   7.538 -0.1717 -1.2559 -0.8127
 1506TIP3    H226078   6.516   1.824   7.400  2.5935 -0.4957 -0.0083
 1507TIP3   OH226079   1.200   2.585   8.431 -0.1625  0.0457  0.2088
 1507TIP3    H126080   1.169   2.550   8.348  0.4392  0.5253 -0.2228
 1507TIP3    H226081   1.202   2.510   8.490  0.7275 -0.5749 -0.5905
 1508TIP3   OH226082   3.940   1.820   6.546 -0.2836 -0.4535 -0.4904
 1508TIP3    H126083   4.007   1.848   6.608 -1.1855 -0.6776  0.6003
 1508TIP3    H226084   3.944   1.725   6.546 -2.4269 -0.6378  1.7241
 1509TIP3   OH226085   4.572   4.641   8.782 -0.0799 -0.3068 -0.5361
 1509TIP3    H126086   4.568   4.662   8.875  0.8699  2.0791 -0.9496
 1509TIP3    H226087   4.524   4.712   8.740  1.0936 -0.3168 -1.9727
 1510TIP3   OH226088   1.532   5.126   0.315 -0.1578 -0.1725  0.3524
 1510TIP3    H126089   1.616   5.158   0.280  0.2048 -1.4712 -0.0453
 1510TIP3    H226090   1.466   5.178   0.269  0.4130  0.4901  0.2577
 1511TIP3   OH226091   2.121   6.223   0.121 -0.5103  0.2067  0.0737
 1511TIP3    H126092   2.207   6.265   0.118 -1.2530  1.8639  0.7099
 1511TIP3    H226093   2.073   6.260   0.047 -1.0731  0.2249  0.4383
 1512TIP3   OH226094   3.800   3.697   6.540 -0.1256 -0.3619  1.0574
 1512TIP3    H126095   3.744   3.751   6.485  1.4890 -1.0173 -1.3781
 1512TIP3    H226096   3.755   3.612   6.544 -0.6857 -0.0513  1.5402
 1513TIP3   OH226097   3.571   6.188   7.420  0.1896 -0.0722 -0.9692
 1513TIP3    H126098   3.491   6.237   7.440 -0.4396 -1.4821  0.2118
 1513TIP3    H226099   3.601   6.223   7.337 -0.2895  2.1829 -0.2429
 1514TIP3   OH226100   4.339   3.927   0.052 -0.8592 -0.7367 -0.9577
 1514TIP3    H126101   4.421   3.913   0.100 -0.9051  0.8358 -0.3518
 1514TIP3    H226102   4.367   3.941  -0.038 -0.6783 -2.5268 -1.2225
 1515TIP3   OH226103   5.843   3.785   1.045  0.1101 -0.4724  0.2437
 1515TIP3    H126104   5.762   3.734   1.042 -2.3255  3.0571 -1.0606
 1515TIP3    H226105   5.842   3.827   1.132 -0.1984  0.5808 -0.2537
 1516TIP3   OH226106   1.433   5.358   7.130 -0.3921 -0.3255 -0.0269
 1516TIP3    H126107   1.429   5.343   7.224 -0.6615  1.3770  0.2693
 1516TIP3    H226108   1.361   5.419   7.112  1.2281  1.4521 -0.8609
 1517TIP3   OH226109   5.804   4.638   8.755  0.2449 -0.3641 -0.5100
 1517TIP3    H126110   5.865   4.674   8.819  0.9901 -2.0860 -0.1988
 1517TIP3    H226111   5.853   4.568   8.712 -1.0254 -0.7821 -1.3203
 1518TIP3   OH226112   0.777   6.372   0.761  0.4307 -0.4354 -0.3929
 1518TIP3    H126113   0.864   6.347   0.794  0.0395 -0.4809  0.6434
 1518TIP3    H226114   0.716   6.317   0.811 -0.3498  1.4341  0.7970
 1519TIP3   OH226115   3.555   4.334   1.059 -0.2340  0.0624  0.0872
 1519TIP3    H126116   3.467   4.371   1.058 -0.4630 -0.4645  0.1930
 1519TIP3    H226117   3.581   4.331   0.967  0.3587  1.7845  0.1676
 1520TIP3   OH226118   3.805   0.653   2.498 -0.4213  0.2625 -0.5785
 1520TIP3    H126119   3.812   0.562   2.472  2.0692  0.5059 -1.0849
 1520TIP3    H226120   3.844   0.702   2.425 -1.6988  1.7527 -0.3217
 1521TIP3   OH226121   4.364   5.798   0.032 -0.4280 -0.3139 -0.0056
 1521TIP3    H126122   4.363   5.787  -0.063  0.4767  0.4621 -0.1182
 1521TIP3    H226123   4.389   5.712   0.066  2.3188  0.1339 -0.6458
 1522TIP3   OH226124   5.904   3.771   8.539  0.5697  0.1423  0.5646
 1522TIP3    H126125   5.913   3.815   8.454 -0.8621 -1.8513 -0.7037
 1522TIP3    H226126   5.927   3.838   8.603  0.4492  2.1080 -1.3351
 1523TIP3   OH226127   0.547   0.207   1.509 -0.8413 -0.1130 -0.4616
 1523TIP3    H126128   0.601   0.203   1.431 -2.2718  0.9695 -1.5626
 1523TIP3    H226129   0.544   0.300   1.532 -1.7330 -0.2258 -0.0710
 1524TIP3   OH226130   2.469   5.826   7.957 -0.4976 -0.3243 -0.2094
 1524TIP3    H126131   2.564   5.836   7.961 -0.5948  0.8492 -0.3746
 1524TIP3    H226132   2.436   5.916   7.955 -1.7092 -0.6701  1.7588
 1525TIP3   OH226133   4.472   3.452   6.859  1.1348  0.2178 -0.1578
 1525TIP3    H126134   4.429   3.521   6.909 -0.1157  0.8300 -1.9756
 1525TIP3    H226135   4.421   3.445   6.778  2.8207 -0.9871 -1.1924
 1526TIP3   OH226136   4.764   5.448   8.870 -0.0076  0.8063  0.3266
 1526TIP3    H126137   4.839   5.507   8.859  1.7462 -1.4995 -0.9564
 1526TIP3    H226138   4.798   5.377   8.924 -0.8389 -0.9342 -1.3557
 1527TIP3   OH226139   3.287   6.537   0.799 -0.6014  0.0835 -0.0714
 1527TIP3    H126140   3.216   6.487   0.759 -0.6868 -0.0028  0.1849
 1527TIP3    H226141   3.357   6.472   0.811 -0.2172  0.3203 -0.9683
 1528TIP3   OH226142   5.394   1.992   8.075 -0.5291 -0.4554 -0.0716
 1528TIP3    H126143   5.410   2.036   8.159 -2.3289 -0.5414  0.3427
 1528TIP3    H226144   5.416   1.900   8.091 -0.6165 -0.4232  0.2292
 1529TIP3   OH226145   1.534   4.567   7.687 -0.4769 -0.4997  0.0094
 1529TIP3    H126146   1.612   4.572   7.743 -1.5060 -0.1471  1.4742
 1529TIP3    H226147   1.547   4.636   7.622  0.4763 -0.5234  0.1516
 1530TIP3   OH226148   4.735   5.196   8.009 -0.1750  0.3237 -0.4056
 1530TIP3    H126149   4.765   5.107   8.028 -0.4020  0.6166  1.5600
 1530TIP3    H226150   4.786   5.223   7.933 -1.1381 -1.9849 -1.9853
 1531TIP3   OH226151   2.222   3.036   2.330 -0.0323 -0.1726 -0.4020
 1531TIP3    H126152   2.205   2.958   2.278 -1.0519  0.4557 -1.0459
 1531TIP3    H226153   2.170   3.025   2.409  1.2997 -0.9971  0.4026
 1532TIP3   OH226154   5.119   5.219   2.231  0.1084 -0.4568 -0.4393
 1532TIP3    H126155   5.212   5.214   2.250 -0.2409  1.2735  2.3837
 1532TIP3    H226156   5.077   5.215   2.317 -2.2702  0.9564 -1.4379
 1533TIP3   OH226157   1.977   4.209   0.863  0.1634 -0.2230  0.5131
 1533TIP3    H126158   1.984   4.143   0.794  2.9688 -1.4311  1.7964
 1533TIP3    H226159   1.895   4.188   0.908  0.1317 -1.7390 -0.1748
 1534TIP3   OH226160   5.504   6.547   0.757 -0.1402 -0.4522  0.4183
 1534TIP3    H126161   5.597   6.526   0.764 -0.5917 -2.0580  2.1309
 1534TIP3    H226162   5.459   6.475   0.800 -2.1366  0.9379  0.8044
 1535TIP3   OH226163   1.423   1.554   2.220  0.1570  0.1007  0.0141
 1535TIP3    H126164   1.335   1.588   2.236  0.5727  1.0355  0.4147
 1535TIP3    H226165   1.479   1.602   2.282  1.1408  0.4794 -1.1196
 1536TIP3   OH226166   4.470   2.264   1.695  0.1838 -0.7212 -0.5190
 1536TIP3    H126167   4.395   2.260   1.754  0.6059  1.6472  0.2912
 1536TIP3    H226168   4.516   2.344   1.720  2.6915 -1.7874 -1.3733
 1537TIP3   OH226169   4.525   4.201   7.112  0.5751  0.2944  0.1716
 1537TIP3    H126170   4.571   4.231   7.033 -1.0063 -0.7706 -1.2184
 1537TIP3    H226171   4.532   4.275   7.172  0.4641  1.7964 -1.5551
 1538TIP3   OH226172   1.606   0.198   8.643 -0.0284 -0.3599 -0.3556
 1538TIP3    H126173   1.665   0.152   8.583  1.2140  2.0573 -1.1358
 1538TIP3    H226174   1.531   0.223   8.589 -1.4325 -2.6270  0.4192
 1539TIP3   OH226175   6.584   1.048   1.769 -0.3959  0.5082  0.3481
 1539TIP3    H126176   6.643   1.123   1.760  0.4665 -0.2389 -0.5495
 1539TIP3    H226177   6.643   0.975   1.789 -1.2937  0.1954  1.9956
 1540TIP3   OH226178   4.668   2.918   0.427  0.3230 -0.2778 -0.2829
 1540TIP3    H126179   4.603   2.877   0.370 -1.1235  0.0752  1.0455
 1540TIP3    H226180   4.742   2.857   0.425 -0.7939 -1.7043 -0.3221
 1541TIP3   OH226181   3.171   1.523   1.624 -0.0973  0.1811  0.3260
 1541TIP3    H126182   3.117   1.501   1.700  0.7894 -0.2089  0.8523
 1541TIP3    H226183   3.214   1.605   1.648 -0.2270  0.3446  0.0172
 1542TIP3   OH226184   1.165   5.388   1.572  0.1133 -0.2504  0.2104
 1542TIP3    H126185   1.093   5.441   1.538  1.1473  0.1057 -1.6280
 1542TIP3    H226186   1.124   5.327   1.633 -1.4358  1.1803  0.6861
 1543TIP3   OH226187   1.448   6.057   0.760 -0.2396  0.1062 -0.5339
 1543TIP3    H126188   1.514   6.060   0.829 -0.2041  1.1239 -0.6056
 1543TIP3    H226189   1.497   6.027   0.683  0.3546  1.6243 -0.7887
 1544TIP3   OH226190   2.310   3.900   9.069  0.0755 -0.1550 -0.5003
 1544TIP3    H126191   2.328   3.888   8.975 -0.5010  0.9150 -0.7616
 1544TIP3    H226192   2.249   3.973   9.072  0.9767  0.5738  0.7846
 1545TIP3   OH226193   4.699   6.497   0.116 -0.0905  0.1340 -0.3121
 1545TIP3    H126194   4.708   6.577   0.063 -2.1331 -0.2134 -1.2891
 1545TIP3    H226195   4.752   6.514   0.194  2.9413  0.7205 -2.3392
 1546TIP3   OH226196   1.181   0.685   1.928 -0.1257 -0.0181  0.1351
 1546TIP3    H126197   1.120   0.693   2.001 -1.2965 -0.3538 -0.7808
 1546TIP3    H226198   1.129   0.707   1.851  1.3013  1.1826 -0.5325
 1547TIP3   OH226199   6.417   2.049   0.746  0.2588  0.2190 -0.3998
 1547TIP3    H126200   6.413   1.954   0.734 -1.5999 -0.0870  1.9424
 1547TIP3    H226201   6.500   2.064   0.791 -0.0832 -0.5004  0.5014
 1548TIP3   OH226202   4.561   2.936   6.880 -0.2237  0.1452  0.0317
 1548TIP3    H126203   4.542   3.022   6.840 -0.3720 -0.1944 -0.6416
 1548TIP3    H226204   4.477   2.907   6.915 -0.7418 -0.7886 -1.8444
 1549TIP3   OH226205   0.479   2.597   8.296  0.2834 -0.0284  0.3209
 1549TIP3    H126206   0.482   2.661   8.368  0.6388 -0.3341  0.5794
 1549TIP3    H226207   0.458   2.514   8.338 -2.3499  0.2384 -0.2420
 1550TIP3   OH226208   2.134   0.804   2.141 -0.3412 -0.3781 -0.4550
 1550TIP3    H126209   2.189   0.737   2.181 -1.8738 -1.4048  0.0587
 1550TIP3    H226210   2.079   0.835   2.213  2.1804  3.5983  0.0571
 1551TIP3   OH226211   0.624   2.522   8.750  0.0004  0.2150  0.6775
 1551TIP3    H126212   0.591   2.550   8.836 -0.5222 -0.3380  0.6663
 1551TIP3    H226213   0.603   2.595   8.691 -1.3536 -0.1763  0.6435
 1552TIP3   OH226214   4.254   1.815   8.677  0.3739 -0.7111  0.6193
 1552TIP3    H126215   4.245   1.859   8.762 -0.3273 -1.7104  1.0878
 1552TIP3    H226216   4.178   1.757   8.672  0.2310 -0.4446 -0.8454
 1553TIP3   OH226217   4.004   3.289   1.521  0.3464  0.1437  0.2066
 1553TIP3    H126218   3.958   3.292   1.605 -0.3908  0.7122 -0.1995
 1553TIP3    H226219   3.934   3.283   1.456  0.9580 -3.7005 -0.2932
 1554TIP3   OH226220   6.236   6.285   1.211  0.2589 -0.7463 -0.8914
 1554TIP3    H126221   6.258   6.302   1.303 -0.3214  1.0863 -1.0687
 1554TIP3    H226222   6.318   6.299   1.164 -0.1408  1.6627 -1.0088
 1555TIP3   OH226223   2.629   0.459   1.810 -0.6096 -0.0604  0.3398
 1555TIP3    H126224   2.566   0.435   1.877 -0.2288 -1.3564  0.2619
 1555TIP3    H226225   2.624   0.388   1.745  1.0132 -0.2910  0.4149
 1556TIP3   OH226226   3.511   2.344   9.024 -0.2096  0.0904 -0.1487
 1556TIP3    H126227   3.584   2.285   9.005  0.9997  1.5112 -0.0948
 1556TIP3    H226228   3.433   2.295   8.998  0.8994 -0.6129 -2.3868
 1557TIP3   OH226229   0.610   0.063   2.528 -0.0781  0.2570 -0.0025
 1557TIP3    H126230   0.652   0.000   2.587  0.8952  1.5635  0.7422
 1557TIP3    H226231   0.519   0.035   2.525 -0.0364 -0.1873  1.6842
 1558TIP3   OH226232   1.923   5.975   7.687  0.2673 -0.1815  0.0550
 1558TIP3    H126233   1.942   5.965   7.594  0.1868 -0.4802  0.0671
 1558TIP3    H226234   1.840   5.929   7.699 -1.8731  3.2452 -0.4867
 1559TIP3   OH226235   3.149   3.113   6.911 -0.0293 -0.6413 -0.4642
 1559TIP3    H126236   3.133   3.200   6.875  0.5805 -0.3719 -0.0995
 1559TIP3    H226237   3.200   3.069   6.844 -0.0315 -0.5927 -0.4984
 1560TIP3   OH226238   5.304   0.426   7.438  0.3238 -0.1411  0.0572
 1560TIP3    H126239   5.304   0.331   7.442 -0.5124 -0.1026  1.2843
 1560TIP3    H226240   5.392   0.449   7.407 -0.2028 -1.3674 -2.5799
 1561TIP3   OH226241   2.145   6.104   7.815  0.2000 -0.2266 -0.1695
 1561TIP3    H126242   2.121   6.193   7.791  0.1985 -0.0793  0.3747
 1561TIP3    H226243   2.074   6.050   7.781  0.4249 -0.0741 -0.9013
 1562TIP3   OH226244   4.083   3.732   1.819 -0.0970  0.7116  0.0928
 1562TIP3    H126245   4.075   3.641   1.791 -1.1602  0.5869  0.7267
 1562TIP3    H226246   4.172   3.758   1.794  0.1046 -0.3962 -0.3785
 1563TIP3   OH226247   3.992   1.901   7.397  0.5630  0.2797 -0.0836
 1563TIP3    H126248   3.991   1.894   7.302  3.6700 -0.7301 -0.1405
 1563TIP3    H226249   3.931   1.834   7.427  0.6164 -0.3610 -1.3497
 1564TIP3   OH226250   5.006   5.668   8.716  0.0825 -0.3030  0.0936
 1564TIP3    H126251   5.036   5.748   8.672  0.9711 -0.4944  0.3323
 1564TIP3    H226252   5.011   5.688   8.809  1.0698 -0.8942  0.1749
 1565TIP3   OH226253   0.936   2.171   1.875  0.4828 -0.2364 -0.1807
 1565TIP3    H126254   0.871   2.103   1.893 -0.0035  0.5366  1.2142
 1565TIP3    H226255   0.973   2.191   1.961  1.3704  0.5138 -0.7267
 1566TIP3   OH226256   1.704   6.080   8.222 -0.4506 -0.4362 -0.5109
 1566TIP3    H126257   1.669   6.152   8.274 -0.9573  2.2746 -4.2077
 1566TIP3    H226258   1.799   6.088   8.230 -0.5216 -0.0600 -0.0276
 1567TIP3   OH226259   2.899   5.416   0.070 -0.2147 -0.1482  0.4949
 1567TIP3    H126260   2.822   5.404   0.126  0.6324 -0.1667  1.6785
 1567TIP3    H226261   2.967   5.363   0.111  0.5297  0.1344 -0.3517
 1568TIP3   OH226262   4.531   4.972   0.084  0.3935 -0.2576  0.2739
 1568TIP3    H126263   4.460   4.911   0.064 -0.5047  1.1063 -0.8514
 1568TIP3    H226264   4.574   4.987   0.000  0.7531  0.4685  0.5809
 1569TIP3   OH226265   1.661   6.141   0.349  0.1584 -0.3375  0.2457
 1569TIP3    H126266   1.708   6.224   0.336 -1.0013  0.5754  1.6271
 1569TIP3    H226267   1.731   6.075   0.356  1.3604  1.0894  3.0238
 1570TIP3   OH226268   5.714   0.797   1.918 -0.0352 -0.5609 -0.0341
 1570TIP3    H126269   5.620   0.798   1.900  0.4022 -1.8827 -2.8583
 1570TIP3    H226270   5.737   0.704   1.925  0.8351 -0.2489  2.5139
 1571TIP3   OH226271   1.346   5.260   6.876  0.4951 -0.2141 -0.4304
 1571TIP3    H126272   1.285   5.195   6.912 -0.1820  0.2538 -0.7101
 1571TIP3    H226273   1.317   5.343   6.915  1.4330 -0.0944  0.0250
 1572TIP3   OH226274   2.171   1.365   0.858 -0.6700  0.4472  0.2239
 1572TIP3    H126275   2.099   1.425   0.836 -1.7051  0.5836  3.4234
 1572TIP3    H226276   2.214   1.406   0.933 -0.7468 -2.2411  1.8755
 1573TIP3   OH226277   1.599   6.234   8.698  0.4918  0.0298  0.9990
 1573TIP3    H126278   1.619   6.297   8.768  0.2769 -0.2556  1.3268
 1573TIP3    H226279   1.505   6.218   8.708 -0.0173  1.5877 -0.7002
 1574TIP3   OH226280   6.052   5.929   1.974 -0.3325 -0.2310  0.1301
 1574TIP3    H126281   6.022   5.994   1.910 -1.6017 -0.8093  0.1167
 1574TIP3    H226282   6.006   5.849   1.950  0.9643 -1.0665  0.3506
 1575TIP3   OH226283   0.369   3.771   0.400  0.4194  0.1146  0.2588
 1575TIP3    H126284   0.437   3.827   0.436  0.7473  0.7269 -1.2019
 1575TIP3    H226285   0.321   3.737   0.476  1.0756  1.2932  1.2213
 1576TIP3   OH226286   5.712   1.438   7.997 -0.2422  0.0771 -0.5855
 1576TIP3    H126287   5.705   1.441   7.902  0.7505 -0.1417 -0.6824
 1576TIP3    H226288   5.796   1.481   8.015 -0.3415 -0.0422  0.1773
 1577TIP3   OH226289   4.846   5.475   2.540 -0.0407  0.3181  0.5151
 1577TIP3    H126290   4.834   5.455   2.448  1.4290 -1.8770  0.7347
 1577TIP3    H226291   4.878   5.393   2.579  2.4329  1.9921  2.3494
 1578TIP3   OH226292   1.631   4.142   8.878 -0.0222 -0.3554 -0.8120
 1578TIP3    H126293   1.548   4.095   8.893  1.0623 -1.6113  1.9235
 1578TIP3    H226294   1.605   4.234   8.872 -1.7516 -0.8500 -1.6780
 1579TIP3   OH226295   5.781   6.207   1.414 -0.5513  0.4347 -0.0138
 1579TIP3    H126296   5.759   6.145   1.344  0.2368 -3.8274  3.0462
 1579TIP3    H226297   5.853   6.258   1.380 -1.5665  0.0659 -2.9770
 1580TIP3   OH226298   1.142   5.563   7.407 -0.4367  0.0447  0.4694
 1580TIP3    H126299   1.058   5.609   7.409  0.1144  1.0743  0.6214
 1580TIP3    H226300   1.153   5.537   7.316 -0.5948  0.5311  0.3080
 1581TIP3   OH226301   0.171   0.849   6.754 -0.0825  0.2321  0.4363
 1581TIP3    H126302   0.091   0.867   6.803  1.1087  0.8544  2.2610
 1581TIP3    H226303   0.196   0.761   6.782  0.2638  0.3362  0.4582
 1582TIP3   OH226304   2.746   4.959   1.504  0.0329 -0.3341  0.4479
 1582TIP3    H126305   2.693   4.888   1.469  0.0909 -0.5187  0.7283
 1582TIP3    H226306   2.692   5.037   1.493  0.6822 -0.1044 -1.5574
 1583TIP3   OH226307   3.852   4.284   0.294 -0.2308 -0.1219  0.4520
 1583TIP3    H126308   3.843   4.380   0.290 -1.7722 -0.2683 -0.0447
 1583TIP3    H226309   3.785   4.257   0.357 -0.8455 -1.0074 -0.5690
 1584TIP3   OH226310   3.147   4.766   0.630 -0.0653 -0.2240  0.7788
 1584TIP3    H126311   3.074   4.816   0.667 -1.3286 -1.4973  0.1230
 1584TIP3    H226312   3.181   4.717   0.704 -1.5830 -1.5768  0.6513
 1585TIP3   OH226313   6.612   3.968   8.315 -0.3790 -0.3676 -0.5465
 1585TIP3    H126314   6.652   4.055   8.313  0.1043 -0.5723 -0.0373
 1585TIP3    H226315   6.616   3.937   8.225  0.9489 -0.5295 -0.4501
 1586TIP3   OH226316   4.148   1.737   6.933 -0.2713  0.3497  0.3447
 1586TIP3    H126317   4.153   1.783   6.850 -1.5083 -0.4797 -0.2296
 1586TIP3    H226318   4.161   1.645   6.910  0.8315  0.2491  1.2855
 1587TIP3   OH226319   0.558   6.161   0.698 -0.2090  0.7645 -0.1989
 1587TIP3    H126320   0.542   6.228   0.765 -0.7356  0.3653  0.0851
 1587TIP3    H226321   0.629   6.108   0.734  0.3836  1.3145 -0.5386
 1588TIP3   OH226322   1.757   5.216   0.198  0.2684  0.0762 -0.1587
 1588TIP3    H126323   1.783   5.305   0.222  0.2282 -0.0323  0.2954
 1588TIP3    H226324   1.742   5.220   0.104 -1.1290  0.9132  0.0723
 1589TIP3   OH226325   4.324   4.806   1.399  0.0756 -0.2363 -0.4290
 1589TIP3    H126326   4.261   4.876   1.382 -1.3637 -0.9394  1.6200
 1589TIP3    H226327   4.319   4.750   1.322 -1.3737  0.0534 -0.5761
 1590TIP3   OH226328   0.609   5.375   1.762  0.0196 -0.2867  0.1653
 1590TIP3    H126329   0.638   5.303   1.707  0.0469  1.2598 -1.9597
 1590TIP3    H226330   0.688   5.404   1.807  0.3994 -0.3627 -0.4477
 1591TIP3   OH226331   3.834   6.200   1.384  0.2907 -0.1354 -0.2187
 1591TIP3    H126332   3.756   6.249   1.411  0.1165  1.0984 -2.6697
 1591TIP3    H226333   3.908   6.252   1.416  0.0899  0.4263 -0.6481
 1592TIP3   OH226334   5.227   5.114   0.328  0.2710 -0.8377  0.5967
 1592TIP3    H126335   5.157   5.064   0.370 -0.2346 -0.1469  0.5883
 1592TIP3    H226336   5.260   5.172   0.396 -0.6270  0.3629  0.0387
 1593TIP3   OH226337   1.888   0.520   7.476 -1.0039 -0.3077  0.2030
 1593TIP3    H126338   1.824   0.462   7.516  0.2068 -1.7217  0.1817
 1593TIP3    H226339   1.854   0.537   7.388 -1.9432 -0.0421  0.6179
 1594TIP3   OH226340   2.917   0.726   0.079 -0.0387 -0.3099 -0.5456
 1594TIP3    H126341   2.951   0.733   0.168 -1.4210 -0.1932  0.0110
 1594TIP3    H226342   2.992   0.700   0.026  0.7517 -0.6486  0.6979
 1595TIP3   OH226343   2.300   1.250   8.076  0.0216  0.2026 -0.4750
 1595TIP3    H126344   2.389   1.267   8.105 -0.4539  1.9514  0.1080
 1595TIP3    H226345   2.256   1.215   8.154 -0.2297  1.0740 -0.2050
 1596TIP3   OH226346   1.553   0.548   8.509  0.1260  0.5708  0.0922
 1596TIP3    H126347   1.624   0.543   8.572 -0.2818  0.8188  0.5799
 1596TIP3    H226348   1.491   0.481   8.537 -0.0567  0.6802 -0.0456
 1597TIP3   OH226349   2.239   4.329   0.403 -0.6321  0.1570 -0.1316
 1597TIP3    H126350   2.244   4.408   0.349 -0.4207  0.5605  0.4642
 1597TIP3    H226351   2.306   4.271   0.367 -1.8909 -0.4456 -1.6395
 1598TIP3   OH226352   0.902   2.079   9.178  0.1944 -0.4592 -0.0594
 1598TIP3    H126353   0.923   1.987   9.191  1.0412 -0.0225  1.9804
 1598TIP3    H226354   0.909   2.118   9.265  0.3371  1.6454 -0.9594
 1599TIP3   OH226355   4.820   4.939   8.089 -0.1538 -0.1831  0.2737
 1599TIP3    H126356   4.852   4.950   8.178  1.0170  0.6354 -0.2134
 1599TIP3    H226357   4.870   4.865   8.054 -1.4141 -1.2346  0.6259
 1600TIP3   OH226358   1.289   2.212   0.506  0.3236  0.2718 -0.0972
 1600TIP3    H126359   1.257   2.287   0.457 -0.2462 -0.9006 -1.5974
 1600TIP3    H226360   1.276   2.237   0.598 -0.2584  1.8136 -0.5593
 1601TIP3   OH226361   6.000   1.017   7.267 -0.2000 -0.2973  0.2752
 1601TIP3    H126362   6.025   1.045   7.178  1.6797 -1.4468  0.3809
 1601TIP3    H226363   5.939   0.946   7.254 -0.6128  0.1173 -0.0803
 1602TIP3   OH226364   0.711   2.773   7.591  0.4604 -0.3201 -0.3073
 1602TIP3    H126365   0.793   2.801   7.632  1.4791 -0.8308 -1.9096
 1602TIP3    H226366   0.729   2.684   7.561 -0.2440  0.0139 -1.7879
 1603TIP3   OH226367   0.781   4.569   8.915 -0.0372 -1.0300  0.0505
 1603TIP3    H126368   0.743   4.508   8.978  0.0288 -0.2951  0.8238
 1603TIP3    H226369   0.719   4.642   8.912  0.3625 -0.6936 -0.1315
 1604TIP3   OH226370   5.431   3.337   1.713 -0.0793 -0.4126  0.0497
 1604TIP3    H126371   5.436   3.323   1.618 -0.7053  1.3788 -0.2859
 1604TIP3    H226372   5.494   3.407   1.730 -0.8091  0.0829  0.7690
 1605TIP3   OH226373   3.471   2.488   8.062  0.7136  0.1835  0.0913
 1605TIP3    H126374   3.535   2.541   8.015  0.6321 -0.6230 -0.9691
 1605TIP3    H226375   3.389   2.500   8.014 -0.2651  2.0649  2.0566
 1606TIP3   OH226376   4.306   1.421   0.295  0.5143  0.2931 -0.0035
 1606TIP3    H126377   4.289   1.410   0.389  0.1316  1.6502  0.1158
 1606TIP3    H226378   4.278   1.339   0.255 -2.2444  0.7766  0.7113
 1607TIP3   OH226379   5.727   3.333   1.419  0.3937 -0.2409  0.2287
 1607TIP3    H126380   5.687   3.403   1.470 -0.5468 -0.5111 -0.1277
 1607TIP3    H226381   5.820   3.355   1.418  0.2409  0.4942  0.9073
 1608TIP3   OH226382   0.424   3.169   8.318 -0.5720  0.5003  0.3880
 1608TIP3    H126383   0.427   3.078   8.289 -0.5711  0.7376 -0.3894
 1608TIP3    H226384   0.488   3.174   8.389 -0.6403 -0.1270  0.4964
 1609TIP3   OH226385   3.896   2.062   8.670 -0.0532 -0.2549  0.1629
 1609TIP3    H126386   3.904   1.997   8.600  1.0799 -0.4681  0.4758
 1609TIP3    H226387   3.865   2.141   8.625  1.3623 -0.1725 -0.7253
 1610TIP3   OH226388   5.734   2.848   8.093  0.2990 -0.9961  0.3549
 1610TIP3    H126389   5.666   2.911   8.118  1.1359  1.2421 -2.4795
 1610TIP3    H226390   5.811   2.875   8.143  0.4201 -0.2843 -0.1991
 1611TIP3   OH226391   0.886   4.960   7.960  0.1521  0.3791 -0.1583
 1611TIP3    H126392   0.904   5.053   7.969 -0.8814  0.8508 -2.3362
 1611TIP3    H226393   0.971   4.918   7.971  0.7408  1.6217  0.2127
 1612TIP3   OH226394   0.901   3.779   7.214  0.4621  0.4649  0.2590
 1612TIP3    H126395   0.950   3.697   7.219 -1.3092 -0.7388 -0.8774
 1612TIP3    H226396   0.938   3.825   7.140  0.2838 -0.1718 -0.2365
 1613TIP3   OH226397   3.180   6.403   2.138 -0.3674  0.1138 -0.3798
 1613TIP3    H126398   3.145   6.471   2.196  0.9809  1.9085 -1.5588
 1613TIP3    H226399   3.275   6.413   2.145 -0.0856 -2.4097  0.2204
 1614TIP3   OH226400   4.487   2.145   0.142 -0.5787  0.2560  0.0205
 1614TIP3    H126401   4.477   2.050   0.154 -2.9446  0.4354  0.0884
 1614TIP3    H226402   4.408   2.171   0.094  0.4898  2.0737 -0.8580
 1615TIP3   OH226403   4.933   1.123   6.477 -0.4438 -0.0120  0.1497
 1615TIP3    H126404   4.876   1.199   6.469  1.5960  1.5851 -0.0644
 1615TIP3    H226405   4.890   1.055   6.425 -1.9235  1.2273 -0.3110
 1616TIP3   OH226406   6.147   5.466   2.392 -0.2702 -0.1248  0.4219
 1616TIP3    H126407   6.116   5.377   2.407 -0.8831  0.0361  0.1334
 1616TIP3    H226408   6.137   5.510   2.476 -1.1308  0.0115  0.2591
 1617TIP3   OH226409   2.641   0.083   2.388  0.1293  0.0656 -0.1713
 1617TIP3    H126410   2.650   0.178   2.403 -1.8034  0.4212 -0.9688
 1617TIP3    H226411   2.605   0.050   2.470 -1.8780  0.5291 -0.8134
 1618TIP3   OH226412   4.173   0.709   1.288  0.3261  0.7243  0.1490
 1618TIP3    H126413   4.127   0.635   1.249  0.0787  0.2735  1.2680
 1618TIP3    H226414   4.143   0.712   1.378  3.0986 -0.1311  1.2002
 1619TIP3   OH226415   2.774   4.046   1.083  0.1854 -0.1664 -0.3580
 1619TIP3    H126416   2.829   3.981   1.126  0.7260  0.0125 -0.7677
 1619TIP3    H226417   2.788   4.032   0.989 -0.1697  0.1321 -0.4596
 1620TIP3   OH226418   6.225   6.592   7.947 -0.1743 -0.4412  0.3404
 1620TIP3    H126419   6.191   6.680   7.960 -0.4293 -0.3420 -0.8682
 1620TIP3    H226420   6.149   6.541   7.920  0.1749 -0.7830 -0.0154
 1621TIP3   OH226421   5.196   2.360   8.095 -0.3452 -0.3342  0.1892
 1621TIP3    H126422   5.163   2.273   8.073 -0.5670 -0.3467  0.5678
 1621TIP3    H226423   5.134   2.394   8.159  0.4676 -0.4384  1.0629
 1622TIP3   OH226424   0.984   3.102   1.773 -0.4379 -0.2102 -0.4871
 1622TIP3    H126425   0.999   3.010   1.795 -2.4233 -0.2651  0.9565
 1622TIP3    H226426   0.943   3.139   1.852  0.2549  1.9119 -1.0454
 1623TIP3   OH226427   6.594   1.718   2.106  0.3320 -0.1928 -0.9028
 1623TIP3    H126428   6.557   1.713   2.018 -1.7776 -0.5115 -0.0490
 1623TIP3    H226429   6.575   1.806   2.136  0.1401 -0.4055 -0.3864
 1624TIP3   OH226430   0.549   0.916   8.583  0.5376  0.0658 -0.3713
 1624TIP3    H126431   0.559   0.874   8.498  0.4388 -1.3246  0.2840
 1624TIP3    H226432   0.478   0.979   8.570  1.0432  0.4422 -1.5018
 1625TIP3   OH226433   6.317   6.172   8.429 -0.2001  0.2795 -0.5708
 1625TIP3    H126434   6.381   6.118   8.475 -0.9350 -0.3008 -0.2191
 1625TIP3    H226435   6.369   6.218   8.362  1.1116  2.0294  1.4989
 1626TIP3   OH226436   4.884   5.896   6.824 -0.7747 -0.3135 -0.3596
 1626TIP3    H126437   4.889   5.838   6.900 -1.0291  0.0900 -0.0280
 1626TIP3    H226438   4.791   5.897   6.801 -0.4067 -2.3380 -2.1899
 1627TIP3   OH226439   4.991   0.582   0.656  0.7205  0.8807  0.5152
 1627TIP3    H126440   4.962   0.610   0.743 -0.9884  0.2830  0.1630
 1627TIP3    H226441   4.911   0.573   0.605  1.6602  0.8227 -1.0267
 1628TIP3   OH226442   3.656   5.095   8.180 -0.5188 -0.5568 -0.3544
 1628TIP3    H126443   3.623   5.171   8.228 -1.4616 -0.8804 -0.4630
 1628TIP3    H226444   3.708   5.131   8.109  2.0574 -0.0561  1.6251
 1629TIP3   OH226445   6.235   0.897   1.308 -0.1325 -0.2153  0.2730
 1629TIP3    H126446   6.145   0.873   1.330 -0.6503  0.8603 -0.5901
 1629TIP3    H226447   6.253   0.974   1.362 -0.0445  0.1033 -0.2066
 1630TIP3   OH226448   2.752   4.009   1.510 -0.0259  0.8173 -0.6201
 1630TIP3    H126449   2.794   3.963   1.583  0.4878  1.8793 -0.2301
 1630TIP3    H226450   2.807   4.086   1.495 -1.0752  1.5051 -1.0168
 1631TIP3   OH226451   5.077   5.522   2.358  0.1773 -0.3312  0.3500
 1631TIP3    H126452   5.159   5.564   2.334  0.1717  1.4004  2.9798
 1631TIP3    H226453   5.081   5.513   2.454 -2.2631 -1.1253  0.4630
 1632TIP3   OH226454   1.989   4.468   7.617 -0.0096 -0.0820  0.5786
 1632TIP3    H126455   2.028   4.393   7.572  0.8656 -0.0147  1.1863
 1632TIP3    H226456   1.907   4.484   7.571  0.7776 -0.1031 -0.8880
 1633TIP3   OH226457   4.620   0.876   2.339  0.0815 -0.1521 -0.0011
 1633TIP3    H126458   4.672   0.834   2.271 -0.8063 -1.3211  0.0000
 1633TIP3    H226459   4.673   0.868   2.418  1.1264  1.2344 -0.5186
 1634TIP3   OH226460   3.896   1.375   1.136 -0.4078  0.0536  0.7522
 1634TIP3    H126461   3.819   1.393   1.190 -1.1594  0.0267 -0.2899
 1634TIP3    H226462   3.862   1.366   1.047  1.1500  3.6023 -0.3983
 1635TIP3   OH226463   3.423   1.392   2.149  0.2288  0.0424  0.4060
 1635TIP3    H126464   3.487   1.463   2.158  1.1069 -0.1304 -2.9991
 1635TIP3    H226465   3.347   1.433   2.108 -0.8478 -0.2758  2.0239
 1636TIP3   OH226466   6.428   2.462   1.044  0.0343  0.2626 -0.4567
 1636TIP3    H126467   6.401   2.377   1.080 -0.9048 -0.0584 -1.8435
 1636TIP3    H226468   6.431   2.520   1.120  0.7669 -1.0102  0.5387
 1637TIP3   OH226469   0.913   5.254   1.171 -0.4542  0.4668 -0.0654
 1637TIP3    H126470   0.910   5.249   1.267 -1.6478  1.3174 -0.0310
 1637TIP3    H226471   0.986   5.197   1.146  0.3244  0.7827  1.3844
 1638TIP3   OH226472   0.684   3.649   7.737 -0.0773 -0.4570 -0.0354
 1638TIP3    H126473   0.772   3.613   7.752  0.5685  1.4611  1.0751
 1638TIP3    H226474   0.628   3.571   7.729  1.3347 -1.7293  1.6137
 1639TIP3   OH226475   1.925   5.226   2.135  0.2825  0.2345 -0.1443
 1639TIP3    H126476   1.882   5.271   2.063  0.6763  0.7100 -0.0880
 1639TIP3    H226477   1.877   5.144   2.145  2.1402 -1.3710 -3.0500
 1640TIP3   OH226478   2.048   2.446   1.516  0.1140  0.5529  0.6807
 1640TIP3    H126479   2.118   2.393   1.476 -1.4891 -1.7119  0.6946
 1640TIP3    H226480   2.022   2.507   1.448 -0.2561 -0.9607 -0.5753
 1641TIP3   OH226481   5.813   0.982   9.074 -0.0907  0.2482  0.1819
 1641TIP3    H126482   5.797   1.048   9.007  0.0289 -0.8157 -0.9228
 1641TIP3    H226483   5.858   0.911   9.028 -0.2776 -0.6411  1.3237
 1642TIP3   OH226484   2.427   4.950   8.005 -0.2073 -0.0212  0.1454
 1642TIP3    H126485   2.484   4.897   7.949  0.5574 -1.5673  2.2864
 1642TIP3    H226486   2.484   5.018   8.040 -0.1536 -0.3689  0.7375
 1643TIP3   OH226487   3.707   2.186   0.716 -0.3643 -0.3116  0.0408
 1643TIP3    H126488   3.612   2.198   0.722 -0.2177  0.8171  0.3345
 1643TIP3    H226489   3.722   2.096   0.747 -1.2942 -0.3606  0.3877
 1644TIP3   OH226490   5.872   5.013   1.575  0.1780 -0.0426 -0.0349
 1644TIP3    H126491   5.818   4.968   1.510  0.1880  0.1709 -0.1912
 1644TIP3    H226492   5.885   5.100   1.539 -1.1353  0.6048  0.9717
 1645TIP3   OH226493   2.075   3.146   8.155 -0.2433  0.4479 -0.1437
 1645TIP3    H126494   2.163   3.165   8.186 -0.9746  2.4423  0.8299
 1645TIP3    H226495   2.082   3.146   8.059  1.1259 -1.2336 -0.0926
 1646TIP3   OH226496   5.128   4.805   1.839 -0.0899 -0.0020  0.2588
 1646TIP3    H126497   5.166   4.758   1.913  1.5939  0.9902  0.0638
 1646TIP3    H226498   5.035   4.814   1.862  0.0147 -1.3966  1.3373
 1647TIP3   OH226499   0.656   3.562   9.173  0.6217 -0.1931  0.0520
 1647TIP3    H126500   0.591   3.536   9.238  0.0088  0.6557 -0.1978
 1647TIP3    H226501   0.719   3.490   9.171 -0.4712 -1.1825  0.0946
 1648TIP3   OH226502   4.949   1.354   7.888 -0.0615  0.0416  0.1720
 1648TIP3    H126503   4.900   1.313   7.960 -0.5680  0.1209 -0.1240
 1648TIP3    H226504   4.884   1.406   7.842  0.3096  0.1561 -0.2216
 1649TIP3   OH226505   0.348   0.008   8.626 -0.0436  0.0408  0.0328
 1649TIP3    H126506   0.257  -0.007   8.649  0.0073 -0.3223  0.0021
 1649TIP3    H226507   0.390  -0.078   8.635  0.0196 -0.0739 -1.2004
 1650TIP3   OH226508   4.934   3.356   6.312 -0.4051 -0.0381 -0.0076
 1650TIP3    H126509   5.015   3.308   6.327 -1.0156 -0.7084  1.3301
 1650TIP3    H226510   4.932   3.422   6.381 -1.1201 -0.2089  0.1419
 1651TIP3   OH226511   3.361   5.005   7.926  0.0264  0.8121  0.0210
 1651TIP3    H126512   3.390   5.077   7.980  0.0460 -0.6528  2.0741
 1651TIP3    H226513   3.434   4.989   7.866  0.4002  1.8665  0.1787
 1652TIP3   OH226514   2.032   1.008   8.150  0.4253  0.3601  0.1432
 1652TIP3    H126515   2.096   1.063   8.195  0.3932  0.4333  0.1001
 1652TIP3    H226516   2.036   1.036   8.059  0.0772  0.6160  0.2032
 1653TIP3   OH226517   4.470   1.834   7.812  0.2740  0.4262  0.1385
 1653TIP3    H126518   4.392   1.803   7.859  0.4568  0.0708  0.2143
 1653TIP3    H226519   4.537   1.842   7.880  0.1499  1.2944  0.1700
 1654TIP3   OH226520   4.184   5.676   7.435 -0.5805 -0.3932  0.4895
 1654TIP3    H126521   4.199   5.621   7.359  1.4783 -0.4339  0.8464
 1654TIP3    H226522   4.151   5.616   7.502 -1.5658 -0.5199 -0.0979
 1655TIP3   OH226523   5.230   2.693   7.868  0.0042 -0.5231  0.3614
 1655TIP3    H126524   5.293   2.725   7.803  0.0138 -0.7320  0.2688
 1655TIP3    H226525   5.246   2.749   7.945 -1.3085  1.0119 -0.4246
 1656TIP3   OH226526   3.899   5.345   1.082  0.2929  0.4065  0.2227
 1656TIP3    H126527   3.863   5.432   1.062 -0.9821 -0.1078  0.1936
 1656TIP3    H226528   3.858   5.321   1.165  1.8099  0.4606  1.0052
 1657TIP3   OH226529   2.114   5.266   2.407  0.0535 -0.3042 -0.1968
 1657TIP3    H126530   2.099   5.345   2.458 -0.1733  0.9001 -2.0640
 1657TIP3    H226531   2.068   5.197   2.456  0.0339  0.7323  1.3129
 1658TIP3   OH226532   5.946   0.986   1.018  0.2325  0.1596 -0.1333
 1658TIP3    H126533   5.990   0.941   0.945  2.1028 -1.7636  1.9915
 1658TIP3    H226534   6.015   1.039   1.058 -0.2795 -0.1639  1.2238
 1659TIP3   OH226535   2.556   5.891   0.418  0.4106  0.0688  0.7990
 1659TIP3    H126536   2.572   5.979   0.381  0.9638  0.5077  2.0483
 1659TIP3    H226537   2.600   5.892   0.502 -0.1716 -1.1950  1.1359
 1660TIP3   OH226538   1.546   2.266   8.222  0.0156  0.5464  0.0064
 1660TIP3    H126539   1.574   2.189   8.173  0.1138  1.1331 -0.8842
 1660TIP3    H226540   1.628   2.308   8.250  0.0019  0.9718 -0.5580
 1661TIP3   OH226541   3.406   0.370   0.830 -0.3537 -0.7621  0.4600
 1661TIP3    H126542   3.360   0.364   0.746  0.7147 -1.2140 -0.1070
 1661TIP3    H226543   3.379   0.455   0.866 -2.5866 -1.5147  0.7346
 1662TIP3   OH226544   5.294   4.556   0.666  0.0359 -0.0536 -0.4531
 1662TIP3    H126545   5.354   4.481   0.668 -1.2962 -1.2381 -1.9030
 1662TIP3    H226546   5.298   4.592   0.755  0.2608 -2.2412  0.4944
 1663TIP3   OH226547   4.190   5.813   2.013 -0.1846 -0.2115  0.4610
 1663TIP3    H126548   4.284   5.822   2.001 -0.0245  0.5615  1.9600
 1663TIP3    H226549   4.151   5.872   1.948  0.3662 -0.4002 -0.0444
 1664TIP3   OH226550   6.009   2.064   7.579 -0.1453  0.0816  0.1972
 1664TIP3    H126551   5.944   2.068   7.509  0.2188  0.1948 -0.1337
 1664TIP3    H226552   6.090   2.038   7.536  0.5798  2.1042  0.2110
 1665TIP3   OH226553   4.784   0.788   6.901 -0.0866 -0.5642 -0.1448
 1665TIP3    H126554   4.862   0.740   6.929 -0.2942 -0.0025  1.5418
 1665TIP3    H226555   4.817   0.868   6.861  0.2091 -0.5564  0.1180
 1666TIP3   OH226556   2.079   2.912   0.522  0.2832  0.2751 -0.1204
 1666TIP3    H126557   2.025   2.845   0.479 -0.5078  2.1511 -2.2492
 1666TIP3    H226558   2.162   2.909   0.475 -0.3749  1.9272 -1.4948
 1667TIP3   OH226559   2.835   1.466   8.105  0.3651  0.1453 -0.4171
 1667TIP3    H126560   2.847   1.411   8.028 -0.9712  0.8555 -1.1599
 1667TIP3    H226561   2.747   1.502   8.096  0.4425  0.7953  1.0909
 1668TIP3   OH226562   5.155   1.467   7.536  0.4734 -0.0632 -0.0554
 1668TIP3    H126563   5.099   1.540   7.510  0.3414 -0.3757 -0.6681
 1668TIP3    H226564   5.230   1.472   7.477  0.2337 -0.6997 -0.4361
 1669TIP3   OH226565   2.000   3.167   0.610  0.1039  0.1077 -0.6694
 1669TIP3    H126566   1.952   3.179   0.528  3.7281  0.2837 -2.9468
 1669TIP3    H226567   2.033   3.077   0.605  0.8773  0.3209  0.3207
 1670TIP3   OH226568   5.217   3.324   9.080  0.0534  0.4941 -0.0679
 1670TIP3    H126569   5.245   3.261   9.014 -1.7366  1.4240 -1.8059
 1670TIP3    H226570   5.292   3.330   9.140  1.5474 -0.7881 -1.6790
 1671TIP3   OH226571   0.233   3.626   7.269  0.8198  0.3777 -0.2049
 1671TIP3    H126572   0.276   3.557   7.219  1.0741  1.5139 -1.6375
 1671TIP3    H226573   0.194   3.683   7.202 -0.0783  1.1793  0.9542
 1672TIP3   OH226574   1.557   4.674   1.401 -0.0342 -0.5217  0.0754
 1672TIP3    H126575   1.562   4.646   1.309 -2.2365 -1.3271  0.1318
 1672TIP3    H226576   1.585   4.765   1.400 -1.2210 -0.1205 -1.6540
 1673TIP3   OH226577   2.333   4.812   1.720 -0.0489 -0.0003 -0.9547
 1673TIP3    H126578   2.388   4.736   1.741 -0.9669 -0.7366 -1.1068
 1673TIP3    H226579   2.374   4.850   1.642  1.4640  0.7748  0.1734
 1674TIP3   OH226580   1.799   2.963   1.400  0.2074  0.1499 -0.1859
 1674TIP3    H126581   1.762   2.880   1.430 -0.5394  0.5044 -0.0904
 1674TIP3    H226582   1.802   2.954   1.304  0.9563 -0.3166 -0.1240
 1675TIP3   OH226583   2.268   0.110   1.645 -0.3849  0.0134  0.2927
 1675TIP3    H126584   2.191   0.163   1.624 -0.9741 -0.4538  1.2458
 1675TIP3    H226585   2.322   0.167   1.699  0.1650  0.4912 -0.7200
 1676TIP3   OH226586   5.049   2.168   8.668  0.0321  0.1850 -0.0982
 1676TIP3    H126587   5.142   2.148   8.660  0.2238  0.0829  1.8482
 1676TIP3    H226588   5.046   2.241   8.730 -1.0928  1.5000 -1.6164
 1677TIP3   OH226589   4.914   2.606   8.947  0.9611  0.1083 -0.2629
 1677TIP3    H126590   4.983   2.539   8.948  2.3763  1.3532  3.1333
 1677TIP3    H226591   4.865   2.591   9.028 -1.2074  0.8158 -1.3802
 1678TIP3   OH226592   3.405   1.269   0.157 -0.1928 -0.2129  0.0459
 1678TIP3    H126593   3.465   1.234   0.090  0.3280 -0.0173  0.4008
 1678TIP3    H226594   3.345   1.325   0.109 -1.4776 -2.0952 -0.6481
 1679TIP3   OH226595   3.501   2.762   8.980 -0.5946 -0.6649  0.0030
 1679TIP3    H126596   3.530   2.688   8.927  1.2919 -1.2899  1.7872
 1679TIP3    H226597   3.486   2.725   9.067 -2.5397  0.5281  0.2419
 1680TIP3   OH226598   4.910   0.283   0.989  0.0610  0.2461  0.5160
 1680TIP3    H126599   4.822   0.273   0.951  0.6095 -2.6609 -0.2359
 1680TIP3    H226600   4.900   0.253   1.079  0.6024 -2.2083 -0.1596
 1681TIP3   OH226601   0.510   1.417   7.396 -0.1021  0.4828  0.2478
 1681TIP3    H126602   0.540   1.445   7.482  1.5077  0.7384 -0.3715
 1681TIP3    H226603   0.558   1.472   7.334  0.7125 -1.4146 -0.8959
 1682TIP3   OH226604   2.382   4.788   2.082  0.4547 -0.0544  0.2761
 1682TIP3    H126605   2.363   4.716   2.022 -0.8473  0.4895  0.0075
 1682TIP3    H226606   2.415   4.858   2.025 -0.1653  0.2358  0.2651
 1683TIP3   OH226607   3.908   4.927   7.462 -0.9096 -0.4446  0.9178
 1683TIP3    H126608   3.979   4.969   7.512 -1.0978  1.8423 -0.5753
 1683TIP3    H226609   3.951   4.862   7.408  0.0365  0.6908  0.2670
 1684TIP3   OH226610   1.430   0.767   1.113  0.2032 -0.1981  0.0610
 1684TIP3    H126611   1.434   0.675   1.139 -1.6532 -0.3147  0.0990
 1684TIP3    H226612   1.411   0.765   1.019  0.1064  0.1385  0.0704
 1685TIP3   OH226613   0.597   0.981   1.003 -0.5903 -0.8031 -0.0044
 1685TIP3    H126614   0.642   1.065   1.016  0.4406 -1.2414 -0.6606
 1685TIP3    H226615   0.506   1.000   1.026 -1.2460  1.5539 -3.5401
 1686TIP3   OH226616   2.763   3.861   8.536  0.1248 -0.5350 -0.7514
 1686TIP3    H126617   2.832   3.800   8.563 -0.8396 -0.4223  2.4273
 1686TIP3    H226618   2.779   3.940   8.589 -1.6996 -0.0495 -0.8504
 1687TIP3   OH226619   5.242   4.327   2.150 -0.4274  0.5595 -0.3300
 1687TIP3    H126620   5.199   4.241   2.155 -0.5492  0.5944 -0.7422
 1687TIP3    H226621   5.169   4.390   2.146 -0.3964  0.8447  1.9480
 1688TIP3   OH226622   3.539   1.454   8.744  0.0390 -0.5715 -0.0059
 1688TIP3    H126623   3.599   1.396   8.791  0.2685  1.2851  2.1622
 1688TIP3    H226624   3.547   1.538   8.788 -0.4974  1.1026 -2.8213
 1689TIP3   OH226625   2.230   6.270   7.521 -0.2782  0.1818  0.1689
 1689TIP3    H126626   2.139   6.243   7.532 -0.2557  0.3593  0.8459
 1689TIP3    H226627   2.258   6.228   7.439 -1.2025  0.8024 -0.4742
 1690TIP3   OH226628   5.856   5.268   0.820 -0.2338 -0.6732  0.0143
 1690TIP3    H126629   5.816   5.209   0.756 -0.1427 -0.2095 -0.4795
 1690TIP3    H226630   5.795   5.342   0.826  0.9013  0.4420 -1.3692
 1691TIP3   OH226631   3.171   0.622   1.150 -0.1865 -0.0133 -0.1202
 1691TIP3    H126632   3.256   0.640   1.109 -0.3981  1.1605 -0.0853
 1691TIP3    H226633   3.149   0.534   1.121  0.1164  0.4231 -1.7836
 1692TIP3   OH226634   2.478   0.367   2.009  0.4275  0.2407  0.2086
 1692TIP3    H126635   2.477   0.409   2.095  0.5022  1.1940 -0.2523
 1692TIP3    H226636   2.522   0.283   2.024 -2.2852 -1.0609  1.7516
 1693TIP3   OH226637   1.268   1.959   1.775 -0.1397  0.2995  0.3108
 1693TIP3    H126638   1.322   1.902   1.720 -2.7803  0.4407 -2.7135
 1693TIP3    H226639   1.210   1.898   1.822  0.2563  0.3054  0.8124
 1694TIP3   OH226640   2.420   3.199   1.954  0.0681 -0.3955 -0.3164
 1694TIP3    H126641   2.369   3.200   2.035  0.9155  0.4087  0.2318
 1694TIP3    H226642   2.355   3.184   1.885 -0.7894 -0.2194  0.4285
 1695TIP3   OH226643   1.735   1.420   9.218 -0.6955  0.3334  0.0877
 1695TIP3    H126644   1.671   1.355   9.245  0.0540  0.0759  1.3028
 1695TIP3    H226645   1.702   1.452   9.133 -0.7273 -2.0621 -0.8797
 1696TIP3   OH226646   4.353   2.792   7.196  0.3751 -0.3571  0.4120
 1696TIP3    H126647   4.352   2.842   7.114  1.9090  1.4944  1.4403
 1696TIP3    H226648   4.274   2.821   7.242  0.0795 -0.5884  0.0555
 1697TIP3   OH226649   3.577   2.685   0.869 -0.2390 -0.8921  0.1144
 1697TIP3    H126650   3.634   2.674   0.792 -0.7208  0.5374 -0.4781
 1697TIP3    H226651   3.610   2.622   0.932  2.4835  0.3398  0.0638
 1698TIP3   OH226652   0.733   0.588   8.707 -0.2845  0.2854  0.2784
 1698TIP3    H126653   0.750   0.597   8.801  1.1990  0.7007 -0.0021
 1698TIP3    H226654   0.639   0.572   8.701 -0.0977 -2.1756  2.0126
 1699TIP3   OH226655   5.872   0.430   0.471  0.1778 -0.1854 -0.2260
 1699TIP3    H126656   5.904   0.490   0.403 -0.4869  1.2445  0.6820
 1699TIP3    H226657   5.863   0.346   0.426  0.1989  0.6139 -1.7923
 1700TIP3   OH226658   4.219   2.668   7.498 -0.4603 -0.1706  0.3919
 1700TIP3    H126659   4.179   2.670   7.411 -1.3863 -1.5729  0.7480
 1700TIP3    H226660   4.183   2.745   7.542  2.0308  2.1075 -1.2270
 1701TIP3   OH226661   1.492   5.438   2.652  0.0094  0.1442  0.1864
 1701TIP3    H126662   1.556   5.509   2.646 -0.6209  0.7546  0.5293
 1701TIP3    H226663   1.446   5.454   2.734  0.0541 -0.8399  0.4164
 1702TIP3   OH226664   2.653   4.332   1.796 -0.0982 -0.2609  0.1651
 1702TIP3    H126665   2.679   4.404   1.853  1.6467 -0.0797 -0.7845
 1702TIP3    H226666   2.685   4.357   1.709 -0.8394 -1.4769 -0.4894
 1703TIP3   OH226667   4.803   4.106   7.552  0.5525  0.1543 -0.1054
 1703TIP3    H126668   4.784   4.092   7.459 -0.0863 -0.4277  0.1056
 1703TIP3    H226669   4.728   4.156   7.585  1.5455  1.8299 -0.2460
 1704TIP3   OH226670   2.687   3.070   2.176  0.4088 -0.2183 -0.4105
 1704TIP3    H126671   2.771   3.051   2.217  0.9184 -0.1476 -1.3746
 1704TIP3    H226672   2.625   3.076   2.248  1.3844  0.5741  0.4024
 1705TIP3   OH226673   5.408   4.329   0.511  0.4420 -0.0370  0.1427
 1705TIP3    H126674   5.351   4.314   0.587 -0.2856  0.4589 -0.2898
 1705TIP3    H226675   5.491   4.288   0.534 -0.0440 -0.6320  0.8585
 1706TIP3   OH226676   1.009   4.386   1.365  0.0501  0.1018 -0.1769
 1706TIP3    H126677   0.941   4.331   1.327  0.4074 -0.5306  0.0793
 1706TIP3    H226678   1.006   4.367   1.459  0.5754  0.0759 -0.1620
 1707TIP3   OH226679   4.056   4.307   8.980 -0.1685 -0.2824  0.0971
 1707TIP3    H126680   3.995   4.271   9.045 -0.3349 -0.9503 -0.4233
 1707TIP3    H226681   4.143   4.284   9.014 -0.2621 -0.8448 -0.0383
 1708TIP3   OH226682   5.173   1.457   2.040  0.1012 -0.3201 -0.1056
 1708TIP3    H126683   5.144   1.391   2.104  0.1153 -0.0805  0.1506
 1708TIP3    H226684   5.113   1.446   1.966 -1.6752  1.2019  1.0280
 1709TIP3   OH226685   5.540   1.517   0.902  0.4960  0.1940  0.0342
 1709TIP3    H126686   5.597   1.494   0.829  1.2088 -1.4082  1.0555
 1709TIP3    H226687   5.590   1.580   0.953  0.8309 -0.2346  0.2361
 1710TIP3   OH226688   4.230   2.277   8.368  0.0100 -1.1848  0.1207
 1710TIP3    H126689   4.177   2.248   8.294 -0.6966 -2.1705  0.9684
 1710TIP3    H226690   4.262   2.195   8.407  0.5131 -0.6770  0.7885
 1711TIP3   OH226691   0.322   5.857   1.284 -0.1995  0.0744  0.0803
 1711TIP3    H126692   0.399   5.840   1.338 -0.2394 -2.7548 -0.6179
 1711TIP3    H226693   0.259   5.897   1.345  1.4772  1.7315  0.8408
 1712TIP3   OH226694   3.284   0.887   0.828 -0.0604  0.0699 -0.0256
 1712TIP3    H126695   3.333   0.960   0.866  0.6641 -0.4482  0.0515
 1712TIP3    H226696   3.304   0.891   0.735 -0.1722  0.0815 -0.0492
 1713TIP3   OH226697   2.260   0.059   0.662  0.1240 -0.1844  0.2215
 1713TIP3    H126698   2.250   0.137   0.716 -1.4758 -0.9450  1.1241
 1713TIP3    H226699   2.320   0.003   0.712 -0.8290 -0.6099  0.9197
 1714TIP3   OH226700   4.522   5.511   0.396  0.1676  0.0558  0.3357
 1714TIP3    H126701   4.601   5.457   0.404  0.3146  0.1197 -0.4949
 1714TIP3    H226702   4.541   5.590   0.445  0.6776  0.1201  0.0420
 1715TIP3   OH226703   6.596   5.842   0.099  0.6571 -0.1747  0.1254
 1715TIP3    H126704   6.681   5.852   0.141  1.7301 -0.5152 -1.8452
 1715TIP3    H226705   6.557   5.930   0.103  1.9029  0.4274 -0.5499
 1716TIP3   OH226706   3.809   4.874   8.263 -0.8049  0.1177 -0.3090
 1716TIP3    H126707   3.873   4.938   8.292  0.0115 -1.0084  0.4314
 1716TIP3    H226708   3.733   4.927   8.236 -0.0320  1.3975 -0.0588
 1717TIP3   OH226709   4.471   6.569   2.145 -0.0243 -0.1974  0.2577
 1717TIP3    H126710   4.445   6.645   2.094  1.6754 -1.8389 -3.4566
 1717TIP3    H226711   4.565   6.560   2.127 -0.3265 -3.5982 -0.2218
 1718TIP3   OH226712   6.168   3.154   2.272  0.2248  0.0799  0.2943
 1718TIP3    H126713   6.090   3.202   2.298 -0.6625 -0.4063 -1.3194
 1718TIP3    H226714   6.140   3.101   2.197  2.1833  0.1697 -0.5621
 1719TIP3   OH226715   6.224   3.071   0.404 -0.0194 -0.5206 -0.5821
 1719TIP3    H126716   6.146   3.107   0.446  1.2080  0.8241  0.6564
 1719TIP3    H226717   6.239   3.127   0.329  0.7828  0.4123  0.2445
 1720TIP3   OH226718   5.316   3.962   2.166 -0.6736  0.0980  0.4947
 1720TIP3    H126719   5.313   3.876   2.125  0.1059  0.9396 -1.4658
 1720TIP3    H226720   5.389   3.957   2.227 -1.3918 -0.9639  1.3044
 1721TIP3   OH226721   1.880   3.636   6.834 -0.0590  0.7958 -0.3087
 1721TIP3    H126722   1.827   3.557   6.839  0.0721  0.6432 -1.2027
 1721TIP3    H226723   1.827   3.703   6.878 -0.1580  0.2196  0.4793
 1722TIP3   OH226724   5.145   4.446   8.674 -0.3075 -0.4875  0.3605
 1722TIP3    H126725   5.227   4.414   8.638 -0.0285  0.1950  0.3858
 1722TIP3    H226726   5.079   4.384   8.643  0.1257 -0.6783 -0.1813
 1723TIP3   OH226727   5.949   1.129   1.544  0.9134  0.3297  0.5293
 1723TIP3    H126728   5.880   1.084   1.494  0.3842 -1.0028  2.3261
 1723TIP3    H226729   5.923   1.221   1.543 -0.0249  0.0749 -0.1648
 1724TIP3   OH226730   5.284   4.175   7.763 -0.4664 -0.0580 -0.5835
 1724TIP3    H126731   5.285   4.195   7.856 -0.7688  1.0803 -0.8152
 1724TIP3    H226732   5.353   4.109   7.752 -0.4677 -0.2497  0.4426
 1725TIP3   OH226733   5.589   4.936   9.304 -0.0188  0.1547  0.2808
 1725TIP3    H126734   5.547   4.907   9.223 -1.4586 -0.8123  1.3234
 1725TIP3    H226735   5.544   5.017   9.326 -0.3241 -0.1111  0.6362
 1726TIP3   OH226736   3.495   3.341   1.492  0.1362 -0.2164 -0.8018
 1726TIP3    H126737   3.450   3.306   1.569  2.6031 -1.3994  0.2251
 1726TIP3    H226738   3.467   3.432   1.487 -1.8645 -0.7150  0.0680
 1727TIP3   OH226739   1.113   4.820   8.439  0.2539 -0.2461  0.2700
 1727TIP3    H126740   1.143   4.832   8.529  0.1789  0.0778  0.2513
 1727TIP3    H226741   1.017   4.821   8.445  0.2448  0.5307  0.0878
 1728TIP3   OH226742   4.486   2.565   8.224 -0.0657 -0.3766  0.0705
 1728TIP3    H126743   4.578   2.585   8.205  0.0406 -1.7347 -1.0601
 1728TIP3    H226744   4.489   2.511   8.303  0.2791 -1.6412 -0.7716
 1729TIP3   OH226745   3.009   5.205   1.117 -0.5533 -0.7901  0.2553
 1729TIP3    H126746   3.070   5.250   1.060 -2.1339 -0.2146 -1.0729
 1729TIP3    H226747   3.053   5.202   1.203  0.7792  0.6882 -0.3286
 1730TIP3   OH226748   3.957   3.579   7.561  0.0141 -1.0869  0.3961
 1730TIP3    H126749   3.983   3.628   7.482  1.0663 -0.3479  1.1583
 1730TIP3    H226750   3.996   3.629   7.633 -3.2667 -0.1205  1.6738
 1731TIP3   OH226751   2.948   5.276   8.593  0.6281 -0.9977  0.3417
 1731TIP3    H126752   2.870   5.225   8.614  0.5975 -0.6975  0.9719
 1731TIP3    H226753   2.915   5.351   8.544  0.7425 -1.9153 -1.2054
 1732TIP3   OH226754   4.110   3.093   8.228  0.1364  0.4508 -0.7781
 1732TIP3    H126755   4.027   3.059   8.196 -0.6723  0.9728  0.6643
 1732TIP3    H226756   4.177   3.040   8.184 -1.0066 -1.3724 -0.4186
 1733TIP3   OH226757   3.078   2.365   6.961 -0.0687  0.2837 -0.0056
 1733TIP3    H126758   3.003   2.410   6.923  0.6376  1.1949 -0.3491
 1733TIP3    H226759   3.151   2.385   6.903  0.6752  0.2920  0.8986
 1734TIP3   OH226760   5.052   1.110   0.981 -0.5827  0.2534 -0.2062
 1734TIP3    H126761   5.030   1.017   0.969 -1.2967  0.5429 -1.2715
 1734TIP3    H226762   5.147   1.110   0.994 -0.6740 -0.6873  0.5596
 1735TIP3   OH226763   0.811   1.624   0.451 -0.2549  0.2917 -0.2706
 1735TIP3    H126764   0.753   1.631   0.375  0.6331 -1.6172 -1.1880
 1735TIP3    H226765   0.848   1.536   0.446  2.9562  1.4599  0.1081
 1736TIP3   OH226766   2.809   4.616   7.822  0.0497 -0.0302  0.2016
 1736TIP3    H126767   2.835   4.529   7.793  0.3201 -0.1522  0.7958
 1736TIP3    H226768   2.782   4.604   7.913  0.8723  0.6407  0.5449
 1737TIP3   OH226769   4.026   6.364   2.266 -0.4002  0.6649 -0.3595
 1737TIP3    H126770   4.023   6.324   2.353 -0.7481 -1.1634 -1.1597
 1737TIP3    H226771   4.061   6.295   2.209 -1.2665  1.4133 -1.8682
 1738TIP3   OH226772   3.316   3.808   9.291 -0.9554 -0.1730  0.1746
 1738TIP3    H126773   3.385   3.777   9.232 -1.3248 -0.3702 -0.1610
 1738TIP3    H226774   3.363   3.847   9.365 -0.4850  0.0393 -0.2288
 1739TIP3   OH226775   3.725   0.970   7.639  0.2157 -0.1956  0.4208
 1739TIP3    H126776   3.663   0.957   7.568  2.8591  0.7690 -2.2923
 1739TIP3    H226777   3.699   1.054   7.678 -0.9618 -0.4740  0.2695
 1740TIP3   OH226778   4.229   3.461   2.004 -0.1113 -0.2924  0.2358
 1740TIP3    H126779   4.316   3.477   1.967  0.7768 -2.4508  1.2538
 1740TIP3    H226780   4.194   3.549   2.020  2.0949  0.6402  0.3012
 1741TIP3   OH226781   5.175   2.535   8.673 -0.7946 -0.3490  0.0430
 1741TIP3    H126782   5.147   2.466   8.732 -0.6702 -0.3119  0.1464
 1741TIP3    H226783   5.170   2.496   8.586  2.8347 -1.7937  0.2997
 1742TIP3   OH226784   4.135   6.226   0.323  0.4236  0.4356  0.0332
 1742TIP3    H126785   4.200   6.203   0.389  1.4987 -0.6605 -1.3372
 1742TIP3    H226786   4.160   6.175   0.246 -1.6275  0.5632 -0.7848
 1743TIP3   OH226787   3.370   3.528   7.296 -0.2787 -0.5789 -0.0752
 1743TIP3    H126788   3.365   3.621   7.273 -2.1560 -0.8125 -0.7174
 1743TIP3    H226789   3.376   3.483   7.212  0.0645 -1.0786  0.2123
 1744TIP3   OH226790   3.680   0.684   9.248  0.0495  0.4611  0.7910
 1744TIP3    H126791   3.740   0.613   9.227 -1.2454  0.0080 -1.8503
 1744TIP3    H226792   3.688   0.745   9.175 -1.1351  1.4716  1.4605
 1745TIP3   OH226793   1.083   2.507   1.955 -0.0226  0.3063  0.7761
 1745TIP3    H126794   1.171   2.535   1.981  0.1808 -1.2345  1.9105
 1745TIP3    H226795   1.094   2.476   1.865  0.7118 -0.2746  1.0535
 1746TIP3   OH226796   5.298   2.773   1.378  0.4044  0.1313 -0.4632
 1746TIP3    H126797   5.345   2.773   1.295  0.2631  1.3348 -0.5656
 1746TIP3    H226798   5.269   2.683   1.389 -0.2531  0.1041 -2.1165
 1747TIP3   OH226799   0.410   2.268   8.638  0.1783  0.7947  0.3810
 1747TIP3    H126800   0.367   2.329   8.578  0.7278  0.5654 -0.2542
 1747TIP3    H226801   0.450   2.324   8.704 -0.9019  1.0223  0.8690
 1748TIP3   OH226802   3.926   1.626   1.652  0.8496 -0.1334 -0.1658
 1748TIP3    H126803   3.838   1.595   1.671 -0.0452  1.5297 -1.3693
 1748TIP3    H226804   3.982   1.574   1.709 -1.0152 -0.3241  1.6048
 1749TIP3   OH226805   5.571   1.916   8.846  0.0386 -0.5184  0.2203
 1749TIP3    H126806   5.665   1.912   8.864 -0.0063  3.0652  2.2019
 1749TIP3    H226807   5.564   1.964   8.764 -0.1062 -1.7262 -0.4994
 1750TIP3   OH226808   1.895   4.846   7.113 -0.0230  0.4985 -0.1991
 1750TIP3    H126809   1.906   4.811   7.201  3.3239 -0.6492 -0.9116
 1750TIP3    H226810   1.917   4.939   7.121 -1.4912  0.8165  0.4227
 1751TIP3   OH226811   1.553   5.882   7.696 -0.4954  0.0795 -0.1882
 1751TIP3    H126812   1.475   5.830   7.674 -0.9062  0.7538 -0.3581
 1751TIP3    H226813   1.624   5.840   7.649 -1.1292  0.6971 -1.7444
 1752TIP3   OH226814   4.176   6.174   1.174  0.7334  0.5629 -0.7880
 1752TIP3    H126815   4.244   6.107   1.185  0.4587  0.5301  1.1631
 1752TIP3    H226816   4.147   6.164   1.084  1.0930 -1.6086 -0.7296
 1753TIP3   OH226817   4.505   3.901   6.814  0.4233 -0.1603 -0.0211
 1753TIP3    H126818   4.465   3.879   6.898  1.0232 -1.5126 -0.0469
 1753TIP3    H226819   4.577   3.960   6.836  1.2872 -1.3799  0.5931
 1754TIP3   OH226820   2.908   6.202   8.387 -0.3773 -0.0826  0.1985
 1754TIP3    H126821   2.858   6.228   8.310 -0.9505  1.5433  1.0652
 1754TIP3    H226822   2.982   6.262   8.390 -0.0525 -0.4895  0.6160
 1755TIP3   OH226823   3.393   3.252   1.744  0.0642 -0.3474  0.0219
 1755TIP3    H126824   3.458   3.308   1.787 -0.1070  0.2761 -0.5048
 1755TIP3    H226825   3.412   3.164   1.776  0.4505 -0.0173  0.7437
 1756TIP3   OH226826   0.371   2.747   0.637  0.6222 -0.6037  0.8947
 1756TIP3    H126827   0.319   2.671   0.665 -0.1763  0.3826  2.1919
 1756TIP3    H226828   0.319   2.786   0.567  1.1319 -1.3502  0.0865
 1757TIP3   OH226829   2.498   1.833   0.284  0.2948  0.1860 -0.1740
 1757TIP3    H126830   2.500   1.902   0.217  0.0962 -0.5017 -0.9021
 1757TIP3    H226831   2.582   1.841   0.329  1.2720 -0.5333 -1.7599
 1758TIP3   OH226832   3.294   2.847   7.051 -0.4004 -0.0355 -0.5795
 1758TIP3    H126833   3.238   2.803   6.987  0.0267  0.4889 -1.3180
 1758TIP3    H226834   3.382   2.814   7.034  0.1783  2.1070 -2.0907
 1759TIP3   OH226835   2.868   5.696   2.748  0.2994 -0.4111 -0.3142
 1759TIP3    H126836   2.807   5.634   2.789  0.3984 -0.6374 -0.5022
 1759TIP3    H226837   2.876   5.665   2.658 -0.0874  0.2116 -0.5675
 1760TIP3   OH226838   0.116   5.566   1.329  0.6724 -0.0564 -0.2372
 1760TIP3    H126839   0.180   5.558   1.258  0.6480  0.1987 -0.2884
 1760TIP3    H226840   0.086   5.656   1.324 -0.6942 -0.5287 -1.0601
 1761TIP3   OH226841   2.838   2.244   0.904 -0.3413  0.2246 -0.0376
 1761TIP3    H126842   2.891   2.225   0.982 -0.6299 -1.2780 -0.1692
 1761TIP3    H226843   2.798   2.329   0.922  1.0478  0.7722  0.6387
 1762TIP3   OH226844   1.373   2.350   8.494 -0.2459  0.1818 -0.4119
 1762TIP3    H126845   1.398   2.264   8.462 -0.4245 -0.1817  0.3944
 1762TIP3    H226846   1.443   2.408   8.463  0.8030 -0.5535  0.4758
 1763TIP3   OH226847   5.838   0.850   2.192 -0.4096  0.4816 -0.1720
 1763TIP3    H126848   5.903   0.782   2.176  0.0969  0.5739  1.4115
 1763TIP3    H226849   5.758   0.802   2.214 -0.5514  0.3930 -0.8424
 1764TIP3   OH226850   2.412   0.647   9.032  0.0295  0.3110  0.7110
 1764TIP3    H126851   2.381   0.737   9.022  0.4469  0.4891  0.9639
 1764TIP3    H226852   2.473   0.634   8.958  0.1197  0.3035  0.7858
 1765TIP3   OH226853   4.845   0.383   9.170 -0.3127 -0.7464 -0.0898
 1765TIP3    H126854   4.810   0.468   9.145 -1.0051 -1.4858 -1.8850
 1765TIP3    H226855   4.812   0.367   9.258 -1.0934  0.3612 -0.1723
 1766TIP3   OH226856   1.606   5.748   2.216  0.5334  0.2841 -0.2885
 1766TIP3    H126857   1.684   5.784   2.172  0.2026  0.4857 -0.7250
 1766TIP3    H226858   1.614   5.779   2.306 -0.1803  2.2414 -0.8419
 1767TIP3   OH226859   5.802   3.470   0.953  0.5721 -0.3389 -0.4748
 1767TIP3    H126860   5.720   3.451   0.908  0.8139 -2.3380 -0.1894
 1767TIP3    H226861   5.868   3.472   0.884  0.6892 -1.6781 -0.4233
 1768TIP3   OH226862   1.634   1.035   0.661 -0.5774  0.1127 -0.6413
 1768TIP3    H126863   1.717   1.031   0.614 -0.5512  0.1929 -0.6007
 1768TIP3    H226864   1.571   0.995   0.601 -0.2572 -1.2395 -0.1358
 1769TIP3   OH226865   4.149   3.084   9.193 -0.4862  0.1171  0.1494
 1769TIP3    H126866   4.134   3.002   9.241  0.8520 -0.1620  0.1293
 1769TIP3    H226867   4.067   3.099   9.147 -1.1169 -0.6705  0.9504
 1770TIP3   OH226868   3.482   1.182   8.553 -0.4079 -0.1154  0.0560
 1770TIP3    H126869   3.416   1.171   8.622 -0.2174 -1.5133  0.0359
 1770TIP3    H226870   3.434   1.175   8.471 -0.7083  1.9876 -0.0122
 1771TIP3   OH226871   1.991   3.352   2.191 -0.6489 -0.1919  0.2958
 1771TIP3    H126872   1.934   3.309   2.126 -0.6870 -0.5354  0.5550
 1771TIP3    H226873   1.932   3.377   2.262 -0.8169  1.2592 -0.3115
 1772TIP3   OH226874   1.184   0.875   7.523 -0.6543 -0.5113  0.1991
 1772TIP3    H126875   1.241   0.881   7.447 -1.1732  1.9279 -0.0771
 1772TIP3    H226876   1.188   0.962   7.563 -1.3369 -1.3735  2.2764
 1773TIP3   OH226877   5.603   6.182   8.464 -0.1638 -0.1937  0.1052
 1773TIP3    H126878   5.583   6.165   8.372  1.2420 -0.9630 -0.0900
 1773TIP3    H226879   5.585   6.275   8.475 -0.5731 -0.1356 -0.8877
 1774TIP3   OH226880   4.121   5.175   1.049 -0.3394 -0.5550 -0.1502
 1774TIP3    H126881   4.202   5.206   1.089 -0.1411  1.6104 -2.0199
 1774TIP3    H226882   4.055   5.238   1.075 -0.2796  0.7041 -2.7383
 1775TIP3   OH226883   6.009   3.962   8.337  0.4539  0.0564 -0.0276
 1775TIP3    H126884   6.035   4.032   8.397  0.7805 -0.9182  1.0083
 1775TIP3    H226885   5.919   3.984   8.310  0.0239  0.1425  1.4147
 1776TIP3   OH226886   1.255   0.437   7.716  0.1973  0.3901 -0.3142
 1776TIP3    H126887   1.202   0.378   7.769  1.9491 -1.3363 -0.3575
 1776TIP3    H226888   1.202   0.455   7.639 -0.6670 -0.5505  0.0360
 1777TIP3   OH226889   3.049   3.464   8.801  0.5925 -0.1368 -0.2577
 1777TIP3    H126890   3.087   3.422   8.724  0.9430  0.4088 -0.3900
 1777TIP3    H226891   3.088   3.419   8.875 -0.4295 -1.2806 -0.3830
 1778TIP3   OH226892   4.700   4.663   8.018  0.0904  0.7718  0.0235
 1778TIP3    H126893   4.789   4.654   7.983  0.0906  1.0608 -0.0562
 1778TIP3    H226894   4.712   4.686   8.110  0.0876 -0.3265  0.3096
 1779TIP3   OH226895   6.164   3.239   9.226  0.1252  0.6712  0.5285
 1779TIP3    H126896   6.088   3.181   9.231 -1.4000  2.5865  0.8826
 1779TIP3    H226897   6.158   3.280   9.140  1.1107  0.4069  0.3244
 1780TIP3   OH226898   2.296   3.020   0.146  0.4221 -0.4209 -0.0568
 1780TIP3    H126899   2.320   2.986   0.232  2.0318 -0.4835 -0.4894
 1780TIP3    H226900   2.345   3.102   0.138  0.6828 -0.6581 -1.1016
 1781TIP3   OH226901   0.882   3.782   2.437 -0.0302 -0.1724 -0.3904
 1781TIP3    H126902   0.962   3.740   2.408  0.1084 -0.4259  0.3324
 1781TIP3    H226903   0.895   3.875   2.418 -0.1728 -0.3886 -1.6157
 1782TIP3   OH226904   5.928   2.574   7.627  0.2254  0.0819 -0.3569
 1782TIP3    H126905   5.938   2.590   7.721 -0.1801 -0.3387 -0.2386
 1782TIP3    H226906   5.968   2.651   7.585 -1.0809  1.0934  0.1864
 1783TIP3   OH226907   2.091   2.576   7.173  0.0695 -0.0792  0.0449
 1783TIP3    H126908   2.045   2.600   7.254  2.2290  1.3938  0.9370
 1783TIP3    H226909   2.043   2.501   7.140 -2.9141  1.3105  0.8869
 1784TIP3   OH226910   3.683   4.719   0.520  0.3983 -0.0639  0.0529
 1784TIP3    H126911   3.775   4.690   0.514 -0.1672 -1.9435 -0.2226
 1784TIP3    H226912   3.643   4.656   0.580 -1.4232 -1.2973 -2.3139
 1785TIP3   OH226913   3.126   3.541   9.233 -0.4514  0.3090  0.0062
 1785TIP3    H126914   3.187   3.528   9.306  1.8705  0.2803 -1.7836
 1785TIP3    H226915   3.136   3.634   9.210 -0.3885  0.1022 -0.8481
 1786TIP3   OH226916   2.070   5.237   1.533  0.2992  0.2576 -0.5616
 1786TIP3    H126917   2.090   5.244   1.440 -0.7526  0.1891 -0.8040
 1786TIP3    H226918   2.121   5.307   1.574  0.9774  0.1183 -1.1452
 1787TIP3   OH226919   4.246   5.519   0.419  0.1516 -0.2823  0.2637
 1787TIP3    H126920   4.220   5.471   0.340 -0.1226 -0.0301  0.1979
 1787TIP3    H226921   4.339   5.501   0.428  0.1303 -0.5200  0.0239
 1788TIP3   OH226922   0.741   4.951   0.449 -0.0359 -1.1850 -0.3985
 1788TIP3    H126923   0.819   4.998   0.478 -0.3696 -0.6365 -0.3606
 1788TIP3    H226924   0.698   5.012   0.389 -1.3469 -0.7668  0.9141
 1789TIP3   OH226925   5.766   4.248   1.544 -0.4306  0.4336 -0.1355
 1789TIP3    H126926   5.808   4.255   1.629  0.7926  0.5397 -0.7212
 1789TIP3    H226927   5.711   4.326   1.537 -0.3201  0.5645  0.4415
 1790TIP3   OH226928   1.825   1.237   2.548  0.3065  0.6923 -0.2043
 1790TIP3    H126929   1.909   1.217   2.506  1.0992 -0.2679  1.7188
 1790TIP3    H226930   1.800   1.323   2.512  1.0517  0.0785 -2.3401
 1791TIP3   OH226931   1.460   2.474   7.905  0.4110 -0.4563  0.1915
 1791TIP3    H126932   1.500   2.511   7.826 -0.0015  0.4321  0.3838
 1791TIP3    H226933   1.498   2.525   7.977  0.1605 -0.7011  0.5013
 1792TIP3   OH226934   5.321   1.404   0.110  0.2268  0.1637  0.5822
 1792TIP3    H126935   5.260   1.445   0.049 -0.0468  0.9238  1.3502
 1792TIP3    H226936   5.389   1.470   0.125  0.5407 -0.1915  0.7380
 1793TIP3   OH226937   1.067   4.395   2.117 -0.0149 -0.1558  0.1196
 1793TIP3    H126938   1.108   4.443   2.190  0.9985  0.4060 -0.7903
 1793TIP3    H226939   1.064   4.304   2.147  0.4801  0.0536  0.8279
 1794TIP3   OH226940   5.578   4.986   8.667 -1.0566 -0.1557 -0.0244
 1794TIP3    H126941   5.575   4.899   8.628 -0.2308  0.2272 -1.0097
 1794TIP3    H226942   5.660   5.024   8.634 -2.1864  1.5936 -0.9998
 1795TIP3   OH226943   1.073   0.985   1.786  0.9066  0.3434  0.3973
 1795TIP3    H126944   1.019   0.983   1.865  1.1334  0.5160  0.5574
 1795TIP3    H226945   1.011   0.976   1.714  0.7587 -0.4730  0.6192
 1796TIP3   OH226946   5.910   5.626   8.087  0.2271 -0.2870 -0.3330
 1796TIP3    H126947   5.922   5.614   8.181  0.9651  0.7236 -0.2884
 1796TIP3    H226948   5.896   5.537   8.054  2.7110 -1.0229  0.3654
 1797TIP3   OH226949   3.087   5.755   2.457  0.1390  0.2206 -0.2318
 1797TIP3    H126950   3.170   5.708   2.464  0.6721  1.1075 -0.4225
 1797TIP3    H226951   3.091   5.820   2.527  0.1156  1.0281 -0.9670
 1798TIP3   OH226952   6.219   2.491   0.062 -0.0762 -0.0169 -0.0852
 1798TIP3    H126953   6.138   2.440   0.069  0.7756 -1.5165 -0.7486
 1798TIP3    H226954   6.283   2.442   0.113  0.1652  1.8019  1.4782
 1799TIP3   OH226955   0.847   4.006   1.391 -0.2205  1.1068 -0.2842
 1799TIP3    H126956   0.816   3.929   1.438 -1.8665  2.3499  0.7806
 1799TIP3    H226957   0.941   4.009   1.409 -0.2616 -0.2313  0.2529
 1800TIP3   OH226958   0.010   5.656   0.731 -0.2712  0.1110 -0.4211
 1800TIP3    H126959   0.078   5.654   0.799  0.1589 -0.6183 -0.8619
 1800TIP3    H226960   0.037   5.727   0.672 -0.2143  0.2108 -0.2766
 1801TIP3   OH226961   1.069   6.132   0.496 -0.0666 -0.4168 -0.1042
 1801TIP3    H126962   1.081   6.049   0.451 -1.8671 -0.9008  0.2070
 1801TIP3    H226963   0.974   6.147   0.493  0.2109  1.5810 -0.0689
 1802TIP3   OH226964   2.741   0.003   9.123 -0.5837 -0.0736 -0.3046
 1802TIP3    H126965   2.677   0.026   9.191  1.1663  2.1022  0.7576
 1802TIP3    H226966   2.774   0.087   9.092  0.6366 -1.0961 -1.9465
 1803TIP3   OH226967   1.721   0.588   0.982 -0.2866 -0.1496  0.0545
 1803TIP3    H126968   1.722   0.630   1.068 -1.0723  0.0886 -0.0490
 1803TIP3    H226969   1.713   0.495   1.001  2.8857 -0.4865  0.3441
 1804TIP3   OH226970   2.891   0.821   2.456  0.3472  0.1299  0.0849
 1804TIP3    H126971   2.878   0.736   2.414  0.0057  0.2740 -0.1154
 1804TIP3    H226972   2.970   0.811   2.508  0.8368 -0.0304 -0.6717
 1805TIP3   OH226973   3.171   0.515   8.659  0.4909 -0.3661  0.2224
 1805TIP3    H126974   3.110   0.443   8.645 -0.0910  0.4299 -1.6268
 1805TIP3    H226975   3.257   0.473   8.663  0.0283 -1.2919  0.7392
 1806TIP3   OH226976   6.369   2.834   1.423 -0.5468  0.2882  0.2425
 1806TIP3    H126977   6.351   2.801   1.512  0.4092  1.0146  0.7284
 1806TIP3    H226978   6.405   2.922   1.437 -0.4183  0.4278 -0.8779
 1807TIP3   OH226979   1.088   6.563   0.553  0.4195 -0.4517 -0.6372
 1807TIP3    H126980   1.147   6.491   0.572  0.7885  0.1370  0.5601
 1807TIP3    H226981   1.111   6.590   0.464 -0.9833 -2.9462 -1.8471
 1808TIP3   OH226982   2.491   3.908   1.665  0.0683 -0.0817 -0.1099
 1808TIP3    H126983   2.575   3.926   1.709  0.1828 -1.3857  0.2312
 1808TIP3    H226984   2.425   3.934   1.729  0.1747  1.1148 -0.4430
 1809TIP3   OH226985   5.681   5.371   7.761 -0.2077  0.3182  0.5736
 1809TIP3    H126986   5.749   5.310   7.731  0.5490  0.9792  0.9030
 1809TIP3    H226987   5.601   5.339   7.721  0.3867 -0.1659 -0.2674
 1810TIP3   OH226988   4.568   0.870   8.028 -0.3517  0.0375  0.3581
 1810TIP3    H126989   4.477   0.858   8.000 -0.8856  1.1988  1.5426
 1810TIP3    H226990   4.567   0.950   8.079  1.3413  0.0138  0.4584
 1811TIP3   OH226991   6.074   1.045   6.987 -0.1478 -0.2212 -0.1823
 1811TIP3    H126992   5.999   1.034   6.928 -1.7465 -0.1368  1.7369
 1811TIP3    H226993   6.103   1.135   6.972 -1.3668  0.2298  0.0781
 1812TIP3   OH226994   1.739   4.847   9.077 -0.0621 -0.0092  0.3399
 1812TIP3    H126995   1.812   4.862   9.017  0.1903  1.1430  0.9080
 1812TIP3    H226996   1.779   4.842   9.164 -0.6504  0.5757  0.6495
 1813TIP3   OH226997   0.898   0.246   7.452  0.2321 -0.3191 -0.1745
 1813TIP3    H126998   0.896   0.340   7.472  2.4579 -0.3463  0.4634
 1813TIP3    H226999   0.950   0.240   7.372 -0.1589 -0.9921 -0.3859
 1814TIP3   OH227000   3.573   3.082   8.783 -0.1712 -0.4534 -0.7730
 1814TIP3    H127001   3.482   3.110   8.774  0.0534  0.6596  0.0931
 1814TIP3    H227002   3.619   3.125   8.711  0.0500  0.9371  0.1515
 1815TIP3   OH227003   3.511   3.952   0.110 -0.3663 -0.0709  0.0658
 1815TIP3    H127004   3.526   3.982   0.199 -1.6309 -1.2155  0.6969
 1815TIP3    H227005   3.530   4.028   0.056 -0.0143  0.7745  1.3330
 1816TIP3   OH227006   2.682   3.083   8.868  0.3936 -0.6787  0.4652
 1816TIP3    H127007   2.604   3.091   8.924 -0.8543  0.7596 -1.3360
 1816TIP3    H227008   2.732   3.162   8.886  2.6212 -2.5167  3.1120
 1817TIP3   OH227009   4.884   4.360   8.603  0.0417 -0.5103  0.5248
 1817TIP3    H127010   4.857   4.450   8.624 -1.5678 -1.1188  1.2495
 1817TIP3    H227011   4.865   4.311   8.683 -0.5012 -1.7737 -0.3546
 1818TIP3   OH227012   5.850   0.723   0.498 -0.0426 -0.5173  0.1900
 1818TIP3    H127013   5.821   0.632   0.488 -0.3649 -0.3277 -0.6186
 1818TIP3    H227014   5.780   0.775   0.460  0.4263  0.0432  0.0852
 1819TIP3   OH227015   2.047   3.560   9.098  0.4063  0.3935  0.0419
 1819TIP3    H127016   2.041   3.644   9.052 -1.8904  0.1437 -0.2371
 1819TIP3    H227017   2.008   3.576   9.184  0.3643 -0.2847  0.1598
 1820TIP3   OH227018   2.330   1.527   8.001 -0.3404 -0.1801 -0.9914
 1820TIP3    H127019   2.339   1.539   8.095  0.2344  0.0538 -1.0707
 1820TIP3    H227020   2.337   1.433   7.988 -1.5451 -0.3271 -0.6956
 1821TIP3   OH227021   6.445   5.455   0.600 -0.3785 -0.0977 -0.5398
 1821TIP3    H127022   6.498   5.399   0.543  0.9960 -0.4221  0.9622
 1821TIP3    H227023   6.496   5.536   0.607  0.0517 -0.4605  1.0287
 1822TIP3   OH227024   4.036   1.914   8.386  0.2502  0.1226  0.1877
 1822TIP3    H127025   3.950   1.924   8.345 -0.8906 -2.7232  1.5565
 1822TIP3    H227026   4.096   1.898   8.312 -1.1722 -1.7980 -0.6376
 1823TIP3   OH227027   0.472   1.456   2.119  0.1860 -0.2472 -0.2660
 1823TIP3    H127028   0.461   1.376   2.067  0.8134  0.5880 -1.7625
 1823TIP3    H227029   0.393   1.508   2.100 -0.5925 -0.7916  1.3029
 1824TIP3   OH227030   0.646   1.303   8.005  0.2651 -0.0731 -0.3415
 1824TIP3    H127031   0.661   1.312   8.099  0.5628  1.5060 -0.5092
 1824TIP3    H227032   0.615   1.213   7.994 -1.4758  0.2394  1.4862
 1825TIP3   OH227033   6.541   5.502   7.248  0.4847  0.0617  0.1038
 1825TIP3    H127034   6.452   5.534   7.235  0.1843 -0.0338  1.7171
 1825TIP3    H227035   6.594   5.581   7.258  0.3859  0.1011  0.3074
 1826TIP3   OH227036   0.650   4.660   7.409  0.2846  0.2717  0.0224
 1826TIP3    H127037   0.620   4.751   7.405 -2.9361 -0.5654  1.7870
 1826TIP3    H227038   0.634   4.626   7.320 -2.4661  0.4512  0.3410
 1827TIP3   OH227039   2.387   2.315   0.561  0.3481 -0.1120 -0.6232
 1827TIP3    H127040   2.480   2.293   0.559  0.7158  0.9954  1.4903
 1827TIP3    H227041   2.384   2.408   0.582 -1.2292 -0.4393  0.8202
 1828TIP3   OH227042   2.204   2.801   7.086  0.6297  0.0686 -0.0720
 1828TIP3    H127043   2.151   2.723   7.105 -1.7937  1.9292  1.3158
 1828TIP3    H227044   2.199   2.811   6.991 -0.8173 -0.2888 -0.0549
 1829TIP3   OH227045   3.875   2.601   9.012  0.1220  0.1346  0.3430
 1829TIP3    H127046   3.891   2.688   8.977 -0.4715 -0.6504 -2.0590
 1829TIP3    H227047   3.783   2.583   8.991 -0.3735 -0.3093  2.6480
 1830TIP3   OH227048   4.877   3.657   8.029 -0.2200 -0.5594  0.3885
 1830TIP3    H127049   4.850   3.577   8.075  0.2178 -1.3599 -0.7116
 1830TIP3    H227050   4.816   3.724   8.061 -1.2532 -1.5523  0.5708
 1831TIP3   OH227051   1.480   1.272   2.440  0.4438  0.7320 -0.6892
 1831TIP3    H127052   1.421   1.293   2.511  0.3796  0.3030 -0.6155
 1831TIP3    H227053   1.426   1.224   2.377  0.5979  0.7520 -0.8376
 1832TIP3   OH227054   5.649   1.952   0.147  0.0433  1.1439 -0.1618
 1832TIP3    H127055   5.617   1.943   0.236 -1.2386  0.2804 -0.6716
 1832TIP3    H227056   5.687   1.867   0.126 -1.5085  0.6410 -1.0939
 1833TIP3   OH227057   5.934   3.903   0.094 -0.3142 -0.0840  0.5491
 1833TIP3    H127058   5.899   3.837   0.154  0.9562 -2.4439 -1.1561
 1833TIP3    H227059   5.870   3.909   0.024 -0.7173  1.0176  0.9811
 1834TIP3   OH227060   0.692   1.222   1.121 -0.9811 -0.1335  0.3672
 1834TIP3    H127061   0.766   1.238   1.178 -0.2787 -0.3274 -0.4703
 1834TIP3    H227062   0.625   1.283   1.150  0.2974  1.6602 -0.3090
 1835TIP3   OH227063   0.420   2.124   7.388  0.3298  0.5094 -0.7038
 1835TIP3    H127064   0.429   2.130   7.293  0.3642 -0.8729 -0.8090
 1835TIP3    H227065   0.479   2.052   7.413 -1.6379 -0.9269  0.0245
 1836TIP3   OH227066   0.482   5.668   9.215  0.3463  0.0624  0.5375
 1836TIP3    H127067   0.549   5.606   9.242  0.2067 -0.0995  0.5158
 1836TIP3    H227068   0.408   5.613   9.189  0.4109  0.2187  0.0051
 1837TIP3   OH227069   5.350   6.208   2.288  0.1377 -0.4724  0.3837
 1837TIP3    H127070   5.270   6.239   2.331 -0.5436 -0.9686 -0.5009
 1837TIP3    H227071   5.336   6.114   2.276  0.8409 -0.5541  0.1827
 1838TIP3   OH227072   3.991   5.077   1.544 -0.0812 -0.0410  0.4123
 1838TIP3    H127073   3.927   5.090   1.614  1.1879  0.3470  1.5301
 1838TIP3    H227074   4.058   5.020   1.582  1.9864  2.2501  0.4692
 1839TIP3   OH227075   5.716   3.952   7.316  0.3250  0.0765 -0.0290
 1839TIP3    H127076   5.683   4.038   7.345 -1.5285 -0.6413  0.1307
 1839TIP3    H227077   5.696   3.948   7.223  1.4517  0.2510 -0.2924
 1840TIP3   OH227078   5.344   5.394   0.300  0.1421  0.1996 -0.6438
 1840TIP3    H127079   5.292   5.368   0.376 -0.8169  0.6112 -1.1385
 1840TIP3    H227080   5.406   5.457   0.335  0.7584 -0.7812  0.0781
 1841TIP3   OH227081   6.616   4.174   7.653  0.1736  0.0650 -0.0504
 1841TIP3    H127082   6.565   4.094   7.650 -1.2928  0.9609 -0.0863
 1841TIP3    H227083   6.551   4.244   7.660  1.3834  1.2786 -0.3692
 1842TIP3   OH227084   3.017   4.100   0.372  0.0475 -0.4453 -0.2795
 1842TIP3    H127085   3.032   4.097   0.277  0.2681  0.3907 -0.2795
 1842TIP3    H227086   2.981   4.014   0.393 -1.4996 -0.1098 -1.3883
 1843TIP3   OH227087   0.361   5.814   8.848  0.1167  0.0974  0.5358
 1843TIP3    H127088   0.267   5.793   8.845  0.2491 -0.3436 -0.7808
 1843TIP3    H227089   0.364   5.909   8.838 -0.2529  0.3059  2.1470
 1844TIP3   OH227090   0.259   2.924   7.868 -0.2627 -0.6647 -0.4024
 1844TIP3    H127091   0.217   2.940   7.783  0.2036 -0.1940 -0.5451
 1844TIP3    H227092   0.189   2.886   7.921 -0.1537 -2.4721 -1.4674
 1845TIP3   OH227093   5.049   4.236   1.904  0.3835 -0.2621  0.3956
 1845TIP3    H127094   5.031   4.307   1.966 -0.0507  1.6619 -1.7988
 1845TIP3    H227095   5.130   4.262   1.861 -0.5871 -0.2665 -1.5316
 1846TIP3   OH227096   0.076   0.901   0.278 -0.1396 -0.3417 -0.2491
 1846TIP3    H127097   0.059   0.811   0.305 -0.4657 -0.5055 -0.9681
 1846TIP3    H227098   0.172   0.907   0.272 -0.0747 -0.3910  0.5947
 1847TIP3   OH227099   4.307   4.410   7.109  0.0773 -0.0347 -0.6397
 1847TIP3    H127100   4.368   4.475   7.145  0.1311  0.2200 -1.1866
 1847TIP3    H227101   4.232   4.412   7.167  0.3103  0.1232 -0.3406
 1848TIP3   OH227102   2.674   5.736   8.372  0.1173  0.3558  0.3478
 1848TIP3    H127103   2.587   5.699   8.352  0.5385 -2.0436  2.4293
 1848TIP3    H227104   2.674   5.822   8.329 -1.9683 -0.9383 -2.6180
 1849TIP3   OH227105   4.800   5.476   2.856 -0.1865 -0.1306 -0.3718
 1849TIP3    H127106   4.741   5.452   2.928  0.1006  0.1531 -0.0384
 1849TIP3    H227107   4.782   5.410   2.789 -0.8039 -0.1127 -0.2357
 1850TIP3   OH227108   2.185   5.492   1.653 -0.5536 -0.0845  0.4999
 1850TIP3    H127109   2.266   5.539   1.631  0.1747  0.1653  3.3960
 1850TIP3    H227110   2.142   5.548   1.717 -4.3904  1.0228 -2.6170
 1851TIP3   OH227111   1.614   5.588   0.963  0.8188  0.3498 -0.2671
 1851TIP3    H127112   1.659   5.631   1.035 -1.1502  0.9717  0.6686
 1851TIP3    H227113   1.670   5.514   0.940  2.1388  0.9163  1.0044
 1852TIP3   OH227114   5.569   4.391   1.764  0.4794  0.2097  0.3369
 1852TIP3    H127115   5.587   4.455   1.695 -0.1501 -0.8888 -0.8965
 1852TIP3    H227116   5.647   4.392   1.820  0.7257  1.5992 -0.0035
 1853TIP3   OH227117   0.284   1.821   7.263 -0.3531  0.5567  0.3265
 1853TIP3    H127118   0.243   1.757   7.205  2.8840 -1.2295 -0.2569
 1853TIP3    H227119   0.313   1.891   7.204 -1.7373  1.4230  0.6278
 1854TIP3   OH227120   6.517   6.629   1.417  0.0802  0.5321 -0.5635
 1854TIP3    H127121   6.434   6.629   1.462  0.4093 -1.1077  0.1184
 1854TIP3    H227122   6.499   6.587   1.332  0.0603  0.8839 -0.7351
 1855TIP3   OH227123   3.091   1.304   8.871 -0.9305 -0.2575  0.0956
 1855TIP3    H127124   3.000   1.310   8.843 -0.8492 -0.0631 -0.1357
 1855TIP3    H227125   3.095   1.354   8.953 -0.6126  1.5321 -0.9484
 1856TIP3   OH227126   1.132   0.976   2.179 -0.6672  0.1776  0.5267
 1856TIP3    H127127   1.088   0.939   2.256 -0.7987 -0.0107  0.3620
 1856TIP3    H227128   1.073   0.957   2.107  0.0581 -0.8071  0.1665
 1857TIP3   OH227129   2.992   1.238   0.807 -0.0346 -0.0188  0.2784
 1857TIP3    H127130   2.988   1.190   0.889  0.6844 -0.7057 -0.0796
 1857TIP3    H227131   3.077   1.283   0.809 -1.1560  2.2146  1.1254
 1858TIP3   OH227132   2.030   2.243   8.421 -0.3120 -0.0484 -0.5944
 1858TIP3    H127133   2.116   2.200   8.428 -1.2168 -2.1025 -1.3382
 1858TIP3    H227134   2.046   2.332   8.452  1.8009 -0.7363  0.5179
 1859TIP3   OH227135   1.836   2.652   6.850  0.3241 -0.1737  0.3309
 1859TIP3    H127136   1.767   2.704   6.893 -0.8415 -0.8161 -0.7031
 1859TIP3    H227137   1.801   2.563   6.850  1.5219 -0.6541  0.4798
 1860TIP3   OH227138   5.379   1.994   1.818 -0.3249  0.1843 -0.6683
 1860TIP3    H127139   5.367   2.018   1.726  0.7404 -2.2227 -1.5400
 1860TIP3    H227140   5.319   1.920   1.831 -2.5522  2.1657  1.4821
 1861TIP3   OH227141   2.984   1.137   1.068  0.5695 -0.3015 -0.4436
 1861TIP3    H127142   3.016   1.047   1.070  1.0576 -0.1369  1.9372
 1861TIP3    H227143   2.895   1.131   1.103  0.9640  0.2327  0.7033
 1862TIP3   OH227144   0.900   2.042   8.270  0.6508 -0.0738 -0.0702
 1862TIP3    H127145   0.927   1.976   8.334  0.2940  0.2799  0.4578
 1862TIP3    H227146   0.908   1.998   8.185  2.3511 -0.1483  0.0974
 1863TIP3   OH227147   5.248   0.988   1.994 -0.3750  0.5943  0.0827
 1863TIP3    H127148   5.228   0.895   1.981 -2.8695  0.8646  1.3254
 1863TIP3    H227149   5.215   1.007   2.082 -1.4722  3.0126 -0.7679
 1864TIP3   OH227150   4.211   4.850   8.016  0.1838 -0.1425 -0.1079
 1864TIP3    H127151   4.221   4.756   8.031  0.4288 -0.2996 -1.1985
 1864TIP3    H227152   4.293   4.877   7.974 -0.9133  0.0032 -2.2996
 1865TIP3   OH227153   0.892   2.086   6.926  0.4623 -0.3175  0.1164
 1865TIP3    H127154   0.978   2.086   6.967  1.3156  0.3617 -1.5661
 1865TIP3    H227155   0.862   2.176   6.931  1.2599  0.1293 -1.9798
 1866TIP3   OH227156   4.652   4.077   8.652  0.0152  0.1992 -0.1431
 1866TIP3    H127157   4.573   4.121   8.621  0.0896 -0.6414 -1.6122
 1866TIP3    H227158   4.683   4.132   8.723 -2.8323 -0.3521  1.6871
 1867TIP3   OH227159   4.429   2.840   1.471  0.5253  0.1714 -0.1502
 1867TIP3    H127160   4.506   2.801   1.512 -0.4677 -1.5507  0.2213
 1867TIP3    H227161   4.382   2.882   1.542  2.5617  4.0767 -0.8259
 1868TIP3   OH227162   1.394   3.512   7.703  0.0539 -0.1259 -0.0778
 1868TIP3    H127163   1.373   3.435   7.651 -1.3167  0.7462 -0.8796
 1868TIP3    H227164   1.424   3.577   7.639 -0.0458  0.4248  0.4239
 1869TIP3   OH227165   0.390   2.291   9.327  0.5305  0.3976  0.3127
 1869TIP3    H127166   0.421   2.275   9.238  0.0694  0.1763  0.1920
 1869TIP3    H227167   0.428   2.376   9.350 -1.2844  1.6229 -0.9907
 1870TIP3   OH227168   1.675   5.111   1.645 -0.0947  0.5020 -0.3426
 1870TIP3    H127169   1.709   5.072   1.565 -0.9531  0.0491 -0.4933
 1870TIP3    H227170   1.591   5.151   1.619 -1.2951 -1.2388  0.6823
 1871TIP3   OH227171   2.907   5.807   8.980 -0.1742  0.7166 -0.4121
 1871TIP3    H127172   2.840   5.874   8.994 -1.1807 -0.5183  1.0160
 1871TIP3    H227173   2.916   5.764   9.065  1.9028  0.3316 -0.7755
 1872TIP3   OH227174   0.220   0.469   8.699 -0.3955  0.6950  0.1272
 1872TIP3    H127175   0.208   0.421   8.781  0.4594  0.9453  0.4171
 1872TIP3    H227176   0.190   0.409   8.631 -0.7760  0.3450  0.6009
 1873TIP3   OH227177   3.352   0.836   7.302 -0.3929  0.0654  0.3874
 1873TIP3    H127178   3.302   0.868   7.227 -0.8839 -0.6551  0.3922
 1873TIP3    H227179   3.434   0.885   7.299 -0.9568  1.0281  0.1774
 1874TIP3   OH227180   0.627   4.698   1.238  0.3248  0.2557  0.4034
 1874TIP3    H127181   0.612   4.684   1.331  1.1310  0.5353  0.5800
 1874TIP3    H227182   0.701   4.758   1.234  1.3703 -1.0339 -0.4332
 1875TIP3   OH227183   4.855   3.835   1.724 -0.0353 -0.0980  0.2539
 1875TIP3    H127184   4.946   3.866   1.719 -0.0624 -0.1978 -1.2791
 1875TIP3    H227185   4.827   3.828   1.633 -0.0410 -4.5619  0.3575
 1876TIP3   OH227186   3.941   3.315   1.927 -0.4353 -0.4188  0.2523
 1876TIP3    H127187   3.901   3.229   1.938 -1.2304  0.0342  1.1275
 1876TIP3    H227188   3.880   3.363   1.871 -0.0121 -0.4089 -0.2065
 1877TIP3   OH227189   4.054   1.161   1.073 -0.6755  0.1842 -0.0920
 1877TIP3    H127190   4.067   1.115   1.156 -0.1909 -0.4423 -0.5075
 1877TIP3    H227191   4.010   1.243   1.098  3.4608  2.2603  1.4787
 1878TIP3   OH227192   3.023   2.620   1.683  0.0193 -0.7626  0.5615
 1878TIP3    H127193   2.994   2.702   1.721  0.1726 -0.0703 -0.7498
 1878TIP3    H227194   3.069   2.645   1.603  0.7958 -2.0743  0.5517
 1879TIP3   OH227195   3.962   3.655   9.103 -0.5812 -0.4941 -0.3128
 1879TIP3    H127196   3.889   3.648   9.165 -0.8563  0.8897 -0.4430
 1879TIP3    H227197   3.921   3.674   9.019 -0.0891  0.4638 -0.3579
 1880TIP3   OH227198   5.685   6.519   7.865  0.6843 -0.4721  0.3147
 1880TIP3    H127199   5.666   6.585   7.932 -0.5835 -1.1195  0.6228
 1880TIP3    H227200   5.606   6.465   7.862  1.7898 -2.1511  0.2740
 1881TIP3   OH227201   3.460   1.728   8.865 -0.1435 -0.4235  0.5813
 1881TIP3    H127202   3.467   1.807   8.811  1.5191 -0.9055  0.0381
 1881TIP3    H227203   3.372   1.695   8.846 -1.5926  2.1523  2.1248
 1882TIP3   OH227204   3.364   2.498   1.986 -0.1007 -0.0023 -0.7997
 1882TIP3    H127205   3.435   2.554   2.016  0.7330 -2.0080  1.2521
 1882TIP3    H227206   3.396   2.460   1.905  0.4089  0.4685 -0.8259
 1883TIP3   OH227207   3.679   4.479   7.458 -0.0413 -0.0035 -0.3869
 1883TIP3    H127208   3.590   4.511   7.472 -0.0679  0.1423 -0.8644
 1883TIP3    H227209   3.696   4.497   7.365  0.3167 -0.4426 -0.4067
 1884TIP3   OH227210   2.114   2.657   6.802  0.3150  0.0799 -0.6615
 1884TIP3    H127211   2.024   2.668   6.835  1.2154  0.6358  1.8316
 1884TIP3    H227212   2.137   2.568   6.827  0.0472 -0.5330 -2.4937
 1885TIP3   OH227213   4.503   2.492   0.722 -0.4874  0.5710 -0.5243
 1885TIP3    H127214   4.540   2.474   0.636 -0.5204 -0.0611 -0.4118
 1885TIP3    H227215   4.510   2.409   0.769 -0.8385  0.8012 -0.0564
 1886TIP3   OH227216   5.193   3.176   0.192  0.0224  0.5317  0.2724
 1886TIP3    H127217   5.245   3.179   0.272 -0.0179  0.9767  0.2844
 1886TIP3    H227218   5.107   3.145   0.221  0.1017  0.3866  0.3518
 1887TIP3   OH227219   5.297   4.015   0.148  0.0537 -0.3743  0.1076
 1887TIP3    H127220   5.346   3.998   0.228  3.3017  1.1278 -1.3686
 1887TIP3    H227221   5.324   4.103   0.121 -2.9597  0.2532 -1.3024
 1888TIP3   OH227222   1.715   0.184   1.267 -0.4668  0.0734  0.0875
 1888TIP3    H127223   1.650   0.131   1.313  0.2312 -0.7845  0.1226
 1888TIP3    H227224   1.743   0.249   1.332  1.1336 -1.6473  1.2569
 1889TIP3   OH227225   4.737   0.836   0.907 -0.0872 -0.5179  0.1914
 1889TIP3    H127226   4.683   0.885   0.968 -1.2704 -0.6335 -0.7195
 1889TIP3    H227227   4.756   0.754   0.951  0.8011  0.1953  1.1977
 1890TIP3   OH227228   0.180   2.366   1.284  0.9249  0.0209 -0.6018
 1890TIP3    H127229   0.142   2.349   1.370 -0.5301  0.0343 -1.2079
 1890TIP3    H227230   0.195   2.460   1.281 -0.7039  0.2893 -0.9923
 1891TIP3   OH227231   4.621   4.024   7.860  0.5854 -0.1094 -0.3473
 1891TIP3    H127232   4.569   4.020   7.779 -1.7488  1.2112  0.9555
 1891TIP3    H227233   4.682   4.096   7.846 -1.5678  1.8787 -0.0904
 1892TIP3   OH227234   1.334   5.669   1.662 -0.0131 -0.5939  0.5567
 1892TIP3    H127235   1.419   5.627   1.652 -0.0679 -0.5256 -0.2254
 1892TIP3    H227236   1.271   5.604   1.634 -0.0856  0.0533 -0.8610
 1893TIP3   OH227237   0.249   4.976   0.430 -0.6532  0.7501 -0.2240
 1893TIP3    H127238   0.228   4.984   0.522 -2.1383 -0.4280 -0.4236
 1893TIP3    H227239   0.197   4.901   0.400  1.2796 -0.1465 -1.5671
 1894TIP3   OH227240   2.530   2.577   1.240  0.3074 -0.5742 -0.2374
 1894TIP3    H127241   2.483   2.658   1.221  1.6438  0.0678 -0.9297
 1894TIP3    H227242   2.505   2.518   1.169  1.0408 -0.0083 -0.9819
 1895TIP3   OH227243   0.601   5.923   7.154  0.1621  0.1920 -0.0659
 1895TIP3    H127244   0.643   5.989   7.209  2.7311 -0.2430 -1.3495
 1895TIP3    H227245   0.534   5.971   7.106  1.6781  1.8200 -0.6514
 1896TIP3   OH227246   0.925   3.063   9.145 -0.4430 -0.0698  0.0213
 1896TIP3    H127247   0.944   2.970   9.140  0.1037  0.0407 -0.0320
 1896TIP3    H227248   0.923   3.082   9.239  2.0372  0.3568  0.0674
 1897TIP3   OH227249   0.819   5.255   0.923 -0.1668 -0.0659 -0.1033
 1897TIP3    H127250   0.851   5.329   0.871 -0.3249 -1.0546 -1.6685
 1897TIP3    H227251   0.865   5.263   1.006  1.1889  0.7739 -0.8938
 1898TIP3   OH227252   0.077   2.483   8.414 -0.0474  0.7980  0.4252
 1898TIP3    H127253   0.136   2.528   8.475 -0.4534 -0.4881  1.8213
 1898TIP3    H227254   0.036   2.415   8.466 -1.4983  0.5571 -0.9574
 1899TIP3   OH227255   1.558   1.780   7.905 -0.4501  0.5273  0.2372
 1899TIP3    H127256   1.524   1.870   7.905 -0.1642  0.6575 -1.4511
 1899TIP3    H227257   1.540   1.748   7.993 -0.8326  2.1383  0.7773
 1900TIP3   OH227258   2.721   4.784   1.780 -0.3971 -0.0332  0.0712
 1900TIP3    H127259   2.715   4.772   1.685  0.8333 -1.4092  0.1372
 1900TIP3    H227260   2.666   4.860   1.797 -0.9797  0.0018 -1.6884
 1901TIP3   OH227261   5.882   0.623   9.229  0.4710 -0.0987 -0.9881
 1901TIP3    H127262   5.919   0.536   9.213  4.0164  0.9451  0.5191
 1901TIP3    H227263   5.927   0.680   9.166  0.0558  1.0257 -0.3004
 1902TIP3   OH227264   1.390   0.067   7.916  0.1802  0.4059  0.3179
 1902TIP3    H127265   1.306   0.067   7.961  0.2046  1.2622  0.3829
 1902TIP3    H227266   1.369   0.085   7.824  0.3047  0.7186  0.3516
 1903TIP3   OH227267   2.861   5.539   8.516  0.3645  0.8339 -0.1458
 1903TIP3    H127268   2.815   5.595   8.454  0.7197  2.3749  0.9308
 1903TIP3    H227269   2.860   5.587   8.599 -0.2782 -1.2337  1.1477
 1904TIP3   OH227270   2.196   1.059   1.656  0.1276  0.6247 -0.2416
 1904TIP3    H127271   2.138   1.098   1.590 -1.4878 -0.4443  0.4989
 1904TIP3    H227272   2.150   1.072   1.739  0.3726 -1.2731  0.2333
 1905TIP3   OH227273   5.440   2.907   8.294 -0.0416  0.3246  0.2872
 1905TIP3    H127274   5.437   2.938   8.384  3.1494 -1.8986  1.3137
 1905TIP3    H227275   5.459   2.813   8.301 -0.5934 -0.1180 -2.7182
 1906TIP3   OH227276   2.398   2.001   1.207 -0.1542  0.1889 -0.0963
 1906TIP3    H127277   2.491   1.991   1.187 -0.4143  0.2980 -1.4264
 1906TIP3    H227278   2.369   1.912   1.228  0.4759  0.3178  1.4883
 1907TIP3   OH227279   2.720   5.955   2.457  0.3636  0.0630  0.3916
 1907TIP3    H127280   2.667   5.898   2.513 -2.0472  3.8881  2.4181
 1907TIP3    H227281   2.772   6.007   2.518  3.3592 -0.5673 -1.4190
 1908TIP3   OH227282   0.307   2.797   9.323  0.3054  0.4743  0.1605
 1908TIP3    H127283   0.268   2.884   9.321 -2.2947 -0.6033  0.5326
 1908TIP3    H227284   0.255   2.746   9.261  1.0181 -1.1181  0.8161
 1909TIP3   OH227285   5.027   3.603   7.481 -0.0007  0.1755  0.4173
 1909TIP3    H127286   4.991   3.681   7.439  0.2671  0.9878  1.6336
 1909TIP3    H227287   5.003   3.613   7.573 -1.1806 -1.8866  0.3923
 1910TIP3   OH227288   0.800   4.205   9.083  0.0164  0.4493 -0.0418
 1910TIP3    H127289   0.859   4.205   9.159  0.8409  1.2770 -0.6492
 1910TIP3    H227290   0.770   4.114   9.076  0.9695  0.0743  0.4917
 1911TIP3   OH227291   5.538   4.707   8.674 -0.1697  0.2377  0.7411
 1911TIP3    H127292   5.629   4.681   8.692 -0.3441  0.2606  1.7219
 1911TIP3    H227293   5.505   4.639   8.615  0.1316 -0.4187  1.3138
 1912TIP3   OH227294   3.928   5.667   2.324  0.2583 -0.7939  0.3343
 1912TIP3    H127295   3.887   5.585   2.296  1.2306 -1.1055 -0.2129
 1912TIP3    H227296   3.939   5.717   2.243 -0.0183 -0.2606  0.6204
 1913TIP3   OH227297   5.512   5.580   1.153 -0.4119  0.1908  0.3013
 1913TIP3    H127298   5.555   5.547   1.232  1.1331  1.5385  0.0724
 1913TIP3    H227299   5.447   5.643   1.185  0.5895  1.1442  0.5000
 1914TIP3   OH227300   0.543   2.135   1.914  0.2860  0.3559 -0.4230
 1914TIP3    H127301   0.616   2.073   1.924 -0.4449 -0.4692 -0.0318
 1914TIP3    H227302   0.490   2.099   1.843  1.0631  1.7931 -1.7814
 1915TIP3   OH227303   3.206   1.123   1.458 -0.3931 -0.4099  0.2355
 1915TIP3    H127304   3.245   1.061   1.520 -1.0212 -1.2118 -0.1497
 1915TIP3    H227305   3.189   1.071   1.380 -3.1939 -0.3987  0.7334
 1916TIP3   OH227306   4.182   2.782   0.730 -0.5273  0.2985  0.1956
 1916TIP3    H127307   4.116   2.792   0.661  0.6811  0.8390 -0.9216
 1916TIP3    H227308   4.148   2.834   0.803 -0.8449  1.4429 -0.7399
 1917TIP3   OH227309   3.260   2.021   8.338 -0.1347  0.2378 -0.3692
 1917TIP3    H127310   3.260   1.929   8.363  2.1948 -0.3120 -2.0689
 1917TIP3    H227311   3.178   2.056   8.373 -0.0723 -1.9309  2.2067
 1918TIP3   OH227312   2.535   2.515   8.271  0.1623 -0.5887  0.3718
 1918TIP3    H127313   2.457   2.459   8.276 -0.5890  0.1102 -2.0923
 1918TIP3    H227314   2.581   2.483   8.194  0.6445  1.0574 -0.0410
 1919TIP3   OH227315   1.499   4.909   0.765  0.1564  0.5374  0.0281
 1919TIP3    H127316   1.404   4.917   0.751  0.1362  0.3645  0.0668
 1919TIP3    H227317   1.532   4.876   0.682  0.0028 -0.7522  0.4503
 1920TIP3   OH227318   1.243   4.232   0.364 -0.0490 -0.5867  0.0103
 1920TIP3    H127319   1.213   4.257   0.276 -0.4094  0.5324  0.4372
 1920TIP3    H227320   1.242   4.136   0.363  1.2448 -0.6211 -1.6401
 1921TIP3   OH227321   1.847   4.968   2.179  0.0877 -0.0533 -0.7176
 1921TIP3    H127322   1.920   4.915   2.210  0.3112 -0.4577 -1.8851
 1921TIP3    H227323   1.794   4.984   2.257  0.9689 -0.4657 -0.0133
 1922TIP3   OH227324   4.257   5.233   1.386  0.6150 -0.1295 -0.0011
 1922TIP3    H127325   4.318   5.281   1.330  0.5881  0.0484  0.1233
 1922TIP3    H227326   4.243   5.150   1.340 -0.6355  0.6354 -1.0442
 1923TIP3   OH227327   0.655   4.931   1.670 -0.4727 -0.1521  1.0958
 1923TIP3    H127328   0.570   4.894   1.696 -1.6802  2.3660  1.0217
 1923TIP3    H227329   0.719   4.874   1.713 -2.1839 -1.7695  1.6827
 1924TIP3   OH227330   4.254   4.154   0.598 -0.0256 -0.0761 -0.1917
 1924TIP3    H127331   4.235   4.081   0.656 -0.2752 -1.1043 -1.5163
 1924TIP3    H227332   4.329   4.126   0.547  0.0306  0.6930 -0.5545
 1925TIP3   OH227333   3.838   0.869   0.727  0.4062  0.3313  0.4110
 1925TIP3    H127334   3.899   0.943   0.726 -0.3498  1.0015 -1.6605
 1925TIP3    H227335   3.881   0.802   0.674  0.3209 -0.0642  0.8355
 1926TIP3   OH227336   2.260   6.230   8.456  0.2863 -0.4267 -0.0225
 1926TIP3    H127337   2.331   6.167   8.439  0.2476 -0.1632 -1.2473
 1926TIP3    H227338   2.275   6.301   8.394 -1.1767 -0.4613 -0.4468
 1927TIP3   OH227339   2.013   3.712   8.638 -0.1334  0.0362 -0.2482
 1927TIP3    H127340   1.966   3.661   8.572 -1.2034  1.0707 -0.3167
 1927TIP3    H227341   2.094   3.738   8.594 -1.2120  1.4430 -1.5016
 1928TIP3   OH227342   2.182   3.411   1.006  0.1585 -0.4178 -0.0419
 1928TIP3    H127343   2.265   3.424   1.052 -0.4194  1.2010  0.6262
 1928TIP3    H227344   2.207   3.401   0.914  1.2382 -2.4541  0.4028
 1929TIP3   OH227345   4.967   6.310   0.320 -0.4684 -0.2884  0.0806
 1929TIP3    H127346   4.973   6.334   0.227 -1.4253  0.1813  0.1351
 1929TIP3    H227347   5.059   6.303   0.348 -0.1305 -1.9008 -1.2529
 1930TIP3   OH227348   3.973   4.235   9.233  0.0663  0.2374  0.0198
 1930TIP3    H127349   4.006   4.320   9.263 -0.4888  0.7160 -0.6848
 1930TIP3    H227350   3.993   4.175   9.304  1.8127  0.6400 -0.0897
 1931TIP3   OH227351   0.419   1.831   9.040  0.4102  0.2444 -0.3268
 1931TIP3    H127352   0.375   1.899   8.990 -0.5007  1.1674  1.6083
 1931TIP3    H227353   0.512   1.852   9.032  0.1515  1.6209  0.0522
 1932TIP3   OH227354   6.300   2.962   1.192 -0.5786  0.0690 -0.3909
 1932TIP3    H127355   6.320   2.912   1.271  0.2496 -0.3311 -0.8392
 1932TIP3    H227356   6.256   3.041   1.225 -0.9298 -0.4406  0.4018
 1933TIP3   OH227357   3.263   6.251   0.165 -0.0007 -0.5807 -0.1532
 1933TIP3    H127358   3.181   6.269   0.211  0.0327  0.1664 -0.3642
 1933TIP3    H227359   3.259   6.307   0.087  0.6084 -0.7079 -0.2789
 1934TIP3   OH227360   6.599   3.231   0.713  0.3111 -0.1188  0.2835
 1934TIP3    H127361   6.678   3.188   0.679  0.5724 -0.5529  1.4031
 1934TIP3    H227362   6.527   3.175   0.685  0.4679 -0.1749 -0.0142
 1935TIP3   OH227363   1.585   4.842   0.513  0.2752 -1.0717 -0.1875
 1935TIP3    H127364   1.662   4.899   0.510 -0.0600 -0.6008  0.1415
 1935TIP3    H227365   1.621   4.754   0.508  0.7944 -0.8380 -0.7306
 1936TIP3   OH227366   4.583   6.628   1.081 -0.7111 -0.3882  0.4162
 1936TIP3    H127367   4.510   6.584   1.038 -0.4697  1.0239 -1.5898
 1936TIP3    H227368   4.566   6.721   1.067 -1.4782  0.3663  4.9397
 1937TIP3   OH227369   3.186   0.795   8.601 -0.3245 -0.4017 -0.2350
 1937TIP3    H127370   3.090   0.805   8.596 -0.2747  0.5609  0.3795
 1937TIP3    H227371   3.199   0.705   8.631 -1.1280  0.0755  1.7274
 1938TIP3   OH227372   5.200   3.405   1.379  0.0138  0.9444  0.4032
 1938TIP3    H127373   5.187   3.492   1.341 -0.6286  0.7029  0.0517
 1938TIP3    H227374   5.115   3.362   1.368  1.0121 -0.6494 -1.7787
 1939TIP3   OH227375   1.140   5.177   8.821  0.0663  0.0985 -0.0393
 1939TIP3    H127376   1.099   5.125   8.752  2.3209 -1.5654 -0.2543
 1939TIP3    H227377   1.088   5.257   8.825 -3.2937 -1.8932 -0.0402
 1940TIP3   OH227378   4.259   5.712   0.799  0.0446 -0.2437 -0.1804
 1940TIP3    H127379   4.188   5.754   0.847  0.3956 -0.2761  0.3820
 1940TIP3    H227380   4.296   5.782   0.745  0.7137  0.2214  0.8568
 1941TIP3   OH227381   4.620   3.178   0.594  0.2189 -0.2856 -0.2218
 1941TIP3    H127382   4.645   3.106   0.536 -0.8737 -0.5524 -0.3745
 1941TIP3    H227383   4.525   3.185   0.585  0.0567 -0.1288  1.3199
 1942TIP3   OH227384   1.784   4.780   7.481  0.3424 -0.2065  0.8799
 1942TIP3    H127385   1.808   4.871   7.463 -0.1414 -0.2183  0.1094
 1942TIP3    H227386   1.856   4.729   7.446 -1.2125 -0.3093 -2.5858
 1943TIP3   OH227387   2.432   6.207   0.887 -0.5540 -0.2136 -0.2294
 1943TIP3    H127388   2.343   6.190   0.919 -0.6735 -0.1468 -0.5232
 1943TIP3    H227389   2.429   6.296   0.853  0.3668  0.8850  2.3263
 1944TIP3   OH227390   1.521   1.573   1.074  0.1188  0.0688 -0.6862
 1944TIP3    H127391   1.504   1.493   1.124  1.2024 -0.1690 -0.6906
 1944TIP3    H227392   1.460   1.569   1.001 -2.9596  1.3527  1.5401
 1945TIP3   OH227393   2.948   0.657   8.543 -0.0256  0.2150 -0.1311
 1945TIP3    H127394   2.911   0.617   8.622 -0.7431  2.2591  0.6329
 1945TIP3    H227395   2.996   0.586   8.500 -0.3239 -1.1591  1.6954
 1946TIP3   OH227396   6.276   0.685   1.031 -0.7194 -0.0067 -0.1064
 1946TIP3    H127397   6.229   0.646   0.957 -0.6424  0.7225 -0.5523
 1946TIP3    H227398   6.247   0.776   1.032 -0.0601  0.2024  0.2291
 1947TIP3   OH227399   2.794   1.943   8.743 -0.6651  0.7031  0.4338
 1947TIP3    H127400   2.717   1.900   8.705 -0.5815  0.8526  0.0968
 1947TIP3    H227401   2.812   2.017   8.686  1.4754 -0.9499 -1.2369
 1948TIP3   OH227402   0.650   1.231   8.981 -0.2009  0.0571  0.6456
 1948TIP3    H127403   0.644   1.325   8.962  1.4171  0.2312  0.8465
 1948TIP3    H227404   0.559   1.202   8.984 -0.7474  1.6313  0.6701
 1949TIP3   OH227405   2.876   0.514   1.895  0.0593  0.3870 -0.1236
 1949TIP3    H127406   2.797   0.491   1.845 -0.7221  2.0973  0.2371
 1949TIP3    H227407   2.945   0.521   1.829  0.5343 -3.2435 -0.2269
 1950TIP3   OH227408   3.027   3.058   1.420  0.0387 -0.3508 -0.4793
 1950TIP3    H127409   3.085   3.065   1.495 -0.9754  1.6196  0.1986
 1950TIP3    H227410   2.979   2.976   1.433 -0.4697  0.2044  1.2955
 1951TIP3   OH227411   0.721   5.069   2.025  0.2140  0.0751  0.3151
 1951TIP3    H127412   0.770   5.004   1.975  0.4348  0.2171  0.3436
 1951TIP3    H227413   0.630   5.051   2.005  0.3161  0.4451 -0.5390
 1952TIP3   OH227414   1.428   0.017   8.367 -0.6698 -0.1241 -0.3519
 1952TIP3    H127415   1.503   0.038   8.311 -1.4844  3.1058 -0.4228
 1952TIP3    H227416   1.393  -0.064   8.330  2.7370 -1.8127 -0.2560
 1953TIP3   OH227417   5.287   3.372   0.741  0.2780 -0.2166  0.3418
 1953TIP3    H127418   5.281   3.284   0.779  1.1513 -0.7638 -0.7435
 1953TIP3    H227419   5.214   3.377   0.679  1.4560 -0.9789 -1.1489
 1954TIP3   OH227420   6.270   6.136   2.057  0.3424 -0.0472  0.2371
 1954TIP3    H127421   6.221   6.074   2.111 -0.5101 -0.0637 -0.5255
 1954TIP3    H227422   6.287   6.211   2.115 -0.8939  0.1046  0.4396
 1955TIP3   OH227423   1.876   2.476   9.009  0.1398  0.3897 -0.1725
 1955TIP3    H127424   1.783   2.486   8.986 -0.2707  0.5080  1.4401
 1955TIP3    H227425   1.887   2.530   9.087  0.8778 -1.8362  1.3444
 1956TIP3   OH227426   3.667   4.962   1.070  0.0705  0.1879  0.1013
 1956TIP3    H127427   3.678   4.893   1.135 -0.3681  0.9983  1.0635
 1956TIP3    H227428   3.754   4.973   1.032  0.0266 -1.2730 -0.4877
 1957TIP3   OH227429   0.622   3.089   9.237 -0.0648 -0.3340  0.1568
 1957TIP3    H127430   0.653   3.116   9.150 -1.6642  2.7522  0.3840
 1957TIP3    H227431   0.669   3.146   9.298 -0.1337 -1.3550  1.1904
 1958TIP3   OH227432   3.877   2.572   7.795 -0.0983  0.1757  0.4277
 1958TIP3    H127433   3.809   2.585   7.729  0.8665  1.2796 -0.3927
 1958TIP3    H227434   3.958   2.598   7.752  0.6923  0.0505  1.7709
 1959TIP3   OH227435   4.096   1.452   0.912 -0.1319  0.1656 -0.6093
 1959TIP3    H127436   4.135   1.536   0.935 -0.7117 -0.0322  1.2630
 1959TIP3    H227437   4.171   1.397   0.887  0.5022  0.5600  0.3765
 1960TIP3   OH227438   0.734   5.274   8.854 -0.3758 -0.1987  0.3727
 1960TIP3    H127439   0.759   5.224   8.932 -2.2491  0.1358  1.2414
 1960TIP3    H227440   0.816   5.313   8.824  0.8060 -2.1771  0.8020
 1961TIP3   OH227441   1.750   1.863   0.306 -0.3736  0.5365 -0.2456
 1961TIP3    H127442   1.840   1.840   0.282 -0.9263 -2.8422  0.4558
 1961TIP3    H227443   1.746   1.847   0.400 -1.2678  2.4950  0.0887
 1962TIP3   OH227444   4.963   0.143   7.243  0.2524  0.2030 -0.5838
 1962TIP3    H127445   4.998   0.088   7.172  0.8717 -0.9476  0.5539
 1962TIP3    H227446   4.876   0.108   7.259 -0.3152  1.1570 -1.4515
 1963TIP3   OH227447   0.912   3.332   1.937 -0.1743 -0.2822 -0.4787
 1963TIP3    H127448   0.978   3.371   1.880  0.2499 -0.6574 -0.2508
 1963TIP3    H227449   0.910   3.389   2.014 -1.0362  0.4534 -1.0344
 1964TIP3   OH227450   5.258   1.247   7.113 -0.3612 -0.0991  0.1783
 1964TIP3    H127451   5.337   1.197   7.135 -0.3237  0.0174  0.3102
 1964TIP3    H227452   5.292   1.327   7.072 -0.3718  0.3779  1.0705
 1965TIP3   OH227453   5.670   2.311   9.204 -0.0677 -0.0967 -0.2060
 1965TIP3    H127454   5.653   2.404   9.191  1.2568  0.6031  2.3636
 1965TIP3    H227455   5.591   2.278   9.248 -0.5924 -0.2623 -1.2352
 1966TIP3   OH227456   1.988   2.152   1.852 -0.3187 -0.0315  0.4327
 1966TIP3    H127457   2.013   2.181   1.764 -0.2231 -1.2488  0.0390
 1966TIP3    H227458   2.067   2.111   1.887 -0.0704  1.2592  1.4760
 1967TIP3   OH227459   2.073   3.088   9.145  0.0551  0.2545  0.7460
 1967TIP3    H127460   2.048   3.151   9.077 -0.9643 -0.5903  0.3146
 1967TIP3    H227461   2.165   3.108   9.164  0.6696 -0.1080 -1.5759
 1968TIP3   OH227462   2.247   1.289   7.793 -0.3799  0.0938 -0.0719
 1968TIP3    H127463   2.340   1.274   7.776 -0.7949 -1.9633 -0.8755
 1968TIP3    H227464   2.234   1.256   7.882 -0.3075  0.6211  0.1388
 1969TIP3   OH227465   2.088   4.699   0.479 -0.3687  0.2087  0.4749
 1969TIP3    H127466   2.065   4.726   0.568 -0.7249  3.4186 -0.4794
 1969TIP3    H227467   2.184   4.700   0.477 -0.3696  1.5119  0.4797
 1970TIP3   OH227468   4.250   1.862   8.226  0.7040  0.1043  0.3679
 1970TIP3    H127469   4.283   1.772   8.220  2.1358  0.6074  0.4180
 1970TIP3    H227470   4.322   1.912   8.264 -0.7297  0.9379  2.1501
 1971TIP3   OH227471   0.133   2.440   1.609  0.0615  0.2040  0.0082
 1971TIP3    H127472   0.074   2.386   1.555  0.9749  0.0003 -0.8118
 1971TIP3    H227473   0.096   2.528   1.605  0.5167  0.3483 -1.5891
 1972TIP3   OH227474   5.766   0.196   1.270  0.1275 -0.6171 -0.1076
 1972TIP3    H127475   5.729   0.175   1.356  1.9305 -0.2745  0.7887
 1972TIP3    H227476   5.691   0.227   1.219 -0.7787  0.4368  1.7581
 1973TIP3   OH227477   4.254   4.335   8.721 -0.3404 -0.3496  0.2400
 1973TIP3    H127478   4.239   4.314   8.813  0.0126  0.0120  0.3790
 1973TIP3    H227479   4.203   4.414   8.705  0.1011 -0.0553  0.2867
 1974TIP3   OH227480   4.425   3.004   8.589  0.1156 -0.1085  0.6467
 1974TIP3    H127481   4.357   2.964   8.534  1.5033 -1.1359 -0.3744
 1974TIP3    H227482   4.436   2.943   8.662  0.8351 -0.6025  0.1329
 1975TIP3   OH227483   5.388   1.663   8.844  0.2071 -0.3431  0.0596
 1975TIP3    H127484   5.443   1.741   8.838 -0.0881  0.0002  1.3992
 1975TIP3    H227485   5.430   1.600   8.786  0.0360  1.0229 -1.6285
 1976TIP3   OH227486   2.580   4.624   8.553 -0.3776 -0.2429  0.1698
 1976TIP3    H127487   2.522   4.649   8.482 -1.0433  2.2763  1.4912
 1976TIP3    H227488   2.657   4.680   8.542 -0.1462 -0.3900  0.9708
 1977TIP3   OH227489   3.645   1.360   9.294 -0.0090  0.0344 -0.0017
 1977TIP3    H127490   3.677   1.345   9.382 -2.2883  0.0455  0.9066
 1977TIP3    H227491   3.709   1.418   9.254  0.3373  1.2318  2.1699
 1978TIP3   OH227492   2.999   0.281   0.397  0.1296 -0.2874 -0.6051
 1978TIP3    H127493   3.049   0.362   0.408  0.5491 -0.5409 -0.6443
 1978TIP3    H227494   3.032   0.243   0.316  0.4241 -0.8494 -0.2239
 1979TIP3   OH227495   5.331   3.112   6.781  0.0759 -0.1574 -0.3194
 1979TIP3    H127496   5.334   3.188   6.839  1.0230 -0.0119 -0.5405
 1979TIP3    H227497   5.406   3.123   6.724  0.4116 -1.4196 -0.1543
 1980TIP3   OH227498   1.208   4.701   6.926  0.2113 -0.4949 -0.8553
 1980TIP3    H127499   1.239   4.631   6.984 -0.9939 -0.8302 -0.5831
 1980TIP3    H227500   1.264   4.695   6.849  0.1648 -1.7436 -0.8166
 1981TIP3   OH227501   3.174   1.644   1.090  0.1641  0.0337  0.1103
 1981TIP3    H127502   3.212   1.560   1.115 -1.7783 -1.0670 -0.4153
 1981TIP3    H227503   3.168   1.694   1.172  0.2812 -0.8035  0.6370
 1982TIP3   OH227504   3.797   2.840   0.197 -0.3560  0.5747  0.3405
 1982TIP3    H127505   3.701   2.843   0.198 -0.4699 -1.5248  0.4095
 1982TIP3    H227506   3.820   2.789   0.274  0.6793 -0.7462 -0.7764
 1983TIP3   OH227507   6.100   5.486   7.849  0.1866  0.4944 -0.1508
 1983TIP3    H127508   6.093   5.566   7.797 -0.8158  0.3857 -0.2052
 1983TIP3    H227509   6.174   5.501   7.907  1.1143  0.7578 -1.3547
 1984TIP3   OH227510   5.787   2.185   0.128 -0.1327 -0.1516 -0.1741
 1984TIP3    H127511   5.873   2.150   0.151  0.5271  0.4907 -1.5920
 1984TIP3    H227512   5.731   2.108   0.120  0.6334 -0.6783 -0.5318
 1985TIP3   OH227513   1.950   6.341   0.347 -0.3370  0.0659  0.6124
 1985TIP3    H127514   2.003   6.354   0.268  1.2366  1.0514  1.7641
 1985TIP3    H227515   1.889   6.415   0.347 -1.1616 -0.5888 -0.2622
 1986TIP3   OH227516   3.192   0.620   8.922  0.3682 -0.4060 -0.6271
 1986TIP3    H127517   3.145   0.703   8.929 -0.1886 -0.6278 -1.6096
 1986TIP3    H227518   3.171   0.588   8.835  1.6381 -0.9465 -0.7526
 1987TIP3   OH227519   2.136   1.864   0.461  0.0550 -0.3124  0.1112
 1987TIP3    H127520   2.109   1.807   0.388  1.3746 -0.7073 -0.1040
 1987TIP3    H227521   2.152   1.803   0.533  1.4251 -0.2385 -0.1028
 1988TIP3   OH227522   5.362   3.377   7.476  0.1284  0.1867  0.2237
 1988TIP3    H127523   5.433   3.326   7.437  2.2808  1.9431  1.5612
 1988TIP3    H227524   5.384   3.382   7.569 -1.3608  1.4217  0.5526
 1989TIP3   OH227525   1.899   0.013   8.245  0.7669 -0.1895 -1.1406
 1989TIP3    H127526   1.855  -0.071   8.237  1.8452 -0.8724 -0.1210
 1989TIP3    H227527   1.840   0.075   8.202  0.9739 -1.7774 -3.9552
 1990TIP3   OH227528   4.312   3.276   9.072  0.1345 -0.3123 -0.1605
 1990TIP3    H127529   4.291   3.237   8.987  2.6378 -1.5940 -0.2535
 1990TIP3    H227530   4.244   3.242   9.131 -2.9979  2.2846 -1.8989
 1991TIP3   OH227531   4.644   2.944   9.110 -0.0183 -0.5074  0.2040
 1991TIP3    H127532   4.575   2.935   9.176 -1.1690 -0.0849 -0.9070
 1991TIP3    H227533   4.629   3.030   9.071  1.1004 -0.4413 -0.1216
 1992TIP3   OH227534   4.456   4.766   7.486  0.2654 -0.2794  0.3819
 1992TIP3    H127535   4.455   4.802   7.398  2.2167 -0.4260  0.2540
 1992TIP3    H227536   4.444   4.672   7.474  1.9094 -0.4906  0.0988
 1993TIP3   OH227537   4.343   0.551   0.868  0.1719 -0.0111  0.0944
 1993TIP3    H127538   4.415   0.540   0.805  0.0571 -0.1079 -0.0203
 1993TIP3    H227539   4.338   0.466   0.913  0.3705  0.1144  0.3598
 1994TIP3   OH227540   2.986   0.060   7.348 -0.1283  0.0177 -0.5678
 1994TIP3    H127541   2.936  -0.016   7.318 -1.8912  0.9075 -0.0107
 1994TIP3    H227542   3.072   0.050   7.308 -0.7782 -1.5298 -1.6412
 1995TIP3   OH227543   0.447   4.864   8.335 -0.1580 -0.0255 -0.3826
 1995TIP3    H127544   0.354   4.842   8.338 -0.2893  0.6329  1.0618
 1995TIP3    H227545   0.465   4.903   8.420  1.4382 -0.0988 -0.6616
 1996TIP3   OH227546   0.113   6.444   9.263 -0.1630 -0.2776 -0.2207
 1996TIP3    H127547   0.157   6.392   9.330 -1.3639 -0.5658  0.3706
 1996TIP3    H227548   0.131   6.398   9.181  1.8162  0.4002 -0.2201
 1997TIP3   OH227549   6.009   4.780   1.642 -0.5099  0.2672 -0.6324
 1997TIP3    H127550   6.102   4.783   1.667 -0.7554  0.6164  0.3019
 1997TIP3    H227551   5.984   4.872   1.633 -1.0697  0.2316  0.3677
 1998TIP3   OH227552   5.006   1.851   7.937  0.4624 -0.1735  0.2892
 1998TIP3    H127553   5.056   1.928   7.912 -0.9039  0.5343 -0.3458
 1998TIP3    H227554   5.007   1.795   7.860  0.5436 -0.3205  0.3947
 1999TIP3   OH227555   4.249   4.629   8.677  0.0356 -0.3785 -0.3411
 1999TIP3    H127556   4.282   4.660   8.762  0.1785 -0.1749 -0.4680
 1999TIP3    H227557   4.178   4.690   8.656 -0.3205 -0.7226 -0.1425
 2000TIP3   OH227558   1.079   2.551   1.495 -0.1729 -0.7948  0.4251
 2000TIP3    H127559   1.029   2.547   1.413 -0.6058 -0.6022  0.6762
 2000TIP3    H227560   1.098   2.459   1.515 -2.1056 -1.0601  1.3239
 2001TIP3   OH227561   4.892   0.389   8.149  0.0094 -0.0213 -0.3381
 2001TIP3    H127562   4.941   0.471   8.142 -0.5561  0.2544 -1.2319
 2001TIP3    H227563   4.903   0.348   8.063 -0.5887 -0.3742 -0.2486
 2002TIP3   OH227564   5.293   1.151   1.405  0.1059  0.1782 -0.3119
 2002TIP3    H127565   5.279   1.087   1.335  0.3264  0.8736 -1.0041
 2002TIP3    H227566   5.361   1.210   1.371 -2.2782  2.7209 -1.1105
 2003TIP3   OH227567   5.242   1.131   8.023 -0.1981 -0.1815  0.1917
 2003TIP3    H127568   5.224   1.038   8.040  1.3176 -0.3226  1.1560
 2003TIP3    H227569   5.337   1.137   8.015 -0.2721  1.2892  0.0627
 2004TIP3   OH227570   6.065   1.809   1.181 -0.8530  0.0023  0.5142
 2004TIP3    H127571   6.104   1.750   1.246  0.5190  0.5062  0.1663
 2004TIP3    H227572   6.089   1.771   1.097 -0.6019  0.6543  0.2889
 2005TIP3   OH227573   3.404   1.909   7.784 -0.5877 -0.0788 -0.2950
 2005TIP3    H127574   3.350   1.960   7.722 -0.2973  0.0284 -0.4616
 2005TIP3    H227575   3.476   1.968   7.806  0.7720 -1.0608 -1.9140
 2006TIP3   OH227576   1.475   0.915   9.200 -0.4291 -0.2196  0.0067
 2006TIP3    H127577   1.497   0.976   9.130 -0.4814  0.2807  0.4286
 2006TIP3    H227578   1.516   0.833   9.173 -1.6822 -0.4512 -1.3560
 2007TIP3   OH227579   2.176   0.962   0.123  0.4288  0.8411  0.4674
 2007TIP3    H127580   2.188   0.948   0.217  0.9133  2.4082  0.6634
 2007TIP3    H227581   2.120   0.889   0.095  0.4609  0.2269  1.9177
 2008TIP3   OH227582   3.131   4.779   8.373  0.5495 -0.2560  0.5276
 2008TIP3    H127583   3.147   4.849   8.311  1.2449  0.0286  1.0226
 2008TIP3    H227584   3.187   4.707   8.344 -0.2392 -0.6624 -0.0404
 2009TIP3   OH227585   0.405   4.997   8.634 -0.2688 -0.0498  0.5703
 2009TIP3    H127586   0.327   5.039   8.670 -0.2623  0.0948  0.4189
 2009TIP3    H227587   0.463   5.071   8.613 -0.5617 -0.0944 -0.4144
 2010TIP3   OH227588   6.307   5.028   1.112  0.3108  0.3061  0.0301
 2010TIP3    H127589   6.358   5.048   1.034 -0.6159 -0.7622 -0.8625
 2010TIP3    H227590   6.219   5.062   1.094 -0.0752 -0.4974  0.3516
 2011TIP3   OH227591   5.391   3.179   1.412  0.2000 -0.1655 -0.1230
 2011TIP3    H127592   5.315   3.123   1.431  0.3675 -0.6207 -0.7468
 2011TIP3    H227593   5.353   3.265   1.397 -0.0440 -0.0649  1.0322
 2012TIP3   OH227594   1.851   5.260   8.786 -0.1389  0.3593 -0.2218
 2012TIP3    H127595   1.824   5.268   8.694  0.6321  2.0636 -0.3449
 2012TIP3    H227596   1.814   5.338   8.828  3.7215  2.4401 -0.2403
 2013TIP3   OH227597   2.122   0.907   7.253 -0.2287  0.1842  0.5913
 2013TIP3    H127598   2.056   0.857   7.204 -0.8248 -0.5371  2.0646
 2013TIP3    H227599   2.199   0.908   7.195 -1.3566  0.6565 -0.9785
 2014TIP3   OH227600   1.081   4.089   8.922  0.3682  0.3075  0.2968
 2014TIP3    H127601   0.993   4.068   8.891 -0.0564  0.7539  1.1434
 2014TIP3    H227602   1.102   4.020   8.984  1.9542 -1.6131 -2.1842
 2015TIP3   OH227603   5.542   1.566   7.496  0.1317  0.2719 -0.1362
 2015TIP3    H127604   5.556   1.558   7.402 -0.9644  0.6307 -0.3521
 2015TIP3    H227605   5.448   1.551   7.507  0.4943 -1.4312  1.1013
 2016TIP3   OH227606   3.662   3.025   1.609  0.2329  0.3052 -0.7765
 2016TIP3    H127607   3.704   3.054   1.690 -2.1310 -0.2521  0.7421
 2016TIP3    H227608   3.673   2.929   1.609 -0.0097  0.2761 -0.9683
 2017TIP3   OH227609   1.283   4.610   0.787 -0.2188 -0.5160 -0.3271
 2017TIP3    H127610   1.267   4.703   0.804  2.9365  0.0299  0.2818
 2017TIP3    H227611   1.199   4.568   0.803 -1.1250  1.8872  1.9655
 2018TIP3   OH227612   2.635   5.405   0.300  0.1174 -0.0530  0.1933
 2018TIP3    H127613   2.585   5.425   0.379 -0.0435 -1.7990  0.5803
 2018TIP3    H227614   2.569   5.373   0.238  0.4115  0.0968 -0.2003
 2019TIP3   OH227615   3.814   3.669   0.226  0.1743 -0.5350 -1.0772
 2019TIP3    H127616   3.756   3.691   0.299 -0.0596 -1.3008 -1.0197
 2019TIP3    H227617   3.865   3.748   0.211 -1.0665  0.2542 -1.3047
 2020TIP3   OH227618   4.398   6.367   1.680 -0.3584  0.4774 -0.0617
 2020TIP3    H127619   4.327   6.310   1.651  1.3630 -1.5541 -0.5528
 2020TIP3    H227620   4.421   6.336   1.767 -0.4378  1.4995  0.3361
 2021TIP3   OH227621   4.657   3.604   8.316  0.7810 -0.6172 -0.6209
 2021TIP3    H127622   4.590   3.629   8.379 -0.3973 -1.6592 -1.4179
 2021TIP3    H227623   4.738   3.641   8.351  0.7990 -3.6654  3.1212
 2022TIP3   OH227624   0.186   2.040   7.479 -0.3829 -0.6343  0.2319
 2022TIP3    H127625   0.269   2.069   7.442 -1.0301  0.7999 -0.1457
 2022TIP3    H227626   0.190   1.944   7.474  2.3217 -0.7713  2.6138
 2023TIP3   OH227627   3.048   2.256   1.635 -0.4467 -0.0322  0.6637
 2023TIP3    H127628   3.084   2.324   1.578  0.0610  1.3342  2.5099
 2023TIP3    H227629   3.055   2.293   1.723 -2.0516 -1.6740  1.5401
 2024TIP3   OH227630   4.799   1.031   7.949  0.6937  0.7049 -0.0418
 2024TIP3    H127631   4.719   0.996   7.987  2.0146 -1.0907  1.2586
 2024TIP3    H227632   4.830   1.095   8.013 -0.3305  2.3900 -1.1642
 2025TIP3   OH227633   0.040   1.877   8.987  0.1844  0.7000 -0.6151
 2025TIP3    H127634   0.017   1.942   8.921 -1.0194  1.4842  0.5203
 2025TIP3    H227635   0.030   1.923   9.071  1.1427 -0.4109  0.1465
 2026TIP3   OH227636   1.817   2.860   2.093 -0.0095 -0.2053 -0.6442
 2026TIP3    H127637   1.819   2.956   2.084  1.2591 -0.1245  0.1486
 2026TIP3    H227638   1.910   2.835   2.094 -0.3089 -1.3459  0.0963
 2027TIP3   OH227639   4.746   1.664   0.699  0.1874 -0.1177  0.5356
 2027TIP3    H127640   4.801   1.740   0.718  0.0108  0.0755  0.2772
 2027TIP3    H227641   4.659   1.701   0.683  0.3167 -0.2783 -0.6072
 2028TIP3   OH227642   3.018   3.286   1.610 -0.2753 -0.3517 -0.9379
 2028TIP3    H127643   2.962   3.264   1.536 -0.6544  2.5079 -1.6208
 2028TIP3    H227644   3.071   3.360   1.579 -0.8355  1.3242  1.7227
 2029TIP3   OH227645   3.020   6.283   0.837 -0.1778 -0.5545 -0.4077
 2029TIP3    H127646   3.047   6.343   0.767  0.5126  1.4453  1.4666
 2029TIP3    H227647   3.095   6.281   0.896 -0.6287 -2.4365  0.1681
 2030TIP3   OH227648   3.742   0.899   0.985 -0.4354  0.1202  0.1271
 2030TIP3    H127649   3.774   0.886   0.896  0.3424 -0.7286  0.5166
 2030TIP3    H227650   3.818   0.880   1.041 -1.8067 -2.9355  1.1392
 2031TIP3   OH227651   1.558   2.951   0.962 -0.1898 -0.5485  0.3168
 2031TIP3    H127652   1.624   2.971   1.029 -0.1448  0.2505  0.0516
 2031TIP3    H227653   1.594   2.989   0.881  0.1022 -2.1422 -0.3295
 2032TIP3   OH227654   2.997   4.806   7.167 -0.1646 -0.2217  0.3850
 2032TIP3    H127655   3.081   4.770   7.195 -0.2891 -0.1813  0.8064
 2032TIP3    H227656   2.992   4.783   7.074  0.0851 -0.6589  0.4753
 2033TIP3   OH227657   3.981   0.111   1.545 -0.0734  0.3185  0.4620
 2033TIP3    H127658   4.014   0.056   1.617  0.4875  1.1781  0.8726
 2033TIP3    H227659   3.894   0.139   1.575 -0.0552  0.2595  0.5720
 2034TIP3   OH227660   5.156   2.764   0.265  0.6171  0.4374 -0.0279
 2034TIP3    H127661   5.110   2.828   0.211  1.3666  0.0384 -1.1742
 2034TIP3    H227662   5.240   2.806   0.284  0.8239  0.0852 -0.1716
 2035TIP3   OH227663   1.026   2.212   0.044 -0.2174  0.2463 -0.6604
 2035TIP3    H127664   1.000   2.246   0.130  0.8280 -1.0715  0.2209
 2035TIP3    H227665   1.022   2.288  -0.014 -0.1383  1.3569  0.7234
 2036TIP3   OH227666   2.870   0.008   8.407 -0.2318  0.1453 -0.3912
 2036TIP3    H127667   2.836   0.094   8.384 -0.0555  0.4146  0.3223
 2036TIP3    H227668   2.933  -0.013   8.338 -1.7686 -0.3456 -1.7137
 2037TIP3   OH227669   5.859   4.771   0.039 -0.7633  0.0817 -0.4243
 2037TIP3    H127670   5.783   4.825   0.061 -0.1778  1.4548 -1.6021
 2037TIP3    H227671   5.822   4.686   0.015 -1.8887  0.5592 -0.4545
 2038TIP3   OH227672   0.812   6.293   1.058 -0.3262  0.2193 -0.3224
 2038TIP3    H127673   0.792   6.385   1.074 -2.5999 -0.2698 -0.0611
 2038TIP3    H227674   0.740   6.245   1.099  0.6329 -1.6720 -0.7321
 2039TIP3   OH227675   0.827   6.621   0.687 -0.8374 -0.3789 -0.0530
 2039TIP3    H127676   0.790   6.538   0.717 -2.0393  0.1773  0.0742
 2039TIP3    H227677   0.904   6.597   0.636 -1.4495 -1.5954 -0.4306
 2040TIP3   OH227678   0.320   5.897   1.010  0.1162  0.2969  0.5689
 2040TIP3    H127679   0.353   5.879   1.098 -1.3825  0.5778  1.2158
 2040TIP3    H227680   0.298   5.990   1.012 -0.3401  0.2033  0.0439
 2041TIP3   OH227681   5.994   4.525   9.105 -0.0915 -0.8326  0.3055
 2041TIP3    H127682   6.035   4.440   9.092  1.1226 -0.4029  1.1963
 2041TIP3    H227683   6.020   4.552   9.193 -1.1548  0.0836  0.3646
 2042TIP3   OH227684   2.822   1.387   7.819  0.2451  0.0592  0.1025
 2042TIP3    H127685   2.761   1.461   7.818  0.1020 -0.0522 -0.6638
 2042TIP3    H227686   2.835   1.366   7.726  0.5730 -0.6362  0.2958
 2043TIP3   OH227687   4.471   5.860   0.922  0.1042  0.0034  0.3368
 2043TIP3    H127688   4.402   5.811   0.878  1.4760 -0.5884 -1.2314
 2043TIP3    H227689   4.424   5.919   0.982 -1.8156  0.2750 -1.3359
 2044TIP3   OH227690   4.580   2.255   8.191 -0.0023 -0.5866  0.1119
 2044TIP3    H127691   4.633   2.318   8.142 -3.3221  2.2834 -0.2077
 2044TIP3    H227692   4.513   2.227   8.129 -1.6114 -0.3938  1.6915
 2045TIP3   OH227693   3.845   2.640   8.540 -0.5424 -0.0267 -0.4171
 2045TIP3    H127694   3.935   2.625   8.567 -0.4584 -0.0057 -0.6785
 2045TIP3    H227695   3.820   2.723   8.582 -0.9033 -0.7220  0.7734
 2046TIP3   OH227696   6.315   3.225   1.047  0.6336  0.2827  0.1292
 2046TIP3    H127697   6.410   3.231   1.037  0.5758 -0.0328 -0.6556
 2046TIP3    H227698   6.282   3.308   1.014  0.7196  1.0862  1.9138
 2047TIP3   OH227699   4.910   1.864   7.182 -0.2272  0.3236  0.1676
 2047TIP3    H127700   4.932   1.775   7.156  1.3465  0.5439  0.6392
 2047TIP3    H227701   4.909   1.914   7.100 -2.4540 -0.3246 -0.2842
 2048TIP3   OH227702   2.660   4.884   0.617  0.6166  0.0022  0.2873
 2048TIP3    H127703   2.691   4.885   0.526  2.0990  1.1666  0.7477
 2048TIP3    H227704   2.720   4.824   0.662 -0.5626 -1.1341  0.3709
 2049TIP3   OH227705   3.828   5.696   0.722  0.3427 -0.1326 -0.1788
 2049TIP3    H127706   3.888   5.673   0.651 -0.2566  2.8941 -1.8279
 2049TIP3    H227707   3.748   5.649   0.702  1.0668 -1.6003  0.2013
 2050TIP3   OH227708   4.508   4.525   8.441  0.3777  0.0824 -0.4018
 2050TIP3    H127709   4.462   4.544   8.523 -0.4448 -1.6712 -0.4162
 2050TIP3    H227710   4.450   4.558   8.373  0.5464  0.5496 -0.3223
 2051TIP3   OH227711   1.132   3.357   9.103 -0.7414  0.5160  0.6189
 2051TIP3    H127712   1.215   3.375   9.059 -1.6516 -0.9939 -1.9355
 2051TIP3    H227713   1.156   3.299   9.176  0.5321  0.7728  0.4338
 2052TIP3   OH227714   5.990   2.356   9.313  0.4729 -0.4774  0.0043
 2052TIP3    H127715   5.968   2.424   9.249 -0.7570 -0.6388  0.2283
 2052TIP3    H227716   5.909   2.305   9.323  0.3014  0.1414  2.4092
 2053TIP3   OH227717   0.860   1.705   1.248  0.4708 -0.0709 -0.4797
 2053TIP3    H127718   0.783   1.733   1.296  0.3008 -0.3840 -0.5693
 2053TIP3    H227719   0.830   1.693   1.158  0.7532  0.3681 -0.6350
 2054TIP3   OH227720   4.299   4.090   7.779  0.6094  0.3251  0.0420
 2054TIP3    H127721   4.327   4.170   7.734 -1.1903  0.9764 -0.0090
 2054TIP3    H227722   4.320   4.020   7.718  0.7727  0.9112 -0.5894
 2055TIP3   OH227723   6.605   3.442   7.564 -0.4387  0.2612  0.5867
 2055TIP3    H127724   6.596   3.414   7.473 -0.4438  1.5700  0.1692
 2055TIP3    H227725   6.653   3.524   7.559  2.5338 -1.2296  2.0002
 2056TIP3   OH227726   5.360   5.868   8.693  0.4538 -0.2209 -0.4396
 2056TIP3    H127727   5.350   5.780   8.658  1.6713 -0.2000 -0.9099
 2056TIP3    H227728   5.424   5.910   8.635  0.5391  0.6842  0.2770
 2057TIP3   OH227729   5.943   5.359   0.530  0.0333 -0.1623 -0.0474
 2057TIP3    H127730   6.032   5.370   0.498  1.1272 -1.6686  2.2673
 2057TIP3    H227731   5.930   5.431   0.591 -0.7805  0.6877 -1.1828
 2058TIP3   OH227732   0.315   2.327   8.075 -0.5288  0.8165  0.0398
 2058TIP3    H127733   0.387   2.376   8.115  0.0254 -0.5284  0.7586
 2058TIP3    H227734   0.315   2.354   7.983 -0.9163  2.9135  0.6210
 2059TIP3   OH227735   1.096   3.948   1.464  0.3775 -0.2826 -0.5871
 2059TIP3    H127736   1.173   3.895   1.447  0.8125  0.1314  0.0443
 2059TIP3    H227737   1.099   3.966   1.558 -0.8391 -0.7954 -0.4384
 2060TIP3   OH227738   5.677   3.007   1.020  0.1147  0.0471 -0.2698
 2060TIP3    H127739   5.691   2.970   0.932 -2.1569 -1.2267 -0.1745
 2060TIP3    H227740   5.706   2.938   1.080  2.5444  1.2646  0.0926
 2061TIP3   OH227741   3.183   1.799   0.119 -0.2519 -0.1230 -0.3163
 2061TIP3    H127742   3.136   1.768   0.196  1.0157 -1.9475 -0.2185
 2061TIP3    H227743   3.136   1.762   0.045  0.6406 -1.4617 -0.2408
 2062TIP3   OH227744   5.497   0.139   1.436  0.3468 -0.3210  0.1543
 2062TIP3    H127745   5.495   0.044   1.447 -1.8062 -0.3777 -0.2027
 2062TIP3    H227746   5.480   0.152   1.343 -0.7381  0.4027  0.4331
 2063TIP3   OH227747   4.544   4.593   7.157  0.6187 -0.0568 -0.2170
 2063TIP3    H127748   4.557   4.520   7.218  1.4392  0.5309  0.3314
 2063TIP3    H227749   4.578   4.561   7.074  1.7290 -0.0305  0.2150
 2064TIP3   OH227750   5.984   6.057   0.255 -0.0261  0.5087  0.7246
 2064TIP3    H127751   5.961   5.967   0.233 -0.6954  0.1164  2.8148
 2064TIP3    H227752   6.003   6.098   0.170  0.8791 -1.7208 -0.2433
 2065TIP3   OH227753   0.039   3.765   8.116  0.7089  0.1934  0.7101
 2065TIP3    H127754   0.119   3.715   8.132  0.3971  0.0420  1.9947
 2065TIP3    H227755  -0.029   3.698   8.108  0.6251  0.3392  0.2078
 2066TIP3   OH227756   4.858   5.550   8.326 -0.7263  0.2528 -0.0011
 2066TIP3    H127757   4.890   5.503   8.403 -0.1092 -0.3374 -0.6152
 2066TIP3    H227758   4.909   5.515   8.253 -3.0636 -1.0433 -1.0959
 2067TIP3   OH227759   1.711   5.180   9.252 -0.0125 -0.3915 -0.3798
 2067TIP3    H127760   1.776   5.158   9.186  0.8931 -0.3338  0.4656
 2067TIP3    H227761   1.653   5.243   9.209  0.3420 -0.6297 -1.2222
 2068TIP3   OH227762   1.935   6.280   8.474 -0.6395  0.0038 -0.2581
 2068TIP3    H127763   2.018   6.305   8.514 -0.1540  0.1989 -1.3520
 2068TIP3    H227764   1.869   6.327   8.524  0.0859  1.7014 -0.8149
 2069TIP3   OH227765   5.620   2.984   0.172 -0.2041  0.1940 -0.1044
 2069TIP3    H127766   5.663   3.038   0.107 -0.1206 -2.4020 -2.3965
 2069TIP3    H227767   5.689   2.964   0.236 -0.5361  3.5594  1.4843
 2070TIP3   OH227768   3.770   1.159   8.941  0.2663  0.1261  0.2928
 2070TIP3    H127769   3.736   1.177   8.854  1.5374  0.7496 -0.0954
 2070TIP3    H227770   3.843   1.099   8.927 -0.4708 -1.0102  1.0842
 2071TIP3   OH227771   0.375   3.093   7.286  0.7248  0.0093  0.0127
 2071TIP3    H127772   0.412   3.055   7.365 -0.0993 -0.9307 -0.0278
 2071TIP3    H227773   0.446   3.144   7.248  1.2132  0.2535  1.2092
 2072TIP3   OH227774   3.742   3.801   1.285 -0.0219 -0.0226 -0.0733
 2072TIP3    H127775   3.804   3.855   1.333 -1.7565  0.0503  2.2416
 2072TIP3    H227776   3.769   3.711   1.303  0.8757 -0.0041 -1.1909
 2073TIP3   OH227777   3.922   3.364   7.843  0.6878  0.6092  0.4828
 2073TIP3    H127778   3.834   3.368   7.806  1.1340  2.6169 -0.4673
 2073TIP3    H227779   3.916   3.411   7.926  0.9231  1.1113  0.2249
 2074TIP3   OH227780   1.032   1.568   7.875 -0.1534 -0.2774  0.1581
 2074TIP3    H127781   1.066   1.651   7.841 -1.3213 -0.5009 -1.6901
 2074TIP3    H227782   1.082   1.501   7.828 -0.4217 -0.6196  0.3549
 2075TIP3   OH227783   6.373   2.913   2.723  0.4377 -0.5250  0.6157
 2075TIP3    H127784   6.352   2.972   2.650  2.2619  0.2594  0.6735
 2075TIP3    H227785   6.288   2.879   2.751 -0.4068 -0.1550 -1.2822
 2076TIP3   OH227786   0.347   5.445   7.101  0.7425 -0.2467  0.2452
 2076TIP3    H127787   0.304   5.530   7.106 -2.2046 -1.6149  0.2221
 2076TIP3    H227788   0.400   5.449   7.022  2.4073  2.2243  1.3773
 2077TIP3   OH227789   4.741   0.753   8.919 -0.4560  0.1526 -0.1213
 2077TIP3    H127790   4.755   0.752   9.013  1.3345 -1.6369 -0.3581
 2077TIP3    H227791   4.828   0.764   8.881 -1.1618  0.9881 -1.5825
 2078TIP3   OH227792   0.242   4.931   9.122  0.1516 -0.1562 -0.2956
 2078TIP3    H127793   0.179   4.867   9.155 -0.1550  0.9495  1.3321
 2078TIP3    H227794   0.323   4.911   9.170 -0.0464  0.8984  0.4853
 2079TIP3   OH227795   2.272   0.021   9.206 -0.1157 -0.8356 -0.5862
 2079TIP3    H127796   2.225   0.042   9.286 -1.9256 -0.9687 -1.5725
 2079TIP3    H227797   2.213   0.047   9.136 -0.9068 -5.5137 -1.9252
 2080TIP3   OH227798   3.891   6.371   8.456  0.6081  0.1473  0.6514
 2080TIP3    H127799   3.930   6.453   8.428  0.2719  0.0751 -0.0256
 2080TIP3    H227800   3.871   6.324   8.375 -1.0611  0.2561  0.9717
 2081TIP3   OH227801   4.672   4.027   7.269 -0.1483 -0.0476  0.6097
 2081TIP3    H127802   4.622   4.067   7.198 -0.8119 -1.1338  0.4465
 2081TIP3    H227803   4.763   4.035   7.242 -0.3546  0.1845 -0.0285
 2082TIP3   OH227804   3.556   0.899   8.111 -0.0563 -0.0213  0.1554
 2082TIP3    H127805   3.496   0.968   8.083 -0.4444 -1.6051 -3.4772
 2082TIP3    H227806   3.524   0.820   8.068  2.3090 -1.8100  1.4006
 2083TIP3   OH227807   2.484   5.616   7.588 -0.0809  0.1344  0.0836
 2083TIP3    H127808   2.460   5.610   7.495  0.7445  0.8100 -0.1874
 2083TIP3    H227809   2.509   5.707   7.600 -1.5038  0.3980  1.3224
 2084TIP3   OH227810   3.548   4.796   1.334  0.8275 -0.1548 -0.0391
 2084TIP3    H127811   3.637   4.765   1.316  1.2904  0.8228  0.4576
 2084TIP3    H227812   3.561   4.873   1.391 -0.3473 -0.1632  0.2607
 2085TIP3   OH227813   3.797   4.590   2.002 -0.1457  0.0491 -0.5398
 2085TIP3    H127814   3.814   4.520   1.938  2.0678  0.1031 -0.1193
 2085TIP3    H227815   3.849   4.663   1.970 -1.0223  0.9185 -0.0019
 2086TIP3   OH227816   5.188   4.564   7.704 -0.2818  0.5288  0.0798
 2086TIP3    H127817   5.153   4.486   7.661  1.6145  0.1434 -0.8715
 2086TIP3    H227818   5.239   4.530   7.777 -0.3671  0.9588  0.3432
 2087TIP3   OH227819   5.666   3.277   6.932 -0.4512 -0.1996  0.1450
 2087TIP3    H127820   5.687   3.346   6.995  0.0384 -0.6073  0.4317
 2087TIP3    H227821   5.591   3.311   6.884  0.0929  0.7448 -0.0543
 2088TIP3   OH227822   1.436   0.366   1.445 -0.4439  0.2308 -0.4923
 2088TIP3    H127823   1.511   0.405   1.489 -1.1967  2.2653 -0.8879
 2088TIP3    H227824   1.367   0.364   1.512 -0.4946 -0.1622 -0.5547
 2089TIP3   OH227825   4.777   6.140   9.030  0.2246  0.3456 -0.2703
 2089TIP3    H127826   4.760   6.133   9.124 -0.1227  1.0193 -0.2715
 2089TIP3    H227827   4.695   6.174   8.994  0.7095  1.1271 -0.6568
 2090TIP3   OH227828   1.688   5.936   2.452 -0.2003 -0.0483 -0.4508
 2090TIP3    H127829   1.636   5.872   2.500 -1.9317  1.4788 -0.1905
 2090TIP3    H227830   1.717   5.998   2.519 -0.0013  0.3936 -0.9420
 2091TIP3   OH227831   3.883   0.288   1.016  0.2494 -0.3514 -0.6707
 2091TIP3    H127832   3.865   0.276   1.109  2.6085  0.3958 -0.0493
 2091TIP3    H227833   3.820   0.355   0.988  0.6880  0.7589  0.8612
 2092TIP3   OH227834   5.790   5.147   7.366  0.1594  0.0942 -0.0167
 2092TIP3    H127835   5.734   5.150   7.288  0.9947  2.1414 -0.6073
 2092TIP3    H227836   5.878   5.133   7.332  0.4036 -0.0846  0.6679
 2093TIP3   OH227837   1.158   5.121   2.148  0.3424  0.4036  0.1912
 2093TIP3    H127838   1.128   5.211   2.138  1.4171  0.7424 -0.0807
 2093TIP3    H227839   1.121   5.074   2.074 -3.4262 -0.3060  2.2799
 2094TIP3   OH227840   2.559   2.073   2.234  0.1966 -0.1638 -0.0461
 2094TIP3    H127841   2.468   2.101   2.239  0.3839  0.2359  1.4979
 2094TIP3    H227842   2.607   2.153   2.213  0.3158 -0.1004  0.4493
 2095TIP3   OH227843   0.003   2.204   0.857  0.2742 -0.1038 -0.3402
 2095TIP3    H127844   0.010   2.203   0.952 -0.2241  0.3055 -0.2934
 2095TIP3    H227845   0.085   2.165   0.826  1.0181  0.9311  0.2370
 2096TIP3   OH227846   1.573   0.061   7.491 -0.0670 -0.3554 -0.4532
 2096TIP3    H127847   1.506   0.122   7.463  0.7150  1.1563  0.8155
 2096TIP3    H227848   1.609   0.025   7.410 -0.1506  1.3147 -1.2645
 2097TIP3   OH227849   3.992   1.636   8.116 -0.3215 -0.0126  0.4061
 2097TIP3    H127850   3.966   1.712   8.064 -1.8540  0.0556  1.2201
 2097TIP3    H227851   4.064   1.596   8.066 -0.8066  0.8456 -1.0277
 2098TIP3   OH227852   5.708   3.180   7.430  0.1457  0.0446 -0.4632
 2098TIP3    H127853   5.757   3.227   7.363  1.8046 -0.5245  0.3048
 2098TIP3    H227854   5.741   3.090   7.425 -0.0288 -0.1020  0.8089
 2099TIP3   OH227855   0.028   0.781   8.907 -0.5453  0.0776 -0.6458
 2099TIP3    H127856   0.050   0.688   8.917 -2.3114 -0.4645 -1.4413
 2099TIP3    H227857  -0.046   0.795   8.966  1.3895  1.7223  1.5917
 2100TIP3   OH227858   2.236   1.099   8.332  0.1851 -0.2540 -0.2952
 2100TIP3    H127859   2.211   1.089   8.424  0.3541  1.2855 -0.0599
 2100TIP3    H227860   2.301   1.030   8.317 -0.8595 -1.4185  0.3261
 2101TIP3   OH227861   1.525   3.913   1.510  0.2292 -0.5279 -0.7985
 2101TIP3    H127862   1.585   3.848   1.547 -0.1297 -0.1613  0.4659
 2101TIP3    H227863   1.569   3.944   1.431  1.2850 -0.9303 -0.3850
 2102TIP3   OH227864   5.807   2.594   1.308  0.2500  0.3807  0.7268
 2102TIP3    H127865   5.761   2.650   1.371 -0.7337  1.1773 -0.6477
 2102TIP3    H227866   5.787   2.505   1.335 -0.8137  0.7142  1.0734
 2103TIP3   OH227867   4.331   2.746   7.882 -0.1038  0.3093 -0.3098
 2103TIP3    H127868   4.376   2.711   7.805  0.9247 -0.2305  0.5059
 2103TIP3    H227869   4.241   2.715   7.874 -0.0572  0.4178 -1.3820
 2104TIP3   OH227870   0.052   0.242   8.820  0.6087 -0.6499  0.1682
 2104TIP3    H127871   0.094   0.196   8.892  1.2850 -0.1940  0.0722
 2104TIP3    H227872   0.024   0.325   8.857 -1.1225 -1.3433  0.4869
 2105TIP3   OH227873   3.914   6.592   9.074 -0.0314 -0.1942 -0.3405
 2105TIP3    H127874   3.927   6.671   9.022  4.3585 -0.6590 -0.2671
 2105TIP3    H227875   3.929   6.620   9.164  1.7233 -1.0631 -0.3281
 2106TIP3   OH227876   1.436   3.046   8.976 -0.8630  0.0737 -0.7628
 2106TIP3    H127877   1.464   2.955   8.968 -1.4230 -0.2538  0.6525
 2106TIP3    H227878   1.344   3.046   8.948 -1.3236 -0.1205  0.6629
 2107TIP3   OH227879   0.187   3.269   7.881  0.3119  0.2798  0.3831
 2107TIP3    H127880   0.238   3.312   7.812 -0.7102  0.5605 -0.2316
 2107TIP3    H227881   0.203   3.176   7.868 -2.0400  0.0830 -2.1343
 2108TIP3   OH227882   4.996   3.071   8.116  0.4711 -0.2583  0.1674
 2108TIP3    H127883   5.060   3.055   8.186  0.3284  1.3829  0.7336
 2108TIP3    H227884   4.999   3.166   8.104 -0.4988 -0.3744 -1.1319
 2109TIP3   OH227885   4.066   4.346   0.736 -0.1973  0.3481  0.2090
 2109TIP3    H127886   4.043   4.364   0.827 -1.8882  0.6036 -0.2354
 2109TIP3    H227887   4.140   4.287   0.742 -0.3233  0.2902  1.7567
 2110TIP3   OH227888   1.686   0.641   0.711  0.0598  0.0794 -0.6709
 2110TIP3    H127889   1.598   0.605   0.704 -0.3099  0.5900  0.9709
 2110TIP3    H227890   1.710   0.629   0.803 -0.0403  3.7733 -0.0073
 2111TIP3   OH227891   5.193   3.354   6.668 -0.2040 -0.1007 -0.4609
 2111TIP3    H127892   5.102   3.348   6.698  0.5422 -1.6048  1.7351
 2111TIP3    H227893   5.200   3.285   6.601 -0.5982 -0.2250 -0.3770
 2112TIP3   OH227894   2.197   5.328   0.626 -0.3754 -0.4776  0.0334
 2112TIP3    H127895   2.254   5.352   0.699  0.7402  1.1557 -1.2776
 2112TIP3    H227896   2.229   5.241   0.599 -0.5849 -0.9484  1.2303
 2113TIP3   OH227897   3.119   0.882   1.048  0.3831  0.4258  0.0968
 2113TIP3    H127898   3.084   0.793   1.057 -0.6132  0.8124  0.2598
 2113TIP3    H227899   3.155   0.885   0.960  1.3717 -0.4463  0.4515
 2114TIP3   OH227900   0.262   2.107   0.813  0.3967  0.1974 -0.3680
 2114TIP3    H127901   0.301   2.177   0.866 -1.8440  1.9167 -0.8386
 2114TIP3    H227902   0.276   2.134   0.722 -0.4429  0.0517 -0.5552
 2115TIP3   OH227903   5.147   6.009   1.538  0.3406 -0.1656 -0.9191
 2115TIP3    H127904   5.219   6.008   1.601 -0.4787 -1.1471  0.0267
 2115TIP3    H227905   5.101   5.926   1.551 -0.7077  0.2429 -1.8051
 2116TIP3   OH227906   5.713   4.385   0.645  0.4218 -0.3194  0.6596
 2116TIP3    H127907   5.651   4.453   0.617  1.1784  0.0008 -0.3179
 2116TIP3    H227908   5.682   4.305   0.603  0.6277 -0.1654  0.1987
 2117TIP3   OH227909   0.733   2.501   2.166 -0.2603 -0.0529 -0.2214
 2117TIP3    H127910   0.661   2.564   2.156 -1.3124 -1.1497  0.2469
 2117TIP3    H227911   0.730   2.476   2.258 -0.0253 -0.9873 -0.4617
 2118TIP3   OH227912   3.715   3.337   9.203 -0.1360 -0.1530 -0.6126
 2118TIP3    H127913   3.678   3.414   9.159  0.6949  0.7184  0.1841
 2118TIP3    H227914   3.726   3.364   9.294  0.7234 -1.0237 -0.4422
 2119TIP3   OH227915   2.197   6.453   7.174  0.7114 -0.1755 -0.2522
 2119TIP3    H127916   2.103   6.453   7.189  0.3994  0.3174 -1.9899
 2119TIP3    H227917   2.226   6.367   7.204 -0.4371 -0.6913 -0.5664
 2120TIP3   OH227918   5.169   2.504   8.399 -0.7027  0.1341 -0.3191
 2120TIP3    H127919   5.253   2.530   8.362  0.0804 -0.3513  1.0387
 2120TIP3    H227920   5.171   2.408   8.397  0.3572 -0.0229  2.9190
 2121TIP3   OH227921   5.741   3.182   8.400  1.4130 -0.2767 -0.6764
 2121TIP3    H127922   5.737   3.086   8.398 -2.1433 -0.2574 -0.8224
 2121TIP3    H227923   5.785   3.205   8.318  1.6842 -1.7463 -0.9788
 2122TIP3   OH227924   1.421   2.311   0.195 -0.1428  0.4207  0.5758
 2122TIP3    H127925   1.367   2.333   0.119  0.0444  0.8464  0.5638
 2122TIP3    H227926   1.411   2.386   0.254 -1.7531 -0.6869  1.8049
 2123TIP3   OH227927   5.203   4.281   0.258 -0.2794  0.3457 -0.4570
 2123TIP3    H127928   5.143   4.256   0.328  0.1897  1.2763  0.2901
 2123TIP3    H227929   5.192   4.212   0.192 -2.8361  0.9228 -0.7509
 2124TIP3   OH227930   1.137   2.840   8.493  0.2008  0.1327 -0.1663
 2124TIP3    H127931   1.153   2.747   8.483  0.6423  0.3331 -1.6380
 2124TIP3    H227932   1.135   2.874   8.403 -1.5182  1.2894  0.2537
 2125TIP3   OH227933   4.743   4.445   9.270  0.7108  0.1175  0.2266
 2125TIP3    H127934   4.671   4.425   9.329 -0.6525  1.0009 -1.0820
 2125TIP3    H227935   4.787   4.520   9.311  0.2723  0.2201  0.5199
 2126TIP3   OH227936   2.324   3.419   7.818  0.0238 -0.6124  0.1323
 2126TIP3    H127937   2.257   3.485   7.800  1.0125  0.8742  1.5724
 2126TIP3    H227938   2.277   3.350   7.865 -0.5842  0.2831  0.9001
 2127TIP3   OH227939   5.170   1.575   1.637 -0.3295  0.6801  0.4444
 2127TIP3    H127940   5.142   1.526   1.559  2.2804 -0.5905  0.2032
 2127TIP3    H227941   5.114   1.653   1.637  0.1506  1.2418 -3.2651
 2128TIP3   OH227942   3.301   2.788   0.624 -0.4166  0.4823 -0.1176
 2128TIP3    H127943   3.321   2.851   0.554  0.5116  0.7140  0.3431
 2128TIP3    H227944   3.247   2.721   0.581  0.1819  0.5957 -1.0781
 2129TIP3   OH227945   3.942   1.729   1.977  0.1785 -0.1794 -0.4551
 2129TIP3    H127946   4.007   1.673   1.935  0.4999 -0.1813  0.0458
 2129TIP3    H227947   3.862   1.676   1.980  0.7797 -1.0529  1.0525
 2130TIP3   OH227948   6.095   5.180   2.470  0.5326 -0.0788  0.4240
 2130TIP3    H127949   6.118   5.096   2.509  1.6937 -0.0930 -0.2482
 2130TIP3    H227950   6.083   5.162   2.377 -0.0130  0.3593  0.4013
 2131TIP3   OH227951   2.672   6.604   8.071  0.3488  0.1259  0.5477
 2131TIP3    H127952   2.669   6.692   8.108  0.4323  0.9337 -1.2448
 2131TIP3    H227953   2.736   6.609   8.000  1.2062 -1.7042  1.1215
 2132TIP3   OH227954   4.199   0.795   8.734  0.0169 -0.5881 -0.5830
 2132TIP3    H127955   4.160   0.789   8.646  0.8134 -2.5631 -0.8636
 2132TIP3    H227956   4.285   0.835   8.719 -0.0527 -0.4636 -0.6463
 2133TIP3   OH227957   1.940   4.222   1.264  0.2650  0.5656  0.1577
 2133TIP3    H127958   1.976   4.204   1.351 -0.6873 -0.5799  0.3403
 2133TIP3    H227959   1.977   4.306   1.240  4.3230 -1.1294 -0.3223
 2134TIP3   OH227960   3.878   5.479   7.387 -0.2067 -0.7365  0.4056
 2134TIP3    H127961   3.864   5.506   7.296 -2.1189  0.4913  0.9867
 2134TIP3    H227962   3.946   5.412   7.382 -0.8312 -1.3000 -2.0087
 2135TIP3   OH227963   3.700   3.903   0.724  0.0249  0.7408  0.6207
 2135TIP3    H127964   3.756   3.975   0.694  0.2670  0.8165  1.2401
 2135TIP3    H227965   3.714   3.900   0.819 -0.6110  0.4103  0.7082
 2136TIP3   OH227966   5.337   0.733   6.316 -0.1348 -0.0831 -0.4717
 2136TIP3    H127967   5.403   0.801   6.301 -0.1051 -0.4726 -2.4100
 2136TIP3    H227968   5.362   0.692   6.399  0.4653  1.5364  0.1832
 2137TIP3   OH227969   6.458   5.688   8.088  0.5218  0.5463  0.0072
 2137TIP3    H127970   6.433   5.729   8.006  1.0973  0.6924 -0.1012
 2137TIP3    H227971   6.418   5.742   8.156 -0.8294 -0.1637 -0.1866
 2138TIP3   OH227972   0.130   4.863   7.085 -0.4361  0.2249 -0.2509
 2138TIP3    H127973   0.062   4.799   7.103 -0.8836  0.5104 -0.8961
 2138TIP3    H227974   0.212   4.815   7.097 -0.7613 -0.3443 -0.3053
 2139TIP3   OH227975   3.194   4.317   7.093  0.0851  0.4084  0.2771
 2139TIP3    H127976   3.169   4.291   7.004  2.2616  1.5512 -0.7566
 2139TIP3    H227977   3.278   4.273   7.108  1.0358  2.2479  0.6993
 2140TIP3   OH227978   0.906   4.933   0.881 -0.6274  0.1664  0.7153
 2140TIP3    H127979   0.924   5.024   0.858  0.5267 -0.2239 -0.0465
 2140TIP3    H227980   0.824   4.912   0.836 -1.7507  1.2560  2.1669
 2141TIP3   OH227981   2.038   1.543   0.699  0.2683  0.0619  0.2924
 2141TIP3    H127982   2.109   1.596   0.664  0.4968  0.9605  1.9896
 2141TIP3    H227983   1.994   1.506   0.622  1.8752  0.3799 -0.8167
 2142TIP3   OH227984   6.455   0.867   0.147 -0.0752 -0.2965 -0.1104
 2142TIP3    H127985   6.537   0.902   0.182 -1.2435  1.2846  1.1733
 2142TIP3    H227986   6.423   0.808   0.215 -0.8626  0.4538  0.1829
 2143TIP3   OH227987   5.036   3.038   6.501 -0.1246 -0.4902 -0.7311
 2143TIP3    H127988   5.008   3.052   6.591  0.1155 -2.7569 -0.2433
 2143TIP3    H227989   4.956   3.047   6.449 -0.5598 -0.6459 -0.1002
 2144TIP3   OH227990   4.943   1.671   7.705 -0.0605  0.5804  0.1608
 2144TIP3    H127991   4.869   1.612   7.702 -0.5092  1.0489  1.3610
 2144TIP3    H227992   4.965   1.688   7.613 -0.8827 -0.2358 -0.1922
 2145TIP3   OH227993   5.311   0.611   1.282 -0.0329  0.1730 -0.1652
 2145TIP3    H127994   5.405   0.592   1.283  0.2494  1.4622 -0.2216
 2145TIP3    H227995   5.305   0.700   1.249 -1.4536 -0.6995 -2.5447
 2146TIP3   OH227996   5.238   2.644   0.692 -0.2793  0.0318 -0.2095
 2146TIP3    H127997   5.194   2.729   0.693  1.4790  0.9873 -0.7518
 2146TIP3    H227998   5.298   2.648   0.618  1.4218 -0.8392  1.0373
 2147TIP3   OH227999   4.989   3.948   6.774 -0.1418 -0.3317  0.3607
 2147TIP3    H128000   5.076   3.987   6.764  0.0450 -0.3282  1.7768
 2147TIP3    H228001   4.969   3.912   6.688 -0.2773  2.7412 -1.0470
 2148TIP3   OH228002   3.280   4.718   7.212 -0.0648  0.3651  0.3382
 2148TIP3    H128003   3.328   4.792   7.175 -1.0493  0.5820 -0.5697
 2148TIP3    H228004   3.302   4.644   7.156 -1.4810  0.6715 -0.6626
 2149TIP3   OH228005   1.450   5.751   2.488 -0.2581 -0.1451 -0.1477
 2149TIP3    H128006   1.447   5.805   2.566 -0.5708  1.0536 -0.9563
 2149TIP3    H228007   1.365   5.708   2.485 -0.6558  0.6531 -0.4010
 2150TIP3   OH228008   1.099   5.413   0.404 -0.4147 -0.3666  0.2841
 2150TIP3    H128009   1.070   5.484   0.462 -0.3588  1.3039 -1.6310
 2150TIP3    H228010   1.148   5.354   0.461 -0.1973  1.2888  1.8962
 2151TIP3   OH228011   5.805   5.132   2.089 -0.1334  0.0630  0.1891
 2151TIP3    H128012   5.730   5.163   2.141  0.6206  0.9241  0.8089
 2151TIP3    H228013   5.775   5.138   1.998 -1.2041 -0.7096  0.4689
 2152TIP3   OH228014   3.491   0.273   0.196 -0.1439  0.3849 -0.1768
 2152TIP3    H128015   3.494   0.362   0.160  1.4764  0.6352  0.4856
 2152TIP3    H228016   3.549   0.276   0.273  0.9618 -1.5379 -0.8514
 2153TIP3   OH228017   4.931   6.156   0.562 -0.2504 -0.2530 -0.3984
 2153TIP3    H128018   4.906   6.129   0.474  0.5776 -2.2928 -0.0618
 2153TIP3    H228019   4.850   6.186   0.602 -0.6381  0.6659 -1.8281
 2154TIP3   OH228020   6.266   0.518   7.368  0.0504 -0.5393 -0.2121
 2154TIP3    H128021   6.361   0.518   7.356 -0.2483 -1.9627 -3.6486
 2154TIP3    H228022   6.254   0.539   7.461  3.5695  2.5061 -0.1944
 2155TIP3   OH228023   6.377   0.702   0.360 -0.3089  0.1803  0.2236
 2155TIP3    H128024   6.327   0.625   0.386 -0.5660  0.1266 -0.3974
 2155TIP3    H228025   6.469   0.676   0.372 -0.4153  0.3693  1.6031
 2156TIP3   OH228026   4.675   3.532   8.656 -1.2190 -0.1588  0.4424
 2156TIP3    H128027   4.580   3.537   8.642 -0.8440 -0.1537 -2.7682
 2156TIP3    H228028   4.701   3.622   8.676 -1.6706  0.2039 -0.5642
 2157TIP3   OH228029   4.808   1.345   7.208 -0.1397 -0.6828  0.1318
 2157TIP3    H128030   4.723   1.318   7.243  0.3400 -1.1509  0.9670
 2157TIP3    H228031   4.800   1.333   7.114 -1.5095  0.7303  0.0259
 2158TIP3   OH228032   4.280   0.620   0.325  0.4063  0.8767  0.0598
 2158TIP3    H128033   4.276   0.607   0.230  0.5084 -0.0046  0.1715
 2158TIP3    H228034   4.245   0.539   0.362  0.2751  1.2522  0.7822
 2159TIP3   OH228035   1.911   0.142   7.928 -0.2674  0.1473  0.4332
 2159TIP3    H128036   1.836   0.200   7.915  0.0752  0.7205  0.9486
 2159TIP3    H228037   1.975   0.196   7.974  0.5403 -0.2851 -0.1712
 2160TIP3   OH228038   1.503   3.106   7.870  0.5199 -0.5556  0.0152
 2160TIP3    H128039   1.496   3.201   7.874  1.0479 -0.5558  1.4192
 2160TIP3    H228040   1.412   3.076   7.868  0.3374 -0.0352  0.1583
 2161TIP3   OH228041   0.549   4.614   1.476 -0.1010 -0.5722  0.3024
 2161TIP3    H128042   0.565   4.530   1.433 -0.5791 -0.2975 -0.4384
 2161TIP3    H228043   0.525   4.591   1.566 -0.5369 -1.2446  0.0188
 2162TIP3   OH228044   0.262   3.810   7.806 -0.3596 -0.6009  0.1703
 2162TIP3    H128045   0.321   3.739   7.779 -0.1161 -0.0036 -0.9405
 2162TIP3    H228046   0.256   3.801   7.901  1.0927 -1.0176  0.2494
 2163TIP3   OH228047   1.378   5.250   0.142  0.6074  0.3414 -0.5838
 2163TIP3    H128048   1.304   5.189   0.145 -0.1060  1.1572 -1.2167
 2163TIP3    H228049   1.390   5.268   0.049 -1.0534  3.3483 -0.3169
 2164TIP3   OH228050   5.273   6.273   1.801 -0.1440 -0.4202 -0.4711
 2164TIP3    H128051   5.350   6.215   1.801  0.2344  0.0735 -0.7229
 2164TIP3    H228052   5.228   6.253   1.883  1.0005  0.2561  0.3540
 2165TIP3   OH228053   1.351   2.364   0.740  0.2654  0.6610  0.3038
 2165TIP3    H128054   1.388   2.360   0.828  0.0134  1.3112  0.4464
 2165TIP3    H228055   1.261   2.331   0.750  1.1279 -2.1411 -0.2700
 2166TIP3   OH228056   2.165   2.155   8.144 -0.4786 -0.1247 -0.3135
 2166TIP3    H128057   2.187   2.132   8.053  2.0374 -1.2795  0.4909
 2166TIP3    H228058   2.115   2.080   8.176 -0.5628 -0.1331 -0.4632
 2167TIP3   OH228059   3.666   2.624   0.616  0.3174  0.4330 -0.3970
 2167TIP3    H128060   3.588   2.591   0.571 -0.1445  0.8628  0.0749
 2167TIP3    H228061   3.731   2.555   0.603 -0.7636 -0.9258  0.9492
 2168TIP3   OH228062   4.659   4.047   0.956 -0.4996  0.4225  0.0318
 2168TIP3    H128063   4.660   4.044   0.860  0.0052  1.2423  0.0071
 2168TIP3    H228064   4.680   3.957   0.982  1.5893  0.6483 -0.6436
 2169TIP3   OH228065   5.745   1.360   8.259 -0.0917 -0.2387 -0.1832
 2169TIP3    H128066   5.746   1.265   8.244  0.0563 -0.2048 -0.3842
 2169TIP3    H228067   5.733   1.398   8.172  1.6323 -0.0157 -0.3606
 2170TIP3   OH228068   2.287   2.233   7.443  0.2676 -0.0858  0.3913
 2170TIP3    H128069   2.380   2.234   7.464  0.9583  0.1992 -2.2868
 2170TIP3    H228070   2.281   2.176   7.366 -1.5881  0.8056 -0.1831
 2171TIP3   OH228071   1.633   5.538   8.069 -0.1521  0.0035  0.2719
 2171TIP3    H128072   1.612   5.559   7.978  1.6512  0.7446 -0.0211
 2171TIP3    H228073   1.565   5.477   8.096 -1.4427  0.7405 -1.1682
 2172TIP3   OH228074   1.698   0.779   7.365 -0.2109  0.2298 -0.0505
 2172TIP3    H128075   1.644   0.822   7.299 -0.3024  0.0070 -0.1203
 2172TIP3    H228076   1.754   0.719   7.316  1.4702  1.8298 -0.1941
 2173TIP3   OH228077   5.320   5.642   2.371 -0.9793  0.4226 -0.2435
 2173TIP3    H128078   5.374   5.642   2.450 -0.4250  1.7572 -0.5897
 2173TIP3    H228079   5.372   5.592   2.307 -0.1645  1.5778 -0.5314
 2174TIP3   OH228080   5.911   1.180   8.880 -0.1415  0.1040 -0.4151
 2174TIP3    H128081   5.906   1.116   8.809  0.6484  0.3897 -0.7444
 2174TIP3    H228082   6.002   1.174   8.911  0.0525  1.3385 -0.7143
 2175TIP3   OH228083   2.583   3.109   7.364 -0.2261 -0.1813 -0.1481
 2175TIP3    H128084   2.612   3.198   7.384  2.4898 -1.5493  2.9675
 2175TIP3    H228085   2.615   3.093   7.275  1.5441  1.1783  0.1835
 2176TIP3   OH228086   4.805   1.357   0.069 -0.0850  0.1417 -0.2453
 2176TIP3    H128087   4.874   1.308   0.114 -0.8934 -1.2718 -0.4846
 2176TIP3    H228088   4.731   1.354   0.130 -0.1904  0.9551 -0.3282
 2177TIP3   OH228089   6.169   2.074   1.087 -0.2747  0.3012  0.4384
 2177TIP3    H128090   6.098   2.025   1.128 -0.5175 -0.4697 -0.8506
 2177TIP3    H228091   6.125   2.137   1.030  0.0558  0.1234 -0.0225
 2178TIP3   OH228092   1.250   3.770   8.290 -0.4970 -0.6113  0.6585
 2178TIP3    H128093   1.318   3.822   8.248 -2.2129 -0.4265 -2.1674
 2178TIP3    H228094   1.207   3.830   8.351 -0.1784  0.2105  0.0811
 2179TIP3   OH228095   6.005   0.448   8.152  0.1550  0.3771  0.0486
 2179TIP3    H128096   6.007   0.488   8.238 -0.4405  0.0458  0.2235
 2179TIP3    H228097   5.929   0.389   8.154  0.4722 -0.0691 -0.5039
 2180TIP3   OH228098   3.037   5.199   8.946 -0.4021  0.0199  0.3074
 2180TIP3    H128099   3.003   5.261   9.010  3.2765  1.6198  1.0164
 2180TIP3    H228100   3.044   5.250   8.865 -1.1931 -0.7470 -0.2538
 2181TIP3   OH228101   1.155   1.888   8.853  0.5267  0.1717  0.1250
 2181TIP3    H128102   1.168   1.971   8.808 -0.0446 -0.4916 -1.3097
 2181TIP3    H228103   1.064   1.865   8.834  1.0683 -1.4321 -0.6232
 2182TIP3   OH228104   2.719   1.992   0.867  0.0338 -0.3724 -0.3160
 2182TIP3    H128105   2.721   1.973   0.961  0.2839  1.4828  0.0863
 2182TIP3    H228106   2.740   2.085   0.861  0.7566 -0.6173 -2.2666
 2183TIP3   OH228107   0.096   3.214   6.646  0.2549 -0.2424  0.0102
 2183TIP3    H128108   0.095   3.126   6.607 -2.7272 -0.0347 -0.6608
 2183TIP3    H228109   0.010   3.250   6.626  1.0363  2.5164  1.0915
 2184TIP3   OH228110   6.501   6.279   1.720 -0.2211 -0.0624  0.1185
 2184TIP3    H128111   6.555   6.267   1.798 -0.4753 -1.0831  0.1493
 2184TIP3    H228112   6.421   6.229   1.738 -0.7302  0.5625 -0.3612
 2185TIP3   OH228113   5.971   0.597   1.079  0.1371  0.7385  0.4183
 2185TIP3    H128114   5.880   0.613   1.052 -0.6832  2.2504  3.6023
 2185TIP3    H228115   6.023   0.623   1.003 -2.0172  1.3825 -0.9349
 2186TIP3   OH228116   6.062   6.551   9.104 -0.4137 -0.0891  0.1713
 2186TIP3    H128117   6.024   6.622   9.155 -0.8290  1.2387 -1.8823
 2186TIP3    H228118   6.066   6.585   9.015  2.2231 -1.5340 -0.3587
 2187TIP3   OH228119   0.022   5.202   2.194 -0.0371 -0.2506 -0.1770
 2187TIP3    H128120   0.101   5.148   2.201 -0.2518 -0.3931  1.6219
 2187TIP3    H228121  -0.000   5.223   2.285 -1.8723  0.0935 -0.6785
 2188TIP3   OH228122   5.694   6.045   0.356  0.1118  0.2604  0.0953
 2188TIP3    H128123   5.633   6.023   0.285 -2.5250  0.1869  2.2138
 2188TIP3    H228124   5.739   5.963   0.376 -0.1346 -0.0424 -0.5518
 2189TIP3   OH228125   5.472   2.158   0.024  0.2875  0.4670 -0.2674
 2189TIP3    H128126   5.406   2.093  -0.000  1.0885 -0.4503 -0.0447
 2189TIP3    H228127   5.530   2.112   0.084  0.3817  1.6528  0.5783
 2190TIP3   OH228128   3.814   5.700   8.313  0.1736 -0.8200  0.0904
 2190TIP3    H128129   3.817   5.704   8.409  1.0258 -0.3400  0.0534
 2190TIP3    H228130   3.725   5.726   8.291  0.4041  0.5830  0.6975
 2191TIP3   OH228131   2.128   6.229   0.880 -0.6729  0.5670 -0.0481
 2191TIP3    H128132   2.149   6.256   0.791 -1.7329  1.3856 -0.0680
 2191TIP3    H228133   2.087   6.306   0.920  1.2081  0.7812  1.6766
 2192TIP3   OH228134   4.112   3.338   1.272 -0.2951 -0.7817 -0.8021
 2192TIP3    H128135   4.198   3.302   1.247  1.2480  1.2269  1.1639
 2192TIP3    H228136   4.094   3.299   1.358 -0.5472  0.0022 -0.4900
 2193TIP3   OH228137   2.289   2.574   2.204 -0.2581 -0.3818 -0.4075
 2193TIP3    H128138   2.348   2.631   2.253 -0.1776 -0.6469 -0.1904
 2193TIP3    H228139   2.263   2.507   2.268 -0.8171 -0.2483 -0.4923
 2194TIP3   OH228140   0.008   2.990   6.534  0.2592 -0.0632  0.0151
 2194TIP3    H128141  -0.074   2.990   6.485  0.8893 -0.1817 -1.0711
 2194TIP3    H228142   0.013   2.902   6.572 -0.5589  0.2463  0.8840
 2195TIP3   OH228143   0.595   5.837   9.010  0.3244  0.3234 -1.0681
 2195TIP3    H128144   0.566   5.780   9.081  1.5078 -0.3297 -1.0915
 2195TIP3    H228145   0.517   5.846   8.954  0.0241 -1.0010 -0.8933
 2196TIP3   OH228146   1.435   0.932   7.991 -0.0148  0.2268  0.0300
 2196TIP3    H128147   1.525   0.902   7.977  0.6391  2.4682 -0.9574
 2196TIP3    H228148   1.405   0.960   7.905 -0.9766  1.2802  0.6898
 2197TIP3   OH228149   1.951   5.694   7.708 -0.8209 -0.2317 -0.2215
 2197TIP3    H128150   2.033   5.723   7.748  0.0659 -0.2724 -1.9093
 2197TIP3    H228151   1.884   5.710   7.775  0.4232  0.6921  0.8465
 2198TIP3   OH228152   2.117   4.036   8.687 -0.4975 -0.3135  0.6439
 2198TIP3    H128153   2.060   3.998   8.620  0.1955 -0.0857 -0.0904
 2198TIP3    H228154   2.067   4.109   8.722  0.2919  1.5358 -1.8058
 2199TIP3   OH228155   6.546   3.612   0.218  0.4361  0.4836 -0.1494
 2199TIP3    H128156   6.479   3.603   0.285  1.1239  1.8972  0.7745
 2199TIP3    H228157   6.508   3.570   0.140 -1.1669  0.5339  0.5665
 2200TIP3   OH228158   2.403   5.914   8.719 -0.1476 -0.3931  0.2254
 2200TIP3    H128159   2.419   6.005   8.745 -0.0506 -1.0019  2.4919
 2200TIP3    H228160   2.488   5.882   8.688 -0.2610  0.3542 -0.9163
 2201TIP3   OH228161   4.162   0.908   0.685 -0.1731  0.0145 -0.1612
 2201TIP3    H128162   4.249   0.891   0.651  0.3116 -0.4666  1.2616
 2201TIP3    H228163   4.105   0.850   0.634  0.5184 -0.6235 -0.2348
 2202TIP3   OH228164   3.620   0.209   0.759 -0.3279  0.2096  0.4513
 2202TIP3    H128165   3.557   0.253   0.815 -0.1034  0.0361  0.8406
 2202TIP3    H228166   3.676   0.160   0.819  1.7131  2.2520  0.3817
 2203TIP3   OH228167   3.252   1.678   7.923  0.7236 -0.4431 -0.4794
 2203TIP3    H128168   3.157   1.669   7.935  0.6896 -1.6175 -1.4326
 2203TIP3    H228169   3.264   1.769   7.895 -0.2968 -0.6432 -1.6901
 2204TIP3   OH228170   5.293   5.940   8.368  0.5025  0.3120  0.0718
 2204TIP3    H128171   5.283   5.845   8.361 -0.1283  0.4002 -0.3635
 2204TIP3    H228172   5.382   5.954   8.399  0.2632 -0.4620  1.1590
 2205TIP3   OH228173   2.653   4.053   8.333 -0.5254  0.3376  0.2998
 2205TIP3    H128174   2.692   4.130   8.375 -0.1573  0.9560 -1.1102
 2205TIP3    H228175   2.686   3.979   8.384  1.8519  0.8899 -0.3035
 2206TIP3   OH228176   6.416   4.067   6.487 -0.3728 -0.2360 -0.4671
 2206TIP3    H128177   6.352   4.019   6.541 -0.4639  0.8419  0.4172
 2206TIP3    H228178   6.485   4.093   6.549 -0.3396  0.7899 -0.9141
 2207TIP3   OH228179   4.603   0.109   8.862  0.1503  0.2353 -0.3000
 2207TIP3    H128180   4.545   0.185   8.855 -1.4715 -0.8812  0.4150
 2207TIP3    H228181   4.549   0.041   8.901  1.8624 -0.9923  0.0523
 2208TIP3   OH228182   3.209   4.998   1.332 -0.7169 -0.3957 -0.1005
 2208TIP3    H128183   3.141   4.973   1.394  0.2604  0.3617  1.3213
 2208TIP3    H228184   3.253   4.916   1.309  0.6772 -0.4151  2.3665
 2209TIP3   OH228185   0.173   0.406   8.096 -0.0234  0.5105 -0.8717
 2209TIP3    H128186   0.175   0.320   8.055 -0.2175  0.3325 -0.5047
 2209TIP3    H228187   0.246   0.453   8.055 -0.0877  0.2667 -1.2717
 2210TIP3   OH228188   6.565   1.356   7.895  0.2206 -0.4945  0.0504
 2210TIP3    H128189   6.627   1.422   7.864 -0.9685  0.4908 -0.3125
 2210TIP3    H228190   6.503   1.346   7.823  0.4433 -2.1353  0.0374
 2211TIP3   OH228191   3.744   5.956   0.735 -0.1350 -0.2419  0.7267
 2211TIP3    H128192   3.732   5.964   0.830 -2.1856 -2.1718  0.7096
 2211TIP3    H228193   3.780   5.869   0.722 -1.4676 -0.6763 -0.3207
 2212TIP3   OH228194   5.005   0.804   7.881  0.4782  0.2576  0.2680
 2212TIP3    H128195   4.955   0.885   7.887 -2.4499 -1.2365 -1.6172
 2212TIP3    H228196   5.050   0.809   7.797 -2.8839 -1.4967 -1.8598
 2213TIP3   OH228197   1.356   6.375   8.280 -0.1310  0.7908 -0.2284
 2213TIP3    H128198   1.303   6.319   8.337  1.1838  1.4979  1.7667
 2213TIP3    H228199   1.373   6.320   8.203 -1.2462 -0.4988  0.3830
 2214TIP3   OH228200   3.678   1.128   6.413  0.2075  0.1181  0.0523
 2214TIP3    H128201   3.727   1.048   6.434 -0.0101 -0.4172 -1.3565
 2214TIP3    H228202   3.636   1.153   6.495 -0.0587 -1.4777  0.4354
 2215TIP3   OH228203   5.438   6.157   1.320 -0.0877  0.7662  0.0649
 2215TIP3    H128204   5.489   6.171   1.240 -0.4548  1.2832 -0.0856
 2215TIP3    H228205   5.351   6.189   1.299 -0.9266 -1.5048 -0.1857
 2216TIP3   OH228206   1.318   1.090   0.916  0.2763 -0.5242  0.0128
 2216TIP3    H128207   1.274   1.009   0.941 -0.9228  0.1165  0.0860
 2216TIP3    H228208   1.329   1.138   0.998  1.8142 -0.9733  0.1038
 2217TIP3   OH228209   4.676   3.819   8.550  0.0878 -0.2377  0.3309
 2217TIP3    H128210   4.655   3.910   8.569 -0.0297 -0.1562 -0.1779
 2217TIP3    H228211   4.591   3.777   8.535  0.1351 -0.4534  0.6458
 2218TIP3   OH228212   3.970   4.480   6.962 -0.1257 -0.1672 -0.1034
 2218TIP3    H128213   3.880   4.463   6.934 -0.8289  3.1928 -0.2878
 2218TIP3    H228214   3.968   4.466   7.056 -0.3534 -1.7443 -0.3091
 2219TIP3   OH228215   3.037   5.394   0.662 -0.3903 -0.0451  0.8096
 2219TIP3    H128216   2.985   5.468   0.629 -0.7836 -0.2814  0.8886
 2219TIP3    H228217   3.095   5.433   0.727 -0.0718  0.3146  0.3081
 2220TIP3   OH228218   5.108   0.886   7.238  0.0793 -0.3392  0.2014
 2220TIP3    H128219   5.031   0.934   7.269 -0.4185  0.1971 -1.7386
 2220TIP3    H228220   5.074   0.802   7.208  0.1376  0.1114 -1.1756
 2221TIP3   OH228221   6.372   5.174   1.351  0.1742 -0.1099  0.1116
 2221TIP3    H128222   6.336   5.153   1.265 -0.5638  0.4590  0.2719
 2221TIP3    H228223   6.449   5.228   1.332  1.2259 -1.6716 -0.2464
 2222TIP3   OH228224   4.405   3.467   8.757  0.0112  0.2485 -0.4447
 2222TIP3    H128225   4.358   3.421   8.826 -1.3882 -0.5115 -1.8234
 2222TIP3    H228226   4.415   3.401   8.687  0.8847  1.1361 -1.1888
 2223TIP3   OH228227   3.148   2.726   8.497  0.5654  0.0558 -0.6439
 2223TIP3    H128228   3.110   2.639   8.482 -0.9831  0.9783 -2.4781
 2223TIP3    H228229   3.073   2.783   8.512  1.2990  1.6315 -2.5385
 2224TIP3   OH228230   3.776   2.479   9.243  0.0979  0.1932 -0.3811
 2224TIP3    H128231   3.832   2.513   9.173  0.7770  0.8732  0.4885
 2224TIP3    H228232   3.811   2.391   9.261  1.3224  0.8636  0.6090
 2225TIP3   OH228233   5.162   0.494   1.681  0.2008 -0.0548 -0.3078
 2225TIP3    H128234   5.145   0.587   1.698 -2.0017 -0.5681  0.8302
 2225TIP3    H228235   5.231   0.493   1.615 -1.1775  2.4302 -1.9504
 2226TIP3   OH228236   1.598   5.567   1.608 -0.1472 -0.1548 -0.4319
 2226TIP3    H128237   1.687   5.542   1.633 -0.0021 -1.0081 -1.7302
 2226TIP3    H228238   1.602   5.579   1.513 -1.0479  1.4196 -0.3075
 2227TIP3   OH228239   1.250   0.088   1.696  0.3648 -0.0876 -0.0210
 2227TIP3    H128240   1.164   0.114   1.729  0.7898 -0.3373  1.3419
 2227TIP3    H228241   1.231   0.029   1.623 -0.6176  0.1968 -0.0019
 2228TIP3   OH228242   0.671   1.844   0.169  0.2456 -0.8485 -0.2397
 2228TIP3    H128243   0.609   1.885   0.109 -0.0270 -0.1049  0.5220
 2228TIP3    H228244   0.617   1.811   0.241  0.7491  0.3248  0.7234
 2229TIP3   OH228245   4.964   5.862   7.310 -0.2429 -0.6526 -0.2561
 2229TIP3    H128246   4.930   5.789   7.361  1.3915 -0.6558  0.9252
 2229TIP3    H228247   5.037   5.825   7.260  0.4159  0.0935  0.1330
 2230TIP3   OH228248   3.566   0.158   7.507  0.2822 -0.2905 -0.1425
 2230TIP3    H128249   3.482   0.115   7.521  0.6396 -0.4607  1.6858
 2230TIP3    H228250   3.546   0.252   7.513  0.3458 -0.3497  1.1897
 2231TIP3   OH228251   4.362   0.779   0.521  0.3396  0.6744  0.3533
 2231TIP3    H128252   4.457   0.776   0.523  0.3154 -0.5263  1.5972
 2231TIP3    H228253   4.336   0.702   0.470  0.0137  2.5042 -2.4403
 2232TIP3   OH228254   2.600   2.501   8.001 -0.4275 -0.4945  0.0485
 2232TIP3    H128255   2.539   2.439   7.960 -0.5887  0.7775 -1.7231
 2232TIP3    H228256   2.683   2.485   7.956 -0.4874  0.6020 -0.4691
 2233TIP3   OH228257   0.744   4.321   0.886  0.0969  0.1170  0.2747
 2233TIP3    H128258   0.735   4.349   0.795  1.6786  0.2086  0.1201
 2233TIP3    H228259   0.723   4.399   0.937  0.2279  0.3625 -0.0429
 2234TIP3   OH228260   0.138   0.803   1.794 -0.7560  0.1026  0.2401
 2234TIP3    H128261   0.211   0.790   1.855 -1.7237 -2.2639  1.0206
 2234TIP3    H228262   0.174   0.778   1.708 -0.3989 -0.1709  0.4672
 2235TIP3   OH228263   1.176   0.766   8.141  0.3862  0.5654  0.7571
 2235TIP3    H128264   1.196   0.859   8.136  1.4052  0.3003 -0.7658
 2235TIP3    H228265   1.225   0.735   8.217 -0.0557  1.2730  1.3449
 2236TIP3   OH228266   1.112   4.003   6.829  0.2859 -0.4420 -0.2702
 2236TIP3    H128267   1.192   4.020   6.879  0.3541 -1.2501 -0.1027
 2236TIP3    H228268   1.112   3.908   6.815 -0.7541 -0.4719 -0.0960
 2237TIP3   OH228269   1.856   3.736   0.130  0.4395 -0.2365 -0.5267
 2237TIP3    H128270   1.886   3.646   0.121  0.5549 -0.0685 -2.0170
 2237TIP3    H228271   1.765   3.735   0.099  0.6465  0.2706 -1.1715
 2238TIP3   OH228272   3.484   6.351   1.686  0.1641  0.1655  0.0871
 2238TIP3    H128273   3.416   6.378   1.748  0.1179  0.7936 -0.2241
 2238TIP3    H228274   3.519   6.270   1.722  0.0502  0.4541  0.8663
 2239TIP3   OH228275   0.042   5.425   0.458 -0.5563 -0.2764  0.1073
 2239TIP3    H128276   0.104   5.470   0.516  0.8128  0.1896 -1.6450
 2239TIP3    H228277   0.063   5.332   0.469 -0.7760 -0.2453  0.8569
 2240TIP3   OH228278   0.638   1.112   1.727 -0.3278  0.2395  0.1852
 2240TIP3    H128279   0.577   1.142   1.794 -1.4448  1.0873 -1.1645
 2240TIP3    H228280   0.616   1.163   1.649 -1.2741 -2.8907 -1.7970
 2241TIP3   OH228281   1.101   5.280   8.333 -0.0966  0.3545 -0.4139
 2241TIP3    H128282   1.160   5.302   8.405  1.0495 -2.5649 -0.2957
 2241TIP3    H228283   1.132   5.195   8.302 -2.9902 -0.3566 -1.7478
 2242TIP3   OH228284   3.817   6.453   1.807  0.7221 -0.3092  0.1783
 2242TIP3    H128285   3.903   6.487   1.783 -0.1909  0.8481 -1.6503
 2242TIP3    H228286   3.810   6.369   1.762  0.4631  0.1365 -0.6296
 2243TIP3   OH228287   6.617   1.184   9.000  0.2537 -0.3146  0.3137
 2243TIP3    H128288   6.542   1.175   9.059  0.7702  0.1864  1.0737
 2243TIP3    H228289   6.678   1.240   9.048  1.0616 -0.6159 -0.3418
 2244TIP3   OH228290   1.070   5.757   7.680  0.0810 -0.3841 -0.8764
 2244TIP3    H128291   1.017   5.835   7.692  0.2249 -0.4259  0.1407
 2244TIP3    H228292   1.046   5.724   7.593 -1.3697 -0.2638 -0.5428
 2245TIP3   OH228293   2.551   4.455   2.214 -0.2513 -0.5371 -0.7978
 2245TIP3    H128294   2.502   4.536   2.228  0.5009 -0.2108  0.0946
 2245TIP3    H228295   2.624   4.482   2.158  2.4290  0.4507  2.8113
 2246TIP3   OH228296   6.048   1.288   8.370 -0.6988 -0.0121 -0.6723
 2246TIP3    H128297   5.960   1.258   8.346 -1.2266  2.3218 -1.9925
 2246TIP3    H228298   6.036   1.333   8.454 -0.4256 -1.0225 -0.0699
 2247TIP3   OH228299   2.293   2.390   8.751  0.5662 -0.9625 -0.2797
 2247TIP3    H128300   2.364   2.430   8.801  0.5210  0.2197 -1.1131
 2247TIP3    H228301   2.213   2.424   8.791  0.4946 -1.2325 -0.1910
 2248TIP3   OH228302   5.046   1.318   0.210 -0.2102 -0.4571  0.4445
 2248TIP3    H128303   5.125   1.278   0.174  0.0771 -0.2998  0.8824
 2248TIP3    H228304   5.042   1.405   0.170  0.1551 -0.2502  0.8402
 2249TIP3   OH228305   6.163   1.705   9.188  0.5207 -0.1491  0.7724
 2249TIP3    H128306   6.131   1.661   9.109 -1.7017  2.6957 -0.0660
 2249TIP3    H228307   6.258   1.693   9.186  0.5508  0.0026 -2.4637
 2250TIP3   OH228308   6.560   4.007   0.625  0.4720 -0.0082  0.2257
 2250TIP3    H128309   6.631   3.973   0.679  0.8043  1.6006  0.8630
 2250TIP3    H228310   6.481   3.972   0.666  0.8077 -0.1358  0.7731
 2251TIP3   OH228311   0.552   1.619   1.747  0.0624 -0.2070  0.8312
 2251TIP3    H128312   0.543   1.682   1.819 -0.4606 -1.2237  1.6737
 2251TIP3    H228313   0.503   1.659   1.674 -1.2407 -0.1403  1.7022
 2252TIP3   OH228314   6.420   1.521   8.959  0.2266 -0.2187 -0.0905
 2252TIP3    H128315   6.326   1.526   8.941 -0.2961 -1.0153  2.0685
 2252TIP3    H228316   6.449   1.443   8.912 -0.3965 -0.4506 -0.1050
 2253TIP3   OH228317   6.155   0.585   7.599 -0.3029 -0.0234 -0.4206
 2253TIP3    H128318   6.207   0.639   7.659  0.2619 -1.1570  0.1513
 2253TIP3    H228319   6.067   0.623   7.603  0.4834  2.1308 -1.6488
 2254TIP3   OH228320   4.440   5.861   2.353 -0.4294 -0.2876 -0.1515
 2254TIP3    H128321   4.521   5.865   2.303 -0.2567  0.0969  0.1489
 2254TIP3    H228322   4.450   5.783   2.409 -0.6235 -0.7155 -0.7028
 2255TIP3   OH228323   2.298   2.370   1.960 -0.0445 -0.0800 -0.6562
 2255TIP3    H128324   2.299   2.462   1.985 -1.9585  0.7000 -3.0318
 2255TIP3    H228325   2.249   2.326   2.029 -0.5445  0.9847 -0.3239
 2256TIP3   OH228326   1.994   3.695   1.095 -0.3410 -0.4241  0.2844
 2256TIP3    H128327   1.910   3.679   1.137 -0.7020  1.6218  0.4382
 2256TIP3    H228328   2.057   3.646   1.147 -0.8662  1.4743  2.8838
 2257TIP3   OH228329   4.432   2.105   1.072  0.1125 -0.4313 -0.3136
 2257TIP3    H128330   4.345   2.093   1.033 -0.0004 -1.5440  0.2539
 2257TIP3    H228331   4.424   2.185   1.124 -0.5169 -0.4153 -0.4251
 2258TIP3   OH228332   3.158   1.759   2.254 -0.2415  0.0464 -0.3988
 2258TIP3    H128333   3.220   1.771   2.182  0.4916 -0.5484  0.1180
 2258TIP3    H228334   3.073   1.747   2.211 -0.1097  1.4338 -1.0962
 2259TIP3   OH228335   1.965   4.517   0.096 -0.0667 -0.4545  0.0256
 2259TIP3    H128336   1.947   4.423   0.092  1.1603 -0.6987 -0.1083
 2259TIP3    H228337   1.914   4.548   0.172  0.2841 -1.4138  0.6710
 2260TIP3   OH228338   3.579   5.208   9.184  0.4372 -0.7647  0.0185
 2260TIP3    H128339   3.494   5.209   9.141  0.6844 -1.0984 -0.4908
 2260TIP3    H228340   3.584   5.121   9.225  0.1084 -0.3679  0.9336
 2261TIP3   OH228341   6.561   1.542   0.691 -0.6950  0.4445 -0.3563
 2261TIP3    H128342   6.550   1.455   0.728 -0.0883  0.2181 -0.7017
 2261TIP3    H228343   6.495   1.548   0.623  1.4840 -1.1017 -2.7814
 2262TIP3   OH228344   2.037   1.398   7.640  0.5534  0.2509 -0.1439
 2262TIP3    H128345   1.948   1.388   7.671  0.4836  1.1931 -0.0167
 2262TIP3    H228346   2.091   1.353   7.705  0.0791 -1.8375 -1.0962
 2263TIP3   OH228347   0.274   4.492   1.905  0.8164 -0.2471  0.2734
 2263TIP3    H128348   0.247   4.434   1.977  1.3652 -1.8764 -0.7818
 2263TIP3    H228349   0.193   4.511   1.858  0.8453 -1.5780 -0.3546
 2264TIP3   OH228350   3.794   4.712   1.273  0.5139 -0.3171 -0.3494
 2264TIP3    H128351   3.808   4.623   1.240 -0.6018 -0.6886  0.1387
 2264TIP3    H228352   3.877   4.756   1.257  1.1695 -1.5130 -0.3929
 2265TIP3   OH228353   6.582   0.790   9.199  0.0060 -0.1776  0.7867
 2265TIP3    H128354   6.578   0.863   9.261  2.4359  0.1620  0.6314
 2265TIP3    H228355   6.660   0.740   9.225  0.1126 -0.9941 -0.9358
 2266TIP3   OH228356   6.488   0.976   1.439  0.3202 -0.2205  0.5921
 2266TIP3    H128357   6.543   0.999   1.364 -0.4878  0.9605  0.3180
 2266TIP3    H228358   6.498   1.050   1.499  1.6951 -1.5816  2.1168
 2267TIP3   OH228359   1.697   4.801   6.654  0.2562 -0.0455 -0.2478
 2267TIP3    H128360   1.780   4.786   6.700 -0.2401 -0.6188  0.5048
 2267TIP3    H228361   1.690   4.727   6.593 -0.4245 -0.8909  0.8102
 2268TIP3   OH228362   3.662   5.217   2.033  0.4287 -0.1322  0.2623
 2268TIP3    H128363   3.592   5.188   1.975  0.6294 -0.0356 -0.0310
 2268TIP3    H228364   3.618   5.235   2.116  0.2330 -0.8162  0.3078
 2269TIP3   OH228365   1.197   0.880   9.136 -0.6690 -0.1556 -0.1837
 2269TIP3    H128366   1.293   0.881   9.142 -0.7032 -0.8448  0.6235
 2269TIP3    H228367   1.167   0.868   9.226 -1.5538  1.0192 -0.3072
 2270TIP3   OH228368   5.982   3.660   7.656 -0.5619 -0.3239  0.1494
 2270TIP3    H128369   5.938   3.745   7.653  2.0190  1.1880 -3.5893
 2270TIP3    H228370   6.040   3.666   7.731 -2.6468 -0.1801  1.8505
 2271TIP3   OH228371   6.371   6.511   9.094  0.0255 -0.0506 -0.5213
 2271TIP3    H128372   6.276   6.513   9.082 -0.4331 -3.7095  1.0337
 2271TIP3    H228373   6.386   6.563   9.172 -0.7478  0.3262 -0.6123
 2272TIP3   OH228374   4.809   0.091   7.560 -0.3065  0.4794  0.2588
 2272TIP3    H128375   4.759   0.050   7.630  1.0119 -0.5386  0.6433
 2272TIP3    H228376   4.830   0.178   7.593 -1.3914  0.7502  0.2801
 2273TIP3   OH228377   1.793   1.908   1.813 -0.0568  0.2966  0.3835
 2273TIP3    H128378   1.882   1.900   1.848  0.5761  2.2875 -0.6359
 2273TIP3    H228379   1.748   1.965   1.876  0.1975  1.4438 -0.4539
 2274TIP3   OH228380   2.906   4.769   8.523 -0.3836 -0.2581 -0.7125
 2274TIP3    H128381   2.984   4.736   8.479  0.8083 -0.3929  1.3671
 2274TIP3    H228382   2.911   4.864   8.513  1.9673  0.0507  2.2195
 2275TIP3   OH228383   0.298   4.072   1.316 -0.6057 -0.1403  0.3642
 2275TIP3    H128384   0.377   4.030   1.282 -1.5051 -1.1889 -0.5208
 2275TIP3    H228385   0.272   4.017   1.390 -0.8342 -0.1284  0.2906
 2276TIP3   OH228386   5.157   5.547   2.642  0.4754  0.7731 -0.1881
 2276TIP3    H128387   5.131   5.635   2.668  0.4089  0.3373  1.2896
 2276TIP3    H228388   5.105   5.489   2.697 -0.3372 -0.2510 -1.9303
 2277TIP3   OH228389   6.620   2.751   1.116 -0.5893 -0.5486 -0.3902
 2277TIP3    H128390   6.539   2.783   1.076 -0.0746 -0.4047 -1.3496
 2277TIP3    H228391   6.688   2.773   1.053  0.3720  0.3263  0.8934
 2278TIP3   OH228392   4.753   5.234   8.394  0.4397 -0.1688 -0.6186
 2278TIP3    H128393   4.759   5.140   8.381  0.0587 -0.0298 -1.9042
 2278TIP3    H228394   4.662   5.248   8.422  1.0509 -0.3805  1.7081
 2279TIP3   OH228395   1.128   1.728   1.810 -0.2610 -0.0001  0.1623
 2279TIP3    H128396   1.042   1.706   1.847 -0.0343  0.2118  0.8381
 2279TIP3    H228397   1.187   1.662   1.846  0.0437  0.4702  0.5395
 2280TIP3   OH228398   5.754   3.615   7.070  0.5765  0.2606  0.3987
 2280TIP3    H128399   5.796   3.690   7.028  1.3190  0.6122  1.7246
 2280TIP3    H228400   5.794   3.539   7.029 -1.1732  0.5050 -1.9693
 2281TIP3   OH228401   4.568   1.032   6.672 -0.0760 -0.2895  0.1291
 2281TIP3    H128402   4.494   1.009   6.729  0.9595 -1.9703  0.8721
 2281TIP3    H228403   4.585   0.952   6.622  0.4679  0.4648 -0.9324
 2282TIP3   OH228404   2.511   0.462   2.253  0.0462  0.2526  0.5125
 2282TIP3    H128405   2.577   0.430   2.315  0.3791 -0.9816 -0.4433
 2282TIP3    H228406   2.441   0.496   2.309  0.2195 -1.0618  1.5768
 2283TIP3   OH228407   0.640   5.802   8.242 -0.2248 -0.3450 -0.0845
 2283TIP3    H128408   0.735   5.811   8.233  0.0299  2.3502  3.3331
 2283TIP3    H228409   0.628   5.747   8.319 -1.3536  0.6594  0.4891
 2284TIP3   OH228410   3.059   3.844   0.665  0.2060 -0.5509  0.0547
 2284TIP3    H128411   3.092   3.756   0.684 -0.7545 -0.9838 -0.2295
 2284TIP3    H228412   2.971   3.830   0.630  0.5001  0.4497 -1.1737
 2285TIP3   OH228413   3.224   3.169   2.942 -0.7833  0.1895 -0.1631
 2285TIP3    H128414   3.146   3.123   2.973 -0.0742  0.0206  1.4490
 2285TIP3    H228415   3.259   3.113   2.872 -2.3503  0.5232 -1.2651
 2286TIP3   OH228416   5.450   4.940   1.861  0.0686  0.3747  0.2522
 2286TIP3    H128417   5.457   5.029   1.827  1.2169  0.1542 -0.1040
 2286TIP3    H228418   5.536   4.902   1.847 -0.9330 -1.4436 -1.3843
 2287TIP3   OH228419   3.675   2.728   1.539  0.3674 -0.0817  0.2288
 2287TIP3    H128420   3.741   2.692   1.480 -0.0118 -1.2170  0.4574
 2287TIP3    H228421   3.709   2.711   1.627 -1.1799 -2.7558  0.4150
 2288TIP3   OH228422   3.600   3.030   7.426 -0.4621  0.0254 -0.8125
 2288TIP3    H128423   3.600   3.125   7.438  0.9700 -0.1617  1.2239
 2288TIP3    H228424   3.597   3.018   7.331 -1.2531  2.0733 -1.1039
 2289TIP3   OH228425   6.443   5.374   7.684 -0.4986 -0.3730 -0.2003
 2289TIP3    H128426   6.417   5.372   7.591  3.0324  1.2667 -1.4128
 2289TIP3    H228427   6.471   5.464   7.698 -1.3821 -0.4685  2.7053
 2290TIP3   OH228428   0.110   4.718   0.369 -0.5617 -0.0079 -0.2063
 2290TIP3    H128429   0.131   4.638   0.418  3.8013  0.5725 -0.7248
 2290TIP3    H228430   0.111   4.690   0.278  0.1733  0.4473 -0.3455
 2291TIP3   OH228431   5.214   1.761   1.846 -0.1263 -0.1640  0.4869
 2291TIP3    H128432   5.137   1.800   1.806  0.1822  0.1839  0.2267
 2291TIP3    H228433   5.215   1.671   1.815  0.5615  0.3167 -0.9704
 2292TIP3   OH228434   6.204   4.981   0.302 -0.1062  0.5608  0.2840
 2292TIP3    H128435   6.116   4.945   0.290  0.0788  0.0924  0.3209
 2292TIP3    H228436   6.247   4.969   0.217 -0.9156  3.1978 -0.6077
 2293TIP3   OH228437   1.438   2.384   1.792 -0.1632 -0.7504  0.0923
 2293TIP3    H128438   1.399   2.355   1.710  1.4420  0.4475 -1.1628
 2293TIP3    H228439   1.404   2.324   1.858 -0.9758 -2.1609 -1.5454
 2294TIP3   OH228440   2.434   5.986   7.602  0.1184  0.1383 -0.7822
 2294TIP3    H128441   2.442   6.070   7.647  0.0956 -0.5119  0.4845
 2294TIP3    H228442   2.350   5.990   7.557 -0.9083  0.0219  1.0089
 2295TIP3   OH228443   4.787   0.703   0.123 -0.6340  0.0811  0.0804
 2295TIP3    H128444   4.731   0.687   0.200 -0.8695  1.1338  0.1406
 2295TIP3    H228445   4.872   0.725   0.160 -0.1828 -1.4042 -0.0103
 2296TIP3   OH228446   1.341   4.063   1.926  0.2276  0.1516  0.3432
 2296TIP3    H128447   1.416   4.063   1.987  0.3402  1.6790  0.2257
 2296TIP3    H228448   1.299   4.148   1.939 -2.4546 -1.2279  1.5278
 2297TIP3   OH228449   3.421   3.400   1.235  0.1362  0.0429 -0.0982
 2297TIP3    H128450   3.328   3.403   1.257  0.1417  0.2810 -0.1055
 2297TIP3    H228451   3.456   3.329   1.289 -0.3349 -1.0781 -1.2118
 2298TIP3   OH228452   6.494   5.795   7.484 -0.3125  1.2181 -0.8719
 2298TIP3    H128453   6.536   5.871   7.523  1.3843  0.8348 -1.8397
 2298TIP3    H228454   6.411   5.827   7.449 -0.7974  2.0491  0.9263
 2299TIP3   OH228455   2.411   2.757   2.362 -0.1539 -0.0056 -0.8294
 2299TIP3    H128456   2.415   2.843   2.404 -0.5523 -0.3980  0.0383
 2299TIP3    H228457   2.476   2.704   2.408 -1.7870 -0.9354  0.5017
 2300TIP3   OH228458   1.520   5.490   0.234  0.6199 -0.1332 -0.1803
 2300TIP3    H128459   1.558   5.530   0.155  0.4956 -0.8790 -0.6301
 2300TIP3    H228460   1.472   5.414   0.201  1.1820 -0.8834  0.6882
 2301TIP3   OH228461   4.321   5.935   1.149 -0.0507  0.0684 -0.2057
 2301TIP3    H128462   4.294   5.846   1.174 -0.4063  0.5791  1.2878
 2301TIP3    H228463   4.406   5.947   1.192  0.0775  0.3982 -0.5463
 2302TIP3   OH228464   0.421   1.143   0.127  0.2567  0.3170 -0.1244
 2302TIP3    H128465   0.441   1.112   0.038 -0.2086  1.6388 -0.7247
 2302TIP3    H228466   0.344   1.199   0.115  0.2640  0.6020  1.1030
 2303TIP3   OH228467   1.984   2.138   8.694 -0.3965  0.1826 -0.0915
 2303TIP3    H128468   2.065   2.165   8.651 -0.7488  0.4809 -0.5778
 2303TIP3    H228469   1.965   2.208   8.756 -1.9116  1.7034 -2.1372
 2304TIP3   OH228470   1.811   4.918   8.160 -0.4192  0.1926  0.1286
 2304TIP3    H128471   1.788   4.969   8.238 -0.7995  0.0080  0.1414
 2304TIP3    H228472   1.899   4.884   8.178 -0.4810  0.1999  0.4514
 2305TIP3   OH228473   1.565   3.821   2.053 -0.2268 -0.0480 -0.1671
 2305TIP3    H128474   1.649   3.806   2.009  0.0822 -0.0935  0.4257
 2305TIP3    H228475   1.551   3.916   2.049  0.6567  0.1726  1.1366
 2306TIP3   OH228476   0.911   4.916   1.386 -0.1855  0.3205 -0.3175
 2306TIP3    H128477   0.997   4.927   1.426 -0.1395  1.7996 -0.7751
 2306TIP3    H228478   0.930   4.880   1.299  0.0445  1.4430 -0.7424
 2307TIP3   OH228479   5.011   1.809   1.647 -0.2159 -0.3814 -0.5498
 2307TIP3    H128480   4.927   1.836   1.686  0.4186  0.3569  0.3524
 2307TIP3    H228481   5.052   1.892   1.620  2.3761 -0.1228  3.4650
 2308TIP3   OH228482   3.252   2.322   0.298 -0.0794  0.2296  0.1826
 2308TIP3    H128483   3.308   2.352   0.226 -0.6965  1.2694  0.1154
 2308TIP3    H228484   3.204   2.400   0.326  0.9054  0.1063  2.4473
 2309TIP3   OH228485   4.409   3.655   0.819 -0.2607  0.3306  0.0079
 2309TIP3    H128486   4.420   3.642   0.724  0.6485 -0.8984  0.2535
 2309TIP3    H228487   4.365   3.576   0.848  0.7777  0.0258  0.8192
 2310TIP3   OH228488   2.259   2.208   8.551 -0.0656 -0.2209  0.1491
 2310TIP3    H128489   2.290   2.139   8.609  2.4181  0.4245 -0.2796
 2310TIP3    H228490   2.275   2.289   8.599  1.7347  0.2980 -1.1983
 2311TIP3   OH228491   2.754   2.327   2.156  0.4156 -0.0420  0.0905
 2311TIP3    H128492   2.839   2.292   2.182  0.5614  0.0052 -0.3168
 2311TIP3    H228493   2.728   2.384   2.229  1.5772  1.3784 -0.5621
 2312TIP3   OH228494   5.868   3.493   1.217 -0.0315  0.1294 -0.4426
 2312TIP3    H128495   5.862   3.487   1.121 -0.3610 -1.3788 -0.3376
 2312TIP3    H228496   5.943   3.438   1.239 -0.6353 -0.4261  0.2541
 2313TIP3   OH228497   0.188   5.692   9.169  0.3724  0.3208 -0.0139
 2313TIP3    H128498   0.166   5.603   9.141  1.5457 -0.2784  0.8764
 2313TIP3    H228499   0.105   5.727   9.203 -0.3530 -0.0151 -1.3582
 2314TIP3   OH228500   0.225   1.633   2.088 -0.2540 -0.3525  0.0861
 2314TIP3    H128501   0.286   1.687   2.139  0.4743 -0.1062 -1.0139
 2314TIP3    H228502   0.141   1.679   2.095 -0.5399 -1.0480  2.1806
 2315TIP3   OH228503   0.742   3.729   0.922 -0.2974 -0.5278  0.2109
 2315TIP3    H128504   0.757   3.682   0.840 -0.6144 -0.3212  0.0316
 2315TIP3    H228505   0.647   3.741   0.925 -0.6021 -2.6407  1.7645
 2316TIP3   OH228506   1.994   2.366   0.353 -0.2237  0.1511  0.2087
 2316TIP3    H128507   2.049   2.293   0.382  0.2120  0.7001  0.7954
 2316TIP3    H228508   1.910   2.352   0.397 -0.4532 -0.5117 -0.4324
 2317TIP3   OH228509   1.891   3.584   1.888 -0.1431  0.0450 -0.2372
 2317TIP3    H128510   1.803   3.586   1.925  0.1518 -1.5980  0.6339
 2317TIP3    H228511   1.895   3.502   1.839  0.1100  1.2786 -2.4182
 2318TIP3   OH228512   2.661   0.054   0.732 -0.1133  0.3907  0.3102
 2318TIP3    H128513   2.723   0.094   0.671 -1.5363 -0.7755 -2.0133
 2318TIP3    H228514   2.594   0.121   0.746 -0.6316  0.1012 -0.7303
 2319TIP3   OH228515   0.923   3.960   7.009  0.1336  0.2044  0.7952
 2319TIP3    H128516   0.993   3.983   6.948 -0.2888  1.4714  0.7744
 2319TIP3    H228517   0.843   3.989   6.967 -0.3083 -0.2150  1.3209
 2320TIP3   OH228518   2.564   5.654   2.394 -0.3905  0.1092  0.3345
 2320TIP3    H128519   2.586   5.681   2.305 -1.7687 -0.4897 -0.2026
 2320TIP3    H228520   2.485   5.602   2.385 -1.5969  1.5038  2.1034
 2321TIP3   OH228521   3.974   2.532   0.652 -0.0416 -0.2696 -0.2775
 2321TIP3    H128522   3.890   2.504   0.616 -1.4518  1.4397  1.4662
 2321TIP3    H228523   3.969   2.512   0.745  1.6111 -0.3637 -0.1684
 2322TIP3   OH228524   3.079   3.827   0.064 -0.1808  0.1577  0.0966
 2322TIP3    H128525   3.167   3.823   0.028 -0.0408  1.9798  0.1474
 2322TIP3    H228526   3.072   3.914   0.101 -1.1628 -0.8003  2.3528
 2323TIP3   OH228527   2.872   4.170   7.792 -0.0832 -0.2343 -0.4001
 2323TIP3    H128528   2.892   4.083   7.758 -2.3516 -0.9161 -0.1021
 2323TIP3    H228529   2.784   4.189   7.760 -0.5454  0.9726  1.4259
 2324TIP3   OH228530   2.164   1.159   7.525  1.1534  0.7670 -0.2971
 2324TIP3    H128531   2.096   1.218   7.558  1.3599  0.4033  0.8091
 2324TIP3    H228532   2.245   1.193   7.563  1.0144 -1.5815  2.3446
 2325TIP3   OH228533   3.544   5.943   1.270 -0.2325  0.2852  0.9111
 2325TIP3    H128534   3.512   5.887   1.199 -1.0142 -0.9187  2.1595
 2325TIP3    H228535   3.520   6.032   1.244 -1.1185 -0.2036 -0.0095
 2326TIP3   OH228536   0.984   4.581   7.784 -0.0122 -0.0909 -0.0222
 2326TIP3    H128537   0.919   4.568   7.716  0.7544  1.3560 -1.0870
 2326TIP3    H228538   0.956   4.660   7.829  1.6957  1.3824 -1.4102
 2327TIP3   OH228539   5.615   5.094   8.935  0.3300  0.2051 -0.2816
 2327TIP3    H128540   5.563   5.090   8.855 -0.3229  1.1634  0.0697
 2327TIP3    H228541   5.574   5.030   8.993  0.5092 -0.1533 -0.5507
 2328TIP3   OH228542   1.003   4.946   7.548  0.2263  0.1728  0.4047
 2328TIP3    H128543   1.027   5.036   7.524  1.3726 -0.5892 -1.5669
 2328TIP3    H228544   1.042   4.934   7.635  1.8554  0.9560 -0.1684
 2329TIP3   OH228545   5.441   1.323   1.251 -0.7130  0.1109  0.3550
 2329TIP3    H128546   5.430   1.329   1.156 -0.3037  1.0517  0.3630
 2329TIP3    H228547   5.480   1.407   1.277 -1.1440  0.0046  1.4006
 2330TIP3   OH228548   4.208   2.691   8.852 -0.3830 -0.6080  0.4921
 2330TIP3    H128549   4.207   2.740   8.934 -2.0167  0.1554  0.0466
 2330TIP3    H228550   4.300   2.692   8.825  0.1508 -0.6684  2.1681
 2331TIP3   OH228551   1.713   1.619   7.592  0.3267  0.0362 -0.5690
 2331TIP3    H128552   1.758   1.600   7.510 -1.2220 -1.5057 -1.1345
 2331TIP3    H228553   1.683   1.709   7.583  0.0845 -0.1444 -1.7568
 2332TIP3   OH228554   1.429   2.610   1.054  0.1155  0.1144 -0.2367
 2332TIP3    H128555   1.360   2.566   1.103 -0.2662  0.2773 -0.6180
 2332TIP3    H228556   1.481   2.656   1.120 -0.9464  1.0941 -0.0661
 2333TIP3   OH228557   1.954   5.573   1.495 -0.3182  0.4358 -0.3547
 2333TIP3    H128558   1.996   5.658   1.491  0.9301 -0.1861 -1.7923
 2333TIP3    H228559   2.017   5.517   1.540  0.1868 -0.3605 -1.9667
 2334TIP3   OH228560   2.880   0.559   2.368 -0.2389  0.5505 -0.1631
 2334TIP3    H128561   2.831   0.518   2.297 -0.6734  0.3248  0.2614
 2334TIP3    H228562   2.891   0.490   2.433  0.2325  0.7304 -0.0443
 2335TIP3   OH228563   2.519   1.047   0.845 -0.6164 -0.3581  0.3518
 2335TIP3    H128564   2.439   1.087   0.812 -0.2452 -0.9188 -1.3140
 2335TIP3    H228565   2.586   1.070   0.781 -0.4298 -3.7565 -0.8901
 2336TIP3   OH228566   5.097   0.374   7.171 -0.1259 -0.2243  0.3655
 2336TIP3    H128567   5.158   0.366   7.245  0.0200  0.4305  0.3239
 2336TIP3    H228568   5.030   0.309   7.188  0.8171 -1.2747  0.1894
 2337TIP3   OH228569   5.430   5.890   1.280  0.5516  0.1130 -0.2987
 2337TIP3    H128570   5.409   5.984   1.282 -0.1625  0.0168 -1.7458
 2337TIP3    H228571   5.524   5.886   1.296  0.4678  1.0201  0.5114
 2338TIP3   OH228572   3.548   5.860   7.750 -0.8339  0.0389  0.0488
 2338TIP3    H128573   3.595   5.873   7.833  1.9513  1.0144 -1.5364
 2338TIP3    H228574   3.520   5.769   7.752  0.4457 -0.3731  1.4820
 2339TIP3   OH228575   2.036   2.299   9.167  0.2105 -0.4472 -0.3461
 2339TIP3    H128576   1.973   2.228   9.178 -0.2737 -0.2741 -1.7597
 2339TIP3    H228577   1.997   2.356   9.101 -0.0125  1.8793  1.6470
 2340TIP3   OH228578   2.814   3.384   7.834  0.4163  0.6004  0.0056
 2340TIP3    H128579   2.836   3.292   7.842  0.6195  0.7156  0.8216
 2340TIP3    H228580   2.765   3.405   7.914  0.3109  1.1781 -0.2013
 2341TIP3   OH228581   5.204   6.058   7.148  0.2488 -0.6828  0.6127
 2341TIP3    H128582   5.188   6.060   7.054  2.2051 -0.7483  0.2442
 2341TIP3    H228583   5.212   6.150   7.173 -0.1698 -0.6691  0.7022
 2342TIP3   OH228584   3.659   3.182   8.136 -0.2682 -0.4381  0.8838
 2342TIP3    H128585   3.569   3.150   8.148 -0.4931 -1.6826 -2.9109
 2342TIP3    H228586   3.655   3.274   8.163 -2.0962 -0.9800  2.7733
 2343TIP3   OH228587   6.071   5.595   2.178  0.0748 -0.0575 -0.5293
 2343TIP3    H128588   6.011   5.662   2.211 -0.1100  0.0214 -1.0052
 2343TIP3    H228589   6.108   5.554   2.256 -0.7601 -0.2491 -0.2303
 2344TIP3   OH228590   2.060   1.325   2.752  0.2697 -0.4602  0.6800
 2344TIP3    H128591   2.047   1.313   2.658  0.0465  0.0098  0.6519
 2344TIP3    H228592   2.149   1.293   2.768  0.4411 -0.1986  0.2512
 2345TIP3   OH228593   6.466   6.347   8.278  0.2153  0.0952 -0.0177
 2345TIP3    H128594   6.507   6.432   8.296  3.2551 -0.9830 -1.1611
 2345TIP3    H228595   6.450   6.347   8.184 -5.3641  1.4942  0.5774
 2346TIP3   OH228596   4.083   6.551   8.242  0.0605 -0.0311 -0.1921
 2346TIP3    H128597   3.990   6.546   8.219 -0.2644 -0.4552  1.1340
 2346TIP3    H228598   4.110   6.639   8.215 -0.9744  0.4448  0.2886
 2347TIP3   OH228599   6.089   0.081   0.898 -0.2412  0.2863  0.1887
 2347TIP3    H128600   6.132  -0.003   0.913 -1.9571 -1.0241 -1.6720
 2347TIP3    H228601   6.156   0.146   0.918  1.3164 -1.5128  1.1989
 2348TIP3   OH228602   0.218   5.173   8.766 -0.0226 -0.0569  0.0554
 2348TIP3    H128603   0.148   5.150   8.828 -0.4586  0.1958 -0.3382
 2348TIP3    H228604   0.266   5.243   8.811 -0.6708  0.5091 -0.1050
 2349TIP3   OH228605   0.287   5.278   8.349  0.0801 -0.5531  0.5728
 2349TIP3    H128606   0.372   5.321   8.349  0.6019 -1.5276 -0.6794
 2349TIP3    H228607   0.224   5.350   8.343  0.8194  0.1491  1.0647
 2350TIP3   OH228608   1.748   3.423   1.491 -0.1524 -0.0674  0.5031
 2350TIP3    H128609   1.661   3.387   1.509 -0.3561  0.7921  1.2926
 2350TIP3    H228610   1.796   3.411   1.573 -0.2605  1.5422  0.8304
 2351TIP3   OH228611   2.796   0.435   7.528 -0.0426  0.0794 -0.5523
 2351TIP3    H128612   2.728   0.421   7.462  0.2567  2.6168 -1.5340
 2351TIP3    H228613   2.752   0.482   7.598  0.7959  2.9325 -1.7648
 2352TIP3   OH228614   3.820   5.033   9.090 -0.2029  0.5017  0.0207
 2352TIP3    H128615   3.888   5.079   9.041 -1.0678  0.1080 -1.6118
 2352TIP3    H228616   3.738   5.074   9.062 -1.0670 -2.2223 -1.8465
 2353TIP3   OH228617   6.007   0.721   1.962 -0.2050 -0.1333  0.8896
 2353TIP3    H128618   6.099   0.740   1.981 -0.0489 -0.5519  0.5793
 2353TIP3    H228619   5.980   0.661   2.031  0.1665 -1.1171  0.2042
 2354TIP3   OH228620   2.279   3.331   8.262  0.4142  0.0076 -0.3513
 2354TIP3    H128621   2.369   3.347   8.290  0.7205 -1.8507 -0.0931
 2354TIP3    H228622   2.226   3.387   8.318  1.3967  1.0942 -0.4702
 2355TIP3   OH228623   4.384   0.216   9.134 -0.0935 -0.3430  0.3311
 2355TIP3    H128624   4.444   0.234   9.062 -0.3491 -1.7610 -0.2748
 2355TIP3    H228625   4.427   0.148   9.185 -0.6333 -0.4850  0.6018
 2356TIP3   OH228626   2.113   2.505   8.433  0.5039 -0.6557 -0.1859
 2356TIP3    H128627   2.064   2.544   8.360 -2.0309  0.3157  1.8808
 2356TIP3    H228628   2.164   2.577   8.469 -2.2506  0.3569  2.0718
 2357TIP3   OH228629   2.217   0.801   0.724 -0.0726 -0.0118 -0.3229
 2357TIP3    H128630   2.280   0.743   0.767  0.6061 -0.5970 -2.0129
 2357TIP3    H228631   2.217   0.772   0.632 -1.5773  1.0641 -0.6942
 2358TIP3   OH228632   3.190   1.355   1.095  0.4100 -0.6896  0.0158
 2358TIP3    H128633   3.127   1.289   1.066  2.1916 -2.8542  0.6713
 2358TIP3    H228634   3.198   1.339   1.190  0.9480  0.4310  0.1680
 2359TIP3   OH228635   3.220   5.365   7.535 -0.3536 -0.2688 -0.0374
 2359TIP3    H128636   3.241   5.400   7.449  0.8037  0.0330  0.3451
 2359TIP3    H228637   3.227   5.270   7.524  0.4778 -0.2067 -0.1245
 2360TIP3   OH228638   0.382   0.381   2.077  0.3822 -0.1705 -0.4776
 2360TIP3    H128639   0.412   0.415   2.161 -1.2610  0.3608 -0.0493
 2360TIP3    H228640   0.319   0.312   2.099  0.4433 -0.5009 -1.2775
 2361TIP3   OH228641   5.926   4.548   0.575 -0.1439  0.3717  0.3004
 2361TIP3    H128642   5.852   4.501   0.616  0.4972  0.0861  1.1667
 2361TIP3    H228643   5.954   4.610   0.642  1.7285 -0.9601  0.8279
 2362TIP3   OH228644   5.025   5.029   0.525 -0.2719  0.2430  0.0243
 2362TIP3    H128645   5.061   4.978   0.597 -1.0541 -0.8638 -0.3454
 2362TIP3    H228646   4.965   4.970   0.481  0.8501  0.5853 -2.1043
 2363TIP3   OH228647   1.693   0.235   2.185  0.1501 -0.7522  0.0748
 2363TIP3    H128648   1.598   0.228   2.192 -0.4077  2.5482 -1.6884
 2363TIP3    H228649   1.718   0.170   2.119 -1.2614 -0.3040 -0.9507
 2364TIP3   OH228650   3.174   4.112   0.732  0.4288 -0.2061 -0.3925
 2364TIP3    H128651   3.164   4.163   0.652 -0.5782  0.4789  0.1470
 2364TIP3    H228652   3.131   4.029   0.714 -1.0623  0.4723 -0.1194
 2365TIP3   OH228653   4.116   4.937   8.295  0.4545 -0.0645 -0.8860
 2365TIP3    H128654   4.129   4.868   8.230  0.9477 -1.6547  0.8109
 2365TIP3    H228655   4.122   5.018   8.245  0.9446 -1.1989 -2.7881
 2366TIP3   OH228656   0.728   3.333   0.862  0.5962 -0.1069 -0.1499
 2366TIP3    H128657   0.691   3.274   0.796  0.0059  0.3684 -0.2524
 2366TIP3    H228658   0.731   3.280   0.942 -0.5109 -0.1077 -0.0864
 2367TIP3   OH228659   3.945   1.123   7.577  0.5010  0.2030  0.4700
 2367TIP3    H128660   3.983   1.060   7.515 -0.3582 -0.2845  0.4239
 2367TIP3    H228661   3.867   1.079   7.611 -0.5927  1.5687 -0.1980
 2368TIP3   OH228662   6.309   2.033   1.836 -0.0693  0.6770 -0.2543
 2368TIP3    H128663   6.227   2.041   1.886  0.1407  1.6965 -0.0708
 2368TIP3    H228664   6.291   1.962   1.773 -0.3096 -0.7070  1.2945
 2369TIP3   OH228665   4.902   2.080   8.070 -0.1949 -0.1944  0.6616
 2369TIP3    H128666   4.854   2.069   8.152 -0.9963 -0.5126  0.1602
 2369TIP3    H228667   4.883   2.000   8.021 -0.2847  0.3013 -0.1171
 2370TIP3   OH228668   1.411   2.970   0.349 -0.2016  0.4667 -0.1319
 2370TIP3    H128669   1.506   2.982   0.350 -0.1449  0.0070  0.3372
 2370TIP3    H228670   1.388   2.972   0.256  0.3666 -0.1609 -0.2975
 2371TIP3   OH228671   0.968   0.673   0.444  0.1372 -0.4808 -0.0273
 2371TIP3    H128672   1.017   0.592   0.432 -0.7970 -0.8621 -1.6418
 2371TIP3    H228673   0.975   0.692   0.537  1.7309 -1.5290  0.1033
 2372TIP3   OH228674   5.112   3.851   0.478 -0.4157  0.3920 -0.1087
 2372TIP3    H128675   5.141   3.941   0.496  0.2001  0.0766  0.4735
 2372TIP3    H228676   5.070   3.857   0.392  2.2285  0.6881 -1.4834
 2373TIP3   OH228677   4.133   2.216   1.116  0.3488 -0.2049 -0.2145
 2373TIP3    H128678   4.050   2.208   1.161 -0.4328 -0.6272 -1.6518
 2373TIP3    H228679   4.149   2.310   1.111 -1.0054  0.0023 -1.5229
 2374TIP3   OH228680   0.490   4.944   8.012 -0.2588  0.3862  0.6554
 2374TIP3    H128681   0.418   4.964   8.073 -1.1411  0.9730 -0.5449
 2374TIP3    H228682   0.529   5.029   7.993 -0.5835  0.3386 -0.2902
 2375TIP3   OH228683   3.479   0.783   0.342  0.2364  0.3138 -0.2159
 2375TIP3    H128684   3.405   0.830   0.304  0.2349  1.1550  0.7551
 2375TIP3    H228685   3.539   0.852   0.371 -0.0448 -0.2032  1.8091
 2376TIP3   OH228686   1.876   4.744   6.859  0.0759 -0.5052 -0.1425
 2376TIP3    H128687   1.930   4.665   6.864  0.0057 -0.5215  0.3935
 2376TIP3    H228688   1.887   4.786   6.944 -0.2611 -0.1783 -0.2566
 2377TIP3   OH228689   3.595   3.561   0.823 -0.6214  0.1337  0.2911
 2377TIP3    H128690   3.538   3.498   0.866  0.6739 -1.6343 -0.4843
 2377TIP3    H228691   3.643   3.510   0.758  3.4829  0.9664  2.3515
 2378TIP3   OH228692   5.849   1.060   0.435  0.0231  1.0542  0.6677
 2378TIP3    H128693   5.758   1.088   0.438 -0.3699 -0.2482  2.1031
 2378TIP3    H228694   5.854   1.003   0.358 -0.2925  1.3672  0.4119
 2379TIP3   OH228695   5.419   1.795   8.284 -0.1492 -0.4586 -0.3065
 2379TIP3    H128696   5.475   1.773   8.210  1.4945  0.9641  0.4222
 2379TIP3    H228697   5.381   1.712   8.311  0.7438 -1.3082 -1.5366
 2380TIP3   OH228698   3.029   6.402   0.335  0.0736 -0.2114  0.4122
 2380TIP3    H128699   2.970   6.333   0.362 -0.0397 -1.2187 -2.0983
 2380TIP3    H228700   2.973   6.465   0.288  0.8650 -1.1453 -1.9351
 2381TIP3   OH228701   5.289   1.918   0.137 -0.1283 -0.8449  0.4256
 2381TIP3    H128702   5.336   1.834   0.139  0.5636 -0.4675  0.5459
 2381TIP3    H228703   5.319   1.964   0.215 -1.8052 -1.1521  1.2744
 2382TIP3   OH228704   4.153   6.259   8.033 -0.2428 -0.3565  0.4363
 2382TIP3    H128705   4.207   6.203   8.089 -1.1603 -0.3206  1.4050
 2382TIP3    H228706   4.184   6.348   8.051 -0.7781 -0.3132  1.1904
 2383TIP3   OH228707   6.080   1.221   1.159 -0.0469  0.3482  0.1798
 2383TIP3    H128708   5.990   1.242   1.184 -0.5922 -1.0338 -0.4737
 2383TIP3    H228709   6.116   1.303   1.125 -0.5251  1.3095  1.8804
 2384TIP3   OH228710   0.646   2.475   0.383 -0.4399 -0.3140  0.0287
 2384TIP3    H128711   0.644   2.444   0.292  0.7213 -1.0964  0.2388
 2384TIP3    H228712   0.682   2.564   0.376 -0.8230 -0.1801 -0.3137
 2385TIP3   OH228713   1.103   0.243   7.832  0.2232 -0.1776 -0.1404
 2385TIP3    H128714   1.018   0.205   7.811  1.3973 -2.9182 -0.3512
 2385TIP3    H228715   1.124   0.208   7.919  0.6503  1.3876  0.4137
 2386TIP3   OH228716   2.292   6.520   0.382  0.4411 -0.0336  0.6103
 2386TIP3    H128717   2.339   6.482   0.456  0.4976 -1.3617 -0.0922
 2386TIP3    H228718   2.306   6.460   0.310  0.4817  1.3005 -0.5439
 2387TIP3   OH228719   0.311   6.204   1.551 -0.5851 -0.5089 -0.5683
 2387TIP3    H128720   0.254   6.280   1.562  2.9887  2.1061  1.9715
 2387TIP3    H228721   0.352   6.216   1.465 -0.9746 -0.3000 -0.7249
 2388TIP3   OH228722   4.528   0.622   0.304  0.4588  0.1646  0.6972
 2388TIP3    H128723   4.528   0.556   0.234  0.2098 -0.3803  1.2053
 2388TIP3    H228724   4.436   0.639   0.321  0.5213  0.4890  0.7122
 2389TIP3   OH228725   0.560   5.670   2.156  0.3970 -0.5153  0.0992
 2389TIP3    H128726   0.567   5.581   2.191 -0.2885 -0.2979  0.8110
 2389TIP3    H228727   0.507   5.660   2.076  2.6173 -1.1258 -1.3742
 2390TIP3   OH228728   0.161   5.536   0.934 -0.0164 -0.5964 -0.5135
 2390TIP3    H128729   0.213   5.496   0.865 -0.5716  1.4065 -2.1926
 2390TIP3    H228730   0.211   5.520   1.014  2.9179  0.7074 -1.9283
 2391TIP3   OH228731   2.602   3.264   0.622  0.0560 -0.5401 -0.1369
 2391TIP3    H128732   2.569   3.333   0.680  0.7258 -1.4861  1.4512
 2391TIP3    H228733   2.683   3.300   0.586  0.3416 -0.4273  0.5936
 2392TIP3   OH228734   0.829   0.312   6.639  0.2842 -0.2616  0.2932
 2392TIP3    H128735   0.842   0.347   6.727  2.0861  0.2864 -0.1495
 2392TIP3    H228736   0.757   0.364   6.603 -0.3962 -0.4115  1.3688
 2393TIP3   OH228737   0.616   4.754   8.748 -0.5312 -0.4811 -0.0916
 2393TIP3    H128738   0.544   4.721   8.695 -1.9829 -0.6442  1.8916
 2393TIP3    H228739   0.578   4.770   8.834  1.7330 -0.2462  0.9455
 2394TIP3   OH228740   4.163   0.266   8.852 -0.7269 -0.3932  0.5168
 2394TIP3    H128741   4.097   0.268   8.921 -2.8255 -2.1225 -1.3296
 2394TIP3    H228742   4.151   0.348   8.804  0.5650  0.6921  1.9383
 2395TIP3   OH228743   2.443   1.073   2.484 -0.0232  0.0158 -0.2855
 2395TIP3    H128744   2.413   1.149   2.535  1.6669  0.5256  0.0389
 2395TIP3    H228745   2.517   1.107   2.433 -0.7909 -0.8371 -2.0385
 2396TIP3   OH228746   4.575   4.653   1.052 -0.0334 -0.0504 -0.1791
 2396TIP3    H128747   4.611   4.669   1.140  0.0874 -1.2707  0.0069
 2396TIP3    H228748   4.639   4.596   1.010 -0.6196 -0.3423 -0.6800
 2397TIP3   OH228749   1.421   0.259   7.360 -0.0359  0.2381  0.5379
 2397TIP3    H128750   1.402   0.351   7.345 -0.5976  0.4897  2.4843
 2397TIP3    H228751   1.395   0.215   7.279  0.1123  1.7582 -0.3683
 2398TIP3   OH228752   6.188   5.018   1.857 -0.0933 -0.1969  0.0301
 2398TIP3    H128753   6.216   4.966   1.782 -0.5085 -0.1636 -0.1494
 2398TIP3    H228754   6.261   5.078   1.874 -0.3446  0.3944 -0.8952
 2399TIP3   OH228755   6.575   0.076   9.243 -0.3966 -0.1352 -0.1070
 2399TIP3    H128756   6.640   0.005   9.241 -0.5136 -0.2701  0.7489
 2399TIP3    H228757   6.559   0.091   9.336 -2.1171 -0.5899 -0.3019
 2400TIP3   OH228758   1.080   2.796   9.072 -0.3786  0.6862  0.4450
 2400TIP3    H128759   1.088   2.809   8.977  1.1045  0.1686  0.4812
 2400TIP3    H228760   1.012   2.729   9.081  2.8945 -3.1941 -0.6393
 2401TIP3   OH228761   3.782   5.185   7.929 -0.0131  0.3258 -0.3822
 2401TIP3    H128762   3.848   5.116   7.922 -0.2298  0.1566 -0.8690
 2401TIP3    H228763   3.818   5.257   7.877  0.7922  1.0740  1.1321
 2402TIP3   OH228764   1.453   0.041   0.320 -0.1338  0.5741 -0.0728
 2402TIP3    H128765   1.548   0.054   0.314  0.0709 -1.0294 -0.9893
 2402TIP3    H228766   1.438  -0.043   0.276 -2.1926  1.6396 -1.5531
 2403TIP3   OH228767   5.954   0.761   1.323  0.5687  0.5128  0.1630
 2403TIP3    H128768   5.953   0.703   1.247 -1.5933  0.6178  0.0502
 2403TIP3    H228769   5.935   0.703   1.397  2.2671  0.4782  0.6166
 2404TIP3   OH228770   0.323   0.664   8.020 -0.3620 -0.2407  0.0324
 2404TIP3    H128771   0.265   0.718   8.074  1.1546  0.3614  1.1422
 2404TIP3    H228772   0.398   0.720   8.002  0.7458 -1.5902  0.2389
 2405TIP3   OH228773   1.331   1.480   6.928 -0.5428  0.6151 -0.0681
 2405TIP3    H128774   1.289   1.554   6.884 -1.3806  0.6071  0.6867
 2405TIP3    H228775   1.423   1.488   6.906 -0.7798  1.2412 -0.9093
 2406TIP3   OH228776   5.041   5.508   1.562 -0.3275 -0.1473  0.4506
 2406TIP3    H128777   5.004   5.425   1.593 -1.2050 -0.0647 -0.3633
 2406TIP3    H228778   5.131   5.507   1.595 -0.8476 -0.6222  1.9467
 2407TIP3   OH228779   4.213   5.719   8.714  0.6374  0.3059  0.8658
 2407TIP3    H128780   4.130   5.753   8.680  0.5511 -0.4249  0.3146
 2407TIP3    H228781   4.280   5.760   8.661  0.6039  0.5330  0.9972
 2408TIP3   OH228782   3.666   4.392   0.470  0.1482 -0.4221  0.1462
 2408TIP3    H128783   3.715   4.456   0.420  1.0881  0.5708  2.2332
 2408TIP3    H228784   3.577   4.427   0.472  0.3103  0.0103 -0.0119
 2409TIP3   OH228785   5.151   5.709   8.053  0.1044  0.2102  0.9113
 2409TIP3    H128786   5.174   5.646   7.985 -0.3907  0.2387  0.7147
 2409TIP3    H228787   5.057   5.701   8.063 -0.1397  1.6435  0.1357
 2410TIP3   OH228788   5.963   1.236   0.151 -0.4752  0.3243  0.0535
 2410TIP3    H128789   5.995   1.176   0.084 -0.6266  1.6626 -1.2573
 2410TIP3    H228790   5.932   1.179   0.221  0.1825 -1.0964 -0.7664
 2411TIP3   OH228791   3.582   4.815   1.979  0.2597 -0.0278 -0.1756
 2411TIP3    H128792   3.660   4.774   2.016 -0.8911 -2.0193  0.2077
 2411TIP3    H228793   3.559   4.884   2.041  2.3875  1.4858 -0.9542
 2412TIP3   OH228794   2.307   2.391   1.408 -0.0100 -0.0373  0.1775
 2412TIP3    H128795   2.301   2.432   1.322  1.2927 -0.0505  0.0594
 2412TIP3    H228796   2.401   2.379   1.422 -0.1154  1.0467  2.1169
 2413TIP3   OH228797   2.898   5.145   0.611  0.7479 -0.4161 -0.3720
 2413TIP3    H128798   2.954   5.222   0.597  0.8492 -0.8585 -2.6815
 2413TIP3    H228799   2.831   5.151   0.543  0.3070 -1.9702 -0.1057
 2414TIP3   OH228800   2.986   3.112   9.089  0.2503 -0.8007 -1.1337
 2414TIP3    H128801   2.991   3.179   9.158  1.8410 -0.4218 -1.5746
 2414TIP3    H228802   2.914   3.056   9.116 -1.3831  1.2658 -0.9275
 2415TIP3   OH228803   4.249   2.541   0.218 -0.0560  0.0977  0.1252
 2415TIP3    H128804   4.324   2.506   0.267 -0.5067 -1.5543 -0.2892
 2415TIP3    H228805   4.209   2.604   0.277  1.6328  1.0086  0.3658
 2416TIP3   OH228806   5.776   5.867   9.198 -0.3826  0.0387  0.3562
 2416TIP3    H128807   5.810   5.943   9.245 -0.8684 -0.5209  1.6727
 2416TIP3    H228808   5.682   5.869   9.214 -0.3705 -0.9708  0.6342
 2417TIP3   OH228809   1.211   3.064   9.292  0.2158  0.2931  0.0730
 2417TIP3    H128810   1.158   3.037   9.217  0.5799  1.6726 -0.7142
 2417TIP3    H228811   1.274   2.994   9.303 -0.8709 -0.7071  0.1425
 2418TIP3   OH228812   4.352   3.036   7.820 -0.5933  0.4286 -0.8732
 2418TIP3    H128813   4.444   3.011   7.813 -0.7736 -0.0053 -1.8035
 2418TIP3    H228814   4.308   2.958   7.856 -0.6042  0.6272 -0.4495
 2419TIP3   OH228815   4.792   1.982   7.547 -0.6300  0.5299 -0.4595
 2419TIP3    H128816   4.776   1.976   7.453  2.3109  0.5068 -1.0270
 2419TIP3    H228817   4.718   2.034   7.580 -0.7748  2.1535 -3.0663
 2420TIP3   OH228818   0.769   2.997   0.892  0.1526  0.2126  0.3015
 2420TIP3    H128819   0.714   3.045   0.954 -1.6065 -0.8030 -0.3915
 2420TIP3    H228820   0.854   2.990   0.935  0.1109  2.8018  0.9397
 2421TIP3   OH228821   1.777   2.936   0.625  0.1358 -0.4951 -0.1164
 2421TIP3    H128822   1.865   2.910   0.652 -0.3075 -1.0092  0.9097
 2421TIP3    H228823   1.724   2.857   0.638 -0.4632 -0.2119 -0.7768
 2422TIP3   OH228824   2.450   5.452   0.485 -0.0499 -0.1771 -0.2456
 2422TIP3    H128825   2.401   5.533   0.473  1.3492  0.3548 -3.4414
 2422TIP3    H228826   2.385   5.383   0.477 -0.8342  0.5795 -0.6073
 2423TIP3   OH228827   1.549   4.948   9.316 -0.5621  0.7024 -0.0653
 2423TIP3    H128828   1.607   5.025   9.324 -0.7965  0.9052 -0.3082
 2423TIP3    H228829   1.588   4.896   9.246  0.5121 -0.2116  1.1631
 2424TIP3   OH228830   5.846   3.344   7.773 -0.2137  0.4083  0.3718
 2424TIP3    H128831   5.861   3.275   7.837 -0.3494  1.5404  1.6720
 2424TIP3    H228832   5.831   3.423   7.826  1.3614  1.7461 -1.0498
 2425TIP3   OH228833   4.287   2.262   1.458  0.2134  0.2387  0.1452
 2425TIP3    H128834   4.212   2.281   1.514 -1.5157 -3.2164 -0.7510
 2425TIP3    H228835   4.362   2.296   1.507 -1.4658 -0.0756  3.2019
 2426TIP3   OH228836   2.250   4.593   1.135  0.1128  0.2567  0.2539
 2426TIP3    H128837   2.308   4.634   1.071  2.8356 -1.0736  1.7047
 2426TIP3    H228838   2.260   4.499   1.120  0.0581 -0.0541  1.9832
 2427TIP3   OH228839   4.803   3.915   0.154 -0.5396 -0.5383 -0.1982
 2427TIP3    H128840   4.851   3.843   0.111  0.0055 -0.3269  0.0410
 2427TIP3    H228841   4.712   3.886   0.156 -0.4155 -0.9669 -0.6359
 2428TIP3   OH228842   0.668   1.511   8.959  0.0608 -0.2828 -0.0257
 2428TIP3    H128843   0.762   1.506   8.976 -0.1915 -0.6329  1.3829
 2428TIP3    H228844   0.662   1.524   8.864  1.4993 -1.0935 -0.2602
 2429TIP3   OH228845   5.268   5.513   7.899  0.0826  0.0393  0.6045
 2429TIP3    H128846   5.363   5.504   7.893 -0.0119 -1.4292  0.8835
 2429TIP3    H228847   5.242   5.449   7.966 -1.0821  0.5303  0.6422
 2430TIP3   OH228848   2.682   6.093   0.248  0.2214  0.6286 -0.3269
 2430TIP3    H128849   2.689   6.017   0.190 -1.3974  0.0125  0.2264
 2430TIP3    H228850   2.697   6.168   0.190 -0.1209 -0.0236 -1.2884
 2431TIP3   OH228851   4.124   0.353   7.433  0.2303  0.0266 -0.3929
 2431TIP3    H128852   4.103   0.266   7.466 -1.1769  0.8074  0.8934
 2431TIP3    H228853   4.217   0.349   7.412  0.7470 -1.1312  1.8622
 2432TIP3   OH228854   1.224   5.583   9.308 -0.2354 -0.5351 -0.2050
 2432TIP3    H128855   1.207   5.533   9.227 -0.2438  0.4866 -0.8523
 2432TIP3    H228856   1.200   5.673   9.286  1.1141  0.0171  0.4883
 2433TIP3   OH228857   1.160   3.708   9.050 -0.0902 -0.3443  0.0286
 2433TIP3    H128858   1.101   3.675   9.117 -0.7293  2.0054  0.7314
 2433TIP3    H228859   1.181   3.798   9.078  0.0583  0.5506 -2.6138
 2434TIP3   OH228860   1.541   3.947   8.450 -0.4957 -0.0512  0.0601
 2434TIP3    H128861   1.470   3.919   8.507  0.5764  0.4704  1.7356
 2434TIP3    H228862   1.510   4.029   8.411 -0.6922  0.3684  1.0680
 2435TIP3   OH228863   5.848   5.835   0.472  0.3130  0.5498  0.3789
 2435TIP3    H128864   5.928   5.877   0.501 -0.0010  1.0150  0.5797
 2435TIP3    H228865   5.803   5.811   0.553  0.9618 -1.1226  0.2937
 2436TIP3   OH228866   5.457   2.444   6.414  0.1623 -0.0177  0.1685
 2436TIP3    H128867   5.392   2.476   6.351 -1.2122  0.2396  1.6540
 2436TIP3    H228868   5.541   2.470   6.377 -0.6139  0.3915 -1.4000
 2437TIP3   OH228869   0.304   0.435   0.603  0.5195  0.5325 -0.5498
 2437TIP3    H128870   0.393   0.407   0.623 -0.7498 -3.7175  0.3456
 2437TIP3    H228871   0.300   0.435   0.507  0.9429 -2.0710 -0.6624
 2438TIP3   OH228872   4.434   5.063   3.081 -0.0900 -0.2565  0.1577
 2438TIP3    H128873   4.464   5.084   2.992  2.5600 -2.1365  0.4887
 2438TIP3    H228874   4.460   4.972   3.094  2.6407  0.8552  3.9697
 2439TIP3   OH228875   1.723   2.275   1.144  0.2482 -0.0191 -0.0629
 2439TIP3    H128876   1.669   2.237   1.074  1.0695  0.9984 -1.2772
 2439TIP3    H228877   1.707   2.218   1.219 -2.1681 -0.0387 -0.4892
 2440TIP3   OH228878   5.409   0.293   2.013  0.6656 -0.3634 -0.3982
 2440TIP3    H128879   5.401   0.288   1.918  1.1484  0.2046 -0.4745
 2440TIP3    H228880   5.482   0.353   2.028  0.9537 -0.8854  0.3303
 2441TIP3   OH228881   2.303   1.516   8.319 -0.5501  0.3636  0.0904
 2441TIP3    H128882   2.379   1.519   8.376 -1.1088  0.7793  0.8149
 2441TIP3    H228883   2.231   1.549   8.372 -1.3250 -0.4080 -0.4535
 2442TIP3   OH228884   2.590   4.102   7.473  0.3243 -0.7967 -0.0020
 2442TIP3    H128885   2.569   4.009   7.484 -1.1480 -0.4207  0.6172
 2442TIP3    H228886   2.593   4.114   7.378  0.2162 -1.4181 -0.0906
 2443TIP3   OH228887   6.056   3.004   8.613  0.1894 -0.1857  0.4356
 2443TIP3    H128888   6.149   3.003   8.636 -0.3220 -2.9545  2.8490
 2443TIP3    H228889   6.041   3.094   8.582  3.4443  0.6070  0.7363
 2444TIP3   OH228890   2.213   2.127   7.820 -0.2095 -0.0202  0.0928
 2444TIP3    H128891   2.136   2.124   7.763 -0.0476 -0.9967 -0.0982
 2444TIP3    H228892   2.231   2.035   7.840  1.0268  0.1757 -0.0349
 2445TIP3   OH228893   1.980   1.280   1.578  0.0954 -0.0830 -0.8745
 2445TIP3    H128894   1.942   1.312   1.660 -0.9679 -0.2616 -1.2786
 2445TIP3    H228895   2.046   1.345   1.555 -1.4161  1.3746 -1.2255
 2446TIP3   OH228896   4.321   5.127   0.291  0.4376  0.0390 -0.0189
 2446TIP3    H128897   4.351   5.161   0.376  0.0744  0.1165  0.0812
 2446TIP3    H228898   4.257   5.059   0.315  0.8550 -0.4297 -0.2221
 2447TIP3   OH228899   4.988   3.217   2.353  0.1664  0.6067 -0.0809
 2447TIP3    H128900   4.938   3.148   2.309  0.3322  0.1113  0.4897
 2447TIP3    H228901   5.079   3.201   2.325  0.0320  1.4527 -1.0498
 2448TIP3   OH228902   1.217   2.717   1.674  0.2329 -0.5131  0.2938
 2448TIP3    H128903   1.278   2.744   1.606  2.3039 -2.3988  1.2531
 2448TIP3    H228904   1.154   2.660   1.630 -1.2865  1.9035 -0.8173
 2449TIP3   OH228905   4.231   1.923   7.941  0.1417 -0.6830 -0.5393
 2449TIP3    H128906   4.152   1.977   7.942 -0.8167 -2.0305 -0.6677
 2449TIP3    H228907   4.233   1.882   8.028  1.3475  0.2163 -0.1188
 2450TIP3   OH228908   2.278   3.737   7.295  0.5700  0.1866 -0.4810
 2450TIP3    H128909   2.262   3.667   7.232  0.2899 -0.1560 -0.0388
 2450TIP3    H228910   2.373   3.749   7.294  0.6865 -0.6760 -0.0594
 2451TIP3   OH228911   2.287   5.661   2.636  0.2571  0.7799  0.1137
 2451TIP3    H128912   2.360   5.640   2.694 -0.5139  0.3305  0.9225
 2451TIP3    H228913   2.211   5.671   2.693 -0.5248  0.3087 -0.8047
 2452TIP3   OH228914   3.438   4.585   0.419  0.4938  0.6244 -0.4262
 2452TIP3    H128915   3.387   4.623   0.347  1.7751  1.7065 -0.7939
 2452TIP3    H228916   3.499   4.654   0.445  0.0947  0.2309  1.6930
 2453TIP3   OH228917   3.389   2.096   7.262 -0.2243  0.0999  0.2838
 2453TIP3    H128918   3.427   2.078   7.347  0.1495 -1.4810 -0.1894
 2453TIP3    H228919   3.455   2.149   7.217 -1.2649  2.7316  1.6290
 2454TIP3   OH228920   4.869   4.989   8.481  0.0513 -0.0501 -0.1896
 2454TIP3    H128921   4.942   4.959   8.426 -0.7845 -1.1471 -0.7361
 2454TIP3    H228922   4.867   4.926   8.554 -0.4276 -0.0957 -0.2435
 2455TIP3   OH228923   2.309   2.543   2.586 -0.3442  0.5289  0.0468
 2455TIP3    H128924   2.269   2.483   2.523 -0.0513  1.5646 -1.1419
 2455TIP3    H228925   2.395   2.563   2.550 -0.5823  1.9609  0.2324
 2456TIP3   OH228926   6.082   0.356   0.015  0.0914 -0.2671  0.2939
 2456TIP3    H128927   6.053   0.309   0.093  0.8099 -0.8150  0.2390
 2456TIP3    H228928   6.004   0.362  -0.040  0.2983 -2.7893 -0.4008
 2457TIP3   OH228929   6.071   2.398   0.562  0.2200  0.1503  0.0200
 2457TIP3    H128930   6.016   2.320   0.576  1.3618 -0.6329  0.3083
 2457TIP3    H228931   6.014   2.472   0.583 -1.5556 -0.4566 -2.2613
 2458TIP3   OH228932   1.907   6.310   1.235 -0.2174  0.2813 -0.3157
 2458TIP3    H128933   1.920   6.400   1.208  0.1720  0.9669  1.9638
 2458TIP3    H228934   1.977   6.293   1.298 -2.1636 -0.5288  1.7410
 2459TIP3   OH228935   4.056   1.593   7.239  0.0850  0.3293 -0.3058
 2459TIP3    H128936   4.048   1.678   7.197  1.4275  0.4866 -0.2788
 2459TIP3    H228937   4.007   1.533   7.183 -1.4761  1.2180  0.0530
 2460TIP3   OH228938   1.296   4.838   1.876 -0.0861  0.1277  0.3748
 2460TIP3    H128939   1.293   4.795   1.962 -0.0736 -0.8394 -0.1027
 2460TIP3    H228940   1.372   4.897   1.882 -1.1267  1.4326  1.6357
 2461TIP3   OH228941   2.967   4.693   6.902 -0.3870  0.7946  0.5102
 2461TIP3    H128942   3.050   4.672   6.859 -0.4823 -0.8659  1.0702
 2461TIP3    H228943   2.901   4.681   6.834 -0.2660  1.1265  0.3325
 2462TIP3   OH228944   1.635   2.182   0.328  0.2096  0.1687 -0.2871
 2462TIP3    H128945   1.585   2.224   0.258  2.2000  1.2554 -1.1172
 2462TIP3    H228946   1.673   2.104   0.287 -0.4501 -0.4652  0.2550
 2463TIP3   OH228947   1.343   3.834   0.666 -0.4833 -0.1198  0.0437
 2463TIP3    H128948   1.319   3.852   0.576 -1.6011  0.3168  0.4133
 2463TIP3    H228949   1.276   3.773   0.697  0.9281 -1.7409  0.0481
 2464TIP3   OH228950   2.032   0.785   1.007  0.1564 -0.3384 -0.5380
 2464TIP3    H128951   2.037   0.690   0.995  0.0595 -0.1976 -1.7507
 2464TIP3    H228952   1.938   0.804   1.013  0.1843 -0.3422 -0.0616
 2465TIP3   OH228953   6.403   4.643   7.289  0.4720  0.0420  0.5272
 2465TIP3    H128954   6.345   4.573   7.258 -1.4711  1.7279  0.1151
 2465TIP3    H228955   6.476   4.643   7.227 -1.5255  0.9410 -2.0379
 2466TIP3   OH228956   4.541   1.013   7.498 -0.0727 -0.1615 -0.3482
 2466TIP3    H128957   4.465   1.034   7.552  0.2393 -3.1837  1.5132
 2466TIP3    H228958   4.616   1.036   7.553  0.3176 -0.1298 -0.8883
 2467TIP3   OH228959   5.815   4.324   1.222 -0.1217  0.3146  0.1406
 2467TIP3    H128960   5.897   4.374   1.230  0.6359 -1.1167  2.0950
 2467TIP3    H228961   5.780   4.321   1.310 -2.0951  0.4986 -0.5947
 2468TIP3   OH228962   4.735   1.761   8.552 -0.3255  0.6869 -0.2817
 2468TIP3    H128963   4.681   1.836   8.525 -1.2993  0.7937  1.7720
 2468TIP3    H228964   4.671   1.696   8.582  0.6147  0.5451  1.5708
 2469TIP3   OH228965   6.182   3.544   0.098  0.3101  0.6389  0.5193
 2469TIP3    H128966   6.180   3.449   0.095 -0.6165  0.6922 -1.4528
 2469TIP3    H228967   6.119   3.567   0.167  0.9202 -0.1444  1.3747
 2470TIP3   OH228968   5.286   4.372   8.348  0.5016 -0.2277  0.5269
 2470TIP3    H128969   5.259   4.440   8.286  0.8508  0.4802  1.1356
 2470TIP3    H228970   5.238   4.294   8.321  0.0060  0.2923 -0.1153
 2471TIP3   OH228971   1.755   5.131   0.858  0.4462 -0.4525 -0.1494
 2471TIP3    H128972   1.668   5.114   0.821  0.2262 -0.1145  0.1938
 2471TIP3    H228973   1.765   5.064   0.926  0.9384 -1.2046 -0.9444
 2472TIP3   OH228974   0.959   0.520   0.722 -0.5887 -0.1650 -0.4170
 2472TIP3    H128975   1.000   0.523   0.808  0.0182  0.0298 -0.7095
 2472TIP3    H228976   0.911   0.602   0.714 -0.1733  0.0716 -0.4934
 2473TIP3   OH228977   2.384   6.492   0.845 -0.5366  0.1498  0.1172
 2473TIP3    H128978   2.319   6.505   0.914 -0.6899 -0.5877  0.1266
 2473TIP3    H228979   2.468   6.510   0.887 -0.5307 -1.3469  0.8316
 2474TIP3   OH228980   4.476   6.293   1.942 -0.2523 -0.1582 -0.5116
 2474TIP3    H128981   4.402   6.302   2.002 -1.7908  1.7783 -2.5291
 2474TIP3    H228982   4.554   6.301   1.998 -1.4785 -2.3214  1.6825
 2475TIP3   OH228983   2.858   5.020   7.837  0.3747 -0.1456  0.4987
 2475TIP3    H128984   2.941   5.054   7.802 -0.0862 -0.4180 -0.9377
 2475TIP3    H228985   2.884   4.953   7.900  1.2624  1.0122  1.4001
 2476TIP3   OH228986   2.908   5.056   1.717  0.1231 -0.6000 -0.3264
 2476TIP3    H128987   2.872   5.113   1.785  1.4830  0.0248 -0.0828
 2476TIP3    H228988   2.832   5.024   1.669 -0.7104  1.7666 -0.7293
 2477TIP3   OH228989   4.070   4.502   7.879  0.0283 -0.5191 -0.2661
 2477TIP3    H128990   3.978   4.507   7.852 -0.5189  1.2573  1.6670
 2477TIP3    H228991   4.116   4.562   7.820 -0.0645 -1.2665 -1.1140
 2478TIP3   OH228992   5.048   4.538   2.663  0.3400  0.4580  0.2238
 2478TIP3    H128993   4.967   4.505   2.700 -0.1586  1.1076 -0.2643
 2478TIP3    H228994   5.072   4.474   2.596  0.5552 -0.0396  0.7663
 2479TIP3   OH228995   3.902   5.259   0.794  0.2697 -0.3830  0.2797
 2479TIP3    H128996   3.942   5.321   0.855 -1.1696  3.5702 -2.3562
 2479TIP3    H228997   3.815   5.295   0.777 -0.4150 -2.7965 -2.0114
 2480TIP3   OH228998   3.912   2.258   9.300  0.5912  0.3021 -0.0545
 2480TIP3    H128999   3.994   2.306   9.301  0.9178 -0.1569 -1.7890
 2480TIP3    H229000   3.929   2.180   9.353  0.7962  0.9244  0.8092
 2481TIP3   OH229001   3.803   0.453   8.029 -0.0109  0.4546 -0.1196
 2481TIP3    H129002   3.836   0.492   7.947  0.0221 -0.8903 -0.7707
 2481TIP3    H229003   3.732   0.511   8.055  0.7159  1.5462 -0.4814
 2482TIP3   OH229004   4.148   0.999   1.589  0.2806  0.5449  0.3996
 2482TIP3    H129005   4.178   1.090   1.581 -3.0026  1.6194 -2.3812
 2482TIP3    H229006   4.055   1.007   1.611  0.1141 -2.2137  1.0059
 2483TIP3   OH229007   3.149   5.876   1.756 -0.1790  0.0832  0.5980
 2483TIP3    H129008   3.105   5.960   1.744 -1.6482 -0.3469  2.5627
 2483TIP3    H229009   3.231   5.898   1.799  0.9206  0.7332 -1.6448
 2484TIP3   OH229010   2.624   4.025   8.042  0.2037 -0.3512  0.3035
 2484TIP3    H129011   2.591   3.964   8.108  0.1017  0.2177  0.7896
 2484TIP3    H229012   2.650   4.103   8.092  0.4498 -0.0450 -0.2905
 2485TIP3   OH229013   5.407   2.241   8.956 -1.0157 -0.0277  0.0600
 2485TIP3    H129014   5.357   2.226   9.036  0.4669 -1.1625  0.8213
 2485TIP3    H229015   5.395   2.161   8.905 -1.6786  0.5573 -0.7276
 2486TIP3   OH229016   1.481   1.862   2.124 -0.0951  0.1755 -0.0929
 2486TIP3    H129017   1.567   1.888   2.091  0.3849 -1.7600 -0.4740
 2486TIP3    H229018   1.500   1.799   2.194 -1.2027  0.3889  0.4333
 2487TIP3   OH229019   0.463   3.563   1.623  0.0920 -0.6497 -0.1420
 2487TIP3    H129020   0.427   3.475   1.619 -1.0421 -0.3139  1.7383
 2487TIP3    H229021   0.552   3.551   1.657 -0.6687 -0.9755  1.8535
 2488TIP3   OH229022   5.152   0.372   0.569 -0.3148  0.1386 -0.0347
 2488TIP3    H129023   5.111   0.455   0.591 -1.7684 -0.0697 -1.7219
 2488TIP3    H229024   5.184   0.337   0.652  0.1804  2.2722  0.7318
 2489TIP3   OH229025   6.625   5.788   0.460  0.0187 -0.1390 -0.1994
 2489TIP3    H129026   6.695   5.723   0.453 -0.3921 -0.4047 -2.4527
 2489TIP3    H229027   6.665   5.861   0.509  1.3628 -0.9092 -0.0881
 2490TIP3   OH229028   1.903   0.580   8.484 -0.4001 -0.2052 -0.0916
 2490TIP3    H129029   1.897   0.527   8.564 -1.1191  0.9747  0.6756
 2490TIP3    H229030   1.941   0.522   8.419  2.0177 -0.6622  1.6002
 2491TIP3   OH229031   2.171   5.445   8.398 -0.5180  0.0115 -0.3619
 2491TIP3    H129032   2.135   5.486   8.477  0.7369 -0.1630  0.3431
 2491TIP3    H229033   2.174   5.516   8.334 -0.0530  0.5926  0.2765
 2492TIP3   OH229034   3.969   5.465   8.067 -0.4876  0.2619  0.7731
 2492TIP3    H129035   3.922   5.408   8.128  0.2512 -1.0581  0.1549
 2492TIP3    H229036   3.906   5.535   8.047 -1.8440 -0.9125  0.7159
 2493TIP3   OH229037   2.022   4.672   1.622 -0.1249 -0.1862 -0.4732
 2493TIP3    H129038   2.025   4.582   1.588  1.9558 -0.3350 -0.0067
 2493TIP3    H229039   2.079   4.722   1.564 -0.1737  0.5310  0.0828
 2494TIP3   OH229040   4.501   5.700   7.655 -0.1273 -0.3396 -0.4757
 2494TIP3    H129041   4.411   5.733   7.652 -0.4486 -1.1646 -0.0977
 2494TIP3    H229042   4.549   5.767   7.704 -0.4142  0.3533 -1.1149
 2495TIP3   OH229043   2.383   0.250   8.482  0.0722 -0.1846  0.7881
 2495TIP3    H129044   2.467   0.296   8.480 -0.4739  0.8666  0.8988
 2495TIP3    H229045   2.399   0.167   8.437  1.0133  0.2591  0.2753
 2496TIP3   OH229046   3.128   0.780   1.594  0.4763  0.2113 -0.2372
 2496TIP3    H129047   3.085   0.764   1.510  1.2140  0.0082 -0.5826
 2496TIP3    H229048   3.063   0.827   1.646 -0.3760 -0.6196 -0.5404
 2497TIP3   OH229049   5.320   1.097   8.331 -0.0227  0.2253 -0.7744
 2497TIP3    H129050   5.242   1.074   8.382  0.0963 -0.6179 -0.9611
 2497TIP3    H229051   5.321   1.034   8.259  1.0774 -0.0586 -0.5245
 2498TIP3   OH229052   0.340   6.595   2.003  0.3133  0.4056  0.1198
 2498TIP3    H129053   0.266   6.559   1.955  0.9672  1.8346 -2.1613
 2498TIP3    H229054   0.301   6.641   2.077 -1.0697  0.7833 -0.7986
 2499TIP3   OH229055   4.123   4.463   0.488  0.3282  0.1170  0.6234
 2499TIP3    H129056   4.214   4.472   0.517  0.4426  0.1408  0.2679
 2499TIP3    H229057   4.080   4.413   0.557  0.5580  0.2977  0.9007
 2500TIP3   OH229058   3.979   4.781   9.019  0.1990  0.2114  0.3966
 2500TIP3    H129059   3.934   4.804   9.100  0.8118 -0.5756  0.9795
 2500TIP3    H229060   3.965   4.856   8.961  0.1876  1.0100  1.4105
 2501TIP3   OH229061   5.152   5.834   1.033  0.0656 -0.2345 -0.3483
 2501TIP3    H129062   5.236   5.875   1.013 -0.6370  1.0646 -0.7432
 2501TIP3    H229063   5.154   5.818   1.127  1.0157 -0.8578 -0.4610
 2502TIP3   OH229064   4.810   1.536   8.859 -0.2997 -0.2708  0.1511
 2502TIP3    H129065   4.729   1.579   8.834  0.6798  1.4855 -0.1054
 2502TIP3    H229066   4.878   1.603   8.850  1.1533 -1.6058  0.6247
 2503TIP3   OH229067   0.703   6.238   8.706 -0.1587 -0.1289 -0.4511
 2503TIP3    H129068   0.690   6.304   8.638 -0.3085 -0.1205 -0.4147
 2503TIP3    H229069   0.629   6.178   8.696 -1.2704  0.9271  0.9239
 2504TIP3   OH229070   6.540   1.783   0.299 -0.2699  0.1712 -0.4042
 2504TIP3    H129071   6.476   1.804   0.230 -1.1161 -1.0490 -0.0271
 2504TIP3    H229072   6.578   1.700   0.271  0.2078  0.2423  0.0369
 2505TIP3   OH229073   2.916   4.266   8.287  0.2786 -0.4010  0.1114
 2505TIP3    H129074   2.876   4.236   8.369 -0.1173 -0.8354 -0.2400
 2505TIP3    H229075   2.846   4.313   8.242  0.1095 -1.2817 -0.5683
 2506TIP3   OH229076   4.998   3.042   1.198  0.3491 -0.6151 -0.1298
 2506TIP3    H129077   5.089   3.023   1.222  0.2203 -0.2375  0.7183
 2506TIP3    H229078   4.980   2.986   1.123  2.2599  1.5144 -2.3399
 2507TIP3   OH229079   5.398   4.306   1.530  0.0856  0.0002  0.3062
 2507TIP3    H129080   5.342   4.383   1.544 -2.5196 -1.2210 -2.3660
 2507TIP3    H229081   5.398   4.262   1.615  0.0632  1.9208  1.3854
 2508TIP3   OH229082   0.061   1.617   8.983  0.9115 -0.4040 -0.0208
 2508TIP3    H129083   0.074   1.709   8.961  0.5213 -0.3726 -0.1406
 2508TIP3    H229084  -0.034   1.605   8.980  0.9826 -0.9241 -0.4848
 2509TIP3   OH229085   3.353   0.043   1.333  0.8013  0.3824  0.7172
 2509TIP3    H129086   3.327  -0.048   1.315  0.4330  0.7810 -0.9444
 2509TIP3    H229087   3.323   0.059   1.422  1.1178 -1.2087  1.1463
 2510TIP3   OH229088   1.029   3.168   8.738 -0.4673  0.2977 -0.3666
 2510TIP3    H129089   1.038   3.260   8.765  3.3970  0.6719 -2.1392
 2510TIP3    H229090   1.010   3.173   8.644  0.1855 -0.6668 -0.5650
 2511TIP3   OH229091   4.325   1.672   0.152 -0.5208  0.0964 -0.0922
 2511TIP3    H129092   4.296   1.682   0.061 -0.6559 -0.5579 -0.1187
 2511TIP3    H229093   4.346   1.580   0.161 -0.1093  0.2355  0.4281
 2512TIP3   OH229094   0.256   0.519   7.731 -0.2765 -0.2203 -0.3291
 2512TIP3    H129095   0.315   0.556   7.666  0.0199 -0.8448 -0.4152
 2512TIP3    H229096   0.313   0.494   7.804 -0.6995  1.3537  0.6101
 2513TIP3   OH229097   3.803   2.701   2.120 -0.0240 -0.3288  0.1566
 2513TIP3    H129098   3.751   2.712   2.200 -2.1224 -0.4630 -1.1066
 2513TIP3    H229099   3.837   2.789   2.102  1.1415 -0.4501  1.5876
 2514TIP3   OH229100   2.189   3.146   7.892  0.0190  0.5859 -0.2803
 2514TIP3    H129101   2.201   3.084   7.820  0.4418 -0.0090  0.2814
 2514TIP3    H229102   2.111   3.196   7.868 -1.5972 -1.5347  0.1847
 2515TIP3   OH229103   0.175   5.419   9.099  0.7334  0.0271  0.0835
 2515TIP3    H129104   0.259   5.419   9.052  0.6601 -1.1252 -0.0845
 2515TIP3    H229105   0.148   5.327   9.098 -0.3291  0.3274  0.5073
 2516TIP3   OH229106   0.922   5.974   9.002  0.1020  0.0893  0.3700
 2516TIP3    H129107   0.877   6.037   9.058  0.9433  0.9797  0.0728
 2516TIP3    H229108   0.938   6.022   8.921  0.8964 -0.4537  0.1979
 2517TIP3   OH229109   1.204   1.689   1.102 -0.5484 -0.4313 -0.4743
 2517TIP3    H129110   1.243   1.728   1.180 -0.5330 -0.8910 -0.2533
 2517TIP3    H229111   1.209   1.759   1.036  0.8876 -0.5595 -0.5305
 2518TIP3   OH229112   1.508   0.705   2.943 -0.5149 -0.5376 -0.1555
 2518TIP3    H129113   1.560   0.772   2.988 -0.0511 -1.9539  1.5297
 2518TIP3    H229114   1.566   0.671   2.875 -0.8250  0.8533 -1.1620
 2519TIP3   OH229115   2.647   0.790   0.821  0.0818  0.0469 -0.0021
 2519TIP3    H129116   2.598   0.866   0.854 -1.3828 -0.0341 -1.8250
 2519TIP3    H229117   2.717   0.829   0.767 -1.4653  0.1823 -2.0314
 2520TIP3   OH229118   6.406   4.093   8.443  0.4110 -0.3369  0.3485
 2520TIP3    H129119   6.423   4.100   8.537  1.3092  0.2350  0.1559
 2520TIP3    H229120   6.476   4.037   8.409 -0.0932 -0.8063  0.0650
 2521TIP3   OH229121   5.534   0.599   7.340  0.1560  0.6330 -0.0221
 2521TIP3    H129122   5.579   0.605   7.424 -0.1390 -0.4030  0.2288
 2521TIP3    H229123   5.570   0.519   7.300 -1.2315 -0.0625  0.0636
 2522TIP3   OH229124   2.911   5.243   8.176  0.3569  0.0153 -0.0309
 2522TIP3    H129125   2.866   5.327   8.169 -0.7196 -0.6805 -2.4567
 2522TIP3    H229126   2.848   5.185   8.218  1.0420  0.3378  1.4982
 2523TIP3   OH229127   5.780   5.474   0.346 -0.1470  0.2218  0.3984
 2523TIP3    H129128   5.830   5.481   0.265 -0.8939 -0.6033 -0.1603
 2523TIP3    H229129   5.836   5.421   0.403  0.2544  0.5544  0.3200
 2524TIP3   OH229130   0.531   1.720   8.328 -0.1578  0.1065  0.3908
 2524TIP3    H129131   0.440   1.696   8.311  0.4786 -1.1192 -1.5478
 2524TIP3    H229132   0.528   1.762   8.414 -2.5695  0.2845  0.3030
 2525TIP3   OH229133   0.943   3.700   8.693  0.6191  0.2915 -0.4585
 2525TIP3    H129134   0.927   3.701   8.787  1.7191  1.5220 -0.2621
 2525TIP3    H229135   0.880   3.763   8.658 -0.5607 -0.9706 -0.7255
 2526TIP3   OH229136   4.478   5.895   1.690  0.7476 -0.7184 -0.9893
 2526TIP3    H129137   4.390   5.909   1.725  1.0915  0.2447 -0.4737
 2526TIP3    H229138   4.464   5.843   1.611 -0.0818 -2.8563  0.4670
 2527TIP3   OH229139   5.528   0.369   8.930 -0.0923  0.2594  0.0650
 2527TIP3    H129140   5.620   0.344   8.925  0.1307  1.1610 -0.5144
 2527TIP3    H229141   5.481   0.297   8.887  0.3863  0.0907 -0.1807
 2528TIP3   OH229142   1.822   5.396   0.847  0.2115  0.2681  0.4893
 2528TIP3    H129143   1.817   5.301   0.851 -0.1046  0.1545 -1.6537
 2528TIP3    H229144   1.883   5.419   0.917  0.2380 -1.4978  1.0953
 2529TIP3   OH229145   4.615   2.569   7.910 -0.5763  0.1354 -0.1335
 2529TIP3    H129146   4.631   2.662   7.896 -0.6521  0.1852  0.1090
 2529TIP3    H229147   4.558   2.566   7.987 -2.4987  0.0242 -1.4819
 2530TIP3   OH229148   0.866   3.557   1.299 -0.3858  0.1683  0.3318
 2530TIP3    H129149   0.846   3.470   1.265 -1.5425  0.6893 -0.3872
 2530TIP3    H229150   0.961   3.564   1.294 -0.2203 -1.2552  0.9484
 2531TIP3   OH229151   6.188   5.020   6.819 -0.0661  0.1704 -0.5005
 2531TIP3    H129152   6.190   5.067   6.903 -1.6885  0.4870 -0.6128
 2531TIP3    H229153   6.095   5.006   6.801  0.2811 -0.5111 -1.9170
 2532TIP3   OH229154   3.884   0.261   3.047 -0.0287  0.5413 -0.5629
 2532TIP3    H129155   3.911   0.304   2.966  0.2218 -1.1641 -1.4456
 2532TIP3    H229156   3.875   0.168   3.022  1.0379 -0.1960  1.5836
 2533TIP3   OH229157   3.384   0.048   8.496  0.0921  0.0919  0.5404
 2533TIP3    H129158   3.354   0.004   8.417 -2.9302 -0.3306  1.8098
 2533TIP3    H229159   3.446  -0.014   8.536  0.5908 -0.2678 -0.7478
 2534TIP3   OH229160   3.738   1.178   2.065 -0.0690  0.2111  0.0775
 2534TIP3    H129161   3.788   1.098   2.081  0.4472  0.9656  2.7207
 2534TIP3    H229162   3.675   1.153   1.997  1.1139 -1.9592 -0.3246
 2535TIP3   OH229163   6.617   1.549   1.581  0.8962  0.0284 -0.2879
 2535TIP3    H129164   6.639   1.527   1.490 -0.5621  0.8641 -0.8917
 2535TIP3    H229165   6.574   1.471   1.615  1.7779 -0.4221 -0.1778
 2536TIP3   OH229166   5.538   5.609   2.165  0.2068  0.3893  0.2528
 2536TIP3    H129167   5.579   5.651   2.089  0.0495 -2.8396 -1.7633
 2536TIP3    H229168   5.610   5.596   2.227  1.1228 -0.2305 -0.9129
 2537TIP3   OH229169   2.719   0.063   7.564  0.1820  0.2136 -0.4412
 2537TIP3    H129170   2.628   0.092   7.560 -0.3505 -1.4095 -0.6034
 2537TIP3    H229171   2.750   0.093   7.649 -1.0720 -0.7824  0.3924
 2538TIP3   OH229172   0.050   5.266   8.097 -0.2166  0.1169  0.2908
 2538TIP3    H129173  -0.041   5.259   8.068  0.8195  0.0334 -3.4630
 2538TIP3    H229174   0.051   5.344   8.151 -2.5605 -0.0614  0.7264
 2539TIP3   OH229175   4.663   0.820   1.729  0.4895  0.1170 -0.2550
 2539TIP3    H129176   4.693   0.873   1.655 -0.7154  0.6875 -0.3553
 2539TIP3    H229177   4.698   0.733   1.712  1.8083  0.6783 -0.5218
 2540TIP3   OH229178   6.430   2.901   8.158 -0.1519  0.1020  0.1346
 2540TIP3    H129179   6.436   2.908   8.063  1.9005 -0.1982  0.1946
 2540TIP3    H229180   6.456   2.811   8.177  0.7862  0.5361  1.0379
 2541TIP3   OH229181   5.594   5.056   0.993  0.0029 -0.1177  0.2136
 2541TIP3    H129182   5.586   5.078   0.900  0.1184  2.1667  0.6733
 2541TIP3    H229183   5.626   5.136   1.033 -0.3151 -0.9711  2.2767
 2542TIP3   OH229184   5.850   0.086   9.286  0.0261 -0.7457  0.2307
 2542TIP3    H129185   5.800   0.154   9.331 -1.2397 -2.4828  1.5998
 2542TIP3    H229186   5.899   0.042   9.355  0.3081 -1.6501 -0.5211
 2543TIP3   OH229187   2.500   4.278   0.583  0.5409  0.1428  0.1237
 2543TIP3    H129188   2.525   4.356   0.533 -2.1783 -0.7907 -3.1269
 2543TIP3    H229189   2.467   4.312   0.666 -0.3587  2.5231 -1.0964
 2544TIP3   OH229190   2.985   3.653   7.462  0.2667 -0.4756 -0.2455
 2544TIP3    H129191   2.919   3.597   7.503  1.3558 -1.1093  0.7346
 2544TIP3    H229192   3.056   3.592   7.439  1.4628  0.4661  0.7871
 2545TIP3   OH229193   2.990   0.317   1.352  0.4025 -0.5257 -0.9966
 2545TIP3    H129194   3.048   0.326   1.276  1.1533 -1.0139 -0.5069
 2545TIP3    H229195   3.039   0.260   1.412  0.0043  0.1924  0.0308
 2546TIP3   OH229196   2.048   3.190   1.108  0.0386  0.2983  0.0676
 2546TIP3    H129197   2.105   3.227   1.040  0.3676 -2.6798 -1.4473
 2546TIP3    H229198   2.090   3.108   1.132 -2.3804 -0.8596  0.6568
 2547TIP3   OH229199   6.537   0.261   2.521  0.1982 -0.3929 -0.4255
 2547TIP3    H129200   6.442   0.263   2.529 -0.0937  1.0863 -3.2700
 2547TIP3    H229201   6.554   0.198   2.451  1.1373  0.8534 -1.3537
 2548TIP3   OH229202   3.697   2.225   0.325  0.3274 -0.2706  0.1327
 2548TIP3    H129203   3.631   2.157   0.337  0.1299 -0.4696 -1.7312
 2548TIP3    H229204   3.680   2.259   0.237  0.7641  1.8330  0.8054
 2549TIP3   OH229205   2.665   4.493   0.462  0.1333 -0.2660 -0.5648
 2549TIP3    H129206   2.679   4.582   0.431  0.3448 -0.2496 -0.4205
 2549TIP3    H229207   2.662   4.440   0.382  0.1691 -0.1522 -0.6409
 2550TIP3   OH229208   4.219   4.133   8.075 -0.0378 -0.9316 -0.2256
 2550TIP3    H129209   4.240   4.078   8.000 -0.2017 -0.6077 -0.5152
 2550TIP3    H229210   4.143   4.092   8.114 -0.3901 -0.7074 -0.6636
 2551TIP3   OH229211   3.421   2.427   0.101 -0.5092 -0.1637 -0.0890
 2551TIP3    H129212   3.370   2.398   0.026 -0.5612 -1.3266  0.3727
 2551TIP3    H229213   3.495   2.366   0.105 -1.0956 -0.8336  1.4309
 2552TIP3   OH229214   3.511   3.658   8.467 -0.3146  0.1425 -0.0392
 2552TIP3    H129215   3.563   3.610   8.403 -2.2000  0.1802 -1.7220
 2552TIP3    H229216   3.532   3.750   8.451  1.1832  0.0656  1.2607
 2553TIP3   OH229217   5.838   6.392   9.185 -0.3114 -0.1358  0.1978
 2553TIP3    H129218   5.914   6.449   9.186 -0.7344  0.5152 -1.4364
 2553TIP3    H229219   5.767   6.446   9.220 -0.3737 -0.1993  0.1711
 2554TIP3   OH229220   6.491   5.287   1.086 -0.1401 -0.7632 -0.0723
 2554TIP3    H129221   6.398   5.308   1.095  0.1692  1.2332 -0.9410
 2554TIP3    H229222   6.512   5.309   0.995  1.0910 -1.6355 -0.0264
 2555TIP3   OH229223   0.200   5.368   7.879 -0.2510  0.3122 -0.5829
 2555TIP3    H129224   0.159   5.330   7.957  0.3413 -0.2134 -0.5115
 2555TIP3    H229225   0.162   5.319   7.806 -1.2569  1.2181 -0.6780
 2556TIP3   OH229226   0.967   5.868   0.705 -0.2185  0.1995  0.3191
 2556TIP3    H129227   1.038   5.882   0.767 -0.6242  0.8178  0.6428
 2556TIP3    H229228   0.902   5.816   0.753  0.9690 -2.3999 -0.6517
 2557TIP3   OH229229   2.825   2.355   8.397  0.0210 -0.2278 -0.0407
 2557TIP3    H129230   2.779   2.416   8.338  2.2220  0.5286 -1.0559
 2557TIP3    H229231   2.914   2.388   8.401  1.2909 -3.2852 -0.4704
 2558TIP3   OH229232   2.658   3.352   7.480  0.2576  0.6644  0.3276
 2558TIP3    H129233   2.585   3.314   7.530 -0.2339  0.5745 -0.4380
 2558TIP3    H229234   2.691   3.422   7.537  0.9741 -0.6711  1.6207
 2559TIP3   OH229235   0.971   1.962   7.988  0.6636 -0.2460  0.0259
 2559TIP3    H129236   1.027   1.996   7.918  0.8410  1.0498  0.7718
 2559TIP3    H229237   1.018   1.886   8.022  0.0562 -1.5975 -1.9530
 2560TIP3   OH229238   0.624   0.579   8.147  0.1184 -0.2846 -0.0339
 2560TIP3    H129239   0.565   0.506   8.125 -0.3917  0.4815 -1.3111
 2560TIP3    H229240   0.571   0.636   8.202 -0.7449  0.8934 -1.9654
 2561TIP3   OH229241   6.590   3.825   0.015 -0.3325 -0.4159 -0.2159
 2561TIP3    H129242   6.522   3.762  -0.010 -2.1699  1.2549  0.3362
 2561TIP3    H229243   6.637   3.781   0.086 -1.3867 -1.2930 -0.0263
 2562TIP3   OH229244   0.038   2.873   1.381  0.3395  0.4662 -0.6702
 2562TIP3    H129245   0.003   2.955   1.418  1.6259  0.7754 -0.0610
 2562TIP3    H229246  -0.013   2.858   1.302  0.7039  2.4118 -1.3408
 2563TIP3   OH229247   3.573   0.612   8.707  0.2949  0.3479  0.0266
 2563TIP3    H129248   3.517   0.656   8.771 -0.3191 -0.5537  0.1231
 2563TIP3    H229249   3.592   0.680   8.642  1.8587  1.6029  1.7023
 2564TIP3   OH229250   4.440   0.338   8.867  0.1248 -0.2206 -0.1304
 2564TIP3    H129251   4.345   0.349   8.873  0.1205 -0.2324 -0.1793
 2564TIP3    H229252   4.472   0.423   8.837  0.3166  0.4005  1.7105
 2565TIP3   OH229253   4.901   5.352   1.763  0.2643  0.0445 -0.1517
 2565TIP3    H129254   4.902   5.302   1.844 -0.9284 -0.0054 -0.1444
 2565TIP3    H229255   4.883   5.287   1.695 -1.3261  0.4325 -0.1396
 2566TIP3   OH229256   5.747   2.237   8.466 -0.3631  0.3312 -0.3393
 2566TIP3    H129257   5.733   2.181   8.390 -0.9364  1.1545 -0.8562
 2566TIP3    H229258   5.756   2.326   8.430 -1.3050  0.8308  0.5786
 2567TIP3   OH229259   2.973   2.354   7.590 -0.3742 -0.0969  0.3762
 2567TIP3    H129260   2.984   2.260   7.577  1.5802  0.1744 -0.2427
 2567TIP3    H229261   2.955   2.388   7.502 -1.3755  0.1021  0.6409
 2568TIP3   OH229262   4.785   0.977   1.539 -0.3155  0.3447  0.0720
 2568TIP3    H129263   4.877   1.000   1.557  0.0510  0.2760 -1.6004
 2568TIP3    H229264   4.790   0.897   1.487 -1.2402  1.1928 -1.3682
 2569TIP3   OH229265   4.881   3.732   8.409 -0.0873  0.1577 -0.3182
 2569TIP3    H129266   4.915   3.656   8.456  1.7726  1.3508  0.3806
 2569TIP3    H229267   4.834   3.783   8.476  0.8921  0.8905 -0.1720
 2570TIP3   OH229268   0.046   2.814   7.387 -0.2547  0.6259 -0.2281
 2570TIP3    H129269   0.112   2.821   7.456 -0.1985  0.6243 -0.2822
 2570TIP3    H229270  -0.038   2.828   7.432 -0.2343  0.4104 -0.1233
 2571TIP3   OH229271   2.459   2.112   1.926  0.0451  0.1162 -0.2113
 2571TIP3    H129272   2.551   2.106   1.951 -0.0663  0.0589  0.2110
 2571TIP3    H229273   2.439   2.205   1.928 -0.3955  0.0370  1.6366
 2572TIP3   OH229274   4.470   4.020   6.566  0.1146  0.7849  0.1197
 2572TIP3    H129275   4.457   3.983   6.654 -3.5862 -0.6738 -0.8512
 2572TIP3    H229276   4.482   3.943   6.510  3.0439  1.7220 -0.7139
 2573TIP3   OH229277   1.436   2.583   0.490 -0.1815  0.1620 -0.2109
 2573TIP3    H129278   1.384   2.522   0.542 -0.6768 -0.1782 -1.0711
 2573TIP3    H229279   1.377   2.609   0.418  0.6327  0.2294 -0.8697
 2574TIP3   OH229280   0.080   1.855   0.510  0.0283  0.1713  0.4316
 2574TIP3    H129281   0.152   1.900   0.467 -0.4370 -0.7270 -1.3848
 2574TIP3    H229282   0.008   1.858   0.446 -1.5048  0.8625  2.1028
 2575TIP3   OH229283   0.043   1.550   8.120 -0.4481 -0.1216  0.3148
 2575TIP3    H129284   0.008   1.640   8.120  1.0729  0.5258  1.8752
 2575TIP3    H229285  -0.008   1.505   8.187 -0.7142 -0.2121  0.0514
 2576TIP3   OH229286   0.786   2.439   9.126 -0.0636  0.1584  0.4456
 2576TIP3    H129287   0.758   2.530   9.114 -0.4167 -0.0037 -0.0136
 2576TIP3    H229288   0.815   2.411   9.039  1.4831  0.2896  0.8958
 2577TIP3   OH229289   1.670   0.801   0.460  0.0833  0.3385 -0.3371
 2577TIP3    H129290   1.591   0.854   0.447  0.7961  1.5401 -0.0209
 2577TIP3    H229291   1.657   0.757   0.543  0.3070  1.6485  0.4285
 2578TIP3   OH229292   5.411   6.618   0.503 -0.3069  0.2220 -0.5025
 2578TIP3    H129293   5.467   6.600   0.427 -0.1931 -0.9798 -0.1599
 2578TIP3    H229294   5.458   6.580   0.577 -1.4952 -0.7221 -0.1889
 2579TIP3   OH229295   5.345   2.187   7.490 -0.7590 -0.3799 -0.3664
 2579TIP3    H129296   5.376   2.217   7.575 -2.4688 -0.0488  0.1842
 2579TIP3    H229297   5.325   2.267   7.442  2.0471 -0.4812 -1.8858
 2580TIP3   OH229298   1.375   4.230   0.605  0.0335 -0.7521 -0.0032
 2580TIP3    H129299   1.324   4.219   0.524  0.9014  0.1895 -0.7016
 2580TIP3    H229300   1.380   4.325   0.618 -0.3255 -0.9026  1.3178
 2581TIP3   OH229301   1.387   4.571   7.129 -0.2402  0.1223 -0.1812
 2581TIP3    H129302   1.415   4.481   7.148  2.1596  0.4560 -1.7579
 2581TIP3    H229303   1.407   4.620   7.208 -0.5290 -0.5206  0.2939
 2582TIP3   OH229304   5.932   1.886   7.334 -0.4969 -0.1995  0.4072
 2582TIP3    H129305   5.871   1.812   7.339 -1.5305  0.6592  0.8651
 2582TIP3    H229306   5.876   1.964   7.337  0.5600  0.6120 -0.1415
 2583TIP3   OH229307   4.554   2.980   1.291 -0.2598  0.0859  0.5359
 2583TIP3    H129308   4.496   2.940   1.355  1.0787 -0.8740  1.1892
 2583TIP3    H229309   4.642   2.955   1.318  0.5101  1.7473 -0.2493
 2584TIP3   OH229310   4.235   3.407   8.050  0.2539  0.1274  0.0615
 2584TIP3    H129311   4.329   3.389   8.060  0.3672  0.6752  0.0402
 2584TIP3    H229312   4.196   3.323   8.027  0.8864  0.0840 -0.8920
 2585TIP3   OH229313   4.740   0.210   1.392  0.0877 -0.5225  0.7811
 2585TIP3    H129314   4.765   0.164   1.312 -1.5078  1.0848 -0.7394
 2585TIP3    H229315   4.660   0.166   1.422  0.6484 -1.0824  1.4893
 2586TIP3   OH229316   2.449   3.259   7.622 -0.4796  0.6405 -0.2457
 2586TIP3    H129317   2.379   3.222   7.569 -0.5844  1.1275 -0.4487
 2586TIP3    H229318   2.405   3.298   7.697 -0.3045 -0.3470  0.3804
 2587TIP3   OH229319   5.172   5.131   7.815  0.8652 -0.3516  0.3051
 2587TIP3    H129320   5.222   5.143   7.896  1.1115 -0.7221  0.2124
 2587TIP3    H229321   5.144   5.219   7.790  1.7298 -0.1053  0.1976
 2588TIP3   OH229322   1.505   1.232   7.842 -0.7381  0.1566  0.1509
 2588TIP3    H129323   1.544   1.318   7.830 -1.5799  1.0903  3.2083
 2588TIP3    H229324   1.418   1.250   7.878 -0.6848 -1.9528  1.4883
 2589TIP3   OH229325   4.627   1.019   8.999  0.0138 -0.3961 -0.0870
 2589TIP3    H129326   4.661   1.026   9.089  0.0900  0.5150 -0.1796
 2589TIP3    H229327   4.700   0.980   8.950  0.2866 -0.1016  0.0763
 2590TIP3   OH229328   6.556   3.409   7.870  0.1955  0.2725  0.1620
 2590TIP3    H129329   6.573   3.446   7.784 -0.4308 -0.2843 -0.2117
 2590TIP3    H229330   6.640   3.371   7.897  0.3222  0.1886 -0.3359
 2591TIP3   OH229331   1.749   1.819   8.881 -0.3071 -0.0135 -0.2548
 2591TIP3    H129332   1.712   1.762   8.814 -1.0818 -0.3811  0.4819
 2591TIP3    H229333   1.678   1.879   8.904  0.5295  1.3626 -1.1101
 2592TIP3   OH229334   3.958   1.495   0.482  0.3828  0.3683 -0.3049
 2592TIP3    H129335   3.993   1.546   0.409  0.4975  1.4264  0.4599
 2592TIP3    H229336   3.863   1.505   0.476  0.3066 -0.6438 -1.0637
 2593TIP3   OH229337   5.289   0.630   2.427  0.2783 -0.1215 -0.0426
 2593TIP3    H129338   5.324   0.718   2.414 -0.3986  0.2951  0.8268
 2593TIP3    H229339   5.352   0.587   2.485 -0.7951  0.7717  1.8784
 2594TIP3   OH229340   2.807   1.942   8.402 -0.1660 -0.1101  0.0068
 2594TIP3    H129341   2.824   2.011   8.466 -0.8629  1.9583 -1.8939
 2594TIP3    H229342   2.838   1.979   8.319 -0.9292 -1.9446 -1.1492
 2595TIP3   OH229343   5.857   0.802   7.440  0.0763 -0.0574 -0.0756
 2595TIP3    H129344   5.857   0.706   7.443 -0.3838 -0.0358  0.8291
 2595TIP3    H229345   5.923   0.827   7.505 -1.1335  0.2509  1.0848
 2596TIP3   OH229346   6.425   0.634   1.766 -0.1714 -0.2641  0.2356
 2596TIP3    H129347   6.497   0.579   1.796  1.7206  1.7947 -0.1845
 2596TIP3    H229348   6.401   0.687   1.842  0.2036  0.4717 -0.1409
 2597TIP3   OH229349   2.873   5.619   0.687  0.1372 -0.5799 -0.1041
 2597TIP3    H129350   2.839   5.649   0.771 -0.4370  1.0589 -0.8888
 2597TIP3    H229351   2.817   5.545   0.664 -1.4621  0.6414 -0.2886
 2598TIP3   OH229352   0.600   4.351   0.205  0.3372 -0.3019 -0.3654
 2598TIP3    H129353   0.611   4.305   0.288 -1.0887 -0.8249 -0.4407
 2598TIP3    H229354   0.588   4.442   0.230  3.0831  0.1020 -0.2088
 2599TIP3   OH229355   1.793   4.522   7.828  0.6306  1.0121 -0.0902
 2599TIP3    H129356   1.835   4.607   7.815  1.1180  0.7577 -0.1959
 2599TIP3    H229357   1.856   4.471   7.878 -0.1266  1.0796  0.9563
 2600TIP3   OH229358   6.315   5.871   1.117 -0.0686 -0.6271 -0.0589
 2600TIP3    H129359   6.282   5.817   1.189  1.0242 -0.2701  0.7321
 2600TIP3    H229360   6.266   5.840   1.040 -3.2916  0.8150  1.2125
 2601TIP3   OH229361   3.751   1.731   8.946 -0.0918 -0.4663 -0.7273
 2601TIP3    H129362   3.657   1.725   8.963 -0.1518  0.2194 -0.8110
 2601TIP3    H229363   3.759   1.721   8.851 -0.0938 -0.3712 -0.7379
 2602TIP3   OH229364   5.588   5.473   1.411  0.1285  0.1564  0.2690
 2602TIP3    H129365   5.629   5.391   1.385  0.7247  1.2048 -2.4536
 2602TIP3    H229366   5.603   5.479   1.506  1.6766 -1.9575  0.2174
 2603TIP3   OH229367   0.823   2.127   8.911 -0.3822 -0.0093  0.4769
 2603TIP3    H129368   0.839   2.108   9.004  2.0439  1.9958  0.5767
 2603TIP3    H229369   0.818   2.223   8.907 -4.1175 -0.0972 -1.0197
 2604TIP3   OH229370   2.141   0.167   9.013  0.5798  0.0880  0.2590
 2604TIP3    H129371   2.054   0.204   9.027  1.2166  2.0291 -0.6168
 2604TIP3    H229372   2.185   0.230   8.956  2.3586 -1.1627  0.1803
 2605TIP3   OH229373   2.627   6.595   8.657 -0.1316  0.1339 -0.1026
 2605TIP3    H129374   2.673   6.536   8.717 -1.5332 -1.0886 -0.1855
 2605TIP3    H229375   2.625   6.547   8.574  0.6593  1.2708 -0.8123
 2606TIP3   OH229376   2.678   2.697   3.089 -0.3571 -0.0844  0.4195
 2606TIP3    H129377   2.660   2.655   3.005  1.1003  0.2431 -0.0938
 2606TIP3    H229378   2.607   2.760   3.100 -0.6924 -0.2901 -0.4699
 2607TIP3   OH229379   4.701   6.213   2.423  0.4256 -0.0592  0.4213
 2607TIP3    H129380   4.767   6.206   2.493 -0.1430 -1.9718  0.8043
 2607TIP3    H229381   4.752   6.226   2.343  1.4275 -2.7849  0.5114
 2608TIP3   OH229382   0.154   1.303   0.428 -0.4854 -0.0426 -0.0941
 2608TIP3    H129383   0.246   1.315   0.408 -0.4550 -1.1182 -0.6527
 2608TIP3    H229384   0.119   1.392   0.436  1.0493  0.4121  2.3692
 2609TIP3   OH229385   4.133   0.525   8.766  0.5121  0.0452  0.5951
 2609TIP3    H129386   4.046   0.541   8.729  0.7523  0.7773  0.3366
 2609TIP3    H229387   4.177   0.610   8.763  0.9054 -0.1025  1.6103
 2610TIP3   OH229388   4.839   3.467   9.168  0.5212  0.6750 -0.6667
 2610TIP3    H129389   4.910   3.474   9.232 -0.6166  2.3119  0.5197
 2610TIP3    H229390   4.776   3.408   9.208  1.1816 -0.8306 -1.7489
 2611TIP3   OH229391   0.397   2.814   1.079  0.2139 -0.1691  0.9495
 2611TIP3    H129392   0.339   2.813   1.003 -0.3188 -0.4400  1.3515
 2611TIP3    H229393   0.354   2.872   1.142  1.8257  1.9861  0.1680
 2612TIP3   OH229394   5.963   4.807   7.380  0.0801 -0.0430 -0.2621
 2612TIP3    H129395   6.002   4.856   7.308 -1.5661  0.9320 -0.5398
 2612TIP3    H229396   5.870   4.807   7.361 -0.4193  0.3832  1.9352
 2613TIP3   OH229397   1.194   2.359   7.894  0.0587  0.1989  0.2853
 2613TIP3    H129398   1.187   2.438   7.841  0.3074  0.7482  1.0420
 2613TIP3    H229399   1.280   2.367   7.937  0.0122 -0.3937  0.4968
 2614TIP3   OH229400   3.100   3.833   0.956  0.5593 -0.5101  1.0349
 2614TIP3    H129401   3.094   3.879   0.873  0.5329 -0.0020  1.3138
 2614TIP3    H229402   3.023   3.775   0.957 -0.3514  0.6511  1.3936
 2615TIP3   OH229403   0.664   0.237   1.257  0.0362 -0.2469 -0.0883
 2615TIP3    H129404   0.713   0.318   1.245 -1.2777  0.5339 -0.3020
 2615TIP3    H229405   0.604   0.233   1.182 -0.8452 -0.7292  0.6274
 2616TIP3   OH229406   1.122   2.768   0.681 -0.4253  0.0742  0.1314
 2616TIP3    H129407   1.201   2.753   0.733 -0.1700  1.7976  0.3109
 2616TIP3    H229408   1.150   2.752   0.591 -0.5310 -1.6599  0.3760
 2617TIP3   OH229409   0.052   0.534   0.623 -0.1123 -0.0009  0.8802
 2617TIP3    H129410   0.139   0.505   0.650 -0.2684 -0.6025  0.7641
 2617TIP3    H229411   0.004   0.547   0.704  0.0553  0.2316  0.9420
 2618TIP3   OH229412   4.693   0.641   8.136 -0.0131  0.1704 -0.0705
 2618TIP3    H129413   4.651   0.725   8.117 -0.1656  0.2614  0.6501
 2618TIP3    H229414   4.637   0.576   8.093  0.5074  0.4775 -1.2593
 2619TIP3   OH229415   1.689   5.733   8.681  0.5306  0.4470 -0.4453
 2619TIP3    H129416   1.677   5.827   8.698 -0.3505  0.4135 -0.7817
 2619TIP3    H229417   1.774   5.712   8.718  0.9718  1.5010 -0.8209
 2620TIP3   OH229418   6.160   1.896   8.122  0.0758 -0.3669 -0.0758
 2620TIP3    H129419   6.226   1.915   8.055  0.4978  0.5205  0.5814
 2620TIP3    H229420   6.206   1.904   8.205 -0.9284  0.5857  0.4118
 2621TIP3   OH229421   1.144   3.603   1.228 -0.3674  0.1142  0.6884
 2621TIP3    H129422   1.126   3.593   1.134  1.6194 -0.4969  0.3336
 2621TIP3    H229423   1.193   3.685   1.235  1.6438 -1.0322  0.8135
 2622TIP3   OH229424   1.323   2.211   1.957 -0.2028  0.1980  0.0028
 2622TIP3    H129425   1.295   2.136   2.009 -2.3033  0.8132 -0.1454
 2622TIP3    H229426   1.248   2.270   1.958  0.2168  0.8940 -2.4815
 2623TIP3   OH229427   5.289   1.474   6.984 -0.0877  0.4673  0.3523
 2623TIP3    H129428   5.308   1.564   7.008  0.5756  0.9405 -1.7002
 2623TIP3    H229429   5.208   1.479   6.933 -1.2382 -0.4197  2.0219
 2624TIP3   OH229430   2.385   6.290   0.222  0.8835  0.1444  0.0403
 2624TIP3    H129431   2.349   6.234   0.291  2.2131  0.9172  1.4189
 2624TIP3    H229432   2.478   6.269   0.220  1.0762  0.9993 -0.7125
 2625TIP3   OH229433   6.556   0.642   0.855 -0.1242  0.6743  0.1212
 2625TIP3    H129434   6.530   0.705   0.788 -0.5537  2.4709  1.8729
 2625TIP3    H229435   6.478   0.631   0.909  0.6541  0.5424  1.2443
 2626TIP3   OH229436   2.013   4.446   0.529  0.6371  0.3263 -0.0620
 2626TIP3    H129437   2.085   4.394   0.494  0.2173  0.0823 -0.5579
 2626TIP3    H229438   2.033   4.536   0.502  1.6543  0.5288  1.2676
 2627TIP3   OH229439   3.551   6.441   1.182  0.7081  0.0208  0.2594
 2627TIP3    H129440   3.589   6.359   1.152  0.0471 -0.0392 -0.4431
 2627TIP3    H229441   3.559   6.500   1.107 -1.6128 -0.3450 -0.3508
 2628TIP3   OH229442   3.975   0.956   8.845  0.4037 -0.8007  0.8845
 2628TIP3    H129443   4.045   0.892   8.830  1.1133  0.2683 -0.7229
 2628TIP3    H229444   3.922   0.952   8.765  0.6909  0.8466  0.5754
 2629TIP3   OH229445   2.012   5.435   1.072 -0.5001  0.5576 -0.0564
 2629TIP3    H129446   2.054   5.396   1.148 -0.7913 -1.6019 -0.9271
 2629TIP3    H229447   2.065   5.512   1.052 -0.4371  1.1886  2.3045
 2630TIP3   OH229448   4.758   1.806   6.791  0.0312  0.0125 -0.3010
 2630TIP3    H129449   4.763   1.725   6.842 -1.3375  0.9890  1.4886
 2630TIP3    H229450   4.669   1.806   6.755  0.6264 -0.1320 -1.8391
 2631TIP3   OH229451   0.242   2.621   1.339 -0.0457 -0.2610 -0.2085
 2631TIP3    H129452   0.235   2.667   1.423  0.4069  0.5508 -0.6004
 2631TIP3    H229453   0.228   2.690   1.274 -0.8540 -0.9659 -0.7989
 2632TIP3   OH229454   4.618   6.586   1.687  0.2788 -0.4845 -0.3694
 2632TIP3    H129455   4.570   6.525   1.743 -2.2019  1.9131  0.3137
 2632TIP3    H229456   4.559   6.602   1.613  0.9455  0.8713 -0.6390
 2633TIP3   OH229457   4.389   5.348   0.776 -0.4093  0.1718 -0.8661
 2633TIP3    H129458   4.307   5.360   0.727 -1.5840 -1.9436  0.4367
 2633TIP3    H229459   4.363   5.355   0.868  0.8866 -0.5025 -0.4285
 2634TIP3   OH229460   1.806   5.464   8.583 -0.0307  0.6927 -0.1101
 2634TIP3    H129461   1.754   5.542   8.600 -1.0727  0.1043 -0.5099
 2634TIP3    H229462   1.897   5.492   8.594 -0.4221  1.7854  0.4056
 2635TIP3   OH229463   1.323   3.051   1.052 -0.0368  0.1058 -0.4536
 2635TIP3    H129464   1.415   3.040   1.028 -0.3237 -1.4159 -0.9621
 2635TIP3    H229465   1.325   3.087   1.141  1.0316  0.8698 -0.7636
 2636TIP3   OH229466   5.379   5.791   7.798  0.4633 -0.1183 -0.3732
 2636TIP3    H129467   5.305   5.743   7.760  0.4385 -0.6661  0.3407
 2636TIP3    H229468   5.455   5.759   7.750  0.3821 -0.4959 -0.2558
 2637TIP3   OH229469   0.364   5.161   1.758 -0.5383 -0.3432 -0.1880
 2637TIP3    H129470   0.434   5.210   1.717 -1.1461  1.5815  0.9493
 2637TIP3    H229471   0.408   5.102   1.819  0.1660 -0.6402 -0.9708
 2638TIP3   OH229472   6.599   3.285   0.991  0.7918 -0.2064 -0.1376
 2638TIP3    H129473   6.694   3.290   1.002  0.7697  0.8989 -0.3310
 2638TIP3    H229474   6.586   3.283   0.897  0.6263 -0.6553 -0.1075
 2639TIP3   OH229475   2.607   0.238   7.797 -0.2337 -0.3091 -0.0685
 2639TIP3    H129476   2.614   0.333   7.811  1.4611 -0.3114 -0.7351
 2639TIP3    H229477   2.588   0.229   7.704  0.0271 -0.6457 -0.0892
 2640TIP3   OH229478   6.003   1.935   0.477 -0.5960 -0.4257 -0.5801
 2640TIP3    H129479   6.007   1.972   0.389  1.3602  1.5192  0.2450
 2640TIP3    H229480   6.089   1.896   0.491 -0.7156 -0.2898  0.6472
 2641TIP3   OH229481   2.692   4.561   1.932 -0.2445  0.2756  0.2711
 2641TIP3    H129482   2.678   4.647   1.893 -1.8478  0.2439  0.7192
 2641TIP3    H229483   2.716   4.579   2.023  0.6487  0.2646  0.0489
 2642TIP3   OH229484   6.566   5.010   8.221 -0.2217  0.1476  0.4331
 2642TIP3    H129485   6.613   4.993   8.302 -0.9863 -1.1198  0.6374
 2642TIP3    H229486   6.620   5.074   8.175  1.4489 -0.8755  0.8741
 2643TIP3   OH229487   6.146   3.407   8.673  0.2862  0.2770  0.5468
 2643TIP3    H129488   6.095   3.356   8.610  1.5553 -0.0573 -0.2435
 2643TIP3    H229489   6.206   3.459   8.619  0.2708  1.2298  1.4255
 2644TIP3   OH229490   4.578   2.876   7.939  0.1099  0.2835 -0.0750
 2644TIP3    H129491   4.494   2.854   7.980  0.1675  1.4596  0.7230
 2644TIP3    H229492   4.615   2.944   7.995  1.3775  0.1268 -0.6919
 2645TIP3   OH229493   2.387   0.611   2.889  0.0944 -0.7895 -0.0688
 2645TIP3    H129494   2.314   0.550   2.880  1.2303 -2.0049 -1.6909
 2645TIP3    H229495   2.358   0.690   2.843 -1.0944 -0.3373  1.3864
 2646TIP3   OH229496   1.151   5.797   2.206  0.8691 -0.5384 -0.3178
 2646TIP3    H129497   1.075   5.741   2.223  0.3029  0.3782  0.2574
 2646TIP3    H229498   1.159   5.851   2.285  1.6993 -0.1459 -0.6607
 2647TIP3   OH229499   1.655   5.371   7.356 -0.1462  0.4067 -0.1330
 2647TIP3    H129500   1.598   5.297   7.377 -0.6446  1.1317  1.2350
 2647TIP3    H229501   1.705   5.342   7.280 -0.0126 -1.4918  0.6280
 2648TIP3   OH229502   6.395   4.821   8.589  0.3924  0.1518 -0.2549
 2648TIP3    H129503   6.353   4.754   8.535 -0.6145 -0.1306  0.8372
 2648TIP3    H229504   6.486   4.794   8.596 -0.4396 -2.5277  2.1417
 2649TIP3   OH229505   0.554   0.826   8.287 -0.0288  0.2346 -0.2379
 2649TIP3    H129506   0.622   0.860   8.230  0.6157  0.0215  0.3874
 2649TIP3    H229507   0.481   0.888   8.277  0.3161  0.5568 -0.7852
 2650TIP3   OH229508   0.688   4.372   0.628  0.3413  0.3145  0.0959
 2650TIP3    H129509   0.617   4.423   0.589  0.7281  1.2950  0.6246
 2650TIP3    H229510   0.762   4.385   0.570  0.3193 -0.0060 -0.0027
 2651TIP3   OH229511   0.353   0.655   0.165  0.5835  0.3830 -0.3386
 2651TIP3    H129512   0.443   0.642   0.137  0.9131 -0.3998  0.9990
 2651TIP3    H229513   0.354   0.739   0.212  0.6879  0.2355 -0.0738
 2652TIP3   OH229514   1.769   0.904   8.618  0.2615 -0.3204 -0.5372
 2652TIP3    H129515   1.688   0.904   8.568 -0.4830  1.7969  0.6006
 2652TIP3    H229516   1.813   0.823   8.591 -2.1527 -1.4858 -1.2412
 2653TIP3   OH229517   2.146   0.808   0.347 -0.1341 -0.4469 -0.3076
 2653TIP3    H129518   2.059   0.770   0.333  0.3759 -1.0575 -2.1275
 2653TIP3    H229519   2.186   0.754   0.415 -1.3339  0.1505  0.9151
 2654TIP3   OH229520   2.117   6.522   8.599  0.0053 -0.1687  0.7686
 2654TIP3    H129521   2.113   6.609   8.638  0.6370 -0.1702  0.8483
 2654TIP3    H229522   2.128   6.538   8.505  2.0531 -0.1268  0.9695
 2655TIP3   OH229523   1.000   0.378   8.318 -0.1839 -0.3734  0.5627
 2655TIP3    H129524   1.052   0.415   8.390  0.7694 -0.4201 -0.0905
 2655TIP3    H229525   0.966   0.296   8.353  1.2995 -1.0126  0.5647
 2656TIP3   OH229526   6.303   5.266   2.083  0.6806 -0.4691 -0.1566
 2656TIP3    H129527   6.223   5.248   2.133  1.6524 -0.8993  1.3041
 2656TIP3    H229528   6.340   5.344   2.124  1.5794 -0.9145 -0.1047
 2657TIP3   OH229529   1.425   2.912   0.076  0.1548  0.1499  0.4821
 2657TIP3    H129530   1.380   2.834   0.043  0.6654  0.5555 -1.2624
 2657TIP3    H229531   1.514   2.904   0.043  0.0021  1.8640 -0.4515
 2658TIP3   OH229532   1.684   6.167   1.255  0.0707 -0.3543  0.9613
 2658TIP3    H129533   1.630   6.192   1.330  0.4418  0.5325  0.9405
 2658TIP3    H229534   1.758   6.227   1.257  1.0163 -1.4673  0.9188
 2659TIP3   OH229535   5.946   6.545   0.403  0.4740 -0.2909 -0.0749
 2659TIP3    H129536   5.899   6.466   0.376  0.1549 -0.1699  0.1197
 2659TIP3    H229537   5.962   6.532   0.496 -0.6326  0.3963  0.2251
 2660TIP3   OH229538   1.032   5.543   1.889  0.3290 -0.2698 -0.3765
 2660TIP3    H129539   0.939   5.557   1.868  0.0088 -1.1103  0.4084
 2660TIP3    H229540   1.072   5.629   1.880 -1.4315  1.2180  3.7862
 2661TIP3   OH229541   2.181   5.012   1.927  0.0641 -0.0137  0.1552
 2661TIP3    H129542   2.191   5.036   2.020  0.1418  0.7382 -0.0441
 2661TIP3    H229543   2.199   5.092   1.879 -1.8463  0.1231 -0.4442
 2662TIP3   OH229544   0.037   0.441   1.842  0.5277 -0.2106  0.1987
 2662TIP3    H129545   0.071   0.456   1.754 -0.7174  0.5860 -0.1703
 2662TIP3    H229546  -0.007   0.355   1.837 -0.4898  0.3216 -0.2759
 2663TIP3   OH229547   1.842   4.655   0.319  0.0497 -0.2793 -0.3402
 2663TIP3    H129548   1.931   4.668   0.353 -0.3805  1.9513  0.1040
 2663TIP3    H229549   1.786   4.656   0.396 -0.5124  0.2366 -0.7442
 2664TIP3   OH229550   6.578   2.618   7.716  0.5353 -0.2701  0.1948
 2664TIP3    H129551   6.500   2.623   7.772  0.8898  1.6959  0.5904
 2664TIP3    H229552   6.585   2.705   7.677  2.5789 -0.3525  0.2473
 2665TIP3   OH229553   1.710   1.067   8.018 -0.1264  0.7202  0.4720
 2665TIP3    H129554   1.654   1.131   7.974  1.5680  1.5412 -0.5842
 2665TIP3    H229555   1.686   0.983   7.979  0.1995  1.2274 -0.8612
 2666TIP3   OH229556   5.775   6.256   7.078 -0.0541 -0.1571 -0.3405
 2666TIP3    H129557   5.730   6.193   7.135  0.9299 -1.8281 -1.3268
 2666TIP3    H229558   5.709   6.323   7.060 -2.0526 -2.2063 -1.2480
 2667TIP3   OH229559   5.062   1.629   7.149 -0.5461  0.2142 -0.3337
 2667TIP3    H129560   5.144   1.673   7.125  0.9304 -1.6378  1.0093
 2667TIP3    H229561   5.035   1.584   7.070 -1.1666  2.0703 -1.2369
 2668TIP3   OH229562   0.180   4.168   8.666  0.5692  0.0032 -0.3047
 2668TIP3    H129563   0.183   4.208   8.579  0.3052 -0.0801 -0.3530
 2668TIP3    H229564   0.141   4.235   8.722  0.0941 -0.1953 -0.3933
 2669TIP3   OH229565   1.184   1.397   7.727 -0.3461 -0.6257 -0.6027
 2669TIP3    H129566   1.172   1.367   7.636  0.5576 -0.1269 -0.8939
 2669TIP3    H229567   1.201   1.317   7.777 -0.8844 -0.9087 -0.8564
 2670TIP3   OH229568   0.016   6.086   1.513  0.4600  0.6633  0.9368
 2670TIP3    H129569   0.038   6.171   1.475  1.7699 -0.4347 -0.8818
 2670TIP3    H229570   0.089   6.066   1.572  1.2327 -0.1146 -0.2475
 2671TIP3   OH229571   0.100   6.378   1.551 -0.5649  0.1278 -0.1077
 2671TIP3    H129572   0.029   6.353   1.610  0.2566 -0.4362  0.6835
 2671TIP3    H229573   0.141   6.453   1.594 -1.1686  0.9673 -0.9693
 2672TIP3   OH229574   4.394   1.038   8.149 -0.6446  0.2038  0.1043
 2672TIP3    H129575   4.372   0.949   8.180 -0.8340  0.5033  0.8603
 2672TIP3    H229576   4.344   1.096   8.207  3.6906  1.0574  3.5366
 2673TIP3   OH229577   1.460   3.468   9.317 -0.2247  0.3122 -0.2006
 2673TIP3    H129578   1.492   3.412   9.388 -1.1240  0.1183  0.0739
 2673TIP3    H229579   1.456   3.411   9.241 -0.1615  0.2706 -0.1729
 2674TIP3   OH229580   5.756   4.440   2.428  0.1577 -0.0318 -0.0269
 2674TIP3    H129581   5.845   4.463   2.404  0.1829 -0.8671 -0.7520
 2674TIP3    H229582   5.715   4.411   2.347 -0.4847 -0.5747  0.4789
 2675TIP3   OH229583   3.344   2.902   8.343 -0.1342  0.4777 -0.3478
 2675TIP3    H129584   3.302   2.823   8.375  3.8167 -1.6626  0.1965
 2675TIP3    H229585   3.350   2.960   8.419 -1.3353  0.5408 -0.2818
 2676TIP3   OH229586   5.181   1.316   8.226  0.0241 -0.0144  0.8081
 2676TIP3    H129587   5.174   1.275   8.139 -2.9336  2.4570 -0.3211
 2676TIP3    H229588   5.242   1.260   8.274  1.0044 -2.0970 -2.5030
 2677TIP3   OH229589   4.393   3.502   1.245 -0.3368  0.4022 -0.3071
 2677TIP3    H129590   4.340   3.430   1.213 -1.2333  0.2175  1.4580
 2677TIP3    H229591   4.374   3.506   1.339  0.4229  2.3129 -0.1834
 2678TIP3   OH229592   4.070   1.284   9.088  0.0619 -0.2413  0.4691
 2678TIP3    H129593   4.094   1.253   9.001  1.0133  0.7371  0.3544
 2678TIP3    H229594   4.143   1.258   9.144 -0.4249 -0.6417  0.9263
 2679TIP3   OH229595   0.259   5.711   0.175 -0.1936 -0.5464  0.4599
 2679TIP3    H129596   0.323   5.673   0.235 -0.6714 -0.8686  0.7751
 2679TIP3    H229597   0.279   5.673   0.090 -0.5172 -1.3317  0.7273
 2680TIP3   OH229598   2.446   1.319   2.153  0.3440  0.1326 -0.2653
 2680TIP3    H129599   2.400   1.247   2.197 -0.4762  0.4171 -0.6401
 2680TIP3    H229600   2.461   1.383   2.222  0.0841  0.0783 -0.1563
 2681TIP3   OH229601   5.839   3.017   7.126  0.1273  0.3565 -0.1151
 2681TIP3    H129602   5.851   3.112   7.123  0.2457  0.3398 -2.5640
 2681TIP3    H229603   5.744   3.004   7.116  0.1196  0.2239  0.1286
 2682TIP3   OH229604   1.560   1.834   7.619  0.2520 -0.0205 -0.3090
 2682TIP3    H129605   1.564   1.927   7.642 -0.0387 -0.2923  0.8966
 2682TIP3    H229606   1.521   1.792   7.695 -0.8879 -0.9657 -1.3786
 2683TIP3   OH229607   0.581   5.368   9.207  0.1673  0.2785  0.1584
 2683TIP3    H129608   0.541   5.283   9.224  1.1392 -0.2996 -0.3861
 2683TIP3    H229609   0.660   5.369   9.261  0.3207  0.7209 -0.0699
 2684TIP3   OH229610   4.108   0.686   7.474  0.0604  0.2423 -0.1341
 2684TIP3    H129611   4.102   0.592   7.453  0.2346  0.0817  0.5006
 2684TIP3    H229612   4.163   0.689   7.553 -0.3992  0.8364  0.1709
 2685TIP3   OH229613   2.067   2.089   0.975 -0.3355 -0.5027  0.4213
 2685TIP3    H129614   2.078   2.129   0.889 -0.1154 -0.7616  0.3283
 2685TIP3    H229615   2.079   2.161   1.037 -0.3478 -0.3458  0.2404
 2686TIP3   OH229616   5.526   4.017   7.771 -0.1965 -0.7482 -0.6594
 2686TIP3    H129617   5.527   3.957   7.846 -2.1882  2.4002  2.2214
 2686TIP3    H229618   5.582   4.090   7.798 -1.5462  0.8194 -1.8533
 2687TIP3   OH229619   4.979   4.701   8.048  0.5295  0.0007  0.3616
 2687TIP3    H129620   4.973   4.611   8.078  0.6816 -0.2599 -0.3747
 2687TIP3    H229621   5.064   4.706   8.003 -0.0704  0.1352 -0.7979
 2688TIP3   OH229622   5.184   0.715   1.980  0.4228 -0.1995  0.4429
 2688TIP3    H129623   5.106   0.708   1.925  0.9124  1.5151 -0.5642
 2688TIP3    H229624   5.152   0.697   2.069 -1.1050  0.3282  0.0408
 2689TIP3   OH229625   5.345   1.252   0.559  0.4304  0.0686  0.3093
 2689TIP3    H129626   5.279   1.244   0.627  1.6504  0.2353  1.5432
 2689TIP3    H229627   5.319   1.330   0.510 -0.0672  0.3614  1.0226
 2690TIP3   OH229628   4.286   4.745   8.932  0.0786  0.3524 -0.0576
 2690TIP3    H129629   4.267   4.681   9.000 -0.1746  0.6929  0.1943
 2690TIP3    H229630   4.374   4.777   8.953  1.4791 -1.9608 -1.7971
 2691TIP3   OH229631   5.919   2.168   0.596  0.4664  0.2269 -0.1345
 2691TIP3    H129632   5.840   2.153   0.648  1.8752 -0.1126  2.0358
 2691TIP3    H229633   5.934   2.085   0.550  0.5336 -0.3203  0.8583
 2692TIP3   OH229634   1.567   1.585   8.992 -0.1064  0.7004  0.4999
 2692TIP3    H129635   1.541   1.633   8.914  0.1054 -0.1482 -0.1039
 2692TIP3    H229636   1.522   1.630   9.064 -2.0798  0.1738 -0.3298
 2693TIP3   OH229637   4.792   4.713   0.224 -0.3638 -0.1161  0.3453
 2693TIP3    H129638   4.849   4.636   0.226  0.6077  0.5818  0.8691
 2693TIP3    H229639   4.704   4.679   0.232  0.0126 -1.2074  0.0088
 2694TIP3   OH229640   4.631   5.707   0.523 -0.9346 -0.2741  0.6112
 2694TIP3    H129641   4.709   5.717   0.469 -1.4122  0.4537  0.0434
 2694TIP3    H229642   4.663   5.668   0.604 -0.2552 -1.6077 -0.2753
 2695TIP3   OH229643   6.538   3.235   8.735 -0.0113  0.3957 -0.0463
 2695TIP3    H129644   6.525   3.306   8.673 -1.0093  1.2751  1.0973
 2695TIP3    H229645   6.488   3.262   8.812 -0.0290 -1.3343  0.5962
 2696TIP3   OH229646   3.900   6.181   0.662 -0.3071 -0.1372  0.3757
 2696TIP3    H129647   3.830   6.120   0.683  0.0767 -0.7198  0.0045
 2696TIP3    H229648   3.883   6.207   0.571  0.0717 -0.4497  0.2107
 2697TIP3   OH229649   4.285   2.123   7.713 -0.0774  0.2751  0.2990
 2697TIP3    H129650   4.198   2.146   7.680 -0.4066  0.1169  1.0400
 2697TIP3    H229651   4.269   2.048   7.770  0.4613  0.6521  0.9477
 2698TIP3   OH229652   4.537   4.990   8.742 -0.3865 -0.7703 -0.0555
 2698TIP3    H129653   4.540   4.935   8.664  1.0461 -0.0652 -0.5391
 2698TIP3    H229654   4.524   5.079   8.708  1.1378 -0.3404  0.4082
 2699TIP3   OH229655   5.953   2.824   0.244  0.9995  0.0856 -0.0218
 2699TIP3    H129656   5.920   2.835   0.155 -0.6108 -0.6895  0.4358
 2699TIP3    H229657   5.892   2.874   0.299  2.1484  0.8228  0.6493
 2700TIP3   OH229658   0.934   3.884   7.618 -0.2908 -0.2303  0.3124
 2700TIP3    H129659   0.938   3.897   7.713  1.5177  1.1820  0.0902
 2700TIP3    H229660   1.010   3.829   7.598 -1.4239 -1.6920 -0.2056
 2701TIP3   OH229661   1.302   0.668   0.877  0.6396  0.5989 -0.3780
 2701TIP3    H129662   1.256   0.588   0.904  2.5281 -0.3602  0.1272
 2701TIP3    H229663   1.244   0.739   0.906  0.4333 -0.5049  2.1753
 2702TIP3   OH229664   3.805   4.360   2.647 -0.3027  0.0358  0.5423
 2702TIP3    H129665   3.856   4.436   2.619 -1.2906  0.1241 -1.1544
 2702TIP3    H229666   3.741   4.395   2.709 -0.5479  0.5380  0.0108
 2703TIP3   OH229667   3.586   6.497   7.893  0.3974  0.6081 -0.1875
 2703TIP3    H129668   3.546   6.568   7.843  0.6260  1.0097  0.1884
 2703TIP3    H229669   3.652   6.460   7.835 -0.0245  0.4122 -0.5477
 2704TIP3   OH229670   3.196   3.622   1.759  0.8681 -0.5182 -0.1777
 2704TIP3    H129671   3.129   3.657   1.818  0.5159  0.1680 -0.9706
 2704TIP3    H229672   3.248   3.698   1.733  1.5697 -0.9498 -0.0805
 2705TIP3   OH229673   5.077   3.559   1.157  0.5581 -0.5831  0.5569
 2705TIP3    H129674   5.090   3.466   1.142  3.7646 -0.0455 -0.6477
 2705TIP3    H229675   5.039   3.591   1.075 -1.3711 -0.8780  1.2741
 2706TIP3   OH229676   0.113   0.421   0.862  0.1065  0.0650 -0.0821
 2706TIP3    H129677   0.058   0.498   0.874  0.1993  0.5057 -2.1206
 2706TIP3    H229678   0.202   0.453   0.874  0.0677 -0.1678  0.9605
 2707TIP3   OH229679   2.729   3.924   1.894  0.4079 -0.5407 -0.1507
 2707TIP3    H129680   2.818   3.959   1.890 -0.0936  0.6990 -1.0838
 2707TIP3    H229681   2.716   3.902   1.986  0.9740  1.1748  0.3728
 2708TIP3   OH229682   6.454   1.842   8.553  0.2415 -0.5183  0.1271
 2708TIP3    H129683   6.390   1.859   8.622  0.7086  0.1965  0.4027
 2708TIP3    H229684   6.494   1.758   8.577  1.1967  0.2500  1.3801
 2709TIP3   OH229685   6.518   2.102   7.600  0.0134 -0.1480  0.2550
 2709TIP3    H129686   6.519   2.072   7.691 -0.6694  0.0609  0.3398
 2709TIP3    H229687   6.505   2.023   7.548  1.1757 -0.3735  0.2787
 2710TIP3   OH229688   6.608   5.516   8.911  0.0322  0.0158  0.7941
 2710TIP3    H129689   6.679   5.475   8.962  0.3725  0.7981  0.9638
 2710TIP3    H229690   6.553   5.558   8.977 -1.1677 -1.3934  0.7607
 2711TIP3   OH229691   4.516   1.540   1.120  0.0228 -0.0260 -0.0240
 2711TIP3    H129692   4.574   1.476   1.161  1.2650  1.8537  1.3029
 2711TIP3    H229693   4.562   1.566   1.040  1.9023  2.5388  1.7411
 2712TIP3   OH229694   0.101   4.240   0.685  0.7009  0.3483 -0.4967
 2712TIP3    H129695   0.177   4.186   0.664  0.3116 -1.2202  1.7472
 2712TIP3    H229696   0.028   4.198   0.639  0.1888 -1.9279  2.1013
 2713TIP3   OH229697   1.284   2.291   9.289  0.6599 -0.1263  0.3089
 2713TIP3    H129698   1.197   2.328   9.302  0.8506 -0.1437  1.8094
 2713TIP3    H229699   1.269   2.210   9.241 -0.3075 -0.8341  1.7511
 2714TIP3   OH229700   5.920   4.096   9.078  0.5399  0.2870  0.3164
 2714TIP3    H129701   5.836   4.105   9.032 -0.1399 -1.5335  1.0845
 2714TIP3    H229702   5.945   4.004   9.064  2.3510  0.7577  0.2375
 2715TIP3   OH229703   1.971   5.307   9.328 -0.4737  0.7201  0.1499
 2715TIP3    H129704   1.924   5.378   9.374  1.0946  0.6950  1.9190
 2715TIP3    H229705   2.005   5.252   9.399  2.6781  1.0631 -0.9586
 2716TIP3   OH229706   2.853   3.114   7.891  0.1534  0.3365  0.3603
 2716TIP3    H129707   2.923   3.111   7.957  2.6021  0.0445 -2.0251
 2716TIP3    H229708   2.841   3.022   7.865 -1.6596  0.3041  1.1937
 2717TIP3   OH229709   0.893   1.811   7.624  0.4011  0.5418 -0.7655
 2717TIP3    H129710   0.819   1.871   7.613  0.2909  0.6229  0.2915
 2717TIP3    H229711   0.860   1.726   7.595  0.2850  0.8179 -1.4549
 2718TIP3   OH229712   5.261   0.480   8.957  0.0169  0.2442 -0.1178
 2718TIP3    H129713   5.236   0.388   8.950  1.7615 -0.3017  0.2792
 2718TIP3    H229714   5.348   0.485   8.919 -0.8859  2.2035 -2.1869
 2719TIP3   OH229715   2.516   6.312   2.082  0.5054 -0.0261 -0.7372
 2719TIP3    H129716   2.594   6.338   2.033  0.1486 -0.2225 -1.4172
 2719TIP3    H229717   2.548   6.247   2.145  1.4644  2.1500  1.1585
 2720TIP3   OH229718   5.158   4.474   8.947  0.5546 -0.3822  0.3773
 2720TIP3    H129719   5.146   4.452   8.855  0.5462  1.3833 -0.0838
 2720TIP3    H229720   5.234   4.532   8.949 -1.6056  2.6693  0.9061
 2721TIP3   OH229721   6.261   0.561   0.002  0.4160 -0.3706 -0.0407
 2721TIP3    H129722   6.199   0.488  -0.002  0.1419 -0.1715  0.5501
 2721TIP3    H229723   6.338   0.525   0.047  0.4572 -0.4179 -0.1478
 2722TIP3   OH229724   0.928   2.644   0.066 -0.4734  0.1323 -0.4512
 2722TIP3    H129725   0.858   2.703   0.038  0.1585  1.7206  1.1762
 2722TIP3    H229726   0.988   2.699   0.117  0.7856 -1.6660  0.1200
 2723TIP3   OH229727   3.357   1.784   0.674  0.1263  0.5425  0.1569
 2723TIP3    H129728   3.335   1.732   0.597  0.8743 -1.7042  1.3716
 2723TIP3    H229729   3.385   1.720   0.739 -2.4780  2.0978  3.0893
 2724TIP3   OH229730   2.648   5.651   1.346 -0.1050  0.3458 -0.3071
 2724TIP3    H129731   2.676   5.560   1.334 -0.1510  0.4358 -1.1303
 2724TIP3    H229732   2.570   5.659   1.292 -0.3660  0.7581  0.1242
 2725TIP3   OH229733   1.542   3.951   7.539 -0.5149 -0.0722  0.4266
 2725TIP3    H129734   1.536   4.018   7.471 -0.2406 -1.3500 -0.8844
 2725TIP3    H229735   1.546   4.001   7.621 -0.2735  1.5117 -0.5142
 2726TIP3   OH229736   4.138   4.984   8.812  0.3340  0.1855  0.2705
 2726TIP3    H129737   4.134   4.953   8.722 -0.3654 -1.5655  0.8634
 2726TIP3    H229738   4.209   4.934   8.852 -0.3892 -0.2025  1.0963
 2727TIP3   OH229739   1.918   3.898   2.173 -0.2822 -0.1145  0.1089
 2727TIP3    H129740   1.903   3.838   2.247 -0.0966  0.0608  0.2919
 2727TIP3    H229741   1.858   3.971   2.189 -2.4390 -1.4332 -1.5051
 2728TIP3   OH229742   1.683   1.375   1.767 -0.3924  0.3279  0.4850
 2728TIP3    H129743   1.644   1.461   1.783 -0.8224  0.3418 -0.5567
 2728TIP3    H229744   1.633   1.315   1.824  0.3467  0.8415  1.7140
 2729TIP3   OH229745   4.628   5.216   2.653 -0.0675 -0.5588  0.4320
 2729TIP3    H129746   4.609   5.290   2.595 -1.1109 -1.5226 -0.5184
 2729TIP3    H229747   4.722   5.220   2.666 -0.2566  1.8050  1.6409
 2730TIP3   OH229748   5.566   0.336   1.139  0.2792  0.3148 -0.3527
 2730TIP3    H129749   5.601   0.422   1.162 -0.2059  0.7795 -1.3100
 2730TIP3    H229750   5.527   0.348   1.053 -0.4263 -0.6983 -0.1891
 2731TIP3   OH229751   2.971   3.538   0.490 -0.0139  0.1227  0.0632
 2731TIP3    H129752   3.064   3.552   0.511 -0.2429  2.5035 -0.1691
 2731TIP3    H229753   2.970   3.529   0.394 -0.0820  0.8731 -0.0113
 2732TIP3   OH229754   1.510   5.138   7.399  0.0048 -0.1473  0.2714
 2732TIP3    H129755   1.520   5.116   7.492 -1.1407 -0.5869  0.3047
 2732TIP3    H229756   1.425   5.182   7.393 -0.6514 -1.4805 -0.7844
 2733TIP3   OH229757   1.006   4.692   9.019 -0.2914 -0.2839  0.3015
 2733TIP3    H129758   0.939   4.636   8.980 -1.2613  0.8677  0.2349
 2733TIP3    H229759   1.064   4.632   9.066 -0.0552 -1.5450 -1.4792
 2734TIP3   OH229760   2.496   1.006   8.769 -0.0052 -0.5174  0.0063
 2734TIP3    H129761   2.492   1.084   8.715 -1.8079 -1.2015 -0.9359
 2734TIP3    H229762   2.572   0.958   8.737  3.0967  2.1928  2.6706
 2735TIP3   OH229763   4.062   3.994   0.800  0.2197  0.3018 -0.2504
 2735TIP3    H129764   3.998   4.064   0.808 -1.0438 -0.8839  0.3819
 2735TIP3    H229765   4.093   3.979   0.889 -0.9212 -1.1680 -0.0557
 2736TIP3   OH229766   1.715   0.306   7.550  0.0739  0.8640 -0.2327
 2736TIP3    H129767   1.686   0.215   7.558 -0.8908  0.8654 -2.8781
 2736TIP3    H229768   1.635   0.358   7.557  0.5344  1.4904  0.5824
 2737TIP3   OH229769   5.577   5.953   1.578  0.0503 -0.0264  0.1461
 2737TIP3    H129770   5.486   5.958   1.608 -0.0471  0.2386 -0.1878
 2737TIP3    H229771   5.586   6.027   1.518 -0.0660 -1.1587 -1.3069
 2738TIP3   OH229772   1.813   5.561   0.637 -0.1522 -0.2848  0.1000
 2738TIP3    H129773   1.815   5.498   0.709  1.2740 -0.9624 -0.5091
 2738TIP3    H229774   1.719   5.576   0.622 -0.4890 -0.0163  2.1553
 2739TIP3   OH229775   1.495   1.578   7.417  0.4882  1.0725 -0.2754
 2739TIP3    H129776   1.588   1.598   7.400  0.3856  1.8841  0.0446
 2739TIP3    H229777   1.476   1.623   7.500  0.1667 -0.2573  0.3872
 2740TIP3   OH229778   6.331   2.809   0.968 -0.8723  0.0449  0.1746
 2740TIP3    H129779   6.288   2.869   1.029 -0.0692  0.8337 -0.0236
 2740TIP3    H229780   6.260   2.780   0.910 -1.3586  0.4253  0.5612
 2741TIP3   OH229781   3.885   3.112   9.122 -0.1760  0.1678  0.2446
 2741TIP3    H129782   3.897   3.200   9.088 -0.9370  0.1297 -0.1542
 2741TIP3    H229783   3.790   3.104   9.133  0.0280  0.2443  2.5386
 2742TIP3   OH229784   3.281   1.658   1.341 -0.0786  0.0296 -0.3891
 2742TIP3    H129785   3.374   1.654   1.363  0.5191 -0.5610 -2.7474
 2742TIP3    H229786   3.249   1.569   1.354 -0.0043 -0.0557 -0.7847
 2743TIP3   OH229787   3.720   3.848   9.270  0.9072  0.5936  0.8184
 2743TIP3    H129788   3.704   3.907   9.196 -3.1157 -1.8756 -0.5790
 2743TIP3    H229789   3.704   3.902   9.347 -0.0503  1.9815 -0.3012
 2744TIP3   OH229790   5.014   5.817   7.641 -0.6618 -0.2211 -0.0144
 2744TIP3    H129791   4.978   5.756   7.577 -0.4912  1.1535 -1.4588
 2744TIP3    H229792   5.108   5.809   7.631 -0.6195 -0.4957  0.5635
 2745TIP3   OH229793   6.048   4.761   8.476 -0.1597 -0.1023 -0.1557
 2745TIP3    H129794   6.121   4.783   8.418 -0.2227  0.2162 -0.1163
 2745TIP3    H229795   6.082   4.693   8.534 -0.9603 -2.7363 -2.5129
 2746TIP3   OH229796   0.546   6.309   0.914 -0.4111 -0.3793 -0.2124
 2746TIP3    H129797   0.563   6.273   1.001 -2.0039 -1.1508 -0.1788
 2746TIP3    H229798   0.519   6.400   0.930  2.2135  0.4856 -0.1868
 2747TIP3   OH229799   3.555   5.277   1.459  0.4330 -0.2004  0.2220
 2747TIP3    H129800   3.632   5.317   1.497  0.5005  0.4615 -0.5792
 2747TIP3    H229801   3.485   5.295   1.521  0.1988  2.2631 -0.6613
 2748TIP3   OH229802   1.394   3.612   8.627  0.0424 -1.6181  0.7068
 2748TIP3    H129803   1.441   3.557   8.564  0.9031 -0.8468  0.6650
 2748TIP3    H229804   1.313   3.636   8.582  1.5526  0.6771 -1.0296
 2749TIP3   OH229805   4.988   0.141   9.083 -0.2694  0.1312 -0.2724
 2749TIP3    H129806   5.040   0.180   9.013 -1.7720  0.0728 -1.4715
 2749TIP3    H229807   4.909   0.196   9.087 -0.5944 -0.3867  0.8017
 2750TIP3   OH229808   4.689   4.693   8.309 -0.1672 -0.0509 -0.0314
 2750TIP3    H129809   4.626   4.631   8.345  1.0819 -1.0055  0.6256
 2750TIP3    H229810   4.774   4.652   8.326  0.9102  2.9435  2.7810
 2751TIP3   OH229811   4.078   2.671   9.186 -0.4365 -0.3216  0.1709
 2751TIP3    H129812   4.018   2.652   9.113 -0.3522 -0.6051  0.1740
 2751TIP3    H229813   4.031   2.734   9.240 -0.5319 -0.1675 -0.0916
 2752TIP3   OH229814   2.702   4.958   6.923  0.0114 -0.6321  0.0085
 2752TIP3    H129815   2.751   4.892   6.874 -0.0150 -0.6228 -0.0305
 2752TIP3    H229816   2.611   4.946   6.895 -0.2578 -1.7150  1.2563
 2753TIP3   OH229817   3.023   1.538   1.846  0.0977 -0.2998  0.5655
 2753TIP3    H129818   2.951   1.474   1.852 -0.0657 -0.2307 -0.5025
 2753TIP3    H229819   3.054   1.547   1.936  0.7230 -2.5719  0.6549
 2754TIP3   OH229820   1.933   5.561   7.332 -0.4480  0.3005  0.0073
 2754TIP3    H129821   1.941   5.639   7.277 -2.5289  1.1958  0.8643
 2754TIP3    H229822   1.843   5.530   7.317  0.0968 -1.5109  0.2583
 2755TIP3   OH229823   2.183   5.271   1.808  0.1420 -0.3304  0.2161
 2755TIP3    H129824   2.184   5.340   1.742  1.3487  0.3492  0.9049
 2755TIP3    H229825   2.091   5.246   1.816 -0.5028  2.0350  0.7834
 2756TIP3   OH229826   4.856   4.947   7.419 -0.5892  0.5143  0.2622
 2756TIP3    H129827   4.791   4.961   7.488  0.4220  0.4327  1.2626
 2756TIP3    H229828   4.808   4.902   7.349 -1.6922  0.8191  0.8038
 2757TIP3   OH229829   6.004   4.611   7.552  0.4868  0.8149 -0.5044
 2757TIP3    H129830   6.054   4.556   7.491 -0.5506  0.7501 -1.3124
 2757TIP3    H229831   5.970   4.682   7.499 -0.7162  0.5765 -0.0732
 2758TIP3   OH229832   5.084   2.456   7.368  0.3205  0.2794  0.2385
 2758TIP3    H129833   5.044   2.378   7.331 -0.4526 -0.8006  3.0452
 2758TIP3    H229834   5.046   2.529   7.319 -1.9875 -0.9390  0.1014
 2759TIP3   OH229835   0.250   4.054   0.492 -0.6526  0.1074  0.4874
 2759TIP3    H129836   0.211   3.977   0.533 -0.1754 -0.3058  0.1734
 2759TIP3    H229837   0.284   4.023   0.408 -1.6517  0.9539 -0.2572
 2760TIP3   OH229838   3.322   5.646   8.245 -0.0363 -0.3557 -0.3675
 2760TIP3    H129839   3.301   5.607   8.160  1.1716 -1.5064 -0.1609
 2760TIP3    H229840   3.263   5.603   8.307 -0.4013 -0.0557 -0.5041
 2761TIP3   OH229841   3.929   0.485   0.690  0.1694  0.0387 -0.1903
 2761TIP3    H129842   3.905   0.409   0.636 -2.1007  1.3330 -1.1492
 2761TIP3    H229843   3.851   0.503   0.741  0.9881  1.2106  0.6743
 2762TIP3   OH229844   1.398   1.339   8.995  0.1916  0.4875  0.3622
 2762TIP3    H129845   1.453   1.415   8.978 -0.9632  1.3003  0.1588
 2762TIP3    H229846   1.350   1.361   9.074 -0.4124  0.1222  0.1085
 2763TIP3   OH229847   4.769   6.227   7.780  0.2861  0.2806 -0.2564
 2763TIP3    H129848   4.726   6.237   7.694 -2.6820 -0.2595  1.0415
 2763TIP3    H229849   4.853   6.186   7.760 -0.7919 -0.9084 -2.8535
 2764TIP3   OH229850   5.508   3.981   8.175  0.4503  0.3589  0.5213
 2764TIP3    H129851   5.468   3.923   8.111 -2.6231  1.7449  1.0093
 2764TIP3    H229852   5.486   3.943   8.260 -1.0615  1.8128  0.8305
 2765TIP3   OH229853   3.115   1.151   7.229  0.3377  0.0955 -0.0816
 2765TIP3    H129854   3.077   1.237   7.248  0.6928  0.1647  0.3320
 2765TIP3    H229855   3.209   1.168   7.220  0.3330 -0.1544 -0.5847
 2766TIP3   OH229856   2.646   0.116   0.021 -0.2887  0.8560 -0.4708
 2766TIP3    H129857   2.632   0.038   0.074  2.0253 -1.1611 -2.5596
 2766TIP3    H229858   2.699   0.174   0.075  1.6291 -0.9449 -0.2986
 2767TIP3   OH229859   5.596   3.491   7.247 -0.3953  0.2342 -0.3997
 2767TIP3    H129860   5.578   3.554   7.317 -3.3790 -0.3024 -0.5759
 2767TIP3    H229861   5.660   3.535   7.191  1.0612  1.2086  1.8922
 2768TIP3   OH229862   4.172   0.357   0.375  0.1877 -0.1223 -0.5286
 2768TIP3    H129863   4.201   0.285   0.318 -0.6091 -1.3598  0.5925
 2768TIP3    H229864   4.077   0.360   0.363  0.2799  1.1775 -1.0329
 2769TIP3   OH229865   4.944   3.066   6.794  0.1240  0.2538  0.3930
 2769TIP3    H129866   4.988   3.043   6.876  0.4593  0.7101  0.3449
 2769TIP3    H229867   4.867   3.010   6.792 -0.4053  0.9164  1.4961
 2770TIP3   OH229868   5.301   3.656   0.111  0.1862 -0.1667 -0.7319
 2770TIP3    H129869   5.267   3.619   0.029 -0.7373  1.3563 -1.0826
 2770TIP3    H229870   5.361   3.725   0.083  0.2527  0.0330 -0.1178
 2771TIP3   OH229871   1.033   2.840   0.226 -0.6522 -0.3795  0.1035
 2771TIP3    H129872   1.024   2.932   0.203  1.6529  0.3866  1.8547
 2771TIP3    H229873   0.971   2.827   0.298 -0.5688 -0.0449  0.2360
 2772TIP3   OH229874   6.052   0.876   0.619  0.3131  0.0917  0.3708
 2772TIP3    H129875   5.972   0.842   0.580  0.0642 -0.0674  0.9961
 2772TIP3    H229876   6.091   0.931   0.551  0.2361 -0.6879 -0.3197
 2773TIP3   OH229877   0.173   4.606   2.530  0.1462  0.0853 -0.4059
 2773TIP3    H129878   0.105   4.673   2.533 -0.9685 -1.0379  1.3365
 2773TIP3    H229879   0.163   4.565   2.444 -1.5726 -0.2043 -0.1066
 2774TIP3   OH229880   6.041   4.899   1.006  0.1580  0.1184 -0.9299
 2774TIP3    H129881   6.105   4.933   0.943 -0.1290 -1.5579 -2.1895
 2774TIP3    H229882   6.045   4.804   0.996 -1.2714 -0.0970  0.2408
 2775TIP3   OH229883   5.183   4.868   8.829  0.0737  0.7905  0.2971
 2775TIP3    H129884   5.223   4.790   8.791 -1.1884  0.6163 -0.7368
 2775TIP3    H229885   5.228   4.941   8.787 -1.4369  0.6041 -1.7738
 2776TIP3   OH229886   2.099   4.138   0.022 -0.3763 -0.0436 -0.1149
 2776TIP3    H129887   2.074   4.068  -0.039  1.5531 -1.6159  0.7766
 2776TIP3    H229888   2.105   4.217  -0.033  3.3390 -1.7463 -2.5839
 2777TIP3   OH229889   4.207   5.245   9.121 -0.2884 -0.1654  0.1191
 2777TIP3    H129890   4.137   5.310   9.128 -0.2431 -0.1465  0.4175
 2777TIP3    H229891   4.268   5.268   9.190 -0.6810 -1.0185  0.7665
 2778TIP3   OH229892   5.431   2.630   8.628  0.1539 -0.3233 -0.2474
 2778TIP3    H129893   5.342   2.597   8.626  0.9546 -3.0194  2.1482
 2778TIP3    H229894   5.481   2.563   8.673  3.4436  1.0874 -1.4228
 2779TIP3   OH229895   0.954   6.002   0.990  0.2234  0.0896 -0.6875
 2779TIP3    H129896   1.044   5.974   0.974 -0.0808 -1.4933  0.1136
 2779TIP3    H229897   0.944   5.996   1.085 -0.4174  1.2873 -0.6633
 2780TIP3   OH229898   3.018   6.564   8.190  0.1034  0.6159  0.1090
 2780TIP3    H129899   2.955   6.500   8.157  0.0960  1.0749 -0.8020
 2780TIP3    H229900   3.100   6.542   8.146 -0.2372  2.1071 -1.3703
 2781TIP3   OH229901   5.432   0.504   7.050 -0.3648 -0.0157  0.1434
 2781TIP3    H129902   5.520   0.478   7.076  0.8307  1.6289 -1.8449
 2781TIP3    H229903   5.415   0.584   7.101 -0.4749 -0.0436  0.1497
 2782TIP3   OH229904   0.428   6.395   8.740 -0.0085  0.1533  0.5786
 2782TIP3    H129905   0.520   6.401   8.768  0.6485  0.4177 -1.4819
 2782TIP3    H229906   0.423   6.313   8.691 -0.3721  1.0170 -0.9089
 2783TIP3   OH229907   1.846   1.147   0.013 -0.1846  0.0155  0.4433
 2783TIP3    H129908   1.850   1.236  -0.021 -0.2107 -0.6438 -1.3959
 2783TIP3    H229909   1.866   1.091  -0.063 -1.0657 -1.5757  1.3339
 2784TIP3   OH229910   3.047   4.428   8.928  0.0415 -0.0882 -0.3609
 2784TIP3    H129911   3.007   4.499   8.877  1.2362  0.6472 -0.3007
 2784TIP3    H229912   3.047   4.353   8.869 -0.5278  0.1719 -0.6997
 2785TIP3   OH229913   5.312   6.405   1.577 -0.0267 -0.1648  0.0775
 2785TIP3    H129914   5.293   6.335   1.640 -4.2518 -0.4579 -1.2215
 2785TIP3    H229915   5.280   6.484   1.619  0.3139  0.2129 -0.3682
 2786TIP3   OH229916   5.697   4.862   1.853 -0.2841 -0.0969  0.6240
 2786TIP3    H129917   5.768   4.922   1.829 -0.8394  0.7787  1.1533
 2786TIP3    H229918   5.730   4.817   1.932  0.9030 -1.8788 -0.7933
 2787TIP3   OH229919   3.396   4.331   2.117 -0.1638 -0.6872 -0.1754
 2787TIP3    H129920   3.370   4.417   2.150 -1.4036 -1.4922  1.0270
 2787TIP3    H229921   3.337   4.270   2.159  0.7836 -2.1706 -0.9065
 2788TIP3   OH229922   2.129   4.560   8.626  0.7799  0.2853  0.0259
 2788TIP3    H129923   2.133   4.478   8.676  0.5942  0.0838 -0.2835
 2788TIP3    H229924   2.044   4.598   8.649  0.8045  0.3182  0.0614
 2789TIP3   OH229925   4.768   6.257   1.336  0.1313 -0.4369  0.0252
 2789TIP3    H129926   4.847   6.204   1.331  0.9692  0.6530  0.9933
 2789TIP3    H229927   4.799   6.343   1.365 -1.2498  0.3997 -0.8468
 2790TIP3   OH229928   5.773   2.879   0.648  0.9325  0.0835 -0.6678
 2790TIP3    H129929   5.728   2.799   0.674  1.0211 -0.1016 -1.0825
 2790TIP3    H229930   5.866   2.859   0.661  0.9832 -0.0392 -1.1957
 2791TIP3   OH229931   6.522   3.303   8.398  0.3770 -0.3046 -0.2264
 2791TIP3    H129932   6.431   3.329   8.383 -0.0360 -1.8785 -0.5709
 2791TIP3    H229933   6.572   3.384   8.386 -0.8071  0.2566 -1.6675
 2792TIP3   OH229934   4.532   5.533   9.022  0.1670  0.0633  0.0146
 2792TIP3    H129935   4.455   5.543   8.966  1.0422  0.4625 -1.1664
 2792TIP3    H229936   4.595   5.486   8.967  0.2830 -1.5338  1.4445
 2793TIP3   OH229937   1.070   4.457   7.390  0.0559  0.4544 -0.0789
 2793TIP3    H129938   1.077   4.553   7.383  1.1241  0.2895 -2.0608
 2793TIP3    H229939   0.999   4.434   7.330 -1.3490  0.0901  1.6506
 2794TIP3   OH229940   1.305   5.381   8.482  0.6260 -0.1813  0.2948
 2794TIP3    H129941   1.308   5.465   8.527 -1.0723 -0.7674  1.6063
 2794TIP3    H229942   1.365   5.325   8.531 -0.7168 -0.6271  1.4904
 2795TIP3   OH229943   6.486   6.501   8.502 -0.0567 -0.3105 -0.4627
 2795TIP3    H129944   6.505   6.408   8.519 -3.3252 -1.3552 -1.7478
 2795TIP3    H229945   6.444   6.531   8.582  0.3344 -0.1324 -0.3211
 2796TIP3   OH229946   0.282   5.600   8.333  0.8289 -0.3190 -0.2094
 2796TIP3    H129947   0.281   5.665   8.264  2.4467 -0.5460 -0.4734
 2796TIP3    H229948   0.242   5.644   8.408 -1.5324 -0.2711 -1.4126
 2797TIP3   OH229949   2.603   5.450   0.028 -0.1307 -0.3055  0.1143
 2797TIP3    H129950   2.514   5.465  -0.002  0.1411 -0.0252 -0.5762
 2797TIP3    H229951   2.636   5.380  -0.029 -0.0438 -0.6973  0.6361
 2798TIP3   OH229952   2.349   5.267   1.100 -0.5354  0.0049  0.0292
 2798TIP3    H129953   2.351   5.297   1.009  0.4031  0.0550  0.0600
 2798TIP3    H229954   2.438   5.236   1.117 -0.8456 -0.5001  0.7676
 2799TIP3   OH229955   0.840   0.269   8.849  0.4571 -0.3519  0.0790
 2799TIP3    H129956   0.794   0.256   8.931  0.8879  0.2187  0.4175
 2799TIP3    H229957   0.866   0.181   8.821  1.8517 -0.4265  1.4588
 2800TIP3   OH229958   3.869   1.529   1.400  0.0732  0.4981  0.0091
 2800TIP3    H129959   3.936   1.464   1.420  0.6586  1.0991  0.0347
 2800TIP3    H229960   3.876   1.593   1.470  0.3736  1.2569 -0.7058
 2801TIP3   OH229961   0.745   2.173   7.512 -0.1333 -0.6339 -0.1411
 2801TIP3    H129962   0.709   2.088   7.537 -1.9015 -0.2233 -1.1605
 2801TIP3    H229963   0.772   2.162   7.421 -0.5162 -0.0780 -0.3304
 2802TIP3   OH229964   0.854   2.588   8.515 -0.0278  0.1217 -0.2606
 2802TIP3    H129965   0.825   2.643   8.588 -2.9119 -2.7052  0.9680
 2802TIP3    H229966   0.935   2.548   8.546  1.7644  2.9445 -0.9257
 2803TIP3   OH229967   0.346   0.913   0.293 -0.4800  0.9348 -0.3696
 2803TIP3    H129968   0.370   0.967   0.217 -0.7612  0.3714 -0.8706
 2803TIP3    H229969   0.422   0.918   0.351 -0.0718  1.0163 -0.8956
 2804TIP3   OH229970   2.184   1.106   0.955  0.1930  0.0698  0.0326
 2804TIP3    H129971   2.164   1.186   0.906  1.9864  0.6388  0.1337
 2804TIP3    H229972   2.135   1.114   1.037  0.1501  0.9511 -0.0714
 2805TIP3   OH229973   5.131   0.417   0.880  0.0601  0.3056  0.5696
 2805TIP3    H129974   5.038   0.398   0.890 -0.2988  0.6707 -1.6141
 2805TIP3    H229975   5.171   0.385   0.961 -1.9588  0.2707  1.6141
 2806TIP3   OH229976   3.674   3.895   1.040  0.4486 -0.1677  0.0452
 2806TIP3    H129977   3.604   3.833   1.060 -1.2181  1.9067  1.0618
 2806TIP3    H229978   3.721   3.907   1.123 -1.8985  2.9496  1.1257
 2807TIP3   OH229979   1.572   6.535   7.751  0.3555 -0.3060 -0.4776
 2807TIP3    H129980   1.536   6.577   7.673  0.5450  0.5117 -0.1247
 2807TIP3    H229981   1.521   6.571   7.824 -0.2854 -1.5627 -0.2610
 2808TIP3   OH229982   6.352   2.740   0.128 -0.1075 -0.0920 -0.2027
 2808TIP3    H129983   6.297   2.675   0.085  2.5833 -2.5374 -0.2582
 2808TIP3    H229984   6.372   2.702   0.213  0.6448  1.2130  0.2292
 2809TIP3   OH229985   4.895   4.207   1.566 -0.0416  0.6235  0.3536
 2809TIP3    H129986   4.809   4.188   1.530  0.7387  0.4670 -1.5237
 2809TIP3    H229987   4.936   4.121   1.577  0.0637  0.7246  0.7941
 2810TIP3   OH229988   5.524   3.493   0.852 -0.0261  0.0966 -0.1855
 2810TIP3    H129989   5.433   3.463   0.854  0.0663 -0.2120 -0.4408
 2810TIP3    H229990   5.567   3.434   0.790  0.5992 -0.4541  0.7534
 2811TIP3   OH229991   1.233   4.813   8.705 -0.4578  0.2768 -0.6589
 2811TIP3    H129992   1.325   4.839   8.710 -0.4079  0.3021 -1.5123
 2811TIP3    H229993   1.231   4.725   8.743  0.1823 -0.3059 -1.9047
 2812TIP3   OH229994   1.878   3.467   0.297 -0.0369 -0.0333  0.3044
 2812TIP3    H129995   1.793   3.482   0.338  0.8002 -0.5338  2.3755
 2812TIP3    H229996   1.903   3.379   0.325  0.4945 -0.5257 -1.5851
 2813TIP3   OH229997   0.293   2.544   8.562  0.0939  0.0774 -0.0855
 2813TIP3    H129998   0.275   2.549   8.655 -0.5320  1.7351 -0.2584
 2813TIP3    H229999   0.365   2.605   8.548  0.4223 -0.4265 -0.6351
 2814TIP3   OH230000   4.210   5.005   7.345 -0.2050  0.0172 -0.5515
 2814TIP3    H130001   4.123   5.018   7.308 -0.3031  0.7617 -0.0748
 2814TIP3    H230002   4.270   5.044   7.281 -0.2118 -0.4765 -0.8688
 2815TIP3   OH230003   5.875   5.191   8.675 -0.1635  0.3385 -0.3838
 2815TIP3    H130004   5.802   5.232   8.628  0.9098  0.3245 -2.1602
 2815TIP3    H230005   5.866   5.098   8.658  0.2130  0.3302 -0.5581
 2816TIP3   OH230006   5.112   4.919   0.749 -0.1382 -0.7446 -0.2521
 2816TIP3    H130007   5.078   4.991   0.803  3.8899 -0.1135  1.8389
 2816TIP3    H230008   5.136   4.852   0.813  1.8070 -1.3301 -1.5129
 2817TIP3   OH230009   3.197   4.306   8.286  0.6254 -0.7448  0.2635
 2817TIP3    H130010   3.105   4.286   8.303  0.4710  0.7150  1.3153
 2817TIP3    H230011   3.199   4.331   8.193 -0.5014  1.3994  0.7533
 2818TIP3   OH230012   4.451   0.134   8.214  0.6370  0.1613 -0.7243
 2818TIP3    H130013   4.444   0.065   8.280  2.5923  1.9988  1.5896
 2818TIP3    H230014   4.367   0.131   8.168 -0.4585 -1.8446  1.2073
 2819TIP3   OH230015   1.711   6.493   1.380 -0.2571  0.4190  0.8808
 2819TIP3    H130016   1.676   6.531   1.461  0.2863  0.4320  1.1146
 2819TIP3    H230017   1.651   6.421   1.359 -3.1843  3.2159 -1.2918
 2820TIP3   OH230018   3.660   2.982   1.112 -0.1877  0.1743 -0.9308
 2820TIP3    H130019   3.597   2.916   1.141 -1.5713  1.7784 -0.1327
 2820TIP3    H230020   3.746   2.944   1.133 -0.9130 -1.5468 -0.9278
 2821TIP3   OH230021   1.855   5.038   7.385 -1.0005  0.0721 -0.2467
 2821TIP3    H130022   1.891   5.088   7.457  0.7745 -1.4524  0.0057
 2821TIP3    H230023   1.894   5.076   7.307  1.3570 -1.6087  0.0298
 2822TIP3   OH230024   1.450   6.530   8.823 -0.2071  0.4627  0.2267
 2822TIP3    H130025   1.440   6.529   8.918 -3.5455  1.9236  0.0418
 2822TIP3    H230026   1.372   6.484   8.790 -0.4707  2.1771 -1.7740
 2823TIP3   OH230027   6.192   5.706   1.278  0.1441  0.2431  0.4981
 2823TIP3    H130028   6.257   5.635   1.274  0.2012  0.3401 -0.3993
 2823TIP3    H230029   6.172   5.714   1.371  0.2406 -0.8657  0.6275
 2824TIP3   OH230030   1.690   1.600   2.022  0.1519 -0.1747 -0.2397
 2824TIP3    H130031   1.770   1.630   2.064 -0.1794  0.3540  0.0199
 2824TIP3    H230032   1.677   1.511   2.056  0.6529 -0.2821 -0.3259
 2825TIP3   OH230033   5.451   3.205   1.061  0.6832  0.6991 -0.3437
 2825TIP3    H130034   5.518   3.148   1.099 -0.0442  0.0508 -0.0088
 2825TIP3    H230035   5.481   3.294   1.081  0.0278  0.3928  2.3657
 2826TIP3   OH230036   6.569   5.159   7.814  0.6838 -0.3926 -0.0746
 2826TIP3    H130037   6.512   5.134   7.887 -0.1035 -0.5349 -0.7231
 2826TIP3    H230038   6.521   5.228   7.769  0.8966 -0.7190 -0.8068
 2827TIP3   OH230039   1.443   2.736   8.674  0.5014 -0.5223  0.0472
 2827TIP3    H130040   1.412   2.791   8.601  1.3312 -0.4566 -0.2646
 2827TIP3    H230041   1.525   2.699   8.642  1.6995  0.7502  1.5436
 2828TIP3   OH230042   0.542   2.342   7.551 -0.2968 -0.3950 -0.6331
 2828TIP3    H130043   0.563   2.258   7.512  0.5658  0.1952 -1.4776
 2828TIP3    H230044   0.626   2.388   7.557 -0.7537  0.4140 -0.2114
 2829TIP3   OH230045   4.859   0.795   8.280 -0.3279  0.1235  0.0354
 2829TIP3    H130046   4.829   0.876   8.238  2.1156 -0.1316 -2.5424
 2829TIP3    H230047   4.807   0.726   8.239 -1.9108  0.2585  1.7126
 2830TIP3   OH230048   1.799   0.337   6.682 -0.3403  0.1762  0.0027
 2830TIP3    H130049   1.876   0.387   6.657 -0.7886  0.7283 -0.3043
 2830TIP3    H230050   1.740   0.401   6.720 -0.6375 -0.2455  0.2648
 2831TIP3   OH230051   0.479   0.943   9.208 -0.0175  0.0068 -0.8133
 2831TIP3    H130052   0.544   0.994   9.160 -0.3460 -0.3792 -1.6919
 2831TIP3    H230053   0.427   0.901   9.140  0.7215 -2.1136 -0.1346
 2832TIP3   OH230054   3.682   2.601   8.820  0.3318 -0.6182 -0.1925
 2832TIP3    H130055   3.599   2.563   8.794  0.7067 -0.7727 -1.1960
 2832TIP3    H230056   3.699   2.670   8.756  0.1409  0.5907  1.0252
 2833TIP3   OH230057   4.003   6.412   1.508 -0.4257  0.1882 -0.2680
 2833TIP3    H130058   4.069   6.481   1.519  0.1542  0.0259 -2.2342
 2833TIP3    H230059   3.930   6.456   1.464 -1.2462  0.1510  1.0267
 2834TIP3   OH230060   2.814   3.188   8.311  0.0825  0.2882  0.1126
 2834TIP3    H130061   2.727   3.228   8.313 -0.5654 -0.9651  3.0011
 2834TIP3    H230062   2.798   3.097   8.288  0.5228 -0.0763  1.1805
 2835TIP3   OH230063   6.068   1.932   9.036 -0.2142  0.0372  0.1502
 2835TIP3    H130064   6.000   1.993   9.063  1.0543  0.9451  1.5004
 2835TIP3    H230065   6.086   1.880   9.115  0.7242 -0.1028 -0.1441
 2836TIP3   OH230066   0.224   6.418   0.988  0.1140  0.3438  0.8041
 2836TIP3    H130067   0.314   6.445   1.007  0.6395 -0.3396 -0.5891
 2836TIP3    H230068   0.170   6.493   1.012  1.3257  1.9209 -1.1355
 2837TIP3   OH230069   3.276   2.183   0.537 -0.1808  0.3446 -0.1087
 2837TIP3    H130070   3.257   2.228   0.455 -0.5998 -0.8920 -0.7128
 2837TIP3    H230071   3.195   2.190   0.588 -0.5867 -0.5703 -0.6131
 2838TIP3   OH230072   6.095   2.108   8.612 -0.0038  0.5428 -0.2064
 2838TIP3    H130073   6.149   2.029   8.610 -0.0686  0.3615 -4.5112
 2838TIP3    H230074   6.006   2.076   8.629  0.1516 -0.1735 -0.7069
 2839TIP3   OH230075   2.300   6.455   1.601  0.5090  0.3550 -0.3777
 2839TIP3    H130076   2.296   6.404   1.682 -1.7402 -0.0831 -0.7039
 2839TIP3    H230077   2.302   6.546   1.630  2.2567  0.1783  0.1723
 2840TIP3   OH230078   3.263   2.295   8.348 -0.1412 -0.0396  0.1396
 2840TIP3    H130079   3.339   2.353   8.342 -0.0298 -0.2537 -0.6498
 2840TIP3    H230080   3.230   2.289   8.258 -1.9240  1.1567  0.6451
 2841TIP3   OH230081   1.368   4.893   0.293 -0.7841 -0.1847 -0.2618
 2841TIP3    H130082   1.409   4.848   0.367 -0.9047  0.1142 -0.0148
 2841TIP3    H230083   1.441   4.916   0.236 -0.5839  0.5034  0.2614
 2842TIP3   OH230084   4.459   6.127   0.384 -0.0404  0.2900  0.7463
 2842TIP3    H130085   4.453   6.043   0.340 -2.4418 -0.1775  1.7920
 2842TIP3    H230086   4.546   6.127   0.425  1.4973 -0.0343 -2.2272
 2843TIP3   OH230087   3.521   5.514   0.969  0.1829 -0.6076 -0.1424
 2843TIP3    H130088   3.452   5.557   0.919  0.1261 -0.1405  0.3321
 2843TIP3    H230089   3.541   5.574   1.041  1.4788 -0.4714 -0.5809
 2844TIP3   OH230090   3.771   6.108   2.272 -0.1730 -0.3669  0.6316
 2844TIP3    H130091   3.755   6.085   2.364  1.0913 -1.1003  0.6960
 2844TIP3    H230092   3.866   6.103   2.262 -0.2662  0.0113 -0.6429
 2845TIP3   OH230093   0.371   4.876   1.246  0.4046 -0.2078 -0.4587
 2845TIP3    H130094   0.405   4.918   1.166 -0.8755  1.1526 -0.3334
 2845TIP3    H230095   0.449   4.860   1.299  1.1282  0.2780 -1.3388
 2846TIP3   OH230096   2.893   2.900   1.797  0.6626  0.1065 -0.0716
 2846TIP3    H130097   2.853   2.917   1.711  0.9223 -1.1391 -0.4581
 2846TIP3    H230098   2.858   2.969   1.853 -0.4640  0.2350 -0.8862
 2847TIP3   OH230099   1.777   2.348   1.561  0.1719  0.0974 -0.0130
 2847TIP3    H130100   1.727   2.386   1.488 -0.5946 -1.3418 -0.2832
 2847TIP3    H230101   1.865   2.337   1.526 -0.5596 -2.1302 -1.3824
 2848TIP3   OH230102   0.858   0.116   8.374  0.0686 -0.4789  0.0022
 2848TIP3    H130103   0.767   0.123   8.403 -0.0896  2.1515 -0.8343
 2848TIP3    H230104   0.857   0.045   8.310 -1.0495 -1.5438  1.1673
 2849TIP3   OH230105   5.053   0.777   1.158 -0.0451  0.0554  0.3812
 2849TIP3    H130106   5.106   0.727   1.095 -1.6004 -1.1061 -0.0782
 2849TIP3    H230107   5.113   0.798   1.229  0.6175 -2.9357  0.8327
 2850TIP3   OH230108   4.418   0.409   0.131  0.0514  0.1366 -0.3227
 2850TIP3    H130109   4.355   0.420   0.060  1.0701 -1.5636 -1.5606
 2850TIP3    H230110   4.382   0.339   0.185  0.6971 -0.6551 -0.8843
 2851TIP3   OH230111   4.919   3.143   0.337  0.0563 -0.6319 -0.3306
 2851TIP3    H130112   4.836   3.110   0.301  0.8633 -1.6665 -1.3243
 2851TIP3    H230113   4.898   3.231   0.368 -1.3501 -0.7655 -0.8055
 2852TIP3   OH230114   2.983   4.936   1.061 -0.1582  0.2143 -0.2700
 2852TIP3    H130115   2.920   4.877   1.103  1.2742 -1.0863  0.1006
 2852TIP3    H230116   2.951   5.024   1.084 -0.4088 -0.4245  2.1115
 2853TIP3   OH230117   1.762   1.754   8.558 -0.1184 -0.5044 -1.1165
 2853TIP3    H130118   1.749   1.762   8.463 -0.8155  2.8911 -0.8701
 2853TIP3    H230119   1.852   1.784   8.572 -0.1916 -0.4943 -0.6638
 2854TIP3   OH230120   5.708   4.721   1.621 -0.4033 -0.0605  0.4297
 2854TIP3    H130121   5.798   4.751   1.610 -0.6414  0.3148 -0.6524
 2854TIP3    H230122   5.686   4.742   1.711  0.6853 -0.4081  0.7865
 2855TIP3   OH230123   5.583   1.120   0.422  0.0905  0.4037 -0.0164
 2855TIP3    H130124   5.523   1.156   0.487 -0.1735  3.0642 -1.5991
 2855TIP3    H230125   5.526   1.073   0.360 -0.1387  1.1950 -0.4153
 2856TIP3   OH230126   5.827   4.731   2.063  0.1289 -0.0955 -0.3569
 2856TIP3    H130127   5.906   4.784   2.053 -1.0681  2.0833  1.0658
 2856TIP3    H230128   5.811   4.728   2.157 -0.7981 -1.5698 -0.5247
 2857TIP3   OH230129   3.242   0.376   0.608 -0.6971 -0.4189  0.2260
 2857TIP3    H130130   3.295   0.404   0.533 -0.1274  1.5766  1.2915
 2857TIP3    H230131   3.223   0.284   0.591  0.9758 -0.5196 -1.4471
 2858TIP3   OH230132   3.583   6.585   0.021 -0.0220  0.0910 -0.4559
 2858TIP3    H130133   3.575   6.639  -0.058  0.9419 -1.0828 -1.3919
 2858TIP3    H230134   3.538   6.504  -0.000 -0.3985  0.0341  0.4924
 2859TIP3   OH230135   1.866   3.938   9.256  0.1497 -0.7026 -0.4782
 2859TIP3    H130136   1.773   3.920   9.263  0.2196 -0.5945  0.9634
 2859TIP3    H230137   1.906   3.890   9.329  1.0198  0.5722 -0.0899
 2860TIP3   OH230138   4.447   0.347   1.449  0.3639 -0.7514 -0.4293
 2860TIP3    H130139   4.351   0.348   1.445  0.3602  0.3660 -0.5683
 2860TIP3    H230140   4.472   0.440   1.445  1.4274 -0.9804  0.3462
 2861TIP3   OH230141   4.557   3.768   0.164  0.3524  0.2926 -0.3878
 2861TIP3    H130142   4.572   3.693   0.222  1.2850 -1.1210 -2.3254
 2861TIP3    H230143   4.550   3.729   0.077 -4.0554  1.9633 -1.0254
 2862TIP3   OH230144   2.593   5.318   2.078 -0.4118  0.3297 -0.2666
 2862TIP3    H130145   2.525   5.258   2.107 -1.8116  0.1501 -3.4480
 2862TIP3    H230146   2.554   5.405   2.086  0.0460  0.4713  0.4719
 2863TIP3   OH230147   4.827   6.325   8.539  0.5505  0.5172  0.6406
 2863TIP3    H130148   4.851   6.334   8.631  1.1187 -2.5232  0.9016
 2863TIP3    H230149   4.911   6.322   8.493  0.3349  0.1900  0.2606
 2864TIP3   OH230150   3.909   1.296   1.627  0.6943  0.8570  0.4554
 2864TIP3    H130151   3.959   1.311   1.707  1.5643  1.2225 -0.1376
 2864TIP3    H230152   3.963   1.333   1.557 -0.6052  1.6491 -0.1697
 2865TIP3   OH230153   0.034   6.224   0.909  0.1009 -0.0774 -0.5566
 2865TIP3    H130154   0.017   6.155   0.973  2.3233 -1.1966 -1.0707
 2865TIP3    H230155   0.105   6.275   0.946 -0.6224  1.1620 -0.7967
 2866TIP3   OH230156   2.390   1.523   8.734  0.3488  0.1972  0.5631
 2866TIP3    H130157   2.308   1.476   8.743  1.2239 -1.1639  1.9788
 2866TIP3    H230158   2.365   1.614   8.723 -1.3456 -0.2759  0.3240
 2867TIP3   OH230159   5.399   2.828   7.673  0.2614 -0.6226 -0.2706
 2867TIP3    H130160   5.333   2.824   7.605 -0.7527 -0.1295  0.6529
 2867TIP3    H230161   5.482   2.817   7.627 -0.3504  0.3651 -1.6702
 2868TIP3   OH230162   1.686   2.338   7.468 -0.6676  0.2602 -0.2980
 2868TIP3    H130163   1.712   2.305   7.382  1.1092  1.5580 -0.3034
 2868TIP3    H230164   1.591   2.328   7.469 -0.9745  1.7331 -3.0929
 2869TIP3   OH230165   0.038   6.235   0.212  0.0773 -0.5476 -0.1293
 2869TIP3    H130166  -0.021   6.167   0.179 -0.4514 -1.1124  1.8334
 2869TIP3    H230167   0.125   6.210   0.181 -0.1471 -1.9930  0.3566
 2870TIP3   OH230168   1.787   0.784   8.323  0.4608  0.1268 -0.2615
 2870TIP3    H130169   1.819   0.719   8.386 -0.0095 -0.6600 -0.8175
 2870TIP3    H230170   1.692   0.785   8.336  0.4889  0.9838 -0.0116
 2871TIP3   OH230171   5.238   2.916   7.146 -0.0979  0.0652 -0.0886
 2871TIP3    H130172   5.280   2.882   7.067  0.4544  2.0572 -0.7108
 2871TIP3    H230173   5.310   2.930   7.208  0.0511  2.0765 -0.6308
 2872TIP3   OH230174   1.137   1.813   7.745  0.9391  0.3729 -0.2521
 2872TIP3    H130175   1.053   1.833   7.703  0.1974  0.3813  1.1908
 2872TIP3    H230176   1.177   1.898   7.761 -0.0634  0.5552  1.5634
 2873TIP3   OH230177   0.029   5.929   8.280 -0.5960 -0.1303 -0.0549
 2873TIP3    H130178   0.060   5.854   8.331  0.4370  0.6599  0.5301
 2873TIP3    H230179  -0.022   5.981   8.342  0.0370  0.4515 -0.0024
 2874TIP3   OH230180   2.997   4.860   1.572 -0.2956 -0.1352  0.0748
 2874TIP3    H130181   2.993   4.917   1.649 -1.1016  0.5236 -0.4374
 2874TIP3    H230182   2.920   4.884   1.520 -0.9976 -2.1009  0.1201
 2875TIP3   OH230183   1.549   2.120   7.668  0.5550  0.0564  0.6180
 2875TIP3    H130184   1.559   2.178   7.743  0.9947 -0.1332  0.7112
 2875TIP3    H230185   1.493   2.168   7.607  1.1163  0.6799  0.5909
 2876TIP3   OH230186   4.778   6.379   0.808  0.2363  0.1843  0.1943
 2876TIP3    H130187   4.858   6.329   0.828  0.9770  1.2653  0.0227
 2876TIP3    H230188   4.791   6.463   0.853  0.5094  1.4661 -2.1527
 2877TIP3   OH230189   4.403   5.769   9.092 -0.2804  0.0370  0.3267
 2877TIP3    H130190   4.439   5.810   9.013 -0.0129  1.6852  1.2540
 2877TIP3    H230191   4.452   5.687   9.101 -0.4155 -0.2357 -1.2771
 2878TIP3   OH230192   5.059   3.401   7.045  0.3026 -0.1897 -0.3900
 2878TIP3    H130193   5.123   3.362   7.105  0.1628 -1.5680 -1.1041
 2878TIP3    H230194   5.016   3.469   7.097  0.2689 -1.2665  1.0460
 2879TIP3   OH230195   5.854   4.887   8.294  0.5199 -0.4560  0.4781
 2879TIP3    H130196   5.924   4.952   8.300  0.8711 -0.7989  0.1595
 2879TIP3    H230197   5.860   4.837   8.376 -2.1744  2.2822  2.5482
 2880TIP3   OH230198   5.850   6.262   8.044  0.8226  0.0765  0.4832
 2880TIP3    H130199   5.929   6.254   7.991 -0.6956 -0.2014 -1.8693
 2880TIP3    H230200   5.802   6.335   8.006 -0.6916 -0.6223  0.9541
 2881TIP3   OH230201   5.456   0.607   2.069  0.3177 -0.6664 -0.0399
 2881TIP3    H130202   5.394   0.597   1.998 -1.5381 -1.1061  1.5584
 2881TIP3    H230203   5.435   0.693   2.107 -1.5847 -2.0724  2.4495
 2882TIP3   OH230204   2.022   3.637   7.114  0.4629  0.1437 -0.0784
 2882TIP3    H130205   2.079   3.570   7.077 -0.0282 -0.9457  1.0746
 2882TIP3    H230206   1.963   3.589   7.172 -1.4054  1.2917 -0.9566
 2883TIP3   OH230207   1.764   5.101   8.373 -0.1300  0.1387 -0.0928
 2883TIP3    H130208   1.697   5.163   8.400 -0.6065 -1.2919  2.2147
 2883TIP3    H230209   1.844   5.130   8.418 -0.3193 -0.7694  0.8739
 2884TIP3   OH230210   1.453   1.774   6.902 -0.1276 -0.0511 -0.4117
 2884TIP3    H130211   1.358   1.773   6.888 -0.1284  1.2737 -0.6249
 2884TIP3    H230212   1.470   1.859   6.943  1.0297 -0.0512 -0.8691
 2885TIP3   OH230213   5.668   1.499   8.480  0.1257  0.8198  0.7493
 2885TIP3    H130214   5.597   1.557   8.452 -0.9839 -1.2033 -0.9834
 2885TIP3    H230215   5.680   1.440   8.405  0.6645 -1.6000  2.6378
 2886TIP3   OH230216   1.709   2.562   7.615  0.7368  0.2095  0.7823
 2886TIP3    H130217   1.760   2.521   7.685 -0.2835 -1.6354  0.5184
 2886TIP3    H230218   1.703   2.495   7.547 -1.1609  0.7276  0.3777
 2887TIP3   OH230219   6.275   0.010   0.004  0.0681 -0.0093 -0.3336
 2887TIP3    H130220   6.311   0.063   0.075 -0.9798  1.4397 -0.8273
 2887TIP3    H230221   6.230  -0.062   0.048  0.3446  0.2710  0.4257
 2888TIP3   OH230222   3.270   4.150   2.268 -0.0234  0.1136 -0.4176
 2888TIP3    H130223   3.238   4.127   2.181  0.4776 -0.9829 -0.3225
 2888TIP3    H230224   3.344   4.091   2.283  0.8081  1.2588  0.1689
 2889TIP3   OH230225   2.215   2.416   9.308 -0.3768 -0.6184 -0.0223
 2889TIP3    H130226   2.223   2.344   9.371 -0.5526  0.4900  1.3425
 2889TIP3    H230227   2.150   2.387   9.245 -0.5476 -1.6035  0.5880
 2890TIP3   OH230228   4.333   6.320   7.548  0.1586  0.3818  0.3204
 2890TIP3    H130229   4.315   6.290   7.637  1.4370 -2.2948 -0.2298
 2890TIP3    H230230   4.281   6.262   7.492  0.2417  1.2950 -0.7365
 2891TIP3   OH230231   2.854   1.679   7.515 -0.1311 -0.0753 -0.0035
 2891TIP3    H130232   2.802   1.601   7.499 -0.5619  0.3539 -0.7642
 2891TIP3    H230233   2.919   1.680   7.445  0.8930 -0.5832  0.9132
 2892TIP3   OH230234   3.417   6.077   8.084  0.6045  0.4775  0.1373
 2892TIP3    H130235   3.404   6.065   8.178  0.1470 -1.3599 -0.1312
 2892TIP3    H230236   3.329   6.072   8.047  1.0318 -1.9091 -0.6716
 2893TIP3   OH230237   5.305   4.541   1.238  0.5058  0.3778  0.1989
 2893TIP3    H130238   5.361   4.618   1.226  0.6334  0.0822 -1.3581
 2893TIP3    H230239   5.235   4.571   1.296  0.3613  1.7869 -0.6437
 2894TIP3   OH230240   3.301   1.014   0.256 -0.4067 -0.3089 -0.3335
 2894TIP3    H130241   3.362   0.984   0.189  0.0645  1.5619 -0.7861
 2894TIP3    H230242   3.313   1.109   0.260 -3.4149  0.1898 -0.5755
 2895TIP3   OH230243   5.935   1.378   8.608 -0.5323  0.1134  0.0575
 2895TIP3    H130244   5.868   1.444   8.626  0.0071  0.7610 -0.2483
 2895TIP3    H230245   5.945   1.330   8.690 -0.4084  0.8966  0.5084
 2896TIP3   OH230246   2.188   1.038   8.586 -0.3040 -0.0363 -1.0420
 2896TIP3    H130247   2.165   1.069   8.674 -0.0944  0.4114 -1.1424
 2896TIP3    H230248   2.152   0.949   8.582 -0.9017  0.1856 -0.7419
 2897TIP3   OH230249   3.279   5.917   7.746 -0.1110 -0.0790 -0.6664
 2897TIP3    H130250   3.247   5.853   7.682 -0.7605  0.8447 -1.3011
 2897TIP3    H230251   3.374   5.916   7.734 -0.1228 -0.8038 -0.7752
 2898TIP3   OH230252   6.452   1.473   0.457  0.1079  0.4609  0.3144
 2898TIP3    H130253   6.459   1.490   0.363 -2.7128  2.3811  0.3507
 2898TIP3    H230254   6.444   1.378   0.463  2.3419  0.1170 -1.1647
 2899TIP3   OH230255   0.314   1.913   0.345 -0.0327  0.0526  0.3336
 2899TIP3    H130256   0.305   1.938   0.253 -2.0316 -0.9252  0.2018
 2899TIP3    H230257   0.394   1.861   0.348  0.2115  0.3308 -0.7832
 2900TIP3   OH230258   6.217   4.118   9.271 -0.4060 -0.3362 -0.1245
 2900TIP3    H130259   6.164   4.143   9.347  2.6713  3.1217  1.1912
 2900TIP3    H230260   6.288   4.065   9.307 -0.4733 -1.1438 -1.1235
 2901TIP3   OH230261   2.244   3.250   2.163  0.4240 -0.6134  0.6878
 2901TIP3    H130262   2.174   3.312   2.142 -0.0549 -1.4481 -0.2151
 2901TIP3    H230263   2.200   3.177   2.205  0.8483 -0.8301  0.7609
 2902TIP3   OH230264   2.451   5.088   2.173 -0.0396  0.0165 -0.0448
 2902TIP3    H130265   2.358   5.108   2.165  0.3265  1.9913  0.0464
 2902TIP3    H230266   2.454   5.011   2.230 -1.5921  0.2493  0.4071
 2903TIP3   OH230267   2.105   4.566   7.143  0.1847 -0.2115 -0.4915
 2903TIP3    H130268   2.142   4.477   7.147  0.9005  0.0765 -0.5840
 2903TIP3    H230269   2.070   4.574   7.055 -1.1763 -0.8986 -0.0442
 2904TIP3   OH230270   1.469   2.031   1.252  0.2563  0.4082  0.4231
 2904TIP3    H130271   1.555   2.007   1.218  0.1299 -0.6072  0.7846
 2904TIP3    H230272   1.427   2.077   1.179 -0.1426 -2.0103 -0.9918
 2905TIP3   OH230273   3.584   2.946   7.169 -0.4321 -0.0271 -0.1850
 2905TIP3    H130274   3.559   2.870   7.117 -1.8088  0.2981 -0.0226
 2905TIP3    H230275   3.531   3.018   7.135  1.4903  1.0976 -0.9443
 2906TIP3   OH230276   3.874   3.075   7.746  0.3960  0.3795  0.1157
 2906TIP3    H130277   3.857   3.137   7.817  2.0662 -1.0353  1.8535
 2906TIP3    H230278   3.827   2.996   7.771  0.9298 -0.1112 -0.3926
 2907TIP3   OH230279   5.596   2.002   0.414 -0.4895 -0.2262 -0.1610
 2907TIP3    H130280   5.535   1.968   0.480 -0.8423 -2.3881 -1.5043
 2907TIP3    H230281   5.567   2.091   0.398 -2.2865 -0.6692  0.4160
 2908TIP3   OH230282   2.964   1.048   8.683  0.2238  0.2606 -0.4185
 2908TIP3    H130283   2.881   1.091   8.659 -0.6262 -1.5350 -0.8946
 2908TIP3    H230284   3.018   1.056   8.605 -0.4507 -0.6863 -1.0093
 2909TIP3   OH230285   5.576   5.247   7.989  0.1887  0.3344  0.2252
 2909TIP3    H130286   5.539   5.308   8.053  1.0265  1.1438 -0.0337
 2909TIP3    H230287   5.611   5.304   7.920  0.2017 -0.4857 -0.4561
 2910TIP3   OH230288   0.529   1.571   1.384  0.2086  0.5424  0.3814
 2910TIP3    H130289   0.462   1.604   1.444 -0.3336 -0.0134  0.0911
 2910TIP3    H230290   0.571   1.650   1.349 -0.0306  0.8837  0.8621
 2911TIP3   OH230291   3.472   2.032   8.141  0.3319  0.0369  0.2395
 2911TIP3    H130292   3.387   2.038   8.185 -0.4128 -1.3494 -0.9195
 2911TIP3    H230293   3.509   1.950   8.174  1.0963  0.4855  0.5085
 2912TIP3   OH230294   0.851   2.603   8.231  0.1296 -0.1452  0.6842
 2912TIP3    H130295   0.856   2.613   8.326  1.0949  0.3586  0.5995
 2912TIP3    H230296   0.934   2.561   8.208 -0.2861 -0.6582  0.1066
 2913TIP3   OH230297   6.627   0.594   7.679 -0.3213 -0.0495  0.3099
 2913TIP3    H130298   6.696   0.557   7.734  0.4546  1.4077  0.3770
 2913TIP3    H230299   6.653   0.685   7.667 -1.6087  0.2103 -0.6967
 2914TIP3   OH230300   0.199   5.593   8.015 -0.7097 -0.2792  0.1990
 2914TIP3    H130301   0.195   5.524   7.949  0.7392  0.6195 -0.8944
 2914TIP3    H230302   0.111   5.594   8.054 -0.9890 -2.1858 -0.3039
 2915TIP3   OH230303   2.056   4.046   9.058  0.6070  0.2980  0.1548
 2915TIP3    H130304   2.019   4.039   8.970 -0.8302  0.4436  0.7287
 2915TIP3    H230305   1.995   3.998   9.114  1.2683  0.5883  1.1499
 2916TIP3   OH230306   1.727   5.826   8.078  0.1122 -0.0424 -0.3307
 2916TIP3    H130307   1.716   5.909   8.125 -0.3197  1.0242 -2.1963
 2916TIP3    H230308   1.701   5.759   8.141 -2.2098  1.4192  0.4067
 2917TIP3   OH230309   6.557   5.782   7.166 -0.4041 -0.7232  0.3189
 2917TIP3    H130310   6.570   5.833   7.085 -0.4350  0.9663  1.3302
 2917TIP3    H230311   6.462   5.772   7.173 -0.3660 -1.6360 -0.2798
 2918TIP3   OH230312   5.935   5.273   7.830 -0.4952  0.0716  0.4290
 2918TIP3    H130313   5.975   5.359   7.836  4.4171 -1.8805  0.1337
 2918TIP3    H230314   5.929   5.242   7.920  0.3540 -0.2406  0.3908
 2919TIP3   OH230315   4.573   5.021   1.337  0.4104  0.0267  0.2766
 2919TIP3    H130316   4.655   5.057   1.303  1.6862  0.5703  3.5670
 2919TIP3    H230317   4.579   4.927   1.320  1.2199  0.1956 -0.4325
 2920TIP3   OH230318   4.914   5.613   7.466 -0.3224  0.1634  0.6839
 2920TIP3    H130319   4.919   5.547   7.398  0.4390 -0.2063  1.0934
 2920TIP3    H230320   4.878   5.567   7.542 -0.3340  0.3597  0.7993
 2921TIP3   OH230321   1.207   5.267   1.331  0.5820  0.0238 -0.0594
 2921TIP3    H130322   1.187   5.332   1.398  3.5967 -0.8239  1.8690
 2921TIP3    H230323   1.188   5.182   1.372 -0.8710 -0.4754 -1.6230
 2922TIP3   OH230324   6.495   2.218   2.476 -0.4070 -0.5582  0.0604
 2922TIP3    H130325   6.539   2.303   2.475 -0.6755 -0.3942  1.1480
 2922TIP3    H230326   6.405   2.238   2.452 -0.2218 -0.6968 -0.7703
 2923TIP3   OH230327   0.191   5.068   6.910  0.7861  0.2004  0.0798
 2923TIP3    H130328   0.186   4.979   6.945  3.1447 -0.3536 -0.8041
 2923TIP3    H230329   0.261   5.110   6.959  0.2734  1.3075 -0.0968
 2924TIP3   OH230330   2.339   3.508   7.155 -0.0725  0.0315 -0.2559
 2924TIP3    H130331   2.432   3.506   7.176 -0.0730  0.9296 -0.1000
 2924TIP3    H230332   2.324   3.430   7.102  1.0618  0.5608 -1.4227
 2925TIP3   OH230333   1.680   3.694   0.575  0.3323  0.5574 -0.2204
 2925TIP3    H130334   1.725   3.626   0.626  1.7613  2.0770  0.6342
 2925TIP3    H230335   1.654   3.649   0.494 -1.7337 -1.8547  1.6165
 2926TIP3   OH230336   0.354   1.132   7.292  0.3629 -0.2174 -0.2336
 2926TIP3    H130337   0.326   1.042   7.273  1.4968 -1.4412  3.1384
 2926TIP3    H230338   0.449   1.125   7.305  0.3229  1.1898  1.1574
 2927TIP3   OH230339   0.719   0.428   1.819 -0.5789 -0.1827 -0.0069
 2927TIP3    H130340   0.772   0.487   1.766 -0.9143 -0.0570 -0.2071
 2927TIP3    H230341   0.629   0.452   1.798 -0.7833 -2.2513 -1.8270
 2928TIP3   OH230342   4.515   0.788   6.876  0.1492  0.0359 -0.2579
 2928TIP3    H130343   4.608   0.804   6.858  0.1010 -0.3558 -0.8803
 2928TIP3    H230344   4.476   0.875   6.880  0.4569  0.1868 -0.4780
 2929TIP3   OH230345   0.009   2.508   7.114  0.4289 -0.3676 -0.1037
 2929TIP3    H130346  -0.049   2.553   7.054 -0.2285 -0.4464  0.4617
 2929TIP3    H230347   0.075   2.573   7.138  0.3695 -0.1714 -0.4718
 2930TIP3   OH230348   3.425   5.430   8.475  0.8195  0.2953 -0.5891
 2930TIP3    H130349   3.355   5.389   8.526  1.4897 -0.5084 -0.2927
 2930TIP3    H230350   3.440   5.514   8.518  1.0530 -0.1695  0.2673
 2931TIP3   OH230351   3.103   0.617   7.383  0.2164  0.0505  0.5818
 2931TIP3    H130352   3.071   0.528   7.374 -1.5437  0.8375 -2.0460
 2931TIP3    H230353   3.185   0.618   7.333  0.7484 -0.2991  1.4317
 2932TIP3   OH230354   0.718   6.400   2.003 -0.6290  0.0871 -0.8919
 2932TIP3    H130355   0.718   6.491   2.034 -0.8570 -0.0572 -0.4552
 2932TIP3    H230356   0.626   6.381   1.986 -0.4226  0.4364 -2.4934
 2933TIP3   OH230357   2.393   3.280   0.089  0.4222  0.0379  0.0680
 2933TIP3    H130358   2.472   3.317   0.048 -0.5203  3.1534  0.7796
 2933TIP3    H230359   2.414   3.274   0.182  0.0103  0.4253  0.1915
 2934TIP3   OH230360   0.544   1.815   1.165 -0.3653 -0.6913  0.0980
 2934TIP3    H130361   0.493   1.828   1.085  0.5028  1.0310 -0.2261
 2934TIP3    H230362   0.574   1.903   1.188  3.0351 -1.6516 -0.1599
 2935TIP3   OH230363   2.027   5.812   2.763  1.1172 -0.0489  0.1040
 2935TIP3    H130364   2.047   5.732   2.810  0.8872  0.5514  1.2546
 2935TIP3    H230365   1.968   5.784   2.693  0.7542 -0.8438  0.7101
 2936TIP3   OH230366   6.347   0.699   9.107 -0.2606 -0.5757  0.1718
 2936TIP3    H130367   6.434   0.709   9.147  0.6749 -2.1509 -1.3188
 2936TIP3    H230368   6.303   0.635   9.162 -0.4666  0.1534  0.8768
 2937TIP3   OH230369   1.080   4.792   0.572  0.2643  0.0830 -0.2010
 2937TIP3    H130370   1.020   4.740   0.519  2.3648 -1.3300 -1.2942
 2937TIP3    H230371   1.086   4.744   0.655  1.2317 -0.7408 -0.7436
 2938TIP3   OH230372   0.353   5.951   3.053  0.0521  0.6253  1.1226
 2938TIP3    H130373   0.298   5.882   3.015 -0.6520  1.0887  1.2737
 2938TIP3    H230374   0.409   5.905   3.116  0.3955  0.0322  0.3908
 2939TIP3   OH230375   3.832   1.193   8.416 -0.1525 -0.1838 -0.9025
 2939TIP3    H130376   3.845   1.288   8.423  1.0949 -0.3700 -0.3121
 2939TIP3    H230377   3.757   1.183   8.357 -0.2851  1.1616 -1.0018
 2940TIP3   OH230378   2.430   3.644   8.059  0.1316  0.2645  0.4888
 2940TIP3    H130379   2.336   3.658   8.064 -0.1349 -1.0283 -0.5040
 2940TIP3    H230380   2.463   3.670   8.146 -1.0508  1.1720  0.6888
 2941TIP3   OH230381   5.816   0.269   8.908  0.1213  0.6530 -0.2468
 2941TIP3    H130382   5.895   0.312   8.875  0.4481  0.3241  0.0932
 2941TIP3    H230383   5.846   0.183   8.937 -0.5788  0.0803 -1.1753
 2942TIP3   OH230384   4.144   2.575   6.452  0.1480  0.3525 -0.0372
 2942TIP3    H130385   4.148   2.546   6.543  0.7015  1.1470  0.2029
 2942TIP3    H230386   4.098   2.659   6.455  1.5866  1.1969 -0.2555
 2943TIP3   OH230387   1.774   2.374   8.332 -0.4143 -0.6519  0.0617
 2943TIP3    H130388   1.849   2.316   8.347 -0.4801 -0.5253  0.9567
 2943TIP3    H230389   1.735   2.386   8.419 -0.6122  0.4495 -0.1581
 2944TIP3   OH230390   0.183   3.248   1.275 -0.0878 -0.1794  0.2099
 2944TIP3    H130391   0.208   3.157   1.291  0.6908  0.0452  0.3064
 2944TIP3    H230392   0.230   3.272   1.196 -1.2109 -0.2075 -0.4869
 2945TIP3   OH230393   4.079   5.028   7.659  0.1227 -0.3833  0.0965
 2945TIP3    H130394   4.170   5.036   7.628  0.7120 -0.4567  1.7115
 2945TIP3    H230395   4.077   5.077   7.741 -1.7812  1.1176 -0.7729
 2946TIP3   OH230396   1.526   4.824   7.580  0.0827 -0.5114 -0.6276
 2946TIP3    H130397   1.487   4.907   7.605 -0.0785 -0.5496 -0.7530
 2946TIP3    H230398   1.607   4.848   7.534 -0.1683 -0.4152 -1.0168
 2947TIP3   OH230399   2.545   5.511   8.278  0.0066  0.3203  0.1649
 2947TIP3    H130400   2.516   5.434   8.326  1.4341 -0.6825 -0.5219
 2947TIP3    H230401   2.495   5.509   8.196 -0.6295  0.6667  0.5330
 2948TIP3   OH230402   5.335   0.135   1.213  0.2631  0.0395 -0.3854
 2948TIP3    H130403   5.300   0.136   1.302  0.1022 -0.3254 -0.4415
 2948TIP3    H230404   5.318   0.222   1.179  0.1520  0.1210 -0.1258
 2949TIP3   OH230405   2.565   1.911   9.288  0.1128 -0.6205  0.4229
 2949TIP3    H130406   2.639   1.965   9.315 -0.1873 -0.1844  0.3918
 2949TIP3    H230407   2.490   1.971   9.291 -0.0318 -0.7336 -0.7390
 2950TIP3   OH230408   3.520   6.538   0.313 -0.2131 -0.3344  0.1729
 2950TIP3    H130409   3.429   6.539   0.342 -0.3365  2.4195 -0.0040
 2950TIP3    H230410   3.518   6.577   0.225  1.1853  0.5477  0.4899
 2951TIP3   OH230411   3.290   0.098   0.600 -0.2284 -0.4980 -0.1004
 2951TIP3    H130412   3.324   0.041   0.669 -3.1015  0.6585  2.5165
 2951TIP3    H230413   3.243   0.039   0.541 -1.8504 -1.1155  1.7127
 2952TIP3   OH230414   0.019   4.130   1.938  0.1473  0.1800 -0.0665
 2952TIP3    H130415   0.080   4.076   1.988 -1.1481 -1.7465 -0.4591
 2952TIP3    H230416  -0.055   4.072   1.919 -0.6860  1.6902 -1.7579
 2953TIP3   OH230417   0.756   1.432   0.062 -0.0199  0.2819  0.1578
 2953TIP3    H130418   0.721   1.481   0.137 -1.3018 -1.8629  1.0700
 2953TIP3    H230419   0.733   1.485  -0.014 -1.8037  0.8671  1.0491
 2954TIP3   OH230420   1.432   2.517   9.189 -0.1767  0.0172  0.0077
 2954TIP3    H130421   1.351   2.470   9.171  0.0688  0.5747 -3.1226
 2954TIP3    H230422   1.492   2.449   9.220 -1.6946 -0.4236  2.2132
 2955TIP3   OH230423   5.879   3.999   8.666  0.2697  0.0896 -0.0744
 2955TIP3    H130424   5.813   3.995   8.735  1.0555  2.3698  0.9217
 2955TIP3    H230425   5.854   4.074   8.612  0.1947 -1.0914 -1.7491
 2956TIP3   OH230426   3.743   6.168   7.991  0.1431  0.2867 -0.0675
 2956TIP3    H130427   3.784   6.200   8.071 -0.2010 -0.2827  0.3438
 2956TIP3    H230428   3.657   6.212   7.989  1.2456  2.5762 -1.6490
 2957TIP3   OH230429   5.964   6.075   7.741 -0.0162  0.1749 -0.0867
 2957TIP3    H130430   5.870   6.060   7.728 -0.2236  1.8642 -0.7989
 2957TIP3    H230431   5.996   6.100   7.655  1.0044  0.1251  0.2668
 2958TIP3   OH230432   3.922   0.416   2.785  0.2790 -0.0572  0.6936
 2958TIP3    H130433   3.846   0.384   2.736  0.3554 -1.7212  1.6228
 2958TIP3    H230434   3.994   0.415   2.721  0.1473 -1.2039  0.5481
 2959TIP3   OH230435   0.840   5.291   8.398  0.0942 -0.1079 -0.1680
 2959TIP3    H130436   0.931   5.289   8.367 -0.0604 -0.5010 -0.6050
 2959TIP3    H230437   0.816   5.199   8.406  0.2776 -0.0391  1.5880
 2960TIP3   OH230438   6.411   5.209   8.043 -0.1981  0.1735  0.0933
 2960TIP3    H130439   6.376   5.293   8.012 -0.9421 -0.4821 -0.9019
 2960TIP3    H230440   6.336   5.166   8.085 -0.2520 -0.6504 -0.8155
 2961TIP3   OH230441   5.646   1.532   0.634  0.0639 -0.4855  0.2486
 2961TIP3    H130442   5.631   1.488   0.551  0.2862 -0.0454 -0.0294
 2961TIP3    H230443   5.683   1.617   0.610 -0.2600 -0.1852  0.7747
 2962TIP3   OH230444   2.679   5.349   2.830  0.1571  0.9625  0.7106
 2962TIP3    H130445   2.638   5.267   2.857 -1.4324  2.1120  2.0193
 2962TIP3    H230446   2.767   5.345   2.868  1.0950 -1.1827 -1.4262
 2963TIP3   OH230447   6.327   1.976   8.920  0.1976  0.7027 -0.5456
 2963TIP3    H130448   6.254   1.953   8.977 -0.1206  1.6051 -0.5660
 2963TIP3    H230449   6.321   1.915   8.847  0.9119 -0.8084  0.6070
 2964TIP3   OH230450   0.876   5.498   0.760  0.0786  0.0259 -0.2340
 2964TIP3    H130451   0.797   5.523   0.712  0.2170 -0.0435 -0.5030
 2964TIP3    H230452   0.948   5.530   0.705  0.2364  1.4582  0.7548
 2965TIP3   OH230453   5.502   1.232   0.802  1.5596 -0.2150  0.0416
 2965TIP3    H130454   5.479   1.313   0.847  2.1101 -0.0671  0.0715
 2965TIP3    H230455   5.458   1.237   0.718 -0.3308 -0.9621  0.9371
 2966TIP3   OH230456   2.070   1.792   0.981  0.1085 -0.1635  0.1538
 2966TIP3    H130457   2.065   1.888   0.983  2.0290 -0.0058 -0.3538
 2966TIP3    H230458   2.102   1.772   0.893  4.0093 -0.9345  1.5632
 2967TIP3   OH230459   5.534   5.193   0.214 -0.4289  0.3614  0.0057
 2967TIP3    H130460   5.510   5.210   0.123 -1.4413  0.0167  0.1904
 2967TIP3    H230461   5.472   5.246   0.265  1.0203  1.6428  0.4945
 2968TIP3   OH230462   1.393   2.986   2.440  0.7138 -0.4655  0.4797
 2968TIP3    H130463   1.381   2.892   2.422  1.9008 -0.5165 -0.1624
 2968TIP3    H230464   1.436   3.020   2.362  1.2828  0.4017  1.1487
 2969TIP3   OH230465   0.291   2.755   1.582  0.2821 -1.0251 -0.1879
 2969TIP3    H130466   0.342   2.692   1.633 -0.8762 -0.7588  1.3593
 2969TIP3    H230467   0.201   2.744   1.614 -0.0702  0.8721 -0.4455
 2970TIP3   OH230468   3.969   6.030   1.239 -0.2826  0.1575  0.8506
 2970TIP3    H130469   3.918   6.098   1.285 -0.7247  1.0545 -0.8907
 2970TIP3    H230470   4.051   6.074   1.216 -0.0660 -0.2871  0.7691
 2971TIP3   OH230471   5.261   4.825   7.826 -0.5045  0.3035  0.3078
 2971TIP3    H130472   5.179   4.873   7.815 -1.8506 -0.8603  3.9257
 2971TIP3    H230473   5.251   4.749   7.768 -1.3824  0.8143 -0.2513
 2972TIP3   OH230474   2.265   5.277   7.410  0.0422  0.0696 -0.0465
 2972TIP3    H130475   2.290   5.277   7.503  2.0625 -2.3635 -0.4703
 2972TIP3    H230476   2.251   5.184   7.389  1.7327  0.2842 -2.6290
 2973TIP3   OH230477   0.887   0.016   8.010 -0.0182  0.2057 -0.9470
 2973TIP3    H130478   0.818   0.051   7.953  0.6821  0.8550 -1.4187
 2973TIP3    H230479   0.847  -0.060   8.052 -1.4410  1.2913 -0.2405
 2974TIP3   OH230480   6.620   0.241   1.375 -0.0421 -0.5809  0.6009
 2974TIP3    H130481   6.706   0.217   1.339 -1.5833 -2.0703 -2.4945
 2974TIP3    H230482   6.585   0.159   1.409 -1.2710 -0.6176 -0.6758
 2975TIP3   OH230483   4.706   3.795   1.472  0.5282 -1.0094  0.2139
 2975TIP3    H130484   4.695   3.708   1.434 -0.9145 -0.0496 -1.7410
 2975TIP3    H230485   4.710   3.854   1.396  2.4696  0.5636  1.4462
 2976TIP3   OH230486   2.796   0.505   8.706 -0.3824  0.8152  0.4825
 2976TIP3    H130487   2.725   0.443   8.690 -0.6740  1.3779 -0.4809
 2976TIP3    H230488   2.788   0.527   8.799 -1.7896  1.2499  0.2837
 2977TIP3   OH230489   3.934   0.206   0.611  0.4700  0.5736 -0.1668
 2977TIP3    H130490   3.889   0.146   0.671 -0.5014 -0.6057 -2.0149
 2977TIP3    H230491   4.024   0.207   0.642 -0.1524  0.6422  1.7906
 2978TIP3   OH230492   3.109   0.913   7.451  0.5931 -0.1661  0.0009
 2978TIP3    H130493   3.092   0.934   7.542  0.7372  0.2190 -0.0629
 2978TIP3    H230494   3.201   0.886   7.449  0.3009 -1.2592  0.1623
 2979TIP3   OH230495   5.100   1.933   9.096  0.0331 -0.0940  0.2195
 2979TIP3    H130496   5.195   1.921   9.094 -0.1742 -2.2193 -2.3360
 2979TIP3    H230497   5.066   1.862   9.042 -3.1402 -0.1820  2.0886
 2980TIP3   OH230498   3.926   2.460   7.443  0.4044 -0.1580 -0.3710
 2980TIP3    H130499   3.949   2.433   7.354  0.4317  0.3002 -0.5059
 2980TIP3    H230500   3.931   2.556   7.441  3.0278 -0.1838  0.8004
 2981TIP3   OH230501   3.967   0.466   7.264  0.0511 -0.5923 -0.2552
 2981TIP3    H130502   3.896   0.402   7.258 -0.3705 -0.6941  3.3385
 2981TIP3    H230503   4.030   0.426   7.325  0.8398  1.4652  0.3763
 2982TIP3   OH230504   3.860   1.884   0.421  0.5217 -0.1364 -0.5713
 2982TIP3    H130505   3.914   1.862   0.497 -0.5014 -0.2373  0.1545
 2982TIP3    H230506   3.771   1.890   0.456  0.2282  1.2713 -1.5015
 2983TIP3   OH230507   6.401   3.645   1.442 -0.0581 -0.2476  0.3609
 2983TIP3    H130508   6.375   3.580   1.377 -3.1422 -0.7067  1.8714
 2983TIP3    H230509   6.432   3.594   1.516  0.4454  0.1346  0.4161
 2984TIP3   OH230510   2.758   5.026   8.239 -0.5634 -0.4098 -0.5870
 2984TIP3    H130511   2.801   5.025   8.325 -0.8835  0.4232 -0.4057
 2984TIP3    H230512   2.816   4.976   8.183  0.2712  0.0579 -0.1647
 2985TIP3   OH230513   3.174   3.594   0.672 -0.1791 -0.9379 -0.4405
 2985TIP3    H130514   3.150   3.527   0.736 -1.9827 -0.5529 -0.6693
 2985TIP3    H230515   3.267   3.577   0.654 -0.0483 -2.0551  1.0526
 2986TIP3   OH230516   4.073   1.703   7.723 -0.2099  0.0958 -0.4521
 2986TIP3    H130517   4.151   1.751   7.697  2.5484 -2.3864  2.3631
 2986TIP3    H230518   4.027   1.762   7.784  2.0660  0.0440  1.4645
 2987TIP3   OH230519   4.940   4.674   7.736  0.3016  0.4544 -0.4918
 2987TIP3    H130520   5.020   4.622   7.742  1.0437  1.2110 -2.7720
 2987TIP3    H230521   4.966   4.762   7.764  0.2260  0.6643 -1.0783
 2988TIP3   OH230522   6.158   0.790   7.091 -0.3079 -0.0922 -0.2369
 2988TIP3    H130523   6.123   0.873   7.058  0.3718  0.6453  0.8170
 2988TIP3    H230524   6.087   0.727   7.079 -1.2163  0.8773 -0.1129
 2989TIP3   OH230525   5.265   3.938   8.633  0.3831  0.7744  0.5679
 2989TIP3    H130526   5.229   3.937   8.722 -0.2766 -2.3860  0.3974
 2989TIP3    H230527   5.195   3.975   8.579 -1.1908 -1.5601  0.8258
 2990TIP3   OH230528   4.182   1.190   8.269  0.0667 -0.7829  0.8176
 2990TIP3    H130529   4.125   1.113   8.264  1.8757 -2.1621  0.7188
 2990TIP3    H230530   4.156   1.234   8.351 -1.9343 -0.6725  0.1761
 2991TIP3   OH230531   2.446   1.191   7.650  0.0286  0.3092  0.1760
 2991TIP3    H130532   2.487   1.112   7.684 -0.5026  0.5325  1.3984
 2991TIP3    H230533   2.452   1.183   7.555 -0.1400 -1.2566  0.2842
 2992TIP3   OH230534   2.302   1.966   9.195 -0.1820 -0.0815  0.2332
 2992TIP3    H130535   2.283   2.027   9.124 -0.6135 -0.3367  0.1222
 2992TIP3    H230536   2.217   1.927   9.216  0.1416 -0.9240  0.0377
 2993TIP3   OH230537   0.434   3.045   0.123  0.3564 -0.0575 -0.2861
 2993TIP3    H130538   0.394   3.103   0.059 -1.3251 -1.2394 -0.4016
 2993TIP3    H230539   0.527   3.045   0.103  0.2172  1.6228 -1.0311
 2994TIP3   OH230540   3.154   3.495   1.506 -0.3582 -0.0833 -0.3459
 2994TIP3    H130541   3.070   3.541   1.494  0.4629  1.5266 -0.2472
 2994TIP3    H230542   3.201   3.548   1.571  1.0274 -0.5257 -0.9539
 2995TIP3   OH230543   5.304   0.163   7.349 -0.5072 -0.2542 -0.3252
 2995TIP3    H130544   5.280   0.151   7.441  0.9964 -0.5416  0.0695
 2995TIP3    H230545   5.322   0.074   7.318  1.8638  0.0441 -0.0069
 2996TIP3   OH230546   1.016   5.252   0.217  0.4745  0.1321 -0.2691
 2996TIP3    H130547   1.055   5.309   0.283 -0.1903 -0.3308  0.5382
 2996TIP3    H230548   1.056   5.167   0.232 -0.5860 -0.2719  0.3646
 2997TIP3   OH230549   5.854   1.657   8.641 -0.5453 -0.5928  0.0250
 2997TIP3    H130550   5.784   1.653   8.575 -0.8093 -1.5728  0.3622
 2997TIP3    H230551   5.816   1.708   8.713 -0.1714  0.7019 -0.6495
 2998TIP3   OH230552   2.088   1.749   1.396 -0.3249 -0.4749  0.3435
 2998TIP3    H130553   2.018   1.704   1.347 -1.5029  0.4110  1.1603
 2998TIP3    H230554   2.056   1.839   1.405  1.7037  0.4067 -0.7102
 2999TIP3   OH230555   2.078   4.678   2.000  0.0842 -0.3897 -0.4971
 2999TIP3    H130556   2.098   4.734   2.076  3.3196 -0.3155 -1.2232
 2999TIP3    H230557   2.100   4.589   2.030  1.6672 -0.3240 -1.3397
 3000TIP3   OH230558   3.885   3.160   0.681 -0.1907 -0.6783 -0.2782
 3000TIP3    H130559   3.844   3.093   0.736 -1.5538  1.4078  1.3888
 3000TIP3    H230560   3.837   3.156   0.598 -1.4905 -0.5651  0.4551
 3001TIP3   OH230561   2.523   4.589   1.253  0.1684  0.0476 -0.1067
 3001TIP3    H130562   2.575   4.573   1.174 -1.0298  0.1522 -0.9458
 3001TIP3    H230563   2.432   4.579   1.224 -0.2781 -1.7123  1.6662
 3002TIP3   OH230564   0.752   5.069   7.726 -0.2394 -0.0173  0.5070
 3002TIP3    H130565   0.847   5.068   7.738 -0.0071 -0.3458 -1.1940
 3002TIP3    H230566   0.720   5.122   7.799  1.3436  1.0221  0.4956
 3003TIP3   OH230567   2.633   3.866   0.236  0.4305 -1.1175 -0.0399
 3003TIP3    H130568   2.619   3.913   0.154  1.9199  0.1728  0.4112
 3003TIP3    H230569   2.547   3.830   0.258 -0.1227 -0.9568 -1.8291
 3004TIP3   OH230570   0.784   5.797   8.759  0.2618 -0.3215  0.2889
 3004TIP3    H130571   0.871   5.784   8.721  0.5415 -0.6571  1.0228
 3004TIP3    H230572   0.724   5.764   8.693  0.4450  2.9242 -1.7157
 3005TIP3   OH230573   4.529   2.541   7.353 -0.5140  0.5475  0.1673
 3005TIP3    H130574   4.433   2.549   7.355 -0.3882  3.0641 -0.1514
 3005TIP3    H230575   4.557   2.615   7.299  1.6752  0.3415  0.9520
 3006TIP3   OH230576   2.340   5.491   7.794 -0.4405  0.4486  0.0440
 3006TIP3    H130577   2.287   5.420   7.758  0.5680 -0.3967  0.1728
 3006TIP3    H230578   2.393   5.522   7.721 -1.5956  1.8041 -0.2755
 3007TIP3   OH230579   0.264   2.597   8.814  0.1383 -0.0480 -0.0333
 3007TIP3    H130580   0.242   2.686   8.841 -0.0832  0.0990 -0.6692
 3007TIP3    H230581   0.323   2.565   8.882  1.9995  1.3642 -0.8977
 3008TIP3   OH230582   4.897   5.327   7.797 -0.0537 -0.4022  0.3310
 3008TIP3    H130583   4.854   5.372   7.723 -0.8830  0.2372  1.1685
 3008TIP3    H230584   4.990   5.339   7.781 -0.1744 -1.0401 -1.0710
 3009TIP3   OH230585   2.692   5.842   7.711 -0.1489  0.0357 -0.2445
 3009TIP3    H130586   2.718   5.809   7.797 -1.6424  1.0726  0.6556
 3009TIP3    H230587   2.600   5.866   7.722 -0.5530 -0.4249 -2.3446
 3010TIP3   OH230588   3.204   2.477   0.584  0.0199  0.1624  0.9323
 3010TIP3    H130589   3.209   2.466   0.678  0.2281  0.9562  1.0213
 3010TIP3    H230590   3.281   2.431   0.550  0.1154  0.1432  1.1736
 3011TIP3   OH230591   2.631   5.170   7.886 -0.2515  0.3471 -0.1587
 3011TIP3    H130592   2.717   5.129   7.877  0.5164  2.0781 -1.4178
 3011TIP3    H230593   2.603   5.147   7.975  1.1059 -0.9768 -0.0208
 3012TIP3   OH230594   5.409   3.036   7.351  0.5936  0.1620 -0.5913
 3012TIP3    H130595   5.471   3.109   7.349  0.3355  0.4702  0.9201
 3012TIP3    H230596   5.350   3.058   7.423  0.0828 -1.2100 -0.5696
 3013TIP3   OH230597   6.444   3.429   1.599 -0.4047 -0.1435  0.0154
 3013TIP3    H130598   6.526   3.385   1.578 -0.5361 -0.6435  0.5058
 3013TIP3    H230599   6.376   3.378   1.554 -0.5497 -0.4134  0.5221
 3014TIP3   OH230600   1.461   4.735   8.223  0.4573  0.0017 -0.2261
 3014TIP3    H130601   1.380   4.685   8.232 -0.0142  0.1899 -2.5660
 3014TIP3    H230602   1.491   4.714   8.134  2.7545  0.2745  0.4432
 3015TIP3   OH230603   3.402   3.814   7.896  0.6770  0.2745 -0.2288
 3015TIP3    H130604   3.331   3.862   7.937  1.2000  0.3969  0.5573
 3015TIP3    H230605   3.360   3.759   7.830 -0.5692 -2.0153  2.3063
 3016TIP3   OH230606   4.112   3.597   0.524 -0.0817  0.8785  0.6864
 3016TIP3    H130607   4.074   3.669   0.574  0.1975  1.9891 -0.6419
 3016TIP3    H230608   4.090   3.616   0.433  2.5661  0.9255 -0.0290
 3017TIP3   OH230609   5.808   5.307   7.059  0.3553 -0.7110  0.1358
 3017TIP3    H130610   5.729   5.291   7.008  0.3750  0.9816 -0.4774
 3017TIP3    H230611   5.879   5.303   6.994  0.4807  0.4703  0.1853
 3018TIP3   OH230612   0.993   1.510   1.383  0.0684 -0.6601 -0.4034
 3018TIP3    H130613   1.055   1.557   1.438 -0.2809 -0.0548 -0.5253
 3018TIP3    H230614   0.959   1.575   1.322 -1.2981 -0.7793  0.1789
 3019TIP3   OH230615   0.602   2.246   1.442 -0.0395 -0.4046  0.6547
 3019TIP3    H130616   0.675   2.268   1.500 -0.7105 -1.1072  1.7808
 3019TIP3    H230617   0.524   2.270   1.491 -0.5888  0.5865 -0.6464
 3020TIP3   OH230618   6.044   6.188   8.751 -0.7783  0.2794  0.3555
 3020TIP3    H130619   6.124   6.225   8.788  0.1557 -0.7691 -0.5746
 3020TIP3    H230620   6.020   6.247   8.680 -0.2708  0.0480 -0.0065
 3021TIP3   OH230621   5.659   3.321   0.669 -0.1833 -0.1405  0.2231
 3021TIP3    H130622   5.629   3.374   0.595  3.8755  0.8966 -0.9180
 3021TIP3    H230623   5.640   3.230   0.643 -1.2689  0.3449 -0.7897
 3022TIP3   OH230624   0.616   3.856   0.562  0.0500 -0.3636 -0.2586
 3022TIP3    H130625   0.571   3.824   0.641 -0.5869 -1.4909 -1.0439
 3022TIP3    H230626   0.706   3.870   0.590 -0.2165 -0.5087  0.7339
 3023TIP3   OH230627   1.876   4.966   8.800 -0.0767 -0.2696  0.2660
 3023TIP3    H130628   1.912   5.054   8.801 -0.3424 -0.1377 -0.6599
 3023TIP3    H230629   1.802   4.971   8.739  0.6753 -1.4177 -0.7939
 3024TIP3   OH230630   6.394   4.047   8.704  0.3450 -0.3415  0.3681
 3024TIP3    H130631   6.300   4.031   8.711  0.1127  0.7907  0.0570
 3024TIP3    H230632   6.421   4.070   8.793 -0.1043  1.3812  0.1024
 3025TIP3   OH230633   3.019   2.441   0.131 -0.2529 -0.0987 -0.1698
 3025TIP3    H130634   3.044   2.372   0.070 -1.3026 -0.4666 -0.1962
 3025TIP3    H230635   3.071   2.517   0.104 -0.1822 -0.4569 -1.0670
 3026TIP3   OH230636   0.195   6.416   0.441 -0.2671 -0.5233  0.0003
 3026TIP3    H130637   0.199   6.480   0.513  0.9343  0.2653 -0.7389
 3026TIP3    H230638   0.278   6.369   0.447  0.0367 -0.1524 -1.1181
 3027TIP3   OH230639   5.065   0.632   7.103 -0.4837 -0.4429  0.7150
 3027TIP3    H130640   5.042   0.629   7.010 -2.3417  0.2037  1.1145
 3027TIP3    H230641   5.077   0.541   7.128 -1.4134 -0.7323  0.1600
 3028TIP3   OH230642   2.100   4.756   2.542  0.1351  0.4089 -0.8252
 3028TIP3    H130643   2.058   4.747   2.628 -1.2370  1.1403 -1.3860
 3028TIP3    H230644   2.158   4.680   2.536  0.7702  0.6841  1.0108
 3029TIP3   OH230645   4.829   5.196   8.670 -0.1243 -0.0610 -0.3731
 3029TIP3    H130646   4.916   5.178   8.705 -0.4838 -1.7948 -0.2992
 3029TIP3    H230647   4.809   5.120   8.614 -2.2748 -0.5667  0.9746
 3030TIP3   OH230648   1.348   0.569   8.925 -0.3901 -1.0142  0.4467
 3030TIP3    H130649   1.339   0.477   8.904  1.2067 -1.2105  0.5383
 3030TIP3    H230650   1.325   0.575   9.018  2.3982 -1.8703  1.2784
 3031TIP3   OH230651   2.543   6.139   6.923 -0.0455 -0.5344 -0.4969
 3031TIP3    H130652   2.468   6.179   6.879  0.9009 -0.1490 -1.8368
 3031TIP3    H230653   2.506   6.095   6.999 -1.7640 -1.1268 -1.6033
 3032TIP3   OH230654   2.522   3.917   6.913 -0.3969  0.4443  0.3253
 3032TIP3    H130655   2.431   3.946   6.917 -0.7604 -0.4441 -0.9942
 3032TIP3    H230656   2.546   3.926   6.821  0.8811  0.7197  0.6632
 3033TIP3   OH230657   6.293   6.421   1.939 -0.1006  0.0087  0.4851
 3033TIP3    H130658   6.277   6.492   1.877 -0.4099 -0.5795 -0.1182
 3033TIP3    H230659   6.352   6.459   2.005  1.4651  0.2075 -0.9739
 3034TIP3   OH230660   5.092   1.012   8.420  0.2098  0.0846 -0.0197
 3034TIP3    H130661   5.091   1.090   8.476 -0.2695 -1.0594  1.6077
 3034TIP3    H230662   5.001   1.001   8.393  0.1353 -0.3980  0.4349
 3035TIP3   OH230663   2.528   3.001   7.611 -0.7803  0.1217  0.4234
 3035TIP3    H130664   2.540   2.981   7.519  0.9981  0.0142  0.6365
 3035TIP3    H230665   2.509   3.094   7.614 -0.6476  0.1642 -0.0507
 3036TIP3   OH230666   0.079   0.519   9.011  0.3651 -0.1021  0.0309
 3036TIP3    H130667   0.093   0.542   9.103  1.7515  0.2517 -0.2467
 3036TIP3    H230668   0.020   0.444   9.014 -0.5110  0.6012  1.1520
 3037TIP3   OH230669   2.005   1.862   1.971 -0.0916 -0.1967 -0.6666
 3037TIP3    H130670   2.003   1.794   2.038 -0.3936 -1.1921 -1.6542
 3037TIP3    H230671   2.084   1.913   1.990 -1.3572  1.0342  1.8281
 3038TIP3   OH230672   1.530   3.385   7.329 -0.2899  0.1729  0.6139
 3038TIP3    H130673   1.533   3.348   7.417 -0.6347  0.0629  0.5820
 3038TIP3    H230674   1.462   3.334   7.285  0.6524 -0.5307 -0.0651
 3039TIP3   OH230675   3.167   1.987   8.926 -0.2231 -0.0567  0.2076
 3039TIP3    H130676   3.135   2.077   8.930  0.9140  0.3222  2.3773
 3039TIP3    H230677   3.090   1.934   8.945 -1.0656  0.3659 -1.8067
 3040TIP3   OH230678   2.253   0.358   8.843 -0.3709 -0.0756  0.1500
 3040TIP3    H130679   2.208   0.416   8.905  1.4206  2.4897 -0.7524
 3040TIP3    H230680   2.343   0.354   8.875  0.3729  0.5737 -1.7238
 3041TIP3   OH230681   4.083   4.836   8.564 -0.0858 -0.1859  0.6905
 3041TIP3    H130682   4.123   4.841   8.477  0.4041  1.9179  0.9755
 3041TIP3    H230683   3.989   4.845   8.547 -0.1340 -1.3073  0.2918
 3042TIP3   OH230684   0.299   0.445   0.317 -0.1445 -0.2789  0.2173
 3042TIP3    H130685   0.298   0.509   0.245  0.9233  0.0153  0.4352
 3042TIP3    H230686   0.358   0.376   0.286  1.4422  0.5019  1.3003
 3043TIP3   OH230687   1.309   1.820   0.316  0.0939  0.7255 -0.5993
 3043TIP3    H130688   1.225   1.774   0.309 -0.3030  0.9962  1.5996
 3043TIP3    H230689   1.288   1.912   0.301  0.4267  0.5606 -2.2859
 3044TIP3   OH230690   1.727   2.006   2.103  0.0092 -0.0013 -0.0131
 3044TIP3    H130691   1.801   2.066   2.096 -0.3539  0.7430  1.8742
 3044TIP3    H230692   1.753   1.944   2.171 -0.3146 -0.9688 -0.7482
 3045TIP3   OH230693   1.984   3.038   1.828 -0.2615  0.1763  0.2660
 3045TIP3    H130694   1.951   3.127   1.840 -0.8792  0.3783 -2.2480
 3045TIP3    H230695   1.907   2.982   1.839 -0.2490  0.1246  0.0988
 3046TIP3   OH230696   5.416   2.216   1.178 -0.1858  0.1453 -0.0533
 3046TIP3    H130697   5.437   2.206   1.271 -2.0774  2.2395  0.6827
 3046TIP3    H230698   5.451   2.301   1.154 -2.3750  1.0410 -0.3558
 3047TIP3   OH230699   0.456   0.120   2.273 -0.3693  0.2118 -0.0139
 3047TIP3    H130700   0.495   0.191   2.324  0.3084  0.6965 -1.1769
 3047TIP3    H230701   0.365   0.147   2.261 -1.0669 -0.7749  2.4428
 3048TIP3   OH230702   4.402   6.607   7.616 -0.4002 -0.5300  0.1946
 3048TIP3    H130703   4.416   6.560   7.533  0.4321  0.3372 -0.1740
 3048TIP3    H230704   4.325   6.565   7.654 -1.0503 -0.6948 -1.2117
 3049TIP3   OH230705   4.685   4.112   1.245 -0.0192 -0.2821 -0.2182
 3049TIP3    H130706   4.655   4.107   1.154  1.8230 -0.2919 -0.8697
 3049TIP3    H230707   4.780   4.102   1.240  0.3543  1.5706  1.5436
 3050TIP3   OH230708   2.963   0.298   2.505 -0.2857  0.3691 -0.6012
 3050TIP3    H130709   2.908   0.317   2.582  0.7591  2.6835 -0.3522
 3050TIP3    H230710   3.052   0.291   2.540 -0.0573 -0.8266 -1.3443
 3051TIP3   OH230711   6.526   4.339   8.725  0.1695  0.2575 -0.5259
 3051TIP3    H130712   6.599   4.390   8.691  0.8152 -1.1861 -1.3929
 3051TIP3    H230713   6.560   4.299   8.805 -0.9602  2.6590  1.3030
 3052TIP3   OH230714   2.752   1.840   0.426  0.6525 -0.5119 -0.1467
 3052TIP3    H130715   2.812   1.823   0.354  0.5811 -0.9544 -0.1058
 3052TIP3    H230716   2.808   1.848   0.503  0.7188 -0.1597 -0.2292
 3053TIP3   OH230717   2.332   1.743   1.300  0.1289  0.4838  0.0238
 3053TIP3    H130718   2.238   1.746   1.321 -0.1498  1.4080 -1.2435
 3053TIP3    H230719   2.343   1.658   1.256 -0.3500  0.8394 -0.8078
 3054TIP3   OH230720   2.253   4.196   1.276  0.1382 -0.0957  0.2812
 3054TIP3    H130721   2.268   4.122   1.335 -0.0788 -1.2872 -1.0905
 3054TIP3    H230722   2.196   4.160   1.207 -0.5855  1.5589 -0.0311
 3055TIP3   OH230723   5.013   3.382   0.053  0.2945 -0.2974 -0.7743
 3055TIP3    H130724   4.974   3.437   0.122 -1.6843 -2.1310 -0.3096
 3055TIP3    H230725   5.101   3.362   0.085 -0.5859 -1.1384  1.3096
 3056TIP3   OH230726   3.016   6.617   2.269  0.1016  0.4498  0.2810
 3056TIP3    H130727   3.029   6.707   2.240 -0.6331  0.8356  1.0907
 3056TIP3    H230728   2.935   6.589   2.227  0.3205  0.1663  0.0417
 3057TIP3   OH230729   5.938   0.283   7.815  0.4664  0.0202 -0.3346
 3057TIP3    H130730   6.000   0.239   7.875 -1.5283 -1.8131  0.5310
 3057TIP3    H230731   5.853   0.244   7.837 -1.3164  3.5185 -0.4061
 3058TIP3   OH230732   1.091   3.318   7.313 -0.1363  0.6263 -0.9183
 3058TIP3    H130733   1.070   3.361   7.230  1.3975 -0.7068 -2.0832
 3058TIP3    H230734   1.186   3.305   7.310 -0.1528 -0.1868  0.6886
 3059TIP3   OH230735   0.976   5.678   0.937 -0.1474  0.0773 -0.8542
 3059TIP3    H130736   0.943   5.597   0.897 -2.1026  0.2035  0.3899
 3059TIP3    H230737   0.920   5.692   1.013  2.0053  1.0736  0.6388
 3060TIP3   OH230738   6.521   2.545   9.205 -0.0716 -0.2047 -0.1526
 3060TIP3    H130739   6.443   2.566   9.154  0.5892 -1.0375 -1.5695
 3060TIP3    H230740   6.521   2.449   9.210  0.2349 -0.1657  0.8676
 3061TIP3   OH230741   0.308   0.311   9.297  0.2647 -0.6225  1.0179
 3061TIP3    H130742   0.357   0.328   9.217 -0.0331 -0.6942  0.8191
 3061TIP3    H230743   0.273   0.222   9.286 -1.2616  0.0105  0.4387
 3062TIP3   OH230744   0.087   3.553   8.325 -0.1733  0.0941  0.2230
 3062TIP3    H130745   0.144   3.496   8.274  0.5384  0.2039  0.8723
 3062TIP3    H230746   0.008   3.564   8.271 -1.1517 -2.9615  0.8445
 3063TIP3   OH230747   5.931   0.463   8.735 -0.0091 -0.5037 -0.2877
 3063TIP3    H130748   5.996   0.467   8.664  0.9987 -0.7747  0.5950
 3063TIP3    H230749   5.966   0.521   8.803 -1.2813  0.2490 -0.2401
 3064TIP3   OH230750   2.834   1.363   8.802 -0.4632 -0.5216  0.0836
 3064TIP3    H130751   2.758   1.377   8.858  0.6250  1.1842  1.2592
 3064TIP3    H230752   2.798   1.339   8.717 -2.3031  0.0689  0.6545
 3065TIP3   OH230753   3.599   0.318   8.717 -0.5451 -0.1595  0.2511
 3065TIP3    H130754   3.606   0.413   8.705 -3.2648  0.2561  1.3145
 3065TIP3    H230755   3.690   0.289   8.728  0.5152  2.0267 -1.8153
 3066TIP3   OH230756   5.628   4.240   7.149 -0.5874  0.3535  0.2739
 3066TIP3    H130757   5.548   4.272   7.107 -0.6089 -0.9733 -0.7784
 3066TIP3    H230758   5.637   4.150   7.117  1.0038  0.2804  0.8454
 3067TIP3   OH230759   0.051   3.291   1.501  0.1494 -0.1431 -0.0733
 3067TIP3    H130760   0.076   3.302   1.409  0.8744  0.5949  0.1968
 3067TIP3    H230761   0.134   3.276   1.546  0.0313  1.4056  0.7176
 3068TIP3   OH230762   1.907   2.098   0.574 -0.5950 -0.1946  0.0670
 3068TIP3    H130763   1.907   2.007   0.605  0.6856 -0.0436  0.5884
 3068TIP3    H230764   1.996   2.129   0.592  0.3295 -0.1145 -3.8077
 3069TIP3   OH230765   0.895   2.218   0.543 -0.3712  0.4048  0.3817
 3069TIP3    H130766   0.832   2.174   0.601  0.2353 -1.1803 -0.0985
 3069TIP3    H230767   0.889   2.169   0.461  0.7959  0.8361  0.0274
 3070TIP3   OH230768   0.450   3.546   1.183  0.2284 -0.3237 -0.3977
 3070TIP3    H130769   0.447   3.526   1.090 -0.2081  1.6877 -0.8784
 3070TIP3    H230770   0.371   3.598   1.199  0.2905 -0.6285  1.0997
 3071TIP3   OH230771   3.915   2.846   1.166  0.1182  0.3823 -0.5830
 3071TIP3    H130772   3.984   2.877   1.107 -0.1409  0.7417 -0.6957
 3071TIP3    H230773   3.914   2.751   1.153 -0.5638  0.5416 -1.8517
 3072TIP3   OH230774   0.367   4.187   0.964  0.5592  0.0162 -0.4319
 3072TIP3    H130775   0.441   4.236   0.998  1.0172 -0.7316 -0.3126
 3072TIP3    H230776   0.402   4.139   0.889  0.0633  0.0624 -0.7011
 3073TIP3   OH230777   6.104   6.623   1.785 -0.3369 -0.1729  0.1541
 3073TIP3    H130778   6.039   6.585   1.725  0.8537 -2.2336  0.0479
 3073TIP3    H230779   6.188   6.608   1.741  0.3493  0.7124  1.1305
 3074TIP3   OH230780   0.070   2.178   8.819 -0.1192  0.0158 -0.5038
 3074TIP3    H130781   0.032   2.221   8.742 -0.4963  0.5057 -0.0451
 3074TIP3    H230782   0.148   2.134   8.785  1.0752  2.1862 -0.7678
 3075TIP3   OH230783   4.879   4.770   1.516 -0.3412  0.0853  0.3383
 3075TIP3    H130784   4.847   4.812   1.596 -0.8417  0.0413  0.1665
 3075TIP3    H230785   4.931   4.696   1.547 -0.8753 -0.1780  0.6264
 3076TIP3   OH230786   4.600   5.971   1.267  0.2974 -0.0741  0.2248
 3076TIP3    H130787   4.644   5.932   1.343  0.2544  0.9544  0.8006
 3076TIP3    H230788   4.601   6.065   1.285 -1.0868  0.0659 -0.3042
 3077TIP3   OH230789   3.310   0.196   9.057 -0.2962  0.4348  0.1930
 3077TIP3    H130790   3.240   0.169   8.998 -2.6815  3.8671  1.1754
 3077TIP3    H230791   3.279   0.169   9.144  0.9948 -0.4909  0.3918
 3078TIP3   OH230792   4.615   3.592   1.069 -0.1769 -0.0499  0.4197
 3078TIP3    H130793   4.537   3.618   1.118 -0.8076 -0.7728 -0.1761
 3078TIP3    H230794   4.581   3.544   0.994  0.8759 -0.8089  0.4127
 3079TIP3   OH230795   1.274   0.662   8.383 -0.5797  0.0214 -0.0355
 3079TIP3    H130796   1.357   0.627   8.415  0.3343  1.9173 -0.2298
 3079TIP3    H230797   1.209   0.626   8.444  0.8033  1.4032  2.4062
 3080TIP3   OH230798   0.980   2.200   8.545 -0.2140  0.0276  0.7972
 3080TIP3    H130799   1.039   2.126   8.537  0.2321  0.4439  0.1564
 3080TIP3    H230800   0.904   2.176   8.493  0.2008  0.2769  0.0617
 3081TIP3   OH230801   0.317   4.654   0.704 -0.6048  0.1103  0.6240
 3081TIP3    H130802   0.257   4.698   0.764 -1.2515 -0.5059  0.4470
 3081TIP3    H230803   0.386   4.717   0.688 -1.4871  1.0497  0.4103
 3082TIP3   OH230804   6.386   4.914   0.017 -0.3084 -0.4060  0.1638
 3082TIP3    H130805   6.409   4.832   0.060 -1.5713 -0.9715 -0.1871
 3082TIP3    H230806   6.460   4.933  -0.040  0.6939 -0.4632  1.4039
 3083TIP3   OH230807   1.387   1.012   2.278 -0.1231  0.5453 -0.1282
 3083TIP3    H130808   1.300   1.026   2.241 -0.5579  1.7820  1.2917
 3083TIP3    H230809   1.420   0.934   2.233 -1.4404  0.7943 -1.5963
 3084TIP3   OH230810   1.867   2.692   7.947 -1.0730  0.0021  0.0882
 3084TIP3    H130811   1.939   2.731   7.997 -0.7030 -0.6251  0.0588
 3084TIP3    H230812   1.788   2.716   7.995 -0.5844 -3.3860  3.0286
 3085TIP3   OH230813   5.218   5.912   0.357 -0.2313 -0.0631 -0.0052
 3085TIP3    H130814   5.150   5.955   0.305  0.1548 -2.4525 -2.6994
 3085TIP3    H230815   5.276   5.984   0.383 -2.1547  1.6351 -0.1478
 3086TIP3   OH230816   1.587   6.362   1.717 -0.0089  0.6241  0.5872
 3086TIP3    H130817   1.571   6.376   1.810 -0.5258  0.7721  0.4798
 3086TIP3    H230818   1.574   6.447   1.677  1.7852  0.9204  0.5696
 3087TIP3   OH230819   3.254   5.442   9.315  0.1951 -0.2809  0.2792
 3087TIP3    H130820   3.201   5.522   9.317  1.6975  0.7679 -0.1200
 3087TIP3    H230821   3.328   5.461   9.372  0.3991 -1.5440  0.4683
 3088TIP3   OH230822   2.433   5.318   8.457  0.2556  0.3629  0.0093
 3088TIP3    H130823   2.347   5.357   8.440  1.1808  2.3932 -0.3367
 3088TIP3    H230824   2.414   5.227   8.477 -2.1877  1.2017  2.0874
 3089TIP3   OH230825   2.033   2.633   0.460  0.3429  0.7940 -0.2201
 3089TIP3    H130826   2.093   2.573   0.417  0.1723 -0.5380  1.2908
 3089TIP3    H230827   1.947   2.612   0.423  0.3461  0.3524  0.0076
 3090TIP3   OH230828   5.490   1.640   9.267  0.2773  0.2064  0.3932
 3090TIP3    H130829   5.507   1.561   9.216 -2.2583  0.1806 -0.5853
 3090TIP3    H230830   5.546   1.707   9.228  0.9114 -0.6160 -0.1317
 3091TIP3   OH230831   6.274   3.698   8.759 -0.1937 -0.0344 -0.1135
 3091TIP3    H130832   6.265   3.793   8.769 -0.0520 -0.1498  1.3067
 3091TIP3    H230833   6.184   3.665   8.763 -0.1924 -0.0130  0.1203
 3092TIP3   OH230834   0.681   2.433   0.104  0.6310 -0.3777  0.4672
 3092TIP3    H130835   0.685   2.340   0.128 -0.1775 -0.9716 -1.4889
 3092TIP3    H230836   0.749   2.443   0.037  0.0966  0.2051  0.0018
 3093TIP3   OH230837   6.601   5.017   1.139  0.3429  0.5321  0.3746
 3093TIP3    H130838   6.567   5.103   1.163  0.1305  0.1264  1.6022
 3093TIP3    H230839   6.525   4.959   1.143  0.2205  0.4756 -1.6713
 3094TIP3   OH230840   5.132   2.806   6.296  0.2705 -0.2586  0.0027
 3094TIP3    H130841   5.175   2.846   6.372  1.9678  1.4952 -1.7520
 3094TIP3    H230842   5.047   2.850   6.291  0.7122  0.6402  0.1194
 3095TIP3   OH230843   2.850   2.193   1.244  0.2130 -0.2766  0.1021
 3095TIP3    H130844   2.887   2.145   1.318  1.1703 -1.3851 -1.0236
 3095TIP3    H230845   2.905   2.271   1.237  0.7060 -0.6171  0.0392
 3096TIP3   OH230846   5.071   3.780   0.199 -0.4814  0.0672 -0.2318
 3096TIP3    H130847   5.037   3.691   0.198  1.0210 -0.6001  1.7439
 3096TIP3    H230848   5.164   3.770   0.176  0.1042  0.8656  1.6040
 3097TIP3   OH230849   0.438   4.087   8.221 -0.1887 -0.0144  0.4713
 3097TIP3    H130850   0.382   4.036   8.281 -0.2148 -1.3823 -0.6797
 3097TIP3    H230851   0.473   4.157   8.276 -0.9720 -0.6603  1.8579
 3098TIP3   OH230852   2.354   1.629   7.733  0.6034 -0.2503 -0.3338
 3098TIP3    H130853   2.341   1.579   7.814 -2.1428  0.1253 -0.4428
 3098TIP3    H230854   2.387   1.565   7.671  1.0386 -0.9718  0.6136
 3099TIP3   OH230855   5.870   5.448   8.837  0.2437 -0.3775 -0.3661
 3099TIP3    H130856   5.903   5.396   8.764 -0.4122  0.0185 -0.9490
 3099TIP3    H230857   5.886   5.538   8.812 -2.4899 -0.0764 -1.3212
 3100TIP3   OH230858   6.198   3.147   7.991 -0.5280  0.2474  0.2579
 3100TIP3    H130859   6.217   3.216   7.927 -0.8989  0.6628  0.5819
 3100TIP3    H230860   6.275   3.146   8.048 -0.2627 -0.0194 -0.1037
 3101TIP3   OH230861   4.121   5.314   0.649  0.0597 -0.1718 -0.4103
 3101TIP3    H130862   4.097   5.379   0.583  1.4939 -0.0887 -0.8976
 3101TIP3    H230863   4.038   5.290   0.690 -0.6029  1.3910 -0.7364
 3102TIP3   OH230864   6.091   0.645   0.783  0.4111  0.4394 -0.1438
 3102TIP3    H130865   6.091   0.735   0.750  2.3705  0.4166 -0.2930
 3102TIP3    H230866   6.016   0.604   0.741 -0.2093  1.8589 -0.4714
 3103TIP3   OH230867   1.354   3.799   7.821  0.8443  0.0748 -0.3270
 3103TIP3    H130868   1.349   3.878   7.876 -0.6195  1.0762 -1.7994
 3103TIP3    H230869   1.322   3.729   7.878  1.3231  0.6848  0.7305
 3104TIP3   OH230870   2.507   3.957   7.190 -0.2630  0.2016  0.3419
 3104TIP3    H130871   2.516   4.052   7.199  0.3909  0.0878  1.0127
 3104TIP3    H230872   2.525   3.940   7.098 -1.9580  0.8824 -0.1549
 3105TIP3   OH230873   6.236   3.189   7.547 -0.0967 -0.0175 -0.1159
 3105TIP3    H130874   6.168   3.254   7.531 -0.2929 -0.3045 -0.4651
 3105TIP3    H230875   6.304   3.210   7.483 -0.3839 -0.4626 -0.5802
 3106TIP3   OH230876   0.192   4.794   8.306 -0.2645  0.2744 -0.0577
 3106TIP3    H130877   0.140   4.828   8.233  0.6048  3.0726  0.5317
 3106TIP3    H230878   0.139   4.812   8.383  0.2448  0.3198  0.2833
 3107TIP3   OH230879   0.173   2.800   0.916  0.1824 -0.1552 -0.7434
 3107TIP3    H130880   0.192   2.727   0.858  1.7908  1.7365 -2.7952
 3107TIP3    H230881   0.099   2.845   0.876 -1.4727 -1.1276  1.0589
 3108TIP3   OH230882   1.606   2.347   8.889  0.1327  1.0352  0.5770
 3108TIP3    H130883   1.595   2.273   8.948  0.1267  0.7867  0.2658
 3108TIP3    H230884   1.517   2.380   8.875  0.1602  1.2502  0.9051
 3109TIP3   OH230885   2.421   0.011   8.335  0.2364  0.2968  0.6997
 3109TIP3    H130886   2.426   0.021   8.240 -1.2144 -0.4757  0.5008
 3109TIP3    H230887   2.327   0.002   8.353 -0.2495  5.7454  2.8150
 3110TIP3   OH230888   3.810   5.175   7.430 -0.2684 -0.2148  0.2765
 3110TIP3    H130889   3.887   5.228   7.450 -0.1850  0.4136 -1.5264
 3110TIP3    H230890   3.845   5.089   7.404 -0.2985 -0.5491  1.3073
 3111TIP3   OH230891   6.243   2.631   8.250 -0.1618  0.5962 -0.1452
 3111TIP3    H130892   6.213   2.628   8.341 -1.8799 -0.7975 -0.6775
 3111TIP3    H230893   6.187   2.567   8.205  1.4097  0.4073 -1.9654
 3112TIP3   OH230894   0.876   5.611   8.084  0.4214 -0.0135  0.3043
 3112TIP3    H130895   0.904   5.670   8.154  1.9410 -2.0157  1.4988
 3112TIP3    H230896   0.954   5.561   8.062 -0.7131 -1.3699 -0.8583
 3113TIP3   OH230897   4.003   4.550   8.801 -0.1643 -0.0693 -0.4181
 3113TIP3    H130898   3.984   4.470   8.850  0.0274  0.5297  0.6774
 3113TIP3    H230899   4.075   4.591   8.849  0.6447  0.1020 -1.7287
 3114TIP3   OH230900   1.869   4.404   7.307  1.1055  0.0054 -0.3420
 3114TIP3    H130901   1.801   4.435   7.366  3.3713  1.2284  1.7927
 3114TIP3    H230902   1.843   4.437   7.221  1.2021  4.4442  1.1089
 3115TIP3   OH230903   0.949   3.490   1.025  0.7322 -0.2517 -0.2437
 3115TIP3    H130904   0.916   3.575   1.055  2.1694  0.7786 -1.4440
 3115TIP3    H230905   0.891   3.465   0.953 -0.1276 -0.6556  0.5755
 3116TIP3   OH230906   1.007   1.106   8.040  0.0840  0.5810  0.5154
 3116TIP3    H130907   1.058   1.071   8.113 -1.0399  0.1553  1.1204
 3116TIP3    H230908   0.982   1.194   8.068  0.8863  0.9886  0.0021
 3117TIP3   OH230909   0.087   5.050   1.934  0.3516 -0.1657 -0.2029
 3117TIP3    H130910   0.146   5.033   1.861  1.8839  0.1053  0.9383
 3117TIP3    H230911   0.139   5.036   2.013 -1.2962 -0.5991  0.8765
 3118TIP3   OH230912   4.064   1.819   1.147 -0.3221  0.2339 -0.4261
 3118TIP3    H130913   4.124   1.846   1.216 -0.6998 -1.0820  0.4721
 3118TIP3    H230914   4.119   1.809   1.069  0.0700  1.9538 -0.3898
 3119TIP3   OH230915   0.267   0.225   1.339  0.0309  0.6044  0.0509
 3119TIP3    H130916   0.312   0.168   1.402  1.2150  1.0926 -0.3323
 3119TIP3    H230917   0.337   0.274   1.297 -0.4266 -1.3918 -3.4501
 3120TIP3   OH230918   5.488   0.106   6.371 -0.1003  0.1977  0.7374
 3120TIP3    H130919   5.402   0.065   6.374  0.1238 -0.3750 -0.3827
 3120TIP3    H230920   5.484   0.175   6.438 -1.7156  0.7415  0.1106
 3121TIP3   OH230921   2.117   2.802   2.157  0.4983  0.2112 -0.2247
 3121TIP3    H130922   2.150   2.814   2.068 -0.3016 -0.4491 -0.6165
 3121TIP3    H230923   2.147   2.715   2.183  1.5900  0.7876  0.5508
 3122TIP3   OH230924   1.207   4.873   0.820 -0.3954 -0.7454  0.3003
 3122TIP3    H130925   1.127   4.872   0.872  0.9632 -0.4514  2.5441
 3122TIP3    H230926   1.187   4.929   0.745 -2.2190 -0.5359  0.9115
 3123TIP3   OH230927   4.656   1.432   0.843  0.0909  0.1671  0.2531
 3123TIP3    H130928   4.711   1.510   0.834  1.2303 -0.4572  1.5139
 3123TIP3    H230929   4.718   1.360   0.852 -0.9485 -0.8529 -0.4469
 3124TIP3   OH230930   1.829   4.034   7.783 -0.2984 -0.0683  0.2286
 3124TIP3    H130931   1.757   4.059   7.841  0.9804  0.3814  1.6784
 3124TIP3    H230932   1.907   4.045   7.836  0.8079 -1.1568 -1.1121
 3125TIP3   OH230933   4.488   2.282   8.710  0.0689 -0.2781  0.3956
 3125TIP3    H130934   4.430   2.243   8.776  1.0787  0.1691  1.5875
 3125TIP3    H230935   4.518   2.363   8.750 -0.3755  0.7130 -1.2123
 3126TIP3   OH230936   1.361   5.921   2.025  0.3885  0.7609  0.2060
 3126TIP3    H130937   1.440   5.962   2.061  0.1808  0.3625  1.1349
 3126TIP3    H230938   1.292   5.945   2.087 -0.1145  0.6218 -0.2937
 3127TIP3   OH230939   2.225   2.641   0.161 -0.0394  1.1630  0.1711
 3127TIP3    H130940   2.218   2.555   0.119 -0.8407 -0.2073  2.9190
 3127TIP3    H230941   2.319   2.657   0.165  0.1178  0.5141 -0.5369
 3128TIP3   OH230942   2.773   5.189   0.363  0.0556  0.1886 -0.2193
 3128TIP3    H130943   2.856   5.193   0.316  0.1439  0.1281 -0.0682
 3128TIP3    H230944   2.723   5.264   0.330 -0.0334 -0.0774 -0.6956
 3129TIP3   OH230945   4.071   4.664   7.243  0.0396  0.4394  0.5021
 3129TIP3    H130946   4.019   4.732   7.199 -0.7796 -1.7080 -2.1155
 3129TIP3    H230947   4.027   4.582   7.220  3.1979 -1.3170  0.1561
 3130TIP3   OH230948   0.629   4.159   1.425 -0.2962 -0.0442  0.1843
 3130TIP3    H130949   0.711   4.110   1.418  0.4408  1.2399 -0.7888
 3130TIP3    H230950   0.564   4.104   1.379  0.1925 -0.7125  0.2809
 3131TIP3   OH230951   1.246   4.531   0.324 -0.4690 -0.4528  0.4216
 3131TIP3    H130952   1.180   4.557   0.387  2.2154  3.5529  2.0181
 3131TIP3    H230953   1.326   4.520   0.376  1.6733  2.1467 -2.0162
 3132TIP3   OH230954   3.420   0.930   0.010  0.5576 -0.0262 -0.0449
 3132TIP3    H130955   3.382   0.860  -0.043 -0.3561  1.4835 -1.4733
 3132TIP3    H230956   3.492   0.963  -0.043  0.9930  0.1276  0.6302
 3133TIP3   OH230957   3.982   3.533   8.771  0.0811 -0.5741 -0.2721
 3133TIP3    H130958   3.904   3.587   8.784  0.7695  1.1295 -2.4199
 3133TIP3    H230959   3.968   3.490   8.686  2.3018  1.6330 -1.9347
 3134TIP3   OH230960   4.740   4.858   0.709 -0.2664  0.0736  0.0548
 3134TIP3    H130961   4.746   4.858   0.613  0.3405  2.2960  0.0332
 3134TIP3    H230962   4.663   4.804   0.728 -1.2395  0.7200 -1.7730
 3135TIP3   OH230963   3.487   0.776   1.368 -0.0224 -0.0179  0.3467
 3135TIP3    H130964   3.434   0.707   1.409 -0.7967 -0.2444 -1.0062
 3135TIP3    H230965   3.477   0.851   1.426 -0.7665 -0.4544  0.8018
 3136TIP3   OH230966   3.959   0.660   1.885  0.3139  0.0600  0.0525
 3136TIP3    H130967   3.991   0.656   1.975  0.6382  0.9162 -0.0160
 3136TIP3    H230968   3.900   0.585   1.878  1.2603 -0.7585  0.5870
 3137TIP3   OH230969   3.514   4.977   0.595  0.6491  0.1780 -0.1361
 3137TIP3    H130970   3.543   4.939   0.678  0.3987 -0.7332 -0.4481
 3137TIP3    H230971   3.594   4.996   0.547  0.7858 -1.3059 -0.5492
 3138TIP3   OH230972   2.204   4.013   6.592 -0.3045  0.4667  1.2229
 3138TIP3    H130973   2.165   3.932   6.625 -0.1092 -0.0576  0.2146
 3138TIP3    H230974   2.129   4.063   6.557 -0.2144 -0.1631  0.0660
 3139TIP3   OH230975   2.874   0.208   1.916  0.3306 -0.6664 -0.5084
 3139TIP3    H130976   2.798   0.191   1.971  0.2813  0.1599 -0.3100
 3139TIP3    H230977   2.872   0.302   1.900  1.1548 -0.6778 -0.7303
 3140TIP3   OH230978   1.580   4.040   0.635 -0.2576  0.2291  0.4990
 3140TIP3    H130979   1.600   4.060   0.726 -0.9434  1.3006  0.4298
 3140TIP3    H230980   1.489   4.068   0.624  0.1343  1.0417 -0.7799
 3141TIP3   OH230981   5.128   0.241   8.855  0.2989  0.1624  0.0675
 3141TIP3    H130982   5.159   0.156   8.824  0.0527  0.3206 -0.6229
 3141TIP3    H230983   5.034   0.239   8.842  0.2023  0.2783  0.7122
 3142TIP3   OH230984   2.594   3.722   7.295  0.3750  0.3198 -0.5019
 3142TIP3    H130985   2.584   3.733   7.389  0.3748 -1.3655 -0.2722
 3142TIP3    H230986   2.578   3.809   7.258  1.8951  1.3609  1.1520
 3143TIP3   OH230987   4.429   6.434   8.155  0.1649  0.2098  0.4989
 3143TIP3    H130988   4.385   6.454   8.238 -1.3598 -1.7079  0.2299
 3143TIP3    H230989   4.522   6.445   8.173 -0.2634  2.9378  1.5454
 3144TIP3   OH230990   2.397   3.498   0.412  0.0132 -0.2965 -0.5010
 3144TIP3    H130991   2.379   3.520   0.320 -0.8022  1.3295  0.0047
 3144TIP3    H230992   2.369   3.407   0.421  0.7323 -0.7099 -2.0078
 3145TIP3   OH230993   5.295   1.572   7.317  0.3737  0.1823 -0.3723
 3145TIP3    H130994   5.203   1.572   7.290 -0.1900  2.1195  1.3310
 3145TIP3    H230995   5.338   1.633   7.258  0.2762  0.3552 -0.2629
 3146TIP3   OH230996   0.461   4.399   8.818 -0.5008  0.0938  0.2070
 3146TIP3    H130997   0.483   4.341   8.745  0.5083  1.9015 -1.0163
 3146TIP3    H230998   0.466   4.343   8.896  0.2662 -1.4674 -0.9100
 3147TIP3   OH230999   6.451   1.158   9.226  0.5142 -0.3294  0.1411
 3147TIP3    H131000   6.497   1.165   9.309 -0.0121  2.5112  0.3208
 3147TIP3    H231001   6.380   1.222   9.233 -1.3900 -2.1204 -1.4017
 3148TIP3   OH231002   4.389   5.064   6.566  0.0125  0.2463  0.0704
 3148TIP3    H131003   4.366   5.157   6.563  0.8911  0.4583 -0.2844
 3148TIP3    H231004   4.478   5.062   6.601 -0.1257 -0.4855  0.3983
 3149TIP3   OH231005   6.313   6.352   7.664 -0.2956  0.7835 -0.0779
 3149TIP3    H131006   6.347   6.265   7.684 -0.2625  1.2137  1.9485
 3149TIP3    H231007   6.335   6.366   7.572  0.8278 -0.8387 -0.0883
 3150TIP3   OH231008   5.697   5.596   0.049  0.3304 -0.3201 -0.0434
 3150TIP3    H131009   5.701   5.688   0.073  0.3000 -0.1677 -0.6033
 3150TIP3    H231010   5.788   5.568   0.044  0.6364  0.7111 -3.6460
 3151TIP3   OH231011   3.906   1.640   0.848 -0.2080 -0.0083 -0.2058
 3151TIP3    H131012   3.971   1.579   0.884 -0.5809 -0.5347 -0.4067
 3151TIP3    H231013   3.821   1.603   0.874 -0.4873 -0.3946 -1.5974
 3152TIP3   OH231014   2.044   3.494   0.079  0.8085 -0.0873 -0.2045
 3152TIP3    H131015   2.069   3.407   0.048  0.8300 -0.0496 -0.2925
 3152TIP3    H231016   1.980   3.477   0.148  0.8578 -0.1749 -0.1800
 3153TIP3   OH231017   5.100   2.933   8.890 -0.1255  0.1876 -0.8074
 3153TIP3    H131018   5.007   2.959   8.892 -0.5374 -1.1856 -1.2956
 3153TIP3    H231019   5.122   2.917   8.982 -0.2136  0.9702 -0.6338
 3154TIP3   OH231020   4.876   5.458   2.105 -0.7286  0.3562  0.1648
 3154TIP3    H131021   4.880   5.409   2.187  0.7962  2.6033  1.5488
 3154TIP3    H231022   4.965   5.454   2.070 -1.0700  0.4786 -0.7536
 3155TIP3   OH231023   4.320   2.997   7.478 -0.0812  0.1140  0.3963
 3155TIP3    H131024   4.285   3.044   7.403 -1.1741 -0.3369  0.5958
 3155TIP3    H231025   4.242   2.962   7.522  0.6068 -0.5360  1.1260
 3156TIP3   OH231026   5.375   2.453   0.867  0.3972 -0.5494  0.1353
 3156TIP3    H131027   5.349   2.528   0.813 -0.9139  0.0453  1.5400
 3156TIP3    H231028   5.400   2.386   0.803 -2.3080 -0.3326 -1.3201
 3157TIP3   OH231029   2.352   5.700   0.513  0.2269  0.2844 -0.0340
 3157TIP3    H131030   2.426   5.748   0.477  2.1826 -3.6902 -1.9815
 3157TIP3    H231031   2.375   5.685   0.605  2.1119 -1.1143 -0.6706
 3158TIP3   OH231032   5.534   3.775   9.242  0.3692 -0.0903  0.0375
 3158TIP3    H131033   5.514   3.801   9.152 -0.8809 -1.0086  0.0283
 3158TIP3    H231034   5.554   3.682   9.237 -0.1492 -0.2512  0.7593
 3159TIP3   OH231035   3.247   2.440   2.230 -0.1699 -0.2909  0.1989
 3159TIP3    H131036   3.251   2.486   2.146 -1.3269 -2.5219 -1.1772
 3159TIP3    H231037   3.336   2.447   2.266  0.4022  0.5468 -1.3006
 3160TIP3   OH231038   2.536   4.934   9.038  0.5256  0.1888  0.2306
 3160TIP3    H131039   2.492   4.873   9.098 -0.3781 -0.1950 -0.7864
 3160TIP3    H231040   2.563   5.007   9.093 -1.0419  0.2464  0.9852
 3161TIP3   OH231041   0.456   4.278   7.121  0.0285 -0.3109  0.2781
 3161TIP3    H131042   0.478   4.367   7.094 -1.3729  0.3551  1.2267
 3161TIP3    H231043   0.484   4.223   7.048 -0.6450  1.0861 -1.0687
 3162TIP3   OH231044   4.832   4.350   2.687  0.5759 -0.2463 -0.4925
 3162TIP3    H131045   4.885   4.308   2.619 -0.7600  0.0898 -1.7859
 3162TIP3    H231046   4.743   4.345   2.655 -0.2415 -0.8687  1.6898
 3163TIP3   OH231047   2.152   4.298   9.134  0.5558  0.0248 -0.2701
 3163TIP3    H131048   2.246   4.296   9.116  0.4280  0.3718 -0.9984
 3163TIP3    H231049   2.118   4.219   9.092  0.4173  0.2711 -0.6251
 3164TIP3   OH231050   3.127   4.302   2.840 -0.0636  0.2442 -0.6074
 3164TIP3    H131051   3.081   4.244   2.781 -0.9147  2.1772 -1.9623
 3164TIP3    H231052   3.060   4.333   2.901  0.4449 -0.4179  0.3086
 3165TIP3   OH231053   6.045   2.747   1.460 -0.4860  0.2681 -0.3546
 3165TIP3    H131054   5.988   2.704   1.396 -0.4973  1.5119 -1.2139
 3165TIP3    H231055   6.062   2.834   1.423 -0.1734  0.8839  1.1412
 3166TIP3   OH231056   4.023   6.161   8.583 -0.1215 -0.2166 -0.5848
 3166TIP3    H131057   4.044   6.156   8.676 -2.4957 -0.7343 -0.0163
 3166TIP3    H231058   3.999   6.253   8.568 -0.6513 -0.3319 -0.4575
 3167TIP3   OH231059   5.604   3.203   0.428 -0.2133 -0.5328  0.1622
 3167TIP3    H131060   5.512   3.177   0.432 -0.0029 -1.2969  0.2030
 3167TIP3    H231061   5.606   3.277   0.367 -1.6355  2.9445  3.8789
 3168TIP3   OH231062   0.674   4.732   7.817  0.2053  0.4161 -0.5720
 3168TIP3    H131063   0.632   4.671   7.878  0.9383  0.1404 -0.3223
 3168TIP3    H231064   0.713   4.799   7.874 -0.1535  0.8339 -0.8148
 3169TIP3   OH231065   1.728   2.710   8.638  0.1469 -0.1617  0.2156
 3169TIP3    H131066   1.773   2.678   8.716  0.5520 -0.3041 -0.0669
 3169TIP3    H231067   1.738   2.805   8.641 -2.7046  0.1912  2.0597
 3170TIP3   OH231068   5.198   5.722   1.355 -0.1068 -0.1120  0.0038
 3170TIP3    H131069   5.289   5.751   1.364 -0.6178  1.4830  0.4085
 3170TIP3    H231070   5.186   5.658   1.425  0.6139 -0.0964  0.1497
 3171TIP3   OH231071   0.117   1.170   7.570  0.4689  0.0073  0.0917
 3171TIP3    H131072   0.116   1.100   7.504  1.5699 -0.5636  0.6504
 3171TIP3    H231073   0.033   1.162   7.615 -0.3685  0.5142 -1.3416
 3172TIP3   OH231074   4.250   0.482   1.881 -0.6044  0.2921 -0.1643
 3172TIP3    H131075   4.216   0.541   1.813 -2.9119 -1.2446 -0.4333
 3172TIP3    H231076   4.277   0.404   1.834 -4.2343 -1.6804  0.7028
 3173TIP3   OH231077   2.970   4.547   0.558  0.3680 -0.0230  0.8855
 3173TIP3    H131078   3.021   4.623   0.585  1.1428  0.2118 -1.0963
 3173TIP3    H231079   2.916   4.579   0.485 -2.1340 -0.4517  2.4041
 3174TIP3   OH231080   1.203   4.550   9.154 -0.2954 -0.0753 -0.9198
 3174TIP3    H131081   1.296   4.555   9.130 -0.3333 -0.5059 -1.1789
 3174TIP3    H231082   1.201   4.574   9.246  0.2022 -0.9547 -0.6587
 3175TIP3   OH231083   0.174   2.007   1.259  0.3518  0.3980 -0.0120
 3175TIP3    H131084   0.156   2.041   1.346  0.0981 -1.4715  0.7220
 3175TIP3    H231085   0.128   2.066   1.199 -2.8955 -0.5085  1.3798
 3176TIP3   OH231086   6.204   5.389   0.481  0.2428  0.2441  0.9034
 3176TIP3    H131087   6.195   5.434   0.397  1.9389  0.3449  0.7337
 3176TIP3    H231088   6.276   5.435   0.524  0.5184 -0.8890  1.6801
 3177TIP3   OH231089   4.877   0.727   2.327 -0.2437 -0.5578 -0.1845
 3177TIP3    H131090   4.871   0.723   2.422  1.4563 -2.4797 -0.0931
 3177TIP3    H231091   4.848   0.641   2.297 -0.1091 -0.2164 -1.3604
 3178TIP3   OH231092   0.805   0.834   2.629  0.6649 -0.0349 -0.1460
 3178TIP3    H131093   0.711   0.848   2.640  0.7103 -0.9012  1.7563
 3178TIP3    H231094   0.813   0.745   2.594  0.7966 -0.9367  2.0260
 3179TIP3   OH231095   5.075   5.898   0.587 -0.7390 -0.0184  0.2335
 3179TIP3    H131096   5.123   5.914   0.505  0.1807  1.9981  1.0897
 3179TIP3    H231097   5.010   5.968   0.590 -2.9434 -1.9295 -0.2416
 3180TIP3   OH231098   4.116   6.589   0.885 -0.0941 -0.4902  0.0589
 3180TIP3    H131099   4.119   6.552   0.797 -1.3860 -0.4425 -0.0112
 3180TIP3    H231100   4.147   6.679   0.875 -2.1593  0.1875 -0.7331
 3181TIP3   OH231101   3.151   2.156   7.450  0.0081 -0.5070  0.2322
 3181TIP3    H131102   3.184   2.067   7.434 -2.9055 -1.5523 -0.4414
 3181TIP3    H231103   3.126   2.189   7.364 -1.8447 -0.2911  0.8160
 3182TIP3   OH231104   3.413   2.627   1.441  0.4683  0.0033  0.2397
 3182TIP3    H131105   3.468   2.670   1.507  0.2323  0.9798 -0.1763
 3182TIP3    H231106   3.475   2.576   1.389  0.5173 -1.7475  1.9015
 3183TIP3   OH231107   5.726   2.275   6.506 -0.3202  0.3303 -0.5394
 3183TIP3    H131108   5.709   2.336   6.435 -0.3851 -0.2796 -1.0633
 3183TIP3    H231109   5.798   2.313   6.554  1.3644 -0.3841 -2.3550
 3184TIP3   OH231110   3.375   1.914   1.081  1.0199  0.2613  0.5161
 3184TIP3    H131111   3.462   1.951   1.066  1.0288 -0.1509 -0.5660
 3184TIP3    H231112   3.378   1.828   1.038 -0.8627  1.4869 -2.3720
 3185TIP3   OH231113   5.257   2.810   7.427  0.1228 -0.1771 -0.5934
 3185TIP3    H131114   5.187   2.787   7.366 -0.6379  0.7365 -0.0922
 3185TIP3    H231115   5.239   2.901   7.451  0.2134 -0.5973  1.2396
 3186TIP3   OH231116   1.116   2.902   1.890  0.3223 -0.2795 -0.1862
 3186TIP3    H131117   1.147   2.855   1.813 -1.1036 -2.5450  0.5320
 3186TIP3    H231118   1.157   2.857   1.964  0.2088  0.6694  0.4785
 3187TIP3   OH231119   1.766   2.003   1.416 -0.3604 -0.3199 -0.7033
 3187TIP3    H131120   1.737   1.996   1.325  0.2979  0.5756 -1.0014
 3187TIP3    H231121   1.691   2.041   1.462 -0.2507  0.4676 -1.1469
 3188TIP3   OH231122   0.989   1.175   2.260 -0.1934 -0.8133 -0.1403
 3188TIP3    H131123   1.017   1.189   2.350 -0.2615  0.0735 -0.2474
 3188TIP3    H231124   1.064   1.130   2.219  0.7971  0.8352 -0.2207
 3189TIP3   OH231125   4.566   3.524   0.322  0.2255  0.5176  0.4845
 3189TIP3    H131126   4.629   3.464   0.364 -0.3754 -0.2781  0.2787
 3189TIP3    H231127   4.498   3.537   0.388  0.1280  0.6152  0.3643
 3190TIP3   OH231128   0.345   0.107   8.372 -0.7491  0.0536  0.5299
 3190TIP3    H131129   0.320   0.196   8.396  1.2273  0.2794  1.9181
 3190TIP3    H231130   0.337   0.057   8.453  2.1505 -0.0724  0.8230
 3191TIP3   OH231131   2.261   0.623   0.511 -0.0872 -0.2174  0.2577
 3191TIP3    H131132   2.224   0.538   0.489  0.8124 -0.1302 -1.7752
 3191TIP3    H231133   2.344   0.602   0.554 -1.2229 -0.3588  2.5452
 3192TIP3   OH231134   3.628   1.367   1.253 -0.8728 -0.1266 -0.0605
 3192TIP3    H131135   3.612   1.341   1.344  0.7854 -0.8013  0.0791
 3192TIP3    H231136   3.598   1.293   1.201 -0.1900 -0.5049  0.0674
 3193TIP3   OH231137   0.581   2.385   0.635  0.6141 -0.2492 -0.1733
 3193TIP3    H131138   0.667   2.344   0.645  0.7224 -0.5684 -2.1698
 3193TIP3    H231139   0.571   2.398   0.541 -1.0532  0.8371  0.1144
 3194TIP3   OH231140   3.102   4.186   7.596  0.4879  0.0171  0.1656
 3194TIP3    H131141   3.126   4.215   7.508 -0.8445 -0.3793 -0.3617
 3194TIP3    H231142   3.009   4.164   7.589  0.1753  0.6474  1.8571
 3195TIP3   OH231143   5.022   1.255   8.541  0.0526 -0.2522  0.2220
 3195TIP3    H131144   4.984   1.307   8.470 -0.0975 -1.4099 -0.5791
 3195TIP3    H231145   4.978   1.286   8.620 -0.6107  0.2715 -0.3431
 3196TIP3   OH231146   0.330   2.349   8.379 -0.4475  0.2177  0.2224
 3196TIP3    H131147   0.280   2.424   8.409 -0.3468  1.1568 -1.7612
 3196TIP3    H231148   0.270   2.301   8.321  0.2126  0.1145 -0.3977
 3197TIP3   OH231149   4.767   1.613   1.405  0.6518 -0.0390  0.1934
 3197TIP3    H131150   4.773   1.608   1.500  0.0243 -0.5221  0.2154
 3197TIP3    H231151   4.857   1.627   1.376  1.2849 -2.4676  0.7150
 3198TIP3   OH231152   5.435   3.989   0.388 -0.2360  0.5608 -0.0173
 3198TIP3    H131153   5.497   4.006   0.459 -0.3984  0.2188  0.2071
 3198TIP3    H231154   5.451   3.898   0.363  0.2176  0.8445 -0.8153
 3199TIP3   OH231155   6.047   2.958   9.194 -0.4620  0.2081 -0.0871
 3199TIP3    H131156   6.141   2.945   9.179 -0.1103 -0.1865  2.1254
 3199TIP3    H231157   6.010   2.967   9.106  1.1639 -2.9111 -1.2581
 3200TIP3   OH231158   2.569   0.420   1.341 -0.3279 -0.3470  0.1132
 3200TIP3    H131159   2.645   0.427   1.285  0.5586 -0.9241  1.2023
 3200TIP3    H231160   2.535   0.510   1.348  0.1342 -0.1198 -0.5215
 3201TIP3   OH231161   6.548   0.290   9.060  0.2609 -0.1929 -0.7200
 3201TIP3    H131162   6.548   0.213   9.116 -0.7043 -0.0373 -0.4818
 3201TIP3    H231163   6.474   0.277   9.000  1.3183 -0.3897 -2.0352
 3202TIP3   OH231164   4.782   1.112   0.483 -0.4773 -0.2027 -0.2364
 3202TIP3    H131165   4.693   1.119   0.518 -0.5048 -0.7456 -0.1840
 3202TIP3    H231166   4.825   1.046   0.538 -0.7223 -1.5345 -1.5805
 3203TIP3   OH231167   0.641   3.344   2.055 -0.1587  0.6614 -0.3231
 3203TIP3    H131168   0.585   3.309   2.124  1.2823  2.3739  1.8782
 3203TIP3    H231169   0.706   3.275   2.039 -0.7666  0.0793 -0.2890
 3204TIP3   OH231170   4.965   1.886   1.932 -0.5064 -0.4493  0.4338
 3204TIP3    H131171   4.889   1.881   1.874  1.4960 -0.8098 -2.3256
 3204TIP3    H231172   5.000   1.974   1.918  0.3838 -0.7673  0.6251
 3205TIP3   OH231173   2.137   1.396   1.309  0.3037 -0.0828  0.8886
 3205TIP3    H131174   2.232   1.409   1.308  0.2656  0.1598  0.4653
 3205TIP3    H231175   2.105   1.444   1.233  0.1694 -2.7313 -0.8270
 3206TIP3   OH231176   1.490   2.797   1.901  0.3892  0.0702 -0.4480
 3206TIP3    H131177   1.572   2.758   1.928  0.1580 -0.2794 -0.2492
 3206TIP3    H231178   1.428   2.724   1.899  0.2451  0.2058 -1.2597
 3207TIP3   OH231179   1.836   4.793   9.321  0.2818  0.6063 -0.3506
 3207TIP3    H131180   1.896   4.719   9.316 -0.9411 -0.7457  2.7125
 3207TIP3    H231181   1.875   4.851   9.387 -1.1988  0.1747  0.9619
 3208TIP3   OH231182   1.771   1.054   1.280 -0.0973 -0.4709 -0.2107
 3208TIP3    H131183   1.693   1.003   1.260 -0.0869  0.0552 -1.7200
 3208TIP3    H231184   1.832   0.991   1.320 -0.1861 -1.5956 -1.7635
 3209TIP3   OH231185   0.347   6.384   7.704  0.2787 -0.1900 -0.2295
 3209TIP3    H131186   0.283   6.324   7.664 -0.1643 -0.6083  1.0690
 3209TIP3    H231187   0.383   6.433   7.630 -3.7407  2.2764 -0.8337
 3210TIP3   OH231188   0.445   3.472   7.401  0.2859 -0.2275 -0.0553
 3210TIP3    H131189   0.364   3.423   7.388  0.2436 -0.6698  1.7141
 3210TIP3    H231190   0.503   3.443   7.330  0.0800 -2.4660  0.6339
 3211TIP3   OH231191   3.411   4.467   7.442  0.1885  0.5581 -0.0879
 3211TIP3    H131192   3.365   4.547   7.467 -0.9696 -0.8594  2.6259
 3211TIP3    H231193   3.344   4.411   7.403  0.7461  0.4358 -0.9025
 3212TIP3   OH231194   2.600   1.793   8.284 -0.8884 -0.0373  0.3375
 3212TIP3    H131195   2.644   1.720   8.327 -0.9985  1.4216  3.2004
 3212TIP3    H231196   2.648   1.871   8.313 -2.2091  1.2075 -0.6399
 3213TIP3   OH231197   3.555   0.451   8.214  0.0517 -0.2127  0.2739
 3213TIP3    H131198   3.540   0.384   8.147 -0.0624  0.8522 -0.7961
 3213TIP3    H231199   3.471   0.460   8.258 -0.7556  1.1132 -1.3978
 3214TIP3   OH231200   4.296   2.907   1.698  0.2677  0.2508  0.0312
 3214TIP3    H131201   4.328   2.823   1.730 -0.9572 -0.4330 -0.4704
 3214TIP3    H231202   4.201   2.895   1.691  0.2450  1.1532 -1.5926
 3215TIP3   OH231203   0.722   2.125   0.135  0.1192 -0.3193  0.1930
 3215TIP3    H131204   0.788   2.067   0.173 -1.1327 -1.5726  0.5809
 3215TIP3    H231205   0.663   2.065   0.088  0.2559  0.9495 -1.6584
 3216TIP3   OH231206   2.550   1.264   1.458 -0.0050 -0.2551 -0.1546
 3216TIP3    H131207   2.485   1.292   1.522 -0.4120 -0.9552 -0.2419
 3216TIP3    H231208   2.616   1.218   1.510  0.1400 -0.0200 -0.1304
 3217TIP3   OH231209   3.081   2.671   8.891 -0.4561  0.1594  0.1009
 3217TIP3    H131210   3.148   2.739   8.900  0.0343 -0.2963 -0.0741
 3217TIP3    H231211   3.126   2.599   8.848 -0.6883 -0.6866  1.2312
 3218TIP3   OH231212   1.132   6.393   7.167 -0.1956  0.3370  0.2576
 3218TIP3    H131213   1.130   6.475   7.215 -1.4456  1.2184 -1.1963
 3218TIP3    H231214   1.167   6.416   7.081 -0.8929 -0.5732 -0.2931
 3219TIP3   OH231215   1.900   4.506   1.140  0.4957  0.5414  0.5275
 3219TIP3    H131216   1.934   4.509   1.051 -1.8025  1.5379 -0.3904
 3219TIP3    H231217   1.958   4.563   1.190  1.4753  0.4281 -0.4461
 3220TIP3   OH231218   1.833   6.118   7.249  0.3815 -0.1073  0.5243
 3220TIP3    H131219   1.775   6.193   7.261  2.6060  1.9365 -0.8732
 3220TIP3    H231220   1.782   6.057   7.195 -0.2609  1.9470 -1.3031
 3221TIP3   OH231221   6.553   2.292   8.599  0.0182 -0.6555  0.3648
 3221TIP3    H131222   6.459   2.303   8.591  0.3447  2.0934 -1.2444
 3221TIP3    H231223   6.583   2.272   8.510  1.0303 -0.3089  0.6033
 3222TIP3   OH231224   5.567   3.064   8.084 -0.4841 -0.0563  0.1600
 3222TIP3    H131225   5.544   3.080   7.992 -0.8906 -0.7361  0.1377
 3222TIP3    H231226   5.488   3.025   8.122 -0.2403  0.0038  0.7484
 3223TIP3   OH231227   1.003   1.300   0.172 -0.0266  0.4626  0.0870
 3223TIP3    H131228   0.936   1.346   0.123 -0.9959 -0.7513  0.2122
 3223TIP3    H231229   1.047   1.367   0.224 -2.2185  1.0932  1.2311
 3224TIP3   OH231230   5.117   5.471   9.145  0.2438 -0.0413  0.1541
 3224TIP3    H131231   5.088   5.444   9.232  2.4172 -3.6778 -0.0590
 3224TIP3    H231232   5.146   5.561   9.156  1.5089 -0.7292  3.5208
 3225TIP3   OH231233   3.951   3.581   1.352 -0.5408  0.4736 -1.0620
 3225TIP3    H131234   4.040   3.601   1.383 -0.8156  0.2182 -0.0810
 3225TIP3    H231235   3.962   3.507   1.292 -0.4357 -2.0360  1.8100
 3226TIP3   OH231236   5.595   3.206   7.687 -0.1542  0.5533 -0.2773
 3226TIP3    H131237   5.659   3.269   7.720 -1.7939  2.3358 -0.3378
 3226TIP3    H231238   5.619   3.194   7.595  0.2257  1.0294 -0.2478
 3227TIP3   OH231239   0.789   1.964   6.686 -0.0500  0.1186  0.0276
 3227TIP3    H131240   0.744   2.036   6.642 -1.2507 -1.1435 -0.8867
 3227TIP3    H231241   0.854   2.007   6.742 -1.4239  1.9381  0.3082
 3228TIP3   OH231242   2.536   4.946   1.886  0.1312 -0.9824 -0.2335
 3228TIP3    H131243   2.454   4.941   1.839  0.0637 -1.2676 -0.0879
 3228TIP3    H231244   2.536   5.033   1.927 -0.2549 -1.1132  0.0514
 3229TIP3   OH231245   1.017   4.142   0.999  0.1699  0.6571 -0.1300
 3229TIP3    H131246   1.071   4.134   0.920  0.5746  0.5779  0.1513
 3229TIP3    H231247   1.080   4.156   1.069 -0.1951  0.8119  0.1692
 3230TIP3   OH231248   3.577   6.133   7.001 -0.2259 -0.0750 -0.3748
 3230TIP3    H131249   3.555   6.042   6.982  0.2090 -0.1366 -0.6055
 3230TIP3    H231250   3.541   6.182   6.927  1.9201 -0.3736 -1.6972
 3231TIP3   OH231251   0.274   0.802   1.553 -0.5629  0.0803  0.0680
 3231TIP3    H131252   0.341   0.859   1.591 -1.0608  0.8882 -0.2457
 3231TIP3    H231253   0.294   0.798   1.460 -0.1733 -0.7638  0.1761
 3232TIP3   OH231254   1.299   3.328   7.543 -0.0844  0.4484  0.6755
 3232TIP3    H131255   1.206   3.347   7.527  0.2359  1.5248 -0.0638
 3232TIP3    H231256   1.321   3.261   7.479  0.4510  2.6409 -1.6204
 3233TIP3   OH231257   2.408   4.357   1.081 -0.1647 -0.3350 -0.9005
 3233TIP3    H131258   2.441   4.319   1.000  0.4799 -1.5241 -0.1263
 3233TIP3    H231259   2.340   4.296   1.110 -0.0041 -0.2291 -0.2765
 3234TIP3   OH231260   5.941   1.609   0.354  0.2914  0.1566  0.1710
 3234TIP3    H131261   5.874   1.590   0.419 -0.4897  0.8694 -0.3911
 3234TIP3    H231262   6.024   1.606   0.402 -0.2285  0.2418  1.0951
 3235TIP3   OH231263   5.416   6.622   9.030 -0.6444 -0.2911 -0.2591
 3235TIP3    H131264   5.452   6.611   9.118 -2.2488 -0.2480  0.4446
 3235TIP3    H231265   5.362   6.543   9.017 -0.1872 -0.4388 -1.3299
 3236TIP3   OH231266   5.947   3.535   0.725  0.0797  0.2905 -0.3074
 3236TIP3    H131267   5.998   3.614   0.705  0.0792  0.1315 -0.9715
 3236TIP3    H231268   5.876   3.536   0.660  0.6818 -0.7968 -1.0074
 3237TIP3   OH231269   0.290   2.137   0.509 -0.3665  0.3299 -0.3795
 3237TIP3    H131270   0.372   2.171   0.544 -2.0470  3.4821  0.9365
 3237TIP3    H231271   0.314   2.054   0.467  3.5735  1.5227 -0.8766
 3238TIP3   OH231272   3.813   5.978   1.019  0.4665 -0.2806  0.0100
 3238TIP3    H131273   3.860   6.009   1.097 -2.4533  2.8289  0.7486
 3238TIP3    H231274   3.724   5.961   1.050  0.2411 -3.2019 -1.8774
 3239TIP3   OH231275   2.380   5.222   8.867  0.3361  0.2719  0.1753
 3239TIP3    H131276   2.455   5.271   8.834  1.2668 -0.6084  0.8786
 3239TIP3    H231277   2.397   5.215   8.962 -3.1862  4.4180  1.3969
 3240TIP3   OH231278   5.248   6.086   9.014 -0.3497  0.3241 -0.2768
 3240TIP3    H131279   5.341   6.102   9.027 -0.1502  0.1158 -1.3642
 3240TIP3    H231280   5.242   6.050   8.926 -1.6703  2.2495 -1.0385
 3241TIP3   OH231281   4.705   4.927   9.191  0.3765 -0.3662 -0.8135
 3241TIP3    H131282   4.741   4.841   9.171  1.6631 -0.3230  1.0423
 3241TIP3    H231283   4.758   4.988   9.141  1.7157 -0.4445  0.4609
 3242TIP3   OH231284   2.640   2.346   8.758  0.1679  0.0714  0.2098
 3242TIP3    H131285   2.598   2.261   8.770  0.4667 -0.3412 -1.4303
 3242TIP3    H231286   2.594   2.404   8.818 -0.9249 -0.9710  0.4196
 3243TIP3   OH231287   0.718   0.837   7.185  0.0891  0.4173  0.0264
 3243TIP3    H131288   0.716   0.781   7.108 -1.2376 -0.6040  0.7388
 3243TIP3    H231289   0.802   0.882   7.181  0.5626 -0.5261 -1.3563
 3244TIP3   OH231290   0.303   6.070   8.957  0.2110 -0.2527  0.6231
 3244TIP3    H131291   0.226   6.126   8.963 -0.6157 -1.3196  0.2826
 3244TIP3    H231292   0.355   6.092   9.034 -0.6180  0.2012  1.0648
 3245TIP3   OH231293   3.677   0.529   0.869 -0.2281  0.0457  0.1441
 3245TIP3    H131294   3.590   0.506   0.837 -0.5655 -0.6308  1.4961
 3245TIP3    H231295   3.666   0.543   0.963  1.2488 -0.8485  0.4850
 3246TIP3   OH231296   3.224   5.730   1.230  0.4728  0.0360 -0.3018
 3246TIP3    H131297   3.262   5.785   1.161  2.6059  0.9306  1.4436
 3246TIP3    H231298   3.275   5.649   1.227  1.1668  0.4122  0.7079
 3247TIP3   OH231299   5.120   4.707   8.563 -0.2991 -0.0482  0.2644
 3247TIP3    H131300   5.030   4.686   8.589 -0.0478 -1.9678 -0.2541
 3247TIP3    H231301   5.170   4.629   8.585  0.8057  0.0993 -1.4947
 3248TIP3   OH231302   0.016   5.491   8.221  0.1152  0.7409 -0.3066
 3248TIP3    H131303  -0.003   5.446   8.303 -0.5696 -0.3864 -1.0660
 3248TIP3    H231304  -0.048   5.562   8.216 -1.0450 -0.3103 -0.7234
 3249TIP3   OH231305   2.273   1.577   1.005 -0.0671 -0.2950 -0.0302
 3249TIP3    H131306   2.315   1.663   0.997 -2.5498  0.8773 -1.6456
 3249TIP3    H231307   2.190   1.595   1.051 -0.7278 -1.7827 -0.5779
 3250TIP3   OH231308   6.545   2.940   8.731  0.9309  0.0941 -0.2758
 3250TIP3    H131309   6.625   2.906   8.772  0.1448  0.4644  1.6726
 3250TIP3    H231310   6.551   3.035   8.743 -0.3651  0.0405  1.0697
 3251TIP3   OH231311   2.108   3.537   1.554 -0.5348 -0.2217  0.0575
 3251TIP3    H131312   2.115   3.522   1.460  0.9699 -0.7303  0.2233
 3251TIP3    H231313   2.194   3.515   1.588 -1.6095 -2.0832  1.8360
 3252TIP3   OH231314   4.164   5.175   1.825 -0.2363  0.6299  0.5917
 3252TIP3    H131315   4.089   5.124   1.854 -1.7218  0.9717 -2.3743
 3252TIP3    H231316   4.231   5.109   1.805 -0.1650  0.2458  1.9749
 3253TIP3   OH231317   0.693   4.694   6.920  0.2641 -0.0061  0.0109
 3253TIP3    H131318   0.744   4.745   6.983 -0.8514  1.2354 -0.0482
 3253TIP3    H231319   0.712   4.603   6.942  0.6160  0.4065  1.5426
 3254TIP3   OH231320   6.596   1.957   7.814 -0.7122 -0.6605 -0.0655
 3254TIP3    H131321   6.575   1.865   7.798 -0.9339 -0.5731 -0.2653
 3254TIP3    H231322   6.692   1.960   7.811 -0.7002 -0.8997  0.0316
 3255TIP3   OH231323   1.013   1.116   1.162  1.1408 -0.1377  0.0486
 3255TIP3    H131324   0.955   1.043   1.142  1.3433 -0.7206  1.4425
 3255TIP3    H231325   0.959   1.175   1.215  0.9239  0.8448 -1.2084
 3256TIP3   OH231326   5.660   1.602   2.374 -0.1134  0.3003  0.4038
 3256TIP3    H131327   5.683   1.536   2.308 -0.2036  1.1948 -0.5387
 3256TIP3    H231328   5.716   1.582   2.449  2.0044  0.9475 -0.9433
 3257TIP3   OH231329   4.187   2.934   8.446 -0.8341 -0.0034  0.2643
 3257TIP3    H131330   4.247   2.884   8.390 -1.2561 -0.3890  0.1558
 3257TIP3    H231331   4.145   2.995   8.387 -0.3466  0.4602  0.3888
 3258TIP3   OH231332   1.623   2.438   1.356 -0.4146  0.9522  0.1103
 3258TIP3    H131333   1.537   2.408   1.385 -1.0772  1.6201 -1.0923
 3258TIP3    H231334   1.636   2.398   1.271  0.8094  0.2809  0.5873
 3259TIP3   OH231335   5.673   3.663   2.800 -0.4750 -0.0397  0.1365
 3259TIP3    H131336   5.644   3.753   2.783 -0.8746  0.2867  2.2454
 3259TIP3    H231337   5.613   3.608   2.749  0.3693  0.8685 -1.9434
 3260TIP3   OH231338   1.973   0.922   9.129 -0.0464 -0.4279 -0.1388
 3260TIP3    H131339   1.990   0.890   9.217 -2.9142 -1.0170  0.2921
 3260TIP3    H231340   1.917   0.855   9.089 -0.5598  0.8291 -1.6398
 3261TIP3   OH231341   5.554   4.608   0.608  0.5221  0.0119  0.6475
 3261TIP3    H131342   5.483   4.567   0.558  0.9097 -0.6837  0.6515
 3261TIP3    H231343   5.588   4.676   0.550 -0.6471  0.8858  0.9458
 3262TIP3   OH231344   0.850   0.884   1.169 -0.2917 -0.3635  0.6526
 3262TIP3    H131345   0.767   0.896   1.215 -0.5727 -2.4176  0.7920
 3262TIP3    H231346   0.827   0.831   1.093  0.6753  0.3333 -0.1526
 3263TIP3   OH231347   1.569   0.314   0.120  0.1119  0.3124 -0.0601
 3263TIP3    H131348   1.553   0.280   0.032  2.5217  2.3018 -1.3882
 3263TIP3    H231349   1.633   0.253   0.158 -1.5565 -1.0297  0.7310
 3264TIP3   OH231350   3.841   4.403   1.749 -0.2310 -0.8459 -0.6729
 3264TIP3    H131351   3.878   4.317   1.728 -0.7843 -1.5954  1.2056
 3264TIP3    H231352   3.751   4.399   1.717 -0.2102 -0.9103 -0.7232
 3265TIP3   OH231353   1.300   3.167   1.827 -0.3802 -0.4643  0.3520
 3265TIP3    H131354   1.340   3.108   1.762 -1.5014  0.3445 -1.1142
 3265TIP3    H231355   1.346   3.146   1.908  0.8616 -1.7309 -0.6150
 3266TIP3   OH231356   1.329   2.188   1.609 -0.6138 -0.7305 -0.5693
 3266TIP3    H131357   1.349   2.147   1.693  1.0742 -0.0039 -0.5789
 3266TIP3    H231358   1.398   2.157   1.550 -0.8401  0.0421 -1.2633
 3267TIP3   OH231359   1.770   2.010   7.866 -0.2689 -0.2276 -0.6017
 3267TIP3    H131360   1.747   2.059   7.787  1.5550  1.6963 -0.0336
 3267TIP3    H231361   1.844   1.955   7.839  0.7985  0.9234 -0.1586
 3268TIP3   OH231362   4.936   0.321   6.676  0.1659  0.4191  0.4239
 3268TIP3    H131363   4.989   0.291   6.750 -0.8169  0.1774  1.0529
 3268TIP3    H231364   4.972   0.406   6.654  0.9387  0.1771  0.7100
 3269TIP3   OH231365   5.931   0.022   1.146 -0.1718 -0.1545  0.2901
 3269TIP3    H131366   5.916   0.067   1.063 -0.4245  0.6238  0.7449
 3269TIP3    H231367   5.866   0.060   1.206  1.6467  1.1803  1.5355
 3270TIP3   OH231368   1.588   3.112   0.725 -0.3028 -0.4757 -0.3851
 3270TIP3    H131369   1.501   3.094   0.690  0.5062 -4.2975 -0.8645
 3270TIP3    H231370   1.648   3.089   0.654  1.1851 -0.1176  0.7013
 3271TIP3   OH231371   1.584   0.644   9.191 -0.0667  0.3442  0.6530
 3271TIP3    H131372   1.521   0.581   9.155  2.1541 -1.4855 -0.2868
 3271TIP3    H231373   1.648   0.657   9.121 -0.0302  3.1483  1.1009
 3272TIP3   OH231374   6.553   2.393   2.191  0.2469  0.4309  0.4493
 3272TIP3    H131375   6.606   2.456   2.142  0.3535  0.6098  0.7896
 3272TIP3    H231376   6.577   2.408   2.282 -0.5747  0.6755  0.6262
 3273TIP3   OH231377   3.552   5.762   8.291 -0.8686 -0.1403 -0.0926
 3273TIP3    H131378   3.471   5.714   8.273  0.2940 -2.7055  0.9284
 3273TIP3    H231379   3.539   5.799   8.378 -0.6155 -1.4829  0.5530
 3274TIP3   OH231380   6.023   2.907   7.845 -0.3113 -0.0818 -0.9601
 3274TIP3    H131381   6.059   2.837   7.899  1.0576  0.4382 -1.1535
 3274TIP3    H231382   6.094   2.931   7.786  0.0245  2.8346  0.4292
 3275TIP3   OH231383   2.304   1.275   1.896  0.6862  0.2212 -0.8626
 3275TIP3    H131384   2.328   1.182   1.899  0.0548  0.0499 -0.8730
 3275TIP3    H231385   2.333   1.310   1.980 -0.5452 -0.3732 -0.1544
 3276TIP3   OH231386   1.581   1.126   9.020  0.1193  0.0258 -0.4333
 3276TIP3    H131387   1.677   1.132   9.016  0.0928  0.6004 -0.3857
 3276TIP3    H231388   1.551   1.203   8.971 -0.3354 -1.0484 -1.8872
 3277TIP3   OH231389   0.811   2.720   9.104 -0.3621 -0.0444  0.9491
 3277TIP3    H131390   0.778   2.753   9.188  0.3514  1.7654  0.5510
 3277TIP3    H231391   0.766   2.773   9.038  0.2398 -0.3998  0.2407
 3278TIP3   OH231392   5.652   4.079   0.884 -0.4812  0.6349 -0.1678
 3278TIP3    H131393   5.665   3.992   0.922  0.7097  0.9006  0.0612
 3278TIP3    H231394   5.637   4.136   0.959  0.7626  0.9683 -0.1584
 3279TIP3   OH231395   4.514   5.976   8.360  0.4245  0.1370 -0.0330
 3279TIP3    H131396   4.531   5.966   8.266  1.1469 -0.8335  0.1968
 3279TIP3    H231397   4.422   5.949   8.370  0.5642 -0.4701 -0.3495
 3280TIP3   OH231398   0.659   6.412   8.490 -0.0368  0.0024 -0.3594
 3280TIP3    H131399   0.608   6.390   8.412 -0.2242  0.9485 -0.5110
 3280TIP3    H231400   0.656   6.507   8.496  1.8203  0.1190 -0.4459
 3281TIP3   OH231401   3.522   6.363   0.855  0.3692 -0.7166  0.2162
 3281TIP3    H131402   3.546   6.369   0.763  0.1290  1.6768  0.2632
 3281TIP3    H231403   3.577   6.428   0.899 -0.0177 -1.3277  1.6767
 3282TIP3   OH231404   6.496   0.234   0.727  0.4406 -0.0557 -0.1424
 3282TIP3    H131405   6.459   0.212   0.812  1.0355 -1.8978 -0.3096
 3282TIP3    H231406   6.446   0.310   0.698 -0.4583 -0.0253  1.3924
 3283TIP3   OH231407   0.448   6.284   0.453  0.3332 -0.3106  0.0826
 3283TIP3    H131408   0.537   6.307   0.425  1.4406 -4.3567 -0.2563
 3283TIP3    H231409   0.460   6.250   0.542 -1.5593  2.3452  1.5069
 3284TIP3   OH231410   0.476   1.984   1.430  0.1084  0.0233 -0.2966
 3284TIP3    H131411   0.517   2.070   1.427  0.4086 -0.0982  0.3549
 3284TIP3    H231412   0.543   1.925   1.465 -0.4130 -0.2855  0.2061
 3285TIP3   OH231413   3.201   5.717   0.029 -0.5128  0.1091  0.2674
 3285TIP3    H131414   3.217   5.798   0.078  0.9457 -0.9315  1.6277
 3285TIP3    H231415   3.271   5.715  -0.037  1.1776 -1.2932  1.9978
 3286TIP3   OH231416   2.081   1.796   9.134 -0.1525  0.0951 -0.0016
 3286TIP3    H131417   2.086   1.777   9.040 -0.6458  0.0029 -0.0124
 3286TIP3    H231418   2.005   1.745   9.165 -0.6633  0.9749  0.2333
 3287TIP3   OH231419   1.041   3.212   7.879  0.3285  0.3443 -0.4845
 3287TIP3    H131420   1.026   3.304   7.856  1.3852  0.6657  0.0440
 3287TIP3    H231421   0.994   3.163   7.813  1.0315  1.2647 -1.7082
 3288TIP3   OH231422   4.641   3.810   0.500  0.4345 -0.5818 -0.2378
 3288TIP3    H131423   4.683   3.726   0.522  1.1578 -0.2549 -0.3437
 3288TIP3    H231424   4.548   3.788   0.492  0.7119 -1.5727 -1.1634
 3289TIP3   OH231425   2.088   0.788   8.564 -0.3744  0.0545  0.4107
 3289TIP3    H131426   2.034   0.810   8.640 -1.1891  1.5780 -0.5514
 3289TIP3    H231427   2.043   0.713   8.524 -0.9593  0.3687  0.4588
 3290TIP3   OH231428   1.291   0.385   1.655 -0.4067  0.5029 -0.6904
 3290TIP3    H131429   1.275   0.298   1.691 -0.8766  0.4485 -1.0201
 3290TIP3    H231430   1.337   0.432   1.725  1.1752 -0.4550 -1.0371
 3291TIP3   OH231431   6.451   6.400   7.948  0.4784 -0.2304  0.5065
 3291TIP3    H131432   6.471   6.370   7.859 -0.0613  1.1248 -0.1129
 3291TIP3    H231433   6.384   6.468   7.935  2.9021  2.5948  1.5898
 3292TIP3   OH231434   0.940   1.016   0.864 -0.1931 -0.2947  0.0607
 3292TIP3    H131435   0.992   1.087   0.903 -0.6769  0.8890 -1.3700
 3292TIP3    H231436   0.873   1.061   0.812 -1.1035 -1.8139 -0.1252
 3293TIP3   OH231437   5.645   4.816   7.655  0.4125 -0.2148  0.1154
 3293TIP3    H131438   5.599   4.732   7.657 -1.0922  0.5786  1.1453
 3293TIP3    H231439   5.727   4.800   7.702 -0.7880 -0.6635  2.2059
 3294TIP3   OH231440   1.897   0.654   0.332 -0.1186  0.3763 -0.3008
 3294TIP3    H131441   1.853   0.619   0.255 -0.1151  0.5552 -0.3858
 3294TIP3    H231442   1.826   0.688   0.386 -0.4396 -2.3296  1.1615
 3295TIP3   OH231443   2.765   2.500   0.956 -0.0527  0.1491 -0.6298
 3295TIP3    H131444   2.813   2.518   1.037 -0.5926 -1.5469  0.1277
 3295TIP3    H231445   2.789   2.571   0.897  1.0741  0.9346  0.7136
 3296TIP3   OH231446   3.779   0.026   0.344 -0.2096  0.1471 -0.5156
 3296TIP3    H131447   3.733   0.085   0.404  0.8656  0.7079 -0.2173
 3296TIP3    H231448   3.709  -0.019   0.297 -1.0643  0.5437  0.3364
 3297TIP3   OH231449   4.566   3.030   7.575 -0.3267  0.3019  0.5025
 3297TIP3    H131450   4.477   3.038   7.542  0.4252 -0.4635 -1.8646
 3297TIP3    H231451   4.591   3.119   7.598 -2.0458  0.3937  2.3620
 3298TIP3   OH231452   3.185   1.173   2.119 -0.1173 -0.0997  0.4174
 3298TIP3    H131453   3.279   1.171   2.136 -0.4566 -1.6136  2.4655
 3298TIP3    H231454   3.145   1.202   2.201 -1.5119 -0.9732  0.0971
 3299TIP3   OH231455   4.432   0.847   8.565 -0.4756 -0.1725  0.1348
 3299TIP3    H131456   4.505   0.908   8.556 -1.8786  1.3685 -1.4561
 3299TIP3    H231457   4.404   0.829   8.475 -1.5099 -1.4280  0.6729
 3300TIP3   OH231458   3.155   2.287   8.090 -0.5211 -0.0615  0.1099
 3300TIP3    H131459   3.201   2.359   8.048  0.4868  0.3578  1.8382
 3300TIP3    H231460   3.129   2.229   8.018  1.0957  0.6214 -1.0660
 3301TIP3   OH231461   1.881   4.495   0.789  0.2490  0.4551 -0.5452
 3301TIP3    H131462   1.866   4.406   0.821 -1.7529  0.7834 -0.4387
 3301TIP3    H231463   1.937   4.484   0.712  1.6525 -0.6958  0.5934
 3302TIP3   OH231464   5.849   6.296   0.314  0.3125  0.2004 -0.2548
 3302TIP3    H131465   5.771   6.248   0.343  0.0659  0.8622  0.1928
 3302TIP3    H231466   5.914   6.228   0.297  0.0572 -0.2770  0.6366
 3303TIP3   OH231467   2.128   0.151   8.661 -0.0063 -0.7197  0.3370
 3303TIP3    H131468   2.178   0.178   8.583 -2.0840 -1.5493 -1.3870
 3303TIP3    H231469   2.138   0.223   8.722  1.0158  0.3516 -1.0264
 3304TIP3   OH231470   1.630   3.569   8.040 -0.0160 -0.2618 -0.0268
 3304TIP3    H131471   1.596   3.635   8.101 -0.1067 -0.3565  0.0250
 3304TIP3    H231472   1.633   3.614   7.955 -0.9747 -0.4760 -0.1835
 3305TIP3   OH231473   4.377   1.983   1.540  0.4245 -0.0697  0.4574
 3305TIP3    H131474   4.398   1.969   1.632  1.0933 -0.3064  0.2694
 3305TIP3    H231475   4.371   2.078   1.531  2.1183  0.0500  0.3688
 3306TIP3   OH231476   0.606   5.679   7.983 -0.1024 -0.4185 -0.2144
 3306TIP3    H131477   0.695   5.649   8.002  0.5326 -0.0481 -2.2959
 3306TIP3    H231478   0.581   5.730   8.060  0.2467 -3.0090  1.7530
 3307TIP3   OH231479   1.718   3.313   0.464 -0.5193 -0.2345  0.4641
 3307TIP3    H131480   1.754   3.342   0.548  0.4809  0.9004 -0.3258
 3307TIP3    H231481   1.625   3.338   0.468 -0.4266  0.0314  1.1171
 3308TIP3   OH231482   5.089   2.001   7.326 -0.2486 -0.0836  0.2175
 3308TIP3    H131483   5.160   2.015   7.263 -0.0043  0.0814  0.5304
 3308TIP3    H231484   5.024   1.949   7.277  0.4615 -0.9761  0.2012
 3309TIP3   OH231485   5.771   1.813   8.436  0.4725  0.0234  0.2050
 3309TIP3    H131486   5.774   1.836   8.343  0.9441 -0.6139  0.0531
 3309TIP3    H231487   5.860   1.783   8.456  0.1624 -0.6192  0.6554
 3310TIP3   OH231488   2.567   1.804   0.764 -0.1640  0.5904  0.8089
 3310TIP3    H131489   2.570   1.865   0.691  0.8910  0.2692  0.5571
 3310TIP3    H231490   2.622   1.845   0.831  2.0471 -0.8191 -0.0081
 3311TIP3   OH231491   0.998   0.182   1.740 -0.0270 -0.0993 -0.0406
 3311TIP3    H131492   0.988   0.236   1.818  0.1238  1.7398 -1.2238
 3311TIP3    H231493   0.911   0.142   1.727 -0.1277 -0.1953  0.8731
 3312TIP3   OH231494   0.104   4.453   0.456  0.1386 -0.3834 -0.0424
 3312TIP3    H131495   0.058   4.423   0.377  0.5656 -0.8759 -0.1059
 3312TIP3    H231496   0.110   4.375   0.511  2.1318 -0.6815 -0.6263
 3313TIP3   OH231497   5.784   4.832   2.358  0.4973  0.5545 -0.5317
 3313TIP3    H131498   5.793   4.855   2.450  0.0820  1.0942 -0.6226
 3313TIP3    H231499   5.873   4.811   2.330  0.4707 -0.6830  0.2591
 3314TIP3   OH231500   5.494   3.254   7.195  0.9123 -0.3475 -0.0076
 3314TIP3    H131501   5.559   3.236   7.128  0.2810  1.4394 -1.2022
 3314TIP3    H231502   5.518   3.340   7.230  0.1051 -0.3765  0.6719
 3315TIP3   OH231503   1.952   3.480   2.598 -0.1293  0.4855  0.1425
 3315TIP3    H131504   2.012   3.547   2.566  0.7196 -0.4398 -0.3010
 3315TIP3    H231505   2.007   3.402   2.608 -1.0350 -0.0919  0.8477
 3316TIP3   OH231506   5.663   0.640   7.644 -0.0387  0.0184  0.3131
 3316TIP3    H131507   5.710   0.681   7.716  1.1016 -1.2927  0.3603
 3316TIP3    H231508   5.732   0.608   7.585 -0.8971 -0.8493 -0.2538
 3317TIP3   OH231509   4.038   2.652   0.364  0.1925  0.2565  0.0152
 3317TIP3    H131510   3.999   2.626   0.280 -1.0401  1.9767 -0.0023
 3317TIP3    H231511   4.006   2.587   0.427  0.3920 -0.5250 -0.6695
 3318TIP3   OH231512   2.940   2.063   1.843 -0.6288 -0.3299 -0.5352
 3318TIP3    H131513   2.980   1.977   1.826 -1.3523 -0.9083  0.5731
 3318TIP3    H231514   2.898   2.053   1.928 -1.8664  0.7174 -1.0011
 3319TIP3   OH231515   3.987   3.757   7.356  0.0021  0.5135 -0.2020
 3319TIP3    H131516   3.953   3.837   7.395  0.4257  0.0260  1.2500
 3319TIP3    H231517   3.930   3.740   7.281 -1.0088  1.3660  0.3524
 3320TIP3   OH231518   3.310   5.648   8.617  0.0720 -0.0513 -0.0489
 3320TIP3    H131519   3.244   5.617   8.679  1.2010 -1.4042  0.5083
 3320TIP3    H231520   3.259   5.693   8.550 -1.2557  0.5815  1.3294
 3321TIP3   OH231521   2.274   4.335   7.109 -0.6864  0.0432  0.4875
 3321TIP3    H131522   2.251   4.327   7.017 -1.6024 -1.6684  0.8397
 3321TIP3    H231523   2.346   4.273   7.121  0.2527  1.1291  0.6946
 3322TIP3   OH231524   5.394   2.631   0.467 -0.2870  0.3578 -0.1753
 3322TIP3    H131525   5.483   2.601   0.448 -0.6724 -2.1646  1.4803
 3322TIP3    H231526   5.373   2.689   0.394  2.2651  0.0939 -1.2561
 3323TIP3   OH231527   5.293   4.760   1.644 -0.4396  0.0850 -0.2586
 3323TIP3    H131528   5.373   4.800   1.679  0.0888 -1.9359  0.9886
 3323TIP3    H231529   5.228   4.775   1.712 -0.0047 -1.8430  0.6545
 3324TIP3   OH231530   3.745   0.122   8.487 -0.4653  0.0802  0.2709
 3324TIP3    H131531   3.775   0.062   8.418  3.6182  0.1798  1.6995
 3324TIP3    H231532   3.714   0.065   8.557  0.0829 -0.2216  0.2699
 3325TIP3   OH231533   3.956   0.475   1.505  0.5482 -0.0982 -0.0435
 3325TIP3    H131534   3.895   0.427   1.560  0.3444  1.1088  0.8270
 3325TIP3    H231535   3.905   0.548   1.470  1.0297 -0.0917 -0.7691
 3326TIP3   OH231536   1.717   3.137   7.356 -0.1650  0.5960 -0.4828
 3326TIP3    H131537   1.714   3.190   7.276  0.5176  2.8237  0.8826
 3326TIP3    H231538   1.691   3.197   7.425  0.2394 -1.0087  1.1248
 3327TIP3   OH231539   6.458   2.068   1.510  0.0746  0.1322  0.1423
 3327TIP3    H131540   6.438   2.005   1.580 -0.7298 -0.2385 -0.4140
 3327TIP3    H231541   6.422   2.029   1.431  0.9354  0.5764 -0.4908
 3328TIP3   OH231542   4.814   5.747   1.140 -0.8625  0.0495 -0.0259
 3328TIP3    H131543   4.869   5.815   1.179  0.1201 -0.5513 -0.3386
 3328TIP3    H231544   4.745   5.796   1.094 -0.4801  0.8188  0.1976
 3329TIP3   OH231545   6.541   4.914   8.842 -0.0660  0.0874  0.3819
 3329TIP3    H131546   6.608   4.846   8.830  0.0583  0.3439 -0.4886
 3329TIP3    H231547   6.460   4.865   8.853  0.2683 -0.2277  1.5190
 3330TIP3   OH231548   0.222   4.073   7.748 -0.5329  0.1401 -0.0203
 3330TIP3    H131549   0.135   4.107   7.727 -0.6878 -0.2604 -0.0308
 3330TIP3    H231550   0.207   3.985   7.783 -0.1302  0.0426 -0.0782
 3331TIP3   OH231551   2.439   1.351   2.841  0.7174 -0.0105  0.1080
 3331TIP3    H131552   2.417   1.261   2.815  1.9817 -0.2693 -0.1117
 3331TIP3    H231553   2.459   1.396   2.759 -1.1792  0.8774  0.0657
 3332TIP3   OH231554   0.279   4.330   1.388 -0.2588  0.2479 -0.4264
 3332TIP3    H131555   0.319   4.370   1.310 -0.5918 -0.1948 -0.8291
 3332TIP3    H231556   0.259   4.240   1.361 -2.9102  0.8688 -0.7262
 3333TIP3   OH231557   0.925   4.568   1.966 -0.9128 -0.2017 -0.5081
 3333TIP3    H131558   0.841   4.569   2.011 -1.6578  0.6690 -1.8629
 3333TIP3    H231559   0.969   4.490   2.000 -0.4466  1.5077  3.3972
 3334TIP3   OH231560   2.292   2.829   1.906 -0.0680  0.8191 -0.1362
 3334TIP3    H131561   2.320   2.759   1.848  0.1041 -1.0683  2.0453
 3334TIP3    H231562   2.315   2.909   1.861  1.2443 -0.5561 -2.0469
 3335TIP3   OH231563   0.928   4.600   0.430 -0.5931 -0.0516 -0.8086
 3335TIP3    H131564   0.953   4.512   0.402  0.4147  0.2096 -0.7504
 3335TIP3    H231565   0.880   4.636   0.356 -0.9182 -0.5991 -0.8761
 3336TIP3   OH231566   5.203   6.025   8.057  0.5449  0.0807 -0.0457
 3336TIP3    H131567   5.176   5.939   8.089  0.3573  0.2701  0.3120
 3336TIP3    H231568   5.282   6.046   8.106  0.6070  0.1014 -0.1529
 3337TIP3   OH231569   3.220   3.698   7.697 -0.4428 -0.6573 -0.3441
 3337TIP3    H131570   3.132   3.677   7.729 -1.2080  1.0519 -1.1908
 3337TIP3    H231571   3.252   3.617   7.658 -0.3643 -2.1976  2.6195
 3338TIP3   OH231572   0.478   1.420   1.143 -0.7976 -0.4190  0.6709
 3338TIP3    H131573   0.494   1.461   1.228  1.1750  0.7791 -0.2205
 3338TIP3    H231574   0.421   1.482   1.097  0.0658  0.0925  0.2740
 3339TIP3   OH231575   1.690   0.369   8.872 -0.4619  0.1819  0.2289
 3339TIP3    H131576   1.654   0.454   8.846 -1.3340 -0.0722  0.5735
 3339TIP3    H231577   1.678   0.313   8.795 -1.4739 -0.0957  0.5705
 3340TIP3   OH231578   3.082   0.789   0.278 -0.5108 -0.5036  0.3588
 3340TIP3    H131579   3.032   0.850   0.332  0.5523  0.6072  0.1368
 3340TIP3    H231580   3.158   0.839   0.250  0.3678 -1.9306  0.1046
 3341TIP3   OH231581   0.050   2.285   7.842 -0.3043 -0.8445 -0.0907
 3341TIP3    H131582   0.089   2.373   7.840  2.1763 -1.8402  0.6849
 3341TIP3    H231583   0.020   2.271   7.752  0.9880  0.0854 -0.7041
 3342TIP3   OH231584   0.894   6.626   2.713 -0.0666  0.0610 -0.5233
 3342TIP3    H131585   0.970   6.575   2.684 -0.0554  0.5452 -1.3768
 3342TIP3    H231586   0.819   6.569   2.699  0.0269 -0.0123 -0.7267
 3343TIP3   OH231587   1.422   4.689   7.375 -0.1978  0.3215  0.5355
 3343TIP3    H131588   1.462   4.719   7.457  1.0636 -0.3154  0.1833
 3343TIP3    H231589   1.330   4.674   7.397  0.4926 -1.7604  2.3902
 3344TIP3   OH231590   1.308   6.561   1.204 -0.4671  0.5202  0.1716
 3344TIP3    H131591   1.219   6.550   1.172 -0.6161  2.0966 -0.0081
 3344TIP3    H231592   1.358   6.587   1.126  0.9946 -3.7563 -0.6063
 3345TIP3   OH231593   2.282   2.879   6.753 -0.1276 -0.1453 -0.2892
 3345TIP3    H131594   2.232   2.803   6.724 -2.5573  1.6313 -1.2081
 3345TIP3    H231595   2.330   2.907   6.675 -1.7685  1.0380 -0.9326
 3346TIP3   OH231596   5.391   2.902   2.257  0.0897  0.1765 -0.2218
 3346TIP3    H131597   5.474   2.947   2.270  0.3527 -0.1685 -0.6842
 3346TIP3    H231598   5.338   2.964   2.206  0.9559 -0.5779 -2.0957
 3347TIP3   OH231599   4.060   5.672   0.003 -0.1068  0.6226 -0.5805
 3347TIP3    H131600   4.115   5.712   0.071  0.9329  0.5972 -1.3961
 3347TIP3    H231601   4.023   5.746  -0.044 -1.0753  0.6461  0.1779
 3348TIP3   OH231602   1.385   2.672   7.702 -0.2791  0.2371 -0.5126
 3348TIP3    H131603   1.290   2.658   7.694  0.0973 -2.9186 -0.9116
 3348TIP3    H231604   1.403   2.663   7.795 -0.2515 -0.3246 -0.5690
 3349TIP3   OH231605   6.511   0.815   1.168 -0.1468 -0.1987  0.1732
 3349TIP3    H131606   6.496   0.823   1.074 -0.5565  0.6943  0.3007
 3349TIP3    H231607   6.557   0.895   1.192 -0.7844 -0.0215  0.8655
 3350TIP3   OH231608   3.270   3.513   0.419 -0.2072  0.2031 -0.6952
 3350TIP3    H131609   3.302   3.602   0.404  0.9884 -0.4128 -1.9865
 3350TIP3    H231610   3.195   3.505   0.360 -0.4331  0.3979 -0.4412
 3351TIP3   OH231611   3.527   0.656   7.949  0.2297  1.0101  0.2978
 3351TIP3    H131612   3.524   0.566   7.917  1.4211  1.4900 -1.2193
 3351TIP3    H231613   3.441   0.692   7.926  0.2692  0.6894 -0.3604
 3352TIP3   OH231614   3.727   3.400   0.147  0.1808  0.2448  0.3223
 3352TIP3    H131615   3.731   3.492   0.173 -1.3670  0.2676  0.5619
 3352TIP3    H231616   3.726   3.352   0.229 -0.0360  0.0684  0.2154
 3353TIP3   OH231617   2.178   5.753   7.848 -0.0654 -0.4388 -0.3575
 3353TIP3    H131618   2.214   5.826   7.899  0.4199  0.3940 -1.8477
 3353TIP3    H231619   2.248   5.688   7.847 -0.5064 -0.9822  0.9908
 3354TIP3   OH231620   5.403   3.043   7.829 -0.1175 -0.1395 -0.1328
 3354TIP3    H131621   5.473   3.084   7.778  0.6843 -0.5426  0.6086
 3354TIP3    H231622   5.396   2.954   7.794 -0.0542 -0.1908 -0.0177
 3355TIP3   OH231623   3.327   0.575   1.465 -0.2021  0.3154 -0.0257
 3355TIP3    H131624   3.273   0.629   1.522  0.3105  1.1153 -0.2826
 3355TIP3    H231625   3.304   0.485   1.488 -0.2611  0.6321  1.1771
 3356TIP3   OH231626   3.438   0.895   6.703 -0.2890 -0.6275 -0.1972
 3356TIP3    H131627   3.460   0.802   6.709  0.9173 -0.2822  1.3447
 3356TIP3    H231628   3.504   0.932   6.645  1.5425 -0.1348  2.0593
 3357TIP3   OH231629   3.646   3.571   7.328 -0.1471  0.6132  0.1524
 3357TIP3    H131630   3.662   3.663   7.349 -0.2668  0.7774 -0.4659
 3357TIP3    H231631   3.551   3.564   7.323 -0.2350  0.0685  1.8913
 3358TIP3   OH231632   2.340   3.954   8.811 -0.1927  0.3209  0.3723
 3358TIP3    H131633   2.393   3.924   8.737 -1.6064 -0.2602 -0.4244
 3358TIP3    H231634   2.267   4.000   8.771 -1.5918 -0.9687  1.3510
 3359TIP3   OH231635   5.657   6.006   1.839 -0.4113 -0.0549  0.1769
 3359TIP3    H131636   5.621   5.959   1.764 -1.6068 -0.1244  0.7713
 3359TIP3    H231637   5.622   6.094   1.831 -1.0827 -0.2341  0.9925
 3360TIP3   OH231638   4.393   2.007   7.381  0.5630 -0.0910  0.4319
 3360TIP3    H131639   4.481   2.018   7.345  0.2865 -0.0381 -0.2617
 3360TIP3    H231640   4.350   1.946   7.320 -0.0436  0.3090  0.4500
 3361TIP3   OH231641   5.712   4.227   7.896  0.2292  0.7004  0.3845
 3361TIP3    H131642   5.710   4.323   7.893  0.5084  0.7850  1.9986
 3361TIP3    H231643   5.780   4.207   7.961 -0.7500 -0.5504  1.0701
 3362TIP3   OH231644   0.687   6.101   9.128  0.3845 -0.5193 -0.3724
 3362TIP3    H131645   0.659   6.021   9.083  0.2645  0.3437 -1.8940
 3362TIP3    H231646   0.610   6.157   9.129  0.7264 -0.0457 -0.1513
 3363TIP3   OH231647   0.754   6.108   7.565 -0.8391 -0.4120 -0.3260
 3363TIP3    H131648   0.737   6.165   7.490 -1.4244  0.0784  0.1708
 3363TIP3    H231649   0.681   6.125   7.625  1.8822  2.6577  2.4853
 3364TIP3   OH231650   1.865   4.063   8.474  0.1737  0.4556  0.2078
 3364TIP3    H131651   1.824   4.103   8.397  0.2484  1.6795  0.7833
 3364TIP3    H231652   1.797   4.007   8.511 -0.1380  0.5142 -0.2604
 3365TIP3   OH231653   6.454   1.343   8.330 -0.7408 -0.2886 -0.2576
 3365TIP3    H131654   6.422   1.433   8.329 -1.4864 -0.4598  2.2812
 3365TIP3    H231655   6.430   1.308   8.244 -1.8325  1.4525 -0.7031
 3366TIP3   OH231656   5.810   5.107   0.570 -0.0475 -0.1092 -0.0222
 3366TIP3    H131657   5.866   5.185   0.564  0.5798 -0.6221 -1.0383
 3366TIP3    H231658   5.871   5.035   0.582 -0.4555 -0.6865 -1.2323
 3367TIP3   OH231659   2.264   5.731   2.022  0.2398 -0.2280  0.0892
 3367TIP3    H131660   2.218   5.813   2.001  2.4067  0.7229 -1.3417
 3367TIP3    H231661   2.237   5.711   2.111  0.8215  2.9637  1.1370
 3368TIP3   OH231662   6.514   3.182   7.645  0.1265  0.1915 -0.3095
 3368TIP3    H131663   6.572   3.257   7.633  1.4716 -0.8302 -0.4981
 3368TIP3    H231664   6.489   3.157   7.556 -1.2303  1.0416 -0.2107
 3369TIP3   OH231665   2.456   3.105   1.162 -0.0813 -0.0756  0.1094
 3369TIP3    H131666   2.388   3.039   1.168 -1.8906  1.7427  0.8637
 3369TIP3    H231667   2.463   3.124   1.068 -0.7981 -0.1198  0.0454
 3370TIP3   OH231668   2.080   5.648   9.207 -0.5835 -0.5282 -0.1707
 3370TIP3    H131669   2.042   5.615   9.126 -0.0618 -2.6002  0.3712
 3370TIP3    H231670   2.006   5.657   9.267 -0.8423  0.1293 -0.5795
 3371TIP3   OH231671   3.267   1.148   8.722 -0.0158  0.4920  0.5191
 3371TIP3    H131672   3.212   1.202   8.780 -0.5204  1.9410 -1.2084
 3371TIP3    H231673   3.225   1.062   8.723 -1.0343  0.9696  0.9435
 3372TIP3   OH231674   3.921   5.529   8.735 -0.0529 -0.7162 -0.3095
 3372TIP3    H131675   3.914   5.572   8.650 -1.5349 -0.0453  0.1335
 3372TIP3    H231676   3.992   5.465   8.723 -0.8754 -1.3386 -2.3503
 3373TIP3   OH231677   5.755   4.520   0.012 -0.3055 -0.6868 -0.1422
 3373TIP3    H131678   5.713   4.530   0.097 -0.2572 -2.4739  0.1234
 3373TIP3    H231679   5.793   4.433   0.014 -1.3201 -1.2511 -2.4356
 3374TIP3   OH231680   5.381   1.666   0.474  0.5498 -0.4764  0.0821
 3374TIP3    H131681   5.344   1.582   0.503 -0.4313 -0.1653 -0.2456
 3374TIP3    H231682   5.376   1.663   0.379  0.9461 -0.2253  0.0502
 3375TIP3   OH231683   3.653   5.735   9.141 -0.5089  0.1861 -0.2042
 3375TIP3    H131684   3.670   5.642   9.158  0.3710  0.4447  0.3960
 3375TIP3    H231685   3.681   5.747   9.050 -0.7256 -0.1593 -0.3196
 3376TIP3   OH231686   3.518   1.596   7.140 -0.9591  0.6372  0.1444
 3376TIP3    H131687   3.597   1.560   7.180 -1.6066  0.0747  0.9509
 3376TIP3    H231688   3.533   1.586   7.045 -0.7178 -0.9182  0.3167
 3377TIP3   OH231689   1.889   0.536   2.057 -0.0347 -0.2420 -0.0805
 3377TIP3    H131690   1.942   0.607   2.021 -1.1296  0.7877  0.2799
 3377TIP3    H231691   1.922   0.458   2.014  0.7045  0.5766 -1.0549
 3378TIP3   OH231692   6.316   5.955   2.771 -0.0346 -1.0206  0.3675
 3378TIP3    H131693   6.294   5.871   2.731 -0.0862 -1.1088  0.5782
 3378TIP3    H231694   6.311   6.018   2.699  4.0862 -1.7700 -0.8156
 3379TIP3   OH231695   3.128   2.210   7.800 -0.0976 -0.3125 -0.2029
 3379TIP3    H131696   3.059   2.144   7.793 -0.0443 -0.2591 -1.6737
 3379TIP3    H231697   3.131   2.250   7.713  1.1012  0.3801  0.1353
 3380TIP3   OH231698   1.480   3.219   0.114 -0.2369 -0.1577  0.2626
 3380TIP3    H131699   1.444   3.142   0.069 -1.7112  0.1484  0.8593
 3380TIP3    H231700   1.539   3.181   0.180 -0.5930 -0.7531  0.2504
 3381TIP3   OH231701   0.479   4.334   2.457  0.7794  0.2998 -0.3525
 3381TIP3    H131702   0.502   4.282   2.379  0.4546  0.0655 -0.2960
 3381TIP3    H231703   0.530   4.414   2.449  0.9686  0.1489 -0.6602
 3382TIP3   OH231704   1.208   0.991   0.159  0.2876 -0.6796 -0.0601
 3382TIP3    H131705   1.303   1.006   0.159  0.5031 -1.8631  1.1246
 3382TIP3    H231706   1.199   0.896   0.169 -1.0025 -0.3836  2.3645
 3383TIP3   OH231707   3.715   1.949   0.840  0.2082  0.0514  0.1334
 3383TIP3    H131708   3.806   1.957   0.870 -0.4069  0.0627  2.1550
 3383TIP3    H231709   3.676   1.885   0.899 -0.7937 -0.9515 -1.5365
 3384TIP3   OH231710   4.165   0.155   8.124  0.4209  0.6551  0.0795
 3384TIP3    H131711   4.078   0.161   8.083 -0.2446 -1.4249  1.0186
 3384TIP3    H231712   4.195   0.245   8.130 -1.0605  1.3250 -1.5527
 3385TIP3   OH231713   2.860   3.259   0.503  0.2095  0.1272 -0.5882
 3385TIP3    H131714   2.856   3.234   0.411 -0.1161 -1.0894 -0.2546
 3385TIP3    H231715   2.910   3.341   0.503 -1.0230  0.9238 -1.9833
 3386TIP3   OH231716   2.781   2.689   9.317 -0.5830  0.0352  0.0215
 3386TIP3    H131717   2.812   2.714   9.230 -1.4987  1.2852  0.0172
 3386TIP3    H231718   2.742   2.603   9.305 -1.6690  0.6441 -1.0636
 3387TIP3   OH231719   5.796   2.383   7.869  0.1570 -0.2799 -0.6833
 3387TIP3    H131720   5.778   2.444   7.940 -2.1993 -1.7985  0.1643
 3387TIP3    H231721   5.782   2.434   7.789 -1.7552  0.3392 -0.0072
 3388TIP3   OH231722   6.290   3.557   7.975  0.3278 -0.0172 -1.1798
 3388TIP3    H131723   6.239   3.621   7.925 -0.6717 -0.3653 -0.6313
 3388TIP3    H231724   6.262   3.472   7.941 -2.1057 -0.4096  1.4520
 3389TIP3   OH231725   3.801   4.053   9.088 -0.1150 -0.8263 -0.4761
 3389TIP3    H131726   3.829   4.115   9.155 -3.0616 -0.1653  0.2921
 3389TIP3    H231727   3.782   4.107   9.012 -0.4864 -1.0748 -0.5640
 3390TIP3   OH231728   4.171   6.229   7.345  0.0709 -0.1104  0.2611
 3390TIP3    H131729   4.218   6.210   7.264 -1.9618 -0.6356 -0.8568
 3390TIP3    H231730   4.133   6.316   7.331  0.0530 -0.0179  0.8441
 3391TIP3   OH231731   3.988   5.617   2.958  0.0860  0.4585  0.0794
 3391TIP3    H131732   3.977   5.702   3.001 -0.9409  1.4661 -2.0187
 3391TIP3    H231733   3.898   5.588   2.940  0.3377 -1.7464  1.8521
 3392TIP3   OH231734   4.519   3.268   0.136  0.0273  0.2689 -0.1290
 3392TIP3    H131735   4.473   3.191   0.172 -0.4131 -0.0673 -1.3615
 3392TIP3    H231736   4.512   3.334   0.205  0.2507 -0.7292  0.8837
 3393TIP3   OH231737   3.664   3.350   0.430  0.8989 -0.4808  0.1457
 3393TIP3    H131738   3.726   3.279   0.415  2.2340  0.6719 -0.0415
 3393TIP3    H231739   3.708   3.408   0.492 -0.3886 -0.0850  0.7292
 3394TIP3   OH231740   2.099   1.235   2.493 -0.5225 -0.0216  0.4162
 3394TIP3    H131741   2.180   1.287   2.492 -1.2167  1.1220 -0.8544
 3394TIP3    H231742   2.123   1.152   2.453  0.1698  0.0828  0.6061
 3395TIP3   OH231743   6.219   0.952   0.384 -0.1150  0.1319 -0.8712
 3395TIP3    H131744   6.307   0.924   0.407 -0.2301  0.4754  0.0447
 3395TIP3    H231745   6.176   0.872   0.353 -0.3634 -0.7236  1.4750
 3396TIP3   OH231746   5.817   3.499   8.040 -0.1945 -0.2082  0.6815
 3396TIP3    H131747   5.721   3.502   8.043 -0.3629 -2.0145 -0.5890
 3396TIP3    H231748   5.841   3.570   7.982 -1.0818 -1.6726 -1.6450
 3397TIP3   OH231749   2.373   4.051   7.850  0.4964  0.4463 -0.3271
 3397TIP3    H131750   2.461   4.016   7.836  0.9706  1.3665  0.2810
 3397TIP3    H231751   2.342   4.008   7.930 -0.8720 -2.2215 -2.1221
 3398TIP3   OH231752   2.378   4.734   0.486 -1.1282  0.0742 -0.0517
 3398TIP3    H131753   2.457   4.745   0.539 -1.6739 -0.6128  0.9278
 3398TIP3    H231754   2.397   4.781   0.405  1.0279 -1.6428 -0.6277
 3399TIP3   OH231755   0.474   1.664   7.992 -0.4172 -0.2370 -0.6736
 3399TIP3    H131756   0.532   1.731   8.027  0.6062 -1.3972 -0.0703
 3399TIP3    H231757   0.397   1.712   7.961  1.0307  1.3973 -1.9086
 3400TIP3   OH231758   3.516   5.744   0.370  0.1725  0.1676 -0.2894
 3400TIP3    H131759   3.511   5.761   0.276 -0.0622  1.2717 -0.0919
 3400TIP3    H231760   3.558   5.822   0.406 -0.8922  0.3157  0.6718
 3401TIP3   OH231761   6.170   6.118   0.969  0.7137 -0.1318  0.3405
 3401TIP3    H131762   6.164   6.110   1.064  0.4889 -0.1605  0.3261
 3401TIP3    H231763   6.146   6.032   0.936 -0.6651  0.2710  0.2198
 3402TIP3   OH231764   0.559   5.881   7.812 -0.3721 -0.8379 -0.1937
 3402TIP3    H131765   0.489   5.928   7.859 -1.8729 -1.8363 -1.3314
 3402TIP3    H231766   0.583   5.809   7.870  1.1724  0.6163  1.0778
 3403TIP3   OH231767   4.659   6.205   0.604  0.4449 -0.4541  0.1936
 3403TIP3    H131768   4.668   6.269   0.674  1.5121  0.4143 -0.6908
 3403TIP3    H231769   4.662   6.120   0.648 -0.8484  0.0718  1.3735
 3404TIP3   OH231770   3.613   6.605   1.000  0.2645  0.0487  0.1634
 3404TIP3    H131771   3.708   6.605   1.011  0.4558  1.5234 -1.1686
 3404TIP3    H231772   3.585   6.689   1.037 -0.3213  0.3082 -0.8369
 3405TIP3   OH231773   0.362   5.210   1.169 -0.5042 -0.4922 -0.5452
 3405TIP3    H131774   0.290   5.206   1.107  0.2331  0.8436 -1.5521
 3405TIP3    H231775   0.439   5.183   1.119  0.2054  1.1544 -0.4429
 3406TIP3   OH231776   3.582   1.520   6.848 -0.0083  0.2469 -0.6894
 3406TIP3    H131777   3.650   1.456   6.870 -0.2533  0.4283  0.7376
 3406TIP3    H231778   3.629   1.601   6.831  0.1905  0.1265 -0.7118
 3407TIP3   OH231779   0.367   1.380   1.672 -0.2661  0.0092  0.1581
 3407TIP3    H131780   0.445   1.435   1.659 -0.2054  0.2181  1.2614
 3407TIP3    H231781   0.321   1.422   1.745 -1.0946 -0.4661 -0.0880
 3408TIP3   OH231782   2.508   5.560   1.935  0.1921  0.1040  0.1417
 3408TIP3    H131783   2.460   5.478   1.946  1.1563 -0.3616  1.0962
 3408TIP3    H231784   2.443   5.628   1.947 -0.5658 -0.5175 -0.3630
 3409TIP3   OH231785   2.845   3.303   8.935  0.4137 -0.1455 -0.1073
 3409TIP3    H131786   2.901   3.270   9.005 -1.0109 -0.2035  1.0556
 3409TIP3    H231787   2.903   3.313   8.860  2.2857  1.1580  1.4189
 3410TIP3   OH231788   5.150   4.144   7.419  0.4840  0.3046  0.3053
 3410TIP3    H131789   5.186   4.198   7.349 -2.3741  1.8048 -0.1552
 3410TIP3    H231790   5.073   4.102   7.380  0.0585 -0.5539  1.9575
 3411TIP3   OH231791   6.289   1.934   1.338  0.3129 -0.2270 -0.2503
 3411TIP3    H131792   6.226   1.961   1.404 -0.9621 -0.7315 -1.2096
 3411TIP3    H231793   6.239   1.933   1.256  0.6531 -3.7435 -0.5785
 3412TIP3   OH231794   2.811   0.089   1.542 -0.4574  0.6534  0.2070
 3412TIP3    H131795   2.769   0.159   1.591 -0.9560 -0.9510  2.2706
 3412TIP3    H231796   2.874   0.052   1.604 -0.0167 -0.5267 -0.8971
 3413TIP3   OH231797   1.382   2.290   1.363 -0.1206  0.0387 -0.1015
 3413TIP3    H131798   1.296   2.283   1.403 -0.4725  2.0661 -0.3980
 3413TIP3    H231799   1.407   2.200   1.344 -0.9885 -0.8076  2.3974
 3414TIP3   OH231800   3.445   4.847   8.171  0.3910 -0.1843  0.3017
 3414TIP3    H131801   3.520   4.903   8.146  0.6223 -1.1122 -1.2676
 3414TIP3    H231802   3.455   4.769   8.116 -1.2584 -0.7127  0.7024
 3415TIP3   OH231803   6.419   3.050   8.394  0.6542  0.0230 -0.2838
 3415TIP3    H131804   6.426   3.017   8.305 -1.2696  1.5528 -1.0758
 3415TIP3    H231805   6.453   3.139   8.390 -2.4671  1.3369 -0.3635
 3416TIP3   OH231806   4.986   1.699   1.260  0.1116  0.1807  0.2749
 3416TIP3    H131807   5.045   1.763   1.220  0.2929 -0.0947  0.1095
 3416TIP3    H231808   5.025   1.614   1.242 -1.1127 -0.1203 -1.1866
 3417TIP3   OH231809   1.859   6.191   2.355  0.0100 -0.0510  0.4261
 3417TIP3    H131810   1.768   6.211   2.374 -0.2216  1.0628 -1.5810
 3417TIP3    H231811   1.881   6.248   2.281  1.0765 -3.2216 -1.9265
 3418TIP3   OH231812   6.290   0.992   1.802  0.5049 -0.0138 -0.2288
 3418TIP3    H131813   6.385   0.991   1.790  0.3841  0.2980 -1.3792
 3418TIP3    H231814   6.277   0.981   1.896  1.6396 -1.6155 -0.2088
 3419TIP3   OH231815   1.512   4.485   0.939 -0.0508  0.0568  0.2635
 3419TIP3    H131816   1.521   4.395   0.969  0.9378 -0.4458 -1.4386
 3419TIP3    H231817   1.420   4.492   0.911 -0.3007 -0.1971  0.9834
 3420TIP3   OH231818   2.683   2.432   9.246 -0.7044  0.8739  0.2368
 3420TIP3    H131819   2.675   2.379   9.326 -1.5188 -0.2480 -0.5591
 3420TIP3    H231820   2.593   2.443   9.216 -0.4779  2.0819 -0.0414
 3421TIP3   OH231821   0.104   3.469   8.756 -0.0249 -0.0081 -0.1293
 3421TIP3    H131822   0.027   3.524   8.741  0.9554  0.9583 -2.0012
 3421TIP3    H231823   0.075   3.381   8.734 -0.6288  0.3366 -0.7545
 3422TIP3   OH231824   2.539   3.184   0.317 -0.7986  0.5938 -0.2498
 3422TIP3    H131825   2.574   3.227   0.396 -1.4380  3.2751 -1.3141
 3422TIP3    H231826   2.558   3.091   0.330 -0.1616  1.0328  2.6786
 3423TIP3   OH231827   3.881   0.604   8.871 -0.0060 -0.6875  0.6547
 3423TIP3    H131828   3.789   0.627   8.859  0.0797 -0.3094  0.6887
 3423TIP3    H231829   3.881   0.543   8.945 -0.4656 -2.5185 -0.7818
 3424TIP3   OH231830   3.262   4.894   0.980  0.2378  0.2415  0.2640
 3424TIP3    H131831   3.174   4.921   1.005  0.2161 -0.8598  1.4918
 3424TIP3    H231832   3.279   4.816   1.033  1.9023  0.3576 -0.0439
 3425TIP3   OH231833   1.226   4.354   0.095  0.1877 -0.4913 -0.5168
 3425TIP3    H131834   1.316   4.327   0.077  0.1486 -1.7394  0.9525
 3425TIP3    H231835   1.234   4.417   0.167 -0.0628  0.0376 -0.9447
 3426TIP3   OH231836   5.062   0.999   8.960  0.3448  0.3648 -0.0044
 3426TIP3    H131837   5.081   0.928   9.021  1.6117 -1.0941 -1.9865
 3426TIP3    H231838   5.109   1.074   8.995 -0.7461  0.2148  1.9544
 3427TIP3   OH231839   6.618   5.211   0.021 -0.5198 -0.4130 -0.1823
 3427TIP3    H131840   6.577   5.166   0.094  1.0906  0.7211  1.5254
 3427TIP3    H231841   6.593   5.303   0.033 -1.2019 -0.3672 -1.7690
 3428TIP3   OH231842   0.150   3.266   6.913 -0.4408  0.4882  0.3088
 3428TIP3    H131843   0.066   3.243   6.954 -0.7326 -1.4361 -1.2038
 3428TIP3    H231844   0.133   3.262   6.819  1.4388 -0.3992 -0.0421
 3429TIP3   OH231845   3.067   4.711   9.261 -0.1960 -0.1258 -0.3918
 3429TIP3    H131846   3.017   4.717   9.179  0.2891  0.2643 -0.6644
 3429TIP3    H231847   3.129   4.784   9.256 -1.4119  1.0980  1.1780
 3430TIP3   OH231848   1.681   3.725   1.616 -0.8189 -0.7567 -0.3744
 3430TIP3    H131849   1.664   3.673   1.694 -1.1325  0.7987  0.6406
 3430TIP3    H231850   1.774   3.710   1.597 -0.8399 -1.4612  0.0640
 3431TIP3   OH231851   5.646   3.072   2.326  0.2024 -0.1114 -0.2319
 3431TIP3    H131852   5.694   2.996   2.358  2.4432  0.5908 -1.6567
 3431TIP3    H231853   5.673   3.144   2.383  1.0581  0.3205 -1.1396
 3432TIP3   OH231854   2.716   5.408   0.701 -0.4616 -0.0483  0.3464
 3432TIP3    H131855   2.650   5.397   0.632 -0.4097  0.0395  0.2832
 3432TIP3    H231856   2.692   5.343   0.767 -0.2970 -0.3849  0.0798
 3433TIP3   OH231857   4.674   0.308   0.836 -0.3878  0.7484  0.2292
 3433TIP3    H131858   4.647   0.293   0.926  1.1692  0.1464  0.6255
 3433TIP3    H231859   4.671   0.404   0.826 -0.7128  0.8084  0.8548
 3434TIP3   OH231860   6.319   0.579   8.851 -0.1440  0.0492 -0.4223
 3434TIP3    H131861   6.320   0.483   8.847  1.3254  0.0016  0.2491
 3434TIP3    H231862   6.326   0.598   8.945  0.2666  0.8011 -0.6017
 3435TIP3   OH231863   4.175   2.508   1.105 -0.1899  0.0071 -0.5937
 3435TIP3    H131864   4.216   2.574   1.161 -1.0047  1.1300 -1.2854
 3435TIP3    H231865   4.210   2.525   1.018  0.0936 -0.9175 -0.6749
 3436TIP3   OH231866   0.929   3.876   0.582  0.1897 -0.2121  0.2220
 3436TIP3    H131867   1.007   3.909   0.538 -0.8773  0.2670 -1.4076
 3436TIP3    H231868   0.954   3.871   0.674  1.4616  2.0296  0.0734
 3437TIP3   OH231869   5.463   0.290   1.729  0.0372  0.5850  0.0665
 3437TIP3    H131870   5.487   0.227   1.661 -0.8755 -0.9294  1.0919
 3437TIP3    H231871   5.380   0.327   1.699 -0.6806 -0.5326  0.6049
 3438TIP3   OH231872   2.472   2.837   8.807  0.2122  0.5293  0.4198
 3438TIP3    H131873   2.560   2.868   8.783  0.1229  0.4726 -0.0002
 3438TIP3    H231874   2.413   2.894   8.756  0.0760 -1.4832 -1.8460
 3439TIP3   OH231875   1.465   4.892   9.002  0.0171  0.0004 -0.3138
 3439TIP3    H131876   1.558   4.874   9.016  0.3768 -0.8285 -3.1404
 3439TIP3    H231877   1.420   4.826   9.055  1.0899 -0.8037 -0.3730
 3440TIP3   OH231878   3.114   5.731   7.535  0.5216  0.2120 -0.0379
 3440TIP3    H131879   3.022   5.755   7.548  1.0599  2.2696  0.3129
 3440TIP3    H231880   3.113   5.676   7.457 -0.9308  0.7808 -0.4625
 3441TIP3   OH231881   2.311   5.382   2.017  0.5721  0.2773  0.2461
 3441TIP3    H131882   2.291   5.317   1.950  1.1192  1.2034 -0.8565
 3441TIP3    H231883   2.225   5.413   2.047  0.3206  0.5561 -0.7496
 3442TIP3   OH231884   4.777   6.000   0.330  0.4149 -0.0162  0.1976
 3442TIP3    H131885   4.691   5.967   0.305 -0.0422  0.5174  1.0262
 3442TIP3    H231886   4.825   5.921   0.357  0.1802 -0.3143 -0.2462
 3443TIP3   OH231887   1.442   2.993   8.201  0.0733 -0.3889 -0.2079
 3443TIP3    H131888   1.467   3.069   8.253 -0.3638 -0.3054 -0.1237
 3443TIP3    H231889   1.381   3.026   8.136 -1.8352 -1.0144  1.1800
 3444TIP3   OH231890   5.155   6.482   0.156  0.6142 -0.4289 -0.0786
 3444TIP3    H131891   5.167   6.552   0.092  1.3718 -1.6990 -1.3858
 3444TIP3    H231892   5.094   6.422   0.115 -0.3059 -0.3867  1.1774
 3445TIP3   OH231893   4.501   6.269   1.351  0.2184  0.6577  0.8447
 3445TIP3    H131894   4.460   6.340   1.302  0.7228  1.6377  1.8244
 3445TIP3    H231895   4.591   6.296   1.362  0.4584 -0.2177  1.1072
 3446TIP3   OH231896   5.350   4.477   7.888  0.0639  0.4689 -0.3163
 3446TIP3    H131897   5.363   4.392   7.929  0.3087 -1.5512 -4.1970
 3446TIP3    H231898   5.386   4.539   7.951  0.2030 -2.2532  2.5329
 3447TIP3   OH231899   2.009   5.420   0.467 -0.8453  0.0904 -0.3527
 3447TIP3    H131900   2.075   5.388   0.529 -1.2626  0.6243  0.3796
 3447TIP3    H231901   1.944   5.463   0.522 -1.4359  0.2074 -1.1360
 3448TIP3   OH231902   1.628   0.581   2.144 -0.0590 -0.3856  0.1009
 3448TIP3    H131903   1.697   0.572   2.079  0.2877  0.2169  0.3770
 3448TIP3    H231904   1.623   0.675   2.161 -0.4168 -0.4987  0.6589
 3449TIP3   OH231905   4.270   4.119   1.386 -0.4149 -0.1764  0.3725
 3449TIP3    H131906   4.335   4.049   1.379 -0.3346 -0.0114 -0.8067
 3449TIP3    H231907   4.312   4.194   1.344 -1.1450  0.0870  0.0907
 3450TIP3   OH231908   1.281   1.559   1.980  0.1202 -0.2691 -0.0745
 3450TIP3    H131909   1.368   1.581   2.012 -0.3116  1.6739 -0.1101
 3450TIP3    H231910   1.232   1.535   2.058  0.4394 -0.4557  0.0676
 3451TIP3   OH231911   6.552   0.536   7.418 -0.2600 -0.8184 -0.0341
 3451TIP3    H131912   6.590   0.557   7.503 -0.6676  0.6115 -0.1917
 3451TIP3    H231913   6.572   0.611   7.363 -0.4598 -1.4970 -1.0679
 3452TIP3   OH231914   4.369   1.340   0.827  0.7673  0.4247  0.0455
 3452TIP3    H131915   4.436   1.396   0.866  0.6999  0.0561  0.7025
 3452TIP3    H231916   4.402   1.251   0.839  0.5427  0.2849 -0.3560
 3453TIP3   OH231917   1.425   5.141   2.370  0.2764 -0.4160  0.0234
 3453TIP3    H131918   1.353   5.154   2.431  0.8890 -0.7484  0.8398
 3453TIP3    H231919   1.420   5.049   2.346 -1.0220  0.1008 -1.8217
 3454TIP3   OH231920   3.071   3.144   6.610  0.7353  0.0347 -0.5522
 3454TIP3    H131921   3.090   3.219   6.667 -0.6670  1.1668 -1.4758
 3454TIP3    H231922   3.107   3.169   6.525 -0.6327  0.1679 -1.1284
 3455TIP3   OH231923   4.045   1.589   0.241  0.0823 -0.1820  0.4835
 3455TIP3    H131924   4.093   1.533   0.179 -0.7402  0.3645 -0.6911
 3455TIP3    H231925   4.113   1.626   0.297  0.8664 -0.6886 -0.1022
 3456TIP3   OH231926   1.278   0.123   7.649 -0.0932 -0.4013  0.2546
 3456TIP3    H131927   1.224   0.165   7.716  1.3942  0.7377  0.7959
 3456TIP3    H231928   1.273   0.182   7.574 -0.5643 -0.9043 -0.1052
 3457TIP3   OH231929   4.959   6.152   7.282 -0.1955 -0.5088 -0.0480
 3457TIP3    H131930   4.897   6.171   7.211 -0.0436 -0.3492 -0.1384
 3457TIP3    H231931   4.992   6.065   7.262  0.9019  0.0916 -0.9539
 3458TIP3   OH231932   3.005   2.913   0.992  0.4358  0.5416  0.4432
 3458TIP3    H131933   3.046   2.833   0.958 -1.1714  1.0528 -3.0952
 3458TIP3    H231934   2.913   2.892   1.000 -0.0543  2.0085 -0.7352
 3459TIP3   OH231935   0.599   2.062   0.572 -0.1917  0.0751  0.4780
 3459TIP3    H131936   0.681   2.046   0.526 -0.6365 -0.4246 -0.1529
 3459TIP3    H231937   0.546   1.984   0.555 -1.6505  1.3024 -1.0017
 3460TIP3   OH231938   1.076   3.965   8.495  0.0137  0.1485 -0.3869
 3460TIP3    H131939   1.052   4.038   8.439  0.6401 -0.0439 -0.9234
 3460TIP3    H231940   0.995   3.938   8.538 -0.3313  0.7475 -0.6719
 3461TIP3   OH231941   1.731   1.417   1.482  0.0122  0.2324 -0.4223
 3461TIP3    H131942   1.695   1.433   1.569 -0.7974  1.0706 -0.8929
 3461TIP3    H231943   1.820   1.386   1.497  1.2718  3.8981  0.6287
 3462TIP3   OH231944   0.344   5.373   8.906  0.5485 -0.1119 -0.0508
 3462TIP3    H131945   0.394   5.295   8.928  0.7137  0.2186  0.8069
 3462TIP3    H231946   0.399   5.422   8.845  0.0253 -1.1201 -1.3888
 3463TIP3   OH231947   0.679   1.836   0.719 -0.5952  0.6565  0.3009
 3463TIP3    H131948   0.712   1.748   0.734 -0.7769  0.6693  0.8235
 3463TIP3    H231949   0.754   1.893   0.734 -0.7539  0.6624  1.1191
 3464TIP3   OH231950   1.399   3.550   8.260 -0.2000 -0.3497 -0.8478
 3464TIP3    H131951   1.344   3.625   8.282 -0.3123  0.0178 -2.2438
 3464TIP3    H231952   1.470   3.552   8.324 -0.4636  0.6596 -0.5738
 3465TIP3   OH231953   4.226   4.253   0.983 -0.3812  0.0963  0.4199
 3465TIP3    H131954   4.225   4.345   0.958 -0.9120  0.4389  1.6073
 3465TIP3    H231955   4.307   4.243   1.034 -1.3026  0.4449  2.0450
 3466TIP3   OH231956   2.588   4.862   8.744 -0.4326  0.6333 -0.3742
 3466TIP3    H131957   2.549   4.839   8.829  0.6881  0.0810  0.0200
 3466TIP3    H231958   2.517   4.849   8.681 -1.0647  0.2678  0.3806
 3467TIP3   OH231959   4.709   4.798   2.000  0.3130 -0.3997 -0.3454
 3467TIP3    H131960   4.627   4.795   2.049 -0.4868  0.3331 -1.5782
 3467TIP3    H231961   4.749   4.712   2.015 -1.8169 -1.7033 -1.5966
 3468TIP3   OH231962   5.580   0.266   0.584  0.7880 -0.0072 -0.9705
 3468TIP3    H131963   5.667   0.245   0.550  0.7730 -1.4317 -0.2004
 3468TIP3    H231964   5.529   0.188   0.568 -0.0010  0.3490 -0.2623
 3469TIP3   OH231965   5.248   6.196   8.296 -0.3928 -0.0203  0.0042
 3469TIP3    H131966   5.154   6.179   8.296 -0.4882  0.4861  0.3238
 3469TIP3    H231967   5.287   6.121   8.341 -0.6467 -0.2040 -0.0829
 3470TIP3   OH231968   4.860   3.026   7.728  0.2840 -1.3799 -0.5123
 3470TIP3    H131969   4.797   2.960   7.700 -0.1692 -0.6002 -1.3791
 3470TIP3    H231970   4.921   2.978   7.784 -0.9260 -2.1997  0.1562
 3471TIP3   OH231971   6.286   4.806   1.703  0.0296  0.2089  0.4619
 3471TIP3    H131972   6.345   4.836   1.634 -1.2617 -1.6876 -1.6390
 3471TIP3    H231973   6.342   4.757   1.763  0.8750  0.0137 -0.4579
 3472TIP3   OH231974   0.338   1.565   0.910  0.0126  0.9013 -0.2803
 3472TIP3    H131975   0.245   1.587   0.916  0.1293  1.3402 -0.0118
 3472TIP3    H231976   0.382   1.650   0.907  0.3698  0.6974 -1.0248
 3473TIP3   OH231977   2.374   2.637   1.707 -0.4112  0.5000  0.3467
 3473TIP3    H131978   2.425   2.599   1.636  0.2709 -0.4566  1.3049
 3473TIP3    H231979   2.296   2.582   1.712 -0.1193  0.1098  0.7777
 3474TIP3   OH231980   6.476   5.421   0.255 -0.2404  0.1366  0.4196
 3474TIP3    H131981   6.542   5.466   0.308 -0.7185 -0.7795  1.8438
 3474TIP3    H231982   6.485   5.329   0.278 -0.7580 -0.2404 -0.8031
 3475TIP3   OH231983   1.619   3.299   7.590 -0.2983 -0.3267  0.3722
 3475TIP3    H131984   1.710   3.328   7.588 -0.1426 -0.8362 -0.0089
 3475TIP3    H231985   1.600   3.284   7.682 -0.2929  0.6831  0.5563
 3476TIP3   OH231986   3.483   1.126   2.178 -0.3906  0.7204 -0.0165
 3476TIP3    H131987   3.466   1.216   2.204  0.7158  1.0793 -0.5015
 3476TIP3    H231988   3.577   1.122   2.163 -0.4867 -0.4020 -0.4329
 3477TIP3   OH231989   5.297   2.880   6.540 -0.3430 -0.7427  0.2699
 3477TIP3    H131990   5.239   2.956   6.541  0.0585 -0.3569 -1.9324
 3477TIP3    H231991   5.365   2.902   6.604 -0.6437  0.4084  0.2214
 3478TIP3   OH231992   3.240   3.079   1.575 -0.0392  0.1216 -0.3642
 3478TIP3    H131993   3.300   3.052   1.505  2.2783 -0.8250  1.7841
 3478TIP3    H231994   3.282   3.156   1.614 -0.7820  0.0812  0.5473
 3479TIP3   OH231995   2.461   6.439   8.115  0.3779 -0.3021  0.2635
 3479TIP3    H131996   2.410   6.434   8.034 -0.2883  1.6101  0.5047
 3479TIP3    H231997   2.542   6.484   8.091  0.7233 -0.8300  0.4255
 3480TIP3   OH231998   2.476   1.780   1.520  0.2086  0.1222  0.3002
 3480TIP3    H131999   2.412   1.795   1.589 -1.0795 -0.2093 -0.7875
 3480TIP3    H232000   2.424   1.758   1.443  1.6594 -2.0646 -0.1624
 3481TIP3   OH232001   2.789   1.377   0.708  0.1081 -0.3183 -0.3532
 3481TIP3    H132002   2.795   1.393   0.802 -1.5357  2.0414 -0.5804
 3481TIP3    H232003   2.872   1.334   0.686  2.4480  2.8889  1.4405
 3482TIP3   OH232004   5.518   4.822   9.067 -0.1640  0.3765  0.3002
 3482TIP3    H132005   5.581   4.762   9.107  0.0548 -0.1742 -0.8358
 3482TIP3    H232006   5.459   4.765   9.017 -0.3450  1.0595 -0.2740
 3483TIP3   OH232007   1.374   3.883   0.973  0.2453  0.3354 -0.5429
 3483TIP3    H132008   1.343   3.792   0.970  0.4861  0.2405 -0.1947
 3483TIP3    H232009   1.341   3.917   1.055  1.0618  0.2257 -0.1515
 3484TIP3   OH232010   2.021   3.955   8.259 -0.4094  0.4123 -0.2553
 3484TIP3    H132011   1.998   3.982   8.348  1.0700 -1.2322  0.7016
 3484TIP3    H232012   2.086   4.018   8.230 -1.3433  1.3166 -0.4591
 3485TIP3   OH232013   0.270   5.261   0.455  0.1839  0.3050 -0.1457
 3485TIP3    H132014   0.362   5.279   0.475  0.6133  0.9794 -2.4192
 3485TIP3    H232015   0.269   5.169   0.429  0.6982  0.8378 -2.2543
 3486TIP3   OH232016   3.415   3.372   0.626 -0.2402 -0.3601  0.3053
 3486TIP3    H132017   3.490   3.371   0.566 -0.0769 -0.9802  0.5168
 3486TIP3    H232018   3.339   3.371   0.568 -0.0993  0.3373  0.0881
 3487TIP3   OH232019   1.990   4.009   0.674  0.7778  0.5113 -0.2643
 3487TIP3    H132020   2.068   3.956   0.657 -0.4751 -0.8621 -2.1294
 3487TIP3    H232021   1.921   3.945   0.689 -0.3495  1.6835 -0.3136
 3488TIP3   OH232022   0.228   3.702   8.486  0.2774 -0.0734 -0.1632
 3488TIP3    H132023   0.292   3.717   8.417  0.1781  0.7134 -0.0897
 3488TIP3    H232024   0.171   3.634   8.451 -0.4144  1.0590 -1.3020
 3489TIP3   OH232025   3.279   4.381   1.149  0.2022 -0.4755 -0.1269
 3489TIP3    H132026   3.287   4.374   1.244  0.6210 -2.0917 -0.2391
 3489TIP3    H232027   3.254   4.293   1.121  0.9027 -0.2489 -1.5799
 3490TIP3   OH232028   2.355   2.705   2.833 -0.7347  0.3466 -0.0433
 3490TIP3    H132029   2.348   2.640   2.763 -2.3884  0.3883  0.0387
 3490TIP3    H232030   2.361   2.789   2.787 -2.9729  0.4846 -0.2214
 3491TIP3   OH232031   3.084   2.192   7.167 -0.1572  0.0622  0.2247
 3491TIP3    H132032   3.099   2.249   7.091  0.0537 -2.0586 -1.4404
 3491TIP3    H232033   2.994   2.164   7.158  0.2306 -1.1682  0.0201
 3492TIP3   OH232034   2.816   0.065   1.103 -0.2396 -0.3827 -0.3930
 3492TIP3    H132035   2.758   0.007   1.054 -2.2211  0.9423  0.2759
 3492TIP3    H232036   2.880   0.095   1.038  0.3083 -2.5483 -0.9458
 3493TIP3   OH232037   0.142   2.996   7.620  0.6800 -0.4901  0.6319
 3493TIP3    H132038   0.056   3.037   7.611  0.3891 -1.3799 -0.8863
 3493TIP3    H232039   0.203   3.066   7.597  0.4828  0.4565  2.6981
 3494TIP3   OH232040   2.329   1.796   6.919 -0.3858 -0.0112  0.3578
 3494TIP3    H132041   2.356   1.828   6.834  0.9805 -1.9457 -0.0250
 3494TIP3    H232042   2.392   1.833   6.980 -0.8972  0.7536  0.4315
 3495TIP3   OH232043   6.054   2.317   8.826  0.3362  0.0037  0.5316
 3495TIP3    H132044   6.142   2.307   8.862  1.1378  1.1729 -0.9834
 3495TIP3    H232045   6.059   2.281   8.737 -0.0284  2.1944 -0.4442
 3496TIP3   OH232046   1.528   6.270   1.455  0.0247  0.3809  0.5398
 3496TIP3    H132047   1.531   6.269   1.551 -2.5681  0.6108  0.6922
 3496TIP3    H232048   1.435   6.273   1.434  0.5300  0.3335 -2.0133
 3497TIP3   OH232049   3.744   5.612   1.407 -0.7539 -0.6238 -0.0518
 3497TIP3    H132050   3.838   5.614   1.425 -0.3287  2.4816 -1.8735
 3497TIP3    H232051   3.723   5.519   1.397  2.0705 -1.4033  0.5451
 3498TIP3   OH232052   0.834   3.753   1.532 -0.1619  0.5897 -1.1112
 3498TIP3    H132053   0.927   3.742   1.553 -0.5403 -1.5154 -0.3381
 3498TIP3    H232054   0.824   3.711   1.446 -0.6831 -0.6574 -0.4552
 3499TIP3   OH232055   6.272   1.485   8.663 -0.3364  0.3031  0.4232
 3499TIP3    H132056   6.192   1.490   8.716  0.4332 -0.3243  1.7076
 3499TIP3    H232057   6.295   1.392   8.663  0.1880  0.4258 -0.2476
 3500TIP3   OH232058   6.127   4.109   7.606 -0.2025 -0.7261 -0.3344
 3500TIP3    H132059   6.120   4.026   7.652 -0.8977 -0.1361  0.6547
 3500TIP3    H232060   6.039   4.127   7.573  0.1690 -0.8841 -1.4836
 3501TIP3   OH232061   3.165   5.545   7.739  0.1435 -0.1066  0.0759
 3501TIP3    H132062   3.199   5.495   7.664  0.7161  0.6209 -0.1528
 3501TIP3    H232063   3.136   5.628   7.701 -0.1777  0.0021  0.5598
 3502TIP3   OH232064   0.967   6.015   8.398 -0.1378 -0.2327  0.4083
 3502TIP3    H132065   0.998   6.002   8.308 -0.7005  0.8939  0.0332
 3502TIP3    H232066   0.878   6.047   8.388 -1.6179 -3.5467  1.4661
 3503TIP3   OH232067   5.742   1.694   0.170 -0.5954 -0.2789 -0.1139
 3503TIP3    H132068   5.756   1.625   0.106 -1.1676 -1.0196  0.5316
 3503TIP3    H232069   5.813   1.684   0.234  0.0375  0.5249 -0.6610
 3504TIP3   OH232070   4.623   0.898   1.134  0.3715 -0.0108 -0.0859
 3504TIP3    H132071   4.546   0.855   1.097  0.6225  0.9367 -1.8293
 3504TIP3    H232072   4.587   0.965   1.192 -0.0695 -0.5839  0.3140
 3505TIP3   OH232073   5.074   0.045   8.383  0.5628 -0.1568  0.6343
 3505TIP3    H132074   5.105  -0.035   8.340  2.4395  0.6288  0.4141
 3505TIP3    H232075   5.029   0.015   8.462  1.7671 -1.4303  0.8692
 3506TIP3   OH232076   1.116   2.329   1.752  0.7253 -0.2249  0.9434
 3506TIP3    H132077   1.165   2.281   1.685 -0.9305  0.7268 -1.0617
 3506TIP3    H232078   1.057   2.264   1.789 -0.0834 -0.2596 -0.3295
 3507TIP3   OH232079   2.071   2.837   8.104 -0.2158  0.0160  0.4524
 3507TIP3    H132080   2.049   2.776   8.174 -2.5975  0.2520  0.0054
 3507TIP3    H232081   2.078   2.922   8.149  2.0336 -0.3649  0.9124
 3508TIP3   OH232082   3.625   1.604   1.617 -0.0710  0.3077  0.4368
 3508TIP3    H132083   3.597   1.689   1.651 -0.1498  0.8041 -0.8239
 3508TIP3    H232084   3.611   1.610   1.523  2.0489 -0.2827  0.0331
 3509TIP3   OH232085   5.326   3.489   7.736  0.3839 -0.6683  0.6892
 3509TIP3    H132086   5.272   3.545   7.681  1.1613 -0.1607  0.4183
 3509TIP3    H232087   5.269   3.416   7.760 -1.3473  1.1975  2.7443
 3510TIP3   OH232088   2.352   3.791   0.284  0.3876  0.4155  0.1124
 3510TIP3    H132089   2.311   3.714   0.245 -1.4832  0.8423  1.1053
 3510TIP3    H232090   2.310   3.865   0.240 -0.6014  0.8793  1.7351
 3511TIP3   OH232091   2.299   0.890   8.951  0.3037 -0.1353 -0.0321
 3511TIP3    H132092   2.279   0.947   9.025 -1.8098 -0.2143 -0.4882
 3511TIP3    H232093   2.358   0.943   8.896 -1.0588  1.3755 -0.1083
 3512TIP3   OH232094   2.298   3.270   7.039  0.2050 -0.6888 -0.7781
 3512TIP3    H132095   2.342   3.188   7.020  0.4708 -0.4128 -1.3997
 3512TIP3    H232096   2.248   3.253   7.118 -1.7117 -2.1892 -2.2156
 3513TIP3   OH232097   3.332   6.078   8.368  0.1354 -0.1981 -0.2647
 3513TIP3    H132098   3.403   6.141   8.363  0.9255 -0.9563  0.8470
 3513TIP3    H232099   3.350   6.027   8.447 -0.1831 -2.1584 -1.3791
 3514TIP3   OH232100   0.467   3.366   7.907 -0.1226 -0.4818  0.2507
 3514TIP3    H132101   0.539   3.344   7.847  0.5172  0.7977  0.4994
 3514TIP3    H232102   0.411   3.424   7.855  0.7400  1.1061  1.0124
 3515TIP3   OH232103   3.563   1.765   8.218  0.0369  0.4338 -0.3059
 3515TIP3    H132104   3.629   1.744   8.285  0.0076  1.2460 -0.0133
 3515TIP3    H232105   3.503   1.690   8.220  0.4244  0.1204  0.0831
 3516TIP3   OH232106   4.043   0.962   8.226 -0.0134  0.0567 -0.2446
 3516TIP3    H132107   4.058   0.890   8.164  0.4835  0.8479 -1.0577
 3516TIP3    H232108   3.949   0.979   8.220 -0.6121 -2.0256  1.6666
 3517TIP3   OH232109   2.136   1.402   8.654 -0.0324 -0.2943 -0.2650
 3517TIP3    H132110   2.078   1.479   8.648  0.8198  0.4684  0.7302
 3517TIP3    H232111   2.134   1.363   8.567 -0.2445  1.0459 -0.8872
 3518TIP3   OH232112   4.699   0.366   0.094  0.4590  0.1467 -0.0715
 3518TIP3    H132113   4.618   0.414   0.079  1.8028  2.9987  1.1959
 3518TIP3    H232114   4.692   0.335   0.185 -0.0043 -1.4154 -0.5947
 3519TIP3   OH232115   1.643   1.113   1.548 -0.3319  0.3420  0.3666
 3519TIP3    H132116   1.571   1.105   1.486 -0.5223 -1.0022  0.7416
 3519TIP3    H232117   1.682   1.198   1.527  0.3597 -0.5413 -2.3861
 3520TIP3   OH232118   0.729   0.946   9.023  0.5164  0.2451  0.3251
 3520TIP3    H132119   0.813   0.963   8.981  0.0888  0.2164 -0.5754
 3520TIP3    H232120   0.667   0.938   8.950 -0.7976  2.9732  0.9912
 3521TIP3   OH232121   0.427   0.480   1.523 -0.1004 -0.6954 -0.5642
 3521TIP3    H132122   0.465   0.549   1.577  2.0028  0.0447 -2.7872
 3521TIP3    H232123   0.341   0.463   1.562  0.2740  1.5129  1.4516
 3522TIP3   OH232124   3.615   3.094   8.416  0.1205  0.3161 -0.3924
 3522TIP3    H132125   3.690   3.129   8.368  1.9580 -2.7587 -0.0210
 3522TIP3    H232126   3.580   3.026   8.359 -1.1532  0.3546  0.3163
 3523TIP3   OH232127   4.808   6.094   8.080 -0.2185 -0.3735 -1.0642
 3523TIP3    H132128   4.794   6.146   8.159 -1.0329  0.4814 -1.7483
 3523TIP3    H232129   4.884   6.134   8.038  0.1522 -0.7653 -0.7804
 3524TIP3   OH232130   4.396   4.251   0.270 -0.3220 -0.0120  0.1266
 3524TIP3    H132131   4.314   4.259   0.222  0.6766  1.4341 -1.4928
 3524TIP3    H232132   4.386   4.172   0.323 -2.5832 -0.0801 -0.3053
 3525TIP3   OH232133   2.986   1.762   8.644 -0.2992  0.7121 -0.0529
 3525TIP3    H132134   3.037   1.692   8.685  0.6811  0.5352 -1.4792
 3525TIP3    H232135   2.945   1.808   8.717  1.2131  0.3159  1.0982
 3526TIP3   OH232136   2.813   6.290   1.027 -0.0315 -0.1201  0.0237
 3526TIP3    H132137   2.859   6.241   1.095  0.1707  2.2504  1.7244
 3526TIP3    H232138   2.862   6.269   0.946  3.4720  1.3547  1.5371
 3527TIP3   OH232139   4.718   4.787   1.272  0.0551  0.2237 -0.4408
 3527TIP3    H132140   4.786   4.776   1.206 -0.1595  1.9757 -0.9912
 3527TIP3    H232141   4.765   4.780   1.355  0.4828 -1.0221 -0.7657
 3528TIP3   OH232142   1.970   5.028   2.510 -0.7085 -0.3132  0.5246
 3528TIP3    H132143   1.992   5.061   2.597 -1.0526 -1.6019  1.1102
 3528TIP3    H232144   1.993   4.935   2.512  2.3939  0.2036 -1.8054
 3529TIP3   OH232145   4.089   3.954   9.061 -0.0377  0.2003  0.9709
 3529TIP3    H132146   4.018   4.016   9.074  1.0115  1.7735 -0.3927
 3529TIP3    H232147   4.052   3.886   9.005 -0.5377  0.8716  0.4710
 3530TIP3   OH232148   1.851   2.589   2.830  0.0812  0.1864  0.3506
 3530TIP3    H132149   1.824   2.639   2.907 -0.9051 -0.3038  0.3378
 3530TIP3    H232150   1.927   2.539   2.858 -0.4811 -0.2528  1.1094
 3531TIP3   OH232151   1.549   2.414   7.135 -0.4448 -0.3446 -0.0505
 3531TIP3    H132152   1.463   2.453   7.149 -0.6481 -0.8644  0.1615
 3531TIP3    H232153   1.541   2.325   7.168 -0.7344 -1.4215 -2.7475
 3532TIP3   OH232154   4.149   3.770   1.186 -0.1107  0.1124 -0.2815
 3532TIP3    H132155   4.228   3.738   1.142  0.1507  0.5098 -0.1002
 3532TIP3    H232156   4.155   3.735   1.274  0.9014  1.8161  0.3651
 3533TIP3   OH232157   1.987   3.268   8.585 -0.4069  0.2055 -0.0339
 3533TIP3    H132158   1.957   3.323   8.512 -2.1052  1.5965  1.6251
 3533TIP3    H232159   2.083   3.277   8.584 -0.5077  1.4152 -1.1609
 3534TIP3   OH232160   0.848   3.329   9.169  0.0331 -0.5531  0.1557
 3534TIP3    H132161   0.927   3.332   9.114 -0.3136 -0.6806 -0.3618
 3534TIP3    H232162   0.776   3.319   9.106 -0.5712  1.3733  0.4694
 3535TIP3   OH232163   4.072   2.342   1.589  0.2765 -0.4885 -0.5011
 3535TIP3    H132164   4.040   2.255   1.563  1.3142 -0.6519 -1.3337
 3535TIP3    H232165   3.994   2.392   1.610 -0.2822 -2.1225  1.6340
 3536TIP3   OH232166   1.084   0.634   1.673 -0.4307 -0.3078 -0.1901
 3536TIP3    H132167   1.136   0.554   1.663  2.2686  1.1210  1.1361
 3536TIP3    H232168   1.125   0.697   1.613 -1.0307  0.7036  0.4244
 3537TIP3   OH232169   1.268   1.873   8.270  0.7145 -0.0413 -0.2248
 3537TIP3    H132170   1.238   1.871   8.361 -1.4791  0.3668 -0.8774
 3537TIP3    H232171   1.192   1.845   8.219  1.2135  1.7329 -2.0782
 3538TIP3   OH232172   1.206   1.492   0.033  0.4913  0.2421  0.3979
 3538TIP3    H132173   1.160   1.530  -0.041  0.9912 -1.0567 -0.6164
 3538TIP3    H232174   1.188   1.398   0.027  0.5611  0.1041  1.9144
 3539TIP3   OH232175   5.945   2.375   6.934  0.3705 -0.5992 -0.2936
 3539TIP3    H132176   5.969   2.422   7.014 -1.8960  1.0716 -0.4794
 3539TIP3    H232177   5.909   2.292   6.964  0.2580 -0.3137  0.3702
 3540TIP3   OH232178   5.694   6.512   8.649 -0.2406 -0.7220  0.9627
 3540TIP3    H132179   5.626   6.499   8.583  0.1650 -4.4808  1.0201
 3540TIP3    H232180   5.647   6.549   8.724 -1.2961  0.7998 -0.3669
 3541TIP3   OH232181   2.720   1.443   0.978 -0.0159 -0.2064 -0.1816
 3541TIP3    H132182   2.740   1.444   1.071 -0.9095  1.3758  0.0192
 3541TIP3    H232183   2.641   1.390   0.970  0.7917 -1.4437 -0.2331
 3542TIP3   OH232184   4.230   1.399   0.555  0.0200  0.6337 -0.2842
 3542TIP3    H132185   4.246   1.383   0.647 -0.2370 -3.3907 -0.7524
 3542TIP3    H232186   4.134   1.401   0.547 -0.0102 -0.7203 -0.5907
 3543TIP3   OH232187   1.812   2.807   0.270  0.8300  0.1253  0.2517
 3543TIP3    H132188   1.754   2.878   0.297  0.6064  0.5004 -1.1456
 3543TIP3    H232189   1.888   2.852   0.233  0.0563 -0.2989 -2.0105
 3544TIP3   OH232190   4.607   1.296   8.386 -0.9389 -0.1524 -0.2984
 3544TIP3    H132191   4.539   1.325   8.446  2.0582  2.4725  2.2516
 3544TIP3    H232192   4.621   1.371   8.327  0.3639 -0.2047 -0.1009
 3545TIP3   OH232193   1.162   0.107   8.071 -0.0101  0.1458  0.1784
 3545TIP3    H132194   1.066   0.107   8.067  0.0342  0.4887 -1.3289
 3545TIP3    H232195   1.183   0.033   8.128 -1.1452 -1.4454 -1.3352
 3546TIP3   OH232196   5.069   3.334   8.729 -0.0760  0.1132  0.1583
 3546TIP3    H132197   5.091   3.406   8.670  0.6195  0.7444  1.1632
 3546TIP3    H232198   4.979   3.353   8.757  0.0807  0.5445  0.3668
 3547TIP3   OH232199   1.983   0.300   1.935 -0.4949 -0.5217 -0.3339
 3547TIP3    H132200   2.072   0.283   1.904  0.3668  1.3684  0.9623
 3547TIP3    H232201   1.981   0.264   2.024 -1.1377 -0.8046 -0.4565
 3548TIP3   OH232202   0.159   1.293   0.050  0.6879 -0.2837 -0.3709
 3548TIP3    H132203   0.141   1.322  -0.039  1.3802  3.0093  0.4057
 3548TIP3    H232204   0.073   1.273   0.086  0.1738  0.3173 -1.2124
 3549TIP3   OH232205   5.261   1.423   0.377  0.4666  0.2354  0.3610
 3549TIP3    H132206   5.172   1.394   0.395  0.6634  0.8597  2.6364
 3549TIP3    H232207   5.280   1.389   0.289 -1.3798 -1.3691  0.5117
 3550TIP3   OH232208   0.253   4.073   8.938 -0.2507 -0.2481  0.1446
 3550TIP3    H132209   0.214   4.120   8.864 -1.2889 -1.1620  0.0855
 3550TIP3    H232210   0.180   4.059   8.999  0.2990 -0.7121  0.7102
 3551TIP3   OH232211   6.098   1.773   0.881 -0.1092  0.1653  0.4116
 3551TIP3    H132212   6.022   1.721   0.855  0.1075  0.6665 -1.3427
 3551TIP3    H232213   6.093   1.852   0.828  2.3558 -0.3868 -0.8050
 3552TIP3   OH232214   6.286   3.020   2.489  0.4227 -0.2007 -0.5340
 3552TIP3    H132215   6.266   2.933   2.455 -0.1300  0.2669 -1.4816
 3552TIP3    H232216   6.270   3.078   2.414 -0.9988  0.9012  0.5596
 3553TIP3   OH232217   4.841   1.001   6.734 -0.1907  0.6651  0.0917
 3553TIP3    H132218   4.754   1.028   6.706  0.2772  1.4553 -0.6544
 3553TIP3    H232219   4.899   1.070   6.702  0.5469  0.8988  1.8479
 3554TIP3   OH232220   3.377   5.043   8.517  0.4708  0.3928  0.1515
 3554TIP3    H132221   3.361   4.950   8.535  3.0333 -0.5254 -1.7263
 3554TIP3    H232222   3.439   5.071   8.583 -0.9785  1.0980  1.2727
 3555TIP3   OH232223   3.946   3.376   9.003 -0.7494 -1.2092 -0.1583
 3555TIP3    H132224   3.952   3.445   8.937  0.4522 -1.4264 -0.2932
 3555TIP3    H232225   3.872   3.402   9.058 -0.6118 -0.0677 -0.4906
 3556TIP3   OH232226   3.605   3.569   2.082 -0.2295 -0.2382 -0.0825
 3556TIP3    H132227   3.621   3.649   2.132  1.2279 -0.8396  0.4661
 3556TIP3    H232228   3.578   3.505   2.147  3.3828 -1.5248  0.3599
 3557TIP3   OH232229   6.330   1.972   0.268  0.0422 -0.5310  0.2289
 3557TIP3    H132230   6.415   1.939   0.297  0.2043 -0.9940 -0.7206
 3557TIP3    H232231   6.302   2.032   0.337  1.0551 -0.5199  0.6454
 3558TIP3   OH232232   3.984   0.216   0.059  0.6696 -0.3765  0.3368
 3558TIP3    H132233   4.016   0.126   0.071 -0.9428 -1.4129 -2.1059
 3558TIP3    H232234   3.961   0.246   0.147 -0.8519 -3.2369  1.0318
 3559TIP3   OH232235   5.050   5.591   0.846 -0.0929 -0.1779 -0.6276
 3559TIP3    H132236   5.070   5.608   0.938 -2.5233 -3.5014  0.7434
 3559TIP3    H232237   5.132   5.556   0.810  0.4237 -0.5574  0.8274
 3560TIP3   OH232238   3.751   4.089   7.622  0.2279  0.7478  0.2906
 3560TIP3    H132239   3.726   4.030   7.694  1.4412 -2.9854 -2.0253
 3560TIP3    H232240   3.668   4.114   7.581 -0.3408 -2.0222 -0.4569
 3561TIP3   OH232241   2.372   5.087   0.604  0.3344  0.6945  0.7234
 3561TIP3    H132242   2.437   5.095   0.534  2.5379 -2.2282  2.1812
 3561TIP3    H232243   2.300   5.038   0.564  2.0536 -1.9611  0.5781
 3562TIP3   OH232244   5.530   0.809   2.661  0.3971  0.1405 -0.2806
 3562TIP3    H132245   5.446   0.766   2.681  0.0664  1.9038  2.7792
 3562TIP3    H232246   5.582   0.741   2.619 -1.5233 -1.9627  0.5216
 3563TIP3   OH232247   2.058   0.175   6.762 -0.1797  0.1022 -0.1654
 3563TIP3    H132248   2.088   0.134   6.842  1.1034  3.2519  1.1560
 3563TIP3    H232249   1.964   0.190   6.775  0.0789  0.8666  0.9465
 3564TIP3   OH232250   1.117   1.542   7.443 -0.5102 -0.3623 -0.3706
 3564TIP3    H132251   1.158   1.455   7.443 -0.2757 -0.2584  0.2728
 3564TIP3    H232252   1.033   1.529   7.400 -0.9284 -1.1328  0.6211
 3565TIP3   OH232253   5.640   5.204   1.358 -0.0904 -0.2631 -0.0730
 3565TIP3    H132254   5.579   5.141   1.394 -1.7980  0.2645 -1.8562
 3565TIP3    H232255   5.698   5.152   1.302 -0.3596 -0.4761 -0.1537
 3566TIP3   OH232256   2.375   4.012   0.947  0.0823  0.6187  0.2973
 3566TIP3    H132257   2.418   4.090   0.911  2.9787 -1.2742 -0.7049
 3566TIP3    H232258   2.388   3.944   0.880  0.0216 -1.4001  2.2156
 3567TIP3   OH232259   4.275   6.549   1.516 -0.0599 -0.3127 -0.2286
 3567TIP3    H132260   4.270   6.492   1.439  1.2363  0.3759 -0.8595
 3567TIP3    H232261   4.311   6.493   1.585  0.1117 -0.5608 -0.5155
 3568TIP3   OH232262   4.709   3.826   7.040 -0.3377  0.1260  0.5675
 3568TIP3    H132263   4.756   3.895   6.995 -0.6838  0.1326  0.2056
 3568TIP3    H232264   4.717   3.750   6.982  1.3605 -0.5936  1.6839
 3569TIP3   OH232265   5.996   4.937   2.022 -0.3772 -0.5868  0.2602
 3569TIP3    H132266   5.947   5.019   2.024 -1.6364 -1.2980 -0.4872
 3569TIP3    H232267   6.063   4.951   1.956 -0.2138  0.0310  0.5478
 3570TIP3   OH232268   1.077   3.741   1.662  0.6081 -0.6155 -0.1403
 3570TIP3    H132269   1.173   3.750   1.658  0.6005  0.4000  1.1751
 3570TIP3    H232270   1.052   3.792   1.739 -1.0673 -0.2939 -0.8571
 3571TIP3   OH232271   5.708   2.805   9.096 -0.1817  0.0780  0.4088
 3571TIP3    H132272   5.650   2.880   9.105 -2.5276 -1.1979 -2.4805
 3571TIP3    H232273   5.766   2.828   9.022  0.1128 -0.3386  0.5051
 3572TIP3   OH232274   2.618   1.563   1.631  0.5040  0.3531  0.3042
 3572TIP3    H132275   2.586   1.645   1.593 -1.0803  0.1660  1.1545
 3572TIP3    H232276   2.549   1.500   1.614 -0.2120  0.1979  3.2033
 3573TIP3   OH232277   0.240   0.376   8.362  0.0834 -0.0075 -0.0321
 3573TIP3    H132278   0.225   0.365   8.268  1.0665  0.0426 -0.2021
 3573TIP3    H232279   0.156   0.353   8.402 -0.7553  1.2629 -0.9971
 3574TIP3   OH232280   3.016   3.587   7.844  0.0794  0.0114 -0.5546
 3574TIP3    H132281   2.955   3.514   7.829 -1.0025  0.6308  0.6293
 3574TIP3    H232282   3.084   3.549   7.900 -1.0280  0.1252  0.9292
 3575TIP3   OH232283   5.833   3.978   7.804  0.3680  0.2054 -0.3546
 3575TIP3    H132284   5.852   3.972   7.711  0.7247 -0.9802 -0.2215
 3575TIP3    H232285   5.801   4.068   7.817 -0.6735  0.0697 -1.7876
 3576TIP3   OH232286   6.402   4.621   1.930 -0.4576  0.3711  0.1931
 3576TIP3    H132287   6.389   4.557   1.859  1.5323  1.2250 -1.0417
 3576TIP3    H232288   6.457   4.575   1.994 -0.6697  0.2045  0.2551
 3577TIP3   OH232289   4.430   5.276   1.126 -0.0308 -0.0020 -0.7064
 3577TIP3    H132290   4.429   5.355   1.072  1.7328 -1.4662 -3.0770
 3577TIP3    H232291   4.497   5.294   1.193  1.2039  0.1055 -1.9424
 3578TIP3   OH232292   5.581   0.812   0.360  0.1639 -0.0195 -0.1110
 3578TIP3    H132293   5.518   0.883   0.368  0.0106 -0.1263 -0.3465
 3578TIP3    H232294   5.551   0.746   0.422  0.6737  0.3821  0.5827
 3579TIP3   OH232295   4.096   6.093   6.961 -0.5684 -0.6407 -0.1552
 3579TIP3    H132296   4.187   6.096   6.991 -0.4330 -0.3977 -0.5779
 3579TIP3    H232297   4.100   6.047   6.877 -0.5552  1.0408 -1.1314
 3580TIP3   OH232298   2.922   4.297   1.219 -0.7516 -0.3458 -0.1257
 3580TIP3    H132299   2.922   4.203   1.203 -0.4973 -0.2590 -0.6563
 3580TIP3    H232300   3.000   4.330   1.173 -0.2870 -0.0076  0.8630
 3581TIP3   OH232301   2.312   1.200   0.692  0.1769 -0.5053  0.2794
 3581TIP3    H132302   2.245   1.246   0.743 -0.6591 -1.9412  0.5383
 3581TIP3    H232303   2.290   1.220   0.601 -2.1456 -2.8277  0.2145
 3582TIP3   OH232304   6.409   2.327   0.763 -0.5271  0.4619 -0.2341
 3582TIP3    H132305   6.488   2.327   0.817 -0.5914  2.5878 -0.0667
 3582TIP3    H232306   6.388   2.234   0.751 -0.1199 -0.1154  2.8001
 3583TIP3   OH232307   2.831   5.680   8.751  0.2483 -0.5594  1.0467
 3583TIP3    H132308   2.779   5.627   8.811 -0.3944 -1.1491 -0.0063
 3583TIP3    H232309   2.864   5.752   8.805 -1.5009 -0.2717  1.7943
 3584TIP3   OH232310   0.894   1.085   1.577 -0.7631  0.1692  0.4200
 3584TIP3    H132311   0.842   1.070   1.498  0.7523 -0.5841 -0.4703
 3584TIP3    H232312   0.835   1.133   1.635 -1.4823  1.9098 -1.6379
 3585TIP3   OH232313   3.121   5.029   7.723  0.0018 -0.2144 -0.1721
 3585TIP3    H132314   3.137   5.040   7.816 -1.7917 -0.4236  0.1892
 3585TIP3    H232315   3.208   5.018   7.685  0.7547 -0.1940  1.4726
 3586TIP3   OH232316   5.559   0.335   7.295  0.0377  0.5440 -0.1309
 3586TIP3    H132317   5.633   0.275   7.302 -0.2689  0.0091 -1.1366
 3586TIP3    H232318   5.483   0.277   7.285 -0.9378  0.9582  3.4153
 3587TIP3   OH232319   2.706   3.067   7.099 -0.2559 -0.0413 -0.5661
 3587TIP3    H132320   2.745   3.154   7.103 -0.5147  0.0177  2.0630
 3587TIP3    H232321   2.773   3.013   7.058  0.5145  1.0869 -0.8401
 3588TIP3   OH232322   1.963   0.607   8.833  0.4312 -0.4666  0.0163
 3588TIP3    H132323   1.984   0.700   8.820  1.0617 -0.6848 -0.5728
 3588TIP3    H232324   2.027   0.577   8.897 -0.1289 -0.3727  0.6384
 3589TIP3   OH232325   5.835   5.357   8.116  0.6451 -0.2931  0.9287
 3589TIP3    H132326   5.741   5.338   8.121  0.8540 -1.6764  0.2938
 3589TIP3    H232327   5.863   5.362   8.207  0.0557 -0.4490  1.1236
 3590TIP3   OH232328   0.409   5.170   7.035 -0.1414 -0.1166 -0.0618
 3590TIP3    H132329   0.376   5.260   7.045  0.9275  0.3460 -0.5169
 3590TIP3    H232330   0.503   5.181   7.016 -0.7272 -1.1108 -4.5086
 3591TIP3   OH232331   3.913   1.851   7.884  0.4322  0.3465 -0.1011
 3591TIP3    H132332   3.908   1.934   7.836  1.5063  0.2890 -0.3422
 3591TIP3    H232333   3.825   1.814   7.878  0.4325  0.5446 -1.6787
 3592TIP3   OH232334   6.360   1.934   8.320 -0.0943  0.1885  0.4490
 3592TIP3    H132335   6.438   1.940   8.265 -0.2737  0.5291  0.2292
 3592TIP3    H232336   6.390   1.888   8.399  0.3361  0.3496  0.3815
 3593TIP3   OH232337   6.313   4.806   1.255 -0.2968  0.0484  0.2295
 3593TIP3    H132338   6.307   4.881   1.196  0.7662  1.3008  1.6526
 3593TIP3    H232339   6.358   4.739   1.204  0.8211  1.1897 -0.3306
 3594TIP3   OH232340   5.148   1.695   0.841  0.1047 -0.0998 -0.4651
 3594TIP3    H132341   5.080   1.728   0.900 -0.5909  0.0146 -1.3064
 3594TIP3    H232342   5.101   1.637   0.780  0.5903  0.6948 -1.6408
 3595TIP3   OH232343   1.393   1.087   1.406 -0.0163 -0.7898 -1.1908
 3595TIP3    H132344   1.309   1.094   1.452  0.2195 -1.0749 -0.7131
 3595TIP3    H232345   1.384   1.148   1.332 -1.3048 -2.0944 -2.1740
 3596TIP3   OH232346   3.181   0.229   7.516  0.3538  0.1711  0.4855
 3596TIP3    H132347   3.125   0.282   7.460  0.0154 -0.3050  0.3625
 3596TIP3    H232348   3.253   0.287   7.540  0.0147  0.6680  0.3221
 3597TIP3   OH232349   6.298   3.317   6.264  0.0451  0.4378 -0.8479
 3597TIP3    H132350   6.215   3.285   6.300  1.1905 -0.7278  0.9922
 3597TIP3    H232351   6.350   3.238   6.252  1.3812  1.2418 -0.5543
 3598TIP3   OH232352   6.142   4.756   6.993  0.5983  0.0153  0.1037
 3598TIP3    H132353   6.076   4.696   7.027 -0.0706  1.0934  0.7617
 3598TIP3    H232354   6.144   4.828   7.056 -0.7873  2.1930 -2.1826
 3599TIP3   OH232355   4.407   5.547   0.119 -0.3920 -0.4113 -0.5454
 3599TIP3    H132356   4.438   5.476   0.175 -0.4669 -1.0850 -1.3556
 3599TIP3    H232357   4.312   5.537   0.117 -0.3833 -0.4469 -0.8696
 3600TIP3   OH232358   0.638   3.729   1.265  0.0683  0.5666  0.4284
 3600TIP3    H132359   0.717   3.677   1.285  0.6109  0.9196 -0.6873
 3600TIP3    H232360   0.573   3.664   1.240  1.2259  0.3961 -2.5820
 3601TIP3   OH232361   4.323   4.266   8.998 -0.1774  0.1300 -0.1289
 3601TIP3    H132362   4.333   4.173   9.016 -0.1281  0.2966  0.7389
 3601TIP3    H232363   4.411   4.303   9.010  0.2302  0.0264 -2.2589
 3602TIP3   OH232364   1.130   6.491   9.231  0.0709  0.2854  0.1341
 3602TIP3    H132365   1.037   6.511   9.217 -0.1158 -0.7273 -0.1348
 3602TIP3    H232366   1.135   6.465   9.323  0.3532  1.6913  0.5462
 3603TIP3   OH232367   4.015   5.612   1.427 -0.7136 -0.2878 -0.2414
 3603TIP3    H132368   4.005   5.518   1.409 -0.0976 -0.4323  0.1289
 3603TIP3    H232369   4.086   5.639   1.369 -1.4123  0.1276 -0.9143
 3604TIP3   OH232370   5.783   2.955   0.397 -0.2488 -0.3838 -0.0766
 3604TIP3    H132371   5.779   2.910   0.481 -1.7579 -0.8334 -0.3531
 3604TIP3    H232372   5.717   3.025   0.404  1.7205  1.5520  0.1831
 3605TIP3   OH232373   5.447   1.203   1.972 -0.0695  0.4381 -0.0839
 3605TIP3    H132374   5.390   1.126   1.965  2.5576 -1.5058 -3.4693
 3605TIP3    H232375   5.446   1.241   1.884  1.7733  1.8840  0.4501
 3606TIP3   OH232376   5.954   1.247   0.635  0.5241 -0.7743  0.3598
 3606TIP3    H132377   5.882   1.222   0.694 -0.2861 -0.1881 -0.3639
 3606TIP3    H232378   5.945   1.188   0.560  1.1102 -1.0311  0.4866
 3607TIP3   OH232379   5.661   0.654   2.313  0.1962 -0.1232 -0.6000
 3607TIP3    H132380   5.614   0.583   2.270 -0.6295 -0.1557  0.3108
 3607TIP3    H232381   5.678   0.622   2.401  0.1157  0.6714 -0.2880
 3608TIP3   OH232382   3.062   1.662   0.848  0.8263  0.0120  0.1184
 3608TIP3    H132383   2.968   1.662   0.864  1.0724 -0.6911  1.6913
 3608TIP3    H232384   3.102   1.660   0.935  2.3441  2.5897 -0.4025
 3609TIP3   OH232385   5.438   4.411   6.984 -0.3686  0.0257  0.6048
 3609TIP3    H132386   5.345   4.434   6.982 -0.0663  1.2364 -1.1136
 3609TIP3    H232387   5.472   4.456   7.061 -0.7073  1.8006 -0.2304
 3610TIP3   OH232388   4.755   0.100   9.297  0.1107 -0.3683  0.5399
 3610TIP3    H132389   4.810   0.135   9.227  0.3691 -1.3990  0.2204
 3610TIP3    H232390   4.708   0.177   9.330 -1.3152 -0.1124 -1.8825
 3611TIP3   OH232391   2.190   2.738   7.884  0.0715 -0.2243 -0.1043
 3611TIP3    H132392   2.130   2.763   7.953  1.1088  1.2418  0.3057
 3611TIP3    H232393   2.270   2.787   7.902  1.3033 -1.8528 -0.8167
 3612TIP3   OH232394   4.684   1.022   8.573 -0.0919  0.1624 -0.0921
 3612TIP3    H132395   4.655   1.084   8.640 -0.4441 -0.2119  0.1081
 3612TIP3    H232396   4.770   0.992   8.604 -1.3273 -1.9393  1.5672
 3613TIP3   OH232397   4.691   3.132   6.536 -0.0472  0.1867  0.4369
 3613TIP3    H132398   4.645   3.048   6.537 -1.4554  0.8974  2.0935
 3613TIP3    H232399   4.691   3.160   6.628  0.1316  2.1214 -0.1022
 3614TIP3   OH232400   2.104   2.839   9.168 -0.2306 -0.2371 -0.7514
 3614TIP3    H132401   2.059   2.920   9.194  1.3766  0.2138  0.8317
 3614TIP3    H232402   2.119   2.849   9.074 -1.8682  0.3410 -0.9933
 3615TIP3   OH232403   2.346   3.459   1.726 -0.0205 -0.3409  0.0892
 3615TIP3    H132404   2.435   3.439   1.757  0.3272  1.4350  0.3313
 3615TIP3    H232405   2.321   3.538   1.774 -1.0736  0.1482 -1.1945
 3616TIP3   OH232406   5.681   5.012   8.070 -0.5529  0.4497 -0.0564
 3616TIP3    H132407   5.622   5.075   8.027 -0.9784  0.6786  0.8256
 3616TIP3    H232408   5.662   5.023   8.163  0.1046 -0.2733  0.1657
 3617TIP3   OH232409   5.401   2.701   1.112  0.0894 -0.1444 -0.3638
 3617TIP3    H132410   5.321   2.667   1.071  0.2780  0.2373 -1.0484
 3617TIP3    H232411   5.428   2.774   1.057  0.5327  0.1688  0.2550
 3618TIP3   OH232412   1.050   3.933   6.558  0.3212  0.2818 -0.2480
 3618TIP3    H132413   1.060   4.000   6.626  1.1928  0.8131 -0.8749
 3618TIP3    H232414   1.067   3.850   6.602 -2.7653  0.2216  1.0195
 3619TIP3   OH232415   0.269   5.309   2.061 -0.4690  0.2750 -0.0829
 3619TIP3    H132416   0.291   5.229   2.110  0.2918 -0.8604 -2.1284
 3619TIP3    H232417   0.174   5.305   2.052 -0.4609 -0.3096  0.0045
 3620TIP3   OH232418   5.675   4.740   8.050  0.2348 -0.3569 -0.6475
 3620TIP3    H132419   5.670   4.726   8.145 -1.3581 -2.4903 -0.9732
 3620TIP3    H232420   5.692   4.834   8.041 -0.5978  0.1016  1.7269
 3621TIP3   OH232421   1.792   1.340   7.839 -0.3536 -0.8295 -0.1931
 3621TIP3    H132422   1.719   1.402   7.831 -0.3533 -0.8512 -0.3759
 3621TIP3    H232423   1.804   1.329   7.933  0.4971  0.4381 -0.1354
 3622TIP3   OH232424   5.003   4.344   0.713  1.0923  1.3882  0.4512
 3622TIP3    H132425   5.003   4.439   0.726  1.1600  1.3175  0.9991
 3622TIP3    H232426   4.948   4.310   0.784  0.1282  1.0952 -0.3987
 3623TIP3   OH232427   1.118   0.888   1.420  0.1003 -0.7748 -0.4563
 3623TIP3    H132428   1.116   0.978   1.452 -0.1628 -0.7832 -0.4446
 3623TIP3    H232429   1.206   0.857   1.441 -0.6993 -1.5113  2.3144
 3624TIP3   OH232430   5.352   0.834   7.858  0.2078 -0.5368 -0.0336
 3624TIP3    H132431   5.316   0.851   7.945  0.0113  1.2774 -0.4359
 3624TIP3    H232432   5.432   0.887   7.854 -1.4610  2.0705 -2.0495
 3625TIP3   OH232433   6.273   2.787   2.350 -0.0249  0.3266  0.2172
 3625TIP3    H132434   6.196   2.763   2.299 -0.2410 -0.6533  0.9893
 3625TIP3    H232435   6.340   2.806   2.284 -0.3206 -0.8433 -0.4378
 3626TIP3   OH232436   3.265   3.473   7.957 -0.0821  0.4562 -0.6201
 3626TIP3    H132437   3.356   3.456   7.931  0.2311  2.1085 -0.7162
 3626TIP3    H232438   3.268   3.484   8.052 -0.4227 -0.7754 -0.4475
 3627TIP3   OH232439   0.771   5.037   8.465  0.5619 -0.7320 -0.5406
 3627TIP3    H132440   0.722   5.014   8.544  0.8643 -0.1724 -0.1791
 3627TIP3    H232441   0.750   4.968   8.402  0.3086 -1.1815  0.0277
 3628TIP3   OH232442   5.516   4.355   1.260  0.5366  0.5468 -0.2361
 3628TIP3    H132443   5.453   4.422   1.231  0.1196  0.3514  0.1991
 3628TIP3    H232444   5.510   4.357   1.356 -2.0135 -2.4185 -0.1494
 3629TIP3   OH232445   5.625   1.877   1.759  0.3646 -0.2582  0.2327
 3629TIP3    H132446   5.622   1.843   1.848 -1.2116 -0.1690  0.2379
 3629TIP3    H232447   5.551   1.937   1.754  0.4901 -0.1918 -1.1061
 3630TIP3   OH232448   0.305   1.666   7.499 -0.0986 -0.2717  0.4182
 3630TIP3    H132449   0.302   1.731   7.429 -1.2713  1.4954  2.0139
 3630TIP3    H232450   0.388   1.682   7.543 -1.2673  1.7012  2.1001
 3631TIP3   OH232451   2.343   0.992   9.207  0.0854 -0.4659  0.1500
 3631TIP3    H132452   2.309   0.970   9.294  1.2816 -0.9110  0.5352
 3631TIP3    H232453   2.438   0.991   9.218  0.2491  0.0535 -1.0347
 3632TIP3   OH232454   3.094   5.447   8.378 -0.2955 -0.2820 -0.3009
 3632TIP3    H132455   3.029   5.497   8.427  1.8184  1.8034  0.5806
 3632TIP3    H232456   3.079   5.471   8.287 -0.2965  0.7926 -0.0334
 3633TIP3   OH232457   4.188   3.690   1.453 -0.4326 -0.2946 -0.0852
 3633TIP3    H132458   4.283   3.675   1.454 -0.6183 -1.7082 -1.0841
 3633TIP3    H232459   4.177   3.778   1.491  1.1356 -0.7692  1.6272
 3634TIP3   OH232460   4.050   6.621   1.817 -0.3072 -0.1163  0.3127
 3634TIP3    H132461   4.079   6.712   1.820 -1.1529  0.1762 -0.2131
 3634TIP3    H232462   4.086   6.582   1.897 -1.3878  1.1197  1.4430
 3635TIP3   OH232463   3.720   4.391   0.842 -0.2087  0.1387 -0.1684
 3635TIP3    H132464   3.654   4.435   0.789 -2.0043  0.6978  2.3365
 3635TIP3    H232465   3.779   4.461   0.870  0.8797 -0.1929 -1.5169
 3636TIP3   OH232466   1.638   0.349   0.576 -0.1183  0.6443  0.0119
 3636TIP3    H132467   1.649   0.404   0.654  0.2392  2.0120 -0.9555
 3636TIP3    H232468   1.580   0.400   0.519 -0.6166 -0.4730 -0.4967
 3637TIP3   OH232469   2.961   0.228   0.920  0.0008 -0.7270  0.1629
 3637TIP3    H132470   3.027   0.189   0.864  1.8952 -1.3676  2.6827
 3637TIP3    H232471   2.957   0.320   0.892  0.1007 -1.2459 -1.6509
 3638TIP3   OH232472   0.212   3.645   9.105 -0.7606 -0.6114 -0.5206
 3638TIP3    H132473   0.291   3.613   9.062 -1.9555 -2.6782 -1.3726
 3638TIP3    H232474   0.168   3.697   9.038 -0.2493  0.3367 -0.1276
 3639TIP3   OH232475   4.995   5.215   0.111  0.1463 -0.4627 -0.9574
 3639TIP3    H132476   4.970   5.127   0.085  0.9747 -0.4935 -1.7179
 3639TIP3    H232477   4.964   5.224   0.201 -2.0869 -0.6494 -1.6592
 3640TIP3   OH232478   3.033   1.238   1.642 -0.2998 -0.1434 -0.1173
 3640TIP3    H132479   3.086   1.205   1.570 -0.6192 -0.8899 -0.0159
 3640TIP3    H232480   3.095   1.249   1.714 -0.4418 -2.1168  0.3612
 3641TIP3   OH232481   3.452   3.802   0.837  0.2949 -0.1747  0.0873
 3641TIP3    H132482   3.481   3.712   0.826 -0.3042 -0.3761  0.1539
 3641TIP3    H232483   3.519   3.854   0.792  0.8441 -0.6226  0.3837
 3642TIP3   OH232484   1.056   0.453   8.855 -0.0751  0.3799 -0.5874
 3642TIP3    H132485   0.970   0.412   8.864 -0.3815  1.2691  0.8866
 3642TIP3    H232486   1.117   0.388   8.891 -0.1653 -0.0950 -1.2761
 3643TIP3   OH232487   4.669   0.483   1.260  0.0855 -0.2398  0.5639
 3643TIP3    H132488   4.691   0.416   1.325  1.2506  0.9393  1.4545
 3643TIP3    H232489   4.605   0.539   1.305 -0.7975 -0.6704 -0.1324
 3644TIP3   OH232490   3.024   6.144   9.125 -0.1388 -0.1314 -0.6177
 3644TIP3    H132491   3.093   6.078   9.113  0.3095 -0.0941  1.3330
 3644TIP3    H232492   2.961   6.101   9.183 -1.4105  0.1056 -1.7790
 3645TIP3   OH232493   1.270   4.659   0.082  0.7202 -0.3702  0.2623
 3645TIP3    H132494   1.243   4.636   0.171  1.3348 -0.4893  0.4198
 3645TIP3    H232495   1.365   4.668   0.087  0.9498 -1.8340 -0.6902
 3646TIP3   OH232496   2.056   5.475   2.126 -0.1773  0.7654 -0.9118
 3646TIP3    H132497   2.018   5.392   2.155  0.4000  0.5023 -0.8782
 3646TIP3    H232498   2.037   5.536   2.197  2.0924 -0.1077  0.5814
 3647TIP3   OH232499   0.320   6.014   0.660  0.2261 -0.5283  0.3178
 3647TIP3    H132500   0.383   6.085   0.649 -1.9463  1.5955  0.6544
 3647TIP3    H232501   0.289   6.024   0.750 -0.3626 -1.7460  0.2678
 3648TIP3   OH232502   3.675   3.738   7.684  0.1873  0.5928 -0.2519
 3648TIP3    H132503   3.606   3.720   7.621  0.3625 -0.7651 -0.0740
 3648TIP3    H232504   3.753   3.754   7.631 -0.1222  1.5499 -0.4326
 3649TIP3   OH232505   0.313   5.481   1.172  0.4556  0.0090 -0.0111
 3649TIP3    H132506   0.400   5.518   1.158  1.4911 -1.7643  1.2720
 3649TIP3    H232507   0.328   5.386   1.176 -1.2958 -0.2673  1.6941
 3650TIP3   OH232508   5.283   4.278   0.744  0.2351  0.0089 -0.2018
 3650TIP3    H132509   5.211   4.331   0.710  0.0060 -0.4734 -0.4901
 3650TIP3    H232510   5.285   4.296   0.837 -0.0081  0.3235 -0.2570
 3651TIP3   OH232511   3.621   1.157   6.706  0.1542  0.4537 -0.3055
 3651TIP3    H132512   3.672   1.214   6.764 -0.5606  1.9061 -1.0293
 3651TIP3    H232513   3.574   1.098   6.765  0.2993  1.1499  0.5252
 3652TIP3   OH232514   3.584   5.394   0.240  0.2377 -0.0749 -0.0877
 3652TIP3    H132515   3.561   5.301   0.236 -0.8144  0.0483  1.7369
 3652TIP3    H232516   3.500   5.439   0.244  0.7453  0.9195 -0.3748
 3653TIP3   OH232517   0.747   3.623   2.254  0.1867  0.7063  0.2453
 3653TIP3    H132518   0.782   3.674   2.327 -0.9297 -0.0480  1.3436
 3653TIP3    H232519   0.812   3.554   2.240 -0.1523  0.1428  1.3431
 3654TIP3   OH232520   3.451   4.760   8.431  0.4955 -0.3549  0.2145
 3654TIP3    H132521   3.450   4.832   8.367 -0.4934 -1.1980 -0.7536
 3654TIP3    H232522   3.365   4.719   8.422 -0.1099  0.1738  2.9122
 3655TIP3   OH232523   4.518   2.821   8.830  0.0240 -0.2455  0.1465
 3655TIP3    H132524   4.536   2.760   8.759  1.2726 -0.0425  0.2694
 3655TIP3    H232525   4.604   2.855   8.855 -0.6136  1.3697  0.2568
 3656TIP3   OH232526   4.482   4.703   0.240  0.5119 -0.4028 -0.6358
 3656TIP3    H132527   4.429   4.721   0.162  0.8727  1.6476 -0.4597
 3656TIP3    H232528   4.446   4.761   0.307  0.9577 -1.2941  0.4038
 3657TIP3   OH232529   0.948   4.345   7.012  0.3512  0.3666  0.4927
 3657TIP3    H132530   1.038   4.333   6.983  0.5142  1.9776  0.2363
 3657TIP3    H232531   0.949   4.430   7.057 -0.6530 -0.4295  2.0858
 3658TIP3   OH232532   3.998   5.003   7.990 -0.5629  0.2185 -0.3888
 3658TIP3    H132533   4.077   4.950   7.977 -0.2802  0.8785 -1.4761
 3658TIP3    H232534   4.024   5.071   8.051 -0.3058  0.3726 -0.6647
 3659TIP3   OH232535   2.152   0.557   9.022  0.3406  0.0141 -0.2753
 3659TIP3    H132536   2.147   0.521   9.111 -0.0440 -1.1021 -0.7284
 3659TIP3    H232537   2.226   0.617   9.025 -0.2612  0.7228  1.0450
 3660TIP3   OH232538   3.401   4.339   0.257 -0.0379 -0.0448 -0.3903
 3660TIP3    H132539   3.429   4.423   0.293  1.5728 -0.6663 -0.1500
 3660TIP3    H232540   3.306   4.349   0.246  0.0850  1.7193 -0.1674
 3661TIP3   OH232541   2.309   4.067   6.860 -0.2022  1.1837 -0.6103
 3661TIP3    H132542   2.277   4.020   6.782 -1.1825  1.5423 -0.4418
 3661TIP3    H232543   2.251   4.142   6.868 -1.3950  0.1449  1.5698
 3662TIP3   OH232544   0.448   0.565   1.266  0.2195 -0.4839 -0.1265
 3662TIP3    H132545   0.388   0.639   1.260  0.0031 -0.5438  1.1212
 3662TIP3    H232546   0.437   0.531   1.355  1.6576 -0.8723 -0.0598
 3663TIP3   OH232547   0.670   0.158   0.929  0.8138 -0.5926  0.2514
 3663TIP3    H132548   0.728   0.232   0.949  0.0431 -0.1437  0.9058
 3663TIP3    H232549   0.721   0.103   0.869  1.2929  0.6211 -0.4908
 3664TIP3   OH232550   3.695   3.247   1.114 -0.1188  0.1981  0.4820
 3664TIP3    H132551   3.635   3.284   1.050  0.9709 -0.5008 -1.0008
 3664TIP3    H232552   3.656   3.163   1.138 -1.4507  1.2320  2.1642
 3665TIP3   OH232553   4.048   6.527   7.559 -0.1474 -0.5985 -0.4134
 3665TIP3    H132554   4.050   6.564   7.647 -3.2817  0.8922 -0.8319
 3665TIP3    H232555   4.049   6.432   7.573 -0.0546 -0.3849  1.1697
 3666TIP3   OH232556   4.684   0.041   7.222  0.0179  0.3196 -0.1865
 3666TIP3    H132557   4.709  -0.049   7.240  3.4105  1.0922 -0.3216
 3666TIP3    H232558   4.662   0.043   7.129 -0.0869 -0.3419 -0.1791
 3667TIP3   OH232559   1.966   1.388   0.407  0.2006 -0.2614 -0.3752
 3667TIP3    H132560   1.886   1.361   0.453  0.3069 -2.2412 -1.2369
 3667TIP3    H232561   1.935   1.420   0.323  0.2083  0.8698  0.0281
 3668TIP3   OH232562   2.356   1.425   0.506  0.1543 -0.3970 -0.0264
 3668TIP3    H132563   2.382   1.456   0.593  1.1059 -1.8854  0.2633
 3668TIP3    H232564   2.362   1.503   0.451 -0.3243  0.5451  1.1899
 3669TIP3   OH232565   3.441   0.705   7.503  0.3008  0.2729  0.3119
 3669TIP3    H132566   3.503   0.776   7.487 -0.0075  0.5987  0.5561
 3669TIP3    H232567   3.371   0.720   7.440  0.4509 -0.0778  0.0571
 3670TIP3   OH232568   6.508   3.528   1.098  0.5099 -0.1336  0.5834
 3670TIP3    H132569   6.425   3.510   1.142 -0.0622  0.1804 -0.3230
 3670TIP3    H232570   6.540   3.442   1.071 -0.5682 -0.1315 -0.8501
 3671TIP3   OH232571   0.138   0.134   8.078  0.1996 -0.1888  0.0873
 3671TIP3    H132572   0.056   0.084   8.074  1.1059 -1.6786 -1.9848
 3671TIP3    H232573   0.159   0.151   7.986  0.3322  3.5236  0.6552
 3672TIP3   OH232574   6.297   5.601   2.020 -0.0704 -0.5310  0.0071
 3672TIP3    H132575   6.370   5.601   2.082 -0.4335 -1.1457  0.4436
 3672TIP3    H232576   6.218   5.606   2.074 -0.3526  1.3160 -0.5000
 3673TIP3   OH232577   5.228   3.280   7.208  0.2369  0.0861 -0.3647
 3673TIP3    H132578   5.210   3.306   7.298 -0.0390  1.4670 -0.7882
 3673TIP3    H232579   5.320   3.256   7.207  0.2487  0.1024  0.2721
 3674TIP3   OH232580   4.868   6.061   2.219  0.2632 -0.2415  0.3064
 3674TIP3    H132581   4.890   6.014   2.299 -0.8080  1.1193  1.4695
 3674TIP3    H232582   4.877   6.154   2.242 -0.3819  0.1971 -1.0459
 3675TIP3   OH232583   2.103   0.784   6.722 -0.6443 -0.0013 -0.3434
 3675TIP3    H132584   2.040   0.854   6.704 -1.3593 -0.4046  0.4868
 3675TIP3    H232585   2.120   0.792   6.816 -0.7260 -0.9295 -0.2429
 3676TIP3   OH232586   3.518   3.708   1.838 -0.4071 -0.1092  0.2809
 3676TIP3    H132587   3.497   3.801   1.850  0.6593  0.2253 -0.2785
 3676TIP3    H232588   3.532   3.675   1.926  0.7399  0.6571  0.4003
 3677TIP3   OH232589   2.326   4.403   1.428  0.1408 -0.6141 -0.0415
 3677TIP3    H132590   2.348   4.347   1.502  2.8800  0.0028 -0.2763
 3677TIP3    H232591   2.309   4.342   1.356 -2.4075 -1.2110  0.9629
 3678TIP3   OH232592   2.959   1.981   1.431 -0.1768  0.1994 -0.2766
 3678TIP3    H132593   2.947   1.886   1.444 -1.5228  0.1583 -1.6402
 3678TIP3    H232594   3.048   1.989   1.398 -0.3875 -0.7003 -1.1004
 3679TIP3   OH232595   6.213   0.332   2.512  0.7592  0.0714  0.5635
 3679TIP3    H132596   6.175   0.379   2.438  1.5440 -0.5612 -0.2716
 3679TIP3    H232597   6.146   0.268   2.536  0.1347  0.8741  0.9960
 3680TIP3   OH232598   0.848   2.405   8.860 -0.7810  0.1023  0.2244
 3680TIP3    H132599   0.768   2.443   8.822  0.7887  1.4797 -1.9028
 3680TIP3    H232600   0.904   2.386   8.784 -0.4619 -4.3982  1.3035
 3681TIP3   OH232601   2.901   3.544   6.644 -0.5040 -0.0009 -0.4394
 3681TIP3    H132602   2.904   3.537   6.549 -2.1901 -0.1103 -0.5088
 3681TIP3    H232603   2.911   3.638   6.662 -1.1357  0.1331 -0.7787
 3682TIP3   OH232604   5.230   2.969   1.967  0.1603 -0.2465  0.0450
 3682TIP3    H132605   5.226   3.037   2.035 -1.1618 -0.8016  0.5481
 3682TIP3    H232606   5.287   3.007   1.900 -0.6328  1.4396  0.2541
 3683TIP3   OH232607   4.527   4.867   8.969 -0.7694  0.0494  0.4743
 3683TIP3    H132608   4.588   4.885   9.041  1.0520 -1.3176 -0.6157
 3683TIP3    H232609   4.558   4.923   8.898  1.0214 -2.5086 -0.9346
 3684TIP3   OH232610   2.275   3.951   0.534 -0.3107 -0.4144  0.4571
 3684TIP3    H132611   2.263   3.857   0.526  0.9072 -0.4467 -1.4849
 3684TIP3    H232612   2.309   3.979   0.449 -0.1332  1.6967  1.1579
 3685TIP3   OH232613   5.899   4.754   7.769 -0.1430 -0.1500  0.4744
 3685TIP3    H132614   5.976   4.788   7.815  0.8314 -1.5345 -0.0478
 3685TIP3    H232615   5.935   4.698   7.700 -1.6128 -1.6133  0.8233
 3686TIP3   OH232616   2.867   5.960   0.028  0.4542  0.5694 -0.1668
 3686TIP3    H132617   2.936   5.945   0.093  0.9095  1.0351 -0.5328
 3686TIP3    H232618   2.842   5.872  -0.000  0.4511  0.3736  0.4311
 3687TIP3   OH232619   4.290   2.899   9.011 -0.5078 -0.9688 -0.8844
 3687TIP3    H132620   4.361   2.918   8.950 -0.4407  0.1097 -0.5008
 3687TIP3    H232621   4.268   2.984   9.050 -2.0038 -1.2720 -0.9888
 3688TIP3   OH232622   0.351   0.821   0.613 -0.2371 -1.1499 -0.5626
 3688TIP3    H132623   0.327   0.746   0.558  1.7774 -1.0469 -1.6881
 3688TIP3    H232624   0.268   0.854   0.647 -1.3818 -2.3766 -2.0410
 3689TIP3   OH232625   2.043   2.474   1.802  0.3441  0.3898 -0.8094
 3689TIP3    H132626   2.106   2.409   1.772  1.1512  1.1016 -0.6751
 3689TIP3    H232627   1.995   2.499   1.722 -0.6354 -1.0488 -0.7070
 3690TIP3   OH232628   3.416   1.534   8.102  0.2449 -0.4224 -0.0332
 3690TIP3    H132629   3.374   1.599   8.046 -1.8001 -1.9218 -0.3518
 3690TIP3    H232630   3.347   1.507   8.163  0.9663 -2.4201 -0.0400
 3691TIP3   OH232631   3.280   4.115   7.817  0.2047 -0.3318 -0.1577
 3691TIP3    H132632   3.358   4.157   7.781 -0.4441  0.4273 -0.7140
 3691TIP3    H232633   3.211   4.133   7.754 -0.6688 -0.0703  0.8283
 3692TIP3   OH232634   1.009   0.170   1.311 -0.0281  0.0496 -0.6520
 3692TIP3    H132635   1.015   0.254   1.356 -2.4092  0.6567 -1.3232
 3692TIP3    H232636   0.966   0.112   1.373 -0.1901 -0.0908 -0.8921
 3693TIP3   OH232637   6.381   0.133   0.237 -0.1665  0.4218 -0.5040
 3693TIP3    H132638   6.460   0.113   0.286 -1.4612  0.6708  1.8350
 3693TIP3    H232639   6.310   0.101   0.293 -1.7844  1.6363 -1.7765
 3694TIP3   OH232640   1.079   5.607   0.620 -0.1362  0.4108  0.9385
 3694TIP3    H132641   1.045   5.695   0.611  2.3008  1.3538  0.0564
 3694TIP3    H232642   1.170   5.619   0.650  0.8349 -1.6668 -0.8696
 3695TIP3   OH232643   0.465   4.554   1.743 -0.4044  0.5655  0.2628
 3695TIP3    H132644   0.391   4.542   1.803  0.2758 -0.6254  0.8945
 3695TIP3    H232645   0.532   4.599   1.796 -0.7620  1.9484 -0.4015
 3696TIP3   OH232646   5.915   6.485   8.244  0.2598 -0.2521 -0.4314
 3696TIP3    H132647   5.919   6.392   8.221 -0.3338 -0.2622 -0.5063
 3696TIP3    H232648   6.006   6.512   8.248  0.5304 -1.3043  1.5590
 3697TIP3   OH232649   4.244   2.993   1.052 -0.1736 -0.0080 -0.4124
 3697TIP3    H132650   4.245   2.921   1.116  1.5106 -0.0104 -0.3989
 3697TIP3    H232651   4.186   2.962   0.982 -1.3312 -0.3860  0.6684
 3698TIP3   OH232652   6.040   2.279   1.300 -0.4858 -0.4247  0.7767
 3698TIP3    H132653   6.024   2.369   1.271 -0.7586 -0.5657  0.4854
 3698TIP3    H232654   5.962   2.231   1.274  0.1414 -0.9873 -0.1149
 3699TIP3   OH232655   3.628   3.295   7.169  0.2715 -0.7329 -0.5710
 3699TIP3    H132656   3.719   3.317   7.185  0.3397 -1.4996  0.1400
 3699TIP3    H232657   3.602   3.352   7.097  1.0267  0.1976 -0.1303
 3700TIP3   OH232658   1.563   2.886   2.208  0.2853 -0.3829  0.4235
 3700TIP3    H132659   1.607   2.805   2.183  0.9065  0.0366  0.1302
 3700TIP3    H232660   1.632   2.952   2.208 -0.4336  0.4048 -0.5989
 3701TIP3   OH232661   1.903   0.235   1.490 -0.2602  0.0255 -0.4332
 3701TIP3    H132662   1.855   0.211   1.569  1.1761  1.8281  1.0995
 3701TIP3    H232663   1.868   0.322   1.467  0.2644  0.0953 -0.9884
 3702TIP3   OH232664   6.497   5.153   0.257  0.4044  0.2107 -0.6724
 3702TIP3    H132665   6.403   5.136   0.260  0.3347  0.4940 -1.2652
 3702TIP3    H232666   6.537   5.073   0.292 -0.1454  1.1317  2.4020
 3703TIP3   OH232667   3.608   4.530   8.515 -0.3193  0.5477 -1.0454
 3703TIP3    H132668   3.689   4.538   8.465 -0.3443 -0.5235 -1.2763
 3703TIP3    H232669   3.554   4.604   8.485 -1.0125 -0.9667 -3.9236
 3704TIP3   OH232670   2.249   3.806   8.514 -0.0358  0.4972 -0.2601
 3704TIP3    H132671   2.251   3.886   8.462  1.0324  0.0096 -0.9894
 3704TIP3    H232672   2.322   3.815   8.575  2.4712 -1.4221 -2.7192
 3705TIP3   OH232673   4.655   5.422   8.174 -0.0330  0.0394  0.2654
 3705TIP3    H132674   4.738   5.455   8.210  0.6730  1.9692 -2.7649
 3705TIP3    H232675   4.674   5.332   8.148  0.9178  0.2344  0.2520
 3706TIP3   OH232676   1.553   4.666   0.062  0.3166 -0.3492  0.3768
 3706TIP3    H132677   1.624   4.630   0.114  0.9092  0.1480 -0.0702
 3706TIP3    H232678   1.581   4.755   0.040  0.6599 -0.9232 -1.7804
 3707TIP3   OH232679   3.286   3.879   0.475 -0.1085 -0.6521 -0.1195
 3707TIP3    H132680   3.315   3.900   0.564  0.4503  0.5222 -0.5494
 3707TIP3    H232681   3.191   3.877   0.480 -0.2459  2.2302 -0.0224
 3708TIP3   OH232682   3.721   1.863   7.354  0.3575  0.3835  0.1462
 3708TIP3    H132683   3.772   1.936   7.388 -1.4310  1.7951 -0.0407
 3708TIP3    H232684   3.698   1.889   7.265  0.0222 -0.5939 -0.0658
 3709TIP3   OH232685   3.700   4.685   7.133  0.7551 -0.8393  0.1086
 3709TIP3    H132686   3.773   4.732   7.093  1.3060 -2.1637 -0.4978
 3709TIP3    H232687   3.739   4.608   7.174 -0.1324 -0.8379  1.0145
 3710TIP3   OH232688   0.010   2.508   0.367  0.3715 -0.4249 -0.0562
 3710TIP3    H132689   0.022   2.567   0.292  0.5918 -1.1311 -0.5887
 3710TIP3    H232690   0.100   2.488   0.395  0.2879 -0.1345  0.4210
 3711TIP3   OH232691   0.801   6.033   1.463  0.0292 -0.0367  0.0674
 3711TIP3    H132692   0.740   6.105   1.453 -0.6167 -0.8380 -2.5635
 3711TIP3    H232693   0.751   5.965   1.509  0.5839  1.0288  2.3798
 3712TIP3   OH232694   4.450   5.094   2.801 -0.5240 -0.9038 -0.0778
 3712TIP3    H132695   4.376   5.151   2.821 -0.1017 -0.5361  0.4509
 3712TIP3    H232696   4.511   5.149   2.753 -1.4274 -1.7140 -2.2850
 3713TIP3   OH232697   5.136   6.237   1.368  0.0194 -0.3573 -0.5936
 3713TIP3    H132698   5.195   6.292   1.420  1.1904 -0.0604 -2.1626
 3713TIP3    H232699   5.152   6.148   1.400  1.0128 -0.2269 -0.6984
 3714TIP3   OH232700   5.518   0.744   8.288  0.7482 -0.1158  0.0147
 3714TIP3    H132701   5.533   0.809   8.357  0.3581 -0.8285  0.7993
 3714TIP3    H232702   5.600   0.694   8.283  1.9215  1.8545 -2.2177
 3715TIP3   OH232703   1.058   5.373   2.126  0.2191  0.2585  0.2464
 3715TIP3    H132704   0.981   5.394   2.179 -0.4627  0.5422 -0.8397
 3715TIP3    H232705   1.047   5.422   2.045 -0.9137 -3.2746 -1.9883
 3716TIP3   OH232706   4.353   3.968   9.065 -0.0162  0.0122  0.4244
 3716TIP3    H132707   4.399   3.887   9.043  0.1102 -0.7029  2.9727
 3716TIP3    H232708   4.262   3.942   9.075 -0.1139  0.3637  0.4664
 3717TIP3   OH232709   2.432   0.930   1.623 -0.4551 -0.6157 -0.0539
 3717TIP3    H132710   2.350   0.973   1.643 -1.6961 -2.6086 -0.5534
 3717TIP3    H232711   2.436   0.928   1.527  0.2402 -0.3998 -0.0337
 3718TIP3   OH232712   0.053   0.859   7.090 -0.4625  0.1872 -0.2147
 3718TIP3    H132713   0.004   0.898   7.018 -0.4112  0.3447 -0.1665
 3718TIP3    H232714   0.007   0.890   7.169  0.2683  1.1232 -0.1341
 3719TIP3   OH232715   4.023   2.835   6.578  0.1183  0.3481 -0.0531
 3719TIP3    H132716   4.091   2.869   6.520  1.0495 -0.7189  0.3706
 3719TIP3    H232717   4.053   2.856   6.666  0.2168 -0.6477  0.1672
 3720TIP3   OH232718   6.226   6.501   0.776 -0.1854 -0.3809 -0.5722
 3720TIP3    H132719   6.276   6.426   0.808  1.9342  1.2223  0.1256
 3720TIP3    H232720   6.283   6.541   0.710 -0.5203  1.4808  0.1946
 3721TIP3   OH232721   5.539   4.700   1.309  0.1196 -0.5594 -0.0545
 3721TIP3    H132722   5.625   4.712   1.267  0.4686 -0.3958  0.6899
 3721TIP3    H232723   5.490   4.779   1.286  0.5464 -0.1561  0.4097
 3722TIP3   OH232724   5.682   3.758   1.961 -0.1315 -0.2770  0.2858
 3722TIP3    H132725   5.711   3.677   1.920  1.5779  0.9353 -1.0911
 3722TIP3    H232726   5.687   3.740   2.055  2.1401 -1.2010  0.0551
 3723TIP3   OH232727   1.715   1.458   2.448 -0.5373 -0.5813  0.1558
 3723TIP3    H132728   1.690   1.549   2.432  0.8154 -0.3404 -0.7453
 3723TIP3    H232729   1.633   1.409   2.440 -1.3089  0.5603  0.8095
 3724TIP3   OH232730   0.040   2.209   1.117  0.0780  0.1943  0.2415
 3724TIP3    H132731   0.101   2.257   1.173  1.4363 -0.9283 -0.2021
 3724TIP3    H232732  -0.044   2.213   1.164  1.2131 -0.9085  2.5227
 3725TIP3   OH232733   1.790   3.761   7.433  0.4261 -0.0203 -0.0034
 3725TIP3    H132734   1.823   3.675   7.408 -0.6126 -0.2306 -0.7345
 3725TIP3    H232735   1.805   3.767   7.527  0.3607 -1.0704  0.0830
 3726TIP3   OH232736   0.186   2.399   9.074  0.1007  0.4159 -0.9145
 3726TIP3    H132737   0.121   2.335   9.046  0.6297 -0.2134 -0.7280
 3726TIP3    H232738   0.270   2.361   9.047  0.5564  0.2272  0.6743
 3727TIP3   OH232739   0.120   0.657   8.512  0.1039 -0.7062  0.0711
 3727TIP3    H132740   0.134   0.583   8.571  0.3527 -0.2306  0.6126
 3727TIP3    H232741   0.168   0.730   8.552 -1.4676  0.1842  0.4054
 3728TIP3   OH232742   6.498   3.567   9.252 -0.6878 -0.4636  0.0399
 3728TIP3    H132743   6.450   3.583   9.171  0.0504  0.3247 -0.2537
 3728TIP3    H232744   6.502   3.471   9.258 -1.5657 -0.5345 -0.3577
 3729TIP3   OH232745   0.243   5.923   6.990  0.0685 -0.1569  0.1891
 3729TIP3    H132746   0.170   5.966   6.945  2.0474  0.2543 -2.8383
 3729TIP3    H232747   0.303   5.994   7.012  0.7248 -0.7625  0.3840
 3730TIP3   OH232748   4.708   3.266   9.281 -0.5601  0.4202  0.1993
 3730TIP3    H132749   4.765   3.210   9.334  1.0181  1.9232  0.1808
 3730TIP3    H232750   4.631   3.281   9.335  0.0473  0.1328  1.1662
 3731TIP3   OH232751   1.205   5.706   8.248 -1.0666 -0.0445  0.0466
 3731TIP3    H132752   1.182   5.641   8.181 -1.4542  0.0080  0.1231
 3731TIP3    H232753   1.127   5.762   8.254 -0.2745  1.2181 -0.9466
 3732TIP3   OH232754   3.520   5.797   0.077 -0.3097  0.2021  0.4573
 3732TIP3    H132755   3.455   5.866   0.089  0.1176  0.6880  0.0214
 3732TIP3    H232756   3.545   5.802  -0.015  1.3173  0.9233  0.8971
 3733TIP3   OH232757   2.080   1.461   7.367 -0.2374  0.2453 -0.3549
 3733TIP3    H132758   1.997   1.420   7.342  0.2089 -1.0170  0.1430
 3733TIP3    H232759   2.082   1.453   7.463 -0.0234  1.2520 -0.2658
 3734TIP3   OH232760   1.712   2.626   7.165  0.1880 -0.3345  0.5013
 3734TIP3    H132761   1.660   2.549   7.142 -0.4882 -0.3363  1.9294
 3734TIP3    H232762   1.800   2.591   7.180  0.1601 -0.6392 -0.0333
 3735TIP3   OH232763   1.777   3.827   8.202 -0.4483  0.1032  0.3738
 3735TIP3    H132764   1.844   3.895   8.191 -0.5260  0.1961  0.4844
 3735TIP3    H232765   1.722   3.858   8.273 -0.9891  0.3277 -0.1373
 3736TIP3   OH232766   0.542   5.804   0.459  0.0755 -0.2034 -0.0504
 3736TIP3    H132767   0.580   5.759   0.384 -0.9935  0.0074 -0.7378
 3736TIP3    H232768   0.589   5.887   0.464 -1.8907  1.2017 -2.4739
 3737TIP3   OH232769   1.732   6.290   2.677  0.0785 -0.3596 -0.4725
 3737TIP3    H132770   1.821   6.259   2.688  0.1366  0.5831  3.0395
 3737TIP3    H232771   1.740   6.386   2.675 -0.7601 -0.2913 -1.7531
 3738TIP3   OH232772   3.406   2.801   8.013 -0.2984  0.4966 -0.3069
 3738TIP3    H132773   3.315   2.822   8.036 -0.3227 -0.8211  0.9205
 3738TIP3    H232774   3.453   2.803   8.096  0.2440 -1.4151 -0.5206
 3739TIP3   OH232775   1.927   2.233   2.098  0.0499 -0.1667 -0.2616
 3739TIP3    H132776   1.982   2.179   2.155  1.2303  1.3722  0.1314
 3739TIP3    H232777   1.930   2.189   2.013  0.3765 -1.1160  0.2284
 3740TIP3   OH232778   2.565   3.651   2.026 -0.2108  0.9487  0.3174
 3740TIP3    H132779   2.611   3.731   2.050  0.5328 -0.0074  2.2915
 3740TIP3    H232780   2.476   3.680   2.005  0.2578  2.3658  0.1509
 3741TIP3   OH232781   3.774   4.729   2.242  0.1525  0.0422 -0.1269
 3741TIP3    H132782   3.686   4.701   2.267  0.6782 -1.6083  0.0069
 3741TIP3    H232783   3.791   4.685   2.159  0.3685  1.4099 -0.8365
 3742TIP3   OH232784   1.506   3.328   2.037  0.2830  0.4374 -0.4168
 3742TIP3    H132785   1.433   3.329   2.100  1.1311 -0.6935  0.6414
 3742TIP3    H232786   1.490   3.250   1.984  0.9179 -0.0558  0.0949
 3743TIP3   OH232787   6.435   3.669   0.637  0.1557  0.2006  0.1489
 3743TIP3    H132788   6.344   3.673   0.668 -0.3537  2.1239 -1.3732
 3743TIP3    H232789   6.428   3.632   0.549  0.6588  1.6071 -0.5011
 3744TIP3   OH232790   0.350   3.369   0.228 -0.2131  0.4239 -0.0924
 3744TIP3    H132791   0.296   3.293   0.250  0.4257  0.1009  0.3990
 3744TIP3    H232792   0.291   3.443   0.233 -0.8997 -0.0542 -0.7735
 3745TIP3   OH232793   1.211   5.318   9.132  0.3990  0.3318  0.1072
 3745TIP3    H132794   1.242   5.350   9.047 -2.0131  1.4935 -0.4116
 3745TIP3    H232795   1.267   5.243   9.151  2.1700  1.1239 -1.6318
 3746TIP3   OH232796   0.420   2.065   7.096 -0.2113  0.2655 -0.2042
 3746TIP3    H132797   0.498   2.040   7.047 -0.2655  0.5144 -0.4235
 3746TIP3    H232798   0.356   2.088   7.028 -0.5671 -0.2144 -0.0321
 3747TIP3   OH232799   2.447   6.482   0.033  0.2008 -0.4992  0.0190
 3747TIP3    H132800   2.379   6.526  -0.017  1.2139 -0.7554 -1.6679
 3747TIP3    H232801   2.400   6.437   0.104 -1.7102 -2.4155 -2.2762
 3748TIP3   OH232802   0.457   0.543   1.858  0.3288 -0.1200 -0.3011
 3748TIP3    H132803   0.410   0.625   1.866  0.2999 -0.1349 -0.3180
 3748TIP3    H232804   0.432   0.493   1.936  0.9254  0.1831  0.0925
 3749TIP3   OH232805   1.919   2.956   6.997 -0.0431 -0.2262  0.0563
 3749TIP3    H132806   1.907   3.047   6.969 -3.0517 -0.8065 -0.8635
 3749TIP3    H232807   2.010   2.937   6.976  0.6702  2.5180  0.2001
 3750TIP3   OH232808   0.249   5.960   0.272  0.0623 -0.0043  0.6470
 3750TIP3    H132809   0.325   5.942   0.326  1.1372  2.7873  0.2489
 3750TIP3    H232810   0.241   5.884   0.214  2.0554 -0.7156  1.2457
 3751TIP3   OH232811   0.642   3.749   8.763  0.4376 -0.1835 -0.4164
 3751TIP3    H132812   0.568   3.804   8.791  0.8376  0.1018  0.1159
 3751TIP3    H232813   0.676   3.792   8.685 -0.1106 -0.4520 -0.8025
 3752TIP3   OH232814   6.557   0.537   8.008  0.4770 -0.6769 -0.0113
 3752TIP3    H132815   6.640   0.490   8.009  0.9258 -0.0521 -2.2628
 3752TIP3    H232816   6.582   0.629   7.995 -0.5327 -0.3530  0.2448
 3753TIP3   OH232817   6.595   5.311   8.448 -0.0965  0.0158  0.3254
 3753TIP3    H132818   6.531   5.244   8.471 -0.1293  0.2985  1.0989
 3753TIP3    H232819   6.625   5.345   8.533 -1.0557  1.8797 -0.0271
 3754TIP3   OH232820   1.015   4.141   8.273 -1.0251 -0.4718  0.6273
 3754TIP3    H132821   1.015   4.237   8.269  2.0513 -0.3536  0.2996
 3754TIP3    H232822   0.955   4.114   8.204 -1.6309  1.2105  0.4382
 3755TIP3   OH232823   4.999   4.227   0.461  0.0389 -0.0742  0.2108
 3755TIP3    H132824   5.016   4.276   0.541  1.6375 -0.6590  0.2567
 3755TIP3    H232825   4.947   4.152   0.490 -0.2704  0.2513  0.5208
 3756TIP3   OH232826   3.436   6.055   0.806 -0.2413 -0.3425 -0.0262
 3756TIP3    H132827   3.464   6.039   0.716 -0.1226 -0.2860  0.0002
 3756TIP3    H232828   3.493   6.126   0.837 -0.4556 -0.1818  0.0069
 3757TIP3   OH232829   2.109   5.448   8.915 -0.4360  0.0149  0.6649
 3757TIP3    H132830   2.205   5.438   8.917 -0.4968 -0.4301  2.0504
 3757TIP3    H232831   2.076   5.369   8.957 -1.4338  0.1591  0.1782
 3758TIP3   OH232832   0.303   5.651   8.599  0.1901 -0.4733  0.2054
 3758TIP3    H132833   0.327   5.679   8.687 -0.1184 -0.0207  0.1467
 3758TIP3    H232834   0.378   5.599   8.569  1.6527  1.8523 -0.4283
 3759TIP3   OH232835   5.790   0.295   8.172  0.5175 -0.2142 -0.2451
 3759TIP3    H132836   5.721   0.361   8.180  1.8755  1.0908  1.5945
 3759TIP3    H232837   5.772   0.233   8.243 -0.4415 -1.5876 -1.6323
 3760TIP3   OH232838   6.459   5.639   7.713 -0.2023  0.1885  0.0243
 3760TIP3    H132839   6.422   5.703   7.775  0.4557 -0.1144  0.7487
 3760TIP3    H232840   6.503   5.693   7.647  0.0969  0.4941  0.4683
 3761TIP3   OH232841   1.528   0.139   8.977 -0.6436  0.0915  0.0013
 3761TIP3    H132842   1.553   0.095   8.896  0.4731  0.1383  0.3064
 3761TIP3    H232843   1.584   0.216   8.981  0.9507 -1.0708  1.8980
 3762TIP3   OH232844   2.185   1.225   0.015 -0.3599  0.7657  0.5713
 3762TIP3    H132845   2.189   1.276   0.096  1.5410  1.3871  0.1241
 3762TIP3    H232846   2.155   1.138   0.043  1.3151  0.6446  2.1269
 3763TIP3   OH232847   0.528   3.973   1.215 -0.1765  0.5260  0.3767
 3763TIP3    H132848   0.593   4.028   1.171  0.7203 -1.0076 -0.3080
 3763TIP3    H232849   0.571   3.888   1.223 -1.4943 -0.0726  1.4572
 3764TIP3   OH232850   0.012   6.262   8.629  0.4456  0.2668  0.0976
 3764TIP3    H132851   0.085   6.307   8.586 -0.2108 -0.2985 -1.6925
 3764TIP3    H232852   0.012   6.174   8.591  0.2310 -0.5020  1.7786
 3765TIP3   OH232853   0.768   3.365   1.500  0.3890 -0.3339 -0.2631
 3765TIP3    H132854   0.844   3.420   1.519  0.6100 -1.2584  1.6921
 3765TIP3    H232855   0.802   3.293   1.447  0.5968 -0.0667 -0.4984
 3766TIP3   OH232856   0.542   6.500   9.218  0.0648  0.0844 -0.2273
 3766TIP3    H132857   0.562   6.551   9.139 -1.0225  1.6794  0.4681
 3766TIP3    H232858   0.503   6.419   9.186  1.0172  0.0450 -1.3526
 3767TIP3   OH232859   5.539   5.483   8.167 -0.0373  0.3330 -0.8029
 3767TIP3    H132860   5.586   5.487   8.250 -0.6412 -1.3528 -0.3471
 3767TIP3    H232861   5.486   5.563   8.165 -0.1662  0.2951  0.5206
 3768TIP3   OH232862   3.536   2.778   1.232 -0.2172  0.5103  0.6999
 3768TIP3    H132863   3.533   2.691   1.272  0.8441  0.0274 -0.2290
 3768TIP3    H232864   3.445   2.795   1.206 -0.1040 -1.3219 -1.1359
 3769TIP3   OH232865   5.715   4.057   8.883 -0.3024  0.5217  0.2658
 3769TIP3    H132866   5.637   4.051   8.827  0.7869 -0.1662 -1.2382
 3769TIP3    H232867   5.700   3.991   8.951  0.4412 -2.1533 -1.9780
 3770TIP3   OH232868   5.966   0.533   0.236  0.1359  0.1193  0.0848
 3770TIP3    H132869   5.876   0.537   0.203 -0.6376 -0.7791  1.9054
 3770TIP3    H232870   6.019   0.568   0.165 -1.6947  1.1708 -0.8536
 3771TIP3   OH232871   2.594   5.472   8.624  0.5126 -0.0947 -0.6222
 3771TIP3    H132872   2.544   5.402   8.581  0.6745  0.4810 -1.7867
 3771TIP3    H232873   2.669   5.487   8.565  0.8426  0.5953 -0.0378
 3772TIP3   OH232874   2.429   6.399   0.595  0.6947 -0.4337  0.2736
 3772TIP3    H132875   2.523   6.404   0.583  0.8885 -2.1262  0.8505
 3772TIP3    H232876   2.413   6.442   0.679  0.4921  2.7894 -1.2683
 3773TIP3   OH232877   1.387   1.338   0.751  0.4298 -0.2490 -0.0076
 3773TIP3    H132878   1.463   1.307   0.801 -0.5150 -1.4891  0.7257
 3773TIP3    H232879   1.417   1.337   0.660  1.7068  0.6010  0.3801
 3774TIP3   OH232880   6.239   6.392   0.167  0.0452  0.0696 -0.4505
 3774TIP3    H132881   6.214   6.320   0.109  1.1178 -1.2244  0.6333
 3774TIP3    H232882   6.321   6.425   0.130 -0.5589  0.9265 -1.0757
 3775TIP3   OH232883   5.839   5.746   8.701  0.3704  0.1933  0.4312
 3775TIP3    H132884   5.761   5.744   8.646 -0.5500  1.3562  1.6366
 3775TIP3    H232885   5.900   5.804   8.654 -0.3384  1.0406  0.5426
 3776TIP3   OH232886   1.809   1.598   0.827 -0.1276  0.4524 -0.5916
 3776TIP3    H132887   1.891   1.555   0.802 -0.4718 -0.3010 -0.4462
 3776TIP3    H232888   1.741   1.534   0.804 -0.6795  1.1030 -0.7828
 3777TIP3   OH232889   1.655   5.658   8.323  0.7116  0.3866 -0.3225
 3777TIP3    H132890   1.648   5.602   8.245  0.7091  2.0954 -1.6236
 3777TIP3    H232891   1.579   5.716   8.318  2.5441  2.9287 -1.1182
 3778TIP3   OH232892   3.260   5.207   1.004  0.1840 -0.3878 -0.6126
 3778TIP3    H132893   3.272   5.112   1.005 -0.6421 -0.5057  0.2854
 3778TIP3    H232894   3.328   5.240   1.064 -0.3859 -0.5524  0.1467
 3779TIP3   OH232895   4.897   5.323   9.065 -0.3661  0.9805  0.5371
 3779TIP3    H132896   4.848   5.351   9.143  0.4597 -0.1090  1.4715
 3779TIP3    H232897   4.989   5.332   9.089 -0.0214 -2.0801  0.7924
 3780TIP3   OH232898   2.900   3.548   6.943  0.5289  0.2052  0.2951
 3780TIP3    H132899   2.808   3.571   6.929  0.2767  0.4817  2.1237
 3780TIP3    H232900   2.943   3.569   6.861 -1.4262 -2.2214 -1.5165
 3781TIP3   OH232901   4.148   0.467   7.797 -0.2310  0.3504  0.1420
 3781TIP3    H132902   4.200   0.392   7.766  0.0982  0.6044  0.0650
 3781TIP3    H232903   4.149   0.528   7.724 -0.6506  0.3566  0.1397
 3782TIP3   OH232904   0.381   1.544   9.053 -0.4129 -0.1170 -0.2041
 3782TIP3    H132905   0.378   1.638   9.071  1.8850 -0.0363  0.1354
 3782TIP3    H232906   0.475   1.524   9.050 -0.8089 -2.7779  1.8596
 3783TIP3   OH232907   2.646   6.610   0.275  0.3737  0.4222 -0.0101
 3783TIP3    H132908   2.630   6.526   0.318  1.3908  1.5958  2.9219
 3783TIP3    H232909   2.590   6.672   0.321  0.4688  1.5826 -1.3643
 3784TIP3   OH232910   1.915   1.870   1.577 -0.0978 -0.0738 -0.0970
 3784TIP3    H132911   1.871   1.920   1.509  0.4605  0.1325 -0.3055
 3784TIP3    H232912   1.853   1.871   1.651  0.4237  2.0013  0.3701
 3785TIP3   OH232913   0.669   2.734   1.195 -0.2759 -0.5296 -0.1526
 3785TIP3    H132914   0.652   2.647   1.230  0.2932 -0.2389  0.8652
 3785TIP3    H232915   0.586   2.759   1.154 -0.6500 -1.2682  0.1318
 3786TIP3   OH232916   1.323   4.281   8.581  0.0915 -0.0271  0.2863
 3786TIP3    H132917   1.233   4.268   8.610 -0.6199 -0.2413 -1.7967
 3786TIP3    H232918   1.376   4.238   8.648 -1.3837 -0.5216  1.2071
 3787TIP3   OH232919   5.130   0.316   0.316 -0.4114  0.3654  0.0002
 3787TIP3    H132920   5.176   0.356   0.390 -0.3407 -0.2936  0.3240
 3787TIP3    H232921   5.145   0.222   0.327  1.3957  0.3545 -2.0554
 3788TIP3   OH232922   4.990   3.066   1.755  0.4218  0.1773 -0.5230
 3788TIP3    H132923   4.936   3.133   1.797 -0.0070  0.1586 -1.0276
 3788TIP3    H232924   5.059   3.047   1.819 -1.4040 -1.3872  1.0849
 3789TIP3   OH232925   5.786   6.127   9.319 -0.1151 -0.2840  0.1129
 3789TIP3    H132926   5.772   6.213   9.278 -1.6655 -0.8881 -0.6997
 3789TIP3    H232927   5.776   6.143   9.412  1.5435  0.7520  0.1734
 3790TIP3   OH232928   5.756   2.123   1.551  0.0425 -0.2061 -0.3138
 3790TIP3    H132929   5.713   2.040   1.572  0.9780 -0.6808 -0.2025
 3790TIP3    H232930   5.835   2.123   1.604  1.2293 -0.3088 -2.0072
 3791TIP3   OH232931   4.276   3.355   8.361  0.1370 -0.5350  1.0707
 3791TIP3    H132932   4.222   3.294   8.311  0.5281 -1.0107  1.2337
 3791TIP3    H232933   4.214   3.421   8.393 -0.3244 -0.9945  1.1324
 3792TIP3   OH232934   4.013   0.253   7.911 -0.2298 -0.2414  1.0541
 3792TIP3    H132935   3.925   0.281   7.886 -0.7316 -1.5545  1.3182
 3792TIP3    H232936   4.069   0.326   7.883 -1.4907  1.1140  1.8730
 3793TIP3   OH232937   2.548   2.555   1.520  0.3937  0.0798  0.5797
 3793TIP3    H132938   2.534   2.571   1.426 -0.9268 -0.0212  0.7413
 3793TIP3    H232939   2.643   2.554   1.530  0.5637 -0.3398 -0.8378
 3794TIP3   OH232940   0.417   4.298   9.064 -0.2434  0.1993  0.1016
 3794TIP3    H132941   0.419   4.289   9.159  0.3281 -1.3375 -0.0322
 3794TIP3    H232942   0.366   4.223   9.034  1.4395 -0.5934 -0.9070
 3795TIP3   OH232943   2.234   6.326   2.077  0.1260 -0.9255  0.4846
 3795TIP3    H132944   2.327   6.316   2.098  0.2254 -0.9515  0.0338
 3795TIP3    H232945   2.198   6.372   2.153  0.3082 -1.7605  1.0915
 3796TIP3   OH232946   1.533   2.604   7.377 -0.4712 -0.4263 -0.6689
 3796TIP3    H132947   1.598   2.625   7.310 -1.2340  0.0791 -1.2715
 3796TIP3    H232948   1.458   2.570   7.327 -0.6066 -1.1617  0.0258
 3797TIP3   OH232949   5.962   6.380   2.513 -0.3920 -0.1300  0.7572
 3797TIP3    H132950   5.924   6.448   2.458 -0.1924  0.0214  0.8056
 3797TIP3    H232951   6.044   6.357   2.470  0.2213  0.6434  1.4790
 3798TIP3   OH232952   2.690   2.235   1.914 -0.3345  0.4841  0.2234
 3798TIP3    H132953   2.700   2.282   1.997  0.5736  0.5431  0.0865
 3798TIP3    H232954   2.765   2.175   1.911  1.3021  2.4493 -1.8225
 3799TIP3   OH232955   2.380   5.579   8.048  0.5754 -0.1186  0.3948
 3799TIP3    H132956   2.374   5.538   7.961  1.1838  0.0315  0.2780
 3799TIP3    H232957   2.389   5.672   8.030  0.5769 -0.0726  0.6280
 3800TIP3   OH232958   5.598   5.573   8.874  0.1866  0.2319 -0.2419
 3800TIP3    H132959   5.661   5.519   8.826 -1.0674 -0.0586 -1.6069
 3800TIP3    H232960   5.586   5.526   8.957  0.8370 -0.3557 -0.4694
 3801TIP3   OH232961   2.151   6.585   8.346 -0.5174  0.4474  0.1792
 3801TIP3    H132962   2.169   6.506   8.294 -0.1438  0.7773 -0.2010
 3801TIP3    H232963   2.066   6.616   8.315  0.3241  1.4252 -1.2449
 3802TIP3   OH232964   3.949   0.714   1.112  0.0502  1.1038 -0.1266
 3802TIP3    H132965   4.000   0.727   1.032 -0.0552  0.7240 -0.2571
 3802TIP3    H232966   3.965   0.623   1.136 -1.5235  0.5979 -0.8566
 3803TIP3   OH232967   2.922   0.090   0.574  0.0305 -0.2949  0.0511
 3803TIP3    H132968   2.926   0.164   0.513  1.9573  0.2806  0.7827
 3803TIP3    H232969   2.881   0.020   0.525 -1.4338  1.1154 -0.8297
 3804TIP3   OH232970   3.787   2.264   1.559 -0.0063  0.0151  0.0793
 3804TIP3    H132971   3.783   2.176   1.522 -0.6829  1.4008 -3.5270
 3804TIP3    H232972   3.793   2.249   1.654  2.8521 -3.9275 -0.4249
 3805TIP3   OH232973   6.078   2.579   7.871  0.2973  0.7199 -0.3816
 3805TIP3    H132974   6.035   2.549   7.951 -1.8695  0.6277 -1.4822
 3805TIP3    H232975   6.102   2.499   7.824 -1.7051  0.6458 -1.4035
 3806TIP3   OH232976   4.907   3.511   6.554 -0.6015  0.2794 -0.1196
 3806TIP3    H132977   4.933   3.466   6.634  2.2939  0.6640 -0.7489
 3806TIP3    H232978   4.853   3.584   6.584  0.5859  0.5342  1.5239
 3807TIP3   OH232979   3.857   0.255   8.698  0.6599 -0.2800 -0.1344
 3807TIP3    H132980   3.909   0.315   8.646 -0.9137  1.1769 -0.1127
 3807TIP3    H232981   3.804   0.206   8.634  0.3708 -0.0967 -0.0381
 3808TIP3   OH232982   1.852   1.003   0.479 -0.1259  0.7233  0.0242
 3808TIP3    H132983   1.813   0.930   0.431  1.6535 -0.1595 -0.1705
 3808TIP3    H232984   1.827   1.081   0.428 -1.3626  0.1874 -0.2236
 3809TIP3   OH232985   0.793   0.533   7.376 -0.2295  0.3599 -0.5656
 3809TIP3    H132986   0.814   0.536   7.282 -2.0747 -0.4107 -1.0366
 3809TIP3    H232987   0.827   0.616   7.411 -1.7429  1.8285 -2.4074
 3810TIP3   OH232988   1.771   1.653   8.246 -0.4610 -0.2477 -0.0288
 3810TIP3    H132989   1.744   1.613   8.163  0.4263  0.1807 -0.5369
 3810TIP3    H232990   1.706   1.722   8.261  0.8749  1.5282 -1.8210
 3811TIP3   OH232991   0.770   1.233   0.799 -0.6340 -0.3826 -0.3560
 3811TIP3    H132992   0.803   1.280   0.875 -0.4299 -3.2843  1.5111
 3811TIP3    H232993   0.684   1.272   0.782  0.6845  2.5358 -0.8352
 3812TIP3   OH232994   5.423   5.484   0.042  0.2259 -0.3772 -0.1782
 3812TIP3    H132995   5.408   5.471   0.135  0.2992 -2.0159 -0.3652
 3812TIP3    H232996   5.515   5.509   0.035 -0.1450  1.2193  0.2804
 3813TIP3   OH232997   2.949   3.904   1.257  0.1782 -0.4451  0.0853
 3813TIP3    H132998   3.043   3.891   1.265  0.0460 -1.1008  0.6343
 3813TIP3    H232999   2.919   3.916   1.347 -0.1067  0.9216 -0.1732
 3814TIP3   OH233000   6.128   1.629   7.366 -0.1601 -0.5795  0.5804
 3814TIP3    H133001   6.162   1.657   7.281 -0.1567  3.4192  1.6738
 3814TIP3    H233002   6.044   1.588   7.346 -0.9171  1.6766 -1.3721
 3815TIP3   OH233003   2.895   2.081   8.136  0.2203  0.0584  0.0456
 3815TIP3    H133004   2.923   2.118   8.052  2.0326  0.6594  0.8536
 3815TIP3    H233005   2.819   2.134   8.162  1.0327  1.3648 -0.1748
 3816TIP3   OH233006   0.262   0.775   1.283  0.5627  0.2714 -0.2467
 3816TIP3    H133007   0.294   0.838   1.220  2.1194 -1.9272 -1.8008
 3816TIP3    H233008   0.173   0.754   1.254  0.9223 -0.0103 -1.1747
 3817TIP3   OH233009   0.740   0.215   0.121 -0.8342 -0.5848 -0.0614
 3817TIP3    H133010   0.758   0.202   0.028  1.2103  0.5332  0.1192
 3817TIP3    H233011   0.821   0.189   0.165 -0.9995  0.9071  1.2201
 3818TIP3   OH233012   4.089   1.395   1.457  0.1982 -0.3013  0.4363
 3818TIP3    H133013   4.162   1.347   1.496  1.0381  0.8005  0.2955
 3818TIP3    H233014   4.130   1.445   1.385 -0.2870  1.8230  1.5494
 3819TIP3   OH233015   1.238   0.577   1.379  0.1030 -0.2880  0.1847
 3819TIP3    H133016   1.276   0.522   1.310 -0.4705  1.2377 -1.4119
 3819TIP3    H233017   1.314   0.615   1.423  0.4721 -1.0571  0.2288
 3820TIP3   OH233018   5.927   5.276   1.505  0.0225  0.1566 -0.1067
 3820TIP3    H133019   5.908   5.321   1.422 -0.2263  2.2326  1.0114
 3820TIP3    H233020   5.978   5.340   1.556  0.8275 -1.3526  1.0776
 3821TIP3   OH233021   2.415   1.428   1.279  0.4345  0.9809 -0.3813
 3821TIP3    H133022   2.463   1.399   1.202  1.7057  2.6243 -0.2804
 3821TIP3    H233023   2.454   1.380   1.352 -1.1133 -0.9566 -0.7524
 3822TIP3   OH233024   4.728   4.167   8.975  0.4396  0.0456 -0.0929
 3822TIP3    H133025   4.718   4.259   8.999  0.0825 -0.0814  0.2789
 3822TIP3    H233026   4.794   4.166   8.907  1.1368  0.4831  0.5628
 3823TIP3   OH233027   1.671   0.891   0.929  0.2960 -0.4275  0.0798
 3823TIP3    H133028   1.627   0.818   0.887  1.1581 -1.0712  0.2521
 3823TIP3    H233029   1.624   0.969   0.900  0.3614 -0.9212 -1.3992
 3824TIP3   OH233030   1.563   5.182   2.610 -0.1860 -0.4332  0.0914
 3824TIP3    H133031   1.526   5.266   2.637  2.1974  1.0191 -0.9030
 3824TIP3    H233032   1.517   5.161   2.529 -0.0087  0.5331 -0.2788
 3825TIP3   OH233033   3.556   1.337   7.952  0.1840 -0.1307  0.4344
 3825TIP3    H133034   3.492   1.393   7.997  1.9019  1.2236  1.2971
 3825TIP3    H233035   3.637   1.387   7.954  0.9107 -1.0832 -2.1315
 3826TIP3   OH233036   1.571   5.598   0.476 -0.4180 -0.4627  0.0253
 3826TIP3    H133037   1.558   5.535   0.405  0.2732 -0.3948 -0.1681
 3826TIP3    H233038   1.626   5.666   0.438 -0.8146  0.0540  0.3550
 3827TIP3   OH233039   4.580   2.957   7.297 -0.3824 -0.7780 -0.4514
 3827TIP3    H133040   4.607   3.015   7.369  0.3617 -1.1790 -0.3895
 3827TIP3    H233041   4.493   2.926   7.321 -0.4138 -0.3818 -0.0532
 3828TIP3   OH233042   1.190   2.498   8.993 -0.3960  0.4444 -0.1903
 3828TIP3    H133043   1.260   2.563   8.984  0.7400 -0.8300 -0.9851
 3828TIP3    H233044   1.216   2.427   8.936 -1.0943 -1.1636  1.3999
 3829TIP3   OH233045   0.173   1.527   7.817  0.0963 -0.7547 -0.6761
 3829TIP3    H133046   0.193   1.619   7.833 -0.1404 -1.0686  1.8435
 3829TIP3    H233047   0.126   1.526   7.734  0.4949  1.3219 -0.9708
 3830TIP3   OH233048   2.058   6.063   1.098 -0.3071 -0.0057 -0.4872
 3830TIP3    H133049   2.093   6.107   1.020 -0.1079  0.2583 -0.2533
 3830TIP3    H233050   1.998   6.127   1.136  0.8390  0.5324  0.4804
 3831TIP3   OH233051   4.455   2.399   0.324  1.1555  0.3224 -0.2212
 3831TIP3    H133052   4.534   2.409   0.377  0.9530 -0.2553  0.2049
 3831TIP3    H233053   4.474   2.326   0.266  0.2978 -1.0688  1.1445
 3832TIP3   OH233054   5.723   1.186   9.266  0.6751  0.0446 -0.1738
 3832TIP3    H133055   5.739   1.121   9.335  2.5105 -0.0383 -0.6308
 3832TIP3    H233056   5.749   1.142   9.185  0.9374  0.9988 -0.6204
 3833TIP3   OH233057   0.418   6.304   2.097  0.0319  0.4107  0.6606
 3833TIP3    H133058   0.484   6.235   2.090  0.1104  0.5141  0.3670
 3833TIP3    H233059   0.464   6.379   2.133 -0.4234 -0.1912  2.6100
 3834TIP3   OH233060   1.985   1.131   7.906  0.0799  0.1924 -0.5350
 3834TIP3    H133061   1.895   1.110   7.930  0.0805 -0.4649 -1.0614
 3834TIP3    H233062   1.979   1.218   7.866  0.0334  1.1373  1.4320
 3835TIP3   OH233063   0.769   1.634   8.265  0.3142  0.8318  0.6564
 3835TIP3    H133064   0.691   1.680   8.296  0.0546  0.6722  0.2486
 3835TIP3    H233065   0.765   1.641   8.170 -0.5891 -1.3893  0.4687
 3836TIP3   OH233066   5.567   3.054   0.675 -0.1875  0.4336 -0.1817
 3836TIP3    H133067   5.643   2.997   0.684  0.2926  1.1117  0.2034
 3836TIP3    H233068   5.503   3.020   0.737  0.2870  0.6100  0.4112
 3837TIP3   OH233069   1.877   0.243   0.690  0.1834  0.2486  0.0597
 3837TIP3    H133070   1.869   0.148   0.690  1.1021  0.1411 -1.1028
 3837TIP3    H233071   1.813   0.273   0.625  1.9584  0.1422 -1.8578
 3838TIP3   OH233072   3.260   0.422   8.038 -0.1840  0.7572 -0.0364
 3838TIP3    H133073   3.302   0.408   8.122  0.8204  1.6836 -0.3734
 3838TIP3    H233074   3.176   0.463   8.059 -0.1785  0.4776  0.5339
 3839TIP3   OH233075   2.760   0.789   9.088  0.9724  0.4938  0.4416
 3839TIP3    H133076   2.847   0.823   9.109  0.1261  2.5663  0.7831
 3839TIP3    H233077   2.701   0.836   9.146 -0.4094 -0.9268  0.2692
 3840TIP3   OH233078   3.111   6.400   9.058 -0.5271  0.0361  0.2806
 3840TIP3    H133079   3.052   6.330   9.088  0.9651 -1.8338 -0.8662
 3840TIP3    H233080   3.140   6.371   8.972 -0.4058  2.4990 -0.5798
 3841TIP3   OH233081   4.989   2.933   0.081  0.2510 -0.0396  0.0242
 3841TIP3    H133082   4.895   2.948   0.083  0.2702  0.3562 -1.3636
 3841TIP3    H233083   5.024   3.002   0.024  1.3714 -0.2364  0.4407
 3842TIP3   OH233084   5.894   0.117   8.572 -0.5454 -0.1284 -0.0816
 3842TIP3    H133085   5.886   0.024   8.593  1.2273 -0.0306  1.3837
 3842TIP3    H233086   5.826   0.134   8.508 -2.7230 -1.8194  1.6260
 3843TIP3   OH233087   2.770   5.786   0.880  0.0122  0.0290 -0.2531
 3843TIP3    H133088   2.759   5.787   0.975  0.9526  0.6053 -0.1419
 3843TIP3    H233089   2.855   5.827   0.865 -0.1388 -0.0309 -1.3471
 3844TIP3   OH233090   0.470   2.320   0.873  0.4652  0.1378 -0.2539
 3844TIP3    H133091   0.482   2.395   0.931 -0.2762  0.5048 -0.5577
 3844TIP3    H233092   0.508   2.348   0.790  1.4604 -0.3603  0.0187
 3845TIP3   OH233093   1.743   4.502   1.474 -0.0962 -0.4925 -0.5470
 3845TIP3    H133094   1.673   4.567   1.462 -0.9931 -0.9332  1.8006
 3845TIP3    H233095   1.707   4.421   1.438 -0.7669 -0.6848  0.5289
 3846TIP3   OH233096   5.155   2.808   8.666  0.1294  0.2466 -0.3143
 3846TIP3    H133097   5.133   2.852   8.748 -0.0909 -0.6679  0.1293
 3846TIP3    H233098   5.162   2.716   8.689 -0.0748 -0.0469 -1.3523
 3847TIP3   OH233099   5.285   0.670   0.903 -0.3837  0.3395  0.2910
 3847TIP3    H133100   5.352   0.656   0.836 -1.0898  0.2317 -0.4103
 3847TIP3    H233101   5.235   0.588   0.903  0.0890  0.0312  1.5214
 3848TIP3   OH233102   2.573   6.584   2.620 -0.2068 -0.3705 -0.2036
 3848TIP3    H133103   2.482   6.565   2.643 -0.0686  0.4561  1.1438
 3848TIP3    H233104   2.614   6.498   2.609 -0.4315 -0.8586  2.1977
 3849TIP3   OH233105   2.121   5.221   1.245 -0.2551 -0.1805 -0.2038
 3849TIP3    H133106   2.198   5.241   1.192 -0.4497  1.0049 -0.0705
 3849TIP3    H233107   2.120   5.125   1.252  2.8975 -0.1882  2.3051
 3850TIP3   OH233108   1.203   3.290   0.371 -0.4907  0.0309 -0.1542
 3850TIP3    H133109   1.201   3.285   0.276 -0.8201 -1.3013 -0.0902
 3850TIP3    H233110   1.114   3.271   0.399  0.1603 -2.4566  0.5016
 3851TIP3   OH233111   0.825   2.632   1.864 -0.6073  0.3796 -0.1849
 3851TIP3    H133112   0.777   2.550   1.871 -0.1473 -0.1778 -2.7006
 3851TIP3    H233113   0.912   2.612   1.898 -1.0750  0.4428  1.1259
 3852TIP3   OH233114   1.910   2.612   8.299 -0.0184  0.1377  0.3867
 3852TIP3    H133115   1.868   2.526   8.300  0.8587 -0.3205  2.0674
 3852TIP3    H233116   1.885   2.651   8.382 -0.9503  1.8353 -0.6321
 3853TIP3   OH233117   5.127   2.349   8.865 -0.1435  0.1413 -0.3146
 3853TIP3    H133118   5.208   2.306   8.891  0.3120  0.7359 -0.7135
 3853TIP3    H233119   5.066   2.331   8.936  0.0540 -1.0920 -0.4420
 3854TIP3   OH233120   3.605   4.935   8.856 -0.1668 -0.2085  0.2210
 3854TIP3    H133121   3.668   4.897   8.794  0.8215  1.4579  0.1384
 3854TIP3    H233122   3.563   5.005   8.807 -0.7939 -0.1326  0.8520
 3855TIP3   OH233123   1.552   3.662   1.202  0.1457  0.0464  0.2059
 3855TIP3    H133124   1.491   3.611   1.255 -1.4168  0.0798 -1.4903
 3855TIP3    H233125   1.637   3.619   1.214 -0.4275 -0.7579  1.6007
 3856TIP3   OH233126   6.132   3.051   0.979  0.3685  0.3081  0.2522
 3856TIP3    H133127   6.077   3.120   1.016  0.7731  2.7489 -3.1651
 3856TIP3    H233128   6.221   3.087   0.984  0.5670  0.2564 -1.7813
 3857TIP3   OH233129   5.389   1.745   1.226  0.3044  0.0482  0.2129
 3857TIP3    H133130   5.478   1.715   1.243 -0.3577 -1.5257  1.0989
 3857TIP3    H233131   5.347   1.672   1.180 -0.7209  0.4934  0.4091
 3858TIP3   OH233132   2.682   6.469   0.558 -0.1739  0.8854 -0.1108
 3858TIP3    H133133   2.658   6.539   0.618 -0.3098  1.1755 -0.4965
 3858TIP3    H233134   2.738   6.411   0.610 -1.8773  0.0506  0.8786
 3859TIP3   OH233135   6.436   2.343   8.073 -0.4081 -0.5160  0.2436
 3859TIP3    H133136   6.374   2.363   8.002  1.9913 -1.2282 -2.1983
 3859TIP3    H233137   6.474   2.428   8.095  0.5831 -0.5676 -1.1184
 3860TIP3   OH233138   1.216   6.508   0.907  0.1289 -0.0583  0.0429
 3860TIP3    H133139   1.133   6.550   0.929  0.9768  1.8881 -0.2243
 3860TIP3    H233140   1.196   6.452   0.832 -0.8004  1.0178 -0.5481
 3861TIP3   OH233141   0.870   0.801   1.451  0.3284 -0.2396  0.5062
 3861TIP3    H133142   0.815   0.833   1.379  0.7514  1.2762  0.8316
 3861TIP3    H233143   0.959   0.828   1.427  0.8436 -1.8806  0.4216
 3862TIP3   OH233144   5.055   3.923   7.590  0.4630 -0.0888  0.4213
 3862TIP3    H133145   4.967   3.960   7.590  1.0476  1.3506 -0.1627
 3862TIP3    H233146   5.112   3.993   7.558  1.5479 -1.6532 -1.3345
 3863TIP3   OH233147   5.724   1.004   7.725 -0.2664  0.0885 -0.2271
 3863TIP3    H133148   5.811   1.032   7.752 -0.6216  0.9404  0.0791
 3863TIP3    H233149   5.673   1.002   7.806 -0.2122 -1.6498 -0.2134
 3864TIP3   OH233150   2.899   1.867   0.646  0.1963  0.5887 -0.6271
 3864TIP3    H133151   2.831   1.830   0.703 -0.3849  0.3663 -1.4509
 3864TIP3    H233152   2.971   1.804   0.651 -0.1632  0.1671 -0.7666
 3865TIP3   OH233153   0.367   3.435   7.112 -0.4852 -0.1683  0.3574
 3865TIP3    H133154   0.440   3.375   7.126  1.8123  2.6472  1.3763
 3865TIP3    H233155   0.353   3.435   7.018  1.0179 -0.5869  0.1095
 3866TIP3   OH233156   5.620   1.027   8.772  0.0145  0.3212  0.3457
 3866TIP3    H133157   5.626   1.119   8.796  1.7764  0.4508 -0.4396
 3866TIP3    H233158   5.532   1.000   8.799 -0.6395  2.3008  0.2928
 3867TIP3   OH233159   0.280   5.911   9.300  0.3438  0.1123  0.4107
 3867TIP3    H133160   0.299   5.852   9.373 -1.0391  0.0983  0.7844
 3867TIP3    H233161   0.275   5.854   9.224 -0.5490 -0.2088  0.6986
 3868TIP3   OH233162   0.082   4.950   7.713  0.0046 -0.0861  0.0059
 3868TIP3    H133163   0.034   5.020   7.758  1.1926  0.8006 -0.0511
 3868TIP3    H233164   0.115   4.990   7.633  1.4386 -0.4276  0.3849
 3869TIP3   OH233165   4.543   3.366   8.261  0.3516 -0.4089 -0.0771
 3869TIP3    H133166   4.461   3.385   8.305  0.3935  0.2056 -0.2493
 3869TIP3    H233167   4.591   3.449   8.263  0.8527 -0.6914 -0.2114
 3870TIP3   OH233168   1.968   4.492   8.882 -0.8791 -0.5165  0.7559
 3870TIP3    H133169   1.888   4.538   8.858 -0.4537  0.0317  0.3695
 3870TIP3    H233170   2.016   4.555   8.936  1.0367  0.6569 -2.1128
 3871TIP3   OH233171   1.216   4.483   7.937  0.1939 -0.2304  0.0050
 3871TIP3    H133172   1.259   4.568   7.935  0.3466 -0.3153 -0.4861
 3871TIP3    H233173   1.143   4.491   7.875  1.2352 -0.9800 -1.3859
 3872TIP3   OH233174   3.076   4.269   2.441 -0.9487  0.1378 -0.0099
 3872TIP3    H133175   3.081   4.230   2.528  0.1357 -0.2201 -0.2132
 3872TIP3    H233176   3.144   4.224   2.391 -0.6752  1.2515 -0.6775
 3873TIP3   OH233177   0.446   1.907   0.933 -0.1676 -0.2738  0.9093
 3873TIP3    H133178   0.531   1.915   0.890 -0.2960 -0.3874  0.6313
 3873TIP3    H233179   0.383   1.936   0.866 -0.2563  0.9631  1.4996
 3874TIP3   OH233180   2.606   1.195   0.638  0.0347 -0.3497  0.1804
 3874TIP3    H133181   2.533   1.257   0.646 -0.4268 -0.7558 -0.7123
 3874TIP3    H233182   2.684   1.247   0.658 -0.4797  0.1390  0.9459
 3875TIP3   OH233183   6.225   6.116   0.358  0.3562  0.2594  0.5230
 3875TIP3    H133184   6.206   6.188   0.419  0.4710 -0.7118  1.7409
 3875TIP3    H233185   6.145   6.105   0.307  0.7626  2.1001 -0.6121
 3876TIP3   OH233186   2.423   3.933   8.283  0.4162  0.0135 -0.1257
 3876TIP3    H133187   2.504   3.979   8.306  1.5453 -1.0903 -1.6984
 3876TIP3    H233188   2.447   3.841   8.285 -1.2032 -0.4121  0.7439
 3877TIP3   OH233189   1.480   6.338   0.808 -0.1728  0.1171 -0.4339
 3877TIP3    H133190   1.456   6.320   0.899 -1.0804  0.8879 -0.5061
 3877TIP3    H233191   1.456   6.259   0.761  2.0739 -1.0669  0.2532
 3878TIP3   OH233192   5.091   6.374   2.407  0.9586  0.0133  0.0727
 3878TIP3    H133193   5.059   6.321   2.479 -0.5118 -0.7877 -1.1193
 3878TIP3    H233194   5.022   6.370   2.341  1.4175  2.2727 -0.6360
 3879TIP3   OH233195   6.215   2.599   8.526  0.0444  0.3690 -0.0215
 3879TIP3    H133196   6.271   2.673   8.550  0.1335  0.0063  0.9548
 3879TIP3    H233197   6.243   2.528   8.584 -0.6375 -0.1680 -0.3306
 3880TIP3   OH233198   3.118   2.830   7.502  0.2222  0.1534 -0.0015
 3880TIP3    H133199   3.042   2.881   7.474  0.2978  0.3421  0.1369
 3880TIP3    H233200   3.175   2.828   7.425  1.3282  2.3230  0.6867
 3881TIP3   OH233201   4.015   1.223   7.833 -0.1012  0.2420  0.5579
 3881TIP3    H133202   3.980   1.209   7.921 -1.4606 -1.4869 -0.1885
 3881TIP3    H233203   3.939   1.252   7.782  0.2470 -0.5084 -0.4119
 3882TIP3   OH233204   4.846   2.512   7.765 -0.6219 -0.6220  0.1702
 3882TIP3    H133205   4.886   2.567   7.833 -1.1217 -1.2008  0.9510
 3882TIP3    H233206   4.754   2.509   7.789 -1.1162  0.4797 -1.4572
 3883TIP3   OH233207   4.004   1.730   0.019  0.3736  0.3740 -0.3618
 3883TIP3    H133208   4.033   1.728   0.110  1.8512 -1.8687 -0.7978
 3883TIP3    H233209   4.084   1.720  -0.032 -0.3606  2.0764 -1.9704
 3884TIP3   OH233210   0.100   5.667   7.436 -0.1323 -1.2165  0.1688
 3884TIP3    H133211   0.008   5.691   7.424 -0.3887 -0.0425  3.6292
 3884TIP3    H233212   0.148   5.750   7.431  0.5805 -1.6330 -0.1115
 3885TIP3   OH233213   5.312   2.712   9.291  0.2457 -0.1723 -0.0209
 3885TIP3    H133214   5.271   2.700   9.376  0.2637  0.4673  0.0779
 3885TIP3    H233215   5.406   2.700   9.308  0.2255 -0.3155 -0.0054
 3886TIP3   OH233216   1.428   4.449   8.397  0.1594  0.3010  0.6812
 3886TIP3    H133217   1.386   4.435   8.313 -0.8743  0.9835  1.0536
 3886TIP3    H233218   1.392   4.380   8.453  1.3160 -0.5313  0.4135
 3887TIP3   OH233219   5.450   4.083   1.946 -0.1417  0.3319 -0.4280
 3887TIP3    H133220   5.420   4.053   2.032  3.8262  0.0027  1.0567
 3887TIP3    H233221   5.394   4.037   1.884 -1.6827 -1.2077  1.9360
 3888TIP3   OH233222   4.746   4.046   6.851  0.4671 -0.4514 -0.2763
 3888TIP3    H133223   4.836   4.032   6.822  1.0351  0.2207  1.1189
 3888TIP3    H233224   4.738   4.140   6.862 -0.5867 -0.4445 -0.8588
 3889TIP3   OH233225   3.145   4.371   0.246  0.0065  0.7866  0.2612
 3889TIP3    H133226   3.064   4.346   0.202  0.3051  0.7901 -0.2976
 3889TIP3    H233227   3.151   4.466   0.233 -0.0506  0.8312  0.5590
 3890TIP3   OH233228   5.189   0.395   1.144  0.0576  0.4714 -0.1399
 3890TIP3    H133229   5.106   0.402   1.192 -1.3800 -1.9239 -2.0547
 3890TIP3    H233230   5.232   0.479   1.160 -1.9485  1.1767  2.2915
 3891TIP3   OH233231   3.629   1.227   7.719 -0.1998 -0.5403  0.1889
 3891TIP3    H133232   3.621   1.253   7.811  2.1252 -1.6303  0.7720
 3891TIP3    H233233   3.658   1.306   7.674 -0.3870 -0.2474  0.5749
 3892TIP3   OH233234   1.472   1.688   8.158 -0.2385 -0.4233  0.1420
 3892TIP3    H133235   1.397   1.630   8.173  0.5674 -0.9575  2.4912
 3892TIP3    H233236   1.449   1.769   8.203  0.7527 -0.7831  1.3689
 3893TIP3   OH233237   3.894   2.961   1.454  0.0759 -0.2513 -0.4494
 3893TIP3    H133238   3.847   3.043   1.468 -0.7960 -0.5817 -1.3600
 3893TIP3    H233239   3.901   2.952   1.359  1.0627 -0.7426 -0.3534
 3894TIP3   OH233240   3.372   4.296   1.423  0.0629 -0.5549  0.3229
 3894TIP3    H133241   3.377   4.391   1.434 -0.4994 -0.4139 -0.5182
 3894TIP3    H233242   3.464   4.267   1.421  0.3052 -0.5402  4.1777
 3895TIP3   OH233243   3.728   0.251   1.612 -0.2492  0.2415 -0.3430
 3895TIP3    H133244   3.683   0.224   1.532 -1.2221 -1.3563  0.6889
 3895TIP3    H233245   3.666   0.232   1.683  0.6413  1.4518  0.8277
 3896TIP3   OH233246   0.630   0.968   0.449  0.0867 -0.0680  0.4539
 3896TIP3    H133247   0.628   0.942   0.542 -0.3465 -2.5104 -0.1672
 3896TIP3    H233248   0.670   0.893   0.405 -0.8088  0.5620 -1.4894
 3897TIP3   OH233249   2.339   5.693   9.023 -0.4709 -0.1553 -0.0070
 3897TIP3    H133250   2.382   5.687   8.938 -2.0765 -0.7988 -0.8278
 3897TIP3    H233251   2.268   5.756   9.009 -0.9548 -0.5155  0.7701
 3898TIP3   OH233252   3.486   2.460   0.492 -0.2901  0.3226 -0.3129
 3898TIP3    H133253   3.532   2.402   0.431 -2.5129 -0.8666 -0.9570
 3898TIP3    H233254   3.446   2.526   0.436 -0.9274  0.2257  0.0275
 3899TIP3   OH233255   3.886   1.468   8.372 -0.3412 -0.3942 -0.2000
 3899TIP3    H133256   3.810   1.511   8.411  1.1638  1.8802  0.3569
 3899TIP3    H233257   3.904   1.518   8.293 -0.1704 -1.7383 -1.0560
 3900TIP3   OH233258   1.217   3.308   0.091 -0.5910 -0.5105 -0.0420
 3900TIP3    H133259   1.198   3.221   0.056  1.0319 -0.1158 -2.1105
 3900TIP3    H233260   1.312   3.310   0.102 -0.7468  0.4880  1.5258
 3901TIP3   OH233261   4.013   0.785   0.040  0.4991 -0.3478 -0.1903
 3901TIP3    H133262   4.045   0.777  -0.050  0.0240 -1.3780 -0.2725
 3901TIP3    H233263   3.966   0.869   0.041  1.8713  0.4592 -0.4654
 3902TIP3   OH233264   3.692   5.330   0.482 -0.1139  0.3692 -0.2288
 3902TIP3    H133265   3.665   5.240   0.499 -3.2810  1.2547  0.0583
 3902TIP3    H233266   3.647   5.355   0.402 -1.1259  2.3287  0.8617
 3903TIP3   OH233267   3.807   0.758   8.131 -0.3865  0.2748 -0.5659
 3903TIP3    H133268   3.726   0.741   8.180  0.3312  0.3669  0.7138
 3903TIP3    H233269   3.778   0.776   8.042 -1.5998 -2.1116 -0.7287
 3904TIP3   OH233270   4.023   1.108   0.813 -0.1985  0.2169  0.4566
 3904TIP3    H133271   4.096   1.053   0.785  0.3608  1.0049  0.3234
 3904TIP3    H233272   4.046   1.135   0.902  0.2750  1.4228 -0.0021
 3905TIP3   OH233273   2.661   6.069   0.936  0.4447  0.5562  0.0230
 3905TIP3    H133274   2.587   6.126   0.921  1.0804  1.4303  0.1184
 3905TIP3    H233275   2.715   6.116   1.001  0.5025 -0.5839  0.8286
 3906TIP3   OH233276   6.089   2.184   7.223  0.2619 -0.0912  0.4906
 3906TIP3    H133277   6.010   2.181   7.278 -1.6679 -0.0085 -2.0912
 3906TIP3    H233278   6.110   2.092   7.207  1.8985 -0.1770  2.6298
 3907TIP3   OH233279   6.225   5.577   0.273 -0.2283 -0.0161 -0.0134
 3907TIP3    H133280   6.312   5.545   0.247  0.4754  1.4410  0.3998
 3907TIP3    H233281   6.237   5.672   0.280 -2.0698  0.2997 -0.7249
 3908TIP3   OH233282   1.461   4.431   8.871  0.4166 -0.3575 -0.1678
 3908TIP3    H133283   1.404   4.496   8.831  1.3319  0.2517 -0.5102
 3908TIP3    H233284   1.414   4.348   8.861 -0.7220  0.2200  0.1923
 3909TIP3   OH233285   0.885   1.898   8.789  0.0012 -0.2593  0.1994
 3909TIP3    H133286   0.879   1.992   8.806 -0.2746  0.0941 -1.5838
 3909TIP3    H233287   0.795   1.867   8.795 -0.3251  0.1526 -1.8509
 3910TIP3   OH233288   5.873   4.411   0.948  0.5928 -0.3223 -0.1306
 3910TIP3    H133289   5.787   4.389   0.984  1.0138 -1.5214  0.1885
 3910TIP3    H233290   5.895   4.337   0.892  0.4354  1.0157 -2.0605
 3911TIP3   OH233291   4.884   5.753   0.442  0.3195 -0.1600  0.8768
 3911TIP3    H133292   4.922   5.667   0.428  1.9088  0.4651  1.1250
 3911TIP3    H233293   4.920   5.782   0.526 -1.6076  0.0380  1.7143
 3912TIP3   OH233294   3.033   0.494   0.732  0.1815 -0.1832 -0.1210
 3912TIP3    H133295   3.015   0.588   0.723 -2.7362 -0.4782  1.6129
 3912TIP3    H233296   3.114   0.481   0.682 -0.4123  2.8534 -2.1593
 3913TIP3   OH233297   6.526   0.365   1.137 -0.0333 -0.2186  0.0147
 3913TIP3    H133298   6.517   0.294   1.073  2.4559  0.7499 -1.5374
 3913TIP3    H233299   6.540   0.319   1.220 -2.3451 -1.4929 -0.1948
 3914TIP3   OH233300   5.989   4.831   0.334  0.5058 -0.6979 -0.6783
 3914TIP3    H133301   5.994   4.845   0.429 -1.1329  1.2525 -0.8198
 3914TIP3    H233302   5.901   4.797   0.320 -0.8404  2.8194 -1.8074
 3915TIP3   OH233303   1.124   3.962   0.400 -0.8342 -0.0738 -0.0511
 3915TIP3    H133304   1.200   3.911   0.372  1.4324  2.8273  0.2948
 3915TIP3    H233305   1.101   4.014   0.324 -1.1833  0.5214  0.4546
 3916TIP3   OH233306   3.724   0.308   2.643  0.3103 -0.1551 -0.6212
 3916TIP3    H133307   3.749   0.343   2.558  1.0547 -0.8470 -0.7026
 3916TIP3    H233308   3.632   0.284   2.634  0.1060  0.6864 -0.9098
 3917TIP3   OH233309   6.366   5.680   2.468  0.4867 -0.5516 -0.1924
 3917TIP3    H133310   6.306   5.642   2.532  0.4924  0.0733  0.2023
 3917TIP3    H233311   6.447   5.630   2.477  0.3898 -0.6594  0.0854
 3918TIP3   OH233312   0.224   4.679   7.292 -0.5774 -0.2766  1.0192
 3918TIP3    H133313   0.273   4.761   7.287  0.8048 -1.1234 -0.5760
 3918TIP3    H233314   0.241   4.645   7.379  2.5485 -0.9800  0.2397
 3919TIP3   OH233315   2.191   5.977   1.941  0.1513  0.1522 -0.2103
 3919TIP3    H133316   2.148   6.018   2.016 -0.5081 -1.6336  0.4514
 3919TIP3    H233317   2.284   5.982   1.960 -0.0265 -0.7195  1.0108
 3920TIP3   OH233318   2.535   4.484   9.245  0.1279 -0.0168  0.0057
 3920TIP3    H133319   2.626   4.478   9.218 -0.1226  2.2611 -1.6801
 3920TIP3    H233320   2.536   4.546   9.318 -0.1763  1.2631 -1.0339
 3921TIP3   OH233321   2.922   2.438   8.146  0.0487 -0.3630  0.2035
 3921TIP3    H133322   2.893   2.424   8.056 -1.6994  2.3183  0.2404
 3921TIP3    H233323   2.988   2.371   8.161 -0.2975 -1.4862 -2.7413
 3922TIP3   OH233324   4.007   1.039   1.905  0.4939 -0.4670  0.2689
 3922TIP3    H133325   3.956   1.044   1.825  1.8661 -0.7976 -0.6576
 3922TIP3    H233326   3.956   0.982   1.963 -0.2834 -0.6039 -0.5379
 3923TIP3   OH233327   2.416   5.141   0.093  0.4784 -0.1023 -0.5311
 3923TIP3    H133328   2.329   5.099   0.088  1.2939 -2.3994  1.7786
 3923TIP3    H233329   2.399   5.225   0.135 -0.6901 -0.4439 -0.2583
 3924TIP3   OH233330   4.749   0.569   7.280 -0.2268 -0.2026  0.3979
 3924TIP3    H133331   4.739   0.481   7.317  0.0545 -1.9409 -3.1968
 3924TIP3    H233332   4.659   0.601   7.269 -0.4141 -0.7937  0.1742
 3925TIP3   OH233333   1.785   0.565   0.089  0.2457 -0.0678 -0.4743
 3925TIP3    H133334   1.690   0.577   0.084  0.4330  1.7415 -0.7351
 3925TIP3    H233335   1.802   0.484   0.042 -1.1049  0.0295 -1.1763
 3926TIP3   OH233336   0.037   0.916   7.390 -0.5115 -0.4238  0.6004
 3926TIP3    H133337   0.104   0.848   7.400 -1.0424 -0.9796  0.4942
 3926TIP3    H233338  -0.011   0.915   7.473  1.3489  1.9461  1.8230
 3927TIP3   OH233339   0.280   2.413   7.425 -0.4717  0.0546  0.1497
 3927TIP3    H133340   0.354   2.427   7.483  0.5650 -1.6529 -0.6662
 3927TIP3    H233341   0.290   2.322   7.395 -1.6457  0.4736 -1.7067
 3928TIP3   OH233342   4.052   0.474   1.210  0.4382  0.3700  0.2690
 3928TIP3    H133343   4.097   0.403   1.165 -0.2803  0.0522  0.0394
 3928TIP3    H233344   3.998   0.430   1.276  0.3711  0.7315  0.4559
 3929TIP3   OH233345   2.959   0.269   2.241  0.0075  0.3083  0.0736
 3929TIP3    H133346   2.966   0.274   2.336  1.6535  3.9068 -0.0537
 3929TIP3    H233347   2.886   0.327   2.220  0.8477  1.0548 -0.8935
 3930TIP3   OH233348   3.321   0.199   6.854 -0.1241 -0.1427  0.9206
 3930TIP3    H133349   3.327   0.110   6.822  0.4913 -0.0392  0.7366
 3930TIP3    H233350   3.229   0.209   6.881 -0.0037 -1.1057  1.7731
 3931TIP3   OH233351   3.236   3.971   8.627 -0.3042  0.1015  0.3522
 3931TIP3    H133352   3.331   3.975   8.625 -0.2497 -1.2909 -0.3294
 3931TIP3    H233353   3.215   3.917   8.703 -0.4994 -0.7516 -0.2968
 3932TIP3   OH233354   3.021   3.886   1.631  0.3043 -0.2692 -0.5492
 3932TIP3    H133355   3.067   3.880   1.714 -0.2691 -0.8980 -0.2716
 3932TIP3    H233356   3.091   3.890   1.565  0.8147 -3.0292 -0.2776
 3933TIP3   OH233357   2.764   5.886   1.533  0.1143  0.4095 -0.1434
 3933TIP3    H133358   2.684   5.878   1.482  1.1081  0.1722 -1.7455
 3933TIP3    H233359   2.834   5.856   1.474  1.2212 -0.9445  1.7415
 3934TIP3   OH233360   4.463   1.654   7.408  0.0455  0.1342 -0.1595
 3934TIP3    H133361   4.501   1.687   7.489 -0.3654 -0.0415  0.1040
 3934TIP3    H233362   4.431   1.732   7.362 -0.0782  0.1943  0.0295
 3935TIP3   OH233363   0.028   4.108   0.086 -0.0316 -0.0681 -0.4380
 3935TIP3    H133364  -0.039   4.042   0.102 -1.3156  0.8167 -1.8873
 3935TIP3    H233365   0.111   4.063   0.103 -0.8868 -1.8201 -0.6603
 3936TIP3   OH233366   3.234   3.597   8.492 -0.0796 -0.6408 -0.0173
 3936TIP3    H133367   3.196   3.685   8.502 -0.3374 -0.0039 -4.3940
 3936TIP3    H233368   3.323   3.613   8.462  0.0639 -1.8900 -0.2964
 3937TIP3   OH233369   5.452   3.486   0.550 -0.2399 -0.0340 -0.4831
 3937TIP3    H133370   5.403   3.428   0.608  1.2433 -0.6043  0.2663
 3937TIP3    H233371   5.416   3.573   0.566  0.7466  0.0119  2.1039
 3938TIP3   OH233372   4.750   2.335   1.027 -0.3134  0.3067  0.2251
 3938TIP3    H133373   4.661   2.311   1.001 -0.7619  0.5229  1.5113
 3938TIP3    H233374   4.744   2.426   1.057  0.7039  0.9407 -1.3323
 3939TIP3   OH233375   2.097   4.736   7.697 -0.2223  0.1243 -0.0907
 3939TIP3    H133376   2.187   4.734   7.730  0.7329  0.4818 -2.5226
 3939TIP3    H233377   2.082   4.648   7.662 -0.3698  0.4329 -0.8112
 3940TIP3   OH233378   0.740   1.552   7.631 -0.1719  0.4497 -0.2814
 3940TIP3    H133379   0.788   1.476   7.599 -0.2370  0.0278  0.5705
 3940TIP3    H233380   0.681   1.516   7.698  0.9748  1.4443  1.3548
 3941TIP3   OH233381   2.341   2.876   1.419 -0.3473  0.2563 -0.4490
 3941TIP3    H133382   2.421   2.916   1.454 -0.1550  0.4197 -1.0639
 3941TIP3    H233383   2.283   2.867   1.495  0.6368 -0.8153  0.2092
 3942TIP3   OH233384   4.055   0.268   1.835 -0.5086  0.5645 -0.0868
 3942TIP3    H133385   4.076   0.350   1.878  0.1717 -0.4453  1.6007
 3942TIP3    H233386   3.960   0.260   1.844 -0.2328 -0.5364  3.1394
 3943TIP3   OH233387   0.205   6.152   8.399 -0.3818  0.4320  0.0909
 3943TIP3    H133388   0.231   6.060   8.406  0.1869  0.5026 -0.9370
 3943TIP3    H233389   0.167   6.160   8.311 -2.0370  0.8031  0.8051
 3944TIP3   OH233390   2.437   0.006   7.809 -0.0705  0.1293  0.2830
 3944TIP3    H133391   2.528   0.032   7.796 -0.1025 -0.8270 -3.0452
 3944TIP3    H233392   2.387   0.087   7.801  0.3267  0.2270 -2.0974
 3945TIP3   OH233393   2.033   5.857   8.106  0.2756  0.0799 -0.1788
 3945TIP3    H133394   2.006   5.948   8.094  0.6271  0.3676  1.0737
 3945TIP3    H233395   2.004   5.835   8.195 -0.5890 -1.3237 -0.7648
 3946TIP3   OH233396   1.102   6.212   9.197  0.5194  0.2059  0.0886
 3946TIP3    H133397   1.176   6.186   9.142  0.1265  0.9359 -0.8170
 3946TIP3    H233398   1.104   6.308   9.196 -0.5063  0.2318 -0.0398
 3947TIP3   OH233399   1.330   5.646   2.076 -0.1658 -0.2571 -0.1110
 3947TIP3    H133400   1.389   5.719   2.092  0.3232 -0.3476 -1.3913
 3947TIP3    H233401   1.247   5.673   2.116 -0.0178  1.0364 -0.6374
 3948TIP3   OH233402   0.797   1.711   7.997  0.7078 -1.0237  0.6981
 3948TIP3    H133403   0.834   1.799   7.998 -0.5435 -0.3420 -1.9620
 3948TIP3    H233404   0.861   1.658   7.949  1.6067 -1.7054  2.5642
 3949TIP3   OH233405   3.919   3.163   0.965  0.4112  0.1436 -0.4938
 3949TIP3    H133406   3.952   3.242   0.922  1.5088  0.1620  0.3442
 3949TIP3    H233407   3.840   3.192   1.011  0.2221  0.5065 -1.0306
 3950TIP3   OH233408   6.343   0.272   8.525 -0.0643 -0.1655  0.2773
 3950TIP3    H133409   6.411   0.220   8.482  1.7084  1.1720  1.2987
 3950TIP3    H233410   6.373   0.362   8.516 -0.3767  0.2862  2.9542
 3951TIP3   OH233411   1.987   2.154   1.366 -0.4065 -0.1064 -0.3500
 3951TIP3    H133412   1.917   2.094   1.389 -1.9060  2.1387  1.3107
 3951TIP3    H233413   2.051   2.146   1.438 -1.0949  0.9225  0.4129
 3952TIP3   OH233414   4.686   5.603   0.134 -0.1429 -0.1483 -0.0938
 3952TIP3    H133415   4.701   5.697   0.132  1.1322 -0.3360 -0.5651
 3952TIP3    H233416   4.600   5.593   0.174  0.9392  1.0958  2.8830
 3953TIP3   OH233417   4.497   5.888   8.108  0.0075  0.0988  0.0458
 3953TIP3    H133418   4.458   5.869   8.022  0.0137  1.0486 -0.1722
 3953TIP3    H233419   4.581   5.842   8.107 -0.4202 -0.7071 -0.0683
 3954TIP3   OH233420   0.846   4.289   7.269 -0.1892  0.5054  0.2779
 3954TIP3    H133421   0.883   4.296   7.181 -0.8700  2.1706  0.0896
 3954TIP3    H233422   0.780   4.220   7.261  0.5087 -0.1205 -0.2271
 3955TIP3   OH233423   4.973   0.091   1.235 -0.0525 -0.8139 -0.7017
 3955TIP3    H133424   5.049   0.105   1.292 -1.7173 -1.1119  1.7256
 3955TIP3    H233425   4.995   0.012   1.186  1.8153 -0.0377 -1.2192
 3956TIP3   OH233426   1.933   4.823   1.415  0.0670 -0.0459  0.1878
 3956TIP3    H133427   1.991   4.889   1.454  0.4070 -1.2585  1.8700
 3956TIP3    H233428   1.926   4.755   1.482 -4.3398  0.5803  0.6848
 3957TIP3   OH233429   1.489   5.356   8.212  0.1258 -0.5934 -0.4892
 3957TIP3    H133430   1.394   5.353   8.223 -0.1442  3.9968  0.5680
 3957TIP3    H233431   1.523   5.318   8.293 -0.9228 -0.0031  0.2611
 3958TIP3   OH233432   5.392   4.102   1.185  0.0963 -0.4770  0.4236
 3958TIP3    H133433   5.350   4.096   1.271  0.4891  1.1307  0.7544
 3958TIP3    H233434   5.467   4.160   1.199  0.3514 -0.4416 -0.9456
 3959TIP3   OH233435   3.838   2.789   7.436  0.6757  0.6473 -0.5853
 3959TIP3    H133436   3.782   2.742   7.498  0.9280  1.3156  0.1772
 3959TIP3    H233437   3.810   2.880   7.444  0.1722  0.6526 -2.0581
 3960TIP3   OH233438   4.632   3.540   0.609  0.0676  0.0553  0.0655
 3960TIP3    H133439   4.662   3.575   0.692 -0.8226  1.5399 -0.1920
 3960TIP3    H233440   4.579   3.465   0.632  0.4146  0.0272  0.7896
 3961TIP3   OH233441   0.727   3.765   1.779 -0.2275  0.2389 -0.3077
 3961TIP3    H133442   0.806   3.733   1.822  0.2739  1.9832  0.1550
 3961TIP3    H233443   0.749   3.765   1.686  0.9470  2.2109 -0.0769
 3962TIP3   OH233444   6.211   0.806   7.387 -0.6387  0.0082  0.0204
 3962TIP3    H133445   6.166   0.722   7.377 -1.4222  0.4817 -0.5154
 3962TIP3    H233446   6.143   0.872   7.371  0.1428  0.7412 -0.3359
 3963TIP3   OH233447   6.406   5.869   7.860  0.3077 -0.2349  0.5775
 3963TIP3    H133448   6.464   5.918   7.918  1.4628 -0.3847 -0.4135
 3963TIP3    H233449   6.376   5.934   7.796 -0.7586 -0.1259  1.1660
 3964TIP3   OH233450   3.669   3.844   8.141 -0.4219 -0.1581  0.1070
 3964TIP3    H133451   3.679   3.817   8.232  0.5258  0.1442  0.1074
 3964TIP3    H233452   3.679   3.939   8.143 -0.0900 -0.1808 -0.3472
 3965TIP3   OH233453   3.543   3.125   0.747 -0.3931 -0.1213  0.1362
 3965TIP3    H133454   3.531   3.209   0.703 -0.8325 -1.4208 -2.4114
 3965TIP3    H233455   3.465   3.115   0.802 -1.5567  0.1041 -1.4142
 3966TIP3   OH233456   3.440   2.573   8.621 -0.5409  0.3876 -0.3246
 3966TIP3    H133457   3.377   2.587   8.550 -1.1910  1.3415  0.4150
 3966TIP3    H233458   3.506   2.641   8.608 -0.8905  0.8372  0.2275
 3967TIP3   OH233459   2.265   0.532   7.630 -0.1687  0.1315  0.6668
 3967TIP3    H133460   2.334   0.534   7.696  1.1987  1.1976 -0.7226
 3967TIP3    H233461   2.291   0.462   7.570 -0.3546  0.4645  0.1949
 3968TIP3   OH233462   4.129   3.355   7.026  0.4039  0.1567 -0.2585
 3968TIP3    H133463   4.137   3.261   7.009 -0.3472  0.2003 -0.8703
 3968TIP3    H233464   4.053   3.363   7.083  0.0657  0.4463 -0.7408
 3969TIP3   OH233465   4.567   3.286   6.335 -0.4165 -0.0933 -0.1074
 3969TIP3    H133466   4.628   3.267   6.263  2.0325 -0.3697  1.9081
 3969TIP3    H233467   4.604   3.241   6.411 -3.6850 -1.0514  1.0964
 3970TIP3   OH233468   4.894   1.824   0.279  0.1090  0.0632 -0.8842
 3970TIP3    H133469   4.946   1.838   0.200  2.5898  2.5549  1.0187
 3970TIP3    H233470   4.883   1.911   0.317 -1.5529 -0.9520  1.2196
 3971TIP3   OH233471   1.143   6.526   8.259  0.2420 -0.4801  0.2509
 3971TIP3    H133472   1.078   6.466   8.296  1.0494 -1.4271  0.1914
 3971TIP3    H233473   1.227   6.479   8.270  0.5556 -0.7603 -2.6152
 3972TIP3   OH233474   0.082   5.736   8.467  0.0315  0.6456  0.6499
 3972TIP3    H133475   0.149   5.726   8.536  0.0188  0.3845  0.6267
 3972TIP3    H233476   0.033   5.654   8.470  1.2518 -0.1975 -0.9581
 3973TIP3   OH233477   0.767   1.432   1.686  0.3647 -0.1131 -0.4861
 3973TIP3    H133478   0.713   1.397   1.615 -0.4512 -0.1625  0.1488
 3973TIP3    H233479   0.717   1.507   1.719  1.0482  0.3079 -0.3833
 3974TIP3   OH233480   3.456   3.044   1.391 -0.4160 -0.1303  0.0075
 3974TIP3    H133481   3.466   2.984   1.317 -0.8183 -0.7489  0.4440
 3974TIP3    H233482   3.538   3.037   1.439  0.2196  0.9791 -0.8775
 3975TIP3   OH233483   4.422   3.535   2.278  0.1332  0.7801  0.2099
 3975TIP3    H133484   4.418   3.510   2.185  0.9827 -0.3761  0.4489
 3975TIP3    H233485   4.363   3.609   2.286 -1.1051 -0.0386 -0.9590
 3976TIP3   OH233486   6.339   3.272   1.921  0.1241  0.1947  0.2667
 3976TIP3    H133487   6.332   3.236   1.833 -0.1895 -0.2717  0.4772
 3976TIP3    H233488   6.253   3.311   1.937 -0.1361 -0.5561  0.7230
 3977TIP3   OH233489   3.209   3.960   9.091  0.3756  0.4346 -0.1118
 3977TIP3    H133490   3.242   3.903   9.161 -0.4163  1.0495  0.8004
 3977TIP3    H233491   3.270   4.034   9.091  1.9223 -0.7362 -1.8834
 3978TIP3   OH233492   4.850   5.285   2.316  0.1360 -0.5705 -0.1812
 3978TIP3    H133493   4.775   5.228   2.301  0.1240 -0.5772 -0.0964
 3978TIP3    H233494   4.910   5.233   2.370 -0.9618  0.3383  2.0230
 3979TIP3   OH233495   1.711   0.587   8.729  0.6418  0.1138  0.3259
 3979TIP3    H133496   1.655   0.651   8.774 -1.1067 -2.1285  1.5985
 3979TIP3    H233497   1.792   0.585   8.780 -0.8253 -1.4552  2.8522
 3980TIP3   OH233498   2.303   4.590   8.432  0.1066 -0.2335 -0.7650
 3980TIP3    H133499   2.234   4.584   8.497  1.3411  0.0027  0.6164
 3980TIP3    H233500   2.258   4.581   8.348 -1.4227 -1.2864  0.1310
 3981TIP3   OH233501   2.399   2.936   2.582 -0.5117  0.1777 -0.2884
 3981TIP3    H133502   2.304   2.947   2.581 -0.7468 -1.6039 -1.6286
 3981TIP3    H233503   2.433   3.024   2.595 -2.3397  0.8696  0.0678
 3982TIP3   OH233504   5.100   0.795   7.636  0.0460  0.3543  0.6360
 3982TIP3    H133505   5.024   0.799   7.577  0.1216 -0.7765  0.4369
 3982TIP3    H233506   5.151   0.873   7.615 -0.0679  0.1131 -0.6234
 3983TIP3   OH233507   5.132   2.415   7.699  0.0622 -0.5464  0.2345
 3983TIP3    H133508   5.214   2.430   7.653  0.0477  0.0068  0.3855
 3983TIP3    H233509   5.129   2.484   7.766 -0.0065 -1.2151  0.9412
 3984TIP3   OH233510   6.055   5.976   9.139 -0.0357 -0.5749 -0.1686
 3984TIP3    H133511   6.006   6.048   9.098  1.6727  0.8637  0.1655
 3984TIP3    H233512   6.055   5.907   9.074 -0.8303  0.1190 -0.9391
 3985TIP3   OH233513   0.836   5.927   2.248 -0.6003  0.1492  0.3183
 3985TIP3    H133514   0.848   5.846   2.298 -0.2056  0.5976  0.9683
 3985TIP3    H233515   0.870   5.995   2.305 -1.0010  0.7882 -0.1910
 3986TIP3   OH233516   4.328   1.129   7.643  0.0919  0.2650  0.2160
 3986TIP3    H133517   4.301   1.199   7.583  0.8759  0.5386  0.1708
 3986TIP3    H233518   4.331   1.171   7.729  0.4799  0.2789  0.2008
 3987TIP3   OH233519   1.051   6.413   1.642 -0.3541  0.1649 -0.5284
 3987TIP3    H133520   0.959   6.412   1.667  0.1138 -3.1477  1.7443
 3987TIP3    H233521   1.074   6.320   1.632  3.0416  0.7603  0.3564
 3988TIP3   OH233522   4.438   1.029   0.315 -0.1436 -0.0552 -0.5307
 3988TIP3    H133523   4.477   1.063   0.396  0.3845 -0.6107 -0.5411
 3988TIP3    H233524   4.514   1.002   0.262 -0.5337 -2.3863 -0.0288
 3989TIP3   OH233525   1.067   1.699   0.427 -0.2936 -0.3174  0.4061
 3989TIP3    H133526   0.984   1.682   0.471  0.2640 -0.4643  1.4176
 3989TIP3    H233527   1.119   1.747   0.491  0.8435 -1.2673  0.2260
 3990TIP3   OH233528   1.023   5.377   7.740 -0.7958 -0.1550 -0.8560
 3990TIP3    H133529   1.013   5.470   7.761  1.4472  0.0995 -0.6445
 3990TIP3    H233530   0.996   5.370   7.648 -1.1073  0.6793 -0.8362
 3991TIP3   OH233531   5.576   2.665   0.875  0.0827  0.0015  0.1920
 3991TIP3    H133532   5.564   2.575   0.844 -1.1386  0.5031 -0.9156
 3991TIP3    H233533   5.626   2.657   0.956  0.0503 -1.6656  0.0713
 3992TIP3   OH233534   1.560   2.169   2.884  0.0629 -0.5358  0.1996
 3992TIP3    H133535   1.637   2.179   2.941 -0.5082 -0.8476  1.0498
 3992TIP3    H233536   1.511   2.250   2.894  1.3210  0.5803 -2.0075
 3993TIP3   OH233537   6.231   4.166   0.973  0.3305 -0.1475  0.3008
 3993TIP3    H133538   6.304   4.228   0.977  0.4148 -0.2701  0.7277
 3993TIP3    H233539   6.245   4.109   1.048 -0.2871 -0.0817  0.4683
 3994TIP3   OH233540   0.718   0.486   8.438  0.4020 -0.5735 -0.3150
 3994TIP3    H133541   0.760   0.538   8.506  0.7111 -0.8473 -0.2951
 3994TIP3    H233542   0.627   0.517   8.437 -0.2545 -2.2472  1.8969
 3995TIP3   OH233543   2.087   5.120   2.746  0.5885  0.3605 -0.1544
 3995TIP3    H133544   2.071   5.194   2.805 -1.0567  0.0200 -0.1265
 3995TIP3    H233545   2.182   5.108   2.749  0.7135  1.3782  1.1664
 3996TIP3   OH233546   0.499   3.941   0.824 -0.1642  0.1771  0.4066
 3996TIP3    H133547   0.555   3.979   0.891 -0.7972 -0.1747  1.1504
 3996TIP3    H233548   0.478   4.014   0.765  1.5636  0.1780 -0.2480
 3997TIP3   OH233549   1.544   5.809   9.176 -0.0845  0.4205 -1.0738
 3997TIP3    H133550   1.616   5.855   9.219  1.1642  0.1217 -2.7589
 3997TIP3    H233551   1.466   5.836   9.226  1.1644  0.6394  0.8916
 3998TIP3   OH233552   1.844   6.565   7.735  0.0487 -0.0284 -0.2993
 3998TIP3    H133553   1.754   6.537   7.724 -0.2460 -0.3278  2.2058
 3998TIP3    H233554   1.840   6.634   7.801  1.5932  0.4350 -0.6420
 3999TIP3   OH233555   2.660   0.374   8.386  0.3388  0.1574  0.5564
 3999TIP3    H133556   2.630   0.464   8.377  0.0872  0.0650  0.4782
 3999TIP3    H233557   2.646   0.353   8.478 -0.1890 -0.0136  0.4354
 4000TIP3   OH233558   4.877   2.094   0.314  0.0248 -0.0823  0.1751
 4000TIP3    H133559   4.825   2.147   0.254  0.6657 -0.3778 -0.6698
 4000TIP3    H233560   4.896   2.152   0.388 -0.6537  0.3358  0.0248
 4001TIP3   OH233561   4.369   0.708   9.041 -0.4417 -0.3591  0.2182
 4001TIP3    H133562   4.350   0.639   9.105  1.5213 -0.2623  0.9662
 4001TIP3    H233563   4.411   0.663   8.968  1.1244  0.0399  0.8393
 4002TIP3   OH233564   2.469   3.394   8.444 -0.1487  0.0454 -0.1348
 4002TIP3    H133565   2.532   3.457   8.478 -0.7283  0.9601 -0.7244
 4002TIP3    H233566   2.406   3.382   8.515 -0.4658  0.7333 -0.2897
 4003TIP3   OH233567   2.102   3.691   8.206  0.0330 -0.1577 -0.0900
 4003TIP3    H133568   2.065   3.659   8.123  0.3700  3.1769 -1.7101
 4003TIP3    H233569   2.055   3.773   8.222  2.3363  1.0054  1.1655
 4004TIP3   OH233570   5.739   0.802   1.083 -0.5768  0.4448 -0.2786
 4004TIP3    H133571   5.806   0.869   1.068 -1.7773  2.0250  0.9914
 4004TIP3    H233572   5.685   0.804   1.004 -1.0748  1.6052  0.0642
 4005TIP3   OH233573   1.573   3.575   2.866 -0.6457  0.6207 -0.0507
 4005TIP3    H133574   1.561   3.484   2.894 -1.2047  0.9826  0.9355
 4005TIP3    H233575   1.519   3.626   2.927  1.7122  1.8607  1.1165
 4006TIP3   OH233576   6.404   6.304   2.232 -0.3763  0.1367  0.1314
 4006TIP3    H133577   6.404   6.396   2.209  3.2049 -0.0433 -1.2281
 4006TIP3    H233578   6.480   6.294   2.290  1.2125 -2.3460 -2.1541
 4007TIP3   OH233579   2.813   5.486   8.174  0.3267 -0.4280  0.3904
 4007TIP3    H133580   2.839   5.567   8.132 -2.1016 -0.2551 -0.9984
 4007TIP3    H233581   2.724   5.503   8.207  0.0824 -2.2336  0.8087
 4008TIP3   OH233582   0.610   6.222   1.450  0.2250  0.3991  0.0689
 4008TIP3    H133583   0.641   6.201   1.538 -0.2267 -0.8864 -0.0556
 4008TIP3    H233584   0.609   6.318   1.447 -0.5000  0.4735  1.7153
 4009TIP3   OH233585   6.318   0.120   2.281 -0.1811  0.1771 -0.5224
 4009TIP3    H133586   6.297   0.192   2.341 -2.4727 -0.8781  0.0386
 4009TIP3    H233587   6.234   0.077   2.265  0.4217 -0.0765 -3.9052
 4010TIP3   OH233588   5.315   0.769   7.083 -0.2620 -0.2451  0.3453
 4010TIP3    H133589   5.266   0.692   7.054  1.2027 -1.3154  0.5837
 4010TIP3    H233590   5.252   0.819   7.135 -2.2683  0.5168 -2.5993
 4011TIP3   OH233591   2.228   6.363   8.220 -0.2797 -0.4043  0.6825
 4011TIP3    H133592   2.211   6.282   8.173 -0.3214  0.4048 -0.7432
 4011TIP3    H233593   2.318   6.385   8.198 -0.9556  1.0912 -0.8095
 4012TIP3   OH233594   3.908   1.489   7.720 -1.0020  0.6340 -0.1677
 4012TIP3    H133595   3.950   1.575   7.721  0.5287 -0.0485  1.9033
 4012TIP3    H233596   3.872   1.480   7.808  0.4671 -1.5297  0.2894
 4013TIP3   OH233597   2.731   4.388   0.749  0.1504  0.0252  0.8909
 4013TIP3    H133598   2.722   4.480   0.726 -1.4595 -0.4479 -0.6168
 4013TIP3    H233599   2.775   4.348   0.674  0.0659 -0.5808  1.1525
 4014TIP3   OH233600   0.842   0.372   0.501 -0.2161  0.3781  0.9911
 4014TIP3    H133601   0.858   0.420   0.582  0.8551  1.2106  0.3025
 4014TIP3    H233602   0.929   0.354   0.466 -0.6267 -1.0713  0.6373
 4015TIP3   OH233603   2.772   0.388   2.685 -0.0541 -0.0741  0.0427
 4015TIP3    H133604   2.768   0.297   2.714 -2.1716 -0.8401 -2.3167
 4015TIP3    H233605   2.734   0.438   2.758 -1.7329 -1.4859  0.2042
 4016TIP3   OH233606   3.084   0.811   8.238 -0.1058 -0.5668  0.0474
 4016TIP3    H133607   3.030   0.839   8.164 -0.7943  0.4508  0.9113
 4016TIP3    H233608   3.087   0.716   8.230  0.2412 -0.4532 -1.5590
 4017TIP3   OH233609   3.128   3.357   6.793  0.9968  0.0590  0.1923
 4017TIP3    H133610   3.081   3.437   6.771 -0.0413 -0.5420  0.1961
 4017TIP3    H233611   3.182   3.382   6.868 -0.0160  0.5324  0.7870
 4018TIP3   OH233612   2.353   4.838   9.215  0.3710  0.2822 -0.0655
 4018TIP3    H133613   2.292   4.896   9.261 -2.2206 -0.4858 -2.2983
 4018TIP3    H233614   2.325   4.750   9.239  1.9443 -0.1271  0.4144
 4019TIP3   OH233615   0.197   3.326   7.351 -0.2053  0.1312  0.1047
 4019TIP3    H133616   0.105   3.337   7.324  0.1260  2.7498 -0.1840
 4019TIP3    H233617   0.238   3.280   7.277 -1.3832 -1.7101  0.5350
 4020TIP3   OH233618   5.890   3.913   7.542 -0.3616 -0.5639  0.7758
 4020TIP3    H133619   5.941   3.845   7.498  0.2494  1.9566 -2.8212
 4020TIP3    H233620   5.834   3.949   7.474 -2.4193  1.0031  3.1260
 4021TIP3   OH233621   5.211   1.476   6.501  0.6467  0.8724  0.4496
 4021TIP3    H133622   5.275   1.509   6.437 -0.8138  0.4302 -1.3472
 4021TIP3    H233623   5.263   1.424   6.562  2.0217  0.3832 -1.0542
 4022TIP3   OH233624   6.390   6.070   7.662 -0.3454 -0.8711  0.2050
 4022TIP3    H133625   6.351   6.055   7.575 -0.2204 -2.5414  0.4081
 4022TIP3    H233626   6.484   6.061   7.648 -0.1796  0.5395  0.2257
 4023TIP3   OH233627   3.015   4.303   0.902 -0.4716 -0.2481  0.1790
 4023TIP3    H133628   2.948   4.298   0.834 -0.8767 -0.4648  0.5850
 4023TIP3    H233629   3.087   4.249   0.870  0.3121  1.4936 -1.1325
 4024TIP3   OH233630   3.034   3.295   9.284 -0.2376  0.4200  0.6430
 4024TIP3    H133631   3.065   3.380   9.252  0.6843 -0.2543 -0.2949
 4024TIP3    H233632   3.087   3.278   9.362  0.8380 -0.1179 -0.1991
 4025TIP3   OH233633   4.524   3.347   0.959  0.4087  0.4064 -0.1066
 4025TIP3    H133634   4.489   3.373   0.874  1.7068 -0.6088 -1.0031
 4025TIP3    H233635   4.474   3.268   0.982  0.6853  0.1445 -0.3898
 4026TIP3   OH233636   0.719   6.058   2.553  0.2768  0.4335 -0.0789
 4026TIP3    H133637   0.768   6.126   2.506  0.1917  1.5959  1.4405
 4026TIP3    H233638   0.645   6.105   2.592 -0.3782 -0.7428  0.1121
 4027TIP3   OH233639   5.303   5.533   1.591 -0.0465  0.2913  0.9770
 4027TIP3    H133640   5.350   5.454   1.618 -0.1620  0.1671  0.8142
 4027TIP3    H233641   5.328   5.599   1.656  0.5061  0.2806  0.7822
 4028TIP3   OH233642   2.157   4.822   2.230  0.1075 -0.2750 -0.0213
 4028TIP3    H133643   2.244   4.802   2.195  1.2405  1.4446  1.6508
 4028TIP3    H233644   2.163   4.802   2.323 -1.6513 -1.1264 -0.0555
 4029TIP3   OH233645   3.616   0.520   0.135  0.0668 -0.1805  0.2992
 4029TIP3    H133646   3.653   0.529   0.223  0.0548  0.2710  0.2611
 4029TIP3    H233647   3.642   0.601   0.090  0.9567 -0.8527 -0.4435
 4030TIP3   OH233648   4.580   6.314   8.429  0.6785  0.3830  0.0167
 4030TIP3    H133649   4.657   6.316   8.486  1.0379  0.8689 -0.4673
 4030TIP3    H233650   4.594   6.387   8.369  1.4230 -1.4283 -2.1504
 4031TIP3   OH233651   3.548   5.316   7.837  0.2659 -0.1585 -0.1579
 4031TIP3    H133652   3.466   5.307   7.886  1.2045 -1.2237  1.3111
 4031TIP3    H233653   3.611   5.263   7.887  1.7318  0.2543 -1.5096
 4032TIP3   OH233654   1.728   6.040   0.060  0.1138  0.6002  0.1361
 4032TIP3    H133655   1.712   5.988   0.138 -2.9600 -1.8760 -1.8845
 4032TIP3    H233656   1.704   6.129   0.086 -1.1653 -0.2129  1.9497
 4033TIP3   OH233657   1.173   1.477   0.304  0.1975  0.8382 -0.3031
 4033TIP3    H133658   1.151   1.563   0.341 -0.3084 -0.2361  2.0298
 4033TIP3    H233659   1.207   1.498   0.217 -0.9809  3.3126 -0.2821
 4034TIP3   OH233660   5.454   2.443   2.000 -0.2662  0.5432  0.6219
 4034TIP3    H133661   5.407   2.443   2.083  0.3433  0.2476  0.9720
 4034TIP3    H233662   5.516   2.516   2.007  0.2483  0.1068  0.7000
 4035TIP3   OH233663   0.062   4.209   8.209  0.0398  0.2256  0.1709
 4035TIP3    H133664   0.115   4.175   8.137  0.9489  0.5398  0.6794
 4035TIP3    H233665   0.039   4.298   8.183 -1.5393 -0.3845 -0.7258
 4036TIP3   OH233666   1.808   1.106   8.282  0.0413 -0.2166 -0.3192
 4036TIP3    H133667   1.753   1.033   8.255  1.5532 -0.5124 -2.9349
 4036TIP3    H233668   1.893   1.090   8.240  1.7644  0.9285  2.4040
 4037TIP3   OH233669   6.146   3.804   1.720 -0.0102  0.3962  0.3574
 4037TIP3    H133670   6.207   3.824   1.649  0.0102 -0.1169  0.2229
 4037TIP3    H233671   6.196   3.745   1.777  0.1050  1.0997  0.9983
 4038TIP3   OH233672   4.823   0.701   9.186  0.5414 -0.1117 -0.7630
 4038TIP3    H133673   4.798   0.700   9.278  0.6832  0.2016 -0.7206
 4038TIP3    H233674   4.918   0.684   9.187  0.5837  0.1236 -0.8372
 4039TIP3   OH233675   0.267   5.139   9.290 -0.1732  0.1907  0.3278
 4039TIP3    H133676   0.275   5.079   9.216  1.9042  1.5382 -0.6420
 4039TIP3    H233677   0.173   5.144   9.308 -0.4414 -3.2768  0.4779
 4040TIP3   OH233678   6.194   4.318   0.375  0.0461 -0.3662  0.6205
 4040TIP3    H133679   6.181   4.263   0.452 -2.5996 -0.9271 -0.1157
 4040TIP3    H233680   6.141   4.276   0.307  0.8452  1.1308 -0.9962
 4041TIP3   OH233681   3.329   3.907   6.416 -0.2665 -0.0052  0.0271
 4041TIP3    H133682   3.262   3.927   6.351  0.9483  0.6989 -1.0506
 4041TIP3    H233683   3.279   3.876   6.492 -1.8695  1.2024 -0.4550
 4042TIP3   OH233684   3.262   1.453   9.296  0.2414  0.7018  0.2013
 4042TIP3    H133685   3.265   1.400   9.216 -0.2736  1.1127 -0.0961
 4042TIP3    H233686   3.285   1.541   9.268  2.5157  0.4169  0.9334
 4043TIP3   OH233687   0.504   4.616   0.247  0.6099 -0.0645 -0.0788
 4043TIP3    H133688   0.460   4.696   0.273  1.4533  0.2036  0.5736
 4043TIP3    H233689   0.474   4.600   0.157 -1.8935 -0.6726  0.7820
 4044TIP3   OH233690   2.657   0.250   8.652 -0.5771  0.1185  0.1063
 4044TIP3    H133691   2.609   0.265   8.733 -1.3483  1.7802 -0.5886
 4044TIP3    H233692   2.645   0.158   8.632 -1.0691 -0.1191  1.4434
 4045TIP3   OH233693   5.065   0.021   7.994 -0.2985  0.0823  0.1317
 4045TIP3    H133694   5.032  -0.026   7.917 -0.4069 -0.9743  0.8094
 4045TIP3    H233695   5.160   0.013   7.988 -0.1087  2.4033 -1.3623
 4046TIP3   OH233696   0.061   1.559   1.307 -0.1518  0.1716 -0.3341
 4046TIP3    H133697   0.134   1.619   1.293  0.1406  0.1372  0.9384
 4046TIP3    H233698  -0.016   1.606   1.274  0.1951  0.9243 -0.0999
 4047TIP3   OH233699   1.677   3.550   2.584  0.2285  0.6111 -0.4641
 4047TIP3    H133700   1.771   3.535   2.576 -0.2066 -4.2100  0.4724
 4047TIP3    H233701   1.663   3.567   2.677  0.0811  0.1011 -0.3905
 4048TIP3   OH233702   4.517   0.715   7.494 -0.7570  0.1635 -0.4813
 4048TIP3    H133703   4.553   0.804   7.486 -3.5985  1.4610 -0.1378
 4048TIP3    H233704   4.546   0.685   7.580  0.1957  0.7560 -0.5819
 4049TIP3   OH233705   5.852   2.561   2.707 -0.0187 -0.1248 -0.1923
 4049TIP3    H133706   5.828   2.650   2.734 -0.0684 -0.2343  0.1291
 4049TIP3    H233707   5.788   2.538   2.639  0.7177  0.5313 -1.1285
 4050TIP3   OH233708   2.781   0.211   8.224 -0.0069 -0.6296 -0.3725
 4050TIP3    H133709   2.851   0.240   8.166 -0.5799 -0.4816 -1.0076
 4050TIP3    H233710   2.758   0.289   8.275 -1.4799  0.0744 -2.0101
 4051TIP3   OH233711   5.507   0.487   6.757  0.0616  0.5840 -0.8023
 4051TIP3    H133712   5.571   0.548   6.793  1.0608 -1.4012  0.9690
 4051TIP3    H233713   5.422   0.522   6.784  0.5705  1.5144 -0.3917
 4052TIP3   OH233714   1.325   2.725   0.841 -0.1750 -0.3348 -0.4872
 4052TIP3    H133715   1.401   2.783   0.831 -0.4272  0.7904  2.8789
 4052TIP3    H233716   1.342   2.678   0.923 -3.0223 -0.1586  0.3080
 4053TIP3   OH233717   4.973   3.597   7.764 -0.8273 -0.1994  0.1670
 4053TIP3    H133718   4.885   3.628   7.745 -0.6594  0.5382  0.5245
 4053TIP3    H233719   4.984   3.615   7.858 -0.5762 -1.0013  0.2962
 4054TIP3   OH233720   5.057   0.001   7.614  0.6847  0.4644  0.0068
 4054TIP3    H133721   4.986   0.029   7.556  1.1319  0.0640 -0.7458
 4054TIP3    H233722   5.012  -0.039   7.689  0.0809  1.7234  0.3509
 4055TIP3   OH233723   5.255   4.629   8.259  0.0862 -0.2193  0.4880
 4055TIP3    H133724   5.324   4.631   8.326  0.4861 -2.5842  0.2319
 4055TIP3    H233725   5.303   4.637   8.176 -0.1056 -0.3227  0.3680
 4056TIP3   OH233726   4.132   4.337   7.459  0.4425  0.3546 -0.5388
 4056TIP3    H133727   4.088   4.343   7.374 -2.4731 -2.5787  0.5593
 4056TIP3    H233728   4.060   4.339   7.523  2.3418  0.0008  1.7335
 4057TIP3   OH233729   4.707   6.070   8.702 -0.1589  0.1627  0.3784
 4057TIP3    H133730   4.725   6.150   8.752 -1.5511  0.6716  0.0827
 4057TIP3    H233731   4.724   5.999   8.764  0.5198  0.6984  0.8187
 4058TIP3   OH233732   0.383   0.829   7.734 -0.5113  0.3798 -0.4686
 4058TIP3    H133733   0.430   0.801   7.656  1.9166  2.5289  0.1012
 4058TIP3    H233734   0.397   0.759   7.797 -0.6111 -0.3538 -1.2429
 4059TIP3   OH233735   4.700   3.449   7.143  0.0778 -0.8183 -0.1519
 4059TIP3    H133736   4.703   3.358   7.112 -0.3617 -0.5040 -1.1409
 4059TIP3    H233737   4.713   3.502   7.064  1.0497 -0.0206  0.5155
 4060TIP3   OH233738   0.156   2.121   1.937 -0.1166 -0.0592 -0.0643
 4060TIP3    H133739   0.226   2.082   1.884  0.4850  0.1226  0.5825
 4060TIP3    H233740   0.156   2.214   1.912  1.4870  0.4515  1.6168
 4061TIP3   OH233741   5.829   2.078   1.300 -0.0576 -0.0017  0.0135
 4061TIP3    H133742   5.767   2.038   1.239 -0.6844 -2.0437  1.8526
 4061TIP3    H233743   5.777   2.141   1.349  0.3026  1.1711 -1.0410
 4062TIP3   OH233744   2.030   0.872   8.847  0.5374  0.0482  0.4194
 4062TIP3    H133745   2.034   0.967   8.833  3.4325 -0.1503 -0.7112
 4062TIP3    H233746   2.116   0.849   8.881 -0.2083 -2.1881  0.9796
 4063TIP3   OH233747   4.296   0.843   7.941 -0.1163  0.1216 -0.5787
 4063TIP3    H133748   4.249   0.906   7.887 -0.8239  0.9510  0.9266
 4063TIP3    H233749   4.230   0.812   8.004  0.7203 -0.6314 -0.0443
 4064TIP3   OH233750   5.929   4.102   7.207  0.6539 -0.1292 -0.0223
 4064TIP3    H133751   5.839   4.132   7.213  1.0661  1.3138 -0.4793
 4064TIP3    H233752   5.926   4.025   7.150 -0.4543 -1.0092  1.1738
 4065TIP3   OH233753   6.582   1.890   8.188  0.3659  1.0120  0.0643
 4065TIP3    H133754   6.569   1.957   8.121 -0.5364  0.0240 -0.7764
 4065TIP3    H233755   6.674   1.899   8.212  1.2825  0.1134 -2.7389
 4066TIP3   OH233756   4.039   2.848   1.673  0.0147  0.3301  0.3113
 4066TIP3    H133757   3.997   2.762   1.676  0.1395  0.2514 -0.1264
 4066TIP3    H233758   3.977   2.903   1.625 -1.0371  1.0469  2.3591
 4067TIP3   OH233759   5.390   1.513   8.285 -1.0506  0.0276 -0.1323
 4067TIP3    H133760   5.422   1.470   8.364 -2.8486  0.1183  0.6999
 4067TIP3    H233761   5.305   1.473   8.268 -0.1038 -1.0415 -2.9209
 4068TIP3   OH233762   6.317   1.545   7.920 -0.3107  0.1410  0.4170
 4068TIP3    H133763   6.288   1.491   7.847 -1.1522  0.3433  0.5925
 4068TIP3    H233764   6.269   1.512   7.995 -0.6252  0.9492  0.5797
 4069TIP3   OH233765   1.828   5.390   1.929  0.3280  0.4877  0.6183
 4069TIP3    H133766   1.738   5.410   1.902  0.1485 -0.6320  0.3244
 4069TIP3    H233767   1.868   5.475   1.942 -0.5406  1.0241 -0.0543
 4070TIP3   OH233768   5.578   0.829   1.360  0.2104 -0.5403 -0.0243
 4070TIP3    H133769   5.616   0.913   1.386 -2.4966  0.9024 -0.3725
 4070TIP3    H233770   5.621   0.765   1.416  3.2149  0.8583 -0.5483
 4071TIP3   OH233771   5.785   4.650   8.459 -0.0585  0.5690  0.0974
 4071TIP3    H133772   5.880   4.651   8.453 -0.0658  0.2340 -0.1322
 4071TIP3    H233773   5.767   4.609   8.544 -0.0021 -0.5609 -0.4111
 4072TIP3   OH233774   4.191   6.532   7.228  0.2905  0.0651  0.1335
 4072TIP3    H133775   4.104   6.542   7.191  0.1166  1.3663  0.8200
 4072TIP3    H233776   4.250   6.570   7.163  0.1489  0.8121  0.4235
 4073TIP3   OH233777   4.981   2.783   1.524 -0.2552 -0.5127  0.3361
 4073TIP3    H133778   4.925   2.745   1.591  0.1141  0.7125  1.3547
 4073TIP3    H233779   5.045   2.714   1.506 -0.0063 -0.6511  1.6584
 4074TIP3   OH233780   3.093   4.182   6.867 -0.2283  0.3531  0.3696
 4074TIP3    H133781   3.098   4.087   6.865 -0.7951  0.2842  1.5766
 4074TIP3    H233782   3.018   4.204   6.812 -0.2317  0.1014  0.2749
 4075TIP3   OH233783   5.599   5.176   0.721  0.1531 -0.3353 -0.2238
 4075TIP3    H133784   5.659   5.137   0.657  0.9270  0.5385 -0.0583
 4075TIP3    H233785   5.514   5.139   0.700  0.4683 -0.3811 -1.5005
 4076TIP3   OH233786   1.803   5.748   1.185  0.0598  0.5541 -0.3511
 4076TIP3    H133787   1.833   5.781   1.101 -1.6119  0.7499 -0.9056
 4076TIP3    H233788   1.825   5.817   1.247  0.0273  1.0395 -0.8702
 4077TIP3   OH233789   1.334   6.156   0.481 -0.2658  0.0080 -0.2923
 4077TIP3    H133790   1.244   6.142   0.510  0.2589  1.0771  2.0786
 4077TIP3    H233791   1.353   6.247   0.503  1.6863 -0.4550  0.1537
 4078TIP3   OH233792   1.710   2.363   9.304  0.2626 -0.5033  0.4353
 4078TIP3    H133793   1.769   2.419   9.354  0.3656 -0.0576 -0.1740
 4078TIP3    H233794   1.715   2.278   9.348 -0.0609  0.0101  1.4972
 4079TIP3   OH233795   4.520   0.011   0.666 -0.4376 -0.5881  0.2775
 4079TIP3    H133796   4.603  -0.037   0.671 -0.0772  0.1411  3.1691
 4079TIP3    H233797   4.454  -0.057   0.672 -0.3003 -1.4159 -4.1770
 4080TIP3   OH233798   5.596   1.248   8.904  0.0104 -0.3654 -0.1687
 4080TIP3    H133799   5.635   1.333   8.923 -1.0389  0.4782 -1.6367
 4080TIP3    H233800   5.521   1.242   8.964  0.1110 -0.2784 -0.0346
 4081TIP3   OH233801   3.575   4.444   1.683  0.9302  0.0357  0.1726
 4081TIP3    H133802   3.595   4.426   1.591  0.6215  1.4689 -0.2074
 4081TIP3    H233803   3.589   4.538   1.692  1.6194 -0.1891  1.7822
 4082TIP3   OH233804   4.725   4.127   0.698 -0.0366 -0.2504  0.0052
 4082TIP3    H133805   4.806   4.077   0.705 -0.1272 -0.6598 -1.4176
 4082TIP3    H233806   4.693   4.107   0.610 -2.1290 -0.7558  0.8282
 4083TIP3   OH233807   4.003   5.541   8.456  0.5773  0.0347  0.2226
 4083TIP3    H133808   4.095   5.542   8.432  0.5539 -1.2005  0.0245
 4083TIP3    H233809   3.959   5.591   8.388  0.9323 -0.5988 -0.4845
 4084TIP3   OH233810   4.250   5.594   8.356 -0.3150 -0.0864 -0.3549
 4084TIP3    H133811   4.246   5.688   8.345  0.3484  0.0560  0.4886
 4084TIP3    H233812   4.320   5.580   8.420 -1.4713 -1.0458  0.7627
 4085TIP3   OH233813   5.871   5.511   1.337  0.1537  0.0685 -0.0711
 4085TIP3    H133814   5.937   5.505   1.406  0.2326  0.2507 -0.1298
 4085TIP3    H233815   5.805   5.570   1.373  0.5549  0.7524 -0.4403
 4086TIP3   OH233816   6.005   2.453   7.196  0.1658 -0.1062  0.1398
 4086TIP3    H133817   6.040   2.373   7.236 -1.1517 -0.4128  0.7410
 4086TIP3    H233818   5.930   2.477   7.252 -0.8522  0.2623 -1.3134
 4087TIP3   OH233819   1.364   2.172   1.025 -0.0455  0.2391 -0.1311
 4087TIP3    H133820   1.435   2.225   0.990 -0.3968  0.9399  0.1915
 4087TIP3    H233821   1.341   2.112   0.954 -1.9488  2.7894 -1.8097
 4088TIP3   OH233822   2.638   1.777   6.958  0.4932  0.2087  0.4752
 4088TIP3    H133823   2.578   1.851   6.971 -0.8872 -0.7821 -0.0534
 4088TIP3    H233824   2.627   1.723   7.036 -0.4107 -0.7017 -0.2537
 4089TIP3   OH233825   4.964   5.447   8.548 -0.0279 -0.4540  0.2298
 4089TIP3    H133826   4.973   5.507   8.622  0.7889 -1.1776  0.7367
 4089TIP3    H233827   4.963   5.359   8.588 -0.4311 -0.8182 -0.5546
 4090TIP3   OH233828   2.133   5.801   8.730  0.4459  0.0473 -0.0266
 4090TIP3    H133829   2.216   5.846   8.715 -0.0524  0.5530 -1.4439
 4090TIP3    H233830   2.096   5.844   8.807  1.1000  0.3874  0.1082
 4091TIP3   OH233831   0.694   6.453   2.651  0.3273 -0.3069 -0.5915
 4091TIP3    H133832   0.642   6.381   2.686 -0.1442  0.2639 -0.0990
 4091TIP3    H233833   0.719   6.424   2.563 -1.1050 -0.4572 -0.9746
 4092TIP3   OH233834   0.347   1.005   8.315  0.0897 -0.0546  0.2722
 4092TIP3    H133835   0.282   0.992   8.384 -0.2530 -0.2745 -0.0882
 4092TIP3    H233836   0.310   1.074   8.260 -0.4531 -1.0536 -0.6564
 4093TIP3   OH233837   5.553   3.431   1.178  0.5560  0.1297  0.4051
 4093TIP3    H133838   5.530   3.378   1.254  0.2379 -0.3477 -0.0215
 4093TIP3    H233839   5.645   3.456   1.193  0.2466  0.7641  1.3639
 4094TIP3   OH233840   0.027   0.312   8.532  0.0575 -0.1807 -0.3741
 4094TIP3    H133841  -0.024   0.248   8.481  1.0226 -1.7630  0.5587
 4094TIP3    H233842   0.034   0.273   8.619 -0.5101  1.8961  0.6695
 4095TIP3   OH233843   2.524   3.955   0.705  0.2933 -0.4701 -0.5017
 4095TIP3    H133844   2.484   3.942   0.619 -0.5842  1.2039 -0.3816
 4095TIP3    H233845   2.582   4.030   0.694  0.3630 -0.3926  0.3131
 4096TIP3   OH233846   2.353   0.971   2.025  0.0261 -0.2422  0.1457
 4096TIP3    H133847   2.379   0.907   1.959 -1.0181 -1.0418  0.4837
 4096TIP3    H233848   2.279   0.931   2.069 -0.4622  1.0858  0.5721
 4097TIP3   OH233849   2.219   5.291   8.128  0.5864  0.2933 -0.2352
 4097TIP3    H133850   2.211   5.295   8.223  1.8536 -1.0753 -0.0439
 4097TIP3    H233851   2.303   5.332   8.109  0.5537  0.1410 -0.7228
 4098TIP3   OH233852   2.481   4.942   1.244 -0.1962  0.1931 -0.3662
 4098TIP3    H133853   2.555   4.891   1.212  0.3490 -0.4618  1.8145
 4098TIP3    H233854   2.495   5.029   1.207  0.0796 -0.6190 -2.3040
 4099TIP3   OH233855   0.928   4.219   0.487 -0.4192 -0.3320 -0.4631
 4099TIP3    H133856   0.969   4.133   0.476  1.0317  0.3332 -0.5894
 4099TIP3    H233857   0.974   4.258   0.562  0.5634  1.1812 -1.7699
 4100TIP3   OH233858   2.405   5.202   9.135 -0.0795  0.2599 -0.1091
 4100TIP3    H133859   2.399   5.297   9.151  0.3443  0.4839 -1.1986
 4100TIP3    H233860   2.420   5.164   9.222  1.5793  1.3609  0.1390
 4101TIP3   OH233861   4.326   2.637   9.304  0.1795 -0.4437 -0.1165
 4101TIP3    H133862   4.248   2.663   9.255 -1.3440 -0.1915  2.2736
 4101TIP3    H233863   4.293   2.613   9.391  2.8111 -0.0674  1.0793
 4102TIP3   OH233864   0.218   0.919   8.554  0.0216 -0.8284  0.2481
 4102TIP3    H133865   0.129   0.927   8.521  0.3266  0.4331 -0.3446
 4102TIP3    H233866   0.229   0.994   8.613  1.7247  1.1339 -2.3008
 4103TIP3   OH233867   2.355   3.642   9.147 -0.6242 -0.3661 -0.2819
 4103TIP3    H133868   2.276   3.592   9.131 -0.1254 -1.1756 -0.2700
 4103TIP3    H233869   2.330   3.733   9.129 -1.5764 -0.5944 -0.1672
 4104TIP3   OH233870   0.857   2.980   8.880 -0.3585 -0.2703 -0.1922
 4104TIP3    H133871   0.915   3.017   8.814 -0.6351  0.0276 -0.2702
 4104TIP3    H233872   0.850   3.048   8.947 -1.8734  0.3386 -0.9372
 4105TIP3   OH233873   3.825   2.000   8.219  0.2345 -0.7080 -0.3217
 4105TIP3    H133874   3.757   2.066   8.212 -0.8450 -1.7914 -0.3470
 4105TIP3    H233875   3.899   2.037   8.170 -0.4311  0.3410 -0.5751
 4106TIP3   OH233876   2.496   6.598   2.175  0.3509  0.3268 -0.1180
 4106TIP3    H133877   2.531   6.623   2.261 -0.1105  2.2694 -0.4388
 4106TIP3    H233878   2.500   6.502   2.174  1.5148  0.3132  1.5713
 4107TIP3   OH233879   0.178   2.520   7.833 -0.2659 -0.0039  0.3271
 4107TIP3    H133880   0.119   2.571   7.778  0.1171  1.1580  0.9725
 4107TIP3    H233881   0.265   2.539   7.800  0.0318  1.3037  1.7801
 4108TIP3   OH233882   4.074   6.155   8.839 -0.3229 -0.2525 -0.9253
 4108TIP3    H133883   4.070   6.225   8.906  1.2426  0.7289 -1.8034
 4108TIP3    H233884   4.140   6.094   8.872 -1.8853 -1.5430 -0.0218
 4109TIP3   OH233885   1.405   3.501   1.388 -0.0438 -0.0900 -0.2686
 4109TIP3    H133886   1.448   3.492   1.473 -0.3755  1.0333  0.0366
 4109TIP3    H233887   1.351   3.423   1.380 -0.9600  0.3657  1.1247
 4110TIP3   OH233888   2.302   0.586   6.696  0.6015 -0.9062 -0.2240
 4110TIP3    H133889   2.248   0.507   6.689  0.7105 -1.1229  1.0627
 4110TIP3    H233890   2.239   0.658   6.701  0.4031 -1.1316  0.9553
 4111TIP3   OH233891   3.970   2.890   9.323 -0.0038 -0.3317 -0.4930
 4111TIP3    H133892   3.915   2.866   9.397 -0.3367  0.9867 -0.2802
 4111TIP3    H233893   3.924   2.964   9.282  2.3084  1.9240  0.6486
 4112TIP3   OH233894   5.577   5.154   6.971 -0.4752  0.0040  0.0002
 4112TIP3    H133895   5.498   5.123   6.927 -0.7252 -0.4828  0.7590
 4112TIP3    H233896   5.616   5.075   7.009  0.5568  0.1898 -0.6349
 4113TIP3   OH233897   5.545   4.092   2.635  0.2155  0.3214  0.3938
 4113TIP3    H133898   5.584   4.106   2.722  1.6839 -0.1848 -0.1440
 4113TIP3    H233899   5.503   4.175   2.614  0.9695  0.8923  1.0605
 4114TIP3   OH233900   5.065   5.083   0.975  0.0969  0.6703  0.5291
 4114TIP3    H133901   5.125   5.158   0.968  1.0060  0.0796  1.7261
 4114TIP3    H233902   5.113   5.019   1.027 -0.0844 -1.3542 -1.6415
 4115TIP3   OH233903   0.230   2.904   8.856  0.1372  0.6283 -0.7378
 4115TIP3    H133904   0.259   2.930   8.769 -0.8705  0.3939 -1.1573
 4115TIP3    H233905   0.261   2.974   8.913  0.7759  0.8027 -1.2782
 4116TIP3   OH233906   0.031   3.924   0.872 -0.0203  0.1496  0.2512
 4116TIP3    H133907  -0.030   3.950   0.941  0.0602  1.0655 -0.0098
 4116TIP3    H233908   0.114   3.912   0.916  0.1830  1.3615  0.2372
 4117TIP3   OH233909   0.930   0.778   9.238 -0.6783 -0.2417  0.2664
 4117TIP3    H133910   0.986   0.758   9.163  0.3066  1.8894  0.3653
 4117TIP3    H233911   0.974   0.735   9.312 -0.9894 -1.3064 -0.1362
 4118TIP3   OH233912   3.017   1.299   7.564  0.0591  0.1662  0.0037
 4118TIP3    H133913   3.019   1.321   7.471  1.6604  0.5728  0.1053
 4118TIP3    H233914   3.103   1.326   7.597 -1.3848  2.6217  2.2100
 4119TIP3   OH233915   4.299   5.851   2.654 -0.1745 -0.0820 -0.1266
 4119TIP3    H133916   4.341   5.937   2.642 -0.4946  0.1928  0.6631
 4119TIP3    H233917   4.283   5.845   2.748 -1.3192 -0.4636 -0.3309
 4120TIP3   OH233918   0.868   3.453   8.387  0.5418 -0.2229 -0.2776
 4120TIP3    H133919   0.799   3.439   8.452  1.0620  0.2219  0.3838
 4120TIP3    H233920   0.841   3.532   8.340  0.6694  0.0249  0.0690
 4121TIP3   OH233921   5.111   5.479   1.166  0.0293  0.1232 -0.6066
 4121TIP3    H133922   5.021   5.463   1.136 -0.1537 -0.4831  0.2199
 4121TIP3    H233923   5.101   5.534   1.244  0.3634  0.0319 -0.4958
 4122TIP3   OH233924   5.953   5.401   1.088  0.2977 -0.0318 -0.0932
 4122TIP3    H133925   5.906   5.435   1.164  0.0975  0.7432 -0.5527
 4122TIP3    H233926   5.892   5.412   1.015  1.5698  2.1247 -0.9423
 4123TIP3   OH233927   1.430   2.243   7.439 -0.1133  0.2247  0.6881
 4123TIP3    H133928   1.414   2.192   7.359  1.3278  1.2226 -0.2887
 4123TIP3    H233929   1.365   2.314   7.436  0.4052  0.6861 -0.0118
 4124TIP3   OH233930   6.318   6.014   9.280 -0.2305  0.2419 -0.1357
 4124TIP3    H133931   6.357   5.973   9.202  0.5929  2.1373 -0.7952
 4124TIP3    H233932   6.225   6.020   9.260 -0.2622 -0.7050 -0.2932
 4125TIP3   OH233933   5.227   3.785   7.741 -0.3291 -0.5911 -0.5136
 4125TIP3    H133934   5.161   3.829   7.688 -0.2491  0.5190  0.2495
 4125TIP3    H233935   5.181   3.711   7.781 -1.0868  0.0624 -0.1320
 4126TIP3   OH233936   4.323   5.299   8.584  0.1846 -0.4775 -0.6661
 4126TIP3    H133937   4.405   5.347   8.595 -0.4904  0.7464 -0.8125
 4126TIP3    H233938   4.341   5.235   8.515  0.7297  0.4625 -1.4001
 4127TIP3   OH233939   2.529   5.308   2.559 -0.4480  0.0216 -0.0006
 4127TIP3    H133940   2.569   5.221   2.554 -1.4945 -0.4314 -0.9739
 4127TIP3    H233941   2.485   5.319   2.475 -0.3186  1.5126  0.1033
 4128TIP3   OH233942   4.332   2.771   8.295  0.0026 -0.3311  0.7092
 4128TIP3    H133943   4.262   2.714   8.265 -0.7023  0.6054  0.5414
 4128TIP3    H233944   4.407   2.713   8.308 -0.5677 -1.2106  0.1056
 4129TIP3   OH233945   6.043   3.137   1.899  0.3404  0.1933 -0.0852
 4129TIP3    H133946   6.014   3.075   1.966  0.6468  1.5843  1.4076
 4129TIP3    H233947   5.970   3.199   1.890  0.4351  0.2078 -0.7989
 4130TIP3   OH233948   5.069   4.058   8.486  0.3804 -0.1106 -0.2978
 4130TIP3    H133949   5.008   4.123   8.451  1.2475  0.5576 -0.6141
 4130TIP3    H233950   5.083   3.998   8.413 -0.3812 -0.6409 -0.0208
 4131TIP3   OH233951   5.638   2.740   1.524  0.2816 -0.9201  0.2904
 4131TIP3    H133952   5.625   2.829   1.491  0.1936 -1.5535 -1.4959
 4131TIP3    H233953   5.549   2.708   1.539  0.2072 -1.3810 -1.0304
 4132TIP3   OH233954   0.579   5.407   1.118  0.1396  0.3333  0.2232
 4132TIP3    H133955   0.559   5.356   1.040 -1.0866  0.6335  0.3340
 4132TIP3    H233956   0.620   5.344   1.178  0.4888 -0.0421 -0.3967
 4133TIP3   OH233957   1.692   4.575   0.562  0.5074  0.1272 -0.7283
 4133TIP3    H133958   1.722   4.555   0.651 -0.8992  1.8963  0.2096
 4133TIP3    H233959   1.704   4.493   0.514 -0.9233 -1.6665  1.7066
 4134TIP3   OH233960   5.348   0.437   0.111  0.1380 -0.6134  0.3458
 4134TIP3    H133961   5.374   0.439   0.019 -0.5258 -0.5946  0.1514
 4134TIP3    H233962   5.261   0.477   0.112  0.3460 -0.1634  1.0564
 4135TIP3   OH233963   6.285   1.470   1.494  0.3885  0.6656  0.4300
 4135TIP3    H133964   6.352   1.538   1.496  0.5685  0.4780  1.2469
 4135TIP3    H233965   6.301   1.423   1.412 -0.7484  2.5711 -0.9748
 4136TIP3   OH233966   4.824   6.065   8.379 -0.1993  0.3618 -0.1339
 4136TIP3    H133967   4.729   6.067   8.369 -0.0770  0.4079 -1.5856
 4136TIP3    H233968   4.840   6.093   8.469 -1.6136 -1.1234  0.6226
 4137TIP3   OH233969   4.927   3.370   6.817  0.2225 -0.0130 -0.2448
 4137TIP3    H133970   4.979   3.389   6.895  0.9850 -1.7748 -0.2870
 4137TIP3    H233971   4.913   3.276   6.820 -0.0468 -0.0534 -2.0562
 4138TIP3   OH233972   5.651   5.789   7.368  0.2024 -0.0089  0.4745
 4138TIP3    H133973   5.567   5.771   7.326 -0.4620  2.3840  0.6160
 4138TIP3    H233974   5.711   5.806   7.296  0.0651  0.1580  0.3982
 4139TIP3   OH233975   3.144   3.315   1.317  0.1280 -0.3247 -0.3568
 4139TIP3    H133976   3.154   3.386   1.380 -1.1406 -0.4713  0.0510
 4139TIP3    H233977   3.117   3.239   1.370 -1.7615 -0.2467 -1.0978
 4140TIP3   OH233978   5.609   4.047   9.305 -0.2553  0.3706 -0.3084
 4140TIP3    H133979   5.562   4.102   9.242  1.6906  1.5399 -0.8206
 4140TIP3    H233980   5.567   3.961   9.297 -0.8724  0.7992 -2.3345
 4141TIP3   OH233981   0.014   0.028   0.400  0.2762 -0.4863 -0.0906
 4141TIP3    H133982   0.035   0.102   0.457 -2.4856  0.0974  0.3128
 4141TIP3    H233983   0.084   0.028   0.335  1.2226  1.4938  0.8292
 4142TIP3   OH233984   6.399   4.011   0.192 -0.6496 -0.0199 -0.2586
 4142TIP3    H133985   6.350   3.935   0.161 -1.4732  0.2546  0.3370
 4142TIP3    H233986   6.477   3.974   0.232 -1.9751 -0.7487  1.8301
 4143TIP3   OH233987   1.264   4.262   9.119  0.2691 -0.3148 -0.0769
 4143TIP3    H133988   1.229   4.351   9.125 -0.3304 -0.4711 -1.0537
 4143TIP3    H233989   1.332   4.259   9.186 -0.7029  0.4172  1.0007
 4144TIP3   OH233990   3.889   4.605   2.573  0.2217 -0.1932 -0.5977
 4144TIP3    H133991   3.818   4.618   2.511 -1.7147  0.2270  1.5463
 4144TIP3    H233992   3.926   4.692   2.586 -0.1077 -0.0891 -0.3503
 4145TIP3   OH233993   1.208   5.934   0.852  0.1600 -0.0286  0.2217
 4145TIP3    H133994   1.279   5.993   0.826 -0.3523 -0.5145 -2.6422
 4145TIP3    H233995   1.250   5.850   0.865  0.4249  0.2124  0.9624
 4146TIP3   OH233996   5.615   1.890   1.412  0.2439 -0.4215  0.3453
 4146TIP3    H133997   5.610   1.800   1.379  0.2081 -0.3941  0.2769
 4146TIP3    H233998   5.525   1.914   1.431  0.3840 -0.9532  1.8420
 4147TIP3   OH233999   0.322   0.570   7.125 -0.0306  0.2394 -0.0953
 4147TIP3    H134000   0.416   0.548   7.124  0.5475  2.3486  1.1265
 4147TIP3    H234001   0.305   0.604   7.037  0.1440 -0.8758 -0.5722
 4148TIP3   OH234002   5.308   5.637   8.503  0.3953  0.4576 -0.2385
 4148TIP3    H134003   5.231   5.580   8.498  1.0662 -0.6495  1.1884
 4148TIP3    H234004   5.317   5.673   8.415 -1.7869  0.6859 -0.4194
 4149TIP3   OH234005   2.169   6.299   0.616 -0.3787 -0.1031 -0.2327
 4149TIP3    H134006   2.260   6.293   0.587 -0.6359 -2.9625 -0.8102
 4149TIP3    H234007   2.132   6.373   0.568  0.3878 -1.9149 -4.0044
 4150TIP3   OH234008   1.093   2.495   8.154  0.0670 -0.1306  0.1588
 4150TIP3    H134009   1.147   2.416   8.159 -0.1937 -0.3545 -0.5260
 4150TIP3    H234010   1.086   2.514   8.061  0.6485  1.0752  0.3399
 4151TIP3   OH234011   2.991   0.360   7.353  0.2462  0.2884 -0.0007
 4151TIP3    H134012   2.938   0.307   7.293  1.2024  1.4444 -2.0000
 4151TIP3    H234013   2.930   0.390   7.420 -1.4010  0.6080 -1.5578
 4152TIP3   OH234014   0.091   3.761   1.338 -0.2288 -0.0767  0.4293
 4152TIP3    H134015   0.140   3.808   1.405 -0.3753 -0.0380  0.5097
 4152TIP3    H234016   0.013   3.730   1.382 -0.8341  0.8341  0.0430
 4153TIP3   OH234017   2.386   4.589   0.861 -0.4722 -0.3405  0.1240
 4153TIP3    H134018   2.319   4.524   0.878 -2.4815  1.5639 -0.0874
 4153TIP3    H234019   2.338   4.669   0.842  1.8530  1.7692  2.3028
 4154TIP3   OH234020   0.676   5.934   1.155  0.5788  0.3179  1.0604
 4154TIP3    H134021   0.664   5.915   1.248  2.8765  0.1409  1.3746
 4154TIP3    H234022   0.759   5.892   1.132  0.1638  0.5200 -1.0399
 4155TIP3   OH234023   2.355   4.710   7.774 -0.1180 -0.0992 -0.2601
 4155TIP3    H134024   2.377   4.619   7.758 -1.0515 -0.1448 -1.4174
 4155TIP3    H234025   2.439   4.756   7.775  0.2088 -0.4989 -2.9371
 4156TIP3   OH234026   2.639   6.527   1.814  0.2412  0.1041  0.1069
 4156TIP3    H134027   2.593   6.559   1.736 -0.2561 -1.1788 -0.1394
 4156TIP3    H234028   2.652   6.434   1.798  0.6941 -0.0495  1.2956
 4157TIP3   OH234029   6.216   1.444   1.055 -0.0849  0.2787  0.0695
 4157TIP3    H134030   6.155   1.474   0.988 -1.2343  1.7079  1.6548
 4157TIP3    H234031   6.301   1.480   1.029 -0.2837 -0.1311 -1.1797
 4158TIP3   OH234032   3.456   5.159   1.865 -0.3185  0.3754 -0.2578
 4158TIP3    H134033   3.457   5.085   1.805  2.3718 -1.5229  1.8959
 4158TIP3    H234034   3.363   5.183   1.872 -0.8959 -0.3239 -3.7752
 4159TIP3   OH234035   2.130   4.750   8.967  0.4417  0.2001 -1.2112
 4159TIP3    H134036   2.185   4.741   9.044 -1.7983 -0.1047  0.4581
 4159TIP3    H234037   2.153   4.835   8.930  1.2003  0.5879  0.1120
 4160TIP3   OH234038   1.750   1.246   1.080 -0.1291  0.3496 -0.2935
 4160TIP3    H134039   1.745   1.171   1.139  0.0019  0.7185  0.1827
 4160TIP3    H234040   1.688   1.309   1.116  0.8918  1.0932  0.1776
 4161TIP3   OH234041   0.426   4.917   0.180  0.2927 -0.3966  0.2643
 4161TIP3    H134042   0.488   4.973   0.227  0.8402 -0.9769  0.2378
 4161TIP3    H234043   0.365   4.979   0.139  1.6647  0.2642 -0.8599
 4162TIP3   OH234044   1.550   3.595   0.857  0.1966  0.4311  0.0510
 4162TIP3    H134045   1.572   3.573   0.948  0.8605  1.9578  0.2780
 4162TIP3    H234046   1.522   3.511   0.819 -1.1086 -0.0626  1.9284
 4163TIP3   OH234047   6.507   0.223   1.666 -0.2348 -0.2076 -0.2947
 4163TIP3    H134048   6.555   0.193   1.589 -0.6381  1.3483 -1.2067
 4163TIP3    H234049   6.450   0.293   1.633 -1.1434 -0.1590  1.2443
 4164TIP3   OH234050   5.724   5.839   7.935  0.2846  0.0324 -0.6149
 4164TIP3    H134051   5.811   5.862   7.967  0.1766 -1.7681  1.1847
 4164TIP3    H234052   5.739   5.776   7.865  0.4522  0.1573 -0.6909
 4165TIP3   OH234053   5.380   5.911   7.318 -0.1682  0.4057  0.0962
 4165TIP3    H134054   5.341   5.962   7.248 -1.8653 -0.6229  0.2315
 4165TIP3    H234055   5.337   5.825   7.312  0.9298 -0.2653  1.2901
 4166TIP3   OH234056   5.772   3.864   1.370  0.1315 -0.2030 -0.4044
 4166TIP3    H134057   5.751   3.946   1.325  0.0080 -0.2554 -0.4443
 4166TIP3    H234058   5.690   3.814   1.367 -0.2415  0.2758  0.9324
 4167TIP3   OH234059   2.103   3.751   8.899  0.1750  0.0381  0.7496
 4167TIP3    H134060   2.037   3.733   8.832 -1.1738  0.5961  1.8876
 4167TIP3    H234061   2.154   3.823   8.863  0.1132 -0.3251 -0.1020
 4168TIP3   OH234062   3.418   0.452   8.980  0.3791 -0.3931 -0.2111
 4168TIP3    H134063   3.369   0.374   9.005  1.5976 -0.8075  0.9978
 4168TIP3    H234064   3.352   0.514   8.949 -0.5359 -2.1531 -1.9119
 4169TIP3   OH234065   0.918   4.531   2.496  0.0180  0.2112 -0.2056
 4169TIP3    H134066   0.903   4.498   2.585 -0.6278 -1.3774 -0.8877
 4169TIP3    H234067   0.998   4.487   2.467  0.2678  0.7832 -0.3995
 4170TIP3   OH234068   2.112   3.562   7.714 -0.0408  0.2377 -0.3285
 4170TIP3    H134069   2.054   3.638   7.717 -1.2973 -0.5814 -2.0602
 4170TIP3    H234070   2.126   3.546   7.621  1.2603 -0.8878  0.0288
 4171TIP3   OH234071   5.720   1.651   1.621  0.5993  0.0248 -0.0021
 4171TIP3    H134072   5.692   1.741   1.639  0.7155 -0.0766  0.7245
 4171TIP3    H234073   5.722   1.645   1.526 -0.1700  0.5578 -0.0637
 4172TIP3   OH234074   3.522   6.238   8.446 -0.1307 -0.9994  0.6330
 4172TIP3    H134075   3.615   6.249   8.426 -0.6933  2.1197 -0.9511
 4172TIP3    H234076   3.511   6.277   8.532  0.0075 -1.3139  0.7942
 4173TIP3   OH234077   4.083   0.712   8.089  0.1070  0.8255 -0.3216
 4173TIP3    H134078   3.988   0.703   8.082  0.0199  1.7946 -0.4882
 4173TIP3    H234079   4.107   0.658   8.165 -0.4962  0.1323 -0.6136
 4174TIP3   OH234080   1.325   0.906   8.665 -0.0357  0.2609 -0.6482
 4174TIP3    H134081   1.322   0.997   8.695  0.3377  0.9344 -2.5128
 4174TIP3    H234082   1.235   0.885   8.643 -0.4751 -0.5505  1.6652
 4175TIP3   OH234083   6.225   4.142   1.409 -0.1569  0.3304 -0.2735
 4175TIP3    H134084   6.273   4.123   1.328 -0.3801  1.4917 -0.7019
 4175TIP3    H234085   6.278   4.103   1.478  1.0843  1.0409 -0.7910
 4176TIP3   OH234086   3.229   3.962   8.043  0.3275  0.3491  0.0192
 4176TIP3    H134087   3.141   3.995   8.062 -0.3749 -1.9326  1.1394
 4176TIP3    H234088   3.265   4.024   7.980 -1.8653  1.6457 -0.0683
 4177TIP3   OH234089   2.597   1.861   7.871 -0.0237  0.3556 -0.4437
 4177TIP3    H134090   2.602   1.942   7.923  0.1104 -0.1149  0.2990
 4177TIP3    H234091   2.580   1.890   7.782 -0.3606  1.1905 -0.1173
 4178TIP3   OH234092   0.817   0.776   7.798  0.4775 -0.2553 -0.4311
 4178TIP3    H134093   0.881   0.847   7.804  1.0086 -0.7587 -0.0102
 4178TIP3    H234094   0.823   0.747   7.707 -0.5197  0.9284 -0.9068
 4179TIP3   OH234095   4.460   3.938   1.292 -0.2562 -0.3354 -0.1988
 4179TIP3    H134096   4.520   4.008   1.267 -2.7346  1.3147 -1.9291
 4179TIP3    H234097   4.462   3.877   1.219 -0.8334 -0.1741 -0.3480
 4180TIP3   OH234098   4.487   2.708   1.008 -0.1050 -0.3373 -1.0931
 4180TIP3    H134099   4.501   2.771   0.938 -1.6772  0.4604 -0.7354
 4180TIP3    H234100   4.404   2.735   1.048  1.8187  0.7705  2.6312
 4181TIP3   OH234101   5.471   5.872   8.045 -0.1268  0.3863  0.0524
 4181TIP3    H134102   5.415   5.852   7.970 -1.3183 -0.9079  1.2256
 4181TIP3    H234103   5.560   5.869   8.010 -0.5960 -1.1044 -1.1384
 4182TIP3   OH234104   0.323   3.684   8.071  0.4410  0.4575  0.0683
 4182TIP3    H134105   0.364   3.676   8.157  0.9489 -1.5085 -0.3014
 4182TIP3    H234106   0.395   3.674   8.009 -0.2853 -1.2059 -0.5749
 4183TIP3   OH234107   6.427   2.279   1.745  0.1642  0.1473  0.5682
 4183TIP3    H134108   6.513   2.266   1.705  0.4461  0.5025  1.0455
 4183TIP3    H234109   6.382   2.195   1.732  0.9589 -0.4093  1.2148
 4184TIP3   OH234110   3.585   6.468   0.596 -0.0452 -0.0162 -0.1071
 4184TIP3    H134111   3.545   6.547   0.559 -0.6777  0.2609  1.1353
 4184TIP3    H234112   3.536   6.396   0.558  0.0627  0.2056 -0.6862
 4185TIP3   OH234113   3.913   0.517   8.575 -0.5758 -0.3606 -0.2914
 4185TIP3    H134114   3.836   0.486   8.526 -1.1831  0.8305 -0.1233
 4185TIP3    H234115   3.878   0.584   8.634  0.7285  0.8501 -0.8535
 4186TIP3   OH234116   1.504   4.767   8.578  0.2228  0.1249  0.1691
 4186TIP3    H134117   1.545   4.852   8.561  0.6676 -0.4321 -1.8323
 4186TIP3    H234118   1.514   4.719   8.496 -1.3097 -1.3464  0.7855
 4187TIP3   OH234119   0.249   3.889   8.676  0.0017 -0.2579  0.5840
 4187TIP3    H134120   0.248   3.837   8.596  0.5989 -1.0053  1.0563
 4187TIP3    H234121   0.228   3.978   8.647 -1.4582 -0.8073 -0.1837
 4188TIP3   OH234122   5.697   1.045   7.339  0.0246 -0.0444  0.2346
 4188TIP3    H134123   5.773   1.087   7.298 -0.5210  0.0903 -0.6690
 4188TIP3    H234124   5.722   0.952   7.346  0.4751  0.0896  0.4310
 4189TIP3   OH234125   4.813   1.110   7.044  0.1933  0.5619  0.2328
 4189TIP3    H134126   4.798   1.177   6.977  0.2424 -0.0889 -0.4390
 4189TIP3    H234127   4.907   1.094   7.041  0.0761 -0.0947 -0.1611
 4190TIP3   OH234128   3.676   3.131   2.056  0.1140 -0.1029 -0.0019
 4190TIP3    H134129   3.737   3.071   2.099 -0.3940 -1.9272 -1.6987
 4190TIP3    H234130   3.590   3.095   2.074 -0.4371  1.7379  1.2860
 4191TIP3   OH234131   0.112   0.437   1.558 -0.0680 -0.1832  0.7646
 4191TIP3    H134132   0.086   0.424   1.467 -3.0178 -0.0782  1.4847
 4191TIP3    H234133   0.126   0.348   1.592  1.1857 -0.2148  0.2122
 4192TIP3   OH234134   4.995   5.246   8.194 -0.0712 -0.1462  0.2484
 4192TIP3    H134135   4.938   5.203   8.130  0.8792 -0.9488 -0.0873
 4192TIP3    H234136   4.935   5.278   8.261 -0.8637 -1.7712  0.3707
 4193TIP3   OH234137   4.202   5.912   1.718  0.0795 -0.0346  0.0200
 4193TIP3    H134138   4.173   5.822   1.728  1.5592 -0.5863 -0.4421
 4193TIP3    H234139   4.168   5.939   1.632 -0.5231 -0.0828  0.2425
 4194TIP3   OH234140   3.259   3.606   8.956 -0.2708  0.5074 -0.2402
 4194TIP3    H134141   3.260   3.536   8.890  1.4234  0.3867 -0.1204
 4194TIP3    H234142   3.268   3.560   9.040  3.2114  0.8904 -0.2753
 4195TIP3   OH234143   2.801   2.193   7.149 -0.5204 -0.6683 -0.0005
 4195TIP3    H134144   2.716   2.164   7.182 -0.5687 -0.6139 -0.0767
 4195TIP3    H234145   2.781   2.236   7.066 -0.4277 -0.5860  0.0191
 4196TIP3   OH234146   0.422   5.185   0.191  0.0338  0.4136  0.5607
 4196TIP3    H134147   0.352   5.240   0.226 -0.8504  0.4118 -1.0919
 4196TIP3    H234148   0.404   5.181   0.097  2.4751  0.6817  0.0277
 4197TIP3   OH234149   4.098   2.238   8.103  0.6863 -0.4312  0.1121
 4197TIP3    H134150   4.051   2.314   8.070 -0.4393  0.4952  3.4687
 4197TIP3    H234151   4.190   2.258   8.089  0.3576  0.9537 -0.2023
 4198TIP3   OH234152   5.952   6.190   9.030  0.2411 -1.0507 -0.5570
 4198TIP3    H134153   5.951   6.204   8.935  1.5823  0.2749 -0.4087
 4198TIP3    H234154   5.903   6.264   9.066  2.9673  0.6331 -0.0514
 4199TIP3   OH234155   1.025   3.750   8.104 -0.1600  0.3003  0.1491
 4199TIP3    H134156   1.096   3.780   8.161  1.0227  2.5521 -2.3004
 4199TIP3    H234157   1.062   3.676   8.057 -0.6489 -0.6456  1.2002
 4200TIP3   OH234158   6.482   6.391   0.051 -0.6082 -0.3060  0.3702
 4200TIP3    H134159   6.556   6.367   0.106 -2.0162 -1.2391  1.9509
 4200TIP3    H234160   6.519   6.401  -0.037  1.6910  1.0808  1.4122
 4201TIP3   OH234161   2.346   4.001   1.894 -0.6666  0.0658  0.3954
 4201TIP3    H134162   2.379   3.938   1.959 -0.2232 -0.1836 -0.0628
 4201TIP3    H234163   2.351   4.086   1.938 -1.2019 -0.2062  0.9974
 4202TIP3   OH234164   6.335   5.833   1.840  0.4611  0.0784 -0.0914
 4202TIP3    H134165   6.281   5.904   1.873 -0.3410 -0.1755 -0.8083
 4202TIP3    H234166   6.312   5.757   1.894  0.9999  0.2573  0.3931
 4203TIP3   OH234167   1.357   3.778   0.305 -0.2010 -0.1099  0.0227
 4203TIP3    H134168   1.384   3.869   0.292  1.7518 -0.7131 -0.4301
 4203TIP3    H234169   1.330   3.748   0.218 -0.8834  0.0294  0.1795
 4204TIP3   OH234170   0.864   6.513   9.244  0.1462 -0.3685  0.4951
 4204TIP3    H134171   0.817   6.431   9.261  0.7766 -1.2774 -1.7667
 4204TIP3    H234172   0.796   6.580   9.244 -0.7071 -1.2087  0.2866
 4205TIP3   OH234173   3.077   5.139   7.994 -0.5036  0.3249  0.7448
 4205TIP3    H134174   3.008   5.177   8.048 -1.3291 -2.0514  1.4855
 4205TIP3    H234175   3.117   5.072   8.049 -0.2243 -0.9992 -0.9654
 4206TIP3   OH234176   5.358   1.817   8.561  0.0940  0.0058  0.2369
 4206TIP3    H134177   5.375   1.829   8.468  0.6578 -2.6640 -0.0930
 4206TIP3    H234178   5.263   1.817   8.569  0.0088 -0.9498 -0.5809
 4207TIP3   OH234179   3.379   4.264   1.751  0.0918 -0.1607 -0.2025
 4207TIP3    H134180   3.314   4.303   1.693 -0.0719  0.1394  0.1827
 4207TIP3    H234181   3.454   4.323   1.746 -0.1050  0.1359  0.2723
 4208TIP3   OH234182   3.943   4.273   1.442 -0.2813  0.0513  0.0746
 4208TIP3    H134183   3.935   4.361   1.405  1.7344  0.0331 -0.5141
 4208TIP3    H234184   4.031   4.245   1.418 -0.3954 -1.5995  1.4157
 4209TIP3   OH234185   5.025   4.087   0.091  0.0473 -0.1812 -0.3759
 4209TIP3    H134186   4.934   4.060   0.105  0.1118 -0.8987 -1.2391
 4209TIP3    H234187   5.077   4.008   0.110  0.5431  0.3572  0.5978
 4210TIP3   OH234188   3.908   0.322   0.332 -0.2935  0.2711 -0.0128
 4210TIP3    H134189   3.868   0.259   0.393 -2.4956 -0.2602 -1.8556
 4210TIP3    H234190   3.848   0.396   0.332  0.6120  1.0209 -0.2643
 4211TIP3   OH234191   3.063   6.399   7.634  0.4331  0.1658 -0.2458
 4211TIP3    H134192   3.048   6.493   7.649 -0.6082 -0.0899  0.4546
 4211TIP3    H234193   3.078   6.392   7.539  4.4254  1.4895  0.1021
 4212TIP3   OH234194   2.376   2.594   0.616 -0.4857  0.1665 -0.3293
 4212TIP3    H134195   2.437   2.648   0.565  0.7183  1.2003  2.0536
 4212TIP3    H234196   2.319   2.657   0.660 -0.5097 -0.6030  0.7755
 4213TIP3   OH234197   5.694   6.220   8.775  0.3302 -0.0499  0.4270
 4213TIP3    H134198   5.662   6.294   8.723  2.1426  1.9248  1.9337
 4213TIP3    H234199   5.783   6.205   8.742  0.8676  0.0983  1.7466
 4214TIP3   OH234200   4.168   0.977   1.277 -0.7565  1.0501  0.2640
 4214TIP3    H134201   4.178   0.882   1.286  0.9155  1.0771 -0.9353
 4214TIP3    H234202   4.141   1.006   1.365 -2.3255 -0.6168  0.3933
 4215TIP3   OH234203   5.010   6.107   7.696 -1.0620 -0.1599 -0.6223
 4215TIP3    H134204   5.031   6.020   7.663 -2.4815 -0.7362 -0.0879
 4215TIP3    H234205   5.025   6.165   7.621 -0.6315 -0.9348 -1.1528
 4216TIP3   OH234206   1.851   6.598   2.346 -0.2211  0.0632 -0.3407
 4216TIP3    H134207   1.780   6.633   2.399  0.5237  2.0805 -0.6098
 4216TIP3    H234208   1.808   6.548   2.277 -1.2798 -0.3459  0.5823
 4217TIP3   OH234209   3.276   0.235   7.217  0.4043 -0.5035  0.7382
 4217TIP3    H134210   3.265   0.163   7.279 -0.7572 -0.3258  0.7567
 4217TIP3    H234211   3.215   0.217   7.146 -0.7732  1.0429  1.3021
 4218TIP3   OH234212   4.832   5.426   9.308  0.4194 -0.1153  0.8630
 4218TIP3    H134213   4.889   5.363   9.352  0.1149 -0.7589  0.3694
 4218TIP3    H234214   4.773   5.457   9.376  1.3437  0.5455  1.3756
 4219TIP3   OH234215   2.893   4.319   2.232 -0.1525 -0.1431  0.6959
 4219TIP3    H134216   2.948   4.266   2.289  1.3025  1.0153  0.4057
 4219TIP3    H234217   2.836   4.255   2.188 -0.0624 -1.2135  2.0626
 4220TIP3   OH234218   3.703   2.180   8.924  0.2848  0.3681  0.2600
 4220TIP3    H134219   3.765   2.232   8.872 -1.1653 -1.2517 -3.4138
 4220TIP3    H234220   3.739   2.091   8.921 -0.9695 -0.1471  0.1035
 4221TIP3   OH234221   1.817   3.280   8.812  0.3816  0.2201  0.4482
 4221TIP3    H134222   1.847   3.281   8.721  0.0256  2.1063  0.3200
 4221TIP3    H234223   1.843   3.194   8.844  1.8771  0.0807 -0.9921
 4222TIP3   OH234224   4.350   6.129   8.152 -0.3994  0.3576  0.3420
 4222TIP3    H134225   4.399   6.201   8.113  0.3675 -0.9558 -1.2574
 4222TIP3    H234226   4.411   6.055   8.150 -1.7273 -0.7868  0.2912
 4223TIP3   OH234227   1.121   5.467   8.123  0.2433 -0.4110 -0.3902
 4223TIP3    H134228   1.142   5.432   8.209 -0.2922  1.0012  0.3499
 4223TIP3    H234229   1.204   5.466   8.075  0.4889 -1.4578  0.0271
 4224TIP3   OH234230   1.352   6.489   9.099 -0.2049 -0.1047 -0.3806
 4224TIP3    H134231   1.276   6.491   9.158  0.1427 -1.0386  0.1416
 4224TIP3    H234232   1.427   6.505   9.157  0.2668 -2.3159 -0.2766
 4225TIP3   OH234233   2.473   0.493   9.271  0.2813  0.0597 -0.3427
 4225TIP3    H134234   2.459   0.519   9.180  2.2945  0.7835 -0.4919
 4225TIP3    H234235   2.525   0.413   9.265 -0.2600 -0.3376  0.1860
 4226TIP3   OH234236   1.244   1.845   1.353  0.3681 -0.2306 -0.2400
 4226TIP3    H134237   1.326   1.892   1.340 -0.4968  1.0265 -1.4119
 4226TIP3    H234238   1.180   1.912   1.377 -0.8970 -0.7481 -1.9338
 4227TIP3   OH234239   6.457   0.915   7.834 -0.1148  0.1582 -0.2792
 4227TIP3    H134240   6.462   0.868   7.917 -0.8726  0.2898 -0.1512
 4227TIP3    H234241   6.524   0.984   7.841  0.6842 -0.6062 -0.2857
 4228TIP3   OH234242   3.558   0.911   0.646  0.1258  0.2031  0.0413
 4228TIP3    H134243   3.615   0.904   0.723 -0.8665 -0.0829  0.7699
 4228TIP3    H234244   3.614   0.948   0.578  0.6180  2.0036  1.3452
 4229TIP3   OH234245   4.942   5.880   0.854 -0.8056  0.0399  0.2833
 4229TIP3    H134246   4.976   5.806   0.805 -1.0608  0.1598 -0.0739
 4229TIP3    H234247   5.003   5.890   0.928 -0.6040 -0.3343  0.1675
 4230TIP3   OH234248   5.682   2.472   1.763 -0.1964  0.3350 -0.0091
 4230TIP3    H134249   5.590   2.495   1.777 -0.5279 -1.4529  1.1088
 4230TIP3    H234250   5.731   2.546   1.797 -1.2125  1.0138  0.0111
 4231TIP3   OH234251   4.773   5.167   1.215 -0.1411 -1.1862  0.3334
 4231TIP3    H134252   4.811   5.255   1.205 -2.1228 -0.2610  0.4120
 4231TIP3    H234253   4.761   5.135   1.126 -3.1782  0.4216  0.0232
 4232TIP3   OH234254   1.581   1.488   6.875 -0.0401 -0.4033  0.0399
 4232TIP3    H134255   1.597   1.580   6.854  1.6653 -0.6911 -0.0198
 4232TIP3    H234256   1.611   1.478   6.965 -0.0968 -0.9325 -0.0000
 4233TIP3   OH234257   5.480   5.243   9.237  0.1487  0.0369 -0.0128
 4233TIP3    H134258   5.411   5.186   9.202  0.8165 -1.6369  1.2532
 4233TIP3    H234259   5.443   5.331   9.232 -1.0608 -0.5151 -1.7413
 4234TIP3   OH234260   2.870   6.064   7.773 -0.8650 -0.0030  0.2426
 4234TIP3    H134261   2.837   5.984   7.732 -0.9549  0.1987 -0.0862
 4234TIP3    H234262   2.826   6.068   7.858  1.2221 -1.7741  1.5254
 4235TIP3   OH234263   4.926   0.977   8.709 -0.2367  0.3542 -0.0686
 4235TIP3    H134264   4.971   0.946   8.631 -0.6511  0.3388 -0.3031
 4235TIP3    H234265   4.984   0.953   8.781 -0.9528 -1.8972 -0.1445
 4236TIP3   OH234266   5.235   0.089   0.679  0.5919  0.1244 -0.3188
 4236TIP3    H134267   5.292   0.024   0.638 -0.7281 -0.7420 -0.8361
 4236TIP3    H234268   5.279   0.112   0.761  1.1501 -1.3117 -0.1977
 4237TIP3   OH234269   3.014   1.710   0.316  0.5671  0.4447  0.4874
 4237TIP3    H134270   3.045   1.712   0.406  1.6660 -0.0104  0.1380
 4237TIP3    H234271   2.960   1.632   0.310  0.7006  0.3379  0.6865
 4238TIP3   OH234272   1.876   1.145   8.997  0.3621 -0.1633 -0.2093
 4238TIP3    H134273   1.913   1.137   8.909  0.9023  2.3015 -0.2726
 4238TIP3    H234274   1.904   1.066   9.043  2.0197 -0.4034 -1.5598
 4239TIP3   OH234275   3.190   1.393   1.390  0.1168  1.1366 -0.0108
 4239TIP3    H134276   3.158   1.447   1.463 -1.9066 -0.3479  0.2899
 4239TIP3    H234277   3.201   1.306   1.428 -0.1779  0.5209 -1.3060
 4240TIP3   OH234278   3.363   5.995   8.626 -0.4104 -0.1935 -0.3648
 4240TIP3    H134279   3.415   6.011   8.705  1.0317  1.0261 -1.5115
 4240TIP3    H234280   3.273   5.990   8.658 -0.1256  2.3938  1.1624
 4241TIP3   OH234281   3.428   0.978   7.043 -0.3769  0.3367 -0.2957
 4241TIP3    H134282   3.355   0.958   6.984 -0.7002  1.0614 -0.1526
 4241TIP3    H234283   3.489   0.906   7.030 -2.4726 -2.0614  1.8675
 4242TIP3   OH234284   5.703   3.706   0.174  0.4937  0.1042  0.1710
 4242TIP3    H134285   5.792   3.672   0.185  1.2225  1.7556 -0.3641
 4242TIP3    H234286   5.672   3.665   0.093  0.2117 -1.5295  1.0560
 4243TIP3   OH234287   2.439   4.898   2.426  0.0428 -0.6533 -0.2947
 4243TIP3    H134288   2.436   4.970   2.489 -0.0197 -1.4340  0.6143
 4243TIP3    H234289   2.533   4.879   2.417  0.1188  0.0824 -1.1819
 4244TIP3   OH234290   5.628   3.915   6.549 -0.4324 -0.2887  0.2393
 4244TIP3    H134291   5.625   3.902   6.644 -0.4277  0.7450  0.3911
 4244TIP3    H234292   5.683   3.992   6.537  1.5735 -1.7893 -0.7645
 4245TIP3   OH234293   1.589   4.990   8.726  0.0895 -0.9245 -0.1267
 4245TIP3    H134294   1.523   4.945   8.778 -0.3610 -1.0005 -0.7527
 4245TIP3    H234295   1.559   5.081   8.723 -0.0740 -0.9894 -0.5374
 4246TIP3   OH234296   2.330   4.134   2.274 -0.6612  0.6365 -0.1434
 4246TIP3    H134297   2.330   4.188   2.353 -0.6750 -1.6224  1.4936
 4246TIP3    H234298   2.256   4.074   2.285  0.8570 -1.4525 -0.5667
 4247TIP3   OH234299   0.687   4.418   6.976  0.1378  0.0644 -0.0338
 4247TIP3    H134300   0.773   4.377   6.987  0.2830  0.2324 -0.5103
 4247TIP3    H234301   0.637   4.356   6.923 -0.3594 -0.4708  1.0437
 4248TIP3   OH234302   3.430   3.682   1.282 -0.5063 -0.3228 -0.0479
 4248TIP3    H134303   3.447   3.596   1.243 -0.0782  0.2569 -1.1999
 4248TIP3    H234304   3.467   3.676   1.370 -0.9232 -1.4715  0.0645
 4249TIP3   OH234305   3.003   5.681   8.102  0.0710 -0.1816  0.4908
 4249TIP3    H134306   3.057   5.636   8.037 -0.6850 -1.8566  0.9696
 4249TIP3    H234307   3.061   5.747   8.140  0.8498  0.0901 -1.0908
 4250TIP3   OH234308   5.904   0.286   7.549  0.0306 -0.4534  0.2032
 4250TIP3    H134309   5.898   0.289   7.644  0.6320  1.1471  0.2240
 4250TIP3    H234310   5.960   0.211   7.531  0.5206 -0.3299  1.1488
 4251TIP3   OH234311   6.359   3.616   1.784  0.4094 -0.0989  0.0514
 4251TIP3    H134312   6.398   3.555   1.721 -1.7451  0.5366 -2.0589
 4251TIP3    H234313   6.268   3.589   1.790 -0.0976  1.6227  0.7258
 4252TIP3   OH234314   6.183   1.011   8.662  0.0371  0.3316 -0.7216
 4252TIP3    H134315   6.130   0.966   8.728 -0.6754  2.5394  0.2995
 4252TIP3    H234316   6.249   1.058   8.712  0.9460  0.2160 -1.7736
 4253TIP3   OH234317   4.798   5.075   8.953 -0.0174  0.2835 -0.1297
 4253TIP3    H134318   4.875   5.132   8.945  1.5787 -1.9084 -1.6847
 4253TIP3    H234319   4.746   5.095   8.875  1.4911 -1.5284 -1.7261
 4254TIP3   OH234320   2.418   4.994   7.468 -0.4252 -0.4704 -0.1108
 4254TIP3    H134321   2.489   5.051   7.437 -0.0961 -1.1357 -0.6257
 4254TIP3    H234322   2.404   5.019   7.559  0.4477 -0.3023 -0.0166
 4255TIP3   OH234323   5.571   5.643   7.639 -0.0430  0.1505 -0.0227
 4255TIP3    H134324   5.604   5.676   7.556  0.0539 -0.3441 -0.1826
 4255TIP3    H234325   5.575   5.547   7.631  0.0352  0.0971  0.5744
 4256TIP3   OH234326   5.752   2.009   6.690  0.1203  0.0418  0.3683
 4256TIP3    H134327   5.759   2.092   6.643  1.5770 -0.0813  0.3198
 4256TIP3    H234328   5.660   2.003   6.715 -0.3938  0.8080 -1.1990
 4257TIP3   OH234329   0.044   6.266   8.933 -0.2178  0.0893  0.2169
 4257TIP3    H134330   0.025   6.247   8.841 -2.6676  0.9718  0.4679
 4257TIP3    H234331  -0.040   6.252   8.978  0.6584  0.7135  2.1512
 4258TIP3   OH234332   2.642   0.916   7.661 -0.0625 -0.1556 -0.2297
 4258TIP3    H134333   2.642   0.850   7.592 -0.4868  0.6942 -1.0788
 4258TIP3    H234334   2.728   0.958   7.654  0.1662 -0.5368  0.2376
 4259TIP3   OH234335   2.805   5.204   0.880  0.0917  0.2364  0.3504
 4259TIP3    H134336   2.864   5.182   0.952  1.1880 -1.6076 -1.0003
 4259TIP3    H234337   2.863   5.215   0.804 -1.1045  1.1050 -0.4700
 4260TIP3   OH234338   3.738   0.901   7.166 -0.2782  0.0364  0.2258
 4260TIP3    H134339   3.675   0.850   7.116  0.2338  1.0599 -1.5656
 4260TIP3    H234340   3.786   0.836   7.218 -0.5738 -1.1373 -0.9234
 4261TIP3   OH234341   0.408   6.183   8.586  0.0979  0.0345  0.2325
 4261TIP3    H134342   0.320   6.182   8.547 -0.6287 -0.3295  1.8202
 4261TIP3    H234343   0.442   6.096   8.569 -1.0060 -0.8140  2.0410
 4262TIP3   OH234344   2.583   6.128   8.730 -0.0374 -0.7306  0.3195
 4262TIP3    H134345   2.531   6.202   8.762  0.8803  0.6390 -1.2088
 4262TIP3    H234346   2.673   6.149   8.757  0.5087 -0.3465 -1.6832
 4263TIP3   OH234347   1.805   6.267   8.016 -0.5459 -0.2814 -0.3371
 4263TIP3    H134348   1.872   6.247   7.952 -0.5391 -0.8886 -0.1428
 4263TIP3    H234349   1.845   6.248   8.101 -0.3260  1.1432 -0.0927
 4264TIP3   OH234350   1.128   5.773   7.982  0.3071 -0.3991  0.1817
 4264TIP3    H134351   1.118   5.768   7.887 -0.3951  1.1959  0.1482
 4264TIP3    H234352   1.221   5.788   7.995  0.5471 -1.4625 -0.1978
 4265TIP3   OH234353   2.371   1.753   8.960 -0.2332 -0.0861  0.3017
 4265TIP3    H134354   2.341   1.763   9.050 -0.8047 -2.1986  0.4173
 4265TIP3    H234355   2.294   1.723   8.912  0.0719  0.9690 -0.9011
 4266TIP3   OH234356   5.720   0.531   1.971  1.0285  0.5849  0.2557
 4266TIP3    H134357   5.645   0.585   1.997  0.2491 -0.0730 -0.5759
 4266TIP3    H234358   5.735   0.474   2.046  0.2530  0.2590  0.1750
 4267TIP3   OH234359   3.139   6.155   2.003 -0.0382 -0.2387 -0.2644
 4267TIP3    H134360   3.180   6.199   1.928  0.1992 -0.1116 -0.0609
 4267TIP3    H234361   3.058   6.117   1.967  0.6587 -1.2160 -0.8752
 4268TIP3   OH234362   3.304   5.164   9.051  0.2043  0.0500 -0.0694
 4268TIP3    H134363   3.278   5.157   9.143  1.0998 -0.6687  0.1569
 4268TIP3    H234364   3.228   5.135   9.002  0.7072 -2.7366  0.5855
 4269TIP3   OH234365   6.141   4.281   8.743 -0.0742  0.0000 -0.2540
 4269TIP3    H134366   6.236   4.275   8.741  0.0205 -0.2698  2.1546
 4269TIP3    H234367   6.119   4.289   8.836 -2.4704 -1.4359 -0.5916
 4270TIP3   OH234368   6.026   6.324   1.947  0.1533  0.0790 -0.1883
 4270TIP3    H134369   6.120   6.341   1.946  0.3323 -0.8488 -1.2302
 4270TIP3    H234370   5.987   6.409   1.969  1.2796  0.0773  2.1845
 4271TIP3   OH234371   4.117   2.332   8.617  0.3255 -0.5004 -0.4393
 4271TIP3    H134372   4.147   2.252   8.661  0.4282 -0.7204 -0.9058
 4271TIP3    H234373   4.157   2.329   8.530 -1.1887 -0.9175 -1.1621
 4272TIP3   OH234374   5.824   2.094   9.101  0.2892  0.3686 -0.4548
 4272TIP3    H134375   5.820   2.138   9.016  0.5826 -0.2015 -0.7762
 4272TIP3    H234376   5.755   2.134   9.152 -1.2288 -0.6331 -1.6256
 4273TIP3   OH234377   0.116   0.220   7.597  0.0959 -0.5127 -0.2091
 4273TIP3    H134378   0.168   0.142   7.581  3.6538  1.3054  1.5046
 4273TIP3    H234379   0.126   0.273   7.518  1.4633  0.0970  0.3489
 4274TIP3   OH234380   4.174   6.392   2.557 -0.0202  0.2242  0.3518
 4274TIP3    H134381   4.235   6.419   2.488  1.9434 -0.3730  1.7758
 4274TIP3    H234382   4.175   6.297   2.553  0.1673  0.1843  1.2486
 4275TIP3   OH234383   5.053   3.978   1.611  0.1044 -0.6851 -0.2057
 4275TIP3    H134384   5.114   4.007   1.679 -1.4507  0.7908  0.6362
 4275TIP3    H234385   5.103   3.914   1.560  1.8614 -0.6195  1.3115
 4276TIP3   OH234386   5.379   4.213   8.019  0.1118 -0.5752  0.3942
 4276TIP3    H134387   5.301   4.229   8.073  1.7162  0.8345  2.4393
 4276TIP3    H234388   5.432   4.153   8.071  0.3636 -1.6647 -1.0612
 4277TIP3   OH234389   6.574   6.222   1.267  0.4323 -0.2812  0.0374
 4277TIP3    H134390   6.525   6.302   1.251 -0.1382 -0.4736  0.7878
 4277TIP3    H234391   6.510   6.159   1.300  1.2942 -0.2799  1.8727
 4278TIP3   OH234392   1.907   4.964   0.191  0.7829  0.5591  0.0402
 4278TIP3    H134393   1.880   5.055   0.188 -1.3078 -0.0299 -0.9075
 4278TIP3    H234394   1.874   4.932   0.275 -1.0915 -0.0001 -0.8504
 4279TIP3   OH234395   0.575   5.968   8.675 -0.2126  0.4402  0.1475
 4279TIP3    H134396   0.620   5.951   8.758 -1.3101  0.0248  0.6841
 4279TIP3    H234397   0.582   5.885   8.627 -0.9007  0.1838  0.4809
 4280TIP3   OH234398   4.162   5.561   7.177 -0.3887 -0.2130 -0.6270
 4280TIP3    H134399   4.177   5.469   7.199 -2.3300 -0.0726  1.7285
 4280TIP3    H234400   4.083   5.560   7.122 -1.7141  0.1047  1.1783
 4281TIP3   OH234401   0.225   6.498   8.203 -0.2389  0.0393  0.0943
 4281TIP3    H134402   0.228   6.572   8.264  1.5533 -0.9296  1.2840
 4281TIP3    H234403   0.212   6.537   8.117  0.6287  1.7307  0.6981
 4282TIP3   OH234404   6.309   2.253   7.389  0.5285  0.0524  0.0495
 4282TIP3    H134405   6.242   2.291   7.331  0.8549 -1.9766 -1.7975
 4282TIP3    H234406   6.273   2.167   7.413  1.2684  0.0839  1.3121
 4283TIP3   OH234407   1.574   1.495   7.815 -0.3262 -0.0304 -0.1483
 4283TIP3    H134408   1.495   1.542   7.842  0.2446 -0.2970  2.2014
 4283TIP3    H234409   1.600   1.537   7.733 -1.4502  1.8362  0.3949
 4284TIP3   OH234410   5.767   4.060   1.174  0.3158 -0.1142  0.6356
 4284TIP3    H134411   5.852   4.045   1.132 -0.3672  0.2825 -0.9966
 4284TIP3    H234412   5.766   4.154   1.192 -0.5568  0.3080 -1.3147
 4285TIP3   OH234413   2.610   6.488   1.015  0.6032 -0.0273 -0.8007
 4285TIP3    H134414   2.577   6.471   1.103 -1.3418 -0.5351 -1.5692
 4285TIP3    H234415   2.679   6.423   1.002  0.1391 -0.6828 -0.0523
 4286TIP3   OH234416   0.626   1.990   6.929 -0.1853  1.0530  0.4772
 4286TIP3    H134417   0.693   2.021   6.868 -0.2253  2.2134  0.9894
 4286TIP3    H234418   0.568   1.936   6.876  0.8296  0.4906 -0.0961
 4287TIP3   OH234419   1.575   3.252   8.669 -0.4695 -0.0919 -0.1741
 4287TIP3    H134420   1.600   3.213   8.753  1.3461  0.4633 -0.4177
 4287TIP3    H234421   1.479   3.253   8.671 -0.4857  0.8574  2.3407
 4288TIP3   OH234422   3.694   6.536   8.629 -0.1666  0.0337 -0.3019
 4288TIP3    H134423   3.614   6.487   8.650 -0.6765  0.3807 -1.3301
 4288TIP3    H234424   3.759   6.468   8.608 -0.8185 -0.2475 -1.5606
 4289TIP3   OH234425   1.044   4.059   1.724 -0.5376 -0.3425  0.2145
 4289TIP3    H134426   1.123   4.041   1.775 -0.6770  0.4694  0.7357
 4289TIP3    H234427   0.975   4.069   1.790 -0.8228  0.2412 -0.1654
 4290TIP3   OH234428   4.390   5.872   0.647 -0.2527  0.2034  0.1293
 4290TIP3    H134429   4.389   5.864   0.551 -0.0526  2.7881 -0.1627
 4290TIP3    H234430   4.483   5.867   0.670 -0.1674  0.9800 -0.0037
 4291TIP3   OH234431   2.104   0.007   6.996 -0.3289  0.1317  0.3285
 4291TIP3    H134432   2.172  -0.053   7.027  1.7703  1.1557 -1.9418
 4291TIP3    H234433   2.091   0.068   7.068  0.6551 -0.5242  1.0819
 4292TIP3   OH234434   6.164   5.095   8.938 -0.0537  0.2481 -0.1217
 4292TIP3    H134435   6.189   5.182   8.970  0.0924  0.0475  0.3300
 4292TIP3    H234436   6.069   5.098   8.931 -0.5482 -0.7438  3.7189
 4293TIP3   OH234437   6.447   0.904   7.561 -0.2677  0.1068  0.4630
 4293TIP3    H134438   6.379   0.843   7.533  0.8415 -0.7453 -0.4695
 4293TIP3    H234439   6.465   0.879   7.652  0.7796 -1.6102 -0.1528
 4294TIP3   OH234440   3.604   6.327   1.427 -0.8973 -0.5031 -0.3664
 4294TIP3    H134441   3.557   6.341   1.345 -1.6093 -2.5000 -0.3467
 4294TIP3    H234442   3.536   6.311   1.491 -0.2568 -2.3334 -0.1025
 4295TIP3   OH234443   2.208   2.974   1.196 -0.0985 -0.5127 -0.4544
 4295TIP3    H134444   2.181   2.896   1.147  0.8641 -0.4980 -1.0194
 4295TIP3    H234445   2.247   2.939   1.276 -2.1153 -0.5291  0.6058
 4296TIP3   OH234446   1.238   6.042   1.123 -0.1271 -0.8295  0.3826
 4296TIP3    H134447   1.332   6.035   1.108 -0.1635  0.6775 -0.8565
 4296TIP3    H234448   1.210   5.954   1.148  1.3232 -1.7410 -1.0175
 4297TIP3   OH234449   2.911   5.839   6.929  0.0168  0.3730 -0.6631
 4297TIP3    H134450   2.848   5.770   6.908 -0.7522  0.7199  0.3603
 4297TIP3    H234451   2.872   5.918   6.892 -0.7698  0.7867  0.9396
 4298TIP3   OH234452   2.437   4.986   6.871 -0.5671  0.4164  0.1013
 4298TIP3    H134453   2.362   4.993   6.812 -0.4440  0.7117 -0.0227
 4298TIP3    H234454   2.423   5.054   6.936 -0.0081  0.9958 -0.3755
 4299TIP3   OH234455   0.186   4.283   7.489 -0.1607  0.0172 -0.0409
 4299TIP3    H134456   0.182   4.230   7.409  0.2832  0.5218 -0.4052
 4299TIP3    H234457   0.112   4.252   7.541  0.3642 -1.2914 -0.0284
 4300TIP3   OH234458   0.706   2.837   1.999 -0.3875 -0.3288  0.2301
 4300TIP3    H134459   0.654   2.875   1.928 -1.8551  1.2521  2.0631
 4300TIP3    H234460   0.764   2.775   1.955 -0.5445  1.2773 -2.4565
 4301TIP3   OH234461   3.353   5.002   1.642  0.1138 -0.1647 -0.8105
 4301TIP3    H134462   3.430   5.002   1.584  0.8949  0.5948  0.1817
 4301TIP3    H234463   3.377   4.942   1.713  1.3181  2.6023  1.3404
 4302TIP3   OH234464   3.758   1.731   7.000  0.7163 -0.0138  0.3024
 4302TIP3    H134465   3.682   1.770   7.042 -0.2822 -0.9366 -0.5857
 4302TIP3    H234466   3.833   1.771   7.044 -0.2129  2.8958 -0.5366
 4303TIP3   OH234467   0.247   6.451   8.959  0.1136 -0.3450  0.0240
 4303TIP3    H134468   0.189   6.375   8.955  0.4711 -0.7270  1.5125
 4303TIP3    H234469   0.315   6.433   8.893  0.5033 -1.6052  0.7261
 4304TIP3   OH234470   1.406   4.171   7.737  0.7338  0.3923  0.0056
 4304TIP3    H134471   1.326   4.169   7.789  0.1073  0.6686 -0.9276
 4304TIP3    H234472   1.396   4.248   7.681  0.6064 -0.8451 -1.7452
 4305TIP3   OH234473   0.312   6.561   0.665 -0.8337  0.0155  0.0423
 4305TIP3    H134474   0.266   6.645   0.667  0.5434  0.9420 -2.5562
 4305TIP3    H234475   0.358   6.557   0.749  0.9471  3.0792 -0.6258
 4306TIP3   OH234476   4.105   1.272   1.985 -0.6452 -0.1976 -0.1271
 4306TIP3    H134477   4.075   1.187   1.952 -1.4532 -0.3371  0.9337
 4306TIP3    H234478   4.028   1.328   1.981 -0.6865 -0.1329  1.2038
 4307TIP3   OH234479   5.855   4.524   0.329 -0.3605 -0.4209 -0.0520
 4307TIP3    H134480   5.888   4.434   0.328  1.3288  0.1609 -1.5683
 4307TIP3    H234481   5.887   4.560   0.412 -0.6251 -1.0350  0.3321
 4308TIP3   OH234482   4.171   2.497   6.716 -0.1449 -0.4550  0.5423
 4308TIP3    H134483   4.095   2.459   6.760  0.4448 -1.8133  0.4183
 4308TIP3    H234484   4.213   2.550   6.785 -2.2330  2.0109  0.1151
 4309TIP3   OH234485   6.544   0.013   1.836  0.6037 -0.0413 -0.2255
 4309TIP3    H134486   6.540   0.093   1.784  2.8691 -0.5670 -1.3335
 4309TIP3    H234487   6.590   0.038   1.916 -0.3393  0.1287  0.2849
 4310TIP3   OH234488   2.923   1.885   7.724  0.0241  0.0836 -0.3872
 4310TIP3    H134489   2.929   1.849   7.813 -1.3513 -0.0686 -0.3335
 4310TIP3    H234490   2.886   1.813   7.672 -0.0148  0.4692 -0.9010
 4311TIP3   OH234491   2.004   2.102   7.618 -0.3014  0.5241 -0.6363
 4311TIP3    H134492   1.997   2.197   7.606  1.3712  0.9039  0.9179
 4311TIP3    H234493   1.927   2.067   7.574 -1.7306  2.7030 -0.0717
 4312TIP3   OH234494   2.491   3.080   2.361 -0.1820 -0.3169  0.4303
 4312TIP3    H134495   2.396   3.076   2.348  0.0421 -0.2344 -1.4233
 4312TIP3    H234496   2.501   3.101   2.454 -2.0229  1.7077  0.2436
 4313TIP3   OH234497   2.830   5.859   2.235  0.3781 -0.2158  0.3707
 4313TIP3    H134498   2.820   5.856   2.330 -0.6570  1.1917  0.3375
 4313TIP3    H234499   2.773   5.790   2.203 -0.2775  0.1446  0.7343
 4314TIP3   OH234500   4.867   6.520   7.809 -0.2074  0.4764 -0.1372
 4314TIP3    H134501   4.856   6.429   7.782  0.5573  0.0329  0.9701
 4314TIP3    H234502   4.779   6.558   7.805 -0.2499  0.2955 -2.6044
 4315TIP3   OH234503   5.003   6.225   0.849  0.2786 -0.0819  0.2963
 4315TIP3    H134504   5.088   6.245   0.888  1.3712  0.3666 -2.1337
 4315TIP3    H234505   5.023   6.178   0.769 -1.9440 -2.6873  1.1063
 4316TIP3   OH234506   1.643   4.620   1.131 -0.1787 -0.0086  0.2169
 4316TIP3    H134507   1.733   4.588   1.129  0.2127  0.8243 -3.8730
 4316TIP3    H234508   1.594   4.557   1.077 -1.8839  0.1065  1.5473
 4317TIP3   OH234509   3.448   4.623   8.847  0.2508  0.0496 -0.4950
 4317TIP3    H134510   3.521   4.677   8.878  0.2534 -1.2045  1.9664
 4317TIP3    H234511   3.381   4.685   8.819  1.6637  1.2397 -1.3346
 4318TIP3   OH234512   2.538   4.279   2.686 -0.1957 -0.7896 -0.6814
 4318TIP3    H134513   2.604   4.347   2.699 -1.9260  0.7845  0.3748
 4318TIP3    H234514   2.515   4.285   2.593  0.1628 -0.4535 -0.7505
 4319TIP3   OH234515   2.557   1.991   0.539 -0.1287 -0.5770 -0.3171
 4319TIP3    H134516   2.623   1.929   0.507  0.5612 -0.1289  0.2147
 4319TIP3    H234517   2.505   2.013   0.461  0.9440 -0.2056 -0.9450
 4320TIP3   OH234518   0.949   0.701   8.341  0.0751  0.3508  0.4792
 4320TIP3    H134519   1.037   0.737   8.335 -0.3195  1.1375 -2.0412
 4320TIP3    H234520   0.909   0.746   8.416  0.4701  3.3124 -0.9406
 4321TIP3   OH234521   5.948   4.192   0.519  0.0502  0.3504  0.2192
 4321TIP3    H134522   5.970   4.099   0.510 -1.4809 -0.0850  0.5633
 4321TIP3    H234523   5.944   4.207   0.613 -0.6333  0.5142  0.1695
 4322TIP3   OH234524   6.188   4.656   1.440 -0.4820 -0.2478 -0.0168
 4322TIP3    H134525   6.235   4.693   1.366  1.0353  1.1475  1.5666
 4322TIP3    H234526   6.152   4.732   1.487  0.2824 -0.9313  1.7514
 4323TIP3   OH234527   3.823   5.601   1.060 -0.0035  0.1790  0.1005
 4323TIP3    H134528   3.859   5.662   0.995 -0.3646 -1.1311 -1.4082
 4323TIP3    H234529   3.731   5.627   1.069  0.1938  0.7398  0.5681
 4324TIP3   OH234530   1.117   3.486   8.159 -0.0775  0.7493 -1.3102
 4324TIP3    H134531   1.184   3.545   8.194 -0.2236  1.0937 -1.6063
 4324TIP3    H234532   1.103   3.421   8.228 -1.6255  2.4252  0.0628
 4325TIP3   OH234533   1.286   2.051   9.061 -0.5624 -0.2306  0.0769
 4325TIP3    H134534   1.235   1.987   9.011 -1.8293  0.2651  0.6808
 4325TIP3    H234535   1.301   2.009   9.145 -1.3379  0.2211  0.4501
 4326TIP3   OH234536   4.872   2.357   8.037  0.0481 -0.4243  0.2375
 4326TIP3    H134537   4.900   2.265   8.034 -2.2231 -1.1677 -1.7159
 4326TIP3    H234538   4.877   2.387   7.946 -4.3450 -0.4507 -0.2437
 4327TIP3   OH234539   6.514   1.574   8.591 -0.4816  0.1447 -0.5345
 4327TIP3    H134540   6.436   1.557   8.643 -1.4617 -0.5542 -2.1660
 4327TIP3    H234541   6.544   1.488   8.563  0.0140  0.4985 -1.1359
 4328TIP3   OH234542   6.292   1.231   0.455  0.2327 -0.2654 -0.0619
 4328TIP3    H134543   6.224   1.276   0.405  1.0078  1.2766  0.1999
 4328TIP3    H234544   6.276   1.138   0.439 -1.0818  0.1048 -1.1114
 4329TIP3   OH234545   4.402   3.872   7.352  0.2864  0.2424  0.0698
 4329TIP3    H134546   4.351   3.791   7.358 -0.6598  0.8428  0.4258
 4329TIP3    H234547   4.352   3.927   7.291  1.5408  0.1316 -1.0968
 4330TIP3   OH234548   4.100   1.389   0.023 -0.5124 -0.5870  0.6220
 4330TIP3    H134549   4.040   1.359  -0.046 -2.1050 -0.3852  1.8479
 4330TIP3    H234550   4.146   1.310   0.052  0.9659 -0.5065 -1.3454
 4331TIP3   OH234551   6.228   5.323   1.045  0.1165 -0.3890  0.4740
 4331TIP3    H134552   6.201   5.297   0.957  1.0618 -0.7472  0.2797
 4331TIP3    H234553   6.150   5.364   1.083  0.4082  2.2085 -1.4771
 4332TIP3   OH234554   1.208   1.231   1.865  0.4214  0.3478  0.3469
 4332TIP3    H134555   1.152   1.158   1.838  1.7804  0.2262 -2.5876
 4332TIP3    H234556   1.163   1.309   1.834  0.7865  0.4299  0.0164
 4333TIP3   OH234557   2.640   1.015   1.826 -0.0490  0.4769 -0.2591
 4333TIP3    H134558   2.650   1.054   1.738 -0.7740 -0.7036 -0.8905
 4333TIP3    H234559   2.569   0.952   1.816  1.3776 -1.3574  0.6080
 4334TIP3   OH234560   3.816   6.409   7.693 -0.0397 -0.1947 -0.2895
 4334TIP3    H134561   3.759   6.447   7.627  1.9817  1.4036 -1.2281
 4334TIP3    H234562   3.881   6.359   7.644  0.1708 -0.8900  0.6534
 4335TIP3   OH234563   1.188   5.786   1.861 -0.8510 -0.2954  0.0901
 4335TIP3    H134564   1.248   5.742   1.800 -1.2149  0.4669 -0.8548
 4335TIP3    H234565   1.244   5.816   1.932 -0.3045 -0.6266 -0.1882
 4336TIP3   OH234566   2.283   0.389   0.770 -0.2038 -0.0375 -0.1866
 4336TIP3    H134567   2.204   0.385   0.716 -1.1005  0.9092  0.9952
 4336TIP3    H234568   2.292   0.482   0.791 -0.1237 -0.4244  1.6163
 4337TIP3   OH234569   6.215   4.532   0.533 -0.0019 -0.1984  0.9936
 4337TIP3    H134570   6.214   4.464   0.465  0.3414 -0.9378  1.7169
 4337TIP3    H234571   6.125   4.533   0.566 -0.4493  0.8950 -0.1574
 4338TIP3   OH234572   3.256   2.833   1.134  0.2864  0.0866  0.3653
 4338TIP3    H134573   3.323   2.843   1.067 -0.6061  0.2123 -0.5340
 4338TIP3    H234574   3.178   2.807   1.086  0.4781 -3.6194  1.6847
 4339TIP3   OH234575   5.365   3.271   8.022  0.4460  0.3400  0.6845
 4339TIP3    H134576   5.354   3.188   7.974  0.9232  0.3415  0.5683
 4339TIP3    H234577   5.400   3.245   8.107 -1.4936  0.2286  1.5074
 4340TIP3   OH234578   0.124   3.656   7.523 -0.8351 -0.5493  0.1129
 4340TIP3    H134579   0.098   3.747   7.536  1.4643  0.0624  0.8949
 4340TIP3    H234580   0.147   3.650   7.430  3.1705  0.9836  0.8001
 4341TIP3   OH234581   6.601   5.914   9.044 -0.8111 -0.6357  0.0226
 4341TIP3    H134582   6.562   5.827   9.058  2.5339 -1.9525  2.3980
 4341TIP3    H234583   6.652   5.904   8.964 -0.2083 -0.9883  0.4421
 4342TIP3   OH234584   4.845   6.473   7.455 -0.2856 -0.0234 -0.4126
 4342TIP3    H134585   4.864   6.474   7.361  0.6480  0.2933 -0.2331
 4342TIP3    H234586   4.832   6.566   7.477  0.5339  0.0017 -0.0332
 4343TIP3   OH234587   1.057   5.008   1.919  0.2925 -0.2695  0.1850
 4343TIP3    H134588   1.133   4.958   1.887  0.7315 -0.0067  0.7888
 4343TIP3    H234589   0.987   4.943   1.925  1.0492 -0.9927  1.6499
 4344TIP3   OH234590   5.543   4.380   8.969  0.0136 -0.1574  0.1892
 4344TIP3    H134591   5.509   4.309   9.022 -0.7370  0.2241  0.2329
 4344TIP3    H234592   5.597   4.431   9.029 -0.7205  0.1956  0.5645
 4345TIP3   OH234593   6.174   4.987   7.906  0.4704 -0.3592  0.7692
 4345TIP3    H134594   6.091   4.975   7.951 -1.4714 -0.6977 -2.6140
 4345TIP3    H234595   6.184   5.082   7.898 -1.3638 -0.2715 -1.5766
 4346TIP3   OH234596   0.770   5.377   0.380 -0.1177  0.5194 -0.6380
 4346TIP3    H134597   0.790   5.468   0.360 -0.2246  1.4550  2.9255
 4346TIP3    H234598   0.855   5.334   0.385 -0.0394  0.5100 -1.7965
 4347TIP3   OH234599   1.383   5.753   0.286 -0.0801  0.1941 -0.1179
 4347TIP3    H134600   1.410   5.662   0.277  0.9571  0.5949 -1.4490
 4347TIP3    H234601   1.464   5.803   0.279 -0.7546  1.2740 -0.5404
 4348TIP3   OH234602   1.982   2.043   0.158 -0.2756 -0.4485 -1.0213
 4348TIP3    H134603   1.999   1.953   0.130 -3.0126 -1.1799 -0.6182
 4348TIP3    H234604   2.011   2.046   0.249  0.6185 -0.6285 -1.2881
 4349TIP3   OH234605   4.147   2.441   7.671  0.4484  0.6680  0.0817
 4349TIP3    H134606   4.217   2.467   7.611  0.1827  0.4533 -0.3270
 4349TIP3    H234607   4.078   2.407   7.614  0.4916 -0.2341  0.5495
 4350TIP3   OH234608   6.534   5.033   0.607 -0.5415 -0.1696 -0.2692
 4350TIP3    H134609   6.556   4.988   0.526  0.6363  0.7318 -0.4637
 4350TIP3    H234610   6.456   5.085   0.586  0.2092  0.6656 -1.0617
 4351TIP3   OH234611   3.310   3.856   1.652  0.5446 -0.3172  0.2830
 4351TIP3    H134612   3.334   3.863   1.560  1.4413  1.6664  0.6029
 4351TIP3    H234613   3.376   3.909   1.698  0.4610 -1.7158  2.1413
 4352TIP3   OH234614   3.954   0.785   0.304 -0.2911 -0.1289 -0.0254
 4352TIP3    H134615   3.983   0.758   0.218  1.7750 -1.0296  0.8829
 4352TIP3    H234616   4.025   0.839   0.338 -0.8190 -0.2328  1.3316
 4353TIP3   OH234617   3.601   3.363   1.902  0.3856  0.0044 -0.2276
 4353TIP3    H134618   3.630   3.317   1.981  0.4697 -1.7049 -1.2270
 4353TIP3    H234619   3.586   3.453   1.932  2.9104  0.0433  1.1834
 4354TIP3   OH234620   0.923   2.586   7.956 -0.1486 -1.0154  0.2440
 4354TIP3    H134621   0.876   2.594   8.038  0.1100 -2.9485  0.6359
 4354TIP3    H234622   0.867   2.530   7.902 -0.1027 -0.1416 -0.7538
 4355TIP3   OH234623   4.852   2.949   6.305  0.3140  0.3800 -0.1538
 4355TIP3    H134624   4.828   3.028   6.257  0.5877  0.4195 -0.2305
 4355TIP3    H234625   4.789   2.944   6.377  1.3032  1.5828  0.8368
 4356TIP3   OH234626   4.061   5.309   7.448  0.1415 -0.0812  0.0670
 4356TIP3    H134627   4.107   5.382   7.489  1.1134 -0.4223 -0.3862
 4356TIP3    H234628   4.114   5.287   7.371  0.0949 -1.5397  0.4247
 4357TIP3   OH234629   5.939   0.720   8.219  0.5737  0.0068 -0.0446
 4357TIP3    H134630   5.953   0.684   8.132 -0.1736  0.7638 -0.4908
 4357TIP3    H234631   5.848   0.698   8.241  0.8972 -0.5980  0.7574
 4358TIP3   OH234632   0.420   1.220   0.419 -0.5346  0.0943 -0.3226
 4358TIP3    H134633   0.510   1.196   0.441  0.7122  3.6317 -0.9622
 4358TIP3    H234634   0.413   1.204   0.325 -0.7884 -0.6637 -0.1837
 4359TIP3   OH234635   0.649   2.186   8.257 -0.0582 -0.0967 -0.3265
 4359TIP3    H134636   0.628   2.269   8.300 -0.9262 -0.5658  0.1857
 4359TIP3    H234637   0.728   2.154   8.301  0.5073  0.6288 -0.7865
 4360TIP3   OH234638   0.676   4.065   0.997 -0.8170 -0.4843  0.6331
 4360TIP3    H134639   0.752   4.021   1.034 -0.2351 -2.7951 -2.8377
 4360TIP3    H234640   0.712   4.141   0.951 -0.1459 -2.4239 -2.3468
 4361TIP3   OH234641   3.894   0.519   0.002 -0.2698  0.4180  0.0919
 4361TIP3    H134642   3.956   0.452   0.032  1.1791  1.6527 -0.0029
 4361TIP3    H234643   3.942   0.601   0.010 -1.4876  1.3042 -1.1795
 4362TIP3   OH234644   0.816   6.102   1.960  0.6530  0.5398 -0.7118
 4362TIP3    H134645   0.754   6.119   2.031 -0.0572  0.1002 -1.2093
 4362TIP3    H234646   0.855   6.018   1.983 -0.4534 -0.2000 -1.4181
 4363TIP3   OH234647   0.345   1.068   1.700 -0.5544  0.1552  0.3140
 4363TIP3    H134648   0.368   1.028   1.784 -2.9201 -0.9507  0.5080
 4363TIP3    H234649   0.336   1.161   1.719  2.3572  0.4937  0.4547
 4364TIP3   OH234650   3.239   4.309   0.537 -0.4214 -0.0133 -0.9946
 4364TIP3    H134651   3.213   4.291   0.446 -0.1407  0.3143 -1.1425
 4364TIP3    H234652   3.198   4.392   0.558  1.6935  1.2958 -1.7484
 4365TIP3   OH234653   6.138   3.986   8.783  0.2564  0.1303  0.4081
 4365TIP3    H134654   6.054   4.015   8.747  0.9715  2.3797  0.4340
 4365TIP3    H234655   6.115   3.941   8.864 -1.0865 -1.7324 -0.9003
 4366TIP3   OH234656   3.683   5.458   9.132  0.4576  0.3354  0.0751
 4366TIP3    H134657   3.773   5.425   9.126  0.5356  0.6787 -0.7665
 4366TIP3    H234658   3.635   5.388   9.176  0.6125 -0.9388 -1.6904
 4367TIP3   OH234659   2.421   3.320   8.957  0.2049  0.3375 -0.3350
 4367TIP3    H134660   2.361   3.379   8.910  0.3448 -0.1809 -1.1902
 4367TIP3    H234661   2.363   3.257   9.000  0.0763  0.8089  0.2041
 4368TIP3   OH234662   0.159   0.094   9.017  0.3895  0.0906 -0.3959
 4368TIP3    H134663   0.221   0.034   8.975 -1.2285 -1.9658  0.0088
 4368TIP3    H234664   0.188   0.098   9.108  0.2324 -0.4526 -0.3219
 4369TIP3   OH234665   0.703   6.015   0.879  0.5880 -0.1672  0.6967
 4369TIP3    H134666   0.788   6.054   0.898 -0.2232  0.8976  2.4515
 4369TIP3    H234667   0.661   6.007   0.965 -1.6494  0.6943 -0.2315
 4370TIP3   OH234668   2.578   5.010   0.305 -0.3578  0.5206  0.2859
 4370TIP3    H134669   2.568   5.045   0.216 -0.7147  0.7537  0.4116
 4370TIP3    H234670   2.672   5.001   0.317 -0.3215  0.1650 -0.2381
 4371TIP3   OH234671   0.173   1.593   0.556  0.0770 -0.7157 -0.6017
 4371TIP3    H134672   0.112   1.551   0.617  0.2430 -0.9709 -0.6096
 4371TIP3    H234673   0.132   1.677   0.535 -0.1384 -0.7676 -0.3929
 4372TIP3   OH234674   6.289   3.308   8.258  0.0258  0.0066 -0.0293
 4372TIP3    H134675   6.235   3.230   8.269  0.0405 -0.0499 -0.3516
 4372TIP3    H234676   6.253   3.372   8.319 -1.2434  0.4259 -1.1839
 4373TIP3   OH234677   3.855   0.680   2.756 -0.5404  0.3236  0.1793
 4373TIP3    H134678   3.882   0.591   2.779 -1.4297  0.2681  1.0893
 4373TIP3    H234679   3.837   0.676   2.662  0.2332 -0.2359  0.0453
 4374TIP3   OH234680   4.674   6.012   0.803 -0.0989  0.2210 -0.2464
 4374TIP3    H134681   4.756   5.964   0.816 -0.9011 -0.9140  0.7422
 4374TIP3    H234682   4.613   5.975   0.866 -2.6309 -1.8077 -3.5213
 4375TIP3   OH234683   1.417   2.764   8.344  0.2363  0.6540 -0.2668
 4375TIP3    H134684   1.340   2.711   8.324 -1.1583  1.9562  1.3711
 4375TIP3    H234685   1.405   2.844   8.293  0.2150  1.0847  0.3992
 4376TIP3   OH234686   2.962   6.438   1.917  0.1957  0.3772 -0.3070
 4376TIP3    H134687   3.040   6.408   1.964  0.3536 -0.5886 -1.1298
 4376TIP3    H234688   2.889   6.410   1.972  0.3939  2.7074  1.2879
 4377TIP3   OH234689   1.114   4.959   9.034  0.3809 -0.3097 -0.6114
 4377TIP3    H134690   1.099   5.019   8.961 -0.2840  0.1779 -0.0742
 4377TIP3    H234691   1.086   4.874   9.001 -1.1008  0.1236 -0.5203
 4378TIP3   OH234692   5.073   2.963   0.447 -0.3170  0.2372  0.7765
 4378TIP3    H134693   5.011   2.889   0.448  0.4683 -0.4692 -0.4116
 4378TIP3    H234694   5.018   3.040   0.430 -1.0069 -0.2204  0.8748
 4379TIP3   OH234695   3.431   3.130   7.015 -0.0335 -0.3036  0.1295
 4379TIP3    H134696   3.363   3.117   6.948  0.0252 -0.5054  0.1086
 4379TIP3    H234697   3.478   3.209   6.987 -0.6622  0.2134  0.4824
 4380TIP3   OH234698   0.530   5.578   1.591  0.4853  0.6118  0.1576
 4380TIP3    H134699   0.549   5.491   1.626  0.9807  1.6913  2.7854
 4380TIP3    H234700   0.442   5.571   1.554  0.1817 -0.7955  1.0863
 4381TIP3   OH234701   0.933   4.362   7.987  0.0174  0.8077  0.5955
 4381TIP3    H134702   0.935   4.442   7.935 -1.0990  1.4888  1.5521
 4381TIP3    H234703   0.984   4.383   8.066  2.1793 -0.3975 -0.4159
 4382TIP3   OH234704   6.497   3.309   6.515 -0.2334  0.1621 -0.4984
 4382TIP3    H134705   6.507   3.355   6.432  1.6452 -0.5218 -0.6942
 4382TIP3    H234706   6.402   3.299   6.525 -0.5215 -1.0262 -3.3113
 4383TIP3   OH234707   1.696   5.483   8.919 -0.1156  0.5871  0.4024
 4383TIP3    H134708   1.770   5.541   8.899  0.7280 -0.6040 -0.0765
 4383TIP3    H234709   1.628   5.509   8.858 -0.2535  1.9692  1.1132
 4384TIP3   OH234710   0.621   5.176   1.580  0.2363 -0.2793 -0.1319
 4384TIP3    H134711   0.540   5.190   1.531  0.2800 -0.2343 -0.1912
 4384TIP3    H234712   0.623   5.082   1.597  1.7884 -0.8652 -2.9612
 4385TIP3   OH234713   4.671   0.862   7.145  0.3150 -0.3137 -0.2287
 4385TIP3    H134714   4.707   0.818   7.068  0.6033 -0.6434  0.0914
 4385TIP3    H234715   4.724   0.941   7.155  1.4936 -1.1676  0.6866
 4386TIP3   OH234716   5.215   0.361   2.548  0.0820  0.7604  0.1475
 4386TIP3    H134717   5.251   0.315   2.472  2.3540  1.4590  0.7168
 4386TIP3    H234718   5.289   0.411   2.583 -0.7895  0.2158  3.0358
 4387TIP3   OH234719   6.019   1.775   6.761  0.4335 -0.0887 -0.0768
 4387TIP3    H134720   6.104   1.765   6.719 -0.1139  0.1781 -1.2795
 4387TIP3    H234721   6.002   1.690   6.802  2.2000  0.4632  2.0204
 4388TIP3   OH234722   4.762   1.373   9.082  0.4786 -0.3492 -0.2841
 4388TIP3    H134723   4.823   1.419   9.140 -0.7595 -0.3506  1.0658
 4388TIP3    H234724   4.765   1.423   9.000 -0.5686  1.9863  1.0249
 4389TIP3   OH234725   6.379   2.494   7.231 -0.2080 -0.0226 -0.5607
 4389TIP3    H134726   6.472   2.482   7.209 -0.9286 -1.7112 -3.1772
 4389TIP3    H234727   6.375   2.477   7.325  1.7007 -3.6814 -0.9286
 4390TIP3   OH234728   5.189   3.991   8.915  0.1279  0.1128  0.2319
 4390TIP3    H134729   5.185   4.000   9.010  0.9512 -0.9578  0.3858
 4390TIP3    H234730   5.123   3.924   8.894 -0.4804  0.7817 -0.0283
 4391TIP3   OH234731   1.027   2.266   2.117 -0.3192  0.1809 -0.0025
 4391TIP3    H134732   1.045   2.360   2.111  1.7102 -0.1659 -0.0148
 4391TIP3    H234733   0.963   2.258   2.188  0.1814  1.4989  0.6218
 4392TIP3   OH234734   4.576   3.876   7.584 -0.1114  0.5717 -0.6286
 4392TIP3    H134735   4.536   3.906   7.502  1.5686  3.7264 -0.4429
 4392TIP3    H234736   4.670   3.874   7.566  0.1844 -0.0203  0.8355
 4393TIP3   OH234737   5.289   0.171   7.629 -0.2112 -0.4485  0.3054
 4393TIP3    H134738   5.224   0.103   7.643  0.7773 -1.2748  0.9691
 4393TIP3    H234739   5.337   0.177   7.711  0.8047 -0.1266 -0.2910
 4394TIP3   OH234740   5.865   3.782   8.013  0.0091  0.4940 -0.2968
 4394TIP3    H134741   5.852   3.847   7.944 -2.4383  0.4317  0.0151
 4394TIP3    H234742   5.806   3.810   8.083  0.2587 -1.0694  0.5726
 4395TIP3   OH234743   5.753   2.468   0.107 -0.1940 -0.8735  0.2486
 4395TIP3    H134744   5.830   2.507   0.151  1.7746 -1.0533 -2.7343
 4395TIP3    H234745   5.768   2.374   0.112 -0.6797 -0.9424  0.4001
 4396TIP3   OH234746   2.412   5.638   1.181 -0.0467  0.0533 -0.4275
 4396TIP3    H134747   2.317   5.624   1.186  0.0755 -2.1586 -2.6489
 4396TIP3    H234748   2.435   5.613   1.092  2.7691 -0.1819  0.2925
 4397TIP3   OH234749   4.839   2.603   1.783  0.7860  0.1790 -0.5835
 4397TIP3    H134750   4.920   2.628   1.829 -0.3266  0.6189  1.2105
 4397TIP3    H234751   4.794   2.686   1.769  0.5170 -0.0943 -1.3628
 4398TIP3   OH234752   0.085   5.046   8.433 -0.1941 -0.5355  0.1898
 4398TIP3    H134753   0.140   5.120   8.407 -0.3891 -0.8667 -1.2284
 4398TIP3    H234754   0.038   5.077   8.511 -0.9709  1.1935 -0.9058
 4399TIP3   OH234755   0.073   5.431   8.667 -0.0449  0.0161 -0.8514
 4399TIP3    H134756   0.158   5.413   8.707  0.1608 -0.3957 -1.4619
 4399TIP3    H234757   0.023   5.476   8.735  0.2257 -0.8477 -0.0680
 4400TIP3   OH234758   0.524   1.970   9.323  0.5150  0.5245 -0.1270
 4400TIP3    H134759   0.437   2.006   9.337  0.6227  0.7196  0.0577
 4400TIP3    H234760   0.530   1.956   9.228 -0.1961 -0.7326 -0.0175
 4401TIP3   OH234761   4.192   6.222   1.579 -0.3166  0.0865 -0.2648
 4401TIP3    H134762   4.132   6.279   1.531 -0.0663 -0.6782 -1.5214
 4401TIP3    H234763   4.176   6.134   1.544  0.6108 -0.3325  0.3079
 4402TIP3   OH234764   3.159   2.615   7.678 -0.4386 -0.2323  0.0227
 4402TIP3    H134765   3.159   2.680   7.607 -2.2152 -0.1976  0.0099
 4402TIP3    H234766   3.066   2.606   7.701 -0.1363 -2.1383  0.6089
 4403TIP3   OH234767   1.203   6.562   1.462 -0.9960 -0.1839  0.4245
 4403TIP3    H134768   1.248   6.547   1.380  0.4229  1.4288  0.8547
 4403TIP3    H234769   1.176   6.475   1.492  0.4776 -1.0225 -0.6125
 4404TIP3   OH234770   6.463   2.276   9.224 -0.0441 -0.2095  0.9019
 4404TIP3    H134771   6.371   2.253   9.212 -0.4039  0.3971  2.2534
 4404TIP3    H234772   6.489   2.228   9.303  1.0257 -0.9621  0.1096
 4405TIP3   OH234773   2.713   1.822   1.935 -0.4573 -0.2147  0.4891
 4405TIP3    H134774   2.774   1.831   2.008 -1.4763  0.8935  1.2249
 4405TIP3    H234775   2.670   1.738   1.951 -0.4477 -0.1284  0.9921
 4406TIP3   OH234776   5.547   5.038   8.311  0.2477 -0.3481  0.4054
 4406TIP3    H134777   5.564   5.103   8.379  1.0498  1.4926 -1.4572
 4406TIP3    H234778   5.456   5.054   8.284  0.5310  0.2266 -0.2424
 4407TIP3   OH234779   4.074   4.421   6.701  0.3568 -0.3928 -0.0318
 4407TIP3    H134780   4.013   4.452   6.768  1.0256 -0.1032  0.4472
 4407TIP3    H234781   4.024   4.428   6.619 -0.5483 -0.9750  0.4459
 4408TIP3   OH234782   5.807   5.140   0.212  0.1433  0.6242 -0.1809
 4408TIP3    H134783   5.714   5.156   0.228  0.0065 -1.0597  1.0397
 4408TIP3    H234784   5.846   5.141   0.300  1.5614  2.6101 -0.7586
 4409TIP3   OH234785   2.131   1.336   2.205  0.3106 -0.1778 -0.5800
 4409TIP3    H134786   2.127   1.296   2.118  0.1703  1.5356 -1.4177
 4409TIP3    H234787   2.040   1.355   2.226  0.4845  1.4211 -1.1007
 4410TIP3   OH234788   1.554   5.385   1.951  0.3706 -0.1562 -0.2398
 4410TIP3    H134789   1.551   5.297   1.915  0.1172 -0.0890 -0.3797
 4410TIP3    H234790   1.478   5.430   1.915  0.7086  0.2411 -0.4749
 4411TIP3   OH234791   0.260   0.076   0.279  0.4697  0.4700 -0.1062
 4411TIP3    H134792   0.290  -0.014   0.290 -0.5582  0.2904  1.7335
 4411TIP3    H234793   0.339   0.126   0.264  1.2791 -0.5063  0.7263
 4412TIP3   OH234794   2.089   0.148   1.295  0.4044 -0.3299 -0.2177
 4412TIP3    H134795   2.024   0.156   1.364 -0.0877  0.0763 -0.7231
 4412TIP3    H234796   2.124   0.236   1.284  0.8081 -0.4822 -0.1733
 4413TIP3   OH234797   4.358   1.348   1.923  0.0383 -0.6979  0.6112
 4413TIP3    H134798   4.419   1.343   1.996 -1.4422 -0.6395  1.9145
 4413TIP3    H234799   4.276   1.313   1.958 -0.6980 -0.7563 -1.0567
 4414TIP3   OH234800   3.181   6.434   8.629 -0.8056  0.3196 -0.0889
 4414TIP3    H134801   3.147   6.415   8.541 -1.6594 -0.3263  0.3734
 4414TIP3    H234802   3.123   6.502   8.663 -1.0475 -0.0882  0.3241
 4415TIP3   OH234803   5.336   5.070   8.727 -0.5122  0.1881 -0.1133
 4415TIP3    H134804   5.377   5.150   8.762  0.5156  0.3880 -1.6465
 4415TIP3    H234805   5.409   5.020   8.692 -1.0977 -1.6887  1.2330
 4416TIP3   OH234806   3.028   1.510   9.076 -0.0646 -0.1032 -0.1210
 4416TIP3    H134807   2.934   1.529   9.071 -0.4733 -0.8309  2.7577
 4416TIP3    H234808   3.069   1.594   9.094 -0.5231 -0.1177  1.1328
 4417TIP3   OH234809   6.224   3.848   0.050  0.8924 -0.6695  0.2701
 4417TIP3    H134810   6.133   3.873   0.063  1.5173  1.9283  0.2614
 4417TIP3    H234811   6.223   3.752   0.048 -2.0948 -0.7393 -1.6165
 4418TIP3   OH234812   0.754   4.961   7.366 -0.2113  0.2902  0.4864
 4418TIP3    H134813   0.848   4.971   7.382 -0.1964 -0.3904  0.8626
 4418TIP3    H234814   0.717   4.947   7.453 -0.4697 -0.8643  0.2083
 4419TIP3   OH234815   1.006   0.066   9.003 -0.6250 -0.1090  0.4860
 4419TIP3    H134816   1.007   0.020   9.088 -0.6566  0.1393  0.6223
 4419TIP3    H234817   1.012   0.159   9.026  1.8091 -0.1299  0.1233
 4420TIP3   OH234818   2.104   2.473   2.880  0.1902 -0.3392 -0.0792
 4420TIP3    H134819   2.138   2.384   2.882 -0.3752 -0.5604  2.3282
 4420TIP3    H234820   2.166   2.522   2.825  0.9787 -1.9944 -0.7210
 4421TIP3   OH234821   1.018   4.295   0.757  0.3821  0.2978  0.1244
 4421TIP3    H134822   0.953   4.285   0.826  0.3131 -0.1591 -0.0057
 4421TIP3    H234823   1.046   4.206   0.737 -0.5695  0.3095 -1.3606
 4422TIP3   OH234824   5.552   5.893   8.462  0.2098  0.0500 -0.5412
 4422TIP3    H134825   5.634   5.854   8.430 -0.4052 -0.4256 -1.5898
 4422TIP3    H234826   5.573   5.986   8.474  1.3214 -0.3300  0.7045
 4423TIP3   OH234827   0.177   3.964   1.536  0.4421 -0.3843 -0.3533
 4423TIP3    H134828   0.127   3.906   1.594  0.9270  0.5604  1.0693
 4423TIP3    H234829   0.140   4.051   1.551  0.9499 -0.0389 -1.0574
 4424TIP3   OH234830   3.208   5.442   0.879  0.1921  0.2688 -0.0764
 4424TIP3    H134831   3.157   5.458   0.958  0.8189  0.7230  0.2524
 4424TIP3    H234832   3.255   5.360   0.897  0.7974  0.6810  0.2854
 4425TIP3   OH234833   2.227   0.556   1.887  0.2858  0.0422 -0.0137
 4425TIP3    H134834   2.156   0.618   1.871  1.7362  1.8669  0.2776
 4425TIP3    H234835   2.222   0.537   1.980 -0.9535 -1.3622 -0.3272
 4426TIP3   OH234836   1.368   1.952   2.900  0.3749  0.2733  0.5253
 4426TIP3    H134837   1.430   1.883   2.880  0.6676  1.2399 -2.4325
 4426TIP3    H234838   1.422   2.030   2.915 -0.0359  0.7211 -0.2444
 4427TIP3   OH234839   4.653   5.396   1.906  0.2369  0.1570  0.1078
 4427TIP3    H134840   4.728   5.408   1.964  0.7767 -1.6395 -0.1479
 4427TIP3    H234841   4.652   5.474   1.851  1.4385  0.5757  0.6528
 4428TIP3   OH234842   4.548   4.319   0.831 -0.1581  0.2632  0.2185
 4428TIP3    H134843   4.615   4.387   0.833 -0.9903  1.1004  0.8030
 4428TIP3    H234844   4.592   4.241   0.797  1.3659  0.5148  1.5028
 4429TIP3   OH234845   3.052   4.224   8.776  0.2642  0.4962  0.5402
 4429TIP3    H134846   3.146   4.212   8.779  0.3842  0.5753 -1.5293
 4429TIP3    H234847   3.017   4.140   8.748 -0.1832  0.7669  0.2593
 4430TIP3   OH234848   3.084   5.505   1.162 -0.3490  0.2474 -0.0398
 4430TIP3    H134849   3.052   5.462   1.240 -2.3328  0.4245 -0.6985
 4430TIP3    H234850   3.104   5.594   1.190 -1.4739  0.4399  0.2055
 4431TIP3   OH234851   2.713   0.822   8.066  0.1552  0.0700  0.7391
 4431TIP3    H134852   2.788   0.872   8.034 -0.2211 -0.7687 -1.7031
 4431TIP3    H234853   2.637   0.875   8.042 -0.1195 -0.3048  0.7705
 4432TIP3   OH234854   2.014   1.094   1.914 -0.2626  0.1212 -0.2986
 4432TIP3    H134855   2.033   1.091   2.008 -0.3122  0.9735 -0.2577
 4432TIP3    H234856   1.962   1.015   1.898  2.6385 -1.9260 -0.2989
 4433TIP3   OH234857   5.833   1.945   0.879  0.1759 -0.3470  0.3538
 4433TIP3    H134858   5.828   1.920   0.971 -1.2821  1.0910  0.7148
 4433TIP3    H234859   5.921   1.984   0.870  0.4240 -0.7269  1.0708
 4434TIP3   OH234860   0.719   2.229   6.631  0.1798 -0.0732  0.4880
 4434TIP3    H134861   0.777   2.274   6.693  0.8304 -0.4789  0.1910
 4434TIP3    H234862   0.671   2.299   6.588  1.7798  0.4374 -0.5657
 4435TIP3   OH234863   0.647   4.407   1.326  0.4454  0.7603  0.4548
 4435TIP3    H134864   0.737   4.413   1.293 -0.3696  1.1215 -1.8550
 4435TIP3    H234865   0.634   4.314   1.343  1.0549  0.6296  0.2368
 4436TIP3   OH234866   5.525   0.424   8.182 -0.3358  0.5007 -0.1892
 4436TIP3    H134867   5.508   0.420   8.276 -0.2146 -0.6882 -0.2087
 4436TIP3    H234868   5.467   0.359   8.144 -1.7470  2.2370 -1.1746
 4437TIP3   OH234869   2.725   1.904   1.654 -0.6808 -0.1558 -0.4424
 4437TIP3    H134870   2.711   1.866   1.741 -0.7671 -0.0141 -0.3951
 4437TIP3    H234871   2.655   1.868   1.601 -1.1927  0.5095 -0.2194
 4438TIP3   OH234872   1.257   0.287   8.940  0.1348  0.1700 -0.5253
 4438TIP3    H134873   1.211   0.279   9.023 -1.9833 -0.8303 -1.7160
 4438TIP3    H234874   1.325   0.220   8.944  1.9098  1.9383  1.4293
 4439TIP3   OH234875   2.954   4.145   1.755  0.4193 -0.4807 -0.3035
 4439TIP3    H134876   2.933   4.067   1.705 -0.4571  0.5483 -1.6123
 4439TIP3    H234877   2.932   4.218   1.697  2.1191  0.7504  0.5028
 4440TIP3   OH234878   3.187   0.124   8.824 -0.2099 -0.4769  0.0150
 4440TIP3    H134879   3.275   0.097   8.799 -0.4162 -2.0470  0.8257
 4440TIP3    H234880   3.133   0.104   8.748  0.0799  0.2621 -0.3942
 4441TIP3   OH234881   2.461   2.543   0.889 -0.2715  0.4626 -0.4649
 4441TIP3    H134882   2.474   2.559   0.796 -1.9719 -0.2441 -0.8444
 4441TIP3    H234883   2.550   2.531   0.923  0.3112 -0.7695 -2.2729
 4442TIP3   OH234884   2.216   0.748   7.875 -0.6304 -0.2652  0.6620
 4442TIP3    H134885   2.197   0.723   7.965 -1.2740  0.2847  0.6825
 4442TIP3    H234886   2.300   0.795   7.880 -0.5350 -0.4622  0.9324
 4443TIP3   OH234887   5.664   0.126   0.952  0.0103  0.2008 -0.4237
 4443TIP3    H134888   5.632   0.095   1.037  1.5362 -0.5449 -0.0680
 4443TIP3    H234889   5.616   0.074   0.888 -1.1541  0.7672 -0.0297
 4444TIP3   OH234890   2.736   4.786   1.167  0.0936  0.1341  0.0206
 4444TIP3    H134891   2.779   4.729   1.231 -0.6183 -1.0700 -0.5294
 4444TIP3    H234892   2.713   4.727   1.095 -0.9925  1.0575 -0.4146
 4445TIP3   OH234893   2.266   1.726   0.657 -0.5212 -0.0915 -0.0910
 4445TIP3    H134894   2.305   1.697   0.739 -1.2288 -1.4590 -0.2247
 4445TIP3    H234895   2.299   1.816   0.646 -0.7346  0.2711  1.8766
 4446TIP3   OH234896   3.849   4.338   8.056 -0.3815  0.2443  0.5552
 4446TIP3    H134897   3.842   4.415   7.999  1.3068  0.1901  0.2189
 4446TIP3    H234898   3.942   4.334   8.079 -0.2021 -2.2839 -0.3061
 4447TIP3   OH234899   2.675   1.554   2.154 -0.0621  0.1413  0.5175
 4447TIP3    H134900   2.614   1.519   2.219 -0.4357  0.2494  0.2324
 4447TIP3    H234901   2.635   1.532   2.069 -0.1074  0.8847  0.3301
 4448TIP3   OH234902   6.313   2.885   9.125  0.3420  0.0217 -0.4118
 4448TIP3    H134903   6.310   2.790   9.133 -0.7303  0.0382 -0.4931
 4448TIP3    H234904   6.382   2.912   9.186  0.6446 -0.8030 -0.3785
 4449TIP3   OH234905   2.663   2.169   8.265 -0.5519 -0.2364 -0.6441
 4449TIP3    H134906   2.707   2.215   8.337 -0.0404  1.3537 -1.9288
 4449TIP3    H234907   2.595   2.117   8.309  0.7774 -0.5997  1.1220
 4450TIP3   OH234908   5.208   1.955   0.514  0.7368  0.0821  0.2508
 4450TIP3    H134909   5.185   2.024   0.575  0.7615  0.7966 -0.5329
 4450TIP3    H234910   5.291   1.920   0.547  0.6657  0.3505  0.7135
 4451TIP3   OH234911   2.778   4.227   8.524 -0.6229  0.0994  0.2758
 4451TIP3    H134912   2.812   4.160   8.584 -2.5669 -0.6399  0.6452
 4451TIP3    H234913   2.758   4.301   8.580  0.7017  0.6961 -0.0040
 4452TIP3   OH234914   3.385   2.031   0.146  0.3050  0.0969  0.1376
 4452TIP3    H134915   3.297   1.995   0.158  0.2835 -0.1678 -0.7626
 4452TIP3    H234916   3.416   2.049   0.235 -0.9826  0.9859  0.4261
 4453TIP3   OH234917   4.477   2.057   9.176 -0.4533 -0.7595  0.6444
 4453TIP3    H134918   4.390   2.089   9.199 -1.5241 -3.4357  0.7142
 4453TIP3    H234919   4.522   2.133   9.140 -3.0623  0.5721 -0.0514
 4454TIP3   OH234920   2.470   2.279   0.052 -0.4635  0.4288  0.3091
 4454TIP3    H134921   2.473   2.262  -0.042 -0.4760 -1.1515  0.5740
 4454TIP3    H234922   2.379   2.261   0.076 -1.0102  2.7926  0.3232
 4455TIP3   OH234923   5.361   5.004   0.652  0.0297  0.6170 -0.2671
 4455TIP3    H134924   5.286   4.977   0.705  0.7626 -0.8429  0.0782
 4455TIP3    H234925   5.359   4.945   0.577  0.7230  0.6943 -0.3476
 4456TIP3   OH234926   6.222   5.661   8.962  0.1770  0.1791 -0.0938
 4456TIP3    H134927   6.220   5.624   8.873  1.6103 -2.4286  0.8344
 4456TIP3    H234928   6.134   5.696   8.975 -0.6903 -1.1484 -1.8508
 4457TIP3   OH234929   1.606   6.286   8.385  0.7492  0.2736  0.1088
 4457TIP3    H134930   1.629   6.357   8.325  0.3048 -0.3723 -0.8719
 4457TIP3    H234931   1.633   6.316   8.471  4.9557 -0.2455 -0.8197
 4458TIP3   OH234932   4.023   4.878   2.574  0.0086  0.5832 -0.4795
 4458TIP3    H134933   4.023   4.947   2.640 -0.5344 -0.1491  0.3148
 4458TIP3    H234934   4.114   4.869   2.548  0.5316 -0.3256  1.5050
 4459TIP3   OH234935   2.019   5.450   7.558  0.5965  0.3963 -0.0069
 4459TIP3    H134936   1.994   5.483   7.471 -1.3409 -0.5092  0.1555
 4459TIP3    H234937   2.009   5.526   7.615  0.2041  0.5743 -0.3049
 4460TIP3   OH234938   1.266   1.530   8.225  0.3312  0.1325 -0.1175
 4460TIP3    H134939   1.188   1.498   8.271 -0.3683  0.0625 -1.2914
 4460TIP3    H234940   1.313   1.450   8.200  0.7411  0.1720  0.4973
 4461TIP3   OH234941   4.106   2.664   1.443  0.0642 -0.0783 -0.2478
 4461TIP3    H134942   4.125   2.588   1.499 -0.3242 -0.9946 -1.3197
 4461TIP3    H234943   4.035   2.709   1.488 -2.0150 -2.2149 -1.1870
 4462TIP3   OH234944   1.098   1.134   0.421 -0.1590 -0.0604  0.0884
 4462TIP3    H134945   1.144   1.078   0.483 -1.8521 -1.9174 -0.2415
 4462TIP3    H234946   1.078   1.214   0.470  0.7159 -0.4733  1.1391
 4463TIP3   OH234947   5.799   1.443   0.065  0.4306  0.1779 -0.4381
 4463TIP3    H134948   5.727   1.406   0.014  0.4245  0.6183 -0.7559
 4463TIP3    H234949   5.841   1.367   0.105  0.6887 -0.2330 -1.4442
 4464TIP3   OH234950   1.161   2.805   8.788 -0.0754 -0.1903  0.0775
 4464TIP3    H134951   1.147   2.798   8.693 -0.6121 -0.6980  0.1919
 4464TIP3    H234952   1.256   2.801   8.798  0.2198  2.5983 -0.6610
 4465TIP3   OH234953   4.548   5.661   1.560  0.0484 -0.0209 -0.4274
 4465TIP3    H134954   4.505   5.576   1.572 -1.5637  0.9450  1.2542
 4465TIP3    H234955   4.618   5.644   1.498 -0.1027 -2.6229 -0.0109
 4466TIP3   OH234956   5.995   1.583   7.587  0.2405 -0.9402  0.3447
 4466TIP3    H134957   5.985   1.488   7.586  2.1750 -1.1774  0.0113
 4466TIP3    H234958   6.059   1.602   7.518  3.5165  0.0514  3.3251
 4467TIP3   OH234959   4.434   1.657   8.539 -0.5539  0.0015  0.1206
 4467TIP3    H134960   4.396   1.571   8.553 -1.8985  0.2443 -1.7328
 4467TIP3    H234961   4.406   1.709   8.614 -3.5416  0.0200 -0.9078
 4468TIP3   OH234962   3.455   5.024   2.241  0.6028 -0.4329  0.1309
 4468TIP3    H134963   3.443   4.929   2.229  0.5741 -0.1536 -2.4086
 4468TIP3    H234964   3.366   5.060   2.238  0.8021  0.0130 -2.8348
 4469TIP3   OH234965   5.913   6.229   0.967  0.0840 -0.0373  0.1100
 4469TIP3    H134966   6.005   6.207   0.984  0.3044  1.2264  0.6179
 4469TIP3    H234967   5.874   6.146   0.940  1.6462 -0.3843 -1.3018
 4470TIP3   OH234968   3.864   0.247   1.295  0.1301  0.6019  0.2426
 4470TIP3    H134969   3.926   0.206   1.356  1.3593  0.2970 -1.1615
 4470TIP3    H234970   3.778   0.217   1.325  0.6901  0.4933  1.8379
 4471TIP3   OH234971   0.514   2.687   2.164 -0.4956  0.1900 -0.0400
 4471TIP3    H134972   0.431   2.697   2.117 -0.1719 -0.0468 -0.6882
 4471TIP3    H234973   0.565   2.764   2.138 -0.4491  0.2495  0.2258
 4472TIP3   OH234974   3.295   0.481   6.733  0.6750 -0.3700 -0.6719
 4472TIP3    H134975   3.299   0.386   6.719 -1.4845 -0.5983 -0.0884
 4472TIP3    H234976   3.337   0.494   6.818  0.9975 -0.7909 -0.7616
 4473TIP3   OH234977   0.892   2.722   0.905  0.2633 -0.1935 -0.3508
 4473TIP3    H134978   0.969   2.778   0.918 -0.4180  0.4368  1.1740
 4473TIP3    H234979   0.824   2.782   0.875 -0.1848 -0.4006  0.2520
 4474TIP3   OH234980   5.485   1.918   7.782  0.1154 -0.3418  0.0093
 4474TIP3    H134981   5.458   1.831   7.811  1.1796 -0.0037  2.2083
 4474TIP3    H234982   5.572   1.906   7.745  0.4895 -0.1802  0.7985
 4475TIP3   OH234983   1.326   5.620   7.627 -0.0617 -0.7089 -0.3315
 4475TIP3    H134984   1.240   5.603   7.665 -0.3906  0.9309 -0.2787
 4475TIP3    H234985   1.311   5.619   7.532 -0.2939  0.2105 -0.3155
 4476TIP3   OH234986   2.442   2.560   9.192  0.5381  0.3164 -0.0025
 4476TIP3    H134987   2.467   2.629   9.254  0.7745 -0.4244  0.7437
 4476TIP3    H234988   2.364   2.521   9.231  1.1350 -0.6666  0.2485
 4477TIP3   OH234989   6.280   2.314   8.542  0.3479 -0.0633  0.1746
 4477TIP3    H134990   6.209   2.259   8.576  1.2951 -2.0411 -0.8260
 4477TIP3    H234991   6.280   2.297   8.448  1.7946  0.3136  0.0773
 4478TIP3   OH234992   0.382   0.284   7.274 -0.4038  0.1998 -0.6049
 4478TIP3    H134993   0.325   0.359   7.288 -0.6861  0.1700 -1.4854
 4478TIP3    H234994   0.323   0.215   7.242  0.1341  0.2221 -1.6899
 4479TIP3   OH234995   2.519   0.296   0.648 -0.6357 -0.5347 -0.7662
 4479TIP3    H134996   2.567   0.379   0.645 -0.2325 -0.7553 -0.5270
 4479TIP3    H234997   2.436   0.317   0.691 -0.2098 -0.4067  0.0162
 4480TIP3   OH234998   5.129   1.028   0.370  0.0678 -0.4014 -0.2497
 4480TIP3    H134999   5.069   1.039   0.296  1.0315 -2.0364 -1.3378
 4480TIP3    H235000   5.098   0.949   0.414  0.2956 -0.1781  0.3213
 4481TIP3   OH235001   5.676   1.451   7.714 -0.0684  0.5594  0.0485
 4481TIP3    H135002   5.692   1.371   7.665 -1.4291 -0.2276  0.8399
 4481TIP3    H235003   5.619   1.503   7.657  1.9764  1.6912 -1.1133
 4482TIP3   OH235004   3.083   0.219   7.041  0.2533  0.2596 -0.0219
 4482TIP3    H135005   3.013   0.259   7.091  1.1495 -1.4904  2.8381
 4482TIP3    H235006   3.039   0.161   6.979 -0.8779  0.1588  0.8517
 4483TIP3   OH235007   4.556   1.659   8.803  0.1850 -0.4297 -0.2624
 4483TIP3    H135008   4.535   1.748   8.775 -1.4354 -0.8871 -0.5916
 4483TIP3    H235009   4.478   1.608   8.782  1.9492 -2.4677 -2.4008
 4484TIP3   OH235010   4.934   5.149   1.961  0.1771 -0.7228 -0.2051
 4484TIP3    H135011   4.988   5.144   2.039 -1.7690  0.5057  1.3272
 4484TIP3    H235012   4.857   5.095   1.980 -1.0545  0.8050 -0.5892
 4485TIP3   OH235013   4.697   4.536   7.547  0.2456 -0.8382  0.3402
 4485TIP3    H135014   4.618   4.537   7.601 -1.0401 -0.5018 -1.4444
 4485TIP3    H235015   4.763   4.580   7.601 -1.2907  0.5836  1.1825
 4486TIP3   OH235016   5.253   2.243   9.157 -0.1401 -0.3494  0.5157
 4486TIP3    H135017   5.181   2.195   9.196 -0.6844 -0.6333 -0.8293
 4486TIP3    H235018   5.259   2.324   9.209 -0.7978 -0.7541  1.2234
 4487TIP3   OH235019   2.574   2.292   1.301 -0.2727 -0.5759 -0.5347
 4487TIP3    H135020   2.509   2.253   1.243 -1.2822 -1.3821  1.0506
 4487TIP3    H235021   2.656   2.250   1.277 -0.4140  0.0698 -2.2216
 4488TIP3   OH235022   0.754   4.541   7.617 -0.3132  1.1181 -0.4651
 4488TIP3    H135023   0.717   4.562   7.531 -0.9004  1.0626 -0.2359
 4488TIP3    H235024   0.722   4.612   7.674 -0.6220  0.7074 -0.1226
 4489TIP3   OH235025   3.016   1.881   7.220 -0.0730  0.5188  0.1347
 4489TIP3    H135026   3.020   1.793   7.256 -0.4411  0.6116  0.3974
 4489TIP3    H235027   2.923   1.897   7.205 -0.0376  0.9944  0.4144
 4490TIP3   OH235028   3.612   0.651   0.600  0.6769  0.6105 -0.9035
 4490TIP3    H135029   3.647   0.615   0.682  0.1202  0.1927 -0.8456
 4490TIP3    H235030   3.612   0.746   0.614  1.1717  0.5800 -0.6598
 4491TIP3   OH235031   3.237   5.561   7.991 -0.4554  0.8614 -0.0631
 4491TIP3    H135032   3.207   5.563   7.900 -0.9377 -0.7551  0.0200
 4491TIP3    H235033   3.259   5.469   8.006  1.3164  1.4161  0.9335
 4492TIP3   OH235034   2.231   4.691   1.385  0.2285  0.0341  0.1934
 4492TIP3    H135035   2.281   4.626   1.434  2.0219  0.3217 -1.1670
 4492TIP3    H235036   2.241   4.665   1.293 -1.1449  0.8093 -0.2058
 4493TIP3   OH235037   5.052   0.966   1.418 -0.5378  0.0073  0.2485
 4493TIP3    H135038   5.120   1.022   1.457  1.0771 -0.2331 -2.0238
 4493TIP3    H235039   5.002   1.025   1.362  2.0991 -0.8542 -3.3357
 4494TIP3   OH235040   3.870   5.974   8.853  0.2821  0.2182  0.2641
 4494TIP3    H135041   3.950   6.023   8.837 -0.6544  2.2814  1.5799
 4494TIP3    H235042   3.799   6.030   8.821 -0.7040 -1.6586 -1.1136
 4495TIP3   OH235043   1.112   5.665   0.215 -0.6288  0.3016  0.0869
 4495TIP3    H135044   1.190   5.698   0.260 -1.1514  0.1216  1.1782
 4495TIP3    H235045   1.144   5.603   0.151  0.1113  0.0814  0.6648
 4496TIP3   OH235046   4.580   1.163   9.281  0.2717 -0.2106 -0.7232
 4496TIP3    H135047   4.590   1.258   9.286  2.8066 -0.4090 -1.0653
 4496TIP3    H235048   4.661   1.132   9.243 -0.6432 -2.5219 -0.9340
 4497TIP3   OH235049   0.513   5.449   8.302 -0.1065  0.3710 -0.3040
 4497TIP3    H135050   0.586   5.456   8.363  0.8845  2.3969 -1.5994
 4497TIP3    H235051   0.455   5.521   8.325 -1.0225 -0.3872 -0.1731
 4498TIP3   OH235052   5.717   5.794   8.262  0.4095 -0.0334  0.4933
 4498TIP3    H135053   5.752   5.797   8.173  0.1362  0.7177  0.4076
 4498TIP3    H235054   5.661   5.716   8.263 -1.3126  1.1267 -0.6488
 4499TIP3   OH235055   4.611   1.765   7.125 -0.7704  0.9967 -0.0919
 4499TIP3    H135056   4.673   1.733   7.191  1.0136  2.6328 -0.8719
 4499TIP3    H235057   4.642   1.728   7.043 -1.6863  0.7184 -0.3249
 4500TIP3   OH235058   3.481   2.397   1.762 -0.3132  0.0279 -0.1527
 4500TIP3    H135059   3.502   2.390   1.669  2.7067  2.2658  0.1901
 4500TIP3    H235060   3.530   2.325   1.803  0.6906  0.7278 -0.0809
 4501TIP3   OH235061   2.492   2.528   8.907  0.3200  0.3116 -0.6955
 4501TIP3    H135062   2.531   2.613   8.887  0.7122  0.0338 -1.1483
 4501TIP3    H235063   2.462   2.536   8.998  2.2771  0.2556  0.0151
 4502TIP3   OH235064   3.117   6.421   1.520  0.0276 -0.1667 -0.4220
 4502TIP3    H135065   3.065   6.464   1.452 -0.7089  0.0198  0.2423
 4502TIP3    H235066   3.206   6.452   1.505 -0.5183  1.8616  0.2178
 4503TIP3   OH235067   2.252   5.851   1.281  0.0688 -0.0931  0.2252
 4503TIP3    H135068   2.219   5.915   1.218  0.3840 -0.5278 -0.3903
 4503TIP3    H235069   2.324   5.807   1.236 -0.7473 -1.5447  0.2627
 4504TIP3   OH235070   5.399   3.624   2.182  0.4095  0.0181  0.5182
 4504TIP3    H135071   5.352   3.544   2.159  0.2465  0.7927 -2.1237
 4504TIP3    H235072   5.449   3.600   2.260  0.9122 -2.8615 -0.5642
 4505TIP3   OH235073   4.472   4.158   8.133 -0.1342  0.0787  0.0625
 4505TIP3    H135074   4.504   4.125   8.050 -0.0974 -0.2297  0.1959
 4505TIP3    H235075   4.387   4.197   8.113 -0.2247 -0.1909 -0.0809
 4506TIP3   OH235076   3.334   0.862   8.364 -0.2826  0.6358 -0.5548
 4506TIP3    H135077   3.282   0.851   8.443 -0.7677 -0.6135 -1.0363
 4506TIP3    H235078   3.272   0.854   8.292  0.5133 -0.6867 -1.1320
 4507TIP3   OH235079   1.829   3.633   1.317 -0.2757  0.4248 -0.1830
 4507TIP3    H135080   1.846   3.715   1.363  0.6233  0.6689 -0.9350
 4507TIP3    H235081   1.824   3.568   1.387  1.5171  0.7174  0.2644
 4508TIP3   OH235082   6.141   4.234   7.323  0.8008 -0.0673 -0.1149
 4508TIP3    H135083   6.065   4.197   7.278  0.4226 -0.3657  0.7454
 4508TIP3    H235084   6.142   4.191   7.408  1.4530  0.5467  0.2021
 4509TIP3   OH235085   2.792   1.663   0.841 -0.1981  0.0546  0.5525
 4509TIP3    H135086   2.702   1.694   0.829 -0.5208  0.2814  3.0584
 4509TIP3    H235087   2.783   1.586   0.897  0.8598 -2.7564 -2.7849
 4510TIP3   OH235088   3.333   1.148   7.682  0.5286  0.0196  0.3685
 4510TIP3    H135089   3.291   1.234   7.682  1.0937  0.3256  1.6438
 4510TIP3    H235090   3.426   1.167   7.673  0.6872 -0.4314  1.0254
 4511TIP3   OH235091   3.462   3.898   6.728 -0.1720  0.1959 -0.7376
 4511TIP3    H135092   3.372   3.885   6.699 -1.5075  2.1429  2.0867
 4511TIP3    H235093   3.509   3.928   6.650 -2.3994  0.8535 -1.8887
 4512TIP3   OH235094   2.716   6.128   9.225  0.4105  0.6262 -0.0880
 4512TIP3    H135095   2.766   6.093   9.299 -0.4595 -0.7052 -0.0871
 4512TIP3    H235096   2.662   6.197   9.263 -3.3316 -2.8154  1.6741
 4513TIP3   OH235097   1.041   1.326   0.618  0.4147 -0.3659 -0.0204
 4513TIP3    H135098   1.033   1.292   0.707  2.5391  0.5678  0.5932
 4513TIP3    H235099   1.054   1.420   0.629 -2.3271  0.2879 -1.5187
 4514TIP3   OH235100   3.776   5.093   8.476  0.1857  0.1440  0.2886
 4514TIP3    H135101   3.693   5.138   8.494 -0.3500 -1.2665  1.5610
 4514TIP3    H235102   3.758   5.001   8.497  0.8054 -1.0127 -3.4245
 4515TIP3   OH235103   5.681   3.307   8.661  0.6981  0.0207 -0.0717
 4515TIP3    H135104   5.587   3.297   8.673  0.9160 -0.7354  1.2450
 4515TIP3    H235105   5.696   3.285   8.569 -0.1085 -2.4666  0.3238
 4516TIP3   OH235106   2.644   3.474   8.939 -0.3639 -0.0976  0.3360
 4516TIP3    H135107   2.732   3.437   8.949  0.4532  1.4648 -0.6986
 4516TIP3    H235108   2.586   3.406   8.974  1.1325 -1.8314 -0.3309
 4517TIP3   OH235109   5.784   2.227   8.823 -0.3504 -0.4490 -0.2040
 4517TIP3    H135110   5.868   2.271   8.838 -0.4857 -0.5877  1.1141
 4517TIP3    H235111   5.806   2.155   8.763  0.4705 -0.4449  0.0690
 4518TIP3   OH235112   1.349   5.696   0.867  0.3525  0.1575  0.2063
 4518TIP3    H135113   1.342   5.697   0.771 -0.6238 -0.6254  0.2532
 4518TIP3    H235114   1.438   5.664   0.883  0.8129  1.0717 -0.4320
 4519TIP3   OH235115   5.450   3.149   6.510  0.2769  0.1858 -0.0513
 4519TIP3    H135116   5.470   3.240   6.531  1.9784 -0.1800  0.0398
 4519TIP3    H235117   5.515   3.098   6.559 -0.8838 -1.1137  0.2141
 4520TIP3   OH235118   6.204   6.259   9.140 -0.1753 -0.3678  0.6134
 4520TIP3    H135119   6.146   6.227   9.070  1.8245  1.9699 -2.3409
 4520TIP3    H235120   6.172   6.347   9.160  1.1713  0.2202  0.2872
 4521TIP3   OH235121   0.273   3.239   7.600 -0.6017 -0.0439  0.1690
 4521TIP3    H135122   0.355   3.285   7.618  0.6479 -1.5271 -1.3323
 4521TIP3    H235123   0.244   3.274   7.516 -0.3724 -0.9754 -0.3124
 4522TIP3   OH235124   2.166   1.848   8.374 -0.5899  0.1112 -0.6634
 4522TIP3    H135125   2.245   1.834   8.321 -0.4742 -1.2900 -0.1681
 4522TIP3    H235126   2.108   1.898   8.317  1.8428  4.3103  0.1086
 4523TIP3   OH235127   0.140   1.703   9.249 -0.4288  0.2412  0.7248
 4523TIP3    H135128   0.116   1.662   9.165  0.5070 -0.5797  0.8357
 4523TIP3    H235129   0.109   1.793   9.241 -0.6988  0.0761 -0.3566
 4524TIP3   OH235130   3.850   5.404   2.022  0.2144  0.3646  0.1578
 4524TIP3    H135131   3.777   5.344   2.006  1.2928 -0.9721  0.0668
 4524TIP3    H235132   3.870   5.393   2.115  1.5667 -0.8004 -0.2413
 4525TIP3   OH235133   6.017   0.822   7.661  0.2110 -0.2149  0.0860
 4525TIP3    H135134   6.053   0.904   7.692  1.5573 -0.4309 -0.8265
 4525TIP3    H235135   5.967   0.788   7.735  0.0232  1.1780  0.6278
 4526TIP3   OH235136   1.831   1.685   9.180 -0.1951 -0.7208 -0.3688
 4526TIP3    H135137   1.774   1.744   9.131 -0.2629 -0.6063 -0.1535
 4526TIP3    H235138   1.776   1.611   9.202 -0.8339  0.2290  1.4875
 4527TIP3   OH235139   1.979   4.403   1.604  0.4386  0.2349 -0.2796
 4527TIP3    H135140   1.907   4.437   1.551 -0.9859  0.2274  1.5547
 4527TIP3    H235141   1.945   4.320   1.640  1.5980 -0.0887  0.1133
 4528TIP3   OH235142   2.591   1.444   8.890 -0.1236 -0.4735  0.2456
 4528TIP3    H135143   2.533   1.387   8.941 -1.6294 -0.3419 -1.2356
 4528TIP3    H235144   2.535   1.480   8.822  1.3859  0.8455 -0.3579
 4529TIP3   OH235145   5.921   5.307   9.308  0.1733  0.7628 -0.2370
 4529TIP3    H135146   5.870   5.234   9.342 -0.0543  0.6022 -0.9042
 4529TIP3    H235147   6.012   5.280   9.316  0.1881  1.2365  1.3918
 4530TIP3   OH235148   5.739   2.130   8.197 -0.2483 -0.0368  0.5022
 4530TIP3    H135149   5.740   2.099   8.106  1.0346  0.7397  0.2240
 4530TIP3    H235150   5.676   2.202   8.196  0.9581  1.0583 -0.1956
 4531TIP3   OH235151   5.379   1.021   0.284 -0.0436 -0.4294  0.3636
 4531TIP3    H135152   5.290   1.029   0.318 -0.4173  1.0944 -0.8395
 4531TIP3    H235153   5.372   1.050   0.193  1.7349  0.0079  0.3325
 4532TIP3   OH235154   0.447   3.234   2.226 -0.2793  0.6033  0.1443
 4532TIP3    H135155   0.456   3.140   2.246 -1.2434  0.7216  1.1883
 4532TIP3    H235156   0.392   3.269   2.296  1.4604  2.3070  0.7647
 4533TIP3   OH235157   4.012   1.240   0.265 -0.5088  0.2408 -0.0206
 4533TIP3    H135158   4.004   1.226   0.359  0.6442  0.6593  0.1604
 4533TIP3    H235159   4.107   1.240   0.248 -0.4827  3.4960 -0.6165
 4534TIP3   OH235160   3.816   1.536   9.200 -0.0449 -0.4022 -0.5255
 4534TIP3    H135161   3.911   1.545   9.210 -0.1908 -0.0813  0.7222
 4534TIP3    H235162   3.784   1.626   9.198 -0.4015 -0.5221 -0.1557
 4535TIP3   OH235163   2.057   6.593   0.503  0.5405  0.2584 -0.8416
 4535TIP3    H135164   2.087   6.527   0.440 -2.7832 -4.3050  1.7328
 4535TIP3    H235165   2.136   6.617   0.551  1.7998 -3.3874 -0.7858
 4536TIP3   OH235166   2.156   4.994   0.392 -0.1040 -0.6019  0.3036
 4536TIP3    H135167   2.222   4.932   0.359  0.5341 -0.5664  1.4500
 4536TIP3    H235168   2.086   4.938   0.426 -0.3080 -0.6521 -0.1852
 4537TIP3   OH235169   4.000   5.340   1.405  0.3852  0.3936  0.3245
 4537TIP3    H135170   3.931   5.279   1.428 -1.4276  2.1422 -0.1812
 4537TIP3    H235171   4.080   5.287   1.405 -1.1549 -2.1169 -0.7934
 4538TIP3   OH235172   0.830   2.075   1.352  0.2029  0.1093  0.7588
 4538TIP3    H135173   0.746   2.119   1.336 -0.0567 -0.7406 -0.3387
 4538TIP3    H235174   0.895   2.145   1.343 -0.3145  0.6022  0.7274
 4539TIP3   OH235175   3.432   4.173   8.309  0.1945 -0.0159  0.1295
 4539TIP3    H135176   3.342   4.206   8.311  0.3490  0.4445 -0.1875
 4539TIP3    H235177   3.423   4.078   8.316 -0.3346 -0.0023 -0.2923
 4540TIP3   OH235178   3.656   6.184   1.131  0.1510 -0.1337 -0.5262
 4540TIP3    H135179   3.717   6.215   1.065  1.0489  0.5482  0.5769
 4540TIP3    H235180   3.707   6.186   1.213 -1.5916  1.3237  0.5846
 4541TIP3   OH235181   1.671   3.059   9.299 -0.6195 -0.4110  0.1168
 4541TIP3    H135182   1.700   3.052   9.208 -0.0638 -0.1180  0.2645
 4541TIP3    H235183   1.694   3.148   9.324  0.4102 -0.8920  0.9418
 4542TIP3   OH235184   2.864   5.766   0.332 -0.0533 -0.2435 -0.2599
 4542TIP3    H135185   2.844   5.702   0.401  0.5304 -1.2294 -0.9759
 4542TIP3    H235186   2.794   5.754   0.268 -1.4513  1.7159  0.8048
 4543TIP3   OH235187   2.187   0.990   2.368  0.3271  0.2241 -0.3127
 4543TIP3    H135188   2.179   0.901   2.400 -0.3069  0.9921  1.8041
 4543TIP3    H235189   2.281   1.008   2.370  0.3032  0.2797  1.2833
 4544TIP3   OH235190   5.091   6.052   6.890 -0.4445 -0.3625  0.1647
 4544TIP3    H135191   5.032   5.980   6.865  0.0057 -0.9285  0.6855
 4544TIP3    H235192   5.034   6.128   6.897 -1.1935 -0.9683  0.9917
 4545TIP3   OH235193   3.996   6.525   0.407 -0.1984 -0.6081  0.1005
 4545TIP3    H135194   3.950   6.443   0.424 -0.6666 -0.8617 -2.0301
 4545TIP3    H235195   3.927   6.587   0.383  0.3079 -0.1512 -0.2125
 4546TIP3   OH235196   0.129   2.654   9.157  0.6085 -0.1454 -0.2281
 4546TIP3    H135197   0.162   2.573   9.118  0.6859 -0.0340 -0.3943
 4546TIP3    H235198   0.039   2.633   9.182  0.2345  0.0604 -1.3258
 4547TIP3   OH235199   4.823   0.579   1.041 -0.1363 -0.2039  0.0195
 4547TIP3    H135200   4.770   0.559   1.118  0.6125  0.8240  0.8234
 4547TIP3    H235201   4.910   0.545   1.063 -0.0006 -0.2135 -0.5221
 4548TIP3   OH235202   3.016   3.368   7.319 -0.5618 -0.2543  0.1398
 4548TIP3    H135203   2.992   3.343   7.230  1.9446 -1.3993 -0.3111
 4548TIP3    H235204   2.958   3.315   7.375 -0.9765 -0.8462 -0.8215
 4549TIP3   OH235205   5.273   0.828   8.136  0.1473 -0.0621  0.0202
 4549TIP3    H135206   5.343   0.788   8.188  0.0197  0.3093  0.4864
 4549TIP3    H235207   5.196   0.772   8.152 -0.0854  0.4796  0.8398
 4550TIP3   OH235208   1.774   1.338   8.110 -0.1493 -0.0159  0.4850
 4550TIP3    H135209   1.860   1.352   8.149 -0.3956 -0.1937  1.1075
 4550TIP3    H235210   1.747   1.251   8.142 -0.4522 -0.0676  0.0998
 4551TIP3   OH235211   1.193   3.555   7.879 -0.1184 -0.1830 -0.2487
 4551TIP3    H135212   1.191   3.483   7.942 -0.4669 -0.4493 -0.5548
 4551TIP3    H235213   1.262   3.532   7.817 -0.6281 -0.5615 -0.6908
 4552TIP3   OH235214   6.585   2.000   2.279 -0.3763  0.2162  0.2846
 4552TIP3    H135215   6.575   2.018   2.372  1.7813  0.1901  0.5893
 4552TIP3    H235216   6.560   2.081   2.236 -1.1187  0.3219  0.8940
 4553TIP3   OH235217   0.143   6.319   2.128 -0.1371  0.8448  0.6193
 4553TIP3    H135218   0.236   6.341   2.119  0.3236 -0.2356  2.2840
 4553TIP3    H235219   0.143   6.230   2.163 -1.8072  0.8157  0.6111
 4554TIP3   OH235220   1.828   3.092   8.302  0.5569 -0.2273 -0.6231
 4554TIP3    H135221   1.920   3.092   8.277  0.6808  0.0633 -0.1804
 4554TIP3    H235222   1.790   3.165   8.252  0.4487 -0.6607 -1.1949
 4555TIP3   OH235223   2.897   0.175   8.933  0.1251  0.5470  0.0279
 4555TIP3    H135224   2.858   0.119   8.866 -0.7088  0.9386  0.1844
 4555TIP3    H235225   2.991   0.168   8.917 -0.0531  0.5045 -1.0750
 4556TIP3   OH235226   6.143   4.950   2.641 -0.4400  0.0847 -0.2077
 4556TIP3    H135227   6.186   4.922   2.722 -0.8175  2.8878  1.0977
 4556TIP3    H235228   6.081   4.880   2.622 -0.3655 -0.6737  1.9881
 4557TIP3   OH235229   0.936   2.419   0.297  0.3893 -0.3836 -0.2476
 4557TIP3    H135230   0.868   2.413   0.365  2.8501  1.3413  2.6338
 4557TIP3    H235231   0.902   2.485   0.236 -0.1502  1.3009  1.7373
 4558TIP3   OH235232   1.994   1.962   8.224 -0.5397 -0.4008  0.1986
 4558TIP3    H135233   1.916   2.016   8.232 -1.0533 -0.7868 -1.7564
 4558TIP3    H235234   1.978   1.906   8.148  2.6101  1.2687 -1.9514
 4559TIP3   OH235235   6.481   1.296   1.603  0.3289  0.6234 -0.0545
 4559TIP3    H135236   6.428   1.266   1.677  1.7615  0.6090  1.0212
 4559TIP3    H235237   6.420   1.302   1.530 -0.8712 -0.6403  0.8038
 4560TIP3   OH235238   0.977   2.653   2.236 -0.5047  0.2021  0.0347
 4560TIP3    H135239   1.011   2.609   2.314  0.5271 -0.3795 -0.7117
 4560TIP3    H235240   0.927   2.585   2.191 -0.0070  0.1594 -0.4615
 4561TIP3   OH235241   5.798   1.322   1.177 -0.0649 -0.1045 -0.1512
 4561TIP3    H135242   5.718   1.280   1.146 -0.0809 -0.5248  0.4521
 4561TIP3    H235243   5.773   1.414   1.190  0.0589  0.1912 -1.7835
 4562TIP3   OH235244   3.780   5.995   0.034  0.1442 -0.1004  0.0261
 4562TIP3    H135245   3.748   5.905   0.020 -1.4569  0.4044  0.2097
 4562TIP3    H235246   3.852   6.005  -0.028  0.3190 -1.4971 -0.0320
 4563TIP3   OH235247   3.870   1.009   1.557 -0.2691 -0.1563  0.2344
 4563TIP3    H135248   3.788   0.989   1.512 -1.1027  0.2445  1.5250
 4563TIP3    H235249   3.871   1.105   1.563  1.2361 -0.0213 -1.4317
 4564TIP3   OH235250   2.934   2.414   7.315  0.4034  0.3920  0.4289
 4564TIP3    H135251   2.901   2.351   7.251  3.4436 -1.0874  0.1085
 4564TIP3    H235252   2.949   2.494   7.265  2.8407 -0.7790 -0.8647
 4565TIP3   OH235253   3.409   2.074   8.996  0.0119  0.0216 -0.0785
 4565TIP3    H135254   3.329   2.027   8.972  0.8226 -2.0336  0.9587
 4565TIP3    H235255   3.431   2.041   9.083  2.4312 -0.1309 -0.6746
 4566TIP3   OH235256   0.707   1.191   8.678  0.1441  0.3771  0.3377
 4566TIP3    H135257   0.613   1.189   8.659  0.3776 -0.9681 -0.8468
 4566TIP3    H235258   0.712   1.183   8.773 -0.9251 -0.9975  0.3084
 4567TIP3   OH235259   2.478   6.254   7.690 -0.4281  0.1068  0.2326
 4567TIP3    H135260   2.436   6.311   7.754 -0.4197  0.3967 -0.0196
 4567TIP3    H235261   2.439   6.279   7.607  0.2669  0.4043 -0.0072
 4568TIP3   OH235262   3.932   4.105   2.705  0.3468 -0.0570  0.4740
 4568TIP3    H135263   3.872   4.033   2.723  0.6008 -0.1570  0.9282
 4568TIP3    H235264   3.877   4.172   2.664  0.0093 -0.3022  0.5224
 4569TIP3   OH235265   3.872   4.326   7.571  0.0520  0.2376  0.3819
 4569TIP3    H135266   3.835   4.244   7.604  0.5615  0.0232  0.4174
 4569TIP3    H235267   3.796   4.373   7.536 -0.6487  0.7684  2.4159
 4570TIP3   OH235268   2.168   0.449   1.186 -0.0380  0.0301 -0.4986
 4570TIP3    H135269   2.233   0.510   1.152  0.0685 -0.6362 -1.5548
 4570TIP3    H235270   2.095   0.454   1.124 -0.8101  0.4271  0.4201
 4571TIP3   OH235271   6.352   4.413   1.512 -1.0616  0.5852 -0.3459
 4571TIP3    H135272   6.360   4.365   1.429  2.2364  0.9523 -0.3881
 4571TIP3    H235273   6.331   4.503   1.485  1.1770  0.9857 -0.9877
 4572TIP3   OH235274   0.049   4.146   7.268  0.0904  0.1597 -0.5943
 4572TIP3    H135275   0.060   4.155   7.174  0.8501 -0.4447 -0.5710
 4572TIP3    H235276  -0.045   4.151   7.282  0.0258  1.0488 -1.2955
 4573TIP3   OH235277   1.575   2.101   1.899  0.3775 -0.3874 -0.0787
 4573TIP3    H135278   1.617   2.101   1.985 -0.7125  0.9545  0.4963
 4573TIP3    H235279   1.481   2.106   1.919  0.0511 -1.0462 -1.3500
 4574TIP3   OH235280   1.162   1.438   7.138 -0.2297  0.0741  0.2129
 4574TIP3    H135281   1.074   1.437   7.101 -0.6562 -0.5591  1.2155
 4574TIP3    H235282   1.220   1.443   7.062 -1.1297  2.2945 -0.4166
 4575TIP3   OH235283   2.355   1.611   0.287  0.0105  0.6694  0.8398
 4575TIP3    H135284   2.302   1.607   0.207  0.5041  1.6845  0.4516
 4575TIP3    H235285   2.395   1.697   0.285  0.3729  0.5414  1.9782
 4576TIP3   OH235286   4.108   0.954   7.388  0.4686 -0.0108 -0.1794
 4576TIP3    H135287   4.200   0.951   7.362 -0.3926  0.1650 -3.9217
 4576TIP3    H235288   4.091   0.867   7.423  1.4873 -1.1213 -2.2057
 4577TIP3   OH235289   2.831   4.556   9.180 -0.3348  0.5096 -0.0595
 4577TIP3    H135290   2.925   4.551   9.199  0.2469 -0.8222 -2.8671
 4577TIP3    H235291   2.815   4.648   9.158  1.0583  0.2315 -2.5853
 4578TIP3   OH235292   0.509   2.556   1.354 -0.2335  0.1691  0.1731
 4578TIP3    H135293   0.418   2.582   1.367 -0.5867 -1.0797  0.3575
 4578TIP3    H235294   0.506   2.460   1.345  1.1793 -0.0380  1.4173
 4579TIP3   OH235295   5.213   1.010   7.478  0.3742  0.5364  0.1019
 4579TIP3    H135296   5.204   0.947   7.407  0.0910 -0.3229  0.8774
 4579TIP3    H235297   5.307   1.013   7.496  0.4482  0.7689 -0.3074
 4580TIP3   OH235298   5.190   2.988   1.497 -0.0089 -0.2493 -0.6920
 4580TIP3    H135299   5.215   2.911   1.446 -0.2097 -0.0418 -1.1096
 4580TIP3    H235300   5.107   2.964   1.538  0.8024 -0.9020  0.6160
 4581TIP3   OH235301   1.178   1.046   8.245 -0.2680  0.0170 -0.1447
 4581TIP3    H135302   1.270   1.059   8.265 -0.3131 -1.0371  0.8861
 4581TIP3    H235303   1.134   1.050   8.330 -1.3129  1.3736 -0.7071
 4582TIP3   OH235304   3.344   0.500   7.243  0.1869  0.1594  0.2761
 4582TIP3    H135305   3.350   0.546   7.159 -0.4205 -0.2799 -0.0166
 4582TIP3    H235306   3.301   0.417   7.222 -1.6780  0.8093  1.3102
 4583TIP3   OH235307   3.029   5.782   1.419  0.1097  0.7793 -0.2919
 4583TIP3    H135308   3.076   5.728   1.483 -0.9272 -0.9921 -0.9601
 4583TIP3    H235309   3.094   5.802   1.352  1.1966  2.5967  1.1955
 4584TIP3   OH235310   0.854   4.583   8.349  0.1145 -0.2873  0.3929
 4584TIP3    H135311   0.774   4.581   8.401 -0.3275 -1.9984 -0.2865
 4584TIP3    H235312   0.839   4.652   8.285 -1.0292 -0.8682  0.0022
 4585TIP3   OH235313   1.359   5.699   0.591  0.1670  0.5421  0.4646
 4585TIP3    H135314   1.430   5.648   0.552 -0.2443  0.4604 -0.1902
 4585TIP3    H235315   1.383   5.790   0.575 -0.4514  0.4966 -0.8245
 4586TIP3   OH235316   6.627   5.134   6.738 -0.4873  0.3585  0.2869
 4586TIP3    H135317   6.719   5.120   6.763 -0.9848 -2.6437  0.8007
 4586TIP3    H235318   6.591   5.186   6.809  0.7151  1.2881  0.2494
 4587TIP3   OH235319   1.547   5.614   7.805 -0.1634 -0.2997 -0.9075
 4587TIP3    H135320   1.608   5.572   7.745 -0.0579  2.3813 -2.8677
 4587TIP3    H235321   1.469   5.629   7.753 -0.2919  1.6028 -0.2424
 4588TIP3   OH235322   2.687   4.610   8.081 -0.4072 -0.2408  0.0228
 4588TIP3    H135323   2.618   4.660   8.124  0.7174  0.8521  0.6223
 4588TIP3    H235324   2.751   4.593   8.150  0.6446  0.1062 -0.8337
 4589TIP3   OH235325   4.288   3.682   8.022  0.6270 -0.3416  0.4607
 4589TIP3    H135326   4.337   3.695   7.940 -0.1204 -0.0557  0.0545
 4589TIP3    H235327   4.265   3.589   8.021  2.2991 -0.8092  1.3104
 4590TIP3   OH235328   6.424   4.913   1.476 -0.2755  0.0243  0.2808
 4590TIP3    H135329   6.436   5.006   1.457  0.4123 -0.1653 -0.2196
 4590TIP3    H235330   6.362   4.883   1.410 -3.1587  0.8169  2.3749
 4591TIP3   OH235331   5.487   6.299   7.837 -0.4021  0.0209  0.0343
 4591TIP3    H135332   5.392   6.302   7.828 -0.4343  1.2579  0.5789
 4591TIP3    H235333   5.513   6.220   7.789 -1.5322  0.5357 -1.4946
 4592TIP3   OH235334   4.763   6.294   7.037  0.1972 -0.6214  0.0001
 4592TIP3    H135335   4.671   6.277   7.052 -0.2542  1.4269 -0.1222
 4592TIP3    H235336   4.776   6.277   6.943 -0.3019 -0.0023 -0.1871
 4593TIP3   OH235337   5.169   6.253   8.785 -0.4534  0.3812 -0.2952
 4593TIP3    H135338   5.206   6.305   8.714 -0.1485 -0.2992 -0.6419
 4593TIP3    H235339   5.179   6.163   8.757  0.3256  0.0554  0.8976
 4594TIP3   OH235340   5.320   2.539   7.483 -0.2098 -0.1302 -0.0094
 4594TIP3    H135341   5.307   2.634   7.479  0.1920 -0.0965 -0.8520
 4594TIP3    H235342   5.237   2.502   7.454 -1.6830 -0.1668  3.7037
 4595TIP3   OH235343   2.975   0.001   8.655  0.1574 -0.0601  0.6278
 4595TIP3    H135344   2.932  -0.020   8.572  0.3952 -1.0765  0.7493
 4595TIP3    H235345   2.916  -0.035   8.722  0.3752  0.0108  0.8609
 4596TIP3   OH235346   5.154   4.504   7.009 -0.0596  0.3849  0.3895
 4596TIP3    H135347   5.170   4.575   6.946  0.0988 -0.1847 -0.2378
 4596TIP3    H235348   5.070   4.524   7.048 -0.6673  0.2206 -0.7782
 4597TIP3   OH235349   2.850   6.301   2.117 -0.1268  0.1561  0.2223
 4597TIP3    H135350   2.840   6.359   2.193 -0.1289  0.8415 -0.2877
 4597TIP3    H235351   2.879   6.218   2.154 -0.8927  0.2365  1.0547
 4598TIP3   OH235352   1.134   4.732   7.373  0.3233 -0.0239  0.4009
 4598TIP3    H135353   1.113   4.795   7.442  0.4697  1.8769 -1.1980
 4598TIP3    H235354   1.102   4.774   7.292  0.4346 -2.0211 -0.7333
 4599TIP3   OH235355   3.725   3.657   8.782  0.3882  0.2175  0.5149
 4599TIP3    H135356   3.632   3.634   8.790 -0.1076  1.7749 -0.4171
 4599TIP3    H235357   3.735   3.683   8.690  0.7472  3.9971  1.4546
 4600TIP3   OH235358   3.624   5.901   8.019  0.0999  0.4623 -0.3849
 4600TIP3    H135359   3.566   5.929   8.090  0.5613 -1.6049  0.9043
 4600TIP3    H235360   3.690   5.970   8.013 -0.5449  1.1804  0.4799
 4601TIP3   OH235361   2.519   3.659   8.324 -0.1300  0.4323  0.2195
 4601TIP3    H135362   2.593   3.609   8.288 -1.8615 -1.0687 -1.4743
 4601TIP3    H235363   2.463   3.593   8.365 -2.2169  0.9692 -1.6015
 4602TIP3   OH235364   0.660   3.533   8.585  0.3452 -0.0816 -0.9176
 4602TIP3    H135365   0.688   3.605   8.642 -1.3883 -0.1083  0.0500
 4602TIP3    H235366   0.564   3.534   8.592  0.1804 -1.0262 -2.7234
 4603TIP3   OH235367   4.166   4.170   0.116  0.1418  0.3730  0.0050
 4603TIP3    H135368   4.103   4.132   0.178 -0.4603 -0.2831 -0.9867
 4603TIP3    H235369   4.193   4.096   0.062  1.1218  0.8246 -0.1268
 4604TIP3   OH235370   1.897   0.959   7.459  0.0367 -0.1548 -0.6230
 4604TIP3    H135371   1.856   0.873   7.454 -1.8959  0.6352  0.6328
 4604TIP3    H235372   1.854   1.002   7.532  1.2045  1.7809 -1.0057
 4605TIP3   OH235373   5.147   4.691   2.090  0.4823 -1.5014  0.8976
 4605TIP3    H135374   5.166   4.676   2.182 -1.7132 -0.0173  1.6995
 4605TIP3    H235375   5.092   4.617   2.064  0.0678 -1.3059  1.1890
 4606TIP3   OH235376   1.403   5.125   9.182  0.1825 -0.4086  0.3355
 4606TIP3    H135377   1.455   5.056   9.222  3.2806  1.3112 -0.4295
 4606TIP3    H235378   1.414   5.113   9.088  0.0602  0.6139  0.1757
 4607TIP3   OH235379   4.812   6.173   6.798  0.1208  0.2922 -0.2791
 4607TIP3    H135380   4.751   6.204   6.731 -0.0416  1.0488  0.2237
 4607TIP3    H235381   4.811   6.077   6.788 -1.0200  0.3088 -0.3743
 4608TIP3   OH235382   1.472   5.905   8.929 -0.1362  0.3262  0.0915
 4608TIP3    H135383   1.518   5.878   9.008  0.3403  0.8998  0.0251
 4608TIP3    H235384   1.541   5.943   8.874 -0.2059 -1.2238 -1.1481
 4609TIP3   OH235385   2.620   2.122   7.981  0.0936  0.0623  0.0115
 4609TIP3    H135386   2.628   2.153   8.071 -2.3506 -1.8428  1.0020
 4609TIP3    H235387   2.541   2.164   7.948  0.6770  0.3347 -1.1007
 4610TIP3   OH235388   6.395   3.024   0.644 -1.1686  0.5583  0.2212
 4610TIP3    H135389   6.386   3.015   0.549 -0.1037 -0.7027  0.2145
 4610TIP3    H235390   6.316   3.072   0.671 -1.7611  0.4503 -1.2218
 4611TIP3   OH235391   5.485   4.510   7.212 -0.0215 -0.2977 -0.4860
 4611TIP3    H135392   5.492   4.605   7.199 -2.3961  0.1732  1.0290
 4611TIP3    H235393   5.542   4.492   7.286 -0.1646  0.0965 -0.2783
 4612TIP3   OH235394   1.687   6.472   8.199 -0.3032  0.0721  0.5062
 4612TIP3    H135395   1.647   6.549   8.158  2.1954  0.6925 -0.9970
 4612TIP3    H235396   1.700   6.410   8.127  1.3093 -0.1062  0.9051
 4613TIP3   OH235397   3.023   1.047   8.412  0.0743  0.0337  0.8162
 4613TIP3    H135398   3.034   0.984   8.342 -2.8965 -1.0087  1.1357
 4613TIP3    H235399   2.972   1.118   8.373  1.0618  0.9690  1.1645
 4614TIP3   OH235400   4.506   0.649   7.240  0.6586 -0.4028 -0.1219
 4614TIP3    H135401   4.497   0.685   7.329  1.0026 -0.1551 -0.1884
 4614TIP3    H235402   4.534   0.723   7.187 -2.0905  0.1409 -0.9826
 4615TIP3   OH235403   6.012   4.583   8.044 -0.6367 -0.0158  0.0646
 4615TIP3    H135404   5.995   4.553   8.133  2.6915 -0.8952  0.5135
 4615TIP3    H235405   5.975   4.515   7.989  0.8808 -1.6306  0.9418
 4616TIP3   OH235406   1.252   1.327   2.239  0.0242 -0.0475 -0.1112
 4616TIP3    H135407   1.325   1.386   2.261  0.2115 -0.5772  0.7264
 4616TIP3    H235408   1.176   1.385   2.232  0.2290  0.3198  0.5810
 4617TIP3   OH235409   1.149   5.855   9.192  0.7460  0.3921 -0.7212
 4617TIP3    H135410   1.198   5.902   9.260 -1.1610 -0.7281  1.5577
 4617TIP3    H235411   1.133   5.921   9.125  1.9214  1.8022  0.2968
 4618TIP3   OH235412   6.526   1.709   7.820  0.0804  0.5240 -0.3410
 4618TIP3    H135413   6.467   1.667   7.883 -1.6247  0.6807 -1.7627
 4618TIP3    H235414   6.537   1.644   7.751  1.7909  0.4215 -0.0102
 4619TIP3   OH235415   5.612   2.552   9.127 -0.3036 -0.1755  0.1050
 4619TIP3    H135416   5.548   2.589   9.066 -1.2380  0.0486  1.1949
 4619TIP3    H235417   5.673   2.624   9.143  0.8835 -0.6997 -1.7512
 4620TIP3   OH235418   4.650   3.777   6.575 -0.2463  0.7072  0.1437
 4620TIP3    H135419   4.602   3.785   6.657 -0.6142 -0.2516  0.0399
 4620TIP3    H235420   4.582   3.773   6.508  0.0344  0.9325 -0.1575
 4621TIP3   OH235421   6.249   3.966   6.740  0.2265 -0.1233 -0.2747
 4621TIP3    H135422   6.253   3.898   6.807  0.2373 -0.1657 -0.3195
 4621TIP3    H235423   6.175   3.941   6.684  1.8407 -1.5328 -1.8888
 4622TIP3   OH235424   4.701   5.219   7.499  0.4138  0.1082  0.1347
 4622TIP3    H135425   4.707   5.313   7.481 -0.5677 -0.0473 -1.0950
 4622TIP3    H235426   4.670   5.180   7.417  0.2089 -1.2162  0.8100
 4623TIP3   OH235427   2.172   3.892   1.721 -0.2970  0.1941  0.3756
 4623TIP3    H135428   2.221   3.948   1.781 -0.0402  1.3615 -0.8645
 4623TIP3    H235429   2.111   3.844   1.777  0.7379  0.3537  1.6878
 4624TIP3   OH235430   5.705   4.101   2.034  0.5174 -0.2127 -0.0327
 4624TIP3    H135431   5.617   4.101   1.997  1.4899 -0.8525 -2.5537
 4624TIP3    H235432   5.762   4.114   1.959  2.5636  1.3148  1.6691
 4625TIP3   OH235433   2.617   3.446   1.225 -0.6511 -0.4561  0.3544
 4625TIP3    H135434   2.646   3.378   1.287 -0.9536 -0.5375  0.4062
 4625TIP3    H235435   2.698   3.487   1.196 -0.3845 -1.5099 -0.4506
 4626TIP3   OH235436   1.658   1.062   2.359  0.4181 -0.9400  0.6591
 4626TIP3    H135437   1.714   1.046   2.435  0.5561 -0.2146  0.7198
 4626TIP3    H235438   1.606   1.138   2.384  0.6344 -0.5464 -0.0652
 4627TIP3   OH235439   6.462   6.189   0.571  0.0442 -0.0915  0.0257
 4627TIP3    H135440   6.371   6.218   0.570  0.0958  0.1368  1.2115
 4627TIP3    H235441   6.469   6.134   0.649  1.6428  2.3552  1.7411
 4628TIP3   OH235442   5.028   6.192   7.958  1.1782 -0.0900  0.1032
 4628TIP3    H135443   5.029   6.152   7.872  0.5482 -1.4507  0.6969
 4628TIP3    H235444   5.100   6.150   8.005  0.4075 -0.6853  0.7893
 4629TIP3   OH235445   3.218   3.877   1.197 -0.0860 -0.1781  0.3511
 4629TIP3    H135446   3.183   3.844   1.115  0.7658 -1.1386  0.3479
 4629TIP3    H235447   3.285   3.813   1.222 -1.1298 -0.5663  2.3896
 4630TIP3   OH235448   3.742   3.567   1.540 -0.3654  0.4274 -0.6647
 4630TIP3    H135449   3.819   3.577   1.485 -0.5643  1.0585 -0.8368
 4630TIP3    H235450   3.743   3.475   1.567 -0.3374  0.0796 -1.8241
 4631TIP3   OH235451   3.578   1.315   1.526  0.1303  0.0273  0.2243
 4631TIP3    H135452   3.669   1.342   1.536  0.0114  0.2350  0.8114
 4631TIP3    H235453   3.531   1.368   1.590 -0.4559  0.1870 -0.3345
 4632TIP3   OH235454   6.284   3.014   1.966  0.0912 -0.0626  0.1456
 4632TIP3    H135455   6.208   3.015   1.907  1.5675 -2.3208 -1.9829
 4632TIP3    H235456   6.306   3.106   1.978 -0.2263  0.5211 -3.0100
 4633TIP3   OH235457   0.978   4.349   9.270  0.0051  0.2107  0.0311
 4633TIP3    H135458   1.068   4.324   9.288  0.5551  1.3477 -0.9687
 4633TIP3    H235459   0.979   4.445   9.271 -1.3001  0.2366  0.5012
 4634TIP3   OH235460   3.389   0.414   7.527  0.4733  0.1792 -0.6072
 4634TIP3    H135461   3.405   0.496   7.573  1.8570 -0.2327 -0.3188
 4634TIP3    H235462   3.378   0.439   7.435  0.0398  0.7574 -0.4039
 4635TIP3   OH235463   5.987   4.498   8.604 -0.5806 -0.0049  0.1479
 4635TIP3    H135464   5.973   4.403   8.595 -1.3618  0.0252  0.9018
 4635TIP3    H235465   6.071   4.506   8.648 -0.6752 -0.3638  0.3980
 4636TIP3   OH235466   5.998   1.439   0.862 -0.0839  0.4281 -0.4790
 4636TIP3    H135467   5.935   1.509   0.880  2.1920  3.0973 -2.0338
 4636TIP3    H235468   5.972   1.404   0.777 -0.6845 -0.0135 -0.1242
 4637TIP3   OH235469   1.659   2.628   2.052 -0.1736 -1.0387  0.1532
 4637TIP3    H135470   1.706   2.545   2.051 -1.1358 -1.6911  2.2618
 4637TIP3    H235471   1.726   2.694   2.071  0.4209 -1.4439 -0.4741
 4638TIP3   OH235472   6.181   1.039   7.712  0.0368 -0.1562  0.6909
 4638TIP3    H135473   6.201   1.132   7.710 -1.0239  0.0795 -0.2332
 4638TIP3    H235474   6.265   0.996   7.729  1.0749  0.8303 -1.4874
 4639TIP3   OH235475   2.915   4.369   0.094  0.2143  0.0184 -0.2847
 4639TIP3    H135476   2.877   4.376   0.006 -0.5837 -3.6690 -0.4005
 4639TIP3    H235477   2.840   4.372   0.153  0.4812  0.0098  0.0575
 4640TIP3   OH235478   3.787   1.691   8.665 -0.4592  0.5780  0.0809
 4640TIP3    H135479   3.728   1.619   8.641  0.2338 -0.0873  0.3379
 4640TIP3    H235480   3.779   1.753   8.593 -3.0801  1.5270  1.0585
 4641TIP3   OH235481   0.809   0.516   1.561  0.1676  0.2941 -0.5958
 4641TIP3    H135482   0.836   0.606   1.542  2.4604 -0.0294  0.7154
 4641TIP3    H235483   0.875   0.462   1.517 -0.3929 -0.7045 -0.2375
 4642TIP3   OH235484   3.799   6.229   1.663 -0.2358  0.3869  0.2335
 4642TIP3    H135485   3.884   6.185   1.659  1.0613  2.8692 -2.6937
 4642TIP3    H235486   3.758   6.211   1.578 -1.5267  1.3712  0.6151
 4643TIP3   OH235487   3.283   1.150   8.361 -0.2245  0.6407 -0.0190
 4643TIP3    H135488   3.200   1.150   8.408 -0.4251 -0.2909 -0.3605
 4643TIP3    H235489   3.306   1.058   8.352  0.4349  0.8578 -0.6682
 4644TIP3   OH235490   5.670   6.384   1.583  0.6477 -0.1225  0.1370
 4644TIP3    H135491   5.702   6.304   1.539 -1.2635 -1.0701  0.3456
 4644TIP3    H235492   5.603   6.418   1.523  0.7937  0.8258  0.5000
 4645TIP3   OH235493   4.354   6.018   1.452 -0.6564 -0.0397  0.4289
 4645TIP3    H135494   4.399   6.099   1.430 -1.5736  0.2706 -0.3728
 4645TIP3    H235495   4.377   6.002   1.544  0.2854  0.6154  0.3255
 4646TIP3   OH235496   3.702   0.581   2.080 -0.2928  0.0824  0.4921
 4646TIP3    H135497   3.669   0.555   1.994  1.0527  1.1277 -0.3951
 4646TIP3    H235498   3.769   0.516   2.101 -0.8478 -0.3584  0.9101
 4647TIP3   OH235499   1.644   2.969   8.573 -0.9535  0.2066  0.2668
 4647TIP3    H135500   1.690   3.016   8.503 -0.2231  1.0631  1.2866
 4647TIP3    H235501   1.556   3.006   8.574 -0.5346  1.2444  0.7281
 4648TIP3   OH235502   5.860   0.944   8.687  0.6764  0.1826  0.4830
 4648TIP3    H135503   5.853   0.848   8.684  0.7546  0.2000 -1.4170
 4648TIP3    H235504   5.771   0.973   8.706  0.2979 -0.2409 -0.5631
 4649TIP3   OH235505   2.756   6.400   8.276 -0.5248  0.3901 -0.3597
 4649TIP3    H135506   2.782   6.472   8.334 -1.4804  0.0111  0.5724
 4649TIP3    H235507   2.724   6.443   8.197 -0.6582  0.9729  0.0028
 4650TIP3   OH235508   1.555   6.055   7.902  0.0595  0.3784 -0.1310
 4650TIP3    H135509   1.626   6.027   7.958 -0.0115 -0.4615 -0.4522
 4650TIP3    H235510   1.548   5.987   7.836  0.3901  1.5291 -1.3958
 4651TIP3   OH235511   3.778   6.097   8.296 -0.3764  0.4300 -0.2794
 4651TIP3    H135512   3.758   6.032   8.364 -0.2900  1.0860  0.3763
 4651TIP3    H235513   3.814   6.045   8.224  0.8941 -0.1379  0.7162
 4652TIP3   OH235514   2.784   1.598   9.014  0.0111  0.7943  0.6123
 4652TIP3    H135515   2.737   1.681   9.005 -1.3023  0.1804  1.5606
 4652TIP3    H235516   2.731   1.534   8.967  2.0344  0.7846 -1.8745
 4653TIP3   OH235517   0.282   5.855   8.099 -0.6963  0.0383 -0.5536
 4653TIP3    H135518   0.249   5.765   8.093 -0.2038 -0.1422 -0.5874
 4653TIP3    H235519   0.219   5.900   8.156 -0.4281 -0.5829  0.2528
 4654TIP3   OH235520   4.565   6.161   7.943 -0.6131  0.2511  0.0525
 4654TIP3    H135521   4.632   6.132   8.006 -0.4935 -2.0804 -1.0489
 4654TIP3    H235522   4.615   6.189   7.867 -0.8409 -0.2252 -0.2763
 4655TIP3   OH235523   2.639   1.603   7.756  0.1368 -0.1449  0.3481
 4655TIP3    H135524   2.587   1.610   7.677  0.5567  0.6892  0.1387
 4655TIP3    H235525   2.609   1.675   7.812  0.1098 -0.4929  0.7893
 4656TIP3   OH235526   0.789   6.293   0.487 -0.4051 -0.3937 -0.0054
 4656TIP3    H135527   0.749   6.327   0.566 -1.6355  2.5085 -1.7341
 4656TIP3    H235528   0.848   6.363   0.457 -1.2519 -0.6273 -2.4917
 4657TIP3   OH235529   0.136   0.200   1.053  0.0165  0.1795 -0.0568
 4657TIP3    H135530   0.139   0.281   1.001 -0.5543  0.3896  0.2171
 4657TIP3    H235531   0.209   0.208   1.114  0.8150 -0.1631 -0.9452
 4658TIP3   OH235532   4.955   2.158   9.016  0.0792 -0.1673 -0.5824
 4658TIP3    H135533   5.030   2.106   9.044 -0.0166 -0.4572 -0.8656
 4658TIP3    H235534   4.901   2.098   8.965  1.1267  0.7732 -2.9689
 4659TIP3   OH235535   4.332   1.956   0.588 -0.2806  0.1373 -0.3480
 4659TIP3    H135536   4.314   2.027   0.527  1.7775 -1.9074 -3.6120
 4659TIP3    H235537   4.275   1.885   0.559  1.7197 -1.3229 -0.8546
 4660TIP3   OH235538   5.457   4.533   2.214 -0.0040  0.1918 -0.2381
 4660TIP3    H135539   5.396   4.515   2.142  1.5760 -0.4509 -1.4610
 4660TIP3    H235540   5.503   4.450   2.228 -0.2602  0.3003  1.5462
 4661TIP3   OH235541   6.040   5.818   8.270  0.1849  0.1722  0.5281
 4661TIP3    H135542   6.031   5.817   8.175  1.7212 -2.0398  0.3462
 4661TIP3    H235543   5.954   5.790   8.303  0.4187 -1.7214 -0.3530
 4662TIP3   OH235544   5.161   0.415   8.569  0.2278 -0.3267 -0.5849
 4662TIP3    H135545   5.148   0.388   8.660  0.8109  0.5068 -0.2407
 4662TIP3    H235546   5.224   0.351   8.535  2.6478  1.2469  0.6243
 4663TIP3   OH235547   2.825   4.705   8.793  0.5579 -0.3555  0.0412
 4663TIP3    H135548   2.885   4.750   8.734  0.1446 -0.0444 -0.1465
 4663TIP3    H235549   2.750   4.764   8.801  1.0812  0.1233  1.7667
 4664TIP3   OH235550   5.936   5.723   1.812  0.1572  0.2933 -0.4308
 4664TIP3    H135551   5.952   5.705   1.720 -2.7557  0.8372 -1.1415
 4664TIP3    H235552   5.918   5.638   1.852  2.4442 -0.0751 -0.0510
 4665TIP3   OH235553   5.439   3.427   6.496 -0.2291 -0.7909  0.2336
 4665TIP3    H135554   5.359   3.449   6.449 -1.4805  2.1634  3.3321
 4665TIP3    H235555   5.501   3.496   6.472  0.7830 -1.9437 -0.6125
 4666TIP3   OH235556   1.724   2.061   6.977 -0.3391  0.5618  0.2450
 4666TIP3    H135557   1.774   1.980   6.966 -0.6566  0.5887 -1.8005
 4666TIP3    H235558   1.635   2.032   6.998 -0.1837  0.4340  0.7519
 4667TIP3   OH235559   2.606   1.726   6.694 -0.5588 -0.4103  0.3564
 4667TIP3    H135560   2.529   1.783   6.694  0.6417  1.2748  1.1078
 4667TIP3    H235561   2.656   1.752   6.772  0.9527 -1.2176 -0.2966
 4668TIP3   OH235562   2.221   3.743   1.292 -0.0180  0.3153  0.3618
 4668TIP3    H135563   2.303   3.728   1.246 -0.5706 -0.7123 -0.3276
 4668TIP3    H235564   2.178   3.658   1.294 -1.8962  1.1435 -0.9437
 4669TIP3   OH235565   5.818   4.248   8.551 -0.3082 -0.2941 -0.1102
 4669TIP3    H135566   5.901   4.230   8.507 -0.2276 -0.9977  0.3246
 4669TIP3    H235567   5.759   4.276   8.481  0.0234 -0.7005 -0.5535
 4670TIP3   OH235568   1.759   5.218   8.099 -0.5383 -0.1529 -0.0952
 4670TIP3    H135569   1.790   5.127   8.094 -0.8954 -0.4747  2.3336
 4670TIP3    H235570   1.772   5.243   8.191 -1.5632  1.8630 -0.4362
 4671TIP3   OH235571   3.886   5.594   1.797 -0.1929 -0.4338  0.7303
 4671TIP3    H135572   3.883   5.548   1.881 -0.5575  0.6562  1.3351
 4671TIP3    H235573   3.977   5.585   1.769  0.4589  0.9017  2.2528
 4672TIP3   OH235574   6.390   6.266   0.879 -0.9005 -0.0996  0.2114
 4672TIP3    H135575   6.473   6.243   0.919 -0.5150 -1.2541 -1.1720
 4672TIP3    H235576   6.329   6.198   0.909 -1.3838  0.7557  1.2412
 4673TIP3   OH235577   2.741   2.774   7.387 -0.6577  0.0066 -0.6330
 4673TIP3    H135578   2.790   2.725   7.322  0.5718 -1.8605  1.5554
 4673TIP3    H235579   2.784   2.859   7.391  0.8971 -0.7593 -0.4640
 4674TIP3   OH235580   4.848   2.529   7.252  0.3318  0.6774  0.2457
 4674TIP3    H135581   4.827   2.488   7.168 -1.2643  1.7170  0.0919
 4674TIP3    H235582   4.790   2.605   7.257  0.3016  0.5836  2.3481
 4675TIP3   OH235583   1.949   3.121   1.560  0.0593  0.2089  0.2504
 4675TIP3    H135584   2.034   3.158   1.533  0.6416 -0.5380  1.0076
 4675TIP3    H235585   1.920   3.070   1.484  1.4881 -1.5463  0.8102
 4676TIP3   OH235586   4.782   5.653   0.783  0.0540  0.6465  0.0574
 4676TIP3    H135587   4.799   5.735   0.830  0.9077 -0.5022  1.8775
 4676TIP3    H235588   4.867   5.610   0.777  0.0212  0.8175 -2.8589
 4677TIP3   OH235589   1.918   5.634   8.842 -0.2449 -0.3504 -0.0261
 4677TIP3    H135590   1.980   5.563   8.860 -1.0767 -1.1433 -0.1987
 4677TIP3    H235591   1.971   5.714   8.846  0.4983 -0.8771  1.2681
 4678TIP3   OH235592   1.684   0.865   2.185  1.2482  0.4853  0.4358
 4678TIP3    H135593   1.667   0.935   2.248 -0.5102  0.6872 -0.2334
 4678TIP3    H235594   1.759   0.817   2.223  3.0187  3.1239  0.5319
 4679TIP3   OH235595   3.156   2.917   0.194 -0.2499  0.3012 -0.2092
 4679TIP3    H135596   3.097   2.842   0.202 -1.5323  1.3770  0.7522
 4679TIP3    H235597   3.166   2.929   0.100 -1.4465  0.0089 -0.3881
 4680TIP3   OH235598   6.367   3.615   9.027 -0.2835 -0.1251 -0.2017
 4680TIP3    H135599   6.341   3.655   8.944 -1.6914 -0.3764  0.0946
 4680TIP3    H235600   6.285   3.584   9.066  0.0741  1.4632  2.0614
 4681TIP3   OH235601   5.546   4.054   1.640  0.3207  0.2966  0.6574
 4681TIP3    H135602   5.613   4.052   1.708  1.6775 -2.1388 -0.6276
 4681TIP3    H235603   5.569   4.129   1.586  2.4496 -0.7864 -0.0727
 4682TIP3   OH235604   1.492   6.267   9.236 -0.3243 -0.4182 -0.3979
 4682TIP3    H135605   1.493   6.361   9.254 -2.0193 -0.4683  0.0937
 4682TIP3    H235606   1.419   6.254   9.176 -0.6637 -1.5174  0.2135
 4683TIP3   OH235607   1.398   5.134   8.897  0.4910 -0.1013  0.5388
 4683TIP3    H135608   1.417   5.041   8.908  1.7726 -0.0369 -0.8064
 4683TIP3    H235609   1.303   5.138   8.886  0.3639 -1.1896  1.1188
 4684TIP3   OH235610   5.752   3.408   8.910  0.0453 -0.3801 -0.6110
 4684TIP3    H135611   5.668   3.455   8.907  1.2583  1.8692 -1.6085
 4684TIP3    H235612   5.764   3.375   8.821  0.6535  0.1338 -0.7217
 4685TIP3   OH235613   0.793   5.703   2.041 -0.3339  0.3241  0.2162
 4685TIP3    H135614   0.851   5.763   2.089 -1.3256  1.7926 -0.3713
 4685TIP3    H235615   0.717   5.693   2.097 -0.1860 -0.4019  0.3002
 4686TIP3   OH235616   2.492   3.834   7.514 -0.1942 -0.1033  1.0133
 4686TIP3    H135617   2.492   3.759   7.574 -2.2742 -1.5294 -0.6316
 4686TIP3    H235618   2.405   3.872   7.525 -0.3615  0.0200 -0.5895
 4687TIP3   OH235619   0.035   1.295   1.195 -0.2052 -0.2531 -0.7490
 4687TIP3    H135620   0.114   1.294   1.141  0.9661  0.0949  0.8513
 4687TIP3    H235621   0.031   1.385   1.229  0.0485 -0.8606  1.0035
 4688TIP3   OH235622   0.890   4.413   0.220 -0.1668 -0.4117  0.2994
 4688TIP3    H135623   0.921   4.485   0.165 -1.3259  0.1842  0.3968
 4688TIP3    H235624   0.810   4.383   0.177 -0.4717 -0.6906  1.0433
 4689TIP3   OH235625   0.574   4.117   8.896 -0.3963 -0.0588  0.1411
 4689TIP3    H135626   0.543   4.027   8.890 -2.3876  0.6173 -0.4157
 4689TIP3    H235627   0.570   4.138   8.989 -1.3454 -0.0938  0.1125
 4690TIP3   OH235628   1.216   2.802   0.427  0.1203  0.0429  0.6936
 4690TIP3    H135629   1.300   2.845   0.411  0.0392  0.3770  1.1515
 4690TIP3    H235630   1.169   2.808   0.344  0.4372  0.1041  0.5191
 4691TIP3   OH235631   1.125   1.451   8.766 -0.0371 -0.6094 -0.4794
 4691TIP3    H135632   1.213   1.473   8.796 -0.5553  0.1049  0.5604
 4691TIP3    H235633   1.087   1.535   8.739 -1.1342 -0.5499  1.1042
 4692TIP3   OH235634   6.188   2.172   9.204 -0.0250 -0.1065  0.6548
 4692TIP3    H135635   6.165   2.154   9.113  1.4039  0.0405  0.2417
 4692TIP3    H235636   6.135   2.248   9.228 -1.3971 -0.9481  0.3904
 4693TIP3   OH235637   1.872   4.014   1.529 -1.1004 -0.2007  0.1096
 4693TIP3    H135638   1.903   3.994   1.440 -3.8390 -1.0317 -0.7461
 4693TIP3    H235639   1.909   3.944   1.583 -1.0996 -0.9045 -0.7784
 4694TIP3   OH235640   6.186   6.205   2.404 -0.3283 -0.2102 -0.4996
 4694TIP3    H135641   6.211   6.122   2.444 -0.0597 -0.9124 -2.0819
 4694TIP3    H235642   6.256   6.224   2.341 -0.8624  0.7487 -0.8317
 4695TIP3   OH235643   6.434   2.819   2.135 -0.5834  0.1577  0.0364
 4695TIP3    H135644   6.523   2.843   2.111 -1.0729  0.8906 -1.1711
 4695TIP3    H235645   6.379   2.875   2.080 -1.7898 -0.5605  0.4719
 4696TIP3   OH235646   2.647   4.023   8.868  0.4270 -0.2588  0.5157
 4696TIP3    H135647   2.656   4.039   8.962  2.5917 -0.2347  0.3496
 4696TIP3    H235648   2.591   3.945   8.863  1.8425 -1.4461  1.9490
 4697TIP3   OH235649   6.241   6.254   7.353 -0.5698  0.2136 -0.2431
 4697TIP3    H135650   6.200   6.285   7.272  3.4022 -0.2610 -2.6913
 4697TIP3    H235651   6.294   6.328   7.383  0.5251 -0.6552  0.0370
 4698TIP3   OH235652   2.019   6.139   1.753 -0.0316  0.1907 -0.1363
 4698TIP3    H135653   2.015   6.222   1.802 -1.1780 -0.2275  0.5069
 4698TIP3    H235654   2.067   6.080   1.811  0.4932  0.2972 -0.4541
 4699TIP3   OH235655   6.023   4.465   1.760  0.0640 -0.1510  0.5904
 4699TIP3    H135656   6.019   4.554   1.726 -0.2236  0.1027  1.2749
 4699TIP3    H235657   6.117   4.447   1.770  0.1156  0.9478  2.6452
 4700TIP3   OH235658   1.260   2.464   2.290  0.1095 -0.3267 -0.1893
 4700TIP3    H135659   1.305   2.487   2.208  0.6077  0.0441  0.1761
 4700TIP3    H235660   1.331   2.459   2.355  0.2155 -3.8269 -0.3745
 4701TIP3   OH235661   0.136   1.082   1.489 -0.0472 -0.0486 -0.5461
 4701TIP3    H135662   0.135   1.161   1.543  1.5447  0.2050 -0.8416
 4701TIP3    H235663   0.170   1.014   1.548 -3.4425 -1.1176  0.3935
 4702TIP3   OH235664   0.201   1.937   8.717  0.4945  0.2614  0.2723
 4702TIP3    H135665   0.179   1.844   8.730 -0.7268  0.4599 -0.2888
 4702TIP3    H235666   0.128   1.972   8.667  1.4463  1.3004 -0.4300
 4703TIP3   OH235667   2.124   1.520   1.563 -0.1332 -0.3756 -0.5893
 4703TIP3    H135668   2.144   1.600   1.514  0.9338 -0.5358 -0.4464
 4703TIP3    H235669   2.060   1.547   1.629  0.6900  0.5176 -0.1319
 4704TIP3   OH235670   3.010   2.895   6.734 -1.1560  0.4183  0.2637
 4704TIP3    H135671   2.962   2.836   6.676  0.6983 -0.7098 -0.2064
 4704TIP3    H235672   3.021   2.975   6.683 -0.7625 -0.0596 -0.4187
 4705TIP3   OH235673   3.650   5.665   2.052 -0.7405 -0.1899  1.2201
 4705TIP3    H135674   3.677   5.584   2.007 -1.8683 -0.7978  1.5890
 4705TIP3    H235675   3.732   5.704   2.081 -0.1269 -0.8979  0.5274
 4706TIP3   OH235676   3.194   1.602   8.778 -0.7419 -0.0480 -0.1493
 4706TIP3    H135677   3.151   1.537   8.835  0.6735 -0.2186  0.7732
 4706TIP3    H235678   3.237   1.550   8.710 -0.7225  0.0184 -0.1881
 4707TIP3   OH235679   6.390   1.732   1.888  0.7670  0.4251 -0.1612
 4707TIP3    H135680   6.359   1.784   1.961  0.9774  0.4070 -0.0573
 4707TIP3    H235681   6.415   1.796   1.821  0.4111  0.4364 -0.2847
 4708TIP3   OH235682   4.230   0.071   8.645  0.2448  0.1810  0.4162
 4708TIP3    H135683   4.250   0.104   8.732  0.6394  0.4316  0.2308
 4708TIP3    H235684   4.180   0.141   8.603 -1.6630 -0.7077  1.1149
 4709TIP3   OH235685   1.255   5.372   2.302  0.0961 -0.4344 -0.4135
 4709TIP3    H135686   1.306   5.292   2.290 -0.0017 -0.7050  0.8391
 4709TIP3    H235687   1.179   5.360   2.246  1.8407  0.4337 -3.1576
 4710TIP3   OH235688   4.849   4.777   1.023 -0.3007 -0.2245  0.3046
 4710TIP3    H135689   4.816   4.865   1.004  0.1122 -0.3017 -0.8561
 4710TIP3    H235690   4.834   4.728   0.942 -1.2154 -1.4484  1.1725
 4711TIP3   OH235691   1.248   6.236   1.405 -0.0260  0.7689  0.5537
 4711TIP3    H135692   1.223   6.242   1.312  0.9653 -0.5678  0.1657
 4711TIP3    H235693   1.170   6.204   1.449 -0.5853  1.6533  0.2290
 4712TIP3   OH235694   1.088   0.461   7.156  0.3354  0.9408  0.3397
 4712TIP3    H135695   1.078   0.368   7.178  1.1055  0.7772  0.0342
 4712TIP3    H235696   0.999   0.490   7.137 -0.1831  0.7592  2.3049
 4713TIP3   OH235697   0.520   5.835   1.473  0.2986  0.7963  0.3551
 4713TIP3    H135698   0.489   5.887   1.547 -2.3444  1.0422 -0.8029
 4713TIP3    H235699   0.543   5.750   1.511  0.1647  1.3043  1.6183
 4714TIP3   OH235700   4.400   2.930   0.608 -0.2657  0.5168 -0.0386
 4714TIP3    H135701   4.454   2.889   0.675 -0.5375  0.7172  0.3038
 4714TIP3    H235702   4.340   2.861   0.579 -0.9390  0.7554  0.7658
 4715TIP3   OH235703   3.587   6.087   1.812 -0.3088 -0.7714 -0.7494
 4715TIP3    H135704   3.607   6.076   1.719 -0.8198 -1.7315 -0.7631
 4715TIP3    H235705   3.542   6.006   1.836 -0.1758 -0.5338  0.3381
 4716TIP3   OH235706   1.728   4.269   8.326  0.4742  0.1821 -0.0692
 4716TIP3    H135707   1.816   4.306   8.322  0.1566  1.2205  1.5745
 4716TIP3    H235708   1.680   4.327   8.385 -1.4277 -0.1632 -1.1837
 4717TIP3   OH235709   3.221   5.348   0.450  0.2089 -0.4850  0.1843
 4717TIP3    H135710   3.154   5.350   0.518  0.8440 -1.7491  0.8954
 4717TIP3    H235711   3.301   5.324   0.497  1.4426  2.0992 -0.4533
 4718TIP3   OH235712   6.572   4.191   0.432 -0.3255 -0.8897 -0.5522
 4718TIP3    H135713   6.616   4.132   0.371  1.4609 -0.4569  0.2528
 4718TIP3    H235714   6.538   4.134   0.501  1.4806 -1.0118  0.2758
 4719TIP3   OH235715   0.092   3.759   0.564 -0.6990  0.0524 -0.0671
 4719TIP3    H135716   0.160   3.721   0.620 -0.7280 -1.2986 -0.9187
 4719TIP3    H235717   0.010   3.746   0.613 -0.6356 -0.4356 -0.0947
 4720TIP3   OH235718   4.886   3.737   9.240 -0.1517 -0.2364  0.1738
 4720TIP3    H135719   4.881   3.817   9.187 -0.2867 -0.4123 -0.0774
 4720TIP3    H235720   4.856   3.667   9.182 -0.4326 -0.4103  0.5226
 4721TIP3   OH235721   4.603   4.662   6.548  0.0172 -0.1236  0.0383
 4721TIP3    H135722   4.650   4.597   6.601  1.6385  0.2605 -0.8389
 4721TIP3    H235723   4.520   4.621   6.526  0.1255 -1.0399  1.2611
 4722TIP3   OH235724   4.945   1.892   0.702  1.0537  0.1971 -0.0575
 4722TIP3    H135725   5.001   1.969   0.713  1.7109 -0.3145  0.2449
 4722TIP3    H235726   4.992   1.838   0.638 -0.4965  1.0496 -2.0509
 4723TIP3   OH235727   3.228   6.111   0.621  0.2073 -0.2258 -0.0339
 4723TIP3    H135728   3.160   6.054   0.586  0.6018 -1.4294  1.0893
 4723TIP3    H235729   3.276   6.057   0.683  0.9562  1.1752  0.6688
 4724TIP3   OH235730   3.295   3.922   8.313 -0.2801  0.8226 -0.7225
 4724TIP3    H135731   3.294   3.828   8.328  0.0442  0.6549 -1.6575
 4724TIP3    H235732   3.275   3.931   8.219  0.6535  1.6216 -0.8615
 4725TIP3   OH235733   2.881   6.012   1.989  0.0042  0.0223  0.4657
 4725TIP3    H135734   2.874   5.946   1.920 -2.5224  2.1020 -1.4391
 4725TIP3    H235735   2.891   5.960   2.070  0.5409 -2.5701 -1.1379
 4726TIP3   OH235736   0.451   0.215   8.780 -0.0185 -0.4265 -0.2022
 4726TIP3    H135737   0.498   0.261   8.710  1.6115 -1.8632 -0.1110
 4726TIP3    H235738   0.404   0.145   8.735 -0.9754  0.1371 -0.1163
 4727TIP3   OH235739   4.849   4.705   9.119 -0.0126 -0.4385  0.2645
 4727TIP3    H135740   4.842   4.631   9.059 -0.2670 -1.2366  1.2559
 4727TIP3    H235741   4.885   4.668   9.200  1.0337  0.7545  0.3834
 4728TIP3   OH235742   0.558   4.560   7.163 -0.3167 -0.6526 -0.2681
 4728TIP3    H135743   0.502   4.612   7.106  2.0940  2.2819 -0.2350
 4728TIP3    H235744   0.614   4.511   7.103  0.5257  0.4879 -0.4539
 4729TIP3   OH235745   5.056   3.198   0.657  0.0853 -0.6795 -0.5116
 4729TIP3    H135746   5.031   3.235   0.742 -0.0878  0.8578 -1.1978
 4729TIP3    H235747   4.980   3.214   0.601  1.2708  0.9917 -1.7237
 4730TIP3   OH235748   0.292   0.041   9.239  0.1574  0.4541  0.3097
 4730TIP3    H135749   0.376  -0.003   9.227 -1.3709 -2.2478 -1.6741
 4730TIP3    H235750   0.237  -0.024   9.282 -0.8061  2.4096  2.2370
 4731TIP3   OH235751   4.315   6.581   8.395  0.0570  0.5357  0.2922
 4731TIP3    H135752   4.233   6.586   8.345  0.3650  0.6989 -0.2053
 4731TIP3    H235753   4.288   6.592   8.486 -0.3672  1.7079  0.0468
 4732TIP3   OH235754   5.593   4.360   8.699 -0.6247 -0.3924  0.3890
 4732TIP3    H135755   5.603   4.389   8.789 -1.6205 -1.1369  0.7465
 4732TIP3    H235756   5.625   4.269   8.699  0.5853  0.0043 -0.2957
 4733TIP3   OH235757   3.721   2.894   7.917  0.0707 -0.2360 -0.4960
 4733TIP3    H135758   3.700   2.807   7.950  1.7705 -0.0932  1.0980
 4733TIP3    H235759   3.636   2.934   7.898 -0.7703 -1.8952 -0.4133
 4734TIP3   OH235760   2.249   0.230   1.914 -0.2726 -0.2257 -0.3915
 4734TIP3    H135761   2.279   0.142   1.938  0.7826  0.1297 -0.3436
 4734TIP3    H235762   2.328   0.284   1.920 -0.5062  0.3775 -2.2261
 4735TIP3   OH235763   0.444   3.128   8.033  0.1093 -0.1102 -0.4360
 4735TIP3    H135764   0.400   3.126   8.118 -3.1266 -1.3038 -1.9510
 4735TIP3    H235765   0.415   3.212   7.994  2.4662  0.9647 -0.0152
 4736TIP3   OH235766   6.258   4.847   8.853  0.2651  0.0490 -0.0787
 4736TIP3    H135767   6.237   4.939   8.870  0.9303  0.1057  0.4978
 4736TIP3    H235768   6.266   4.808   8.940  0.9727 -0.3235 -0.3079
 4737TIP3   OH235769   1.526   6.531   0.008  0.4790  0.1986  0.0198
 4737TIP3    H135770   1.613   6.563   0.034  2.6051 -4.1991 -0.6899
 4737TIP3    H235771   1.487   6.499   0.089 -0.8507  2.5421  0.4122
 4738TIP3   OH235772   4.732   3.356   1.160 -0.1446  0.3391  0.2322
 4738TIP3    H135773   4.687   3.296   1.101 -0.0488  1.2408 -0.7769
 4738TIP3    H235774   4.696   3.442   1.139 -1.6491  0.4661  2.9330
 4739TIP3   OH235775   5.079   0.754   0.227 -1.0777 -0.5552  0.3063
 4739TIP3    H135776   5.167   0.766   0.190 -1.3446 -1.6009 -0.7200
 4739TIP3    H235777   5.092   0.762   0.321  0.1173 -0.6478  0.1708
 4740TIP3   OH235778   5.214   3.689   8.283 -0.0805 -0.2164  0.0290
 4740TIP3    H135779   5.221   3.711   8.190 -1.4019  0.1766  0.0013
 4740TIP3    H235780   5.157   3.612   8.285 -1.2733  0.6320  0.5699
 4741TIP3   OH235781   0.579   6.205   1.157 -0.3282 -0.3052 -0.3629
 4741TIP3    H135782   0.596   6.193   1.250  0.5035 -0.9010 -0.5816
 4741TIP3    H235783   0.491   6.168   1.144 -0.9948  0.9545  0.4099
 4742TIP3   OH235784   1.171   3.741   7.607  0.1435  0.3099 -0.5683
 4742TIP3    H135785   1.203   3.759   7.695  0.1294 -3.1302  0.2856
 4742TIP3    H235786   1.248   3.712   7.558 -0.3085 -0.5372 -0.8046
 4743TIP3   OH235787   5.566   2.997   7.071 -0.1763  0.3035 -0.1460
 4743TIP3    H135788   5.483   3.012   7.118  0.2955  0.5123  0.6396
 4743TIP3    H235789   5.559   3.052   6.993 -1.0228 -0.1329 -0.3911
 4744TIP3   OH235790   3.538   4.021   0.357  0.0072  0.1328  0.2954
 4744TIP3    H135791   3.458   3.993   0.400  0.6008 -0.8217  0.8186
 4744TIP3    H235792   3.560   4.105   0.399 -1.9455  1.6385 -1.4889
 4745TIP3   OH235793   5.429   1.097   9.142  0.1317  0.0832  0.1470
 4745TIP3    H135794   5.433   1.001   9.137  3.6904  0.1820 -1.2383
 4745TIP3    H235795   5.437   1.116   9.235  0.9612 -0.9389  0.2991
 4746TIP3   OH235796   1.228   5.264   0.622 -0.0651  0.1878  0.8653
 4746TIP3    H135797   1.222   5.174   0.590  1.8288  0.5716 -0.7230
 4746TIP3    H235798   1.321   5.283   0.625 -0.4014  2.8337 -1.0934
 4747TIP3   OH235799   1.192   2.458   0.368  0.3711  0.3538 -0.4064
 4747TIP3    H135800   1.100   2.437   0.356  0.1908  0.1131  1.2451
 4747TIP3    H235801   1.213   2.516   0.294 -0.8752 -0.2243 -1.2408
 4748TIP3   OH235802   2.549   2.223   9.119 -0.2890  0.5736 -0.0468
 4748TIP3    H135803   2.514   2.216   9.030 -0.3250  1.6517 -0.1205
 4748TIP3    H235804   2.644   2.230   9.107 -0.1379 -0.8133  0.0889
 4749TIP3   OH235805   3.626   1.777   9.213  0.4738 -0.0142 -0.3403
 4749TIP3    H135806   3.657   1.864   9.188  1.0248 -0.3565 -0.8626
 4749TIP3    H235807   3.642   1.772   9.307 -1.8781  1.3943  0.2361
 4750TIP3   OH235808   2.857   0.405   1.574  0.4012 -1.1730  0.4763
 4750TIP3    H135809   2.882   0.386   1.483  0.1572  0.2886  0.0899
 4750TIP3    H235810   2.941   0.416   1.620  0.5198 -1.4347  0.3267
 4751TIP3   OH235811   0.023   2.017   8.526  0.3633 -0.2812 -0.2933
 4751TIP3    H135812  -0.039   1.943   8.522  2.0663 -1.7732 -0.6243
 4751TIP3    H235813  -0.015   2.083   8.469 -1.8244 -0.3772  0.9276
 4752TIP3   OH235814   5.962   5.781   1.128 -0.1222 -0.1882 -0.0105
 4752TIP3    H135815   5.978   5.711   1.191 -0.6626  0.4467  0.8686
 4752TIP3    H235816   6.026   5.849   1.151  0.5237 -0.4474 -0.9725
 4753TIP3   OH235817   2.895   3.827   8.129  0.4567  0.2401 -0.1428
 4753TIP3    H135818   2.926   3.917   8.122 -0.9874  0.7906  0.2756
 4753TIP3    H235819   2.973   3.776   8.153  0.9865  1.5902  1.0772
 4754TIP3   OH235820   5.384   0.139   2.269 -0.1260  0.2801  0.1431
 4754TIP3    H135821   5.368   0.225   2.231 -0.3259 -0.0868 -0.6292
 4754TIP3    H235822   5.471   0.115   2.238 -0.2149  0.0577  0.0622
 4755TIP3   OH235823   6.176   4.990   8.628 -0.2216 -0.4920 -0.2121
 4755TIP3    H135824   6.258   4.942   8.626 -1.0803 -2.0233 -0.5618
 4755TIP3    H235825   6.115   4.932   8.675 -1.1145  0.5942  0.0297
 4756TIP3   OH235826   3.011   2.285   2.205 -0.0056  0.1898  0.0809
 4756TIP3    H135827   3.064   2.210   2.231  0.8656  1.5319  2.4249
 4756TIP3    H235828   3.069   2.361   2.214 -0.5176  1.1554 -3.2273
 4757TIP3   OH235829   2.485   0.674   0.149 -0.1540 -0.0226  0.4752
 4757TIP3    H135830   2.457   0.629   0.069  0.5831 -1.4422  0.9693
 4757TIP3    H235831   2.431   0.636   0.218 -0.2566  0.6361  0.7568
 4758TIP3   OH235832   5.214   3.659   9.154  0.2209  0.4609  0.2165
 4758TIP3    H135833   5.133   3.641   9.106  0.4780  1.6072 -0.6737
 4758TIP3    H235834   5.276   3.593   9.122 -0.1116  0.1232  0.2684
 4759TIP3   OH235835   2.539   3.337   1.525  0.3026 -0.4489 -0.1446
 4759TIP3    H135836   2.459   3.365   1.570  0.6068 -0.6274  0.5137
 4759TIP3    H235837   2.605   3.402   1.549 -0.0981  0.8901 -2.3146
 4760TIP3   OH235838   3.671   6.410   8.154  0.0393 -1.0606 -0.6298
 4760TIP3    H135839   3.592   6.412   8.208  0.1315  0.1677 -0.5224
 4760TIP3    H235840   3.642   6.441   8.068  0.6610  0.8057 -0.2085
 4761TIP3   OH235841   1.044   4.403   8.309  0.3714 -0.0463 -0.9491
 4761TIP3    H135842   1.066   4.379   8.399 -0.1851 -2.7186 -1.4451
 4761TIP3    H235843   0.986   4.479   8.319  0.3017 -0.2884  0.9574
 4762TIP3   OH235844   6.257   2.557   0.708 -0.3218  0.1306 -0.2746
 4762TIP3    H135845   6.227   2.501   0.636 -2.4785 -0.5174  1.0528
 4762TIP3    H235846   6.324   2.504   0.752 -0.2600 -0.1903 -0.7384
 4763TIP3   OH235847   3.363   6.351   7.492 -0.2486  0.1427  0.1513
 4763TIP3    H135848   3.339   6.347   7.585 -1.6571  0.7016 -0.1645
 4763TIP3    H235849   3.284   6.325   7.445  0.0030  1.2112 -0.9295
 4764TIP3   OH235850   5.412   5.001   7.661 -0.3206 -0.0759  0.1273
 4764TIP3    H135851   5.397   4.969   7.750 -1.3371  1.4812  0.5721
 4764TIP3    H235852   5.417   5.096   7.671 -0.0553  0.1001 -1.4364
 4765TIP3   OH235853   4.110   0.572   9.066 -0.2431 -0.3870 -0.3705
 4765TIP3    H135854   4.118   0.552   8.973  0.3542  1.2911 -0.7213
 4765TIP3    H235855   4.098   0.667   9.069  0.1482 -0.3632  1.2863
 4766TIP3   OH235856   0.930   5.970   8.137 -0.0142 -0.6695 -0.5598
 4766TIP3    H135857   0.845   5.991   8.099 -1.0430 -2.4552  0.6321
 4766TIP3    H235858   0.964   5.899   8.083  0.0603 -0.9341 -0.1668
 4767TIP3   OH235859   6.438   4.378   0.277 -0.6602 -0.0378  0.2474
 4767TIP3    H135860   6.350   4.348   0.298 -0.7457 -0.6277 -0.8787
 4767TIP3    H235861   6.495   4.318   0.324 -0.8552 -0.5716 -0.1883
 4768TIP3   OH235862   5.473   0.306   6.560  0.2050 -0.1310  0.2116
 4768TIP3    H135863   5.387   0.325   6.522  1.2261  1.9692 -1.2340
 4768TIP3    H235864   5.482   0.369   6.632  0.9534  0.3902 -0.3316
 4769TIP3   OH235865   2.659   1.170   2.345  0.8694 -0.5263 -0.2130
 4769TIP3    H135866   2.661   1.191   2.251  1.8371 -1.2032 -0.3688
 4769TIP3    H235867   2.748   1.139   2.363  0.9916  0.5606  1.1643
 4770TIP3   OH235868   3.324   6.135   1.428  0.0893  0.3181 -0.1125
 4770TIP3    H135869   3.233   6.110   1.445  0.4000 -0.4452  0.4861
 4770TIP3    H235870   3.373   6.053   1.433  0.9233  0.8321  0.4195
 4771TIP3   OH235871   3.165   5.939   2.227 -0.0221  0.1599  0.4959
 4771TIP3    H135872   3.105   5.915   2.298 -1.6945 -0.1584 -0.9451
 4771TIP3    H235873   3.139   5.882   2.154  0.3457  1.7954 -0.9594
 4772TIP3   OH235874   1.487   0.137   1.805 -0.1483  0.3504  0.1666
 4772TIP3    H135875   1.403   0.115   1.765 -1.2631  0.3475  2.3367
 4772TIP3    H235876   1.466   0.153   1.897  2.2557  0.2547  0.8048
 4773TIP3   OH235877   1.358   5.598   6.941  0.0838  0.0235 -0.2658
 4773TIP3    H135878   1.334   5.642   7.023  3.1463 -1.0182  1.3461
 4773TIP3    H235879   1.345   5.665   6.873 -1.3304  1.3298  1.1922
 4774TIP3   OH235880   0.540   5.762   0.900 -0.3194 -0.1552  0.8080
 4774TIP3    H135881   0.589   5.844   0.893 -0.3607 -0.2119 -0.3605
 4774TIP3    H235882   0.453   5.788   0.930 -0.0719  0.1278  1.2886
 4775TIP3   OH235883   1.175   5.045   0.197 -0.6070 -0.3262  1.0770
 4775TIP3    H135884   1.241   4.999   0.249 -0.8071 -0.3437  1.3152
 4775TIP3    H235885   1.155   4.985   0.126 -1.3916 -0.9163  1.7816
 4776TIP3   OH235886   6.315   2.398   1.428 -0.1455  0.5132 -0.2129
 4776TIP3    H135887   6.367   2.459   1.375 -1.0774  1.8596  0.3428
 4776TIP3    H235888   6.259   2.455   1.480  0.5093 -0.7598  2.0113
 4777TIP3   OH235889   1.852   6.623   1.116 -0.1039 -0.2813  0.0652
 4777TIP3    H135890   1.896   6.670   1.187  1.3989  0.6988 -1.4402
 4777TIP3    H235891   1.761   6.650   1.123  0.3381  1.2361  0.5412
 4778TIP3   OH235892   5.440   5.067   1.501  0.1621 -0.7110  1.1271
 4778TIP3    H135893   5.346   5.076   1.484  0.3847  0.3000  0.3628
 4778TIP3    H235894   5.454   5.111   1.585  0.3359  1.5228  0.0160
 4779TIP3   OH235895   0.398   2.349   1.646 -0.5264 -0.3449 -0.1722
 4779TIP3    H135896   0.311   2.388   1.644  0.5211  2.1791  0.3321
 4779TIP3    H235897   0.428   2.362   1.736 -0.3194 -2.9941  0.2408
 4780TIP3   OH235898   6.545   5.656   1.805 -0.5102  0.1539  0.2831
 4780TIP3    H135899   6.579   5.631   1.719 -0.0344 -0.8894  0.7668
 4780TIP3    H235900   6.503   5.741   1.790  1.9915  1.3572 -0.4202
 4781TIP3   OH235901   4.899   2.317   1.357 -1.0027 -0.1133 -0.0629
 4781TIP3    H135902   4.892   2.273   1.441  0.0488 -0.3376 -0.0814
 4781TIP3    H235903   4.985   2.291   1.323 -0.5497  1.5452 -0.2889
 4782TIP3   OH235904   5.471   3.796   1.665 -0.8317  0.1200 -0.2141
 4782TIP3    H135905   5.500   3.887   1.668  0.5556 -0.2963 -0.3926
 4782TIP3    H235906   5.442   3.778   1.755 -1.0757  0.7210 -0.1639
 4783TIP3   OH235907   4.129   3.196   7.923  0.2458 -0.6580 -0.2869
 4783TIP3    H135908   4.087   3.253   7.859 -0.4020 -0.2193  0.5019
 4783TIP3    H235909   4.208   3.165   7.879 -0.0511 -0.1729 -1.1997
 4784TIP3   OH235910   6.335   4.651   8.121  0.4957  0.0018 -0.1098
 4784TIP3    H135911   6.357   4.704   8.044  0.2356  0.6661  0.2753
 4784TIP3    H235912   6.329   4.562   8.086  0.7239  0.2445 -0.7987
 4785TIP3   OH235913   6.556   2.895   0.843  0.1091  0.4390 -0.4706
 4785TIP3    H135914   6.485   2.846   0.884  0.3727 -1.0190 -1.6523
 4785TIP3    H235915   6.511   2.965   0.794 -0.2832  1.3057  1.0627
 4786TIP3   OH235916   4.677   3.553   1.368  0.4439  0.1275 -0.1807
 4786TIP3    H135917   4.589   3.540   1.333  0.0715  0.6307  0.5647
 4786TIP3    H235918   4.733   3.497   1.313 -0.2213  0.3974 -1.1482
 4787TIP3   OH235919   5.627   5.415   7.215  0.1165  0.0510  0.2843
 4787TIP3    H135920   5.703   5.390   7.162  1.1643  0.9859  1.2869
 4787TIP3    H235921   5.597   5.497   7.176 -1.4546 -1.1275 -1.1361
 4788TIP3   OH235922   0.614   6.094   2.151 -0.3025  1.0400 -0.0380
 4788TIP3    H135923   0.538   6.051   2.190  0.2005 -2.4615 -2.3879
 4788TIP3    H235924   0.685   6.079   2.214 -0.7830  0.9729  0.4928
 4789TIP3   OH235925   2.552   2.081   8.868 -0.6995 -0.4624 -0.1287
 4789TIP3    H135926   2.592   2.029   8.799  1.9063  0.5151  0.5307
 4789TIP3    H235927   2.568   2.030   8.948 -1.4102 -0.3638  0.0820
 4790TIP3   OH235928   6.466   0.386   0.165  0.0784 -0.3865 -0.9387
 4790TIP3    H135929   6.561   0.384   0.172 -0.0533 -0.5995  3.0267
 4790TIP3    H235930   6.439   0.296   0.183 -0.8945  0.0266 -0.2446
 4791TIP3   OH235931   5.036   6.042   0.228 -0.4968  1.1491 -0.4644
 4791TIP3    H135932   5.055   6.068   0.137 -0.1223  1.9109 -0.1810
 4791TIP3    H235933   4.945   6.069   0.242 -0.4352  1.3783 -0.4976
 4792TIP3   OH235934   3.504   6.477   8.947 -0.0142 -0.2554  0.4899
 4792TIP3    H135935   3.515   6.558   8.996 -1.0702  0.4028 -0.3173
 4792TIP3    H235936   3.592   6.437   8.946  0.7295  1.2998  0.1688
 4793TIP3   OH235937   0.425   6.490   1.174  0.2194  0.3237 -0.3651
 4793TIP3    H135938   0.486   6.450   1.237  1.2660 -1.5880 -2.4481
 4793TIP3    H235939   0.338   6.464   1.205  0.8117 -2.8249 -1.0009
 4794TIP3   OH235940   1.503   4.134   8.229  0.0148  0.0587  0.6794
 4794TIP3    H135941   1.589   4.176   8.237  0.8532 -1.1710 -1.1142
 4794TIP3    H235942   1.453   4.194   8.173  0.9627 -0.8421 -1.2593
 4795TIP3   OH235943   3.388   2.854   0.889 -0.3483  0.3172 -0.7659
 4795TIP3    H135944   3.471   2.811   0.907 -0.4536  0.2191 -0.5083
 4795TIP3    H235945   3.367   2.829   0.798 -0.9494 -1.0963 -0.2775
 4796TIP3   OH235946   3.688   3.857   7.394  0.2895  0.2531  0.2609
 4796TIP3    H135947   3.731   3.884   7.313 -0.2106  2.7032  0.7526
 4796TIP3    H235948   3.609   3.910   7.399  0.5972  0.5912  2.6407
 4797TIP3   OH235949   4.723   3.266   8.455  0.4870  0.0563 -0.1830
 4797TIP3    H135950   4.666   3.248   8.380  0.6824  0.7613 -0.5101
 4797TIP3    H235951   4.664   3.297   8.523 -0.2604 -3.9831  1.2911
 4798TIP3   OH235952   2.437   3.064   0.870 -0.7808  0.0198  0.9204
 4798TIP3    H135953   2.527   3.056   0.839 -0.8726  0.8194  0.4337
 4798TIP3    H235954   2.385   3.080   0.791 -1.2563  0.2655  1.2742
 4799TIP3   OH235955   5.982   4.404   7.783 -0.0165  0.3459  0.5770
 4799TIP3    H135956   5.907   4.461   7.804 -0.7914 -1.3354  2.7755
 4799TIP3    H235957   5.960   4.367   7.697 -1.6599  0.0495  1.0838
 4800TIP3   OH235958   6.442   1.747   1.487  0.1445 -0.5414  0.3111
 4800TIP3    H135959   6.415   1.792   1.406 -0.9371 -0.4188  0.7338
 4800TIP3    H235960   6.526   1.706   1.464  0.4021  0.4131 -0.5428
 4801TIP3   OH235961   3.907   3.845   8.890 -0.0982 -0.2957 -0.0647
 4801TIP3    H135962   3.845   3.788   8.844 -0.5078  0.1863 -0.1206
 4801TIP3    H235963   3.854   3.920   8.917 -0.0441 -0.8966  1.8464
 4802TIP3   OH235964   4.526   0.101   6.593  0.2192  0.3850 -0.7203
 4802TIP3    H135965   4.618   0.077   6.581  0.1003 -0.2364 -0.4487
 4802TIP3    H235966   4.496   0.045   6.665 -0.1478  1.1809 -0.2421
 4803TIP3   OH235967   4.596   5.130   1.839 -0.1254 -0.3439  0.1715
 4803TIP3    H135968   4.552   5.157   1.758 -1.1388 -0.2702  0.7276
 4803TIP3    H235969   4.625   5.211   1.879  0.1321 -0.3596  0.0164
 4804TIP3   OH235970   0.103   4.700   8.047  0.1653  0.7976  0.4783
 4804TIP3    H135971   0.047   4.717   7.971 -1.4280 -1.6331  1.0010
 4804TIP3    H235972   0.188   4.675   8.009 -0.4385  0.1551 -0.4852
 4805TIP3   OH235973   6.336   3.911   1.557 -0.3757 -0.2989  0.1072
 4805TIP3    H135974   6.421   3.883   1.593 -0.1298 -0.5801 -0.6823
 4805TIP3    H235975   6.325   3.858   1.478 -1.0585  0.0933 -0.0637
 4806TIP3   OH235976   0.151   4.123   7.012  0.7649 -0.4755 -0.5958
 4806TIP3    H135977   0.110   4.044   6.977  1.1636 -1.4996  1.1360
 4806TIP3    H235978   0.110   4.194   6.963 -1.4666 -1.5914 -0.4958
 4807TIP3   OH235979   5.643   4.626   0.874  0.2112 -0.2974  0.3078
 4807TIP3    H135980   5.608   4.647   0.788  0.4861  2.0084  0.6909
 4807TIP3    H235981   5.633   4.532   0.882 -0.4776 -0.4682 -1.9464
 4808TIP3   OH235982   5.602   1.425   9.150 -0.5484 -0.4327 -0.6247
 4808TIP3    H135983   5.598   1.335   9.181  1.6688  0.0884  1.4629
 4808TIP3    H235984   5.681   1.429   9.097 -1.8331 -0.1750 -2.6442
 4809TIP3   OH235985   5.969   2.397   1.740  0.0312 -0.0855 -0.1061
 4809TIP3    H135986   5.884   2.435   1.720 -1.2089 -1.7223  1.6906
 4809TIP3    H235987   5.949   2.308   1.768  2.6181 -1.5724 -2.4453
 4810TIP3   OH235988   2.920   1.922   9.021 -0.2385 -0.0490  0.2607
 4810TIP3    H135989   2.866   1.905   8.944  0.6443 -2.6200  0.1066
 4810TIP3    H235990   2.891   1.856   9.085  0.2449  0.9108  1.5057
 4811TIP3   OH235991   3.679   2.318   2.216  0.1584  0.4299 -0.4178
 4811TIP3    H135992   3.656   2.274   2.134 -0.0651 -1.3391  0.5521
 4811TIP3    H235993   3.774   2.319   2.217  0.2363 -1.7152  0.3290
 4812TIP3   OH235994   3.539   2.040   7.471  0.6007 -0.0006  0.2601
 4812TIP3    H135995   3.590   1.970   7.432 -0.1837  0.7664 -2.3054
 4812TIP3    H235996   3.605   2.096   7.515  1.2893 -1.8778  1.7607
 4813TIP3   OH235997   3.142   3.155   0.682  0.1466 -0.1819 -0.2574
 4813TIP3    H135998   3.058   3.187   0.715 -0.0679 -1.6064  0.6846
 4813TIP3    H235999   3.190   3.129   0.761  1.7300  1.1175 -0.7275
 4814TIP3   OH236000   5.976   1.846   0.033  0.1650  0.6047  0.3623
 4814TIP3    H136001   6.031   1.782  -0.011 -0.3878  0.2949  0.1133
 4814TIP3    H236002   5.892   1.803   0.043  0.3533  0.5582  2.0075
 4815TIP3   OH236003   2.041   5.666   0.344 -0.3551 -0.6931 -0.6589
 4815TIP3    H136004   2.108   5.640   0.281  0.5398 -0.9114  0.3512
 4815TIP3    H236005   2.046   5.600   0.413  2.1214  2.0424  2.1218
 4816TIP3   OH236006   1.994   2.717   0.726  0.6586 -0.0944  0.0241
 4816TIP3    H136007   2.041   2.732   0.644  3.0234 -1.2849  1.0630
 4816TIP3    H236008   1.942   2.638   0.710  0.4625  0.1477 -0.5659
 4817TIP3   OH236009   1.381   2.485   8.781  0.5746  0.2084  0.3656
 4817TIP3    H136010   1.400   2.576   8.756  1.1986 -0.3534 -1.3021
 4817TIP3    H236011   1.360   2.441   8.699 -2.7212 -0.5055  1.4388
 4818TIP3   OH236012   6.538   3.056   9.062 -0.7099  0.3321 -0.1713
 4818TIP3    H136013   6.466   2.997   9.041 -0.5851  0.3892 -0.8084
 4818TIP3    H236014   6.500   3.144   9.057 -0.5272  0.3812 -0.8602
 4819TIP3   OH236015   0.067   1.171   8.439 -0.4234  0.1713  0.2041
 4819TIP3    H136016  -0.002   1.238   8.436 -0.7187 -0.1581 -0.9780
 4819TIP3    H236017   0.020   1.089   8.454 -0.4070 -0.1640 -1.3841
 4820TIP3   OH236018   2.783   6.095   1.288 -0.1662  0.0467  0.3211
 4820TIP3    H136019   2.720   6.063   1.353  1.2715  0.6729  2.1023
 4820TIP3    H236020   2.759   6.187   1.275  0.8572  0.5396  1.6788
 4821TIP3   OH236021   4.808   3.015   8.656  0.2434  0.5273 -0.0654
 4821TIP3    H136022   4.791   3.105   8.684  1.4338  0.2921  1.6052
 4821TIP3    H236023   4.811   2.965   8.738 -0.4362 -1.0655 -0.9546
 4822TIP3   OH236024   5.542   3.581   2.409  0.1422  0.7065 -0.0681
 4822TIP3    H136025   5.492   3.605   2.487  0.3223 -0.4832  0.4334
 4822TIP3    H236026   5.602   3.512   2.438  1.0846  1.1131 -0.9838
 4823TIP3   OH236027   1.194   0.865   7.244 -0.1869  0.7642 -0.0635
 4823TIP3    H136028   1.226   0.914   7.169  0.2345 -0.5932 -0.7972
 4823TIP3    H236029   1.233   0.779   7.235 -0.4026  0.4718  1.5426
 4824TIP3   OH236030   0.363   4.802   7.820 -0.0991 -0.2809  0.7485
 4824TIP3    H136031   0.422   4.850   7.878 -0.0822  1.8789 -0.9092
 4824TIP3    H236032   0.298   4.868   7.793 -1.2386 -1.7086 -0.1416
 4825TIP3   OH236033   2.994   2.564   6.625 -0.0424  0.0892  0.2652
 4825TIP3    H136034   2.944   2.539   6.703 -0.5092  1.0516  0.2836
 4825TIP3    H236035   2.943   2.635   6.586 -0.3100 -0.9915 -1.4483
 4826TIP3   OH236036   4.304   5.978   8.880  0.0122 -0.1174 -0.2752
 4826TIP3    H136037   4.273   5.951   8.966 -0.0239 -0.7287 -0.4760
 4826TIP3    H236038   4.353   5.903   8.847  0.8375  0.4552 -0.3952
 4827TIP3   OH236039   1.309   0.455   2.097 -0.3643 -0.0984 -0.3523
 4827TIP3    H136040   1.337   0.542   2.124  0.5760 -0.4663 -0.0885
 4827TIP3    H236041   1.214   0.454   2.112 -0.3232  0.7440  0.0044
 4828TIP3   OH236042   5.635   3.769   0.687 -0.0692  0.4393 -0.5753
 4828TIP3    H136043   5.555   3.756   0.739 -0.0005  0.1598 -0.5407
 4828TIP3    H236044   5.668   3.681   0.670  0.4439  0.5651 -0.2580
 4829TIP3   OH236045   2.852   2.153   8.580 -0.0812  1.0253  0.7408
 4829TIP3    H136046   2.842   2.235   8.532 -0.2143  1.6953  1.8772
 4829TIP3    H236047   2.886   2.179   8.665 -2.8944  0.2457  2.2162
 4830TIP3   OH236048   2.756   5.808   1.154 -0.5368 -0.0725 -0.3889
 4830TIP3    H136049   2.787   5.886   1.200  0.0183 -0.2479 -0.4680
 4830TIP3    H236050   2.741   5.744   1.223 -1.2130  0.1736 -0.3004
 4831TIP3   OH236051   4.020   6.254   7.566  0.0830  0.3050 -0.1769
 4831TIP3    H136052   4.022   6.193   7.641  0.8988  0.2927 -0.1979
 4831TIP3    H236053   4.073   6.210   7.499 -1.3067 -0.0601 -1.0738
 4832TIP3   OH236054   5.547   5.874   6.939  0.1660  0.3631  0.1654
 4832TIP3    H136055   5.484   5.917   6.881 -0.1355 -0.1962  0.0779
 4832TIP3    H236056   5.629   5.873   6.889 -0.4398 -1.4422 -0.8702
 4833TIP3   OH236057   1.735   4.398   7.546  0.1829  0.9983 -0.1631
 4833TIP3    H136058   1.694   4.326   7.499  1.0678 -0.3344  1.0177
 4833TIP3    H236059   1.663   4.442   7.592 -0.0505 -1.0278  1.5307
 4834TIP3   OH236060   2.792   0.364   1.180 -0.2743 -0.4399  0.0662
 4834TIP3    H136061   2.790   0.270   1.160 -2.4895 -0.7440  1.4158
 4834TIP3    H236062   2.855   0.372   1.251  1.3214 -0.5761 -1.2685
 4835TIP3   OH236063   3.663   1.651   7.520  0.6896 -0.3542 -0.5377
 4835TIP3    H136064   3.752   1.644   7.555  0.7658 -0.1298 -0.6845
 4835TIP3    H236065   3.662   1.735   7.475  0.8889 -1.0526 -1.9149
 4836TIP3   OH236066   0.854   1.658   1.893  0.1144 -0.0091  0.4161
 4836TIP3    H136067   0.834   1.566   1.915 -0.3329  0.2492  1.1360
 4836TIP3    H236068   0.817   1.708   1.966  1.1748  0.6785  0.4949
 4837TIP3   OH236069   6.331   1.099   1.146  0.3162 -0.7025 -0.0385
 4837TIP3    H136070   6.257   1.157   1.166  1.3360  0.2375  1.2054
 4837TIP3    H236071   6.311   1.018   1.194  0.7552  0.0682  1.5134
 4838TIP3   OH236072   0.543   0.113   8.139 -0.5080  0.4246 -0.0857
 4838TIP3    H136073   0.477   0.098   8.207 -0.7805 -1.2147 -0.6482
 4838TIP3    H236074   0.578   0.026   8.121  0.5452  1.0312 -1.0647
 4839TIP3   OH236075   6.326   3.566   0.383 -0.3826  0.5463  0.0276
 4839TIP3    H136076   6.267   3.497   0.415  1.2998 -0.4416  1.2322
 4839TIP3    H236077   6.270   3.643   0.372 -1.9896 -0.4978  0.4799
 4840TIP3   OH236078   5.990   6.514   7.839  0.1433  0.0087  0.3983
 4840TIP3    H136079   5.982   6.490   7.747 -1.2588  2.4289 -0.1946
 4840TIP3    H236080   5.900   6.528   7.868  0.6916  1.4450  1.4904
 4841TIP3   OH236081   4.744   5.796   8.199  0.8272 -0.4242 -0.6382
 4841TIP3    H136082   4.778   5.711   8.230 -2.3446 -1.3930  0.5135
 4841TIP3    H236083   4.758   5.855   8.273 -1.8983 -1.4149  0.8021
 4842TIP3   OH236084   4.339   0.577   8.514 -0.5438  0.1600  0.6733
 4842TIP3    H136085   4.381   0.655   8.550 -0.9909  1.0177 -0.6199
 4842TIP3    H236086   4.387   0.504   8.553 -0.8078  1.0322  2.7451
 4843TIP3   OH236087   2.798   3.000   8.645 -0.1598 -0.3084 -1.0120
 4843TIP3    H136088   2.737   3.019   8.716 -1.9244 -2.0698 -1.9711
 4843TIP3    H236089   2.822   3.086   8.610  0.0604  0.5381  1.0873
 4844TIP3   OH236090   0.410   5.894   8.394 -0.0472  0.2664  0.2293
 4844TIP3    H136091   0.464   5.873   8.318 -0.3899  1.5333 -0.3776
 4844TIP3    H236092   0.434   5.828   8.459  1.7013  0.3501 -0.2825
 4845TIP3   OH236093   4.888   2.048   8.470 -0.0433  0.1000  0.0187
 4845TIP3    H136094   4.828   2.117   8.441  0.5787  1.4301  1.6812
 4845TIP3    H236095   4.946   2.092   8.533  2.6075 -1.1452 -1.3879
 4846TIP3   OH236096   1.898   4.700   8.377 -0.2045  0.4694 -0.0165
 4846TIP3    H136097   1.923   4.670   8.465  0.8667 -0.9319 -0.7680
 4846TIP3    H236098   1.808   4.669   8.366  0.2320 -0.8489 -0.0423
 4847TIP3   OH236099   2.122   1.106   6.817 -0.2333 -0.8697 -0.4818
 4847TIP3    H136100   2.114   1.201   6.816 -2.8511 -0.9374  1.3395
 4847TIP3    H236101   2.049   1.075   6.763  0.7113 -1.8720 -1.2285
 4848TIP3   OH236102   0.187   1.876   6.920  0.4926 -0.1892  0.1609
 4848TIP3    H136103   0.162   1.941   6.985 -5.2485 -0.4243 -1.2991
 4848TIP3    H236104   0.175   1.792   6.964 -1.1881 -0.3060 -0.4641
 4849TIP3   OH236105   5.376   5.707   8.231 -0.3153  0.0973 -0.6059
 4849TIP3    H136106   5.416   5.775   8.176 -2.0396 -1.2466 -3.8124
 4849TIP3    H236107   5.287   5.697   8.195 -1.3379 -1.4367  2.0625
 4850TIP3   OH236108   3.370   6.170   9.095 -0.3014  0.1641 -0.2797
 4850TIP3    H136109   3.299   6.106   9.083 -1.0672  1.2745 -2.0793
 4850TIP3    H236110   3.326   6.255   9.090  1.0662  0.8696 -0.6432
 4851TIP3   OH236111   5.676   3.174   9.313 -0.0997  0.5021 -0.1491
 4851TIP3    H136112   5.724   3.235   9.258 -0.2723  2.2428  1.5391
 4851TIP3    H236113   5.593   3.218   9.332 -0.8303 -0.8652  0.0119
 4852TIP3   OH236114   6.068   3.024   7.375  0.8766 -0.4768  0.0897
 4852TIP3    H136115   6.126   3.063   7.439  1.3364 -0.8577 -0.0901
 4852TIP3    H236116   6.074   3.080   7.298  0.0898  0.1553  0.4700
 4853TIP3   OH236117   3.393   2.546   8.320  0.7956 -0.4479 -0.5096
 4853TIP3    H136118   3.457   2.528   8.251  0.2447  0.0160 -1.1534
 4853TIP3    H236119   3.315   2.577   8.274 -0.0413 -1.3754  0.2318
 4854TIP3   OH236120   0.112   1.890   0.788 -0.1576  0.3697  0.0254
 4854TIP3    H136121   0.147   1.979   0.785  1.3829 -0.2268 -1.5037
 4854TIP3    H236122   0.081   1.874   0.698  2.1584 -1.5372 -0.5488
 4855TIP3   OH236123   1.418   1.295   8.235 -0.2156 -0.0629  0.2143
 4855TIP3    H136124   1.440   1.209   8.272 -1.0446 -0.6121 -0.5446
 4855TIP3    H236125   1.463   1.297   8.151 -0.7181 -0.0230 -0.0578
 4856TIP3   OH236126   5.033   0.993   9.306  0.4366  0.2427 -0.0927
 4856TIP3    H136127   5.002   1.017   9.394  1.7224  3.3719 -0.3546
 4856TIP3    H236128   5.126   0.974   9.318  0.3986 -0.3356 -0.6586
 4857TIP3   OH236129   2.546   3.729   8.968 -0.5477  0.3286 -0.2497
 4857TIP3    H136130   2.598   3.651   8.989  0.3903  1.1208  0.4748
 4857TIP3    H236131   2.469   3.722   9.024 -1.2305 -0.8078 -1.2637
 4858TIP3   OH236132   5.466   2.253   0.380  0.4092 -0.1475 -0.5864
 4858TIP3    H136133   5.377   2.224   0.362  0.8571 -2.0389  0.0209
 4858TIP3    H236134   5.475   2.335   0.331 -0.3134 -2.0496 -4.2707
 4859TIP3   OH236135   3.651   5.372   0.787 -0.6002 -0.0568 -0.0558
 4859TIP3    H136136   3.617   5.428   0.857  0.4840  0.1833  0.3140
 4859TIP3    H236137   3.648   5.427   0.709 -1.3824 -0.1683 -0.1138
 4860TIP3   OH236138   5.198   4.012   7.122 -0.3731 -0.4690 -0.2268
 4860TIP3    H136139   5.193   4.107   7.114 -2.4972 -0.6034 -1.2063
 4860TIP3    H236140   5.252   3.997   7.200  1.6644  1.4617 -1.1757
 4861TIP3   OH236141   5.573   1.450   8.736 -0.4675  0.7501 -0.2812
 4861TIP3    H136142   5.578   1.357   8.760 -0.6614  0.8863  0.2923
 4861TIP3    H236143   5.632   1.458   8.661  0.2908  0.3534  0.2504
 4862TIP3   OH236144   0.931   3.895   2.124 -0.2787 -0.5988  0.1745
 4862TIP3    H136145   0.865   3.925   2.188  0.3455 -1.0267  1.0475
 4862TIP3    H236146   0.895   3.813   2.089 -0.1089 -0.9724  0.8472
 4863TIP3   OH236147   1.467   0.425   7.973  0.4662  0.3464 -0.5728
 4863TIP3    H136148   1.380   0.415   7.933  0.3850 -2.1254  0.0614
 4863TIP3    H236149   1.454   0.401   8.064  1.5301  1.5833 -0.0734
 4864TIP3   OH236150   5.833   1.043   8.351 -0.2340 -0.5040 -0.1944
 4864TIP3    H136151   5.745   1.039   8.389 -0.3569 -1.2523 -0.5447
 4864TIP3    H236152   5.823   1.003   8.264  0.2137  0.4311 -0.6967
 4865TIP3   OH236153   0.709   5.530   8.981 -0.4847 -0.3665  0.8147
 4865TIP3    H136154   0.635   5.508   8.924  1.6398 -1.8956 -1.5094
 4865TIP3    H236155   0.707   5.463   9.049 -1.5519 -0.0246  1.1463
 4866TIP3   OH236156   3.246   0.317   7.803 -0.8098 -0.2129  0.6431
 4866TIP3    H136157   3.152   0.302   7.790 -1.1258  0.2893  2.1980
 4866TIP3    H236158   3.252   0.360   7.888  0.8038  0.1829  0.3563
 4867TIP3   OH236159   4.869   1.773   8.170  0.2664  0.0528  0.1547
 4867TIP3    H136160   4.913   1.712   8.229  1.2824  0.0091 -0.6266
 4867TIP3    H236161   4.932   1.789   8.100 -0.3440  1.2671 -0.1506
 4868TIP3   OH236162   5.684   4.340   2.169 -0.2345 -0.4977  0.3167
 4868TIP3    H136163   5.692   4.394   2.091  2.6649 -0.8316  0.2739
 4868TIP3    H236164   5.685   4.250   2.137  0.5812 -0.6294  0.6773
 4869TIP3   OH236165   6.214   6.620   1.166 -0.3372 -0.6104  0.5308
 4869TIP3    H136166   6.218   6.663   1.252 -0.4481 -0.5415  0.5018
 4869TIP3    H236167   6.120   6.620   1.144 -0.7201 -3.0928  1.6802
 4870TIP3   OH236168   4.092   4.353   8.221  0.4332 -0.0396 -0.0591
 4870TIP3    H136169   4.111   4.288   8.153 -0.7407  0.8443 -1.2931
 4870TIP3    H236170   4.139   4.322   8.298  1.5492 -1.2555 -1.1830
 4871TIP3   OH236171   0.376   1.169   8.960 -0.0512  0.1597 -0.3229
 4871TIP3    H136172   0.345   1.259   8.948 -2.1992  0.0642  3.1623
 4871TIP3    H236173   0.339   1.120   8.887  0.3430  1.8581 -1.7393
 4872TIP3   OH236174   3.299   1.867   2.046 -0.0030  0.1990 -0.5279
 4872TIP3    H136175   3.261   1.911   1.970 -0.2062 -0.5577 -0.8701
 4872TIP3    H236176   3.359   1.802   2.008  0.5377  0.3920 -0.0201
 4873TIP3   OH236177   4.440   3.772   6.412 -0.1812  0.3988 -0.1181
 4873TIP3    H136178   4.363   3.770   6.356  0.5432 -1.1419 -1.1578
 4873TIP3    H236179   4.494   3.699   6.381  1.1441  0.6808  1.3556
 4874TIP3   OH236180   2.977   0.968   9.134  0.0514 -0.0965 -0.7082
 4874TIP3    H136181   3.055   0.984   9.186 -0.0767 -1.6974  0.0609
 4874TIP3    H236182   2.934   1.053   9.127  1.0497  0.5018  0.1965
 4875TIP3   OH236183   1.064   6.260   1.167  0.8706  0.5112 -0.1890
 4875TIP3    H136184   0.978   6.255   1.123  0.0108 -1.2834  1.5657
 4875TIP3    H236185   1.112   6.185   1.133  0.4680 -0.4570  1.2857
 4876TIP3   OH236186   1.438   4.409   2.324 -0.2408 -0.2180  0.4888
 4876TIP3    H136187   1.469   4.499   2.308  1.3514 -0.7098  0.6117
 4876TIP3    H236188   1.488   4.356   2.262 -0.1701 -1.1695  1.3338
 4877TIP3   OH236189   4.715   3.661   7.375 -0.2125  0.2503  0.0270
 4877TIP3    H136190   4.643   3.607   7.343 -0.7622  1.8027 -1.5085
 4877TIP3    H236191   4.728   3.633   7.465 -0.9792 -1.8831 -0.4674
 4878TIP3   OH236192   1.039   1.878   8.466  0.6970 -0.2359 -0.0290
 4878TIP3    H136193   1.105   1.897   8.533  1.1029  0.4586 -0.5985
 4878TIP3    H236194   1.002   1.794   8.490  1.5162 -0.4405  0.5316
 4879TIP3   OH236195   0.362   2.666   0.226 -0.4496  0.3604  0.3968
 4879TIP3    H136196   0.342   2.721   0.150 -1.6033  0.1363  0.5267
 4879TIP3    H236197   0.319   2.583   0.208 -0.3753  0.1606  1.1095
 4880TIP3   OH236198   2.812   2.577   1.501 -0.0095 -0.4890 -0.0041
 4880TIP3    H136199   2.829   2.653   1.444 -0.7808  0.6425  1.2329
 4880TIP3    H236200   2.877   2.585   1.571 -0.2867 -0.7966  0.2886
 4881TIP3   OH236201   3.807   5.843   1.658 -0.7643  0.4639 -0.1186
 4881TIP3    H136202   3.739   5.815   1.596  0.3001 -0.3126 -0.9823
 4881TIP3    H236203   3.835   5.762   1.701  0.4863  0.5641 -0.6967
 4882TIP3   OH236204   0.700   2.363   8.503 -0.6505 -0.4562  0.2914
 4882TIP3    H136205   0.654   2.389   8.582  0.7114 -0.9878  1.3126
 4882TIP3    H236206   0.771   2.427   8.494  0.6608 -1.7529  0.9093
 4883TIP3   OH236207   1.400   3.918   8.133 -0.8182  0.4401 -0.1719
 4883TIP3    H136208   1.436   3.913   8.045 -1.5272 -0.6340 -0.4216
 4883TIP3    H236209   1.448   3.989   8.175  1.8776 -1.1251 -0.3568
 4884TIP3   OH236210   2.119   0.683   7.489  0.2303 -0.1254 -0.3019
 4884TIP3    H136211   2.042   0.627   7.482  0.4101 -0.3194 -0.8027
 4884TIP3    H236212   2.184   0.629   7.536  0.4541 -0.4024 -0.9144
 4885TIP3   OH236213   2.771   5.822   7.959 -0.1187  0.0242  0.1742
 4885TIP3    H136214   2.811   5.897   8.003 -1.0744 -0.8741  2.7569
 4885TIP3    H236215   2.788   5.748   8.018 -2.2652 -1.0896 -0.4986
 4886TIP3   OH236216   5.788   2.129   6.976 -0.0484  0.0987 -0.1069
 4886TIP3    H136217   5.725   2.193   6.943  1.5300  1.3013 -0.9427
 4886TIP3    H236218   5.783   2.138   7.071  2.0218  3.5370 -0.1634
 4887TIP3   OH236219   1.234   5.021   0.530 -0.1231 -0.1276 -0.0909
 4887TIP3    H136220   1.294   4.988   0.462 -0.4768 -3.7450  1.1611
 4887TIP3    H236221   1.161   4.959   0.530 -2.2237  2.1635  0.8519
 4888TIP3   OH236222   0.541   5.876   0.091  0.7542  0.1822  0.0250
 4888TIP3    H136223   0.494   5.950   0.052  0.5934 -0.7686 -1.6694
 4888TIP3    H236224   0.547   5.812   0.021 -0.9893 -2.3512  1.9888
 4889TIP3   OH236225   1.585   5.984   1.043 -0.1526 -0.6492  0.5458
 4889TIP3    H136226   1.574   5.898   1.082 -0.1548 -1.1424 -0.5101
 4889TIP3    H236227   1.606   6.042   1.117 -1.6872 -1.2369  1.5057
 4890TIP3   OH236228   3.799   0.258   7.348  0.4086  0.4749 -0.6167
 4890TIP3    H136229   3.786   0.282   7.440  0.3720  4.1471 -1.4254
 4890TIP3    H236230   3.818   0.164   7.350 -0.4574  0.2395  3.0199
 4891TIP3   OH236231   4.138   5.538   1.006 -0.5095  0.2679  0.2605
 4891TIP3    H136232   4.069   5.474   1.024  1.0633 -2.0371 -1.2309
 4891TIP3    H236233   4.093   5.611   0.964 -2.0688 -1.3582 -1.1093
 4892TIP3   OH236234   4.713   3.209   1.560  0.1994  0.2201  0.1813
 4892TIP3    H136235   4.756   3.126   1.539 -1.1110 -0.2372 -0.8092
 4892TIP3    H236236   4.647   3.186   1.625 -0.7868  0.3079 -0.7718
 4893TIP3   OH236237   1.679   2.559   1.713  0.1491  0.1557 -0.0828
 4893TIP3    H136238   1.724   2.478   1.689  3.0889  1.4812  0.4464
 4893TIP3    H236239   1.603   2.530   1.763  1.0053 -2.2822 -0.0199
 4894TIP3   OH236240   4.055   4.862   0.707  0.0107  0.2077  0.1559
 4894TIP3    H136241   4.130   4.903   0.664 -0.7379  1.1897 -0.2689
 4894TIP3    H236242   4.075   4.867   0.800  0.2124  1.0304  0.0825
 4895TIP3   OH236243   4.092   6.432   8.933 -0.5887  0.1941  0.0054
 4895TIP3    H136244   4.013   6.485   8.919 -2.0651 -2.1275 -1.2412
 4895TIP3    H236245   4.084   6.401   9.023 -0.7164  0.5291  0.1141
 4896TIP3   OH236246   2.820   1.357   1.905 -0.7254 -0.0619  0.6363
 4896TIP3    H136247   2.855   1.268   1.900 -0.1856  0.1888 -3.2445
 4896TIP3    H236248   2.726   1.345   1.920 -0.4681 -1.1693  1.5508
 4897TIP3   OH236249   0.091   4.672   8.806  0.4515  0.2761  0.3692
 4897TIP3    H136250   0.037   4.601   8.771  1.5889  0.0577 -1.0332
 4897TIP3    H236251   0.163   4.628   8.851  0.8880  0.5444 -0.0625
 4898TIP3   OH236252   3.716   5.574   2.916 -0.0154  0.0307 -0.9281
 4898TIP3    H136253   3.628   5.611   2.927 -0.0734 -0.2332 -0.4859
 4898TIP3    H236254   3.732   5.578   2.822  0.7002  2.8762 -0.7902
 4899TIP3   OH236255   5.326   6.564   7.829  0.0509 -0.4598 -0.2237
 4899TIP3    H136256   5.257   6.523   7.778  0.1794  0.0964 -0.8691
 4899TIP3    H236257   5.390   6.495   7.845 -0.4878 -0.8900  0.0810
 4900TIP3   OH236258   4.135   5.713   8.990 -0.1753 -0.0274  0.0237
 4900TIP3    H136259   4.223   5.717   9.028 -0.4398 -1.1224  0.7945
 4900TIP3    H236260   4.149   5.716   8.896  0.6155  0.9077  0.1529
 4901TIP3   OH236261   6.448   5.601   0.027  0.4139  0.0468  0.3913
 4901TIP3    H136262   6.499   5.678   0.050  0.4327 -0.3218  1.6571
 4901TIP3    H236263   6.474   5.535   0.091 -1.6695 -0.1258  1.1363
 4902TIP3   OH236264   0.162   6.199   8.146  1.0615  0.5135  0.1754
 4902TIP3    H136265   0.149   6.206   8.051 -0.4122 -0.2578  0.2935
 4902TIP3    H236266   0.168   6.289   8.176 -2.2115  0.9837 -0.2041
 4903TIP3   OH236267   1.896   3.749   7.691  0.6957 -0.3020  0.2925
 4903TIP3    H136268   1.823   3.728   7.749 -1.6755 -0.3293 -2.5373
 4903TIP3    H236269   1.916   3.840   7.709  0.5784 -0.5288  1.6849
 4904TIP3   OH236270   0.404   1.160   8.601 -0.0178 -0.5269  0.3684
 4904TIP3    H136271   0.324   1.208   8.624 -1.0160 -1.9355 -0.0071
 4904TIP3    H236272   0.427   1.192   8.514  0.8838  1.1641  1.1761
 4905TIP3   OH236273   1.952   5.974   9.224 -0.1226 -0.4722  0.1772
 4905TIP3    H136274   1.957   5.883   9.255  0.3023 -0.3941  0.3430
 4905TIP3    H236275   1.872   6.008   9.263 -0.0699 -0.6530  0.4488
 4906TIP3   OH236276   1.250   3.114   7.728 -0.1307 -0.4741  0.0313
 4906TIP3    H136277   1.231   3.134   7.636  0.2841  1.1546  0.2641
 4906TIP3    H236278   1.179   3.158   7.776  1.5764  1.7905  0.6476
 4907TIP3   OH236279   5.154   2.477   9.285  0.5743 -0.6648  0.5658
 4907TIP3    H136280   5.209   2.455   9.360  0.9670  0.2927  0.5785
 4907TIP3    H236281   5.190   2.559   9.252  0.1477 -0.8595 -0.4219
 4908TIP3   OH236282   3.795   5.323   8.847 -0.1760  0.3300  0.1766
 4908TIP3    H136283   3.872   5.292   8.895  0.0394 -0.8154 -0.8643
 4908TIP3    H236284   3.822   5.407   8.809  0.2583  0.3556  0.5354
 4909TIP3   OH236285   0.821   0.443   9.175  0.0363 -0.0104 -0.0090
 4909TIP3    H136286   0.781   0.493   9.245  0.4129  1.8572 -1.0651
 4909TIP3    H236287   0.779   0.476   9.095  1.7031  0.0508 -0.8961
 4910TIP3   OH236288   6.152   2.507   6.603  0.0227  0.5684  0.3277
 4910TIP3    H136289   6.192   2.483   6.686 -0.9996  0.4159  0.7990
 4910TIP3    H236290   6.224   2.537   6.549  0.8355 -0.2132  0.9491
 4911TIP3   OH236291   2.013   6.363   1.915 -0.0360  0.5632  0.6674
 4911TIP3    H136292   2.036   6.448   1.880  0.8837 -0.0507 -0.2754
 4911TIP3    H236293   2.086   6.339   1.973 -0.8087  0.8799  1.8129
 4912TIP3   OH236294   3.884   2.097   7.758  0.1372  0.3036  0.3309
 4912TIP3    H136295   3.833   2.169   7.796  1.1853  0.1151  2.1911
 4912TIP3    H236296   3.913   2.130   7.673  0.0572  1.8329  0.8752
 4913TIP3   OH236297   5.339   1.926   1.469 -0.0809 -0.2652  0.6818
 4913TIP3    H136298   5.272   1.954   1.532 -0.0059  0.7182  0.3494
 4913TIP3    H236299   5.294   1.865   1.411 -0.2424 -0.9124  1.4664
 4914TIP3   OH236300   2.540   0.673   8.764  0.1529  0.0804 -0.4090
 4914TIP3    H136301   2.619   0.726   8.761  1.3546 -1.6453 -0.7973
 4914TIP3    H236302   2.487   0.704   8.690  0.9446  0.5572 -0.7862
 4915TIP3   OH236303   2.359   3.114   0.616  0.1882 -0.0443  0.1037
 4915TIP3    H136304   2.447   3.150   0.607 -0.0039  0.3188 -0.3794
 4915TIP3    H236305   2.310   3.151   0.542 -0.1677 -0.8313 -0.0705
 4916TIP3   OH236306   6.356   2.034   7.947  0.4651 -0.2409  0.2544
 4916TIP3    H136307   6.448   2.016   7.927  1.2706  0.9218  2.6507
 4916TIP3    H236308   6.344   2.126   7.923  0.2299 -0.0960  0.9167
 4917TIP3   OH236309   6.375   4.747   0.570  0.7649 -0.3855  0.2872
 4917TIP3    H136310   6.305   4.682   0.567 -2.0866  2.4121 -0.6918
 4917TIP3    H236311   6.354   4.801   0.646  1.0390  1.2514 -0.7423
 4918TIP3   OH236312   1.121   6.115   1.620  0.5001  0.8010  0.1536
 4918TIP3    H136313   1.199   6.059   1.629  0.9187  1.2350 -0.6438
 4918TIP3    H236314   1.048   6.053   1.615  0.7569  0.3928  1.1471
 4919TIP3   OH236315   6.047   2.725   7.175 -0.3396 -0.1393  0.4676
 4919TIP3    H136316   6.064   2.631   7.170  0.4577  0.0617 -1.3303
 4919TIP3    H236317   6.134   2.765   7.166 -0.8983  0.7957 -1.2881
 4920TIP3   OH236318   4.278   4.962   0.925  0.4674 -0.3392 -0.0086
 4920TIP3    H136319   4.365   5.003   0.930  0.0561  0.4678  1.0681
 4920TIP3    H236320   4.218   5.030   0.956 -0.5666 -0.8630 -0.7920
 4921TIP3   OH236321   5.081   6.095   9.269 -0.6761  0.2451 -0.2765
 4921TIP3    H136322   5.133   6.089   9.189 -2.4612 -1.0336 -1.4114
 4921TIP3    H236323   5.037   6.010   9.276 -1.2304  0.6375  1.6059
 4922TIP3   OH236324   4.337   2.643   6.893 -0.0797 -0.0112 -0.3365
 4922TIP3    H136325   4.432   2.632   6.897 -0.3452 -2.3025  1.7801
 4922TIP3    H236326   4.321   2.727   6.936  0.9075 -0.2430  0.5275
 4923TIP3   OH236327   3.809   2.305   7.918  0.1800 -0.1852  0.2066
 4923TIP3    H136328   3.852   2.302   8.004  2.7745 -0.2755 -1.0115
 4923TIP3    H236329   3.850   2.379   7.873 -0.0252 -1.0721 -1.5091
 4924TIP3   OH236330   5.749   2.969   8.837 -0.2190 -0.2618 -0.1976
 4924TIP3    H136331   5.666   3.014   8.851 -0.0795 -0.1363  0.2505
 4924TIP3    H236332   5.733   2.911   8.762 -0.6410 -0.0746 -0.2540
 4925TIP3   OH236333   1.895   0.832   0.689 -0.4669 -0.0568 -0.0677
 4925TIP3    H136334   1.873   0.896   0.621 -1.1976 -0.0502  0.1603
 4925TIP3    H236335   1.810   0.795   0.714 -0.0224 -1.3896 -0.4550
 4926TIP3   OH236336   2.365   5.409   2.337 -0.1870 -0.2364 -0.5997
 4926TIP3    H136337   2.294   5.378   2.394  0.1740  0.7216  0.4268
 4926TIP3    H236338   2.342   5.378   2.250 -2.4698  0.9885 -0.5069
 4927TIP3   OH236339   6.413   0.799   7.209 -0.1016  0.0816 -0.5032
 4927TIP3    H136340   6.349   0.801   7.138  0.2655  1.0638 -0.8327
 4927TIP3    H236341   6.361   0.788   7.288 -0.7820  1.5692 -0.6968
 4928TIP3   OH236342   1.777   0.232   1.741  0.0220  0.0300  0.1362
 4928TIP3    H136343   1.818   0.271   1.818  0.3694 -0.3642  0.1493
 4928TIP3    H236344   1.688   0.267   1.742  0.2057  0.5035  0.3768
 4929TIP3   OH236345   2.615   5.938   9.050 -0.2770  0.9268 -0.2607
 4929TIP3    H136346   2.583   6.007   8.991  0.4784  2.3916  0.9648
 4929TIP3    H236347   2.657   5.986   9.122  0.7672 -0.8407  0.3654
 4930TIP3   OH236348   5.187   4.810   1.377  0.8942 -0.8508  0.3236
 4930TIP3    H136349   5.161   4.892   1.421 -1.1021 -1.1284 -0.2790
 4930TIP3    H236350   5.249   4.770   1.438  0.2268  0.0598  1.6618
 4931TIP3   OH236351   5.299   6.218   6.786 -0.3252  0.4728 -0.0986
 4931TIP3    H136352   5.255   6.133   6.784 -0.8868  0.6963  1.2428
 4931TIP3    H236353   5.351   6.220   6.706 -0.7817 -0.8709 -0.4642
 4932TIP3   OH236354   0.074   1.647   0.915 -0.2412 -1.2038  0.2529
 4932TIP3    H136355   0.049   1.642   0.822  4.5892 -0.6303 -1.3979
 4932TIP3    H236356   0.100   1.738   0.927  0.1894 -1.5228  1.8620
 4933TIP3   OH236357   5.965   1.598   8.356  0.2001  0.0540 -0.4396
 4933TIP3    H136358   5.916   1.525   8.395 -0.0667  0.7944  0.6561
 4933TIP3    H236359   5.973   1.575   8.263 -0.7351 -0.9017 -0.2987
 4934TIP3   OH236360   0.546   4.740   9.047 -0.5914 -0.2584 -0.4207
 4934TIP3    H136361   0.491   4.787   9.109  0.3018  0.3092 -0.0350
 4934TIP3    H236362   0.635   4.766   9.070 -0.2085 -0.5366 -1.5343
 4935TIP3   OH236363   5.306   0.185   8.466 -0.3642  0.1178 -0.3425
 4935TIP3    H136364   5.224   0.142   8.441 -0.0407  0.3435 -1.9020
 4935TIP3    H236365   5.374   0.118   8.451 -0.0793  0.5038 -0.8023
 4936TIP3   OH236366   2.807   2.853   1.476  0.1600 -0.3725  0.5464
 4936TIP3    H136367   2.780   2.929   1.424  0.6886  0.9476  2.1033
 4936TIP3    H236368   2.729   2.828   1.525 -0.1413 -1.1597 -0.3081
 4937TIP3   OH236369   4.015   5.171   8.947 -0.5792  0.4888 -0.4539
 4937TIP3    H136370   4.045   5.115   8.875  1.0341  1.9423 -0.9725
 4937TIP3    H236371   4.094   5.191   8.997 -1.3899  1.0251  0.6539
 4938TIP3   OH236372   4.123   4.999   1.316 -0.1945 -0.4994  0.0488
 4938TIP3    H136373   4.073   5.025   1.393  1.6608 -1.2684  1.5818
 4938TIP3    H236374   4.063   4.944   1.266 -1.8251  0.9752  0.2699
 4939TIP3   OH236375   5.254   4.389   9.179  0.0148 -0.2378 -0.6537
 4939TIP3    H136376   5.226   4.426   9.095 -0.0926  0.4703 -0.3170
 4939TIP3    H236377   5.173   4.361   9.221  0.1904 -2.1085 -1.4486
 4940TIP3   OH236378   3.379   5.190   1.260  0.7186  0.5303  0.0116
 4940TIP3    H136379   3.309   5.133   1.291 -0.6339  2.1922  0.2212
 4940TIP3    H236380   3.428   5.213   1.339  1.6267 -0.7481 -0.1555
 4941TIP3   OH236381   3.544   6.191   2.111  0.0923  0.7016  0.3306
 4941TIP3    H136382   3.561   6.175   2.018 -1.7144 -0.2280  0.1150
 4941TIP3    H236383   3.610   6.140   2.157 -1.1431 -1.7614 -0.4527
 4942TIP3   OH236384   2.729   1.086   2.736 -0.3910 -0.0998  0.1146
 4942TIP3    H136385   2.812   1.101   2.690  0.5712 -2.1357  1.0319
 4942TIP3    H236386   2.736   1.138   2.816 -0.5423  0.6838 -0.3721
 4943TIP3   OH236387   5.268   2.245   8.401  0.0027  0.7348 -0.4645
 4943TIP3    H136388   5.257   2.152   8.380 -0.1933  0.6523  0.0015
 4943TIP3    H236389   5.341   2.247   8.461 -1.6584  0.5762  1.6759
 4944TIP3   OH236390   5.786   0.533   1.434 -0.2886 -0.2289 -0.1132
 4944TIP3    H136391   5.770   0.588   1.512  1.1775 -0.5325  0.4281
 4944TIP3    H236392   5.855   0.473   1.461  0.2459 -0.3494 -1.6577
 4945TIP3   OH236393   3.503   6.051   8.871 -0.3045 -0.1769  0.2567
 4945TIP3    H136394   3.488   5.962   8.904 -0.9952 -0.1119  0.1384
 4945TIP3    H236395   3.475   6.107   8.943 -1.2551 -0.0427 -0.2039
 4946TIP3   OH236396   0.450   3.625   8.353  0.0415 -0.0819  0.2231
 4946TIP3    H136397   0.455   3.569   8.431 -0.0203 -0.5757 -0.1259
 4946TIP3    H236398   0.504   3.580   8.288 -0.7728 -0.2206 -0.3618
 4947TIP3   OH236399   0.363   0.511   0.910  0.4961  0.1610  0.1714
 4947TIP3    H136400   0.425   0.528   0.839  1.6767  1.4354  1.4604
 4947TIP3    H236401   0.374   0.584   0.970 -0.7463 -0.6921  1.5027
 4948TIP3   OH236402   3.969   6.314   7.056 -0.5451  0.1475 -0.3680
 4948TIP3    H136403   3.952   6.378   6.987  0.5550  0.8378 -0.0358
 4948TIP3    H236404   4.014   6.242   7.011  0.6032  0.8073 -0.3264
 4949TIP3   OH236405   0.607   5.530   0.187 -0.0423  0.4255 -0.1597
 4949TIP3    H136406   0.665   5.472   0.138  0.0964  2.3439 -2.4768
 4949TIP3    H236407   0.666   5.583   0.241 -0.1614 -1.3704  1.8639
 4950TIP3   OH236408   2.903   6.150   0.383  0.4766 -0.1130  0.2378
 4950TIP3    H136409   2.907   6.088   0.456  1.3273 -0.0494  0.2632
 4950TIP3    H236410   2.815   6.140   0.348  0.1797 -0.4184  1.0342
 4951TIP3   OH236411   0.732   3.745   8.187  0.3743  0.5058 -0.1502
 4951TIP3    H136412   0.809   3.783   8.144 -0.2491  1.3823 -0.5223
 4951TIP3    H236413   0.699   3.680   8.125 -0.1948  1.3708 -0.7879
 4952TIP3   OH236414   0.494   2.949   2.301  0.2871  0.3348 -0.8868
 4952TIP3    H136415   0.419   2.967   2.358  0.5482  2.1490 -1.0545
 4952TIP3    H236416   0.525   2.863   2.329 -1.0494  0.1252  0.0702
 4953TIP3   OH236417   6.135   3.307   8.960 -0.0871 -1.0155 -0.4660
 4953TIP3    H136418   6.123   3.357   8.880  0.3800  0.4765  0.3388
 4953TIP3    H236419   6.067   3.241   8.959 -0.2741 -0.8226 -1.9336
 4954TIP3   OH236420   1.133   0.479   8.536  0.6970  0.2951  0.3204
 4954TIP3    H136421   1.107   0.520   8.619 -1.9811  0.2042 -0.3762
 4954TIP3    H236422   1.123   0.385   8.553 -0.5507  0.3008 -0.2519
 4955TIP3   OH236423   3.705   0.922   0.401 -0.2139  0.0788 -0.4142
 4955TIP3    H136424   3.782   0.882   0.360  0.7905 -0.5264  1.8896
 4955TIP3    H236425   3.693   1.004   0.353  1.1006 -0.3831 -1.6331
 4956TIP3   OH236426   0.429   5.083   0.702  0.1746  0.0635 -0.4265
 4956TIP3    H136427   0.481   5.031   0.640  0.4332 -2.4800  1.7135
 4956TIP3    H236428   0.342   5.043   0.698  0.0572  0.2342  0.4330
 4957TIP3   OH236429   6.016   1.937   1.486 -0.2981 -0.2805 -0.7492
 4957TIP3    H136430   5.942   1.947   1.425 -1.4410  2.3423  0.8979
 4957TIP3    H236431   6.055   2.024   1.492  0.8845 -0.8658  0.9135
 4958TIP3   OH236432   6.235   5.950   2.493  0.4376  0.0914 -0.0817
 4958TIP3    H136433   6.169   5.943   2.424  0.3332  0.5474 -0.0306
 4958TIP3    H236434   6.301   5.885   2.469  0.3884  0.2234 -0.5925
 4959TIP3   OH236435   5.541   0.941   0.739 -0.4252 -0.5233 -0.1731
 4959TIP3    H136436   5.571   0.853   0.761  0.1989 -0.2650  0.0226
 4959TIP3    H236437   5.621   0.993   0.734 -0.9175  0.4505  1.5566
 4960TIP3   OH236438   4.997   3.332   8.016  0.4576 -0.3028 -0.4415
 4960TIP3    H136439   5.032   3.315   7.928  0.7335 -0.3327 -0.3249
 4960TIP3    H236440   4.902   3.327   8.005  0.2304  3.4737 -1.5983
 4961TIP3   OH236441   6.530   4.908   0.368 -0.4239  0.2143 -0.6488
 4961TIP3    H136442   6.471   4.871   0.433 -1.2031  1.6537 -0.4840
 4961TIP3    H236443   6.590   4.837   0.346  0.0444 -0.2787  1.8386
 4962TIP3   OH236444   5.896   5.750   0.868  0.3786  0.2613  0.7173
 4962TIP3    H136445   5.809   5.789   0.864  0.1801 -0.1346  1.1689
 4962TIP3    H236446   5.920   5.754   0.960 -0.4764 -2.4553  1.1336
 4963TIP3   OH236447   5.504   2.346   6.660  0.1137 -0.0718 -0.3548
 4963TIP3    H136448   5.467   2.403   6.593  0.0502  1.1744  0.7089
 4963TIP3    H236449   5.587   2.317   6.624  0.6021  1.4904 -0.5229
 4964TIP3   OH236450   0.978   2.917   7.140  0.1855  0.5499 -0.4017
 4964TIP3    H136451   1.024   2.837   7.166 -0.9591 -0.1335 -0.4499
 4964TIP3    H236452   0.926   2.892   7.064  0.3929  1.5347 -0.8895
 4965TIP3   OH236453   3.208   3.927   7.467  0.6050 -0.5545  0.0526
 4965TIP3    H136454   3.214   3.859   7.535  2.8956  0.1465  0.6491
 4965TIP3    H236455   3.165   4.001   7.511 -0.8138 -1.1705 -0.2497
 4966TIP3   OH236456   1.760   3.093   1.129  0.5680  0.0373  0.0450
 4966TIP3    H136457   1.704   3.169   1.118 -0.0608 -0.1008  1.9698
 4966TIP3    H236458   1.848   3.124   1.109  0.1024  0.7894 -0.9221
 4967TIP3   OH236459   4.610   4.346   0.500  0.2950  0.5862  0.1447
 4967TIP3    H136460   4.670   4.318   0.568  0.6584  0.2122 -0.3296
 4967TIP3    H236461   4.617   4.280   0.431 -1.4289 -0.0500  0.5161
 4968TIP3   OH236462   1.946   3.349   8.306  0.7436 -0.1204  0.1645
 4968TIP3    H136463   1.860   3.312   8.288  0.8773  0.0894 -0.9646
 4968TIP3    H236464   2.008   3.284   8.272  0.9933  0.5337 -0.6828
 4969TIP3   OH236465   0.810   4.838   7.099 -0.4364  0.7593 -0.3576
 4969TIP3    H136466   0.859   4.921   7.100  1.2348 -0.1890  0.1814
 4969TIP3    H236467   0.774   4.831   7.187 -2.0352  1.6896 -0.8919
 4970TIP3   OH236468   5.675   2.602   8.447  0.1023 -0.0234 -0.2252
 4970TIP3    H136469   5.598   2.583   8.502 -1.2199  1.2344 -1.5529
 4970TIP3    H236470   5.683   2.697   8.450  2.2921 -0.1941  0.7140
 4971TIP3   OH236471   0.439   0.286   1.073 -0.1951 -0.8114  0.1840
 4971TIP3    H136472   0.494   0.237   1.012  0.8194 -0.6940  0.9785
 4971TIP3    H236473   0.400   0.356   1.020  2.2211  0.5187  0.0192
 4972TIP3   OH236474   3.584   2.797   8.577  0.1287 -0.3878 -0.3611
 4972TIP3    H136475   3.627   2.770   8.496  1.4648  0.6096 -0.0228
 4972TIP3    H236476   3.633   2.875   8.605  0.9148 -1.7288  2.3731
 4973TIP3   OH236477   1.388   6.176   8.095 -0.2112 -0.0939  0.2568
 4973TIP3    H136478   1.450   6.147   8.028  0.4946 -0.1350  0.9150
 4973TIP3    H236479   1.404   6.118   8.170  0.7104  1.4839  1.3387
 4974TIP3   OH236480   0.757   6.130   0.247 -0.0747 -0.3363 -0.0204
 4974TIP3    H136481   0.783   6.198   0.309  0.9204 -0.3958 -0.3522
 4974TIP3    H236482   0.769   6.169   0.161  0.0994 -0.7921 -0.2067
 4975TIP3   OH236483   3.474   5.910   7.434  0.1554 -0.2651  0.0110
 4975TIP3    H136484   3.505   6.000   7.445 -0.1200 -0.1783  0.0988
 4975TIP3    H236485   3.520   5.878   7.357 -0.2273  0.1717 -0.4073
 4976TIP3   OH236486   2.465   4.519   7.585  0.2875  0.4825 -0.7953
 4976TIP3    H136487   2.429   4.462   7.518  0.6583  0.8325 -1.2964
 4976TIP3    H236488   2.490   4.460   7.656  2.1916 -0.1892 -1.9705
 4977TIP3   OH236489   4.925   1.183   1.285 -0.5376  0.1520  0.5334
 4977TIP3    H136490   4.859   1.249   1.263  1.5967  1.7567 -1.4948
 4977TIP3    H236491   4.951   1.145   1.201  1.3445 -0.1955  1.2151
 4978TIP3   OH236492   5.408   2.185   1.452  0.0647  0.8646  0.3705
 4978TIP3    H136493   5.392   2.091   1.452 -0.6321  0.9735  0.8441
 4978TIP3    H236494   5.449   2.202   1.537  0.0779  1.0069  0.3357
 4979TIP3   OH236495   0.626   1.145   8.275  0.0272 -0.0657 -0.3509
 4979TIP3    H136496   0.537   1.157   8.308  0.0089 -0.4891 -0.2404
 4979TIP3    H236497   0.682   1.193   8.338  0.0781 -1.5711  0.8110
 4980TIP3   OH236498   5.283   0.929   0.623  0.3103  0.9173 -0.1999
 4980TIP3    H136499   5.284   0.998   0.558  2.5198  0.7344 -0.4261
 4980TIP3    H236500   5.374   0.922   0.653  0.1245 -1.6434  0.0356
 4981TIP3   OH236501   3.871   6.255   0.395  0.1432 -0.0585 -0.0737
 4981TIP3    H136502   3.960   6.262   0.359 -0.4493  1.8425 -1.3579
 4981TIP3    H236503   3.816   6.244   0.318 -0.8553  0.1822  0.5977
 4982TIP3   OH236504   5.168   4.404   2.462 -0.0397  0.3404  0.4254
 4982TIP3    H136505   5.203   4.409   2.373 -0.3618 -1.3425  0.1584
 4982TIP3    H236506   5.089   4.349   2.453 -0.3531  0.5648  1.6659
 4983TIP3   OH236507   4.074   3.927   1.558  0.4397 -0.8565 -0.6840
 4983TIP3    H136508   4.006   3.881   1.607  0.9564 -1.9584 -0.9712
 4983TIP3    H236509   4.029   3.964   1.482  0.0712 -1.1483 -0.6106
 4984TIP3   OH236510   5.156   5.382   7.693 -0.2499  0.5073  0.0785
 4984TIP3    H136511   5.185   5.442   7.762  1.3534  1.2224 -1.1569
 4984TIP3    H236512   5.235   5.334   7.668 -1.0566 -0.5993 -0.4575
 4985TIP3   OH236513   3.943   2.003   0.982 -0.0168  0.0924  0.3368
 4985TIP3    H136514   3.999   2.080   0.991 -0.3739  0.3702  0.2263
 4985TIP3    H236515   3.970   1.945   1.053  0.3860  0.2376  0.3025
 4986TIP3   OH236516   6.207   5.877   0.560 -0.0736 -0.0849  0.3441
 4986TIP3    H136517   6.209   5.962   0.515 -0.0156  0.6737  1.7138
 4986TIP3    H236518   6.277   5.826   0.519  1.1637  1.2139  0.7499
 4987TIP3   OH236519   2.753   0.825   8.807  0.0325 -0.0551  0.6016
 4987TIP3    H136520   2.839   0.843   8.768  0.0651 -0.5501  0.4340
 4987TIP3    H236521   2.771   0.811   8.900  0.1112 -0.0170  0.5923
 4988TIP3   OH236522   0.507   6.301   2.442  0.0447 -0.0568 -0.2398
 4988TIP3    H136523   0.490   6.246   2.366  1.5239 -0.4407 -0.3217
 4988TIP3    H236524   0.455   6.261   2.512 -2.3027  1.0068 -1.2674
 4989TIP3   OH236525   1.239   3.949   1.196  0.6027 -0.0842 -0.4851
 4989TIP3    H136526   1.242   3.891   1.272  1.1060  0.2370 -0.2540
 4989TIP3    H236527   1.265   4.034   1.230  2.0698 -0.1884 -1.2296
 4990TIP3   OH236528   1.088   0.172   0.246  0.0322  0.1890 -0.4783
 4990TIP3    H136529   1.062   0.250   0.197 -1.0625 -0.4482 -0.9647
 4990TIP3    H236530   1.183   0.171   0.243  0.0401  1.2969 -0.7875
 4991TIP3   OH236531   6.563   1.323   8.775 -0.1668  0.1593 -0.3139
 4991TIP3    H136532   6.580   1.257   8.841 -1.0064 -1.3506 -1.5370
 4991TIP3    H236533   6.516   1.276   8.705  4.0385  0.6248 -3.9004
 4992TIP3   OH236534   3.430   3.310   0.309 -0.1743  0.1145 -0.0043
 4992TIP3    H136535   3.515   3.303   0.351 -1.1073 -0.0158  1.9452
 4992TIP3    H236536   3.397   3.396   0.335 -0.8057  0.0176 -0.4423
 4993TIP3   OH236537   4.249   0.424   9.260 -0.0544  0.5930  1.2748
 4993TIP3    H136538   4.270   0.344   9.212 -2.3593 -0.6928  2.2717
 4993TIP3    H236539   4.191   0.472   9.201  0.7234  1.2172  0.9920
 4994TIP3   OH236540   0.536   4.366   8.417  0.4480  0.0956 -0.0069
 4994TIP3    H136541   0.606   4.326   8.365  0.0225  1.1629 -1.4839
 4994TIP3    H236542   0.509   4.299   8.478  2.4297 -0.5153  0.2545
 4995TIP3   OH236543   3.604   1.136   1.070 -0.1203  0.2439  0.3563
 4995TIP3    H136544   3.665   1.177   1.008 -0.4497  1.1932  0.6333
 4995TIP3    H236545   3.623   1.043   1.065  0.1603  0.3529 -0.8456
 4996TIP3   OH236546   5.891   3.615   9.019 -0.0077 -0.2242  0.1156
 4996TIP3    H136547   5.934   3.640   8.937 -0.0457 -1.5421 -0.3326
 4996TIP3    H236548   5.846   3.533   8.998 -1.5821  0.3848  0.9434
 4997TIP3   OH236549   6.184   5.609   8.466 -0.1394 -0.0566 -0.7666
 4997TIP3    H136550   6.237   5.564   8.400 -0.4682  0.1689 -1.1917
 4997TIP3    H236551   6.095   5.606   8.431 -0.6604 -1.6496  0.5860
 4998TIP3   OH236552   4.502   0.104   1.479  0.2631  0.0792  0.4444
 4998TIP3    H136553   4.494   0.199   1.472  3.6842  0.5857  1.8594
 4998TIP3    H236554   4.415   0.075   1.506 -0.8834  2.7499 -0.0693
 4999TIP3   OH236555   2.413   5.116   7.709 -0.1289 -0.3062 -0.1341
 4999TIP3    H136556   2.326   5.141   7.741 -0.2238 -0.4904 -0.2487
 4999TIP3    H236557   2.472   5.140   7.781 -0.1151  0.9880 -0.5387
 5000TIP3   OH236558   6.021   2.286   0.979 -0.2242  0.0325  0.0029
 5000TIP3    H136559   5.932   2.315   0.961 -0.0987  0.4378  0.0105
 5000TIP3    H236560   6.069   2.367   0.996  0.0209 -0.2222  0.5506
 5001TIP3   OH236561   6.242   0.237   9.137 -0.2787 -0.7816 -0.2053
 5001TIP3    H136562   6.198   0.258   9.219  0.2344 -0.3887 -0.0239
 5001TIP3    H236563   6.311   0.175   9.161  1.4400  1.1314  0.0874
 5002TIP3   OH236564   2.011   6.482   2.549 -0.7999  0.6416  0.4535
 5002TIP3    H136565   2.034   6.455   2.638 -1.5529 -2.4691 -0.1658
 5002TIP3    H236566   1.916   6.492   2.550 -0.6425  2.4374  0.3861
 5003TIP3   OH236567   1.899   5.456   8.226 -0.1957 -0.8878 -0.6730
 5003TIP3    H136568   1.974   5.509   8.200 -0.1997 -1.3335 -1.6307
 5003TIP3    H236569   1.844   5.516   8.276 -0.2530  0.0554 -1.8193
 5004TIP3   OH236570   1.236   4.541   8.761 -0.6227  0.0115 -0.9721
 5004TIP3    H136571   1.205   4.513   8.675 -1.4784 -1.7695 -0.1405
 5004TIP3    H236572   1.169   4.511   8.822  0.3108  0.5783  0.3990
 5005TIP3   OH236573   2.809   4.557   2.183 -0.7918 -0.4021  0.0793
 5005TIP3    H136574   2.862   4.478   2.185  2.2191  1.4695  0.5762
 5005TIP3    H236575   2.840   4.609   2.258 -1.7902  1.7393 -0.9045
 5006TIP3   OH236576   1.648   1.271   0.817  0.3975  0.1355  0.2277
 5006TIP3    H136577   1.627   1.179   0.800  2.2296 -0.0316 -1.4094
 5006TIP3    H236578   1.682   1.273   0.906  0.2682 -0.7477  0.2987
 5007TIP3   OH236579   2.312   4.361   7.411 -0.2112  0.1805 -0.4819
 5007TIP3    H136580   2.238   4.300   7.417 -0.8437  1.0254  1.2483
 5007TIP3    H236581   2.374   4.318   7.353 -1.3821 -1.2947 -0.7192
 5008TIP3   OH236582   3.759   0.373   8.391  0.0047 -0.5970 -0.6011
 5008TIP3    H136583   3.687   0.399   8.333 -2.8257 -0.0347  2.7752
 5008TIP3    H236584   3.734   0.286   8.422  0.8639 -0.4507  0.5612
 5009TIP3   OH236585   1.520   0.631   7.178 -0.1411 -0.5064  0.2366
 5009TIP3    H136586   1.502   0.725   7.188 -0.5796 -0.5662  0.0490
 5009TIP3    H236587   1.608   0.619   7.215 -0.4481 -0.1782  1.1121
 5010TIP3   OH236588   5.070   3.666   1.414  0.2607 -0.9528 -0.1547
 5010TIP3    H136589   5.051   3.636   1.325 -0.9168  1.3481 -0.7569
 5010TIP3    H236590   5.141   3.730   1.403 -1.5889  1.3099  0.0785
 5011TIP3   OH236591   3.678   3.384   7.728  0.1834  0.2470  0.5754
 5011TIP3    H136592   3.599   3.331   7.721 -1.2151  1.9859  2.0127
 5011TIP3    H236593   3.686   3.427   7.643  0.2360 -0.7844  0.0508
 5012TIP3   OH236594   5.291   5.692   2.071  0.7104 -0.2591 -0.0214
 5012TIP3    H136595   5.340   5.643   2.138 -1.8888 -3.4747 -0.1928
 5012TIP3    H236596   5.209   5.644   2.063 -0.2025  1.5923 -3.6479
 5013TIP3   OH236597   4.512   1.314   2.167 -0.0940  0.2735  0.5276
 5013TIP3    H136598   4.503   1.259   2.246 -0.9854 -0.1430  0.1460
 5013TIP3    H236599   4.602   1.299   2.138  0.1368  0.1701  1.2775
 5014TIP3   OH236600   1.514   0.509   7.619 -0.2994  0.0444  0.1476
 5014TIP3    H136601   1.461   0.560   7.557 -1.2724  0.9511  1.6528
 5014TIP3    H236602   1.451   0.450   7.661  0.0822  0.3467  1.1760
 5015TIP3   OH236603   6.298   6.239   1.485  0.1265  0.2619 -0.6175
 5015TIP3    H136604   6.331   6.152   1.460  0.6117  0.6142 -1.2321
 5015TIP3    H236605   6.334   6.254   1.572 -1.1469 -0.7623  0.1231
 5016TIP3   OH236606   2.532   3.957   9.310 -0.1312  0.0192  0.0184
 5016TIP3    H136607   2.580   3.986   9.233  0.9061 -1.9029 -0.1100
 5016TIP3    H236608   2.441   3.953   9.282 -0.4474  3.3620  0.1618
 5017TIP3   OH236609   2.774   3.138   1.901 -0.2578 -0.2377 -0.0677
 5017TIP3    H136610   2.741   3.128   1.990  1.1409 -2.7122  0.2390
 5017TIP3    H236611   2.733   3.219   1.870 -1.8657 -0.0382  2.3065
 5018TIP3   OH236612   6.132   3.886   9.046 -0.3229 -0.2558 -0.6572
 5018TIP3    H136613   6.141   3.977   9.076 -1.7834  0.1816 -1.4740
 5018TIP3    H236614   6.142   3.834   9.125 -3.5677  0.8418  0.6410
 5019TIP3   OH236615   3.536   0.227   1.051  0.1117  0.3394 -0.1149
 5019TIP3    H136616   3.534   0.294   1.119 -0.5992  0.2161 -0.0143
 5019TIP3    H236617   3.453   0.237   1.004  0.2116 -0.1545 -0.4073
 5020TIP3   OH236618   3.111   0.756   1.983  0.2568  0.5253 -0.3296
 5020TIP3    H136619   3.105   0.801   2.066 -0.4721  0.1397 -0.1600
 5020TIP3    H236620   3.020   0.751   1.952  0.1873 -1.5214  0.0573
 5021TIP3   OH236621   3.648   0.521   7.375  0.0014  0.1474 -0.0790
 5021TIP3    H136622   3.562   0.562   7.391 -0.8155 -1.0598 -1.1532
 5021TIP3    H236623   3.683   0.505   7.462 -0.8325  0.7262  0.3851
 5022TIP3   OH236624   6.226   3.375   6.575  0.0535 -0.3921 -0.0624
 5022TIP3    H136625   6.237   3.438   6.504 -1.2562 -1.2833 -1.1128
 5022TIP3    H236626   6.174   3.422   6.640  1.4741  0.5174  0.4738
 5023TIP3   OH236627   5.892   3.667   1.722 -0.0928  0.4856  0.4354
 5023TIP3    H136628   5.975   3.646   1.765 -0.6778 -0.2174  1.2611
 5023TIP3    H236629   5.832   3.599   1.752 -0.2452 -0.8755 -2.5254
 5024TIP3   OH236630   3.200   2.975   9.265 -0.0112 -0.0740 -0.8678
 5024TIP3    H136631   3.138   2.964   9.193 -0.0661 -2.3061 -0.5429
 5024TIP3    H236632   3.272   3.027   9.228 -0.8159  0.2456 -2.0118
 5025TIP3   OH236633   5.597   3.540   1.588 -0.1412 -0.0526 -0.3872
 5025TIP3    H136634   5.542   3.618   1.590 -2.2840 -1.4789  0.5264
 5025TIP3    H236635   5.625   3.528   1.679 -0.5107 -0.7620 -0.3552
 5026TIP3   OH236636   6.161   3.262   7.229 -0.1354  0.4675 -0.3755
 5026TIP3    H136637   6.195   3.272   7.141  0.9531 -0.6203 -0.1117
 5026TIP3    H236638   6.224   3.307   7.285 -0.3437  0.3839 -0.0693
 5027TIP3   OH236639   1.918   0.778   2.343 -0.0432 -0.0747 -0.0270
 5027TIP3    H136640   1.999   0.745   2.381  0.7364  0.4353 -1.1974
 5027TIP3    H236641   1.873   0.821   2.415  1.3792  0.8423  0.3462
 5028TIP3   OH236642   6.369   0.454   1.523  0.2577  0.5176 -0.2855
 5028TIP3    H136643   6.445   0.507   1.547 -0.0688  0.8574  0.0157
 5028TIP3    H236644   6.314   0.513   1.471  0.5263  0.0602 -1.1009
 5029TIP3   OH236645   2.852   6.078   8.644  0.0981 -0.7474 -0.1112
 5029TIP3    H136646   2.862   6.136   8.568 -2.2918  0.2996  0.2573
 5029TIP3    H236647   2.784   6.016   8.616 -1.1753 -0.0355  1.2864
 5030TIP3   OH236648   3.576   6.000   0.461  0.0025  0.2381 -0.1039
 5030TIP3    H136649   3.669   6.005   0.483 -0.0349  2.0419 -0.1879
 5030TIP3    H236650   3.559   6.081   0.412 -1.2821 -0.7777 -1.3882
 5031TIP3   OH236651   3.415   0.522   0.405 -0.3497  0.3672  0.7812
 5031TIP3    H136652   3.445   0.569   0.482 -1.1182  0.0363  1.2995
 5031TIP3    H236653   3.424   0.584   0.333 -0.3575  0.9406  1.2734
 5032TIP3   OH236654   4.499   4.754   0.781  0.2954 -0.6609  0.1120
 5032TIP3    H136655   4.499   4.753   0.877  3.4797 -1.4826  0.2032
 5032TIP3    H236656   4.495   4.662   0.756  0.1758 -0.4804 -0.5502
 5033TIP3   OH236657   3.032   0.219   0.108  0.3379  0.5236 -0.1525
 5033TIP3    H136658   2.972   0.234   0.035  1.2988  0.6680 -0.9388
 5033TIP3    H236659   3.112   0.188   0.067  0.5573 -0.4062  0.9397
 5034TIP3   OH236660   4.392   3.484   1.527 -0.0398  0.3969 -0.3109
 5034TIP3    H136661   4.464   3.443   1.576  0.5983 -0.5934 -1.9777
 5034TIP3    H236662   4.332   3.515   1.594  0.7832 -0.9083  1.1046
 5035TIP3   OH236663   4.322   3.699   8.273 -0.1299  0.0297 -0.3777
 5035TIP3    H136664   4.377   3.777   8.259  2.1595 -1.7384 -1.9004
 5035TIP3    H236665   4.310   3.662   8.186 -1.3333 -1.2303  0.2885
 5036TIP3   OH236666   4.980   4.657   0.507  0.0207  0.0420  0.4223
 5036TIP3    H136667   5.016   4.723   0.447  1.7392 -0.2942  1.0336
 5036TIP3    H236668   4.960   4.582   0.451 -1.1155  0.7325 -0.1392
 5037TIP3   OH236669   5.154   1.284   0.779 -0.1116 -0.2043  0.2134
 5037TIP3    H136670   5.100   1.357   0.748  0.0312 -0.3193 -0.3181
 5037TIP3    H236671   5.091   1.222   0.816 -0.1693  0.5150  1.3669
 5038TIP3   OH236672   1.669   3.920   1.278 -0.5463  0.5144 -0.0950
 5038TIP3    H136673   1.764   3.920   1.278 -0.4845  0.8855  2.1576
 5038TIP3    H236674   1.644   3.849   1.219  1.1308 -0.1387 -0.0486
 5039TIP3   OH236675   1.246   1.204   9.222 -0.1064 -0.0407  0.0198
 5039TIP3    H136676   1.154   1.214   9.196 -0.3096  0.4708  0.8943
 5039TIP3    H236677   1.264   1.111   9.207 -0.3926  0.0969 -1.2949
 5040TIP3   OH236678   0.437   6.200   9.198 -0.4729  0.4260 -0.4945
 5040TIP3    H136679   0.343   6.214   9.209 -0.1096  2.0703  1.0894
 5040TIP3    H236680   0.470   6.189   9.287  0.7058 -1.3605 -1.0993
 5041TIP3   OH236681   0.956   3.913   7.907  0.6689 -0.2487  0.3730
 5041TIP3    H136682   0.960   3.985   7.969 -2.2708  0.6454 -0.2978
 5041TIP3    H236683   0.997   3.839   7.953  1.8068  1.2667  1.9111
 5042TIP3   OH236684   3.115   5.962   8.217  0.1701  0.1581 -0.0310
 5042TIP3    H136685   3.156   5.926   8.139  2.5295  0.8699  0.7887
 5042TIP3    H236686   3.187   6.002   8.265 -1.5681  1.7213  1.4170
 5043TIP3   OH236687   4.485   6.049   2.537  1.0585 -0.7227 -0.3141
 5043TIP3    H136688   4.468   5.978   2.475  0.1813 -0.4739 -0.3663
 5043TIP3    H236689   4.534   6.114   2.487  0.4600 -0.5778 -0.7202
 5044TIP3   OH236690   3.883   2.198   1.269  0.3169 -0.0224 -0.2642
 5044TIP3    H136691   3.918   2.125   1.320 -1.6825 -0.0504  1.2211
 5044TIP3    H236692   3.896   2.275   1.326  1.6385  0.6641 -1.4488
 5045TIP3   OH236693   1.883   1.806   7.388 -0.1447 -0.2397  0.7513
 5045TIP3    H136694   1.824   1.764   7.326  0.7067 -0.6543  0.2154
 5045TIP3    H236695   1.831   1.879   7.425 -0.8845 -0.4194  0.0885
 5046TIP3   OH236696   3.837   1.881   1.632 -0.7111  0.0066  0.1216
 5046TIP3    H136697   3.745   1.857   1.638 -0.7774  0.5600  1.5570
 5046TIP3    H236698   3.884   1.798   1.626 -1.1744 -0.3564  1.4476
 5047TIP3   OH236699   0.660   0.941   1.353  0.1143 -0.0572  0.6198
 5047TIP3    H136700   0.611   1.016   1.318  1.1932  0.4692  0.2017
 5047TIP3    H236701   0.623   0.928   1.441 -1.1375 -0.0247  0.1190
 5048TIP3   OH236702   6.315   3.316   7.800 -0.2309  0.2108  0.2473
 5048TIP3    H136703   6.395   3.338   7.848 -0.1169 -1.2798  0.7754
 5048TIP3    H236704   6.346   3.273   7.720 -0.4836  1.0206 -0.3073
 5049TIP3   OH236705   1.024   1.565   0.853 -0.2575 -0.0029  0.3327
 5049TIP3    H136706   1.047   1.642   0.906  1.7724  0.1557 -0.6781
 5049TIP3    H236707   0.939   1.587   0.817 -0.0589  1.4674  0.6613
 5050TIP3   OH236708   4.372   4.724   8.304  0.6057  0.5309  0.2229
 5050TIP3    H136709   4.332   4.675   8.231  3.7478  0.1998 -1.4333
 5050TIP3    H236710   4.360   4.816   8.280 -1.7096  0.5773  1.2984
 5051TIP3   OH236711   0.572   3.173   1.598  0.1489  0.0199  0.1117
 5051TIP3    H136712   0.619   3.110   1.653 -1.5194 -0.0299  1.5905
 5051TIP3    H236713   0.636   3.241   1.579  1.1200 -0.5702  1.1568
 5052TIP3   OH236714   2.467   0.951   1.356  0.0048  0.2910 -0.1113
 5052TIP3    H136715   2.458   0.955   1.260 -1.4016  1.6042  0.0387
 5052TIP3    H236716   2.510   1.033   1.379 -0.4740  0.3862  0.4600
 5053TIP3   OH236717   3.522   3.979   1.938  0.2272  0.2413 -0.0916
 5053TIP3    H136718   3.513   4.072   1.914 -0.8527  0.4490  1.0446
 5053TIP3    H236719   3.500   3.976   2.031 -3.4628 -1.6463 -0.8440
 5054TIP3   OH236720   5.216   6.459   8.201  0.5118 -0.7246  0.4236
 5054TIP3    H136721   5.289   6.475   8.141 -0.0403 -1.5395 -0.4786
 5054TIP3    H236722   5.232   6.371   8.236  1.1642 -0.0250  1.9796
 5055TIP3   OH236723   3.847   2.979   1.853 -0.1353 -0.2292 -0.1161
 5055TIP3    H136724   3.877   2.895   1.818 -1.5119 -0.2866 -1.2164
 5055TIP3    H236725   3.825   2.960   1.945 -0.1227 -0.9949 -0.2683
 5056TIP3   OH236726   4.045   4.108   0.375 -0.7493 -0.1997  0.0663
 5056TIP3    H136727   3.991   4.186   0.360  0.1581  0.3689 -0.2756
 5056TIP3    H236728   4.084   4.122   0.462 -0.5727 -0.2645 -0.0029
 5057TIP3   OH236729   4.238   2.546   0.850  0.2238 -0.4212 -0.0054
 5057TIP3    H136730   4.329   2.531   0.822 -0.0626 -0.4578 -0.9826
 5057TIP3    H236731   4.213   2.627   0.805 -0.3798 -0.6851 -0.1513
 5058TIP3   OH236732   2.676   3.042   6.795  0.0392  0.3939 -0.1964
 5058TIP3    H136733   2.719   3.032   6.880 -1.4755 -1.3891  0.4445
 5058TIP3    H236734   2.696   3.132   6.769  0.5964  0.9975  2.0214
 5059TIP3   OH236735   6.128   3.405   2.064  0.4518  0.3014  0.0747
 5059TIP3    H136736   6.058   3.405   1.999  0.7126 -0.1391 -0.2127
 5059TIP3    H236737   6.088   3.372   2.144 -0.3811  2.6638  0.7245
 5060TIP3   OH236738   0.638   5.210   7.930 -0.4480  0.5671 -0.0193
 5060TIP3    H136739   0.683   5.244   8.007  1.6090 -0.2985 -0.7829
 5060TIP3    H236740   0.572   5.277   7.910 -0.1714  1.4141  1.7121
 5061TIP3   OH236741   1.015   0.992   8.923 -0.4772  0.4505  0.3372
 5061TIP3    H136742   1.095   1.037   8.896  1.0648 -3.3038 -2.0991
 5061TIP3    H236743   1.045   0.927   8.988 -1.9091  0.2703  0.8581
 5062TIP3   OH236744   2.687   6.211   1.853  0.0176 -0.5413  0.3124
 5062TIP3    H136745   2.733   6.234   1.771 -0.7177  0.7259  0.2277
 5062TIP3    H236746   2.757   6.185   1.913  1.0471  2.2580  0.4936
 5063TIP3   OH236747   5.401   1.606   1.987  0.9312 -0.0338  0.2127
 5063TIP3    H136748   5.324   1.550   1.992  1.0700 -0.1400  1.8139
 5063TIP3    H236749   5.370   1.685   1.943 -0.3089  0.2244  1.4602
 5064TIP3   OH236750   3.632   0.845   2.067  0.1546 -0.3027 -0.0298
 5064TIP3    H136751   3.651   0.752   2.084 -0.5506 -0.0465  2.4686
 5064TIP3    H236752   3.704   0.892   2.108  0.9935  0.3153 -2.0612
 5065TIP3   OH236753   0.301   4.036   0.158  1.0725  0.1334  0.1032
 5065TIP3    H136754   0.284   3.946   0.186 -0.9734  0.8025  1.2113
 5065TIP3    H236755   0.397   4.042   0.154  1.2985 -2.7531 -2.3713
 5066TIP3   OH236756   3.059   3.110   8.823 -0.1986  0.3478  0.2063
 5066TIP3    H136757   2.967   3.113   8.797 -0.0793  1.4334 -0.1451
 5066TIP3    H236758   3.056   3.104   8.919 -0.6405  0.8376  0.2317
 5067TIP3   OH236759   4.994   0.642   7.401 -0.3912  0.2108  0.1230
 5067TIP3    H136760   5.017   0.631   7.309  0.7735  1.5609  0.2165
 5067TIP3    H236761   4.904   0.610   7.407 -0.5679  0.3132 -1.5311
 5068TIP3   OH236762   0.262   5.630   7.664  0.2088  0.0884  0.1008
 5068TIP3    H136763   0.207   5.574   7.611  0.6733  0.7947 -1.1791
 5068TIP3    H236764   0.231   5.617   7.754 -1.9664  0.3886 -0.5528
 5069TIP3   OH236765   3.367   0.369   1.874  0.3548 -0.4241  0.9141
 5069TIP3    H136766   3.382   0.458   1.842  1.5029 -0.7701  0.4064
 5069TIP3    H236767   3.289   0.375   1.929 -0.5881  0.5601 -0.4722
 5070TIP3   OH236768   0.489   0.761   7.330  0.3581  0.1871  0.0941
 5070TIP3    H136769   0.423   0.811   7.283  0.4157 -0.9393 -1.2262
 5070TIP3    H236770   0.565   0.761   7.273  1.0862  0.3608  1.0287
 5071TIP3   OH236771   4.758   3.300   7.703 -0.2921  0.5351  0.2896
 5071TIP3    H136772   4.709   3.321   7.783  0.5455  0.5883  0.8019
 5071TIP3    H236773   4.802   3.217   7.724  1.4172  1.4760  0.5866
 5072TIP3   OH236774   3.306   2.259   9.240 -0.3497 -0.0488  0.2804
 5072TIP3    H136775   3.282   2.166   9.236  1.8453 -0.6655  0.3954
 5072TIP3    H236776   3.385   2.266   9.186 -1.3307  2.0822 -1.0054
 5073TIP3   OH236777   5.366   0.803   9.107 -0.0232  0.0552 -0.3610
 5073TIP3    H136778   5.452   0.772   9.080 -0.6205 -0.9592 -1.1481
 5073TIP3    H236779   5.309   0.727   9.100 -1.4113  1.1657 -1.8262
 5074TIP3   OH236780   5.989   6.505   0.670  0.9474  0.0741  0.1193
 5074TIP3    H136781   6.073   6.532   0.707  0.0771  0.2867  2.0352
 5074TIP3    H236782   5.929   6.505   0.744 -0.6153 -0.6849 -1.0947
 5075TIP3   OH236783   5.175   6.511   1.983 -0.7095  0.3459 -0.3598
 5075TIP3    H136784   5.166   6.597   2.023  0.1657 -0.2873  1.2733
 5075TIP3    H236785   5.088   6.471   1.991 -0.7298  0.5133  0.2238
 5076TIP3   OH236786   4.648   3.686   1.811  0.2944 -0.0503  0.2116
 5076TIP3    H136787   4.689   3.675   1.897 -0.0395  2.1979  0.6972
 5076TIP3    H236788   4.719   3.720   1.755  0.3451 -0.9175 -0.2849
 5077TIP3   OH236789   5.719   1.286   1.739  0.6769  0.8706  0.0584
 5077TIP3    H136790   5.684   1.287   1.650  1.3370  1.0709 -0.2044
 5077TIP3    H236791   5.705   1.375   1.772  2.4982  1.4758 -0.6827
 5078TIP3   OH236792   3.408   1.674   8.497 -0.5258  0.2150 -0.2380
 5078TIP3    H136793   3.326   1.713   8.469 -1.0151  0.5377  1.5428
 5078TIP3    H236794   3.443   1.735   8.562 -0.2104 -1.2108  0.9796
 5079TIP3   OH236795   5.876   5.462   1.916 -0.0143 -0.2513 -0.0917
 5079TIP3    H136796   5.874   5.462   2.012  1.0969 -0.8101 -0.0547
 5079TIP3    H236797   5.969   5.468   1.894 -0.2605 -0.1187 -1.1406
 5080TIP3   OH236798   2.544   6.007   1.411 -0.3984 -0.5072  0.5371
 5080TIP3    H136799   2.475   6.005   1.477 -1.0933  0.3167 -0.1316
 5080TIP3    H236800   2.501   6.042   1.332  0.9290  0.6857  0.2897
 5081TIP3   OH236801   4.890   2.828   7.307 -0.3040 -0.3622  0.2205
 5081TIP3    H136802   4.824   2.802   7.242 -0.7931 -0.0161  0.5767
 5081TIP3    H236803   4.881   2.923   7.315  1.0145 -0.1344 -0.5616
 5082TIP3   OH236804   5.003   4.323   9.272 -0.3022  0.4775  0.3524
 5082TIP3    H136805   4.908   4.323   9.260 -0.2941 -0.3755  0.2728
 5082TIP3    H236806   5.022   4.240   9.316  0.4501  0.4686  0.0220
 5083TIP3   OH236807   3.381   5.681   9.146 -0.2694 -0.5999  0.0205
 5083TIP3    H136808   3.398   5.704   9.054  1.4389  1.9827  0.8764
 5083TIP3    H236809   3.464   5.644   9.177 -0.9111 -1.6772  0.5087
 5084TIP3   OH236810   5.465   0.943   7.509  0.2287 -0.5502  0.3306
 5084TIP3    H136811   5.473   0.932   7.604  1.8340  0.6840  0.3878
 5084TIP3    H236812   5.552   0.974   7.482  0.2300 -2.1611 -1.7436
 5085TIP3   OH236813   5.836   4.231   0.014  0.2261  0.3454 -0.3443
 5085TIP3    H136814   5.841   4.186  -0.070 -1.0359  1.0978 -0.8513
 5085TIP3    H236815   5.766   4.186   0.061 -0.5942  1.3270 -0.5968
 5086TIP3   OH236816   0.817   1.135   2.052 -0.2890  0.0119 -0.8916
 5086TIP3    H136817   0.893   1.135   2.110 -0.4974  0.0224 -0.6184
 5086TIP3    H236818   0.818   1.049   2.011 -1.6425 -1.0132  1.1024
 5087TIP3   OH236819   0.509   6.177   0.124  0.3574  0.4147  0.0778
 5087TIP3    H136820   0.478   6.102   0.175 -1.0312  1.9270  1.5757
 5087TIP3    H236821   0.595   6.196   0.161 -0.3319  1.0476  1.4382
 5088TIP3   OH236822   2.854   2.160   9.183 -0.0060  0.0877 -0.0784
 5088TIP3    H136823   2.894   2.090   9.131 -0.0906  0.8299 -1.1705
 5088TIP3    H236824   2.869   2.239   9.132  0.3802  0.9314  1.3027
 5089TIP3   OH236825   2.296   2.031   8.753  0.0835  0.7860  0.0955
 5089TIP3    H136826   2.376   2.042   8.805 -0.8106  1.1050  1.4446
 5089TIP3    H236827   2.231   1.997   8.815 -0.5164 -0.6272 -1.2468
 5090TIP3   OH236828   0.193   1.430   7.401 -0.1581 -0.2723  0.0553
 5090TIP3    H136829   0.103   1.462   7.392 -0.5399 -0.7911  1.6379
 5090TIP3    H236830   0.242   1.506   7.433  0.2706  0.3571 -1.9662
 5091TIP3   OH236831   4.545   2.263   0.845  0.1951 -0.5975 -0.7535
 5091TIP3    H136832   4.497   2.225   0.919  0.4141  0.1658 -0.2108
 5091TIP3    H236833   4.604   2.193   0.816 -0.1317 -1.0130 -0.4309
 5092TIP3   OH236834   1.473   2.873   2.995  0.0201  0.3655 -0.0068
 5092TIP3    H136835   1.392   2.832   3.025 -0.7023  1.1222 -0.8588
 5092TIP3    H236836   1.475   2.858   2.900  0.8115  0.4661 -0.0183
 5093TIP3   OH236837   5.911   3.174   6.780  0.3925 -0.5399 -0.5901
 5093TIP3    H136838   5.892   3.080   6.776  0.4313 -0.5914  0.1651
 5093TIP3    H236839   5.856   3.206   6.851  0.2557  0.0440 -0.9586
 5094TIP3   OH236840   4.792   1.240   8.105 -0.4996 -0.6389 -0.5762
 5094TIP3    H136841   4.838   1.283   8.177  1.3926 -1.4254 -1.2701
 5094TIP3    H236842   4.728   1.183   8.149 -0.7455  0.3636  0.4109
 5095TIP3   OH236843   1.404   6.072   8.368 -0.3355 -0.7230  0.2883
 5095TIP3    H136844   1.357   6.061   8.451  0.7631  2.4642  1.4927
 5095TIP3    H236845   1.464   6.145   8.384  1.0802 -1.0379 -2.8633
 5096TIP3   OH236846   3.012   0.420   8.342 -0.2035  0.1649 -0.4927
 5096TIP3    H136847   2.922   0.444   8.320 -0.9303 -1.2446  0.7597
 5096TIP3    H236848   3.005   0.370   8.423  1.8802  1.2825  0.4514
 5097TIP3   OH236849   3.428   5.233   0.632 -0.9114 -0.3902 -0.1950
 5097TIP3    H136850   3.455   5.141   0.642  1.8666  0.1964 -1.2140
 5097TIP3    H236851   3.461   5.276   0.711  0.6022  0.1984 -1.0895
 5098TIP3   OH236852   6.446   2.818   7.573 -0.2199 -0.6288  0.2733
 5098TIP3    H136853   6.420   2.726   7.568 -1.5206 -0.2479 -0.7697
 5098TIP3    H236854   6.378   2.859   7.626  0.8536 -0.4021  1.5235
 5099TIP3   OH236855   5.484   3.400   6.765 -0.0270 -0.0497  0.1343
 5099TIP3    H136856   5.389   3.398   6.749 -0.0269  1.8621 -0.2979
 5099TIP3    H236857   5.521   3.434   6.684  1.0716 -0.9838  0.2275
 5100TIP3   OH236858   1.684   4.930   1.417  0.0486 -0.6656  0.7030
 5100TIP3    H136859   1.763   4.880   1.398  1.7118  1.8089  0.4946
 5100TIP3    H236860   1.640   4.938   1.333  0.5600 -0.5484  0.4425
 5101TIP3   OH236861   0.790   0.774   1.747 -0.0268 -0.2777  0.3260
 5101TIP3    H136862   0.862   0.768   1.684 -0.5472 -0.6684 -0.2544
 5101TIP3    H236863   0.831   0.801   1.829  0.6449  0.4088 -0.2247
 5102TIP3   OH236864   3.683   2.069   9.196  0.7794 -0.8276  0.2519
 5102TIP3    H136865   3.775   2.085   9.218  0.6416 -0.3420  0.4903
 5102TIP3    H236866   3.669   2.115   9.114  0.5591 -0.2862  0.5906
 5103TIP3   OH236867   3.029   3.283   2.289  0.1423 -0.0168 -0.3132
 5103TIP3    H136868   2.985   3.199   2.304 -1.3129  0.7865  0.0811
 5103TIP3    H236869   3.077   3.300   2.370 -0.6535  0.1536  0.1359
 5104TIP3   OH236870   0.539   2.881   9.075 -0.2231  0.2484  0.1247
 5104TIP3    H136871   0.589   2.916   9.149  2.2048  1.7461 -2.0332
 5104TIP3    H236872   0.487   2.955   9.044  0.7413  0.4258 -1.1556
 5105TIP3   OH236873   1.517   1.965   8.935  0.0992  0.1395 -0.3196
 5105TIP3    H136874   1.540   2.027   9.005 -1.0064  1.1910 -0.8674
 5105TIP3    H236875   1.425   1.943   8.951 -0.1030  0.2178 -1.3109
 5106TIP3   OH236876   1.929   5.175   1.791  0.1462 -0.1420  0.0911
 5106TIP3    H136877   1.888   5.242   1.847  2.4678  1.8130 -0.4004
 5106TIP3    H236878   1.873   5.173   1.714  0.1939  1.5591 -0.0429
 5107TIP3   OH236879   5.573   1.847   2.300  0.3784  0.2755 -0.4282
 5107TIP3    H136880   5.633   1.910   2.338  1.6763 -0.8888 -0.4795
 5107TIP3    H236881   5.586   1.766   2.350 -1.4582  0.0915 -0.1626
 5108TIP3   OH236882   2.590   2.543   1.871  0.0656 -0.5571  0.4785
 5108TIP3    H136883   2.628   2.457   1.854 -0.6310 -0.6039 -1.0089
 5108TIP3    H236884   2.506   2.542   1.826  0.2515  1.0553  0.0197
 5109TIP3   OH236885   5.966   5.964   8.002 -0.7295 -0.1802 -0.4034
 5109TIP3    H136886   5.985   6.034   8.064 -2.9095 -0.0163  0.1614
 5109TIP3    H236887   5.950   6.009   7.919 -1.6085 -0.0337 -0.1629
 5110TIP3   OH236888   4.855   0.673   1.590 -0.1983 -0.1731  0.3090
 5110TIP3    H136889   4.865   0.578   1.580 -1.4602 -0.2499 -0.3502
 5110TIP3    H236890   4.874   0.708   1.503 -0.2871  0.1437  0.4153
 5111TIP3   OH236891   6.521   3.801   1.130  0.4021 -0.1447 -0.0060
 5111TIP3    H136892   6.490   3.711   1.124 -1.6230  0.1758  3.0558
 5111TIP3    H236893   6.581   3.801   1.205 -0.2318  1.1592  0.5416
 5112TIP3   OH236894   6.432   1.126   0.893  0.6947  0.2736  0.0403
 5112TIP3    H136895   6.401   1.107   0.981  0.5691 -1.4350 -0.3301
 5112TIP3    H236896   6.353   1.120   0.839  1.2371 -2.0129 -0.6153
 5113TIP3   OH236897   2.565   0.958   0.492  0.3217  0.0446  0.4086
 5113TIP3    H136898   2.582   1.043   0.533 -1.7057  1.1483 -0.8792
 5113TIP3    H236899   2.470   0.957   0.478  0.4328 -2.0232 -0.5130
 5114TIP3   OH236900   2.189   3.548   8.430  0.8147  0.0101 -0.0761
 5114TIP3    H136901   2.139   3.567   8.351 -0.4093  0.6149  0.7909
 5114TIP3    H236902   2.214   3.634   8.464  1.9158 -0.2700 -0.1597
 5115TIP3   OH236903   3.865   4.094   7.901  0.0868  0.4097  0.5948
 5115TIP3    H136904   3.776   4.059   7.890  0.7707 -1.4373  0.6199
 5115TIP3    H236905   3.852   4.183   7.932 -1.7557  0.0429  0.9830
 5116TIP3   OH236906   5.674   2.360   1.404 -0.0958 -0.1352  0.3303
 5116TIP3    H136907   5.711   2.282   1.445  1.6606  2.3087  3.9037
 5116TIP3    H236908   5.595   2.378   1.456 -0.0939  0.8409  0.0054
 5117TIP3   OH236909   2.735   2.539   0.567  0.3732  0.0367 -0.0706
 5117TIP3    H136910   2.804   2.497   0.516 -0.8001 -0.5845 -1.2306
 5117TIP3    H236911   2.673   2.469   0.586  0.3906  0.4295  1.5670
 5118TIP3   OH236912   2.402   0.600   1.128  0.1677  0.7655 -0.4357
 5118TIP3    H136913   2.478   0.553   1.092 -0.3135  0.3979 -0.9855
 5118TIP3    H236914   2.435   0.641   1.208  0.2861 -1.6252  0.8206
 5119TIP3   OH236915   2.339   5.432   0.837 -0.4276  0.3388  0.0075
 5119TIP3    H136916   2.266   5.494   0.838  0.3205  1.2787 -0.8904
 5119TIP3    H236917   2.416   5.486   0.861 -0.1049 -0.7664  1.6390
 5120TIP3   OH236918   6.188   5.794   1.549  0.1091 -0.5054 -0.3399
 5120TIP3    H136919   6.278   5.810   1.576 -0.0516  0.7798 -0.5359
 5120TIP3    H236920   6.149   5.880   1.542 -1.5969 -1.0960  1.2219
 5121TIP3   OH236921   1.504   0.685   0.121 -0.3358 -0.2838 -0.3673
 5121TIP3    H136922   1.522   0.684   0.027  1.1499 -1.3765 -0.1075
 5121TIP3    H236923   1.409   0.673   0.127 -0.3531 -1.0999 -1.7147
 5122TIP3   OH236924   2.832   5.433   1.030 -0.0293  0.0131  0.6166
 5122TIP3    H136925   2.847   5.384   0.949  0.2866  0.1334  0.6025
 5122TIP3    H236926   2.920   5.452   1.063 -0.1556  0.3373  0.7650
 5123TIP3   OH236927   4.894   2.381   9.185  0.2554 -0.4447  0.0897
 5123TIP3    H136928   4.931   2.300   9.152  1.5947  0.9414 -2.1197
 5123TIP3    H236929   4.965   2.423   9.234 -0.1704 -0.2506  0.5568
 5124TIP3   OH236930   4.625   5.481   7.477 -0.0281 -0.2948  0.1264
 5124TIP3    H136931   4.559   5.429   7.431  0.7483  1.3189 -3.0945
 5124TIP3    H236932   4.577   5.559   7.506 -0.1390 -0.4579  0.3823
 5125TIP3   OH236933   2.420   0.961   8.172  0.0574  0.1182  0.3740
 5125TIP3    H136934   2.374   0.879   8.192  0.2589 -0.3266 -0.9324
 5125TIP3    H236935   2.404   0.975   8.079 -1.8549  2.7433  0.9649
 5126TIP3   OH236936   3.333   5.522   0.271 -0.7221  0.1400 -0.3266
 5126TIP3    H136937   3.288   5.453   0.318 -1.6148  0.8249 -0.1516
 5126TIP3    H236938   3.308   5.603   0.317  0.3194  0.5787 -0.5006
 5127TIP3   OH236939   0.338   4.566   8.994 -0.1295  0.5690  0.1142
 5127TIP3    H136940   0.416   4.612   9.026  0.2136  0.5061 -0.6194
 5127TIP3    H236941   0.371   4.508   8.926 -0.4137 -1.4072  1.5675
 5128TIP3   OH236942   4.141   4.641   1.915 -0.1890  0.1382 -0.0524
 5128TIP3    H136943   4.164   4.593   1.994 -1.3886 -0.6837 -0.1865
 5128TIP3    H236944   4.072   4.701   1.942  1.2211  1.7779  0.0926
 5129TIP3   OH236945   4.834   3.115   7.408  0.5791  0.5114  0.2725
 5129TIP3    H136946   4.753   3.161   7.387  0.1939 -0.4178 -0.3232
 5129TIP3    H236947   4.827   3.095   7.502  0.4913  1.1404  0.4042
 5130TIP3   OH236948   6.553   5.990   1.049 -0.2306  0.9847 -0.1119
 5130TIP3    H136949   6.610   5.917   1.071  0.7721  1.8300  0.1930
 5130TIP3    H236950   6.464   5.954   1.054  0.2829 -0.5893 -1.4422
 5131TIP3   OH236951   4.518   5.086   0.954 -0.2693  0.2290 -0.3792
 5131TIP3    H136952   4.612   5.074   0.937 -0.5071 -0.7221 -1.0915
 5131TIP3    H236953   4.515   5.135   1.036  0.8633  0.9888 -0.7536
 5132TIP3   OH236954   6.315   4.637   8.400  0.4784  0.0441 -0.6316
 5132TIP3    H136955   6.349   4.556   8.439  1.8464  0.8080 -0.1389
 5132TIP3    H236956   6.335   4.629   8.307  0.9804 -0.0186 -0.5227
 5133TIP3   OH236957   2.327   6.416   7.870  0.5388 -0.3052 -0.4470
 5133TIP3    H136958   2.233   6.424   7.850  0.6713  0.6612 -0.7283
 5133TIP3    H236959   2.362   6.503   7.852  1.0019  0.1615  2.3580
 5134TIP3   OH236960   6.038   2.982   6.269 -0.0727 -0.6432 -0.0582
 5134TIP3    H136961   5.951   2.983   6.230 -0.7981  2.8762  1.3611
 5134TIP3    H236962   6.028   2.931   6.350 -1.1583  0.7416  0.7075
 5135TIP3   OH236963   3.208   3.408   8.253 -0.2743  0.3843 -0.0509
 5135TIP3    H136964   3.284   3.434   8.305 -0.3292  1.3320 -0.4164
 5135TIP3    H236965   3.183   3.322   8.287 -0.5247  1.1170  1.7349
 5136TIP3   OH236966   1.474   1.810   0.892 -0.0277  0.5255 -0.3227
 5136TIP3    H136967   1.551   1.776   0.937  0.0327  0.6797 -0.3100
 5136TIP3    H236968   1.434   1.733   0.851 -1.2135  0.0153  1.6644
 5137TIP3   OH236969   2.810   2.915   8.166 -0.0323 -0.1613 -0.3513
 5137TIP3    H136970   2.740   2.891   8.106 -0.1827  1.3765 -0.8435
 5137TIP3    H236971   2.845   2.832   8.197 -0.3610 -0.9962 -2.0984
 5138TIP3   OH236972   3.506   4.934   9.117  0.3287 -0.8059 -0.7923
 5138TIP3    H136973   3.543   4.882   9.047  3.7115 -1.5409  1.3263
 5138TIP3    H236974   3.491   5.020   9.078 -0.3036 -1.8264 -2.9713
 5139TIP3   OH236975   6.506   0.000   8.072 -0.4512  0.0859 -0.2650
 5139TIP3    H136976   6.411   0.000   8.065 -0.4330 -0.5417 -0.5906
 5139TIP3    H236977   6.532  -0.086   8.041  0.1271 -0.3048  1.2297
 5140TIP3   OH236978   5.374   2.594   8.218  0.0548  0.1437 -0.3864
 5140TIP3    H136979   5.332   2.522   8.172  0.3552  0.1072 -0.6072
 5140TIP3    H236980   5.366   2.669   8.159  1.2559 -0.1241 -0.9125
 5141TIP3   OH236981   6.498   0.533   8.429  0.7773  0.5532 -0.3801
 5141TIP3    H136982   6.474   0.605   8.488 -0.5522 -0.2285  0.0758
 5141TIP3    H236983   6.589   0.513   8.452  0.0107 -0.3977  2.1662
 5142TIP3   OH236984   6.543   4.360   0.011  0.1310 -0.2806  0.2403
 5142TIP3    H136985   6.530   4.395   0.100 -0.2776 -0.2427  0.1666
 5142TIP3    H236986   6.567   4.268   0.024  0.0559 -0.2791  0.3876
 5143TIP3   OH236987   6.168   1.579   0.504  0.2378  0.2406 -0.0341
 5143TIP3    H136988   6.244   1.527   0.477  0.6280  1.3312 -1.1328
 5143TIP3    H236989   6.199   1.631   0.578  0.0079 -0.6701  0.7102
 5144TIP3   OH236990   4.371   4.986   1.875  0.0796 -0.3448 -0.0821
 5144TIP3    H136991   4.368   4.979   1.970  0.1071 -0.7663 -0.1088
 5144TIP3    H236992   4.457   5.023   1.856 -0.9685  2.4182  0.1930
 5145TIP3   OH236993   2.648   4.562   0.958 -0.2844 -0.1926  0.1530
 5145TIP3    H136994   2.666   4.484   0.905  1.3757 -0.2218  0.7236
 5145TIP3    H236995   2.559   4.588   0.932 -0.5829 -1.8234 -0.5893
 5146TIP3   OH236996   1.808   2.065   0.894  0.0323  0.5298 -0.1933
 5146TIP3    H136997   1.894   2.068   0.936  0.3628  1.8047 -0.8938
 5146TIP3    H236998   1.810   1.986   0.839  0.7268  0.5030 -0.1319
 5147TIP3   OH236999   2.612   5.196   1.492  0.1757  0.5797  0.1394
 5147TIP3    H137000   2.588   5.274   1.541  1.0067  1.5094 -0.8749
 5147TIP3    H237001   2.625   5.227   1.402  1.0943 -0.6053 -0.1679
 5148TIP3   OH237002   1.154   0.456   0.459 -0.2173 -0.0863 -0.4559
 5148TIP3    H137003   1.218   0.413   0.402  0.9469  1.4491 -0.3993
 5148TIP3    H237004   1.183   0.435   0.548  1.4138  2.0854 -0.3815
 5149TIP3   OH237005   2.548   2.479   0.212  0.5552 -0.0197  0.5436
 5149TIP3    H137006   2.636   2.456   0.240  1.1753  0.5324 -0.8593
 5149TIP3    H237007   2.520   2.404   0.158  0.6503  0.3405 -0.0101
 5150TIP3   OH237008   0.307   6.182   1.075 -0.3006  0.1453 -0.6782
 5150TIP3    H137009   0.283   6.263   1.029  0.9651  1.2026  0.4542
 5150TIP3    H237010   0.301   6.204   1.168  0.6915 -0.8724 -0.3523
 5151TIP3   OH237011   2.105   4.952   1.591  0.0417  0.4640 -0.0117
 5151TIP3    H137012   2.196   4.953   1.564  0.0936  0.4284  0.1592
 5151TIP3    H237013   2.080   5.044   1.596 -0.0663  0.4647 -0.5007
 5152TIP3   OH237014   3.389   5.478   1.280 -0.0053  0.0857 -0.1871
 5152TIP3    H137015   3.357   5.470   1.370  0.4511  0.3520  0.0056
 5152TIP3    H237016   3.375   5.392   1.242 -0.3456  0.0149  0.0952
 5153TIP3   OH237017   5.687   1.808   9.130 -0.2692 -0.6601 -0.1941
 5153TIP3    H137018   5.742   1.752   9.075 -0.1847  0.2843 -1.1004
 5153TIP3    H237019   5.735   1.891   9.135 -1.2086 -0.1012 -0.2899
 5154TIP3   OH237020   5.510   1.264   8.009 -0.3748  0.2811 -0.1925
 5154TIP3    H137021   5.587   1.318   7.997  0.8346 -1.7198 -2.1374
 5154TIP3    H237022   5.438   1.327   8.021  1.5098  2.2006  2.1264
 5155TIP3   OH237023   4.917   0.431   8.451  0.0236  0.3844 -0.1716
 5155TIP3    H137024   4.926   0.414   8.357 -2.2528 -0.9048 -0.2231
 5155TIP3    H237025   5.005   0.421   8.486  0.6108 -0.9300 -1.8947
 5156TIP3   OH237026   1.143   2.603   2.541 -0.2445  0.4893  0.2538
 5156TIP3    H137027   1.133   2.520   2.587 -1.9710  0.8266  0.5553
 5156TIP3    H237028   1.234   2.628   2.556  0.0594 -0.9007  0.8947
 5157TIP3   OH237029   2.840   2.853   9.086 -0.5590 -0.2293  0.0899
 5157TIP3    H137030   2.780   2.875   9.015  1.5581  2.5478 -1.0442
 5157TIP3    H237031   2.922   2.832   9.042  0.6978  1.1402  1.6269
 5158TIP3   OH237032   3.439   3.685   0.272  0.5648 -0.7444 -0.0457
 5158TIP3    H137033   3.519   3.704   0.321 -0.3683  1.1135  0.8423
 5158TIP3    H237034   3.409   3.770   0.241 -0.6341 -1.5097 -1.0675
 5159TIP3   OH237035   6.329   1.893   2.109 -0.4225 -0.0909 -0.4400
 5159TIP3    H137036   6.367   1.937   2.185 -0.1845  0.3080 -0.7864
 5159TIP3    H237037   6.318   1.962   2.044  1.5965 -0.7979 -1.6557
 5160TIP3   OH237038   4.285   2.095   6.730  0.6218  0.5686  0.0644
 5160TIP3    H137039   4.380   2.110   6.735  0.6136  0.3572  0.9252
 5160TIP3    H237040   4.250   2.177   6.694  1.3254 -0.0951 -2.3105
 5161TIP3   OH237041   6.547   4.886   9.135  0.2578  0.3505  0.1757
 5161TIP3    H137042   6.458   4.852   9.136  0.4545 -0.2483 -0.8580
 5161TIP3    H237043   6.555   4.930   9.051  1.5804 -1.4843 -0.7418
 5162TIP3   OH237044   3.799   1.382   0.205  0.7991 -0.2879  0.2371
 5162TIP3    H137045   3.868   1.317   0.219  0.6242 -1.1745 -2.3712
 5162TIP3    H237046   3.846   1.458   0.169  0.6842  0.0215  0.7356
 5163TIP3   OH237047   5.397   0.132   8.175 -0.0049  0.4053  0.1004
 5163TIP3    H137048   5.443   0.071   8.234 -0.5503 -0.7091 -0.5924
 5163TIP3    H237049   5.308   0.098   8.170  0.2790 -0.1498 -2.1652
 5164TIP3   OH237050   4.781   4.900   0.439 -0.6036  0.7927  0.4680
 5164TIP3    H137051   4.782   4.833   0.370  1.2622  0.1924  1.0217
 5164TIP3    H237052   4.725   4.969   0.404 -1.1510 -0.2774 -0.8798
 5165TIP3   OH237053   0.481   4.516   9.296  0.1713  0.1520  0.0457
 5165TIP3    H137054   0.468   4.421   9.300 -0.3834  0.2535  0.9934
 5165TIP3    H237055   0.547   4.529   9.228 -0.3238 -0.8541 -0.6477
 5166TIP3   OH237056   6.076   2.707   6.842  0.2170  0.3546  0.0472
 5166TIP3    H137057   6.115   2.625   6.811 -0.2118  0.2618 -0.2672
 5166TIP3    H237058   6.134   2.775   6.808  0.3187  0.2017 -0.0917
 5167TIP3   OH237059   0.709   4.155   8.309  0.0151  0.1823 -0.0102
 5167TIP3    H137060   0.668   4.069   8.317 -1.1172  0.4509 -2.1377
 5167TIP3    H237061   0.793   4.146   8.353  0.4661 -2.4165 -1.2476
 5168TIP3   OH237062   2.021   1.570   1.127  0.0608  0.1861  0.5935
 5168TIP3    H137063   2.029   1.658   1.089  3.8336 -0.2753 -0.1124
 5168TIP3    H237064   1.932   1.567   1.162 -1.7737  2.6931 -3.1620
 5169TIP3   OH237065   3.084   2.673   6.903  0.0768  0.4959 -0.2798
 5169TIP3    H137066   3.012   2.610   6.894  0.6832 -0.0758 -1.2180
 5169TIP3    H237067   3.067   2.739   6.836  0.4988  0.2699 -0.6194
 5170TIP3   OH237068   3.342   1.812   7.226 -0.1266 -0.1422 -0.2436
 5170TIP3    H137069   3.324   1.812   7.320  1.8120  1.9122  0.2417
 5170TIP3    H237070   3.397   1.735   7.212  0.2863 -0.0027  0.5237
 5171TIP3   OH237071   6.350   2.258   7.766 -0.3279 -0.1473 -0.1907
 5171TIP3    H137072   6.389   2.202   7.698 -0.1668  0.6357 -0.7570
 5171TIP3    H237073   6.258   2.263   7.742 -0.2194  0.3566 -0.5261
 5172TIP3   OH237074   3.976   6.129   7.835  0.2310  0.1393  0.2636
 5172TIP3    H137075   3.886   6.121   7.865  0.5780 -2.5771  0.8937
 5172TIP3    H237076   4.025   6.155   7.913  0.0728  1.2256  0.0144
 5173TIP3   OH237077   0.315   2.041   8.076  0.2201 -0.0479  0.1697
 5173TIP3    H137078   0.258   2.000   8.141  1.5479 -0.7051  0.9701
 5173TIP3    H237079   0.329   2.130   8.108  0.0429 -0.0465  0.2418
 5174TIP3   OH237080   3.023   5.927   0.867 -0.7462  0.7850  0.4236
 5174TIP3    H137081   3.036   5.958   0.957 -1.5614 -0.6989  1.0978
 5174TIP3    H237082   3.099   5.872   0.849  0.3175  2.4645 -0.4945
 5175TIP3   OH237083   4.760   2.524   0.259 -0.1881 -0.8123  0.2978
 5175TIP3    H137084   4.704   2.549   0.186 -0.4484 -0.5257  0.5953
 5175TIP3    H237085   4.786   2.434   0.240  0.0947 -0.6009 -0.3659
 5176TIP3   OH237086   0.130   5.135   0.943 -0.5481 -0.3922  0.3349
 5176TIP3    H137087   0.084   5.211   0.908  1.6188  1.2130  0.7104
 5176TIP3    H237088   0.065   5.090   0.997 -1.7679  1.5656  0.5996
 5177TIP3   OH237089   5.764   1.413   2.545 -0.2735  0.0404 -0.2135
 5177TIP3    H137090   5.760   1.366   2.628  1.1171  1.3402  0.6515
 5177TIP3    H237091   5.724   1.354   2.482 -0.6220 -1.3310  1.2207
 5178TIP3   OH237092   0.154   3.515   0.330  0.3454  0.4506  0.4319
 5178TIP3    H137093   0.120   3.494   0.417  0.9418  3.5614  1.5450
 5178TIP3    H237094   0.076   3.538   0.279  0.0540 -0.8097  0.2628
 5179TIP3   OH237095   3.528   3.026   6.539  0.2292  0.0779  0.6998
 5179TIP3    H137096   3.606   3.023   6.484  0.1632 -1.2493  0.6620
 5179TIP3    H237097   3.495   2.936   6.540 -0.3927  0.3000  2.0203
 5180TIP3   OH237098   6.499   3.722   8.441 -0.0372  0.0800 -1.0494
 5180TIP3    H137099   6.582   3.770   8.437 -0.4524  0.8928 -0.4660
 5180TIP3    H237100   6.452   3.748   8.362  0.6857 -1.2457 -1.9530
 5181TIP3   OH237101   2.792   5.599   1.993  0.1567 -0.1351 -0.9955
 5181TIP3    H137102   2.822   5.671   1.938  0.6082  0.5873  0.1503
 5181TIP3    H237103   2.732   5.548   1.937 -0.0495  1.0379 -1.8692
 5182TIP3   OH237104   2.245   4.327   8.740  0.0965  0.2174 -0.2517
 5182TIP3    H137105   2.215   4.311   8.830  1.3307  0.0212  0.1356
 5182TIP3    H237106   2.340   4.321   8.745  0.2009  0.6607 -1.4944
 5183TIP3   OH237107   1.071   0.315   9.168 -0.0992  0.5395 -0.5435
 5183TIP3    H137108   0.979   0.323   9.192  0.3125  0.2879  1.2505
 5183TIP3    H237109   1.118   0.357   9.240  1.2312 -0.2388 -0.9350
 5184TIP3   OH237110   4.546   0.806   6.503  0.1312  0.2769  0.3343
 5184TIP3    H137111   4.463   0.787   6.460  0.9499  0.6987 -1.5535
 5184TIP3    H237112   4.593   0.723   6.503  0.3701  0.4043 -0.1908
 5185TIP3   OH237113   5.777   4.707   1.161  0.3885 -0.2642 -0.2293
 5185TIP3    H137114   5.838   4.766   1.117 -0.1512 -0.0078 -0.6415
 5185TIP3    H237115   5.774   4.630   1.105 -1.1076  0.4791 -1.2549
 5186TIP3   OH237116   6.596   4.525   2.084 -0.0689  0.1653  0.6108
 5186TIP3    H137117   6.674   4.520   2.139 -0.5851  0.2266  1.3595
 5186TIP3    H237118   6.619   4.477   2.005  0.6479 -0.0108  0.9211
 5187TIP3   OH237119   2.004   6.297   7.364 -0.4099  1.0145 -0.3462
 5187TIP3    H137120   1.958   6.370   7.322 -0.9603  0.3782 -0.8857
 5187TIP3    H237121   1.984   6.222   7.308  0.6640  0.5685 -0.1487
 5188TIP3   OH237122   5.637   6.590   2.012 -0.0675  0.3044  0.7441
 5188TIP3    H137123   5.627   6.627   2.100  0.1688 -1.7034  1.6639
 5188TIP3    H237124   5.575   6.518   2.009  1.8696 -1.4335  0.3053
 5189TIP3   OH237125   1.579   0.912   1.761 -0.0175 -0.3249 -0.0465
 5189TIP3    H137126   1.597   0.977   1.693  0.0822 -0.2103  0.0860
 5189TIP3    H237127   1.497   0.941   1.801  0.4237  0.1656  0.5271
 5190TIP3   OH237128   5.967   4.065   1.537  0.3767 -0.3437 -0.4868
 5190TIP3    H137129   5.906   4.138   1.526  0.3339 -0.4598 -1.0603
 5190TIP3    H237130   6.054   4.106   1.536  0.3524 -0.2996 -0.7940
 5191TIP3   OH237131   6.547   3.078   7.931  0.2638 -0.4118 -0.6852
 5191TIP3    H137132   6.578   3.141   7.997 -0.3772 -0.1202 -0.6598
 5191TIP3    H237133   6.540   3.129   7.851 -1.0154 -0.2451 -0.4905
 5192TIP3   OH237134   4.520   1.106   0.605  0.0545  0.5589 -0.2503
 5192TIP3    H137135   4.512   1.201   0.596  0.0748  0.4131 -2.2511
 5192TIP3    H237136   4.506   1.089   0.698 -1.5444  2.3548 -0.1177
 5193TIP3   OH237137   1.022   5.715   8.626  0.1533 -0.5648 -0.2924
 5193TIP3    H137138   1.039   5.708   8.720  2.4539  0.0211 -0.6009
 5193TIP3    H237139   0.993   5.628   8.600  1.8228 -1.4405  0.5848
 5194TIP3   OH237140   2.633   1.051   9.300  0.5323  0.0710 -0.1344
 5194TIP3    H137141   2.716   1.094   9.279  0.5354  0.2512  0.2563
 5194TIP3    H237142   2.655   0.987   9.368 -0.1860  2.3369  2.3849
 5195TIP3   OH237143   1.769   3.101   7.893 -0.3697 -0.5523 -0.0591
 5195TIP3    H137144   1.793   3.088   7.985 -0.9986  1.6174  0.4713
 5195TIP3    H237145   1.673   3.097   7.893 -0.4627  1.0577 -0.2923
 5196TIP3   OH237146   3.049   1.283   2.384 -0.0246  0.6402 -0.2963
 5196TIP3    H137147   3.132   1.313   2.421  1.2292 -1.2709 -1.3864
 5196TIP3    H237148   2.983   1.309   2.448  1.8579 -1.2290  2.6334
 5197TIP3   OH237149   0.830   5.646   0.317  0.0503 -0.2789  0.0002
 5197TIP3    H137150   0.822   5.736   0.286 -1.0597  0.2210  1.6101
 5197TIP3    H237151   0.920   5.621   0.295  0.6345  1.5033  0.2329
 5198TIP3   OH237152   6.283   2.484   6.849  0.1188  0.1567  1.3510
 5198TIP3    H137153   6.355   2.533   6.888  0.5338 -0.5694  1.5239
 5198TIP3    H237154   6.267   2.413   6.910 -1.0922  0.6019  1.5616
 5199TIP3   OH237155   1.330   5.466   8.947 -0.1921 -0.6648 -0.6182
 5199TIP3    H137156   1.247   5.512   8.932  0.5918  0.8691 -0.4095
 5199TIP3    H237157   1.386   5.493   8.874  0.9821  0.4414  0.6362
 5200TIP3   OH237158   3.157   5.781   0.670  0.2122  0.4154 -0.3055
 5200TIP3    H137159   3.179   5.769   0.577  0.9528 -2.0840  0.1159
 5200TIP3    H237160   3.062   5.778   0.673  0.1569 -2.9993 -0.7372
 5201TIP3   OH237161   0.602   3.714   0.192 -0.1709 -0.1711 -0.6736
 5201TIP3    H137162   0.554   3.719   0.274 -0.7187  0.1199 -1.0065
 5201TIP3    H237163   0.537   3.687   0.127  0.3829 -0.9732 -0.9088
 5202TIP3   OH237164   1.979   4.778   0.706 -0.2613  0.3501 -0.4138
 5202TIP3    H137165   1.902   4.748   0.756  0.7402 -2.0119 -0.1718
 5202TIP3    H237166   2.046   4.795   0.772  0.8717 -2.1808 -0.8144
 5203TIP3   OH237167   0.109   0.838   7.665 -0.5698  0.7063  0.4813
 5203TIP3    H137168   0.203   0.830   7.682  0.0851  0.6107 -2.5243
 5203TIP3    H237169   0.080   0.908   7.723  1.4707  1.0868  1.1271
 5204TIP3   OH237170   2.832   3.204   2.998  0.8556 -0.3395 -0.0299
 5204TIP3    H137171   2.800   3.229   2.911  2.1507 -1.5274 -0.9013
 5204TIP3    H237172   2.755   3.206   3.053 -0.3227 -1.0045 -1.5650
 5205TIP3   OH237173   4.158   6.277   1.989  0.2539 -0.4932 -0.1183
 5205TIP3    H137174   4.176   6.226   1.910 -0.8253  0.8810 -1.3132
 5205TIP3    H237175   4.118   6.215   2.050  1.4841 -1.6722 -0.4737
 5206TIP3   OH237176   1.360   0.359   0.294 -0.1270 -0.2904 -0.1023
 5206TIP3    H137177   1.405   0.284   0.256  0.5295  0.1895 -0.3119
 5206TIP3    H237178   1.422   0.432   0.282 -1.1623  0.4993 -0.8222
 5207TIP3   OH237179   1.103   3.288   1.149 -0.0445  0.0015  0.1142
 5207TIP3    H137180   1.057   3.365   1.114 -4.4534 -2.4897 -0.3140
 5207TIP3    H237181   1.188   3.322   1.177 -0.0682  4.1822 -3.6741
 5208TIP3   OH237182   2.099   5.242   9.089  0.0875 -0.0072  0.0009
 5208TIP3    H137183   2.056   5.249   9.174  0.1701  0.9655 -0.0323
 5208TIP3    H237184   2.117   5.148   9.079 -0.8431 -0.2650  0.5943
 5209TIP3   OH237185   1.055   1.427   1.698  0.2632 -0.2128  0.3887
 5209TIP3    H137186   1.090   1.501   1.649  1.3393 -0.8366  0.1910
 5209TIP3    H237187   0.964   1.452   1.717 -0.3752 -0.1562 -2.3533
 5210TIP3   OH237188   2.295   3.536   0.163 -0.7372  0.4165 -0.0235
 5210TIP3    H137189   2.204   3.552   0.139 -0.2106  1.6717 -1.3205
 5210TIP3    H237190   2.311   3.445   0.136 -1.4446  0.3463 -0.2312
 5211TIP3   OH237191   2.235   2.205   0.152  0.5746 -0.0709 -0.9134
 5211TIP3    H137192   2.234   2.200   0.248  1.7512  2.1356 -0.7346
 5211TIP3    H237193   2.159   2.152   0.125  0.3954 -0.9873  1.1911
 5212TIP3   OH237194   1.717   6.163   9.114 -0.2094  0.5621 -0.0870
 5212TIP3    H137195   1.697   6.069   9.107 -0.7749  0.8080 -2.8243
 5212TIP3    H237196   1.641   6.199   9.160 -0.3442 -0.1885  0.3126
 5213TIP3   OH237197   6.270   3.797   6.942  0.0652  0.1592 -0.8585
 5213TIP3    H137198   6.361   3.799   6.971  0.0821  1.8181 -0.9435
 5213TIP3    H237199   6.244   3.705   6.951  1.4977 -0.1981 -0.0814
 5214TIP3   OH237200   1.893   0.244   9.038  0.1206  0.6031 -0.7727
 5214TIP3    H137201   1.833   0.295   8.985 -0.2103  3.1894  1.8128
 5214TIP3    H237202   1.844   0.225   9.118  1.4224 -0.8038 -0.2587
 5215TIP3   OH237203   1.178   2.058   7.490 -1.0260 -0.0953 -0.3235
 5215TIP3    H137204   1.249   2.122   7.500  1.1641 -2.6121  1.8299
 5215TIP3    H237205   1.099   2.105   7.515  0.0329  2.4376 -1.4230
 5216TIP3   OH237206   0.798   5.346   1.958  0.6075 -0.4311  0.2535
 5216TIP3    H137207   0.849   5.384   2.029  1.9781 -0.2385 -0.7897
 5216TIP3    H237208   0.759   5.267   1.996 -0.6736  0.9059  1.8791
 5217TIP3   OH237209   3.617   0.863   8.374  0.9401  0.4136 -0.1312
 5217TIP3    H137210   3.620   0.866   8.278  1.0874 -1.8340 -0.2637
 5217TIP3    H237211   3.524   0.863   8.395  0.8930  0.2565 -0.3314
 5218TIP3   OH237212   0.609   5.562   0.684  0.0340 -0.5653 -0.3949
 5218TIP3    H137213   0.589   5.622   0.757  2.8307  0.3798 -0.2857
 5218TIP3    H237214   0.608   5.618   0.607  3.4932 -0.0320 -0.1936
 5219TIP3   OH237215   5.208   5.471   8.283 -0.2332  0.3800  0.0798
 5219TIP3    H137216   5.228   5.400   8.345 -2.6553 -0.7313 -0.3188
 5219TIP3    H237217   5.250   5.443   8.201 -0.8561 -0.4505  0.0247
 5220TIP3   OH237218   0.043   3.490   0.634  0.0973 -0.5028  0.2378
 5220TIP3    H137219  -0.003   3.553   0.689 -0.0286  0.5575 -1.0407
 5220TIP3    H237220  -0.003   3.407   0.648 -0.4760 -0.0575  1.0317
 5221TIP3   OH237221   5.986   2.528   9.064  0.3642 -0.1898 -0.4418
 5221TIP3    H137222   5.939   2.605   9.031 -0.3079 -0.1246  0.6289
 5221TIP3    H237223   6.006   2.477   8.986  1.7758  1.5702 -1.3277
 5222TIP3   OH237224   2.979   0.316   8.595 -0.2653  0.7084  0.4999
 5222TIP3    H137225   3.011   0.230   8.623 -0.4660 -0.0036 -1.3565
 5222TIP3    H237226   2.887   0.318   8.624 -0.2162  0.3576  0.6798
 5223TIP3   OH237227   2.088   2.871   0.957  0.0767 -0.6189 -0.7261
 5223TIP3    H137228   2.028   2.945   0.947 -1.6294 -1.8235  0.0463
 5223TIP3    H237229   2.056   2.805   0.896  1.3011 -0.9210 -1.0796
 5224TIP3   OH237230   4.919   4.887   8.777 -0.3609 -0.1280  0.0881
 5224TIP3    H137231   4.879   4.965   8.815  1.3158  0.3140  1.0699
 5224TIP3    H237232   5.009   4.887   8.812  0.6557 -0.8047 -2.3340
 5225TIP3   OH237233   2.034   5.157   8.585  1.0487 -0.2778  0.0900
 5225TIP3    H137234   2.022   5.190   8.674  0.9195  1.1427 -0.4313
 5225TIP3    H237235   2.122   5.186   8.560  1.1416 -0.7884 -0.2059
 5226TIP3   OH237236   4.306   3.556   0.105  0.0010  1.2375 -0.4541
 5226TIP3    H137237   4.377   3.614   0.078 -0.6656  2.4637  0.3402
 5226TIP3    H237238   4.238   3.569   0.038 -0.4515  1.9831  0.1324
 5227TIP3   OH237239   1.245   5.867   8.809 -0.0791 -0.2066  0.2925
 5227TIP3    H137240   1.333   5.854   8.844 -0.6370 -0.9972  1.4592
 5227TIP3    H237241   1.186   5.833   8.877 -1.3439  1.3947  0.0811
 5228TIP3   OH237242   2.414   6.003   9.301  0.1304  0.1397  1.0045
 5228TIP3    H137243   2.376   6.070   9.243 -0.6586  1.8629  3.3503
 5228TIP3    H237244   2.418   5.924   9.247  0.7569  1.9334 -1.8213
 5229TIP3   OH237245   3.248   3.116   0.921 -0.0749 -0.4932  0.1496
 5229TIP3    H137246   3.177   3.106   0.984 -0.2733 -0.1644 -0.0215
 5229TIP3    H237247   3.302   3.038   0.934  0.9655  0.4775  2.0868
 5230TIP3   OH237248   0.403   1.653   0.154 -0.1950 -0.1709  0.1416
 5230TIP3    H137249   0.318   1.636   0.195 -0.3309  0.6196  0.1943
 5230TIP3    H237250   0.384   1.652   0.060  0.3153 -3.1318 -0.0483
 5231TIP3   OH237251   3.859   0.723   7.379  0.0689 -0.1328 -0.1302
 5231TIP3    H137252   3.932   0.713   7.439 -0.4041 -0.4222  0.4050
 5231TIP3    H237253   3.831   0.634   7.359 -0.6818 -0.0186  0.3533
 5232TIP3   OH237254   1.634   4.260   1.429  0.1374 -0.1126  0.2617
 5232TIP3    H137255   1.684   4.180   1.412  0.4653  0.2229 -0.3632
 5232TIP3    H237256   1.644   4.275   1.523  1.9749  0.4539  0.0065
 5233TIP3   OH237257   0.438   2.550   1.044  0.2565 -0.1106  0.0219
 5233TIP3    H137258   0.486   2.544   1.126 -0.1195 -0.1409  0.2431
 5233TIP3    H237259   0.426   2.644   1.030  0.2821 -0.1070  0.0254
 5234TIP3   OH237260   5.356   4.546   0.077  0.2297  0.3512 -0.1838
 5234TIP3    H137261   5.350   4.486   0.002  0.7993  0.2152 -0.1309
 5234TIP3    H237262   5.317   4.627   0.046  1.7172  0.7492 -1.1212
 5235TIP3   OH237263   5.173   5.369   8.891 -0.0094 -0.0910  0.0636
 5235TIP3    H137264   5.145   5.429   8.960  0.0425  0.2387 -0.1970
 5235TIP3    H237265   5.268   5.371   8.894  0.0149 -1.8897  1.5295
 5236TIP3   OH237266   0.542   6.216   7.764 -0.6464  0.0845  0.1018
 5236TIP3    H137267   0.476   6.276   7.729 -1.7004 -0.2263  1.4903
 5236TIP3    H237268   0.494   6.158   7.822  0.6965 -0.8206  0.3614
 5237TIP3   OH237269   4.995   3.763   1.970  0.3655  0.2896 -0.2001
 5237TIP3    H137270   5.005   3.735   2.061  0.0317  1.1215  0.0976
 5237TIP3    H237271   4.901   3.771   1.958  0.4319  0.6673 -0.4721
 5238TIP3   OH237272   5.008   6.499   0.644 -0.5032  0.0396 -0.1785
 5238TIP3    H137273   4.942   6.468   0.706  0.5463 -1.4223  0.2705
 5238TIP3    H237274   5.065   6.423   0.629  0.5427  0.9855 -1.2569
 5239TIP3   OH237275   2.920   5.036   8.466  0.0266 -0.0078 -0.8936
 5239TIP3    H137276   3.004   4.994   8.483 -1.4779 -2.4954  1.1603
 5239TIP3    H237277   2.934   5.128   8.488  1.9275 -0.5562  0.4335
 5240TIP3   OH237278   1.163   4.447   2.402 -0.4894  0.4798 -0.0331
 5240TIP3    H137279   1.250   4.422   2.372 -0.7651 -0.1502 -0.3069
 5240TIP3    H237280   1.164   4.543   2.399 -0.8158  0.4778 -3.0291
 5241TIP3   OH237281   6.172   0.373   0.956  0.5826 -0.5766  0.2470
 5241TIP3    H137282   6.172   0.414   0.870  1.0733 -1.0986 -0.0103
 5241TIP3    H237283   6.124   0.434   1.012 -0.9035 -0.8514 -0.6778
 5242TIP3   OH237284   0.495   3.275   0.429 -0.6454 -0.1962 -0.2991
 5242TIP3    H137285   0.433   3.322   0.373  1.2583  2.1177 -0.5934
 5242TIP3    H237286   0.525   3.340   0.491  0.6013 -1.5859  0.6157
 5243TIP3   OH237287   1.845   3.490   0.671  0.3627 -0.4750  0.1275
 5243TIP3    H137288   1.850   3.473   0.766 -1.3997 -3.4264 -0.1790
 5243TIP3    H237289   1.909   3.560   0.656  0.6455  0.1693  3.4848
 5244TIP3   OH237290   2.005   3.296   9.017  0.0238 -0.0406 -0.6013
 5244TIP3    H137291   2.014   3.383   9.055 -0.9465  0.1235 -0.7248
 5244TIP3    H237292   1.934   3.305   8.953  0.0726 -0.8637 -0.7783
 5245TIP3   OH237293   3.306   4.420   9.059  0.0877 -0.0820  0.4199
 5245TIP3    H137294   3.363   4.497   9.056 -0.1792  0.0883 -0.6661
 5245TIP3    H237295   3.224   4.449   9.021 -0.0910 -0.8411  0.2010
 5246TIP3   OH237296   6.447   0.842   0.709 -0.7914  0.4822  0.3353
 5246TIP3    H137297   6.478   0.920   0.663 -1.0153  1.4711  1.7897
 5246TIP3    H237298   6.402   0.876   0.786 -0.5512 -1.1034  1.2128
 5247TIP3   OH237299   1.891   2.740   1.742  0.6070 -0.2124  0.4668
 5247TIP3    H137300   1.832   2.667   1.761 -0.7367  0.5415 -0.5622
 5247TIP3    H237301   1.964   2.729   1.802 -1.6045  0.0188  3.4357
 5248TIP3   OH237302   3.234   6.402   8.083  0.6293 -0.1598 -0.2652
 5248TIP3    H137303   3.188   6.332   8.037 -0.9429  1.9308 -2.0569
 5248TIP3    H237304   3.293   6.439   8.017  1.0619  0.5338  0.4938
 5249TIP3   OH237305   5.316   1.313   8.984  0.8280  0.4718 -0.6750
 5249TIP3    H137306   5.270   1.354   9.057  3.8357  1.1569  0.9924
 5249TIP3    H237307   5.340   1.226   9.017  0.7381  0.1183 -1.5165
 5250TIP3   OH237308   1.845   0.080   6.913  0.1679  0.2036  0.1079
 5250TIP3    H137309   1.933   0.044   6.930  0.3408 -0.1381 -1.3897
 5250TIP3    H237310   1.789   0.003   6.906  0.1436  0.3051 -0.9926
 5251TIP3   OH237311   1.600   0.523   0.325  0.0186 -0.1515 -0.0963
 5251TIP3    H137312   1.628   0.447   0.274 -0.0755  0.6661 -1.3967
 5251TIP3    H237313   1.610   0.598   0.266 -3.3266  0.4157 -0.1841
 5252TIP3   OH237314   1.594   5.258   6.757  0.0323  0.4423  0.1220
 5252TIP3    H137315   1.616   5.222   6.671  0.8824 -1.2264  0.9930
 5252TIP3    H237316   1.506   5.227   6.775  0.5449 -0.7793  0.6182
 5253TIP3   OH237317   3.568   5.661   1.620  0.3893 -0.1227 -1.0162
 5253TIP3    H137318   3.605   5.649   1.533  3.9460 -2.1913  0.5892
 5253TIP3    H237319   3.544   5.573   1.648 -0.0540  0.4076  0.3686
 5254TIP3   OH237320   5.054   3.294   1.087  0.3515 -0.0035 -0.1252
 5254TIP3    H137321   4.995   3.248   1.147  1.2160 -0.4497  0.4106
 5254TIP3    H237322   5.104   3.225   1.044  1.5416  0.3836  0.5589
 5255TIP3   OH237323   2.015   4.333   8.289  0.2565  0.2067 -0.1347
 5255TIP3    H137324   2.054   4.419   8.303 -0.7169  0.4876  1.0231
 5255TIP3    H237325   2.080   4.271   8.322  1.6799  0.3304 -2.4411
 5256TIP3   OH237326   1.045   2.428   8.652 -0.3224 -0.2832  0.1062
 5256TIP3    H137327   1.039   2.345   8.605 -0.7602 -0.4939  0.5287
 5256TIP3    H237328   1.123   2.419   8.706  1.4722  0.7775 -2.1269
 5257TIP3   OH237329   6.460   0.726   8.669 -0.0493 -0.2128 -0.1139
 5257TIP3    H137330   6.409   0.671   8.728  0.1199 -1.6157 -1.2386
 5257TIP3    H237331   6.534   0.757   8.722 -0.0756 -1.1821  0.5079
 5258TIP3   OH237332   1.279   3.110   6.922 -0.3111 -0.0455  0.2360
 5258TIP3    H137333   1.201   3.162   6.944 -0.7650 -0.0405 -1.2910
 5258TIP3    H237334   1.251   3.056   6.848  0.6606 -1.2562  0.7223
 5259TIP3   OH237335   4.931   4.476   0.314 -0.9022 -0.1600 -0.0130
 5259TIP3    H137336   5.011   4.478   0.260 -0.7022  1.2574  0.2980
 5259TIP3    H237337   4.912   4.383   0.324  1.3375 -0.6084  0.8054
 5260TIP3   OH237338   0.010   4.439   1.830  0.6924  0.2438 -0.5957
 5260TIP3    H137339   0.050   4.444   1.743  0.7456 -2.4023 -0.8045
 5260TIP3    H237340   0.012   4.346   1.852 -0.4510  0.6928  1.7325
 5261TIP3   OH237341   3.392   3.126   8.168  0.1579  0.4704  0.0613
 5261TIP3    H137342   3.313   3.173   8.197  2.1751  3.1437  1.6796
 5261TIP3    H237343   3.383   3.039   8.208 -2.1738  0.4859 -0.2473
 5262TIP3   OH237344   4.610   1.544   8.191  0.0186 -0.4407  0.3384
 5262TIP3    H137345   4.601   1.637   8.173 -1.3548 -0.5851  0.2022
 5262TIP3    H237346   4.698   1.522   8.159  0.3099  0.7696  0.2670
 5263TIP3   OH237347   3.209   2.072   1.882  0.1401  0.1427 -0.3310
 5263TIP3    H137348   3.118   2.099   1.890  0.4325  1.0927 -0.0506
 5263TIP3    H237349   3.259   2.146   1.916  0.9293 -1.5697  2.6690
 5264TIP3   OH237350   4.876   2.083   1.032  0.0417  0.2860 -0.6177
 5264TIP3    H137351   4.816   2.082   0.958  2.5670  0.9929 -2.8134
 5264TIP3    H237352   4.878   2.175   1.060 -0.8246  0.0396  0.3105
 5265TIP3   OH237353   4.002   4.792   1.117  0.0997  0.3622  0.1847
 5265TIP3    H137354   3.974   4.852   1.048  0.0250 -0.1315 -0.2229
 5265TIP3    H237355   4.076   4.744   1.078  1.0620  1.1597  0.9953
 5266TIP3   OH237356   3.071   5.260   0.248  0.0430  0.2863  0.4851
 5266TIP3    H137357   3.096   5.168   0.240  0.5188  0.3892  0.7637
 5266TIP3    H237358   3.130   5.296   0.314  0.2504  0.9415 -0.0435
 5267TIP3   OH237359   1.523   4.958   8.389 -0.2687  0.7362  0.0605
 5267TIP3    H137360   1.506   4.888   8.325  1.2385  0.2423  0.1626
 5267TIP3    H237361   1.615   4.980   8.377  0.9119 -1.2481  3.8243
 5268TIP3   OH237362   0.616   2.705   0.828 -0.2701 -0.1516  0.1239
 5268TIP3    H137363   0.565   2.678   0.751 -1.0195 -0.0277  0.5689
 5268TIP3    H237364   0.579   2.790   0.852 -0.1623 -0.2778  0.7393
 5269TIP3   OH237365   0.998   2.534   1.199  0.0092  0.0022  0.5252
 5269TIP3    H137366   0.997   2.445   1.165  0.3707 -0.1392  0.8738
 5269TIP3    H237367   0.929   2.579   1.151  1.7091  0.3215 -1.7683
 5270TIP3   OH237368   5.455   2.324   8.022  0.3626 -0.2564 -0.2368
 5270TIP3    H137369   5.365   2.344   8.049 -0.0482  0.1304 -1.7435
 5270TIP3    H237370   5.510   2.371   8.084 -0.5319  1.4914 -0.6888
 5271TIP3   OH237371   5.142   2.560   1.642 -0.8095  0.2557 -0.2417
 5271TIP3    H137372   5.142   2.466   1.661 -0.7612  0.4475  0.7536
 5271TIP3    H237373   5.074   2.596   1.699 -1.2055  0.7566 -1.0181
 5272TIP3   OH237374   1.430   0.582   1.826 -0.4981  0.0730 -0.1061
 5272TIP3    H137375   1.360   0.636   1.862 -0.3372 -0.6102  1.3227
 5272TIP3    H237376   1.479   0.552   1.903  0.8848 -0.1120 -1.0237
 5273TIP3   OH237377   1.734   2.306   0.541 -0.4407 -0.0544 -0.1858
 5273TIP3    H137378   1.802   2.242   0.560  0.9272  1.2600 -0.4607
 5273TIP3    H237379   1.681   2.266   0.472  0.4672 -0.8028 -0.4597
 5274TIP3   OH237380   2.551   3.856   1.228  0.2655 -0.3755  0.3896
 5274TIP3    H137381   2.522   3.767   1.210  0.8209 -0.2820 -1.0550
 5274TIP3    H237382   2.594   3.885   1.148  0.9589  0.8553  1.1650
 5275TIP3   OH237383   2.836   6.347   7.790 -0.1909 -0.4960  0.3564
 5275TIP3    H137384   2.781   6.284   7.743  1.3377 -2.0016  0.4772
 5275TIP3    H237385   2.910   6.362   7.731 -0.9817  2.0443 -0.1133
 5276TIP3   OH237386   5.629   2.613   2.131  0.0873 -0.6190 -0.3271
 5276TIP3    H137387   5.688   2.688   2.119  0.5212 -0.8323  0.3671
 5276TIP3    H237388   5.687   2.537   2.125 -0.0938 -0.8254  0.4896
 5277TIP3   OH237389   0.661   0.170   0.580  0.2638 -0.1446 -0.4310
 5277TIP3    H137390   0.697   0.225   0.510 -0.4039  0.6462 -0.1597
 5277TIP3    H237391   0.739   0.136   0.625  0.7383  2.0862  0.5670
 5278TIP3   OH237392   6.332   5.881   8.270  0.1614 -0.3347 -0.5015
 5278TIP3    H137393   6.338   5.891   8.365  1.8497  0.3241 -0.6456
 5278TIP3    H237394   6.242   5.906   8.249 -0.1136 -0.0784  0.8632
 5279TIP3   OH237395   1.118   0.209   8.520  0.3336  0.2915  0.2172
 5279TIP3    H137396   1.044   0.171   8.473 -0.1544  1.3638  0.0962
 5279TIP3    H237397   1.166   0.133   8.554 -0.7437 -0.4224  0.1955
 5280TIP3   OH237398   0.530   1.783   0.445  0.0882 -0.2127  0.3210
 5280TIP3    H137399   0.595   1.801   0.512  0.7716  0.3815 -0.4687
 5280TIP3    H237400   0.502   1.693   0.461  3.0994 -1.5043 -0.9028
 5281TIP3   OH237401   0.432   1.309   8.356 -0.1655  0.2121  0.1592
 5281TIP3    H137402   0.505   1.366   8.379 -0.2364  0.0909  0.6961
 5281TIP3    H237403   0.394   1.349   8.277  0.6784  0.0865 -0.3172
 5282TIP3   OH237404   3.482   4.502   7.754  0.6404  0.3658 -0.4557
 5282TIP3    H137405   3.419   4.431   7.753  2.5917 -1.4846 -2.2415
 5282TIP3    H237406   3.454   4.560   7.683  0.1980  0.2819 -0.3489
 5283TIP3   OH237407   0.616   1.337   1.488 -0.2654 -0.1855  0.0062
 5283TIP3    H137408   0.562   1.276   1.437 -1.0664 -0.1649  0.7951
 5283TIP3    H237409   0.609   1.420   1.442  0.7256 -0.6433 -1.0054
 5284TIP3   OH237410   5.007   5.153   7.280  0.6106 -0.1237  0.8115
 5284TIP3    H137411   4.965   5.102   7.349 -1.8751 -1.6592 -1.6200
 5284TIP3    H237412   4.953   5.231   7.272 -0.5717 -1.0446 -0.8269
 5285TIP3   OH237413   1.512   2.013   8.666 -0.1888 -0.6919  0.4612
 5285TIP3    H137414   1.604   2.032   8.651 -0.1894 -0.7927  0.3321
 5285TIP3    H237415   1.512   1.952   8.741 -0.3020  1.6637  2.5054
 5286TIP3   OH237416   4.165   1.402   7.712  0.1193 -0.4339 -0.3484
 5286TIP3    H137417   4.139   1.322   7.758  1.1509 -1.0645 -0.8245
 5286TIP3    H237418   4.095   1.465   7.730 -0.5070 -1.3234  0.3576
 5287TIP3   OH237419   5.759   1.748   7.526 -0.3881 -0.1321  0.5665
 5287TIP3    H137420   5.720   1.665   7.552 -0.8595  0.4738  1.8598
 5287TIP3    H237421   5.854   1.732   7.527 -0.4600 -0.5187  1.2532
 5288TIP3   OH237422   3.967   5.902   9.179  0.2697 -0.4998 -0.1142
 5288TIP3    H137423   3.944   5.845   9.107 -0.1953  1.2391 -1.4022
 5288TIP3    H237424   4.039   5.955   9.146 -0.6532  1.0619  0.2925
 5289TIP3   OH237425   1.434   0.970   7.695 -0.2392  0.1474 -0.1947
 5289TIP3    H137426   1.367   0.909   7.725  0.7211 -0.4586  0.7723
 5289TIP3    H237427   1.385   1.040   7.652 -1.3664 -1.2444 -1.2511
 5290TIP3   OH237428   1.627   3.516   8.841 -0.3673 -0.1197 -0.0747
 5290TIP3    H137429   1.669   3.431   8.827 -0.0912 -0.3290  1.7657
 5290TIP3    H237430   1.669   3.574   8.778  1.1971 -0.8045  0.2814
 5291TIP3   OH237431   5.251   4.307   7.228  0.2164  0.1274  0.4060
 5291TIP3    H137432   5.190   4.343   7.163  0.2123 -0.2808  0.1864
 5291TIP3    H237433   5.338   4.331   7.196  0.2021  0.1763  0.4023
 5292TIP3   OH237434   0.540   5.359   0.532 -0.1473  0.1937 -0.0261
 5292TIP3    H137435   0.622   5.347   0.484  0.4771  0.3759  0.9708
 5292TIP3    H237436   0.559   5.428   0.596 -1.8736  2.1786 -1.5326
 5293TIP3   OH237437   2.348   1.862   8.166 -0.4262  0.1649 -0.0631
 5293TIP3    H137438   2.442   1.871   8.185 -0.3084  1.6448 -1.1666
 5293TIP3    H237439   2.345   1.845   8.072 -1.1973 -2.4427  0.3355
 5294TIP3   OH237440   3.351   0.304   6.511  0.2474 -0.1401 -0.2236
 5294TIP3    H137441   3.340   0.389   6.552  0.1671 -0.7276  1.0017
 5294TIP3    H237442   3.445   0.298   6.492  0.4513 -0.2534  0.7720
 5295TIP3   OH237443   1.548   3.365   7.860 -0.0644  0.1275 -0.2554
 5295TIP3    H137444   1.494   3.415   7.799 -0.2119 -1.7197 -1.7443
 5295TIP3    H237445   1.596   3.431   7.909 -1.8868  1.7654 -0.5458
 5296TIP3   OH237446   2.303   4.732   7.464 -0.1435 -0.3946 -0.9558
 5296TIP3    H137447   2.351   4.813   7.481 -1.1535 -0.0499  0.4654
 5296TIP3    H237448   2.339   4.669   7.526  1.2003 -1.3351 -2.5901
 5297TIP3   OH237449   6.134   0.543   8.532  0.0264 -0.2428 -0.3502
 5297TIP3    H137450   6.223   0.521   8.504  0.1057  0.7194 -0.8890
 5297TIP3    H237451   6.128   0.638   8.523 -1.3396 -0.3733 -1.1875
 5298TIP3   OH237452   1.715   6.348   8.917  0.4246  0.1888  0.4045
 5298TIP3    H137453   1.712   6.438   8.948 -3.9890  0.7787 -1.0100
 5298TIP3    H237454   1.723   6.295   8.996 -1.5013  1.7906  1.7797
 5299TIP3   OH237455   0.857   4.122   8.051  0.1239  0.2114 -0.0590
 5299TIP3    H137456   0.893   4.208   8.028 -0.8727  0.8418  0.6614
 5299TIP3    H237457   0.764   4.139   8.068 -0.0464 -0.9839  0.2773
 5300TIP3   OH237458   4.401   6.617   0.428 -0.4343  0.0806 -0.2270
 5300TIP3    H137459   4.412   6.522   0.417  0.8549  0.3301 -1.4293
 5300TIP3    H237460   4.421   6.633   0.520  0.6913 -0.6794 -0.3144
 5301TIP3   OH237461   2.198   1.343   0.244 -0.1995  0.7803  0.0302
 5301TIP3    H137462   2.261   1.354   0.315 -0.1388  0.8594 -0.0358
 5301TIP3    H237463   2.115   1.372   0.282 -0.3554 -0.0634  0.3692
 5302TIP3   OH237464   5.904   1.616   8.079 -0.3822 -0.5415  0.0124
 5302TIP3    H137465   5.963   1.652   8.013 -1.3575  0.1067 -0.5302
 5302TIP3    H237466   5.869   1.693   8.124 -1.7420 -0.8263 -0.4983
 5303TIP3   OH237467   3.517   4.020   8.679 -0.0461  0.0706 -0.5072
 5303TIP3    H137468   3.521   3.998   8.772  1.4843 -0.6039 -0.6881
 5303TIP3    H237469   3.557   4.107   8.674 -0.7898  0.4149 -0.4504
 5304TIP3   OH237470   1.902   2.650   9.200  0.0644 -0.5311  0.8062
 5304TIP3    H137471   1.992   2.681   9.189 -0.4067  0.3714 -0.9916
 5304TIP3    H237472   1.896   2.623   9.291  1.2086  2.5499  1.9158
 5305TIP3   OH237473   4.738   5.645   9.169  0.1881 -0.0676  0.3511
 5305TIP3    H137474   4.667   5.599   9.125 -1.1493  0.7146  1.6218
 5305TIP3    H237475   4.774   5.580   9.230 -0.1402 -0.1430  0.4656
 5306TIP3   OH237476   3.171   0.588   7.724 -0.1006  0.6831  0.1124
 5306TIP3    H137477   3.186   0.495   7.745 -0.1906  0.3913 -1.0611
 5306TIP3    H237478   3.107   0.587   7.653 -0.7970  1.6926  0.6977
 5307TIP3   OH237479   2.726   0.737   1.201 -0.4262 -0.0640  0.1630
 5307TIP3    H137480   2.642   0.747   1.245 -0.8343 -2.7668  0.2075
 5307TIP3    H237481   2.704   0.704   1.114  0.5496  0.7149 -0.4066
 5308TIP3   OH237482   2.240   4.867   0.852  0.8183 -0.3227  0.7100
 5308TIP3    H137483   2.168   4.916   0.890  0.6813 -0.2695  0.3829
 5308TIP3    H237484   2.314   4.928   0.852  0.4483  0.1425 -0.4044
 5309TIP3   OH237485   6.235   1.810   8.725  0.0256  0.2272  0.1890
 5309TIP3    H137486   6.245   1.766   8.640  0.1786  0.3216  0.1567
 5309TIP3    H237487   6.188   1.747   8.779 -1.4610  0.7535 -0.4342
 5310TIP3   OH237488   6.586   2.305   1.465  0.1058  0.2664  0.2196
 5310TIP3    H137489   6.495   2.323   1.444 -0.1205 -0.9476  0.0766
 5310TIP3    H237490   6.592   2.210   1.468  1.3245  0.3258  0.4356
 5311TIP3   OH237491   2.259   1.628   0.011 -0.0943 -0.1222 -0.0566
 5311TIP3    H137492   2.206   1.567  -0.041  0.3051  0.1222 -0.7580
 5311TIP3    H237493   2.348   1.617  -0.022  0.3952 -0.8541  1.4156
 5312TIP3   OH237494   1.593   2.605   8.090  0.1186  0.2010 -0.3798
 5312TIP3    H137495   1.625   2.688   8.125 -3.0938  1.6053 -0.4536
 5312TIP3    H237496   1.610   2.542   8.159 -0.4300  1.6583  1.1548
 5313TIP3   OH237497   1.044   0.469   2.155 -0.1341  0.6472  0.1774
 5313TIP3    H137498   1.000   0.445   2.237 -1.2950  1.9283 -0.0343
 5313TIP3    H237499   1.007   0.554   2.132  1.2737  1.0036 -0.9091
 5314TIP3   OH237500   1.188   5.422   0.867  0.2464  0.3074  0.3603
 5314TIP3    H137501   1.266   5.368   0.882 -0.8126 -1.2195  0.4623
 5314TIP3    H237502   1.148   5.385   0.788 -1.2560  0.0312  1.2251
 5315TIP3   OH237503   4.702   5.038   2.126 -0.9235  0.0740 -0.2533
 5315TIP3    H137504   4.676   4.974   2.059 -1.7487  0.9686 -0.8334
 5315TIP3    H237505   4.624   5.093   2.136 -0.0175  1.3775 -0.2512
 5316TIP3   OH237506   2.033   3.516   8.013 -0.0294 -0.1971 -0.0091
 5316TIP3    H137507   2.063   3.481   7.929  2.6532  0.3127  0.6375
 5316TIP3    H237508   1.985   3.444   8.053  0.7056 -1.2760 -0.9928
 5317TIP3   OH237509   0.986   1.204   9.153 -0.0732  0.8167  0.4895
 5317TIP3    H137510   0.941   1.146   9.216  0.1646  1.0198  0.8516
 5317TIP3    H237511   1.018   1.146   9.085 -1.2467  0.7089  0.0083
 5318TIP3   OH237512   6.601   6.608   1.002 -0.0848  0.0793 -0.2963
 5318TIP3    H137513   6.548   6.652   0.935  0.9378 -1.0960 -1.9694
 5318TIP3    H237514   6.672   6.669   1.020 -0.3177  0.3702 -0.3580
 5319TIP3   OH237515   3.712   4.414   8.780  0.6412  0.1329 -0.5025
 5319TIP3    H137516   3.711   4.459   8.695 -1.6896 -0.0645 -0.6212
 5319TIP3    H237517   3.691   4.482   8.844 -1.3464 -0.4105 -0.5206
 5320TIP3   OH237518   2.264   3.348   8.631 -0.1955  0.1955 -0.0557
 5320TIP3    H137519   2.257   3.433   8.588 -0.3896  0.0147 -0.3916
 5320TIP3    H237520   2.217   3.358   8.714 -2.4343 -0.2893 -1.1932
 5321TIP3   OH237521   6.531   4.570   2.447 -0.2069 -0.3622  0.5115
 5321TIP3    H137522   6.436   4.574   2.436 -0.1219  0.7051 -0.0347
 5321TIP3    H237523   6.563   4.529   2.367 -0.1553  0.0971  0.2912
 5322TIP3   OH237524   3.218   2.530   7.961  0.5357 -0.3484  0.1580
 5322TIP3    H137525   3.195   2.615   7.998 -4.1750 -1.5338  0.6009
 5322TIP3    H237526   3.180   2.531   7.873  0.3521 -1.9665  0.1945
 5323TIP3   OH237527   0.302   6.413   0.166  0.1911  0.1017  0.2063
 5323TIP3    H137528   0.375   6.352   0.175 -1.0634 -1.4139  0.6306
 5323TIP3    H237529   0.264   6.418   0.254 -0.9896 -0.1858 -0.2640
 5324TIP3   OH237530   1.319   1.927   9.306 -0.0215 -0.4370 -0.5124
 5324TIP3    H137531   1.259   1.980   9.358 -0.1882  1.6454 -2.6636
 5324TIP3    H237532   1.395   1.913   9.363 -0.8345  0.3809  0.8149
 5325TIP3   OH237533   1.663   0.563   1.639 -0.0651  0.0258  0.1929
 5325TIP3    H137534   1.585   0.602   1.678 -0.8037 -0.6994 -0.5136
 5325TIP3    H237535   1.735   0.589   1.697 -0.9876 -0.2265  1.4968
 5326TIP3   OH237536   2.402   6.456   1.240  0.6363  0.0040 -0.2372
 5326TIP3    H137537   2.398   6.537   1.292  1.2530 -1.0634  1.5320
 5326TIP3    H237538   2.369   6.388   1.298 -0.5548 -0.9621 -1.9365
 5327TIP3   OH237539   0.800   2.890   8.175 -0.1609  0.1232  0.4390
 5327TIP3    H137540   0.791   2.799   8.204  0.7627 -0.0512  0.2006
 5327TIP3    H237541   0.732   2.901   8.108  0.1021 -0.5602  0.0544
 5328TIP3   OH237542   4.981   4.611   0.025  0.1869  0.6216 -0.2875
 5328TIP3    H137543   5.062   4.663   0.030  1.8829 -1.2948 -4.0996
 5328TIP3    H237544   5.010   4.523   0.001 -3.0022 -0.4734 -0.5863
 5329TIP3   OH237545   1.939   3.961   1.259 -0.1482 -0.1384 -0.5718
 5329TIP3    H137546   1.945   4.050   1.226  1.0199  0.4184  1.0297
 5329TIP3    H237547   1.998   3.910   1.204  1.4369  0.6854  0.2901
 5330TIP3   OH237548   5.787   2.933   7.390 -0.0302  0.4090 -0.5570
 5330TIP3    H137549   5.880   2.946   7.405 -0.5189  2.5305  0.9917
 5330TIP3    H237550   5.778   2.933   7.294  1.9251 -3.5865 -0.9582
 5331TIP3   OH237551   1.095   6.514   0.173  0.2590  0.3325 -0.4594
 5331TIP3    H137552   1.011   6.490   0.212  1.2529 -1.3376  0.8053
 5331TIP3    H237553   1.118   6.597   0.213  0.3465 -0.4202  1.1314
 5332TIP3   OH237554   2.567   5.737   9.202 -0.9405 -0.1097  0.1099
 5332TIP3    H137555   2.484   5.706   9.165 -0.8818  0.8611 -0.9090
 5332TIP3    H237556   2.597   5.803   9.140  0.7288 -0.6058  0.3344
 5333TIP3   OH237557   0.109   4.365   8.900  0.0135  0.3235 -1.0559
 5333TIP3    H137558   0.174   4.404   8.959  1.0393 -2.5803 -0.1036
 5333TIP3    H237559   0.045   4.325   8.959 -0.8974  0.3786 -1.9869
 5334TIP3   OH237560   2.548   3.237   3.127  0.4826  0.2761  0.0367
 5334TIP3    H137561   2.501   3.255   3.045  1.0102 -0.0862 -0.3447
 5334TIP3    H237562   2.490   3.272   3.195 -0.1409  0.2289 -0.4602
 5335TIP3   OH237563   4.938   2.305   0.482  0.4972 -0.2569  0.0754
 5335TIP3    H137564   5.011   2.361   0.455 -1.5094  2.7314  0.4261
 5335TIP3    H237565   4.931   2.317   0.577 -1.8374  1.4806 -0.2268
 5336TIP3   OH237566   4.851   0.818   2.628  0.2622  0.1605  0.0189
 5336TIP3    H137567   4.919   0.758   2.658 -1.1174 -1.2576  0.4836
 5336TIP3    H237568   4.868   0.899   2.675  1.8966 -0.0069 -0.2513
 5337TIP3   OH237569   1.234   4.518   1.206  0.1131 -0.3040  0.0938
 5337TIP3    H137570   1.191   4.484   1.284  0.3999 -1.8031 -0.3498
 5337TIP3    H237571   1.269   4.603   1.232  1.4284 -1.3594  2.0427
 5338TIP3   OH237572   0.038   0.582   7.123 -0.1391  0.0816  0.0561
 5338TIP3    H137573   0.133   0.568   7.127  0.1690  1.6110 -0.8565
 5338TIP3    H237574   0.029   0.675   7.102 -1.8281 -0.2312 -0.7395
 5339TIP3   OH237575   2.762   0.901   2.173  0.0942 -0.4305 -0.4161
 5339TIP3    H137576   2.730   0.819   2.136  0.0075 -0.6894  0.2062
 5339TIP3    H237577   2.710   0.969   2.130 -1.0000 -0.8166  0.2344
 5340TIP3   OH237578   1.822   0.895   1.922  0.1694  0.0276 -1.1816
 5340TIP3    H137579   1.752   0.906   1.857  1.6874 -1.1402 -3.1320
 5340TIP3    H237580   1.776   0.884   2.005 -1.8953  0.8257 -2.1426
 5341TIP3   OH237581   6.087   3.705   1.139  0.2805  0.0144 -0.0784
 5341TIP3    H137582   6.010   3.656   1.110 -0.8497  1.2533  0.7504
 5341TIP3    H237583   6.088   3.783   1.084 -0.3350  1.0748  1.3827
 5342TIP3   OH237584   0.821   3.499   8.048 -0.2790  0.3525  0.0223
 5342TIP3    H137585   0.909   3.502   8.087  0.4202  0.4247 -1.4939
 5342TIP3    H237586   0.837   3.502   7.954 -1.9784  1.7419 -0.2636
 5343TIP3   OH237587   2.457   2.926   7.873 -0.4264 -0.0211 -0.5550
 5343TIP3    H137588   2.467   2.943   7.780 -1.1487  0.1848 -0.6063
 5343TIP3    H237589   2.509   2.993   7.916 -0.5038  0.2036 -0.8075
 5344TIP3   OH237590   1.167   3.214   8.265  1.0135 -0.4233  0.2400
 5344TIP3    H137591   1.234   3.225   8.198 -0.8257 -0.4205 -1.7288
 5344TIP3    H237592   1.130   3.127   8.249  0.6016 -0.4792  1.3418
 5345TIP3   OH237593   4.584   4.936   8.233  0.4905  0.0014  0.4155
 5345TIP3    H137594   4.649   4.952   8.165 -0.9534  1.4197 -0.6996
 5345TIP3    H237595   4.597   4.845   8.258  0.8609 -0.6758 -1.9960
 5346TIP3   OH237596   4.396   6.528   8.941 -0.2924  0.2277  0.2172
 5346TIP3    H137597   4.301   6.528   8.929 -0.0167  1.0895 -2.7898
 5346TIP3    H237598   4.409   6.498   9.031 -3.3839 -0.0389  0.6786
 5347TIP3   OH237599   4.642   4.519   1.488 -0.0639  0.5842 -0.3119
 5347TIP3    H137600   4.590   4.598   1.506 -0.7918 -0.0986  0.6979
 5347TIP3    H237601   4.715   4.524   1.551 -2.0931 -1.3268  2.3950
 5348TIP3   OH237602   5.133   1.192   7.739  0.3519  0.1855 -0.2570
 5348TIP3    H137603   5.045   1.207   7.772  0.0246 -2.1578  0.1223
 5348TIP3    H237604   5.189   1.196   7.818  0.2757 -0.4561 -0.1687
 5349TIP3   OH237605   2.516   5.146   8.163  0.4020  0.3386  0.1706
 5349TIP3    H137606   2.447   5.135   8.228 -0.2875  1.3717 -0.3665
 5349TIP3    H237607   2.592   5.101   8.200 -0.1270  0.4703  1.4430
 5350TIP3   OH237608   4.392   4.851   0.460 -0.0955 -0.4872  0.3600
 5350TIP3    H137609   4.299   4.859   0.483 -0.2985  0.6253 -0.7168
 5350TIP3    H237610   4.431   4.932   0.492  1.1041 -2.0729  3.2193
 5351TIP3   OH237611   2.977   4.653   0.250 -0.1097  0.2776  0.1683
 5351TIP3    H137612   2.929   4.594   0.192 -1.3266  0.7215  0.6740
 5351TIP3    H237613   3.064   4.661   0.211 -0.1246 -1.3290 -0.2456
 5352TIP3   OH237614   3.409   6.273   0.501  0.0250 -0.7759 -0.3559
 5352TIP3    H137615   3.345   6.209   0.532  0.1123 -1.1302 -0.8989
 5352TIP3    H237616   3.423   6.251   0.409 -0.8388  0.7562 -0.8987
 5353TIP3   OH237617   0.224   3.168   2.374  0.6061 -0.2195  0.4481
 5353TIP3    H137618   0.139   3.191   2.335  0.7206 -0.8721 -0.2151
 5353TIP3    H237619   0.206   3.089   2.425  1.0145 -0.9807 -0.5541
 5354TIP3   OH237620   1.063   0.679   9.002  0.5425  0.3789 -0.5463
 5354TIP3    H137621   1.154   0.703   9.017  0.4594 -0.9443  2.8223
 5354TIP3    H237622   1.067   0.610   8.935  1.6815  2.0782 -2.3298
 5355TIP3   OH237623   0.162   6.506   7.931 -0.2185  0.0085  0.0923
 5355TIP3    H137624   0.127   6.528   7.845 -0.1261  2.4234  0.6130
 5355TIP3    H237625   0.192   6.415   7.922 -2.1017 -0.5035 -1.7721
 5356TIP3   OH237626   5.306   1.137   0.049 -0.0826 -0.5854  0.3902
 5356TIP3    H137627   5.342   1.219   0.083  2.5339 -0.9153 -1.3036
 5356TIP3    H237628   5.243   1.164  -0.017  0.1595  0.0846  0.4211
 5357TIP3   OH237629   4.361   6.150   0.954  0.0879  0.2450  0.0390
 5357TIP3    H137630   4.446   6.159   0.997 -0.1104 -2.1329  1.0823
 5357TIP3    H237631   4.380   6.108   0.871 -0.1592 -1.7501  0.9498
 5358TIP3   OH237632   0.731   3.099   0.386  0.3416  0.6242  0.5112
 5358TIP3    H137633   0.650   3.147   0.370 -0.2891 -1.0193 -1.7520
 5358TIP3    H237634   0.704   3.022   0.436  0.4123 -0.0119 -0.3879
 5359TIP3   OH237635   3.174   5.465   8.991  0.7169  0.3978 -0.1657
 5359TIP3    H137636   3.264   5.484   9.018  0.5293  0.0496  0.7434
 5359TIP3    H237637   3.140   5.408   9.060 -0.7368  1.8467  0.3817
 5360TIP3   OH237638   6.157   2.812   0.417  0.3302  0.2791  0.2777
 5360TIP3    H137639   6.207   2.893   0.426  0.4000  0.5157 -1.6720
 5360TIP3    H237640   6.112   2.822   0.332 -1.4896 -0.7449  1.0708
 5361TIP3   OH237641   2.282   3.951   1.436 -0.8147  0.4146 -0.2193
 5361TIP3    H137642   2.249   3.884   1.375  1.7623 -1.3786  0.1615
 5361TIP3    H237643   2.254   3.921   1.522 -0.4388  0.3150 -0.1292
 5362TIP3   OH237644   5.890   3.217   1.064 -0.4559  0.4969  0.5204
 5362TIP3    H137645   5.818   3.159   1.039 -0.2702  0.6628 -0.4362
 5362TIP3    H237646   5.868   3.301   1.023  0.2536  0.5598  0.2592
 5363TIP3   OH237647   5.956   6.111   1.781 -0.2420 -0.3809  0.2755
 5363TIP3    H137648   5.861   6.117   1.774 -0.1372  0.8345 -0.3708
 5363TIP3    H237649   5.980   6.186   1.835  0.2445 -1.5006  1.6652
 5364TIP3   OH237650   0.627   0.054   7.846 -0.7488 -0.4831 -0.5268
 5364TIP3    H137651   0.624   0.094   7.759 -0.5841 -0.4510 -0.5180
 5364TIP3    H237652   0.536   0.052   7.875 -0.6284  1.2957  0.1232
 5365TIP3   OH237653   3.569   4.243   0.058 -0.1428 -0.3024  0.7013
 5365TIP3    H137654   3.502   4.267   0.122 -0.1156  0.2051  0.5477
 5365TIP3    H237655   3.613   4.326   0.037 -1.9386  0.0882 -2.0602
 5366TIP3   OH237656   5.493   6.327   9.163 -0.2957  0.5522 -0.1927
 5366TIP3    H137657   5.425   6.345   9.098 -0.0691 -0.5201 -0.7419
 5366TIP3    H237658   5.531   6.413   9.182 -0.3225  0.8691 -1.5246
 5367TIP3   OH237659   0.490   5.049   7.253  0.3692  0.3219  0.1790
 5367TIP3    H137660   0.584   5.032   7.260  0.3277 -0.1384 -0.3449
 5367TIP3    H237661   0.480   5.094   7.169  0.1075  0.2809  0.1895
 5368TIP3   OH237662   5.295   2.309   6.861 -0.0493 -0.0632  0.0502
 5368TIP3    H137663   5.377   2.324   6.815 -0.9366  0.6799 -1.3376
 5368TIP3    H237664   5.322   2.272   6.945  1.6660 -0.3978 -0.6032
 5369TIP3   OH237665   0.730   2.980   8.442  0.4618  0.6306 -0.4274
 5369TIP3    H137666   0.729   2.936   8.357  1.4041 -1.2155  0.4406
 5369TIP3    H237667   0.815   3.023   8.446  1.3845 -1.1404  0.3869
 5370TIP3   OH237668   1.198   2.252   8.885  0.2727  0.3756 -0.0172
 5370TIP3    H137669   1.116   2.274   8.930  1.4268  3.2619  0.9083
 5370TIP3    H237670   1.238   2.184   8.940 -0.5625  0.3833  0.6172
 5371TIP3   OH237671   0.590   6.444   0.244  0.4181  0.1640  0.0750
 5371TIP3    H137672   0.553   6.501   0.312  0.5424  0.1455  0.1573
 5371TIP3    H237673   0.527   6.451   0.171 -1.3632 -2.1717  1.2534
 5372TIP3   OH237674   5.248   5.716   7.558  0.0661  0.0928  0.0023
 5372TIP3    H137675   5.266   5.622   7.563 -2.2578 -0.3521  1.1030
 5372TIP3    H237676   5.243   5.734   7.464 -0.0491 -0.9994 -0.2133
 5373TIP3   OH237677   2.193   0.444   8.561 -0.1931  0.0845  0.1414
 5373TIP3    H137678   2.261   0.395   8.512  0.1820  0.2273  0.5164
 5373TIP3    H237679   2.229   0.452   8.649 -1.5848 -1.6209  0.9244
 5374TIP3   OH237680   5.650   4.564   7.439 -0.1068  0.0473  0.3951
 5374TIP3    H137681   5.717   4.508   7.401 -2.0310 -1.9804 -0.2072
 5374TIP3    H237682   5.676   4.653   7.413  2.1243 -0.6679 -0.0654
 5375TIP3   OH237683   4.938   0.514   0.324  0.2719  0.5503  0.4895
 5375TIP3    H137684   4.971   0.568   0.252  0.8019 -0.3000  0.0804
 5375TIP3    H237685   4.987   0.433   0.317 -1.4725 -0.5420  0.2160
 5376TIP3   OH237686   4.754   4.491   0.901 -0.3548 -0.1317 -0.1991
 5376TIP3    H137687   4.791   4.430   0.964  0.0587  0.4070  0.0881
 5376TIP3    H237688   4.830   4.536   0.863 -0.5579 -0.7687 -1.4314
 5377TIP3   OH237689   6.355   4.099   1.790 -0.0743  0.1260 -0.4917
 5377TIP3    H137690   6.401   4.037   1.845  0.3586  0.3517 -0.5928
 5377TIP3    H237691   6.314   4.045   1.722 -0.7643 -0.1703  0.1402
 5378TIP3   OH237692   1.035   3.336   0.725  0.5190  0.3888 -0.2986
 5378TIP3    H137693   1.044   3.283   0.804  0.6979  1.1392  0.2014
 5378TIP3    H237694   1.017   3.274   0.655 -0.9997 -0.1751  0.5690
 5379TIP3   OH237695   2.577   3.697   0.849  0.5418  0.0428 -0.6918
 5379TIP3    H137696   2.635   3.668   0.779  2.2521  1.4955  0.0302
 5379TIP3    H237697   2.541   3.780   0.818 -0.0435 -0.1520 -0.5437
 5380TIP3   OH237698   4.219   5.984   9.131 -0.4521 -0.2306  0.5790
 5380TIP3    H137699   4.271   5.905   9.145  0.5393  0.3472  0.1926
 5380TIP3    H237700   4.269   6.054   9.173 -1.4343  0.1701  1.1156
 5381TIP3   OH237701   2.573   4.172   1.304  0.2582 -0.5099  0.2220
 5381TIP3    H137702   2.645   4.150   1.245 -1.4095 -2.1119 -1.3857
 5381TIP3    H237703   2.520   4.235   1.255 -0.2372 -0.5186  0.7331
 5382TIP3   OH237704   5.463   5.653   0.873 -0.1019  0.8465  0.1092
 5382TIP3    H137705   5.411   5.728   0.844 -2.4713 -0.1641  1.4340
 5382TIP3    H237706   5.487   5.675   0.964 -0.5758  0.1207  0.4109
 5383TIP3   OH237707   0.323   5.508   2.246 -0.1512  0.5884  0.0718
 5383TIP3    H137708   0.316   5.447   2.173 -2.0988  0.6229  0.1683
 5383TIP3    H237709   0.266   5.471   2.313  2.2831  0.0678  1.9990
 5384TIP3   OH237710   1.002   1.086   7.606 -0.1120  0.1864 -0.5255
 5384TIP3    H137711   1.026   1.023   7.674 -0.9203 -1.4307 -1.6759
 5384TIP3    H237712   1.083   1.133   7.587  0.5077 -0.4888  0.3802
 5385TIP3   OH237713   4.331   3.198   0.587 -0.2588  0.1975 -0.1635
 5385TIP3    H137714   4.239   3.199   0.614 -0.3143  0.1864 -0.3515
 5385TIP3    H237715   4.367   3.119   0.628 -0.2467  0.3870  0.1961
 5386TIP3   OH237716   3.946   3.800   8.404  0.6191  0.8883  0.1491
 5386TIP3    H137717   3.967   3.863   8.473  4.9470 -0.3451  0.2514
 5386TIP3    H237718   3.976   3.841   8.323  1.2616 -0.0631 -0.1116
 5387TIP3   OH237719   5.092   3.341   7.744 -0.5537 -0.1387  0.1034
 5387TIP3    H137720   5.041   3.422   7.748 -2.3296 -1.1425 -0.6099
 5387TIP3    H237721   5.077   3.308   7.655  0.0752 -1.2701  0.3963
 5388TIP3   OH237722   0.401   3.639   0.000  0.8830 -0.0261 -0.0438
 5388TIP3    H137723   0.372   3.697  -0.070  0.7868  1.5771  1.2402
 5388TIP3    H237724   0.331   3.575   0.010 -0.3813  1.3476  0.3290
 5389TIP3   OH237725   2.172   5.714   7.390 -0.2807 -0.1023 -0.5894
 5389TIP3    H137726   2.121   5.714   7.470 -1.6301 -1.0459 -1.4099
 5389TIP3    H237727   2.173   5.806   7.361  1.3488  0.4888  1.1391
 5390TIP3   OH237728   6.383   6.622   0.611  0.4460  0.4017  0.1594
 5390TIP3    H137729   6.431   6.696   0.647  0.3707  1.1744 -1.2725
 5390TIP3    H237730   6.448   6.572   0.561  0.2939  0.0328  0.3233
 5391TIP3   OH237731   3.129   1.742   9.175  0.1817  0.1106 -0.4338
 5391TIP3    H137732   3.051   1.796   9.163  0.5246  0.1628 -2.9769
 5391TIP3    H237733   3.200   1.804   9.186 -0.0832  0.0630  2.1514
 5392TIP3   OH237734   1.470   0.183   9.244  0.0316  0.2236 -0.1926
 5392TIP3    H137735   1.460   0.093   9.275  3.1646 -0.7624 -1.7000
 5392TIP3    H237736   1.476   0.176   9.149 -0.1550  2.1050 -0.3849
 5393TIP3   OH237737   0.804   4.830   9.161  0.1926  0.7552  0.5770
 5393TIP3    H137738   0.886   4.817   9.112 -0.9753  2.9681 -2.2798
 5393TIP3    H237739   0.831   4.870   9.243  1.9816  2.9308 -0.9534
 5394TIP3   OH237740   3.414   0.092   7.815 -0.0166 -0.1552 -0.1380
 5394TIP3    H137741   3.336   0.148   7.815 -0.0034 -0.1371 -0.1218
 5394TIP3    H237742   3.413   0.052   7.728 -0.4346 -0.6931  0.1091
 5395TIP3   OH237743   4.127   3.575   8.422 -0.7812 -0.2933 -0.3489
 5395TIP3    H137744   4.070   3.650   8.438  0.5268  0.7834 -0.6175
 5395TIP3    H237745   4.204   3.611   8.378  0.7626 -1.4834  1.2294
 5396TIP3   OH237746   5.957   2.835   6.488  0.2505  0.0620  0.1023
 5396TIP3    H137747   5.992   2.793   6.566 -1.5820 -1.5864  0.0956
 5396TIP3    H237748   5.862   2.832   6.499 -0.0210  2.0367 -1.0729
 5397TIP3   OH237749   1.518   5.148   7.907 -0.3135  0.4432  0.4110
 5397TIP3    H137750   1.437   5.167   7.956  0.4121 -0.4927  2.0593
 5397TIP3    H237751   1.586   5.198   7.953  0.0062  1.6247 -1.2675
 5398TIP3   OH237752   2.836   1.467   0.354 -0.2177 -0.7000 -0.8940
 5398TIP3    H137753   2.826   1.467   0.449 -2.4209  0.9073 -1.0329
 5398TIP3    H237754   2.757   1.423   0.322 -1.0283  1.3760 -1.9718
 5399TIP3   OH237755   0.493   4.824   0.557 -0.1621 -0.0363  0.2862
 5399TIP3    H137756   0.581   4.840   0.523  0.0255 -0.6578  0.4720
 5399TIP3    H237757   0.435   4.873   0.499  0.2133 -0.4906 -0.4863
 5400TIP3   OH237758   5.950   5.546   0.711  0.1953  0.8129  0.2831
 5400TIP3    H137759   5.910   5.615   0.763  0.9905  2.0049 -0.6125
 5400TIP3    H237760   6.044   5.560   0.722  0.3682 -0.0510 -0.0179
 5401TIP3   OH237761   1.419   1.179   2.021  0.0621  0.2131  0.0995
 5401TIP3    H137762   1.402   1.137   2.105 -0.4345  0.4964  0.1413
 5401TIP3    H237763   1.333   1.208   1.990  0.3252  0.7161 -0.1827
 5402TIP3   OH237764   1.255   0.687   2.233 -0.4761  0.2891 -0.5932
 5402TIP3    H137765   1.163   0.713   2.245 -0.1249  1.3244 -0.0068
 5402TIP3    H237766   1.289   0.750   2.169  0.1053  0.5937  0.0122
 5403TIP3   OH237767   1.575   6.603   1.613 -0.5488  0.0540  0.5241
 5403TIP3    H137768   1.557   6.652   1.533 -0.1650 -0.0668  0.3657
 5403TIP3    H237769   1.545   6.661   1.684 -0.8612  0.1705  0.3001
 5404TIP3   OH237770   1.372   2.006   8.009 -0.1781 -0.1786 -0.5427
 5404TIP3    H137771   1.340   2.004   8.100 -0.4982  1.5356 -0.5863
 5404TIP3    H237772   1.307   2.056   7.962  0.0696 -0.9299 -1.7167
 5405TIP3   OH237773   1.420   0.052   0.580  0.3479  0.0253  0.3946
 5405TIP3    H137774   1.504   0.097   0.584  0.4563 -0.2428  1.9343
 5405TIP3    H237775   1.409   0.029   0.488  1.9631  0.0671  0.1653
 5406TIP3   OH237776   0.517   1.380   0.806  0.5150 -0.3426 -0.1133
 5406TIP3    H137777   0.461   1.304   0.796  1.3650 -1.2532  1.6553
 5406TIP3    H237778   0.459   1.449   0.838  0.2840 -1.1538  1.2788
 5407TIP3   OH237779   6.597   4.490   2.709 -0.5063 -0.5605 -0.1394
 5407TIP3    H137780   6.692   4.504   2.707 -0.1945 -2.4731 -0.8462
 5407TIP3    H237781   6.567   4.509   2.621 -1.0422  1.3496  0.4072
 5408TIP3   OH237782   3.366   1.096   8.080 -0.4150  0.0611  0.4749
 5408TIP3    H137783   3.325   1.133   8.158  0.4597  1.2158  0.4234
 5408TIP3    H237784   3.332   1.149   8.008  1.3908  1.3326  0.4735
 5409TIP3   OH237785   0.960   0.075   2.026  0.0142 -0.6682  0.2552
 5409TIP3    H137786   0.967   0.163   1.989  0.6922 -0.2892  1.2634
 5409TIP3    H237787   0.868   0.067   2.053 -0.5192 -0.9733 -1.5026
 5410TIP3   OH237788   3.831   3.377   7.445  0.6408 -0.5523 -0.2418
 5410TIP3    H137789   3.782   3.436   7.388  1.6335 -0.3633 -0.9264
 5410TIP3    H237790   3.876   3.435   7.507  0.5164 -0.6844 -0.0261
 5411TIP3   OH237791   1.730   1.977   1.147  0.6657 -0.1338 -0.0730
 5411TIP3    H137792   1.754   1.890   1.115  1.2235  0.1271 -0.3800
 5411TIP3    H237793   1.736   2.034   1.070  0.3611  0.1863  0.1362
 5412TIP3   OH237794   6.421   1.940   9.205 -0.1509  0.1290 -0.1359
 5412TIP3    H137795   6.395   1.990   9.127  1.5525  0.0204 -0.8300
 5412TIP3    H237796   6.350   1.954   9.267 -0.2949  2.4838 -0.7223
 5413TIP3   OH237797   0.279   5.121   8.104 -0.2248 -0.5369 -0.4032
 5413TIP3    H137798   0.325   5.165   8.176  1.6493 -0.4566 -1.5796
 5413TIP3    H237799   0.195   5.166   8.098  0.7935  1.4915 -0.2034
 5414TIP3   OH237800   2.742   1.028   1.134 -0.2962 -0.7840 -0.3972
 5414TIP3    H137801   2.668   1.016   1.076 -1.1625 -3.1240  1.0548
 5414TIP3    H237802   2.753   0.944   1.178  0.8387  0.5715  2.1731
 5415TIP3   OH237803   4.591   0.702   7.783 -0.1742 -0.7683  0.6407
 5415TIP3    H137804   4.616   0.730   7.871  4.6246  0.2105 -0.7563
 5415TIP3    H237805   4.602   0.607   7.784  0.1766 -0.7267  1.0216
 5416TIP3   OH237806   5.425   5.788   8.955 -0.4679  0.2509  0.1900
 5416TIP3    H137807   5.477   5.718   8.915 -1.9208 -0.6165 -0.3134
 5416TIP3    H237808   5.430   5.861   8.893  0.1503  0.1809  0.1581
 5417TIP3   OH237809   3.793   0.684   1.354 -0.6144 -0.0508  0.4673
 5417TIP3    H137810   3.850   0.724   1.288 -0.8790 -1.1222 -0.4375
 5417TIP3    H237811   3.706   0.717   1.334 -0.6458 -0.1340  0.4640
 5418TIP3   OH237812   6.452   5.028   0.865  0.0162 -0.1112  0.6464
 5418TIP3    H137813   6.463   4.935   0.884  0.1786 -0.1293  0.4663
 5418TIP3    H237814   6.482   5.038   0.775  1.7936  0.4414  1.2366
 5419TIP3   OH237815   5.992   1.338   1.737  0.3880  0.0091  0.8202
 5419TIP3    H137816   5.899   1.318   1.744 -0.3702  2.5064 -0.7025
 5419TIP3    H237817   6.008   1.346   1.643  1.3462  2.6476  1.1124
 5420TIP3   OH237818   5.103   3.387   8.264 -0.0703  0.3723 -0.2078
 5420TIP3    H137819   5.075   3.368   8.174 -0.9194  0.6256 -0.0126
 5420TIP3    H237820   5.143   3.305   8.294 -1.2947 -0.2819 -0.2648
 5421TIP3   OH237821   1.985   1.077   2.183 -0.5082 -0.5980 -0.1926
 5421TIP3    H137822   1.922   1.121   2.240 -1.0889 -1.9283  0.2369
 5421TIP3    H237823   2.063   1.065   2.238 -0.3480 -0.1272 -0.3110
 5422TIP3   OH237824   0.922   2.783   1.641 -0.0797 -0.2347  0.4740
 5422TIP3    H137825   0.850   2.741   1.593 -0.5228  0.9423  0.0789
 5422TIP3    H237826   0.929   2.732   1.722  0.2536 -1.8549 -0.5272
 5423TIP3   OH237827   4.936   1.457   8.262 -0.0529  0.3306 -1.0476
 5423TIP3    H137828   4.945   1.531   8.321  0.2636 -0.8449  0.4203
 5423TIP3    H237829   5.024   1.440   8.230 -0.0021  0.0913 -0.7756
 5424TIP3   OH237830   0.931   2.843   7.727 -0.3435 -0.1612 -0.1588
 5424TIP3    H137831   0.959   2.933   7.708 -1.1105  0.1063 -0.0381
 5424TIP3    H237832   0.983   2.818   7.804  0.8262 -0.2989 -0.9644
 5425TIP3   OH237833   5.375   2.273   1.712  0.6444 -0.8243 -0.4219
 5425TIP3    H137834   5.411   2.361   1.701  2.0547 -1.0905  1.4700
 5425TIP3    H237835   5.292   2.275   1.666 -0.1797  2.0567  0.9481
 5426TIP3   OH237836   4.861   3.397   0.465 -0.1018 -0.1672 -0.2128
 5426TIP3    H137837   4.796   3.371   0.530 -0.4247 -0.4911 -0.6538
 5426TIP3    H237838   4.929   3.441   0.515 -0.1734 -0.7229  0.3957
 5427TIP3   OH237839   4.427   2.958   9.255  0.0360  0.1362  0.4453
 5427TIP3    H137840   4.389   2.903   9.323  0.3536 -2.9393 -1.6759
 5427TIP3    H237841   4.352   2.995   9.209 -0.5495 -3.2422 -1.6328
 5428TIP3   OH237842   3.785   6.248   0.145  0.6556 -0.0616  0.4796
 5428TIP3    H137843   3.785   6.299   0.064  0.1839  0.2588  0.6756
 5428TIP3    H237844   3.818   6.162   0.119 -1.1039 -0.5174 -0.4161
 5429TIP3   OH237845   0.814   4.814   1.913 -0.0119  0.3554  0.5374
 5429TIP3    H137846   0.864   4.733   1.908 -0.4539  0.0693  0.6802
 5429TIP3    H237847   0.732   4.789   1.956 -0.3411  0.7804  0.1703
 5430TIP3   OH237848   4.070   2.165   0.697  0.0050  0.1117  0.6179
 5430TIP3    H137849   4.010   2.144   0.626  0.8998  2.0318 -0.8184
 5430TIP3    H237850   4.139   2.218   0.656  0.7652  1.0046  2.8452
 5431TIP3   OH237851   3.281   6.602   7.251  0.3531  0.2190  0.0543
 5431TIP3    H137852   3.368   6.602   7.210  1.3186 -0.7253  1.9884
 5431TIP3    H237853   3.258   6.509   7.260 -0.7912  0.4510 -0.2559
 5432TIP3   OH237854   3.822   6.306   0.960 -0.1576  0.0360  0.2059
 5432TIP3    H137855   3.913   6.277   0.953  0.8058  2.7087  0.5978
 5432TIP3    H237856   3.815   6.380   0.899 -2.1749 -0.2809 -0.0265
 5433TIP3   OH237857   1.819   6.437   2.101  0.1554  0.1807  0.0378
 5433TIP3    H137858   1.881   6.394   2.043 -1.5945 -1.9674 -0.3961
 5433TIP3    H237859   1.768   6.495   2.044  0.7957  0.8530  0.1361
 5434TIP3   OH237860   1.303   1.651   8.794 -0.1041  0.1937  0.0686
 5434TIP3    H137861   1.378   1.686   8.746 -0.5826  1.5491  0.2671
 5434TIP3    H237862   1.249   1.728   8.814 -0.4611 -0.4686  1.8206
 5435TIP3   OH237863   6.241   1.495   6.833 -0.2614  0.5011  0.0056
 5435TIP3    H137864   6.256   1.569   6.773  1.4777  0.8233  0.7650
 5435TIP3    H237865   6.325   1.484   6.877 -1.0191 -0.8270  1.1653
 5436TIP3   OH237866   3.447   6.486   2.220 -0.0743 -0.2528 -0.3624
 5436TIP3    H137867   3.470   6.436   2.297 -0.9821  0.6950  0.5663
 5436TIP3    H237868   3.513   6.464   2.155  0.9419 -0.7546  0.8201
 5437TIP3   OH237869   3.775   0.565   0.353 -0.0607  0.4965 -0.1661
 5437TIP3    H137870   3.730   0.611   0.423  0.9811 -1.5549  2.0166
 5437TIP3    H237871   3.827   0.632   0.309 -1.7893  2.0812  0.0981
 5438TIP3   OH237872   3.474   3.059   7.918 -0.1362  0.0318 -0.1447
 5438TIP3    H137873   3.418   2.984   7.898  0.9873 -0.4404 -1.7157
 5438TIP3    H237874   3.447   3.086   8.006 -1.8138 -1.0623 -0.2683
 5439TIP3   OH237875   6.316   5.137   0.506  0.8021  0.2703  0.0695
 5439TIP3    H137876   6.263   5.084   0.447 -1.0217  1.3588  0.6663
 5439TIP3    H237877   6.282   5.226   0.497  3.4032  1.3051 -0.4719
 5440TIP3   OH237878   3.531   2.911   7.686 -0.0326 -0.1929  1.0541
 5440TIP3    H137879   3.539   2.995   7.640 -2.9345 -1.7608 -2.8612
 5440TIP3    H237880   3.440   2.909   7.717 -0.2815 -2.0754  0.3827
 5441TIP3   OH237881   0.836   6.196   0.004  0.2371  0.3253  0.2130
 5441TIP3    H137882   0.916   6.212  -0.045 -0.3297  0.7734 -0.5843
 5441TIP3    H237883   0.775   6.159  -0.060 -0.5628  1.0606  0.5330
 5442TIP3   OH237884   2.436   1.241   8.574 -0.3392  0.1383  0.3653
 5442TIP3    H137885   2.348   1.240   8.611 -0.2320  1.1166  0.6563
 5442TIP3    H237886   2.452   1.332   8.551  0.5416 -0.0548  0.1753
 5443TIP3   OH237887   3.294   5.409   1.531  0.1170  0.0268  0.0253
 5443TIP3    H137888   3.233   5.345   1.568 -0.1577  0.6360  0.6408
 5443TIP3    H237889   3.258   5.494   1.555  0.8007  0.4090 -0.2679
 5444TIP3   OH237890   4.633   0.938   0.156 -0.4965 -0.3678 -0.4724
 5444TIP3    H137891   4.600   0.988   0.082 -2.7377  0.5753  1.0586
 5444TIP3    H237892   4.652   0.851   0.120  2.5977  1.1369 -2.9998
 5445TIP3   OH237893   6.228   3.194   0.153  0.6411  0.3513 -0.3993
 5445TIP3    H137894   6.307   3.139   0.148  0.1816 -0.4828  0.9067
 5445TIP3    H237895   6.203   3.207   0.062  1.1100 -1.1394 -0.7793
 5446TIP3   OH237896   2.413   4.279   8.157 -0.4665 -1.3613  0.1552
 5446TIP3    H137897   2.507   4.264   8.151 -0.5214 -1.2695 -1.6247
 5446TIP3    H237898   2.395   4.288   8.250  1.4935 -0.1060  0.4577
 5447TIP3   OH237899   4.422   4.543   0.565 -0.0153 -0.1829  0.3573
 5447TIP3    H137900   4.449   4.618   0.513 -2.3054 -0.3881 -1.3289
 5447TIP3    H237901   4.470   4.469   0.527 -0.9545 -0.1791 -0.9085
 5448TIP3   OH237902   1.126   3.860   1.917  0.4543  0.4899 -0.0544
 5448TIP3    H137903   1.204   3.911   1.939  0.3516  0.0904  1.3380
 5448TIP3    H237904   1.068   3.871   1.993  0.6726 -2.1440  0.5881
 5449TIP3   OH237905   4.350   4.032   8.805 -0.4325  0.0617  0.2747
 5449TIP3    H137906   4.311   4.022   8.892 -1.7308  1.0836 -0.1463
 5449TIP3    H237907   4.407   4.109   8.813 -0.9293  0.4537  0.1163
 5450TIP3   OH237908   4.674   3.454   2.340 -0.1405  0.4116  0.4990
 5450TIP3    H137909   4.692   3.395   2.267 -1.9224 -1.5918  1.5579
 5450TIP3    H237910   4.590   3.494   2.319 -0.3646  0.2984  1.1422
 5451TIP3   OH237911   1.866   1.484   8.656 -0.7017  0.3821 -0.2538
 5451TIP3    H137912   1.862   1.568   8.609 -0.5658  0.5949  0.1130
 5451TIP3    H237913   1.895   1.421   8.590 -0.1274  0.7553 -0.3599
 5452TIP3   OH237914   5.424   4.182   9.137  0.7606 -0.5294  0.1342
 5452TIP3    H137915   5.375   4.107   9.171 -0.5423  0.6929  1.0604
 5452TIP3    H237916   5.373   4.258   9.164  3.3972  0.8704  1.5580
 5453TIP3   OH237917   5.202   2.167   0.315  0.1229 -0.5161 -0.1876
 5453TIP3    H137918   5.138   2.238   0.311  0.6311 -0.0119  0.3839
 5453TIP3    H237919   5.161   2.102   0.372  0.0676 -0.2397  0.0945
 5454TIP3   OH237920   5.459   0.163   7.907  0.1165  0.1344 -0.2055
 5454TIP3    H137921   5.442   0.190   7.997 -0.1673  0.1915 -0.2774
 5454TIP3    H237922   5.396   0.093   7.890  0.6999 -0.4346 -0.0934
 5455TIP3   OH237923   0.458   6.442   1.727 -0.5470 -0.0884 -0.2039
 5455TIP3    H137924   0.393   6.434   1.797 -0.6922 -0.1264 -0.3424
 5455TIP3    H237925   0.537   6.402   1.763 -0.7526 -0.5275 -0.2306
 5456TIP3   OH237926   3.434   0.443   1.233  0.6898 -0.0971  0.1487
 5456TIP3    H137927   3.363   0.426   1.171  0.6101  4.0691 -1.2225
 5456TIP3    H237928   3.390   0.465   1.315  0.4358  0.8562 -0.2321
 5457TIP3   OH237929   3.814   4.128   0.908  0.3238 -0.3433  0.1130
 5457TIP3    H137930   3.760   4.206   0.895  1.0143 -0.2206 -2.5090
 5457TIP3    H237931   3.756   4.067   0.955 -0.1761  1.6969  2.3952
 5458TIP3   OH237932   6.001   6.409   7.300 -0.6955 -0.1842 -0.1206
 5458TIP3    H137933   5.971   6.361   7.224 -1.4965  0.8770 -0.4965
 5458TIP3    H237934   6.002   6.501   7.272  0.5612  0.0552  0.6444
 5459TIP3   OH237935   2.437   1.236   7.050  0.1094 -0.3530  0.9094
 5459TIP3    H137936   2.518   1.188   7.035 -1.6792 -4.2358  2.4093
 5459TIP3    H237937   2.381   1.214   6.976 -0.4612  0.1834  1.1719
 5460TIP3   OH237938   0.353   3.316   1.556 -0.3681 -0.2318 -0.0604
 5460TIP3    H137939   0.422   3.251   1.571  1.2089  1.7387  2.0236
 5460TIP3    H237940   0.364   3.343   1.465  3.1831  1.5051  0.6895
 5461TIP3   OH237941   4.251   5.764   1.405 -0.1012  0.6403  0.4750
 5461TIP3    H137942   4.166   5.798   1.433  0.2278  1.1966  0.8297
 5461TIP3    H237943   4.302   5.842   1.383 -0.8114  0.2351 -3.1895
 5462TIP3   OH237944   3.414   5.799   8.884 -0.2788 -0.3294 -0.3340
 5462TIP3    H137945   3.479   5.729   8.877  1.2151  0.7749  1.6230
 5462TIP3    H237946   3.344   5.772   8.824  1.4618 -2.0979 -1.7254
 5463TIP3   OH237947   6.018   3.313   0.277  0.0022 -0.4223  0.8406
 5463TIP3    H137948   6.031   3.400   0.315 -0.9941 -0.4385  1.2570
 5463TIP3    H237949   6.101   3.292   0.235 -0.2925  1.5176 -0.8683
 5464TIP3   OH237950   4.164   1.722   0.581 -0.1272 -0.6572 -0.6077
 5464TIP3    H137951   4.135   1.634   0.604  0.4844 -0.9271 -0.8516
 5464TIP3    H237952   4.091   1.779   0.608 -1.2247 -1.3869 -1.8879
 5465TIP3   OH237953   0.365   1.483   8.150  0.0844  0.6156  0.8395
 5465TIP3    H137954   0.421   1.552   8.115 -0.3477  0.8069  0.5145
 5465TIP3    H237955   0.276   1.513   8.131 -0.1337  0.3971  1.5049
 5466TIP3   OH237956   4.910   6.457   7.187  1.0759 -0.4254  0.5258
 5466TIP3    H137957   4.845   6.415   7.130  0.2097 -0.6304  1.6339
 5466TIP3    H237958   4.960   6.514   7.128  0.6583 -1.1475 -0.5603
 5467TIP3   OH237959   4.271   6.271   0.047  0.3295  0.1887 -0.1755
 5467TIP3    H137960   4.253   6.183   0.082  3.2996 -1.0852 -1.4518
 5467TIP3    H237961   4.325   6.313   0.114  0.9142  0.0846 -0.5706
 5468TIP3   OH237962   3.615   3.553   7.952  0.3091  0.1074  0.5070
 5468TIP3    H137963   3.628   3.518   8.040  2.0567  0.7085  0.5145
 5468TIP3    H237964   3.632   3.479   7.894 -1.2623 -0.4034  0.6480
 5469TIP3   OH237965   6.034   1.325   7.982  0.0938 -0.0390  0.1838
 5469TIP3    H137966   6.019   1.403   7.929 -2.2715  0.0447  0.8680
 5469TIP3    H237967   6.089   1.355   8.054  0.0047  0.7712 -0.0726
 5470TIP3   OH237968   5.178   5.456   2.061  0.2183 -0.0449  0.4665
 5470TIP3    H137969   5.206   5.405   1.984 -2.6871  0.2484 -0.9141
 5470TIP3    H237970   5.178   5.393   2.133 -0.6962 -1.3556 -0.6294
 5471TIP3   OH237971   2.637   0.332   2.484  0.2305 -0.3683 -0.0266
 5471TIP3    H137972   2.556   0.307   2.529 -0.4485 -0.0330 -1.0265
 5471TIP3    H237973   2.686   0.381   2.551 -0.1946 -0.9373  0.7244
 5472TIP3   OH237974   6.193   0.060   0.425  0.4315  0.9289 -0.2732
 5472TIP3    H137975   6.122  -0.004   0.424  1.2851 -0.0641  0.2186
 5472TIP3    H237976   6.236   0.046   0.510  0.4221  2.4098 -0.0064
 5473TIP3   OH237977   1.792   2.709   3.066  0.1499 -0.6552 -0.0332
 5473TIP3    H137978   1.877   2.686   3.105  0.2186 -0.5567 -0.1237
 5473TIP3    H237979   1.728   2.676   3.128  0.2616  1.7428  1.5233
 5474TIP3   OH237980   0.470   3.455   0.919 -0.5427  0.3268  0.0070
 5474TIP3    H137981   0.565   3.449   0.917 -0.3883  0.0892  3.0566
 5474TIP3    H237982   0.441   3.414   0.837  1.9348 -0.3949 -0.5822
 5475TIP3   OH237983   0.173   0.613   9.252  0.2844  0.0502 -0.1202
 5475TIP3    H137984   0.250   0.626   9.196 -0.9625  1.1645 -1.6575
 5475TIP3    H237985   0.210   0.589   9.337  2.3958  1.4593 -0.5470
 5476TIP3   OH237986   3.203   5.250   1.961  0.2662 -0.1694 -0.0564
 5476TIP3    H137987   3.215   5.271   2.054  0.2470 -0.7317  0.0796
 5476TIP3    H237988   3.212   5.154   1.957 -0.5420 -0.2374 -0.5017
 5477TIP3   OH237989   5.611   4.154   7.493  0.3974  0.2461 -0.3392
 5477TIP3    H137990   5.545   4.219   7.517  2.1225  1.4749  1.5001
 5477TIP3    H237991   5.573   4.070   7.520 -0.6792  0.8437  0.0769
 5478TIP3   OH237992   2.057   5.193   0.246  0.8716 -0.2203  0.2216
 5478TIP3    H137993   2.038   5.271   0.299  1.9959  1.0595 -1.1546
 5478TIP3    H237994   2.068   5.123   0.309 -1.7295  0.3467  1.4377
 5479TIP3   OH237995   2.845   5.761   7.515 -0.2469 -0.0177 -0.4031
 5479TIP3    H137996   2.782   5.793   7.580 -0.4831  0.6309 -0.9442
 5479TIP3    H237997   2.791   5.740   7.438  0.3716  2.4592 -1.6129
 5480TIP3   OH237998   3.388   4.563   1.387 -0.1782 -0.2636  0.2086
 5480TIP3    H137999   3.446   4.639   1.377  0.2862 -0.7039 -0.5928
 5480TIP3    H238000   3.304   4.600   1.415 -0.5170  0.7691 -1.9541
 5481TIP3   OH238001   4.075   6.190   0.919 -0.1299 -0.5332  0.1328
 5481TIP3    H138002   4.161   6.153   0.900 -0.8361 -1.9436 -0.4840
 5481TIP3    H238003   4.023   6.172   0.841 -0.6900  1.3382  0.0185
 5482TIP3   OH238004   5.297   3.629   7.342 -0.1105  0.4729  0.3898
 5482TIP3    H138005   5.207   3.598   7.352 -0.2042  0.3324 -0.7532
 5482TIP3    H238006   5.349   3.567   7.394 -0.5606 -0.0852  0.1860
 5483TIP3   OH238007   3.486   5.428   1.741  0.2663 -0.2769 -0.0671
 5483TIP3    H138008   3.511   5.344   1.778 -0.5720  0.0897  1.4468
 5483TIP3    H238009   3.394   5.439   1.767  0.7203  1.6682  0.9584
 5484TIP3   OH238010   5.516   5.579   0.379 -0.8929  0.6529 -0.0058
 5484TIP3    H138011   5.595   5.536   0.348 -0.5946  2.0434 -1.2854
 5484TIP3    H238012   5.546   5.640   0.447 -0.9290  0.7850 -0.1067
 5485TIP3   OH238013   0.600   1.955   7.451  0.0270 -0.3745  0.0984
 5485TIP3    H138014   0.561   1.884   7.502 -1.3720  0.0668 -0.2965
 5485TIP3    H238015   0.616   1.917   7.365  1.6482 -0.8937  0.5915
 5486TIP3   OH238016   1.862   2.797   1.153 -0.3387 -0.7761  0.3509
 5486TIP3    H138017   1.923   2.811   1.081 -0.2397  0.1839  0.6104
 5486TIP3    H238018   1.775   2.809   1.114 -0.2403  2.4830  0.8918
 5487TIP3   OH238019   5.790   4.481   1.932  0.4123  0.2667  0.0987
 5487TIP3    H138020   5.867   4.455   1.880  1.1644 -1.8269  2.1101
 5487TIP3    H238021   5.820   4.557   1.982  2.1305 -1.9142  2.6508
 5488TIP3   OH238022   4.358   3.473   0.508 -0.2715  0.3216 -0.0621
 5488TIP3    H138023   4.296   3.545   0.494 -0.0687  0.1608 -2.2249
 5488TIP3    H238024   4.304   3.399   0.535 -0.7221  0.8042  0.3740
 5489TIP3   OH238025   6.056   5.081   8.380  0.9879 -0.1796  0.4824
 5489TIP3    H138026   6.129   5.048   8.328 -0.0340 -0.5001 -0.8093
 5489TIP3    H238027   6.085   5.072   8.471  1.6775 -2.4331  0.1014
 5490TIP3   OH238028   0.695   4.503   2.321  0.4415 -0.0003 -0.1436
 5490TIP3    H138029   0.785   4.494   2.354  0.7412 -0.1810 -0.9932
 5490TIP3    H238030   0.703   4.560   2.245 -0.4690  1.7609  1.0100
 5491TIP3   OH238031   4.091   2.609   8.624 -0.3100 -0.3291 -0.5292
 5491TIP3    H138032   4.105   2.517   8.648  0.6645  0.1440  0.8549
 5491TIP3    H238033   4.114   2.658   8.703 -1.2128  1.0957 -1.1028
 5492TIP3   OH238034   3.263   1.373   7.412  0.0241 -0.2239  0.1048
 5492TIP3    H138035   3.184   1.420   7.384  0.9489  1.9770  0.9085
 5492TIP3    H238036   3.293   1.327   7.334 -1.2743  0.0594 -0.5924
 5493TIP3   OH238037   0.712   0.508   1.232  0.0604  0.5098 -0.4540
 5493TIP3    H138038   0.619   0.532   1.225 -0.3762 -0.9327 -0.0396
 5493TIP3    H238039   0.741   0.547   1.314 -0.6936 -0.5327  0.3373
 5494TIP3   OH238040   1.426   1.659   9.246 -0.4270 -0.3429  0.1694
 5494TIP3    H138041   1.406   1.585   9.303 -0.2168 -0.5814 -0.0649
 5494TIP3    H238042   1.428   1.735   9.304 -0.5862 -0.5304  0.4180
 5495TIP3   OH238043   2.741   3.501   0.653 -0.0105  0.3481  0.3583
 5495TIP3    H138044   2.797   3.494   0.730 -0.9275 -0.3397  0.9863
 5495TIP3    H238045   2.799   3.532   0.583  1.2605 -0.8730  0.8400
 5496TIP3   OH238046   3.637   3.912   8.434  0.2658  0.4979  0.5826
 5496TIP3    H138047   3.622   3.958   8.516  0.8586  1.3468  0.2341
 5496TIP3    H238048   3.698   3.968   8.386  0.5083 -0.3462 -0.1287
 5497TIP3   OH238049   2.083   3.262   7.251 -0.0367  0.2011 -0.2478
 5497TIP3    H138050   2.010   3.318   7.224  0.0541  0.7461  0.5855
 5497TIP3    H238051   2.050   3.173   7.243 -0.0480  0.3225 -2.0203
 5498TIP3   OH238052   3.108   6.063   1.097  0.6043  0.0882  0.2284
 5498TIP3    H138053   3.161   6.143   1.089 -1.3196  1.5195  1.0150
 5498TIP3    H238054   3.088   6.058   1.190 -0.8004 -0.2777 -0.0778
 5499TIP3   OH238055   1.169   4.887   1.490 -0.1007  0.2803 -0.4209
 5499TIP3    H138056   1.153   4.793   1.498  0.3716  0.2299 -0.0121
 5499TIP3    H238057   1.264   4.896   1.498 -0.2341  0.8997  0.7634
 5500TIP3   OH238058   1.013   3.482   1.621  0.0814 -0.0919  1.0251
 5500TIP3    H138059   1.049   3.441   1.699 -1.3803 -0.8195  1.3480
 5500TIP3    H238060   1.030   3.576   1.633  1.3007 -0.3403  1.4203
 5501TIP3   OH238061   6.511   5.999   8.558 -0.2192  0.2671  0.1308
 5501TIP3    H138062   6.451   5.924   8.555  1.9954 -1.6491  0.5806
 5501TIP3    H238063   6.494   6.039   8.643 -0.7382 -0.3515  0.3340
 5502TIP3   OH238064   5.597   2.840   8.608 -0.0180  0.5829  0.6611
 5502TIP3    H138065   5.535   2.768   8.599 -0.7541  1.3370 -0.5299
 5502TIP3    H238066   5.547   2.911   8.649  0.8482  0.2586  2.3398
 5503TIP3   OH238067   3.058   0.760   0.771 -0.1633 -0.2166  0.3764
 5503TIP3    H138068   2.977   0.805   0.748 -0.8682 -1.2765  0.6623
 5503TIP3    H238069   3.127   0.826   0.761 -0.9799  0.5391 -0.4637
 5504TIP3   OH238070   4.803   0.109   6.589  0.1500 -0.4770 -0.0098
 5504TIP3    H138071   4.840   0.193   6.616 -1.8368  1.1267 -1.9946
 5504TIP3    H238072   4.866   0.044   6.622  2.7684  1.8418 -0.0888
 5505TIP3   OH238073   0.337   0.977   1.066  0.3570 -0.0097 -0.8320
 5505TIP3    H138074   0.274   1.048   1.057 -0.3998 -0.2554  1.6964
 5505TIP3    H238075   0.305   0.909   1.007 -1.9235 -0.1937  0.5006
 5506TIP3   OH238076   0.012   3.969   9.109  0.3313 -0.0208 -0.0235
 5506TIP3    H138077   0.010   3.914   9.187  2.5688 -0.0976  0.0197
 5506TIP3    H238078   0.003   3.908   9.036 -0.4754 -0.0691  0.0974
 5507TIP3   OH238079   4.125   3.186   8.903  0.0299 -0.5714 -0.7321
 5507TIP3    H138080   4.051   3.245   8.912  0.4683 -0.0562 -0.4572
 5507TIP3    H238081   4.115   3.147   8.816 -0.7686 -0.8044 -0.5460
 5508TIP3   OH238082   1.351   3.202   1.298 -0.2515  0.5286 -0.4450
 5508TIP3    H138083   1.270   3.208   1.348 -0.7823 -1.0037 -1.0677
 5508TIP3    H238084   1.413   3.159   1.357 -0.8355 -1.1473 -1.0027
 5509TIP3   OH238085   2.689   0.638   1.567 -0.0447  0.2150 -0.2597
 5509TIP3    H138086   2.689   0.637   1.663  1.9831 -0.5906 -0.2318
 5509TIP3    H238087   2.713   0.549   1.541 -1.8740  0.0449 -1.5802
 5510TIP3   OH238088   0.402   2.987   0.790  0.0063  0.0898  0.5187
 5510TIP3    H138089   0.334   2.948   0.846 -0.1533  0.2918  0.4668
 5510TIP3    H238090   0.427   2.916   0.731 -0.6512  0.2003  0.0875
 5511TIP3   OH238091   1.094   2.947   8.244 -0.0775 -0.0590 -0.6706
 5511TIP3    H138092   1.002   2.931   8.222  0.3008 -1.3563 -1.3825
 5511TIP3    H238093   1.140   2.944   8.160  0.7245 -0.2371 -0.2331
 5512TIP3   OH238094   5.703   1.800   6.943 -0.1838  0.1119 -0.2750
 5512TIP3    H138095   5.672   1.710   6.932 -1.1071  0.3974 -0.1163
 5512TIP3    H238096   5.623   1.853   6.943  0.3467  0.9300 -0.3273
 5513TIP3   OH238097   0.000   4.159   1.583 -0.2258 -0.2183  0.2840
 5513TIP3    H138098   0.003   4.177   1.677 -0.8594  1.1256  0.0789
 5513TIP3    H238099  -0.075   4.209   1.551  1.1447  1.0185 -1.2489
 5514TIP3   OH238100   0.042   1.996   9.238  0.2811  0.2396 -0.9239
 5514TIP3    H138101   0.019   2.088   9.224 -0.4779  0.0492 -0.9885
 5514TIP3    H238102  -0.042   1.951   9.244  0.6462 -0.4643 -0.9674
 5515TIP3   OH238103   2.414   5.097   7.118  0.4971  0.2523 -0.4533
 5515TIP3    H138104   2.319   5.100   7.113  0.5156  1.5833 -0.4922
 5515TIP3    H238105   2.433   5.099   7.212  0.4764  3.4540 -0.3972
 5516TIP3   OH238106   5.522   2.688   2.391  0.2146 -0.5798 -0.7870
 5516TIP3    H138107   5.475   2.771   2.383  1.9011  0.3253 -2.0226
 5516TIP3    H238108   5.539   2.662   2.300  0.5868 -1.7519 -0.3942
 5517TIP3   OH238109   4.174   4.345   2.176  0.4088 -0.2231  0.0313
 5517TIP3    H138110   4.179   4.336   2.081  0.6105  1.2985 -0.1209
 5517TIP3    H238111   4.226   4.422   2.196 -0.5859  0.1692  1.2490
 5518TIP3   OH238112   1.288   1.197   1.156  0.0493 -0.1181  0.0408
 5518TIP3    H138113   1.280   1.292   1.168  1.4098 -0.1632  1.5979
 5518TIP3    H238114   1.199   1.164   1.170 -0.1066  0.7754  1.3266
 5519TIP3   OH238115   1.785   1.069   2.753 -0.2529 -0.8392  0.0719
 5519TIP3    H138116   1.789   1.136   2.821 -1.6231  0.7937 -1.3353
 5519TIP3    H238117   1.814   1.114   2.674 -0.9827 -1.9723 -0.8799
 5520TIP3   OH238118   0.815   5.176   9.123 -0.2215  0.6638  0.7386
 5520TIP3    H138119   0.875   5.240   9.161 -0.7179  0.7927  1.3220
 5520TIP3    H238120   0.837   5.093   9.166 -0.1147  0.6014  0.5673
 5521TIP3   OH238121   5.158   0.125   2.057 -0.7208  0.2609  0.3644
 5521TIP3    H138122   5.245   0.163   2.068  0.2798 -1.2468 -1.7076
 5521TIP3    H238123   5.098   0.200   2.060  0.8617  1.6066 -0.4597
 5522TIP3   OH238124   0.370   6.053   7.939  0.2499 -0.2251  0.4823
 5522TIP3    H138125   0.334   5.975   7.981  0.6919 -1.6846 -1.6965
 5522TIP3    H238126   0.294   6.109   7.922 -0.2387 -0.7643  0.8710
 5523TIP3   OH238127   5.615   3.008   1.447 -0.3281 -0.1156 -0.2250
 5523TIP3    H138128   5.535   3.049   1.413  1.0518  0.0647 -3.6606
 5523TIP3    H238129   5.686   3.054   1.403  1.5326 -2.4848  0.0968
 5524TIP3   OH238130   4.173   5.895   8.023  0.6075 -0.3386 -0.3377
 5524TIP3    H138131   4.179   5.843   7.943 -1.0428 -0.0290 -0.7042
 5524TIP3    H238132   4.194   5.985   7.995  0.7963 -0.3535 -0.2504
 5525TIP3   OH238133   3.230   1.367   0.844  0.1744 -0.5477  0.5081
 5525TIP3    H138134   3.176   1.425   0.897  1.3551  1.0622  0.0139
 5525TIP3    H238135   3.279   1.314   0.908  1.4208  1.2171  1.0754
 5526TIP3   OH238136   2.517   4.996   0.826 -0.0621  0.0926 -0.0112
 5526TIP3    H138137   2.594   4.977   0.772  0.6875  0.9768  0.6981
 5526TIP3    H238138   2.461   5.050   0.769 -0.0540 -0.3392 -0.4410
 5527TIP3   OH238139   1.752   2.865   7.473 -0.1924 -0.0655  0.6208
 5527TIP3    H138140   1.724   2.951   7.441  1.6834  0.0588 -0.9034
 5527TIP3    H238141   1.817   2.884   7.541 -0.1772 -0.2740  0.6666
 5528TIP3   OH238142   0.397   5.260   1.449 -0.0898 -0.0988  0.3644
 5528TIP3    H138143   0.335   5.187   1.452 -1.6578  1.1498 -0.3259
 5528TIP3    H238144   0.456   5.238   1.377  0.1546 -1.1806  0.8606
 5529TIP3   OH238145   1.429   3.391   0.501 -0.5163 -0.1480  0.4826
 5529TIP3    H138146   1.382   3.447   0.563  0.3551  0.5177  0.5596
 5529TIP3    H238147   1.362   3.358   0.442 -1.1454  0.3816  0.8925
 5530TIP3   OH238148   5.804   0.936   8.085  0.6896 -0.0076  0.0368
 5530TIP3    H138149   5.862   0.869   8.121  0.5611  0.3872  1.0113
 5530TIP3    H238150   5.852   0.971   8.010  1.0626 -0.6976 -0.0563
 5531TIP3   OH238151   2.060   6.185   1.485  0.3968 -0.1392  0.3354
 5531TIP3    H138152   2.038   6.275   1.509 -0.3512 -0.8448  2.4422
 5531TIP3    H238153   2.046   6.134   1.564  3.1592 -1.7624 -0.0617
 5532TIP3   OH238154   1.068   3.000   1.550 -0.2946 -0.0366  0.1597
 5532TIP3    H138155   1.037   3.069   1.609 -0.8826  1.1148 -1.4185
 5532TIP3    H238156   1.019   2.922   1.576 -1.1525  0.6473  0.6428
 5533TIP3   OH238157   1.905   3.442   0.933  0.1724 -0.0867  0.2111
 5533TIP3    H138158   1.992   3.433   0.970  0.2628  1.2504  0.3752
 5533TIP3    H238159   1.848   3.458   1.008 -0.1866 -0.7181  0.0833
 5534TIP3   OH238160   3.103   1.983   0.892 -0.5588  0.0318  0.0203
 5534TIP3    H138161   3.136   1.937   0.815 -0.0363 -0.1494  0.3530
 5534TIP3    H238162   3.140   1.937   0.967  0.3939  1.2862  0.3555
 5535TIP3   OH238163   4.918   3.913   8.697 -0.7357  0.0187  0.1171
 5535TIP3    H138164   4.826   3.937   8.699 -0.9813 -0.7219 -1.2245
 5535TIP3    H238165   4.952   3.955   8.618  0.5578  1.8190  1.5299
 5536TIP3   OH238166   1.196   3.668   0.965 -0.2362  0.2720  0.2900
 5536TIP3    H138167   1.125   3.718   0.924 -0.0329  0.1176 -0.2585
 5536TIP3    H238168   1.229   3.611   0.895 -1.0841 -1.3324  1.1665
 5537TIP3   OH238169   1.436   0.392   2.336  0.1164  0.3169  0.0515
 5537TIP3    H138170   1.428   0.423   2.246  0.5073  0.1037 -0.0628
 5537TIP3    H238171   1.414   0.299   2.332  2.1095 -0.2011 -0.2156
 5538TIP3   OH238172   4.992   5.702   0.116  0.3704 -0.2461  0.0204
 5538TIP3    H138173   5.070   5.755   0.100  1.3018 -1.8108 -0.9268
 5538TIP3    H238174   5.021   5.612   0.098 -1.8178 -0.8102 -0.9343
 5539TIP3   OH238175   0.766   6.424   1.742 -0.3938 -0.3733  0.4714
 5539TIP3    H138176   0.788   6.424   1.835 -1.7933  1.5257  0.8802
 5539TIP3    H238177   0.740   6.515   1.724 -1.8474 -1.0846 -1.3313
 5540TIP3   OH238178   2.088   3.614   2.095  0.1143  0.2400  0.2053
 5540TIP3    H138179   2.073   3.549   2.163  2.5551 -1.9193 -1.1483
 5540TIP3    H238180   2.015   3.602   2.034  0.6917 -1.5602 -0.1970
 5541TIP3   OH238181   2.854   2.629   7.685 -0.5049 -0.2999 -0.2642
 5541TIP3    H138182   2.820   2.715   7.710 -0.0861 -0.1298 -0.2615
 5541TIP3    H238183   2.835   2.622   7.592 -1.5596 -0.6918 -0.0304
 5542TIP3   OH238184   4.516   2.535   8.883  0.2429  0.4538  0.2892
 5542TIP3    H138185   4.584   2.572   8.826 -0.9648  2.0428 -0.1916
 5542TIP3    H238186   4.535   2.573   8.969  2.5076 -2.5114  1.2635
 5543TIP3   OH238187   2.958   2.398   0.497  0.5672  0.2641 -0.5696
 5543TIP3    H138188   3.046   2.427   0.521  0.2520  1.1748 -0.4803
 5543TIP3    H238189   2.942   2.321   0.552  1.7030 -0.5534 -1.3512
 5544TIP3   OH238190   3.216   4.997   8.216 -0.1892 -0.3796 -0.3201
 5544TIP3    H138191   3.254   5.082   8.240 -0.2325 -0.8183  1.4100
 5544TIP3    H238192   3.291   4.942   8.194 -0.2005  0.2891 -2.2482
 5545TIP3   OH238193   3.076   0.501   1.727 -0.2008 -0.0574 -0.1070
 5545TIP3    H138194   3.158   0.454   1.712 -1.7659 -2.4359 -2.2819
 5545TIP3    H238195   3.091   0.588   1.691  1.1893 -0.6825 -1.1384
 5546TIP3   OH238196   5.255   4.052   0.597 -0.3895 -0.4559  0.6863
 5546TIP3    H138197   5.325   4.070   0.535 -0.1356 -0.8681  0.8460
 5546TIP3    H238198   5.267   4.117   0.667 -0.6496 -0.0219  0.3349
 5547TIP3   OH238199   5.504   1.133   7.177  0.1135 -0.3146  0.0730
 5547TIP3    H138200   5.557   1.130   7.097 -1.7973  2.3214 -1.4776
 5547TIP3    H238201   5.543   1.067   7.234  4.0562  0.3637 -1.4860
 5548TIP3   OH238202   4.953   0.258   7.909 -0.3869 -0.4255  0.1078
 5548TIP3    H138203   4.949   0.174   7.955  0.0537  0.0799  1.1025
 5548TIP3    H238204   4.891   0.249   7.837  0.3265 -1.9147 -0.3392
 5549TIP3   OH238205   5.467   2.792   1.876  0.2413 -0.0808 -0.0663
 5549TIP3    H138206   5.531   2.789   1.947  1.4387  0.5072 -1.0784
 5549TIP3    H238207   5.386   2.824   1.918  1.0510  0.7232  0.9397
 5550TIP3   OH238208   0.233   5.683   7.127  0.0701 -0.2727 -0.0520
 5550TIP3    H138209   0.241   5.764   7.076 -1.8916 -0.5396 -0.8462
 5550TIP3    H238210   0.139   5.671   7.139  0.1447 -3.4528 -1.6803
 5551TIP3   OH238211   6.178   1.199   0.805  0.0461 -0.0730 -0.7147
 5551TIP3    H138212   6.126   1.230   0.731 -2.5903 -0.7579  0.7042
 5551TIP3    H238213   6.163   1.264   0.873  2.3502  0.4990 -0.6984
 5552TIP3   OH238214   5.007   1.672   7.410  0.3097 -0.0263 -0.4358
 5552TIP3    H138215   4.912   1.664   7.403  0.4532 -0.4449 -2.7674
 5552TIP3    H238216   5.040   1.651   7.323  2.6337 -1.0104  0.5630
 5553TIP3   OH238217   6.001   2.768   8.516  0.2548 -0.9156 -0.2612
 5553TIP3    H138218   6.081   2.717   8.526  0.8128 -0.0747 -0.2898
 5553TIP3    H238219   6.022   2.853   8.554 -0.7472 -0.7992  0.0551
 5554TIP3   OH238220   6.306   0.808   8.113  0.1161  0.5246  0.7930
 5554TIP3    H138221   6.269   0.720   8.105 -1.0454  0.8105  2.5904
 5554TIP3    H238222   6.385   0.797   8.166  1.5671  0.2351 -1.2688
 5555TIP3   OH238223   0.193   4.441   0.852  0.1523  0.0336 -0.0139
 5555TIP3    H138224   0.218   4.513   0.794  0.7744 -0.4103 -0.3120
 5555TIP3    H238225   0.150   4.378   0.795 -1.2069  0.5513  0.4062
 5556TIP3   OH238226   5.301   5.289   8.480  0.3153  0.3110 -0.2225
 5556TIP3    H138227   5.285   5.347   8.555 -0.2208  0.4775 -0.4569
 5556TIP3    H238228   5.396   5.290   8.468  0.5977 -1.0750  1.5309
 5557TIP3   OH238229   0.515   3.325   1.307  0.3114  0.3028 -0.1332
 5557TIP3    H138230   0.490   3.397   1.249  0.5491  0.5199  0.0279
 5557TIP3    H238231   0.601   3.350   1.340  1.5887 -1.2333 -2.0413
 5558TIP3   OH238232   0.179   3.121   0.279 -0.4063  0.3399  0.4231
 5558TIP3    H138233   0.098   3.083   0.246 -0.7997  2.5188 -1.3387
 5558TIP3    H238234   0.247   3.084   0.223 -0.0679 -1.6158  2.0054
 5559TIP3   OH238235   2.874   2.420   9.039  0.0654 -0.4778  0.6060
 5559TIP3    H138236   2.807   2.425   9.107 -0.7191  0.8447 -0.2068
 5559TIP3    H238237   2.951   2.462   9.077  0.2772 -1.5138  1.3502
 5560TIP3   OH238238   2.868   3.300   1.323 -0.4219  0.1861  0.0493
 5560TIP3    H138239   2.846   3.207   1.326 -1.1253  0.2365 -1.8269
 5560TIP3    H238240   2.963   3.302   1.310 -0.1953 -0.2098  1.5325
 5561TIP3   OH238241   0.670   0.478   2.087 -0.8330  0.3568  0.2536
 5561TIP3    H138242   0.630   0.392   2.098  0.5829 -0.2927  0.5170
 5561TIP3    H238243   0.680   0.488   1.992 -0.7341  0.1023  0.2374
 5562TIP3   OH238244   5.184   4.724   0.920  0.2293 -0.4639 -0.0988
 5562TIP3    H138245   5.144   4.774   0.991 -0.9463  2.5575 -2.6507
 5562TIP3    H238246   5.278   4.739   0.930  0.0062  0.8142  0.2264
 5563TIP3   OH238247   3.379   3.813   7.293  0.1935  0.0547  0.0584
 5563TIP3    H138248   3.321   3.845   7.361 -0.8801 -1.4754 -0.1061
 5563TIP3    H238249   3.400   3.891   7.241  0.8159  1.1911  1.9302
 5564TIP3   OH238250   5.332   0.907   1.225 -0.5002  0.0169  0.0782
 5564TIP3    H138251   5.416   0.881   1.262 -0.2344 -1.3531 -1.3986
 5564TIP3    H238252   5.351   0.933   1.135 -1.5103  0.6548  0.0292
 5565TIP3   OH238253   5.672   5.738   1.960 -0.4777  0.0032 -0.2955
 5565TIP3    H138254   5.754   5.737   1.910  1.5486 -0.2712  2.7584
 5565TIP3    H238255   5.638   5.827   1.949 -0.0191  0.0205 -1.8943
 5566TIP3   OH238256   0.719   1.113   0.246 -0.4120  0.3081 -0.8514
 5566TIP3    H138257   0.635   1.122   0.201 -0.4138 -0.5970 -1.0610
 5566TIP3    H238258   0.698   1.065   0.326 -0.1991  0.6945 -0.5650
 5567TIP3   OH238259   2.626   3.204   9.233  0.3999  0.1180 -0.4523
 5567TIP3    H138260   2.586   3.183   9.148  1.8259 -0.3009 -1.0551
 5567TIP3    H238261   2.629   3.299   9.236 -0.7762  0.1653 -0.3118
 5568TIP3   OH238262   2.304   2.059   1.482  0.0418 -0.0914  0.3958
 5568TIP3    H138263   2.389   2.054   1.526 -0.3764 -0.0313  1.2311
 5568TIP3    H238264   2.325   2.078   1.390  0.9319 -0.2721  0.5597
 5569TIP3   OH238265   6.012   1.877   7.066 -0.2966  0.5086  0.5340
 5569TIP3    H138266   6.030   1.784   7.049  1.3932  1.0823 -1.1801
 5569TIP3    H238267   5.979   1.879   7.156 -1.4092 -1.8562  0.2621
 5570TIP3   OH238268   1.686   1.388   0.205  0.0418 -0.0493  0.0325
 5570TIP3    H138269   1.638   1.374   0.287  0.2313 -0.5811  0.0556
 5570TIP3    H238270   1.629   1.352   0.138  0.3250 -0.5315  0.0421
 5571TIP3   OH238271   3.471   1.294   9.113  0.2680 -0.4437  0.0493
 5571TIP3    H138272   3.540   1.315   9.176  1.5723 -0.9504 -1.1711
 5571TIP3    H238273   3.456   1.376   9.066 -1.2702  0.1577  1.4735
 5572TIP3   OH238274   0.184   1.656   7.066 -0.1306  0.0790 -0.2858
 5572TIP3    H138275   0.101   1.689   7.102  0.3761 -0.2198  1.2307
 5572TIP3    H238276   0.158   1.585   7.007 -1.0007  0.7117 -0.7003
 5573TIP3   OH238277   3.059   3.264   8.034 -0.2775  0.1092 -0.0795
 5573TIP3    H138278   3.011   3.322   8.093 -0.2674  0.0333  0.0027
 5573TIP3    H238279   3.138   3.313   8.011  0.7524 -0.6849  1.6145
 5574TIP3   OH238280   0.801   2.404   7.798 -0.0066  0.3117  0.7679
 5574TIP3    H138281   0.798   2.311   7.817  0.9668  0.0793 -0.1176
 5574TIP3    H238282   0.789   2.410   7.703 -0.4582  1.1231  0.8597
 5575TIP3   OH238283   3.642   2.131   1.090 -0.1325  0.2556 -0.8457
 5575TIP3    H138284   3.704   2.162   1.155 -1.0908 -0.6168  0.5634
 5575TIP3    H238285   3.696   2.087   1.025  0.7665 -0.2623  0.2057
 5576TIP3   OH238286   6.143   5.879   0.847  0.6160  0.5193  0.6239
 5576TIP3    H138287   6.051   5.853   0.840 -0.5308  4.3167 -1.1326
 5576TIP3    H238288   6.179   5.864   0.760  1.1972  0.5721  0.8499
 5577TIP3   OH238289   4.418   0.246   1.742  0.1524  0.7371 -0.2568
 5577TIP3    H138290   4.508   0.213   1.744 -0.2184 -0.3427  1.0851
 5577TIP3    H238291   4.408   0.287   1.657  1.7292  0.3279 -0.6617
 5578TIP3   OH238292   5.935   2.273   7.422  0.1502  0.3072 -1.0535
 5578TIP3    H138293   5.861   2.214   7.429 -0.6068  1.3295  0.1930
 5578TIP3    H238294   5.898   2.360   7.435  1.5918  0.8195  0.0212
 5579TIP3   OH238295   6.184   6.229   0.622  0.3450  0.1259 -0.4276
 5579TIP3    H138296   6.198   6.178   0.701  1.9941 -2.7250 -2.3812
 5579TIP3    H238297   6.110   6.286   0.643 -0.6328 -1.9848  2.4447
 5580TIP3   OH238298   2.266   3.166   7.442 -0.2825 -0.1291  0.6681
 5580TIP3    H138299   2.233   3.218   7.369  0.9992 -0.2672 -0.0361
 5580TIP3    H238300   2.310   3.091   7.401  0.5158 -0.1780  1.5589
 5581TIP3   OH238301   2.175   3.489   8.862 -0.3156  0.1598  0.3608
 5581TIP3    H138302   2.134   3.487   8.949  1.0324  2.1602  1.1021
 5581TIP3    H238303   2.180   3.582   8.839 -0.8023 -0.3185 -1.9789
 5582TIP3   OH238304   4.744   0.527   0.510 -0.3555 -0.0070 -0.3116
 5582TIP3    H138305   4.661   0.540   0.464 -0.5444  3.6518  0.7568
 5582TIP3    H238306   4.811   0.533   0.442 -0.8414  0.1101 -0.7866
 5583TIP3   OH238307   1.977   6.568   1.761  0.6283  0.0196 -0.3841
 5583TIP3    H138308   1.972   6.524   1.677 -0.1327  1.4481 -1.1304
 5583TIP3    H238309   2.047   6.632   1.750 -0.4265  1.2068 -0.4664
 5584TIP3   OH238310   6.334   3.908   7.197  0.2333  0.2215  0.1651
 5584TIP3    H138311   6.291   3.950   7.122 -1.3384 -1.6188 -0.0440
 5584TIP3    H238312   6.371   3.981   7.247 -1.7203  1.8023 -0.5605
 5585TIP3   OH238313   2.229   2.748   7.426  0.4959  0.2871 -0.1501
 5585TIP3    H138314   2.271   2.820   7.379  1.3383  0.1027  0.2937
 5585TIP3    H238315   2.151   2.728   7.375  0.9562  0.6416 -1.0084
 5586TIP3   OH238316   5.013   1.439   6.879 -0.3479  0.2637 -0.2125
 5586TIP3    H138317   5.058   1.359   6.854  1.5460  0.0117  3.2850
 5586TIP3    H238318   4.925   1.410   6.902 -0.0776 -0.6086 -0.2176
 5587TIP3   OH238319   1.453   5.827   8.274  0.6050 -0.4505  0.0909
 5587TIP3    H138320   1.366   5.791   8.256  1.0750 -0.7217 -1.8782
 5587TIP3    H238321   1.436   5.908   8.322 -0.7053 -0.8438  0.3160
 5588TIP3   OH238322   2.902   6.346   8.045  0.2015 -0.3725  0.7572
 5588TIP3    H138323   2.967   6.276   8.034 -1.2578 -1.7423  0.4926
 5588TIP3    H238324   2.866   6.359   7.958  1.0838  1.4224  0.6082
 5589TIP3   OH238325   5.757   3.545   0.524  0.3704 -0.4640 -0.7881
 5589TIP3    H138326   5.829   3.573   0.466  0.8570 -1.6628 -0.8103
 5589TIP3    H238327   5.747   3.451   0.504 -0.5355 -0.5268 -0.0634
 5590TIP3   OH238328   0.235   3.338   0.996 -0.4043  0.0254  0.1956
 5590TIP3    H138329   0.216   3.430   1.013 -1.5930 -0.2149  0.2836
 5590TIP3    H238330   0.291   3.338   0.919 -0.4985  0.8203  0.1222
 5591TIP3   OH238331   0.331   0.022   1.602 -0.0224 -0.6001  0.0119
 5591TIP3    H138332   0.373  -0.053   1.644  0.0954 -0.1513  0.7207
 5591TIP3    H238333   0.402   0.066   1.555  0.0976 -0.4363  0.3384
 5592TIP3   OH238334   4.858   4.245   0.968 -0.0573  0.6819 -0.3310
 5592TIP3    H138335   4.937   4.192   0.975 -0.6801 -0.0483  3.7550
 5592TIP3    H238336   4.786   4.182   0.961 -0.5330  1.1504  0.2049
 5593TIP3   OH238337   0.192   1.525   1.814  0.0985  0.0387 -0.1476
 5593TIP3    H138338   0.151   1.585   1.752  0.5141  0.2738 -0.1978
 5593TIP3    H238339   0.161   1.553   1.899 -1.3576 -0.9659 -0.3040
 5594TIP3   OH238340   0.808   4.153   8.759  0.9491  0.2534  0.5241
 5594TIP3    H138341   0.810   4.247   8.740  1.3381  0.5040  1.6793
 5594TIP3    H238342   0.730   4.141   8.812 -0.4908 -0.5444 -1.6576
 5595TIP3   OH238343   5.314   0.786   0.088  0.2379  0.2351  0.2315
 5595TIP3    H138344   5.344   0.800  -0.002 -1.3900  0.7305 -0.2687
 5595TIP3    H238345   5.377   0.725   0.125  2.4156  1.9441 -0.4162
 5596TIP3   OH238346   0.937   4.631   9.323  0.2241  0.5818 -0.0228
 5596TIP3    H138347   0.959   4.696   9.256  2.4989  0.7198  0.7401
 5596TIP3    H238348   0.907   4.683   9.398  0.1632  0.6317 -0.0822
 5597TIP3   OH238349   1.964   3.290   7.827  0.1170  0.0729  0.8346
 5597TIP3    H138350   1.882   3.243   7.840  0.4656 -1.0866 -0.8364
 5597TIP3    H238351   1.951   3.338   7.745  1.0626 -0.0389  0.6113
 5598TIP3   OH238352   4.345   1.851   7.117  0.1759  0.4714 -0.1073
 5598TIP3    H138353   4.432   1.810   7.120  0.9773  2.1418  0.5253
 5598TIP3    H238354   4.307   1.820   7.035  0.3119 -2.2855  0.7601
 5599TIP3   OH238355   6.481   2.387   0.173  0.0891  0.5904  0.1771
 5599TIP3    H138356   6.534   2.434   0.109 -0.0814  0.0731 -0.3527
 5599TIP3    H238357   6.514   2.416   0.258  0.5615  1.0089 -0.1485
 5600TIP3   OH238358   5.265   0.790   8.601  0.9115 -0.3947  0.3373
 5600TIP3    H138359   5.284   0.884   8.599  1.5807 -0.4861  1.7655
 5600TIP3    H238360   5.172   0.784   8.577  1.3478  0.4394 -1.8233
 5601TIP3   OH238361   4.743   1.995   9.290 -0.0917  0.5610 -0.1923
 5601TIP3    H138362   4.678   2.061   9.267  0.4897  1.2066 -0.0170
 5601TIP3    H238363   4.711   1.958   9.372 -1.8655 -1.3441 -1.6621
 5602TIP3   OH238364   6.424   3.331   8.957  0.0452 -0.3281  0.6325
 5602TIP3    H138365   6.330   3.318   8.970 -0.0201 -2.4684 -1.3542
 5602TIP3    H238366   6.443   3.414   9.001 -2.5410 -0.3599  2.0053
 5603TIP3   OH238367   1.405   0.073   0.978  0.2445  0.2801 -0.1973
 5603TIP3    H138368   1.497   0.050   0.967  0.0551  0.2491 -2.0094
 5603TIP3    H238369   1.358  -0.006   0.950 -0.3550 -0.0052  1.5028
 5604TIP3   OH238370   6.590   4.743   7.825 -0.2189 -0.2243  0.0385
 5604TIP3    H138371   6.543   4.812   7.872  1.0562 -0.1400  1.2802
 5604TIP3    H238372   6.644   4.789   7.761  1.4594  0.0880  1.5992
 5605TIP3   OH238373   4.301   1.156   9.228 -0.6654 -0.0263  0.4747
 5605TIP3    H138374   4.318   1.063   9.212  0.2679  0.2987 -0.6249
 5605TIP3    H238375   4.388   1.196   9.229 -1.0860  0.9278  0.3186
 5606TIP3   OH238376   4.270   4.003   8.539 -0.3919 -0.0404  0.0072
 5606TIP3    H138377   4.175   4.005   8.552 -0.2763  1.3797  0.7996
 5606TIP3    H238378   4.307   4.012   8.627  0.4673  0.8961 -0.4322
 5607TIP3   OH238379   5.330   3.722   0.574  0.0119 -0.1171  0.0763
 5607TIP3    H138380   5.390   3.735   0.500  0.1284 -0.7439  0.0592
 5607TIP3    H238381   5.250   3.767   0.547  0.4358  0.6546  0.0630
 5608TIP3   OH238382   2.608   6.546   1.490 -0.2964  0.1406 -0.2918
 5608TIP3    H138383   2.525   6.574   1.452  1.1735  0.8405 -3.2516
 5608TIP3    H238384   2.656   6.627   1.504 -0.5174 -0.1393  2.7163
 5609TIP3   OH238385   2.118   6.490   1.299  0.2956 -0.3942 -0.3870
 5609TIP3    H138386   2.118   6.585   1.307  0.8717 -0.4885  0.9570
 5609TIP3    H238387   2.182   6.472   1.229  0.9066  0.1612  0.0270
 5610TIP3   OH238388   1.760   2.224   7.230  0.3584  0.1560  0.9471
 5610TIP3    H138389   1.839   2.272   7.207 -0.9818  2.2905  0.4612
 5610TIP3    H238390   1.748   2.162   7.157 -0.5602  2.6654 -1.1858
 5611TIP3   OH238391   0.472   0.248   0.186  0.3531  0.4906  0.2973
 5611TIP3    H138392   0.431   0.262   0.101 -0.9939  0.2659  0.8908
 5611TIP3    H238393   0.565   0.236   0.166  0.2884  1.8806 -1.0030
 5612TIP3   OH238394   2.890   4.140   2.022  0.0433  0.5708  0.0246
 5612TIP3    H138395   2.948   4.147   1.946  0.0605  1.8022  0.1361
 5612TIP3    H238396   2.804   4.166   1.989 -0.0716  0.5134  0.2781
 5613TIP3   OH238397   6.461   1.526   0.973 -0.8933 -0.0858 -0.3420
 5613TIP3    H138398   6.481   1.520   1.066  0.2881  0.2938 -0.5547
 5613TIP3    H238399   6.523   1.590   0.939 -3.0028  1.7373 -0.9498
 5614TIP3   OH238400   5.485   3.677   8.710 -0.7347 -0.2603  0.0563
 5614TIP3    H138401   5.481   3.669   8.615 -2.2107  2.1192 -0.1758
 5614TIP3    H238402   5.414   3.737   8.732  0.5932  0.5613  2.4923
 5615TIP3   OH238403   0.334   0.883   7.111 -0.1741  0.1591 -0.1578
 5615TIP3    H138404   0.365   0.912   7.025  0.4778 -1.0046 -0.3385
 5615TIP3    H238405   0.252   0.837   7.094  1.5569 -3.0268 -0.6936
 5616TIP3   OH238406   4.828   3.723   2.397 -0.1649 -0.6914  0.1302
 5616TIP3    H138407   4.902   3.685   2.445  0.1000 -1.3742 -0.7819
 5616TIP3    H238408   4.766   3.651   2.390 -0.2250 -0.5832 -0.4834
 5617TIP3   OH238409   4.472   0.635   1.374  0.5046 -0.0866 -0.5648
 5617TIP3    H138410   4.450   0.665   1.286 -0.9228 -0.3098 -0.2970
 5617TIP3    H238411   4.428   0.696   1.433  0.8287 -0.3847 -0.0006
 5618TIP3   OH238412   5.722   0.151   7.944 -0.3450  0.3085  0.5138
 5618TIP3    H138413   5.627   0.153   7.932 -0.6424 -0.5629  2.3812
 5618TIP3    H238414   5.736   0.193   8.029  0.8540 -0.2478  0.6030
 5619TIP3   OH238415   2.730   0.133   2.756 -0.4837  0.0380  0.4173
 5619TIP3    H138416   2.681   0.091   2.685  0.4316 -0.6075  0.1372
 5619TIP3    H238417   2.702   0.087   2.835  0.1581 -0.8187  0.1707
 5620TIP3   OH238418   4.862   3.000   1.430 -0.5087 -0.3187  0.4004
 5620TIP3    H138419   4.918   3.030   1.358 -0.0682 -2.1614 -0.0869
 5620TIP3    H238420   4.910   2.926   1.468 -1.1648  0.0455  2.0243
 5621TIP3   OH238421   2.188   5.762   8.444  0.1266  0.2165  0.2096
 5621TIP3    H138422   2.141   5.776   8.526  0.4342  0.7626  0.2956
 5621TIP3    H238423   2.121   5.734   8.382 -0.4503  1.6151  0.1607
 5622TIP3   OH238424   0.681   4.270   7.847 -0.2721  0.2404  0.1369
 5622TIP3    H138425   0.734   4.276   7.767 -0.5357  1.4538  0.0329
 5622TIP3    H238426   0.739   4.301   7.917 -0.6945  1.2081  0.0801
 5623TIP3   OH238427   0.078   2.375   1.871 -0.1552  0.2457 -0.3650
 5623TIP3    H138428   0.097   2.461   1.908  1.6480  0.1339 -0.9177
 5623TIP3    H238429   0.090   2.386   1.777  0.5714 -0.6993 -0.4020
 5624TIP3   OH238430   0.223   1.196   8.178 -0.1574  0.2870 -0.2708
 5624TIP3    H138431   0.177   1.189   8.261  2.5800 -0.5372  1.2908
 5624TIP3    H238432   0.251   1.288   8.173 -0.9297  0.5143 -0.6874
 5625TIP3   OH238433   4.183   6.553   2.041  0.6337 -0.3417  0.1765
 5625TIP3    H138434   4.163   6.460   2.028  0.6290 -0.2416 -0.6275
 5625TIP3    H238435   4.261   6.553   2.096  0.6872 -0.8268  0.1118
 5626TIP3   OH238436   4.509   5.125   1.586 -0.6005  0.1226  0.0758
 5626TIP3    H138437   4.533   5.065   1.516  2.2800 -0.4407  1.4046
 5626TIP3    H238438   4.524   5.212   1.549  1.1747 -0.1715  0.0141
 5627TIP3   OH238439   1.328   0.499   7.317  0.1828 -0.3509  0.4086
 5627TIP3    H138440   1.260   0.500   7.250  0.5521 -0.5749  0.0261
 5627TIP3    H238441   1.397   0.556   7.281  0.5031 -0.7010  0.4693
 5628TIP3   OH238442   1.949   0.855   1.338 -0.4745 -0.0221 -0.8001
 5628TIP3    H138443   2.012   0.920   1.307 -0.1404 -0.0327 -0.1580
 5628TIP3    H238444   1.955   0.860   1.433 -0.3237 -1.1134 -0.7448
 5629TIP3   OH238445   5.212   5.730   9.142  0.3108  0.0108 -0.2425
 5629TIP3    H138446   5.248   5.776   9.218 -0.5385  1.8540 -0.8960
 5629TIP3    H238447   5.286   5.720   9.082  0.4541  0.7289 -0.1845
 5630TIP3   OH238448   2.826   4.576   8.327  0.1064 -0.1988 -0.0963
 5630TIP3    H138449   2.897   4.515   8.308 -1.3724 -2.2665  0.7354
 5630TIP3    H238450   2.852   4.619   8.409  1.1355  0.2932 -0.6669
 5631TIP3   OH238451   3.974   6.566   6.826 -0.2233  0.7286 -0.0606
 5631TIP3    H138452   3.946   6.652   6.793 -0.9781  0.3258 -0.5051
 5631TIP3    H238453   3.962   6.507   6.752 -0.3965  0.1025  0.4585
 5632TIP3   OH238454   2.609   1.598   7.174  0.0497  0.1336 -0.1995
 5632TIP3    H138455   2.530   1.544   7.182  0.8431 -0.8077  3.3856
 5632TIP3    H238456   2.681   1.536   7.171  0.7665  1.0007 -2.1233
 5633TIP3   OH238457   4.447   3.649   8.530 -0.0801 -0.0633 -0.0376
 5633TIP3    H138458   4.396   3.680   8.456 -1.3493  2.1463  1.6420
 5633TIP3    H238459   4.384   3.602   8.585  1.0572 -2.6126 -0.7507
 5634TIP3   OH238460   2.647   6.319   0.093  0.9161 -0.2059 -0.2685
 5634TIP3    H138461   2.735   6.352   0.079  1.1535 -0.7565 -0.0952
 5634TIP3    H238462   2.589   6.390   0.062  1.4037  0.6911  0.8085
 5635TIP3   OH238463   3.331   2.895   8.627 -0.1996 -0.5009  0.0184
 5635TIP3    H138464   3.413   2.846   8.627 -0.2137 -0.5322  0.8493
 5635TIP3    H238465   3.264   2.830   8.603  0.1723 -0.1498 -2.2445
 5636TIP3   OH238466   4.816   1.290   7.531 -0.0150  0.1880  0.2578
 5636TIP3    H138467   4.786   1.299   7.440  1.9276  1.0859 -0.3466
 5636TIP3    H238468   4.766   1.356   7.579 -0.0611  0.6583 -0.4268
 5637TIP3   OH238469   4.025   2.934   0.908 -0.2973  0.1596 -0.8181
 5637TIP3    H138470   4.000   3.022   0.938 -1.5541 -0.3838 -0.2277
 5637TIP3    H238471   3.943   2.895   0.877 -0.3116 -1.7474  1.3507
 5638TIP3   OH238472   3.566   4.946   7.737  0.4125  0.0970 -0.4100
 5638TIP3    H138473   3.594   4.890   7.664  2.5619  0.1250  0.3399
 5638TIP3    H238474   3.558   5.033   7.699  0.1032 -0.1431 -0.9070
 5639TIP3   OH238475   0.133   0.372   7.330 -0.1504  0.0830 -0.2315
 5639TIP3    H138476   0.055   0.426   7.340 -0.3642 -0.2366 -0.1628
 5639TIP3    H238477   0.106   0.301   7.272  0.4135  0.6163 -1.1846
 5640TIP3   OH238478   0.821   1.925   0.422 -0.0690 -0.3933  0.3515
 5640TIP3    H138479   0.887   1.952   0.358 -1.0296 -1.4217 -1.1241
 5640TIP3    H238480   0.826   1.830   0.424 -1.3572 -0.4737  0.3881
 5641TIP3   OH238481   6.440   1.193   8.078 -0.0295 -0.5174 -0.3586
 5641TIP3    H138482   6.505   1.249   8.036 -0.2677 -1.0852 -1.5355
 5641TIP3    H238483   6.364   1.198   8.020 -0.2585 -1.5810 -0.1614
 5642TIP3   OH238484   3.555   4.834   0.873 -0.6219 -0.1635 -0.1428
 5642TIP3    H138485   3.467   4.818   0.906 -0.4215 -0.7227  0.1453
 5642TIP3    H238486   3.593   4.897   0.934 -1.1604  0.8846 -0.8523
 5643TIP3   OH238487   2.871   3.701   1.501  0.3973  0.6457 -0.1870
 5643TIP3    H138488   2.786   3.697   1.545  0.1009  1.0733 -0.7092
 5643TIP3    H238489   2.926   3.752   1.560  0.2407  0.5212  0.0708
 5644TIP3   OH238490   0.875   3.229   1.293  0.2711  0.1673  0.5518
 5644TIP3    H138491   0.867   3.134   1.289  2.4862 -0.3711  4.4800
 5644TIP3    H238492   0.958   3.248   1.250 -0.3514  0.4606 -0.5775
 5645TIP3   OH238493   3.933   5.308   8.329 -0.3231  0.4906  0.5758
 5645TIP3    H138494   3.889   5.235   8.371  0.2659  0.2933  0.8563
 5645TIP3    H238495   3.941   5.375   8.398  2.3539 -0.5405  1.4111
 5646TIP3   OH238496   3.056   6.058   1.377  0.7128  0.0100 -0.3551
 5646TIP3    H138497   3.048   5.984   1.437 -0.3525  1.9252  2.0354
 5646TIP3    H238498   2.969   6.067   1.338  0.6848  0.3421 -0.2186
 5647TIP3   OH238499   0.471   2.757   8.534 -0.2225  0.1711  0.1060
 5647TIP3    H138500   0.553   2.790   8.571  0.3243  2.7879 -2.9497
 5647TIP3    H238501   0.415   2.834   8.528 -2.1650 -1.1594  0.1964
 5648TIP3   OH238502   6.624   3.812   1.687 -0.0377 -0.1753 -0.1676
 5648TIP3    H138503   6.673   3.828   1.768  0.7625  0.2786 -0.7306
 5648TIP3    H238504   6.569   3.736   1.706  0.6474 -0.4857  0.5756
 5649TIP3   OH238505   1.323   0.210   2.007 -0.1611 -0.1152  0.1108
 5649TIP3    H138506   1.319   0.302   2.033 -1.2627 -0.5646  1.6658
 5649TIP3    H238507   1.352   0.164   2.086  0.7265 -1.0841 -0.7447
 5650TIP3   OH238508   0.065   4.493   8.565  0.0806 -0.6071  0.3776
 5650TIP3    H138509   0.001   4.498   8.494 -0.6628 -2.7524  0.8015
 5650TIP3    H238510   0.147   4.519   8.525 -0.5663 -0.4996 -0.9383
 5651TIP3   OH238511   6.125   2.520   1.581 -0.5556 -0.4839 -0.1090
 5651TIP3    H138512   6.048   2.483   1.624  0.8965 -0.1463  3.0462
 5651TIP3    H238513   6.098   2.608   1.555 -2.0187 -1.3271 -1.6417
 5652TIP3   OH238514   3.521   2.578   9.171 -0.0117 -0.9285 -0.3411
 5652TIP3    H138515   3.599   2.546   9.216  0.7727 -0.2525 -1.1675
 5652TIP3    H238516   3.498   2.508   9.110  1.5649 -0.1165 -1.9845
 5653TIP3   OH238517   6.500   4.324   0.991  0.1642  0.5583  0.6535
 5653TIP3    H138518   6.502   4.306   0.897 -0.7014 -1.1779  0.9133
 5653TIP3    H238519   6.590   4.315   1.020  0.4208  1.0144  0.0034
 5654TIP3   OH238520   4.242   1.688   9.207 -0.5306 -0.1704 -0.0193
 5654TIP3    H138521   4.198   1.654   9.129  0.5129 -2.9568  0.5102
 5654TIP3    H238522   4.320   1.732   9.173 -1.3705  0.9018 -0.6509
 5655TIP3   OH238523   1.211   4.619   8.259 -0.4009 -0.0745 -0.5261
 5655TIP3    H138524   1.136   4.562   8.274  0.7558 -0.9310  2.7307
 5655TIP3    H238525   1.198   4.693   8.319 -0.0541  1.3086 -2.0707
 5656TIP3   OH238526   3.037   2.214   8.864  0.5360  0.0111  0.1726
 5656TIP3    H138527   3.021   2.271   8.789 -0.7544 -0.5466 -0.0178
 5656TIP3    H238528   2.974   2.244   8.930 -2.2847 -2.8748 -0.9134
 5657TIP3   OH238529   3.691   2.285   8.208 -0.1825  0.1293  0.4124
 5657TIP3    H138530   3.631   2.312   8.140 -1.4461 -1.2616  0.9294
 5657TIP3    H238531   3.651   2.316   8.290 -0.3871 -1.0535  0.7850
 5658TIP3   OH238532   2.613   0.470   0.993  0.3819  0.3624 -0.2700
 5658TIP3    H138533   2.678   0.423   1.045 -0.2472  0.3190  0.5105
 5658TIP3    H238534   2.641   0.459   0.902  1.4633  0.3653  0.0551
 5659TIP3   OH238535   5.634   6.114   8.194 -0.2296  0.8894 -0.1860
 5659TIP3    H138536   5.722   6.148   8.179  0.6812 -0.6315  1.3348
 5659TIP3    H238537   5.624   6.042   8.131 -0.0377  0.5201  0.1986
 5660TIP3   OH238538   0.424   4.936   0.992  0.2085 -0.0102 -0.4025
 5660TIP3    H138539   0.439   5.030   0.995  0.6149 -0.0872  0.6657
 5660TIP3    H238540   0.498   4.901   0.942  0.1872  0.2107 -0.5888
 5661TIP3   OH238541   5.592   0.763   6.690 -0.3811 -0.7670  0.3823
 5661TIP3    H138542   5.664   0.712   6.728  1.0626 -0.3374 -1.6128
 5661TIP3    H238543   5.587   0.732   6.599 -0.5682  1.4760 -0.4130
 5662TIP3   OH238544   2.913   4.790   9.042  0.4205 -0.0782 -0.4673
 5662TIP3    H138545   2.861   4.869   9.027  1.8088  0.7461 -1.1496
 5662TIP3    H238546   2.916   4.747   8.956 -1.2269 -1.4864  0.1272
 5663TIP3   OH238547   6.460   3.950   1.996 -0.3623 -0.0254  0.6665
 5663TIP3    H138548   6.480   3.859   2.018 -1.5360 -0.2526  0.8604
 5663TIP3    H238549   6.431   3.989   2.078  0.3322  0.5991  0.6326
 5664TIP3   OH238550   0.238   0.008   7.491  0.3470  0.3340  0.0094
 5664TIP3    H138551   0.202  -0.068   7.446  1.5157 -1.5405  2.0167
 5664TIP3    H238552   0.333  -0.008   7.493  0.3266 -0.1719  3.6768
 5665TIP3   OH238553   5.314   0.736   7.407 -0.3523 -0.6618  0.2374
 5665TIP3    H138554   5.353   0.822   7.418 -0.6948 -0.7104  2.1439
 5665TIP3    H238555   5.377   0.687   7.354  0.7779  0.1445  0.8107
 5666TIP3   OH238556   6.138   3.534   9.145 -0.4058 -0.3882 -0.0531
 5666TIP3    H138557   6.043   3.543   9.132 -0.2043  0.9885 -0.7575
 5666TIP3    H238558   6.150   3.542   9.239 -1.0479 -1.3990  0.1358
 5667TIP3   OH238559   6.323   1.831   1.042  0.2942  0.3671 -0.3611
 5667TIP3    H138560   6.330   1.921   1.071  0.0682  0.4494 -0.5583
 5667TIP3    H238561   6.255   1.833   0.974  0.1746  0.0234 -0.2541
 5668TIP3   OH238562   4.608   1.791   8.092 -0.1499  0.1284 -0.1822
 5668TIP3    H138563   4.567   1.828   8.170 -0.1640  1.6283 -0.8672
 5668TIP3    H238564   4.702   1.799   8.108 -0.1475 -0.3862  0.0575
 5669TIP3   OH238565   4.532   4.769   1.575 -0.0067 -0.4279 -0.6210
 5669TIP3    H138566   4.451   4.787   1.527 -0.0363  1.2125 -0.0286
 5669TIP3    H238567   4.551   4.852   1.620 -0.7102 -2.1605  3.2320
 5670TIP3   OH238568   0.499   5.145   8.908  0.3929  0.5897 -0.0757
 5670TIP3    H138569   0.466   5.077   8.850  0.1273  0.8219 -0.2030
 5670TIP3    H238570   0.584   5.169   8.871  0.3263  0.5773 -0.2392
 5671TIP3   OH238571   1.050   6.547   8.684  0.1237  0.4027  0.4153
 5671TIP3    H138572   1.082   6.506   8.764  0.9966 -1.6577 -0.9076
 5671TIP3    H238573   1.129   6.560   8.631 -0.6868 -0.6110 -1.0950
 5672TIP3   OH238574   4.153   0.952   0.395  0.4402 -0.0302 -0.1675
 5672TIP3    H138575   4.225   0.905   0.437  2.1277  2.2746 -0.2714
 5672TIP3    H238576   4.196   1.005   0.328 -1.0682  2.9123  1.0389
 5673TIP3   OH238577   3.340   2.822   1.728  0.8918 -0.8795 -0.5390
 5673TIP3    H138578   3.283   2.792   1.799  2.1545 -1.7808  0.1383
 5673TIP3    H238579   3.299   2.902   1.696 -0.7938 -1.5625 -0.1635
 5674TIP3   OH238580   6.232   2.608   9.163  0.5705  0.2915 -0.6766
 5674TIP3    H138581   6.223   2.569   9.249  2.2648  3.2484  1.0176
 5674TIP3    H238582   6.148   2.594   9.121 -0.0918 -1.7950  1.1794
 5675TIP3   OH238583   0.287   5.484   1.542 -0.0483  0.0326  0.1118
 5675TIP3    H138584   0.326   5.413   1.491  2.3021  2.4312 -1.7298
 5675TIP3    H238585   0.215   5.515   1.488  0.7952  0.8798 -0.5709
 5676TIP3   OH238586   1.092   2.896   1.025 -0.4331 -0.0792  0.0334
 5676TIP3    H138587   1.109   2.867   1.114  1.1482  0.1212 -0.1864
 5676TIP3    H238588   1.178   2.909   0.987 -1.0915  1.0437 -1.1346
 5677TIP3   OH238589   1.080   0.971   8.585  0.5946 -0.1561  0.0823
 5677TIP3    H138590   0.998   0.935   8.620  0.9248 -0.2530  0.7801
 5677TIP3    H238591   1.078   1.063   8.609  0.6947 -0.1626  0.1152
 5678TIP3   OH238592   2.849   2.575   1.214 -0.1861 -0.5804  0.2226
 5678TIP3    H138593   2.759   2.557   1.240 -0.9009 -1.1672 -2.3695
 5678TIP3    H238594   2.902   2.515   1.267 -1.3292 -0.4833  1.5164
 5679TIP3   OH238595   2.164   5.005   0.045  0.0901  0.0119  0.1016
 5679TIP3    H138596   2.209   4.953   0.112  0.1361 -0.8160 -0.5562
 5679TIP3    H238597   2.079   5.026   0.085  0.7036  0.8546  1.0156
 5680TIP3   OH238598   5.939   2.529   0.294  0.0820  0.3760  0.0339
 5680TIP3    H138599   5.977   2.616   0.294  2.1303 -0.4581 -1.2137
 5680TIP3    H238600   6.011   2.471   0.317 -1.1703 -1.0337  0.5789
 5681TIP3   OH238601   1.543   1.358   1.261 -0.1382 -0.9502  0.6539
 5681TIP3    H138602   1.607   1.385   1.327  0.4269 -0.7583  0.0376
 5681TIP3    H238603   1.460   1.354   1.308  0.2593 -0.8302  1.3785
 5682TIP3   OH238604   4.525   6.454   8.685 -0.1248 -0.8078 -0.5334
 5682TIP3    H138605   4.515   6.507   8.764 -1.4376  0.8948 -1.7789
 5682TIP3    H238606   4.594   6.498   8.635 -1.8448  0.3496 -1.9928
 5683TIP3   OH238607   3.217   5.651   1.640 -0.2905 -0.0307 -0.3709
 5683TIP3    H138608   3.253   5.598   1.712  1.4450 -2.1549 -2.6023
 5683TIP3    H238609   3.193   5.734   1.681  1.6689 -0.6911  2.4609
 5684TIP3   OH238610   3.646   1.541   8.479 -0.2279  0.4738 -0.2065
 5684TIP3    H138611   3.630   1.468   8.539  0.2889 -0.8599 -1.6155
 5684TIP3    H238612   3.561   1.584   8.470 -0.3131  0.7469  1.4591
 5685TIP3   OH238613   0.649   0.299   2.386 -0.1682  0.4268 -0.4032
 5685TIP3    H138614   0.657   0.215   2.431 -0.3345  0.0550 -1.0500
 5685TIP3    H238615   0.738   0.335   2.387  0.8174 -1.5483 -3.5005
 5686TIP3   OH238616   4.734   1.424   1.657 -0.2636 -0.1821  0.5387
 5686TIP3    H138617   4.675   1.349   1.655 -0.9468  0.2218  2.9243
 5686TIP3    H238618   4.679   1.498   1.682  1.1609  0.2235  2.7957
 5687TIP3   OH238619   3.696   4.733   1.570 -0.0305 -0.6484  0.5083
 5687TIP3    H138620   3.720   4.696   1.484 -0.9432 -2.1304  0.8658
 5687TIP3    H238621   3.779   4.737   1.617  0.0578 -2.8374  0.6445
 5688TIP3   OH238622   3.386   6.186   2.332 -0.1207  0.2005  0.1983
 5688TIP3    H138623   3.447   6.178   2.258 -0.1808 -0.2694  0.2010
 5688TIP3    H238624   3.437   6.159   2.408  0.3829  2.0246  0.5598
 5689TIP3   OH238625   1.153   5.756   1.188 -0.1808 -0.1695  0.1551
 5689TIP3    H138626   1.065   5.791   1.202  0.1571  1.5815 -1.6729
 5689TIP3    H238627   1.198   5.773   1.271 -0.5574  2.2994 -0.0586
 5690TIP3   OH238628   3.612   3.991   7.860 -0.8301 -0.0747  0.0374
 5690TIP3    H138629   3.592   4.084   7.864 -0.7901 -0.0561 -0.1618
 5690TIP3    H238630   3.526   3.948   7.854 -0.8981 -0.1137  1.1199
 5691TIP3   OH238631   0.439   4.822   6.864  0.3663  0.1876  0.1912
 5691TIP3    H138632   0.459   4.914   6.848  0.3267  0.1665  0.0203
 5691TIP3    H238633   0.520   4.784   6.897  0.2487  0.3961  0.7360
 5692TIP3   OH238634   5.262   2.842   8.110  0.1750 -0.4673  0.4073
 5692TIP3    H138635   5.320   2.901   8.158  0.1830 -0.7071  0.6999
 5692TIP3    H238636   5.199   2.812   8.176 -1.1803  0.8931 -0.2064
 5693TIP3   OH238637   3.580   0.160   8.101  0.2099  0.2198 -0.1092
 5693TIP3    H138638   3.585   0.122   8.014  0.9932  2.5118 -1.1383
 5693TIP3    H238639   3.489   0.148   8.128  0.3386 -1.9761 -0.4848
 5694TIP3   OH238640   5.551   2.272   6.969 -0.6090  0.0365 -0.2161
 5694TIP3    H138641   5.558   2.231   7.055  0.8113 -0.6068 -0.6091
 5694TIP3    H238642   5.540   2.365   6.987  1.9287  0.2431  0.6992
 5695TIP3   OH238643   5.347   5.045   6.817  0.4606 -0.1489 -0.4233
 5695TIP3    H138644   5.260   5.008   6.799 -0.3560  0.6787  1.5846
 5695TIP3    H238645   5.406   4.969   6.813 -0.4416 -0.8483 -1.0711
 5696TIP3   OH238646   2.237   4.397   7.996  0.1682  0.1540  0.0983
 5696TIP3    H138647   2.285   4.401   7.913 -0.3885  0.0062 -0.2371
 5696TIP3    H238648   2.302   4.371   8.061  0.4424 -0.4943 -0.4322
 5697TIP3   OH238649   0.140   6.420   7.383  0.3244 -0.2103 -0.1149
 5697TIP3    H138650   0.060   6.470   7.373 -0.5998 -1.6633 -0.3131
 5697TIP3    H238651   0.111   6.328   7.384  1.9595 -0.7595 -0.0283
 5698TIP3   OH238652   2.777   3.572   8.211  0.4407  0.0247 -0.2851
 5698TIP3    H138653   2.821   3.558   8.295  1.8046 -0.0580 -0.9931
 5698TIP3    H238654   2.806   3.659   8.183  1.1563 -0.5273 -1.3342
 5699TIP3   OH238655   3.081   1.897   8.144  0.1834 -0.0702 -0.3175
 5699TIP3    H138656   3.017   1.967   8.161 -0.4543 -0.3377 -1.5193
 5699TIP3    H238657   3.165   1.934   8.172 -0.4139  0.4664  0.8518
 5700TIP3   OH238658   6.576   3.208   7.077 -0.1776  0.1172  0.1794
 5700TIP3    H138659   6.552   3.119   7.101  1.5809 -0.8199 -1.2076
 5700TIP3    H238660   6.586   3.254   7.160 -2.1920 -0.6239  0.8898
 5701TIP3   OH238661   2.882   4.849   7.416 -0.2615 -0.8714  0.1786
 5701TIP3    H138662   2.912   4.822   7.329 -0.0827  1.6104 -0.6116
 5701TIP3    H238663   2.859   4.768   7.460  0.8037 -2.2978 -1.7547
 5702TIP3   OH238664   1.325   6.426   0.606 -1.0034 -0.0235 -0.2238
 5702TIP3    H138665   1.379   6.505   0.612 -0.3947 -0.4044 -0.6054
 5702TIP3    H238666   1.338   6.382   0.689  0.5643 -0.9228 -0.9076
 5703TIP3   OH238667   4.531   1.113   7.051  0.4686  0.0480 -0.4467
 5703TIP3    H138668   4.621   1.094   7.025  0.6728 -1.5789  1.2618
 5703TIP3    H238669   4.482   1.113   6.969  1.2808 -3.5388 -1.1002
 5704TIP3   OH238670   4.117   6.619   0.160 -0.3004 -0.0522 -0.2573
 5704TIP3    H138671   4.060   6.592   0.232 -1.6566 -0.4291 -1.4065
 5704TIP3    H238672   4.138   6.537   0.115 -1.7574  0.3883 -1.8641
 5705TIP3   OH238673   1.845   4.037   7.513  0.0713 -0.5539 -0.0592
 5705TIP3    H138674   1.834   4.046   7.608  0.0308  1.7930 -0.2350
 5705TIP3    H238675   1.784   3.966   7.489  1.2192 -2.3017  1.8164
 5706TIP3   OH238676   6.362   6.067   8.784  0.4374  0.2622 -0.8557
 5706TIP3    H138677   6.273   6.031   8.780  0.7907 -1.2347  1.9701
 5706TIP3    H238678   6.349   6.160   8.801 -0.6145  0.0408 -0.3330
 5707TIP3   OH238679   1.155   0.861   0.959  0.3153  0.2875  0.2582
 5707TIP3    H138680   1.085   0.903   0.910  0.8761  2.3805  1.1353
 5707TIP3    H238681   1.116   0.840   1.044  0.2644 -0.2270  0.1105
 5708TIP3   OH238682   4.314   6.520   7.880  0.7828  0.5168  0.5379
 5708TIP3    H138683   4.346   6.451   7.939 -0.6414 -0.4720  0.2335
 5708TIP3    H238684   4.238   6.556   7.926 -0.5730 -0.5133 -0.7835
 5709TIP3   OH238685   6.373   0.619   7.794 -0.0920  0.0687 -0.8715
 5709TIP3    H138686   6.382   0.688   7.860  0.5784 -0.5139 -0.3367
 5709TIP3    H238687   6.458   0.614   7.752  0.2554 -1.2362 -0.0730
 5710TIP3   OH238688   4.212   5.055   0.597  0.7493 -0.2651 -0.4345
 5710TIP3    H138689   4.189   5.139   0.636  1.2684  1.5112 -3.6430
 5710TIP3    H238690   4.301   5.037   0.629  1.0190  0.9109 -0.4961
 5711TIP3   OH238691   4.909   6.305   8.799  0.6858  0.6913  0.2131
 5711TIP3    H138692   4.872   6.279   8.883  0.6212  1.5908  0.4697
 5711TIP3    H238693   5.000   6.276   8.802  0.3609 -0.3632  0.1008
 5712TIP3   OH238694   2.392   5.131   2.772  0.0515 -0.1103  0.1185
 5712TIP3    H138695   2.459   5.152   2.837 -0.0838  1.7305 -0.2739
 5712TIP3    H238696   2.439   5.133   2.688 -0.4352  1.0408 -0.1452
 5713TIP3   OH238697   2.480   0.132   0.412 -0.0154  0.2892  0.0715
 5713TIP3    H138698   2.404   0.081   0.440  1.3131 -1.4838  0.6467
 5713TIP3    H238699   2.478   0.210   0.467 -1.9026  0.7737 -0.5803
 5714TIP3   OH238700   5.811   1.655   0.841  0.4465 -0.2840 -0.3661
 5714TIP3    H138701   5.791   1.713   0.767 -2.0530  0.0330  0.4571
 5714TIP3    H238702   5.806   1.713   0.918  0.8765 -1.0138  0.2196
 5715TIP3   OH238703   3.023   1.573   8.266 -0.0936 -0.2225  0.5463
 5715TIP3    H138704   2.952   1.531   8.216  0.2064  0.7976 -0.8081
 5715TIP3    H238705   3.090   1.505   8.273  0.5348  0.0235 -1.9197
 5716TIP3   OH238706   5.656   2.357   0.677  0.4961  0.3720 -0.0947
 5716TIP3    H138707   5.569   2.351   0.637  0.6461 -0.0849 -0.3604
 5716TIP3    H238708   5.640   2.349   0.771  0.4193 -1.7580 -0.2369
 5717TIP3   OH238709   2.627   2.760   8.053 -0.3079  0.2201 -0.5750
 5717TIP3    H138710   2.563   2.796   7.992 -2.3505  2.1158  2.3998
 5717TIP3    H238711   2.610   2.666   8.051  0.3844  0.0592 -3.4977
 5718TIP3   OH238712   5.030   6.278   7.501  0.3073 -0.7938  0.1984
 5718TIP3    H138713   5.003   6.225   7.426 -1.9889 -0.9100  1.0227
 5718TIP3    H238714   4.966   6.348   7.505  1.4748  0.2748  0.9980
 5719TIP3   OH238715   1.270   1.412   1.367  0.1180 -0.2930 -0.2015
 5719TIP3    H138716   1.242   1.330   1.408 -0.4295  0.2805  0.6113
 5719TIP3    H238717   1.217   1.479   1.410 -0.3372  0.3673 -1.7305
 5720TIP3   OH238718   2.035   5.977   0.180  0.1399 -0.3312  0.4096
 5720TIP3    H138719   2.034   5.961   0.086 -1.8805 -0.3848  0.3855
 5720TIP3    H238720   2.065   6.067   0.190 -1.2654  0.2607 -0.4442
 5721TIP3   OH238721   5.486   6.048   7.698  0.5817  0.4171  0.1074
 5721TIP3    H138722   5.484   5.979   7.764 -1.0124  0.6935  0.3700
 5721TIP3    H238723   5.395   6.070   7.682  0.8576 -0.0460 -2.6458
 5722TIP3   OH238724   4.709   3.910   9.063 -0.0279 -0.4168  0.8104
 5722TIP3    H138725   4.633   3.879   9.013  1.0435 -2.6413  0.4277
 5722TIP3    H238726   4.708   4.005   9.050 -2.0470 -0.4947 -0.1607
 5723TIP3   OH238727   5.432   3.893   7.559 -0.6436 -0.2608  0.2275
 5723TIP3    H138728   5.479   3.929   7.634  0.4621  0.3055 -0.7040
 5723TIP3    H238729   5.357   3.849   7.597  1.1940 -2.1883  1.9132
 5724TIP3   OH238730   0.926   5.500   1.498  0.1188  0.1870 -0.7685
 5724TIP3    H138731   0.875   5.429   1.460  0.1935  0.1769 -0.8487
 5724TIP3    H238732   0.895   5.579   1.453  0.4483  0.1330 -1.0912
 5725TIP3   OH238733   2.061   1.585   1.939  0.5294  0.4190 -0.5673
 5725TIP3    H138734   1.997   1.587   2.010  2.2907  0.6396  1.1095
 5725TIP3    H238735   2.038   1.508   1.887  1.4266 -2.1456  2.5113
 5726TIP3   OH238736   4.725   0.932   7.692  0.1843  0.4855  0.1531
 5726TIP3    H138737   4.678   0.851   7.710  2.7657 -0.7973  1.6055
 5726TIP3    H238738   4.725   0.979   7.775 -2.0779  2.5488 -0.8763
 5727TIP3   OH238739   3.663   4.327   1.398  0.5907 -0.0523  0.3384
 5727TIP3    H138740   3.738   4.270   1.416  0.0476 -1.1785 -0.7624
 5727TIP3    H238741   3.670   4.347   1.304 -0.8771 -0.8416  0.0177
 5728TIP3   OH238742   5.661   1.823   2.021 -0.2797  0.3190 -0.2152
 5728TIP3    H138743   5.608   1.805   2.098 -1.1846  2.9222 -0.1070
 5728TIP3    H238744   5.741   1.863   2.056 -0.1640  0.4012 -0.5677
 5729TIP3   OH238745   4.893   1.813   8.788  0.1416 -0.0669  0.2050
 5729TIP3    H138746   4.844   1.812   8.706 -0.6171 -0.3976  0.6481
 5729TIP3    H238747   4.979   1.779   8.765 -0.2325 -0.6625 -0.3582
 5730TIP3   OH238748   3.461   3.755   9.054  0.7106  0.0575  0.1943
 5730TIP3    H138749   3.385   3.707   9.021  0.0038 -0.6010  2.6218
 5730TIP3    H238750   3.471   3.828   8.993 -0.8189 -0.7840 -1.1354
 5731TIP3   OH238751   4.500   5.804   8.837 -0.3453 -0.2822  0.6962
 5731TIP3    H138752   4.584   5.845   8.858 -0.0597 -0.6521  0.2979
 5731TIP3    H238753   4.504   5.789   8.742 -1.7247  1.6504  0.2580
 5732TIP3   OH238754   5.529   6.301   7.228  0.1529  0.3627 -0.7959
 5732TIP3    H138755   5.492   6.328   7.144 -3.7429  0.3466  0.7050
 5732TIP3    H238756   5.520   6.206   7.230 -1.3691  0.4933  0.2171
 5733TIP3   OH238757   6.255   5.551   0.766  0.3202  0.0851  0.2644
 5733TIP3    H138758   6.292   5.553   0.855  0.3793  2.6276  0.2464
 5733TIP3    H238759   6.328   5.524   0.711  1.0110  1.0250  0.7030
 5734TIP3   OH238760   3.318   1.588   0.471 -0.2516 -0.0657 -0.3581
 5734TIP3    H138761   3.357   1.508   0.504 -0.9385 -0.8193 -1.2964
 5734TIP3    H238762   3.358   1.601   0.385 -1.1369 -0.1783 -0.8064
 5735TIP3   OH238763   5.440   4.813   0.949 -0.0211  0.2903  0.0256
 5735TIP3    H138764   5.489   4.889   0.980  0.2011 -0.6486  2.1459
 5735TIP3    H238765   5.506   4.754   0.914 -0.1142  0.7301 -0.9194
 5736TIP3   OH238766   2.440   0.250   1.188  0.5923 -0.6881  0.8163
 5736TIP3    H138767   2.489   0.309   1.245  0.1543  0.6461 -0.1434
 5736TIP3    H238768   2.451   0.287   1.100 -1.6953 -0.6422  0.4986
 5737TIP3   OH238769   6.270   0.963   9.075 -0.1479 -0.1683 -0.5280
 5737TIP3    H138770   6.311   0.877   9.075  0.1640 -0.0191 -0.5379
 5737TIP3    H238771   6.312   1.010   9.147 -1.6475 -0.6614  0.7281
 5738TIP3   OH238772   3.276   0.119   1.028 -0.1494 -0.0068  0.0478
 5738TIP3    H138773   3.321   0.047   0.984 -1.4764 -0.0496 -1.3457
 5738TIP3    H238774   3.276   0.095   1.120  1.4236 -0.6656 -0.0957
 5739TIP3   OH238775   4.493   3.759   8.927 -0.0224  0.3053  1.0044
 5739TIP3    H138776   4.432   3.691   8.958 -0.5535  0.0519 -0.5390
 5739TIP3    H238777   4.475   3.767   8.834  3.9935 -1.5432 -0.1205
 5740TIP3   OH238778   5.242   4.569   0.385 -0.2764  0.1355  0.0664
 5740TIP3    H138779   5.283   4.655   0.399  0.0724  0.2025 -1.2106
 5740TIP3    H238780   5.232   4.533   0.473 -1.2419  1.8505  0.7043
 5741TIP3   OH238781   2.909   4.588   1.258 -0.1653 -0.2519 -0.8206
 5741TIP3    H138782   2.864   4.506   1.280 -0.2045  0.1056  0.4990
 5741TIP3    H238783   2.960   4.567   1.180  0.2506 -1.7000 -0.1904
 5742TIP3   OH238784   1.057   2.461   9.254  0.5832 -0.0389 -0.1559
 5742TIP3    H138785   1.037   2.477   9.162  1.4405  1.0931 -0.1764
 5742TIP3    H238786   1.018   2.535   9.300  1.3597  0.1455  0.2225
 5743TIP3   OH238787   5.648   2.765   7.558  0.2018  0.2446 -0.2943
 5743TIP3    H138788   5.689   2.836   7.508 -0.2678  0.1449 -0.8368
 5743TIP3    H238789   5.692   2.766   7.643  0.6419  0.7683 -0.5259
 5744TIP3   OH238790   2.521   4.709   8.278  0.1542 -0.1432 -0.4988
 5744TIP3    H138791   2.470   4.787   8.303  1.5545  0.5960  0.2065
 5744TIP3    H238792   2.463   4.636   8.296 -1.4615  0.7436 -1.8248
 5745TIP3   OH238793   0.291   3.376   0.702  0.1648  0.0969  0.1821
 5745TIP3    H138794   0.211   3.426   0.684  1.2333  2.2420  0.9637
 5745TIP3    H238795   0.287   3.302   0.643 -1.3961  1.2868 -1.3095
 5746TIP3   OH238796   3.121   4.953   0.183 -0.1869 -0.2788 -0.5166
 5746TIP3    H138797   3.144   4.923   0.271  2.9730 -1.9509 -1.7437
 5746TIP3    H238798   3.072   4.880   0.145  1.1771 -0.9427 -1.0916
 5747TIP3   OH238799   3.898   1.126   7.083  0.7419 -0.4205  0.0903
 5747TIP3    H138800   3.947   1.160   7.158 -1.4182  0.0088  1.3993
 5747TIP3    H238801   3.864   1.042   7.113 -1.1670  0.3094  0.1125
 5748TIP3   OH238802   1.130   4.882   9.306 -0.0956  0.2816 -0.4502
 5748TIP3    H138803   1.199   4.825   9.341  0.9431  2.4209  1.2045
 5748TIP3    H238804   1.162   4.908   9.220  0.0759 -0.4570 -0.6235
 5749TIP3   OH238805   2.117   5.570   0.753 -0.2005 -0.0695 -0.5793
 5749TIP3    H138806   2.147   5.516   0.680 -1.0688  0.5463 -1.4218
 5749TIP3    H238807   2.024   5.585   0.735 -0.4362  0.0939  0.6667
 5750TIP3   OH238808   6.432   1.514   0.198 -0.0145  0.6955  0.2756
 5750TIP3    H138809   6.451   1.530   0.105  1.7544 -1.4869  0.1727
 5750TIP3    H238810   6.338   1.498   0.201 -0.1838  1.3039 -1.0620
 5751TIP3   OH238811   2.005   1.755   8.011 -0.4788  0.2988 -0.0745
 5751TIP3    H138812   1.986   1.669   8.050 -1.8024  1.1264  1.2345
 5751TIP3    H238813   1.944   1.762   7.937 -1.4398  0.6793  0.7253
 5752TIP3   OH238814   6.443   1.011   8.289  0.1897 -0.5262  0.5501
 5752TIP3    H138815   6.446   1.074   8.217  0.0522 -1.4038 -0.2381
 5752TIP3    H238816   6.355   1.022   8.326  0.8767  1.2001  1.7752
 5753TIP3   OH238817   0.923   0.857   0.268 -0.1709 -0.3052  0.3480
 5753TIP3    H138818   0.935   0.811   0.351  0.9853  1.4782  1.2299
 5753TIP3    H238819   0.943   0.792   0.201 -1.2861 -1.8309  1.4262
 5754TIP3   OH238820   2.751   0.506   0.032  0.3255  0.2602  0.1613
 5754TIP3    H138821   2.671   0.547  -0.000 -1.0844  0.4074  3.4417
 5754TIP3    H238822   2.807   0.579   0.059  1.3798  0.1339 -1.5151
 5755TIP3   OH238823   4.732   3.326   7.992  0.0298 -0.0370 -0.6819
 5755TIP3    H138824   4.722   3.231   7.993  3.2536 -0.4928  0.2416
 5755TIP3    H238825   4.682   3.357   8.067  0.4468 -1.2513  0.1267
 5756TIP3   OH238826   2.219   3.264   0.432  0.4058 -0.0415 -0.2689
 5756TIP3    H138827   2.174   3.281   0.515  0.7401 -0.8439  0.0834
 5756TIP3    H238828   2.149   3.236   0.372  0.2061  0.2767 -0.1888
 5757TIP3   OH238829   0.885   3.678   8.957  0.5604  0.6356 -0.0852
 5757TIP3    H138830   0.812   3.735   8.982 -0.4779 -1.2266  1.3629
 5757TIP3    H238831   0.919   3.646   9.040  1.2593 -0.6630 -0.8490
 5758TIP3   OH238832   1.374   5.475   1.097 -0.3140  0.7226 -0.1545
 5758TIP3    H138833   1.425   5.477   1.015 -0.8809 -0.8307 -0.5688
 5758TIP3    H238834   1.405   5.397   1.143 -2.6778 -0.6264 -0.6907
 5759TIP3   OH238835   5.229   5.125   7.122 -0.0317 -0.0473  0.5306
 5759TIP3    H138836   5.148   5.141   7.170  0.4504  1.8164  0.8131
 5759TIP3    H238837   5.202   5.072   7.047 -2.1733  2.9230 -1.0402
 5760TIP3   OH238838   0.845   6.292   8.088 -0.1286  0.2239  0.4314
 5760TIP3    H138839   0.830   6.254   8.175  0.5472  0.9587  0.8850
 5760TIP3    H238840   0.936   6.270   8.068  0.0035  0.8350  0.3243
 5761TIP3   OH238841   3.538   5.530   8.822 -0.3589  0.5341 -0.4978
 5761TIP3    H138842   3.619   5.524   8.873  0.8252  0.1325 -2.3472
 5761TIP3    H238843   3.494   5.447   8.838  2.0185 -1.4523 -3.2595
 5762TIP3   OH238844   3.686   3.822   0.449  0.1461 -0.3194 -0.2980
 5762TIP3    H138845   3.641   3.904   0.429  0.5413  0.2990  1.2750
 5762TIP3    H238846   3.695   3.821   0.544  1.0803 -1.6956 -0.3659
 5763TIP3   OH238847   5.375   5.972   1.748 -0.3033  0.5518  0.0002
 5763TIP3    H138848   5.392   5.880   1.768 -0.1309  0.2563 -1.4146
 5763TIP3    H238849   5.309   5.998   1.813  0.0824 -0.3866  0.7984
 5764TIP3   OH238850   0.217   0.669   7.400 -0.0192 -0.8072  0.2441
 5764TIP3    H138851   0.307   0.652   7.428 -0.3863 -2.0495  0.7494
 5764TIP3    H238852   0.208   0.623   7.316 -0.0567 -0.2987 -0.0380
 5765TIP3   OH238853   1.933   0.341   8.630  0.6536  0.4331 -0.1154
 5765TIP3    H138854   2.013   0.372   8.588 -0.0100  2.0523 -0.2617
 5765TIP3    H238855   1.925   0.393   8.709  0.1090 -0.2109  0.2697
 5766TIP3   OH238856   1.139   6.163   8.004 -0.2936 -0.2661 -0.0700
 5766TIP3    H138857   1.223   6.194   8.038  0.6296 -0.5503 -2.0060
 5766TIP3    H238858   1.130   6.074   8.038 -0.0111 -0.0988  0.4518
 5767TIP3   OH238859   0.782   0.628   8.983  0.1462 -0.2225 -0.3617
 5767TIP3    H138860   0.743   0.716   8.985  0.2214 -0.1790 -0.7044
 5767TIP3    H238861   0.876   0.645   8.986  0.2402 -0.1953 -2.3898
 5768TIP3   OH238862   4.606   0.559   0.746  0.4939  0.2476 -0.5984
 5768TIP3    H138863   4.644   0.538   0.661  1.7003 -3.5979  0.7039
 5768TIP3    H238864   4.639   0.647   0.766  2.5947  0.0698 -2.8256
 5769TIP3   OH238865   1.952   3.739   1.602  0.2983 -0.2292  0.5670
 5769TIP3    H138866   2.016   3.777   1.663  1.2775  1.1651 -1.2282
 5769TIP3    H238867   2.002   3.675   1.552  0.0949  0.2812 -0.2982
 5770TIP3   OH238868   3.844   3.835   1.665  0.4007 -0.0302  0.1676
 5770TIP3    H138869   3.809   3.810   1.750 -1.2990  0.1129 -0.4455
 5770TIP3    H238870   3.807   3.771   1.604  1.3960  0.0128 -0.5054
 5771TIP3   OH238871   5.071   4.824   0.298 -0.1209 -0.0182  0.3589
 5771TIP3    H138872   5.028   4.851   0.217  0.8083  0.1415 -0.0863
 5771TIP3    H238873   5.113   4.741   0.277 -0.1164 -0.1195  0.7610
 5772TIP3   OH238874   2.278   2.830   0.715  0.3873 -0.2060 -0.1387
 5772TIP3    H138875   2.202   2.842   0.773  1.2560 -1.9824  1.4957
 5772TIP3    H238876   2.312   2.918   0.702 -1.5315  0.5482 -0.3320
 5773TIP3   OH238877   6.051   5.553   1.605 -0.4473 -0.1602 -0.1538
 5773TIP3    H138878   6.105   5.517   1.675  0.5143  0.0941 -0.7499
 5773TIP3    H238879   6.096   5.634   1.579  0.4241 -1.3024 -2.4921
 5774TIP3   OH238880   1.130   5.093   1.103  0.3183  0.0320  0.5472
 5774TIP3    H138881   1.180   5.096   1.021  0.4382 -0.9983  0.5742
 5774TIP3    H238882   1.195   5.110   1.171  0.4190 -0.1621  0.5009
 5775TIP3   OH238883   2.977   1.199   7.954  0.4181 -0.6127 -0.2039
 5775TIP3    H138884   2.920   1.237   7.888  0.5648  0.5374  0.3056
 5775TIP3    H238885   3.064   1.233   7.933  0.6586 -1.1170 -0.0542
 5776TIP3   OH238886   5.443   5.328   8.797  0.1201 -0.0784  0.0586
 5776TIP3    H138887   5.462   5.421   8.808  0.0921 -0.0364 -0.2404
 5776TIP3    H238888   5.478   5.306   8.710  0.5933 -0.4668  0.3467
 5777TIP3   OH238889   4.952   1.238   1.598  0.0098  0.1966 -0.0119
 5777TIP3    H138890   4.875   1.288   1.570 -0.9762  0.5137  2.9308
 5777TIP3    H238891   5.027   1.285   1.561 -1.1171  0.8820 -1.5075
 5778TIP3   OH238892   1.964   4.371   8.004  0.0092 -0.4331  0.4376
 5778TIP3    H138893   2.050   4.364   7.964 -0.3870 -1.5856 -0.2527
 5778TIP3    H238894   1.979   4.350   8.097  0.3884 -1.2348  0.2054
 5779TIP3   OH238895   2.022   6.019   2.162  0.2377  0.5638 -0.2020
 5779TIP3    H138896   1.991   6.079   2.231 -0.9313  0.8445 -0.9318
 5779TIP3    H238897   1.946   5.964   2.142  1.9092 -2.9484  2.1518
 5780TIP3   OH238898   5.434   4.980   1.244  0.2987 -0.1691  0.3162
 5780TIP3    H138899   5.437   5.006   1.336 -0.6982  0.7404  0.1221
 5780TIP3    H238900   5.461   5.059   1.196  0.7376 -0.6121 -0.1818
 5781TIP3   OH238901   4.874   6.607   0.927  0.0137  0.5881 -0.3936
 5781TIP3    H138902   4.966   6.597   0.953  0.0726  0.2180 -0.7364
 5781TIP3    H238903   4.828   6.628   1.009  0.1826 -0.6491  0.0410
 5782TIP3   OH238904   3.236   2.988   7.735  0.4723  0.2728 -0.4003
 5782TIP3    H138905   3.227   3.048   7.661  0.0189 -0.1536 -0.7054
 5782TIP3    H238906   3.223   2.901   7.696 -0.8882  0.1101  0.3541
 5783TIP3   OH238907   1.281   4.624   1.515  0.2568 -0.1774  0.1299
 5783TIP3    H138908   1.375   4.612   1.501 -0.0099 -2.4029 -0.0381
 5783TIP3    H238909   1.270   4.610   1.609  0.4097  2.9106  0.7139
 5784TIP3   OH238910   6.284   2.282   7.073 -0.3466 -0.5599  0.3731
 5784TIP3    H138911   6.213   2.242   7.123  0.6036 -0.4358  1.8783
 5784TIP3    H238912   6.324   2.345   7.134  0.2253  0.3410 -0.8804
 5785TIP3   OH238913   0.957   3.250   0.477 -0.3091 -0.0459  0.1270
 5785TIP3    H138914   0.996   3.164   0.495 -0.6420 -0.2836 -0.2835
 5785TIP3    H238915   0.863   3.236   0.486 -0.4468 -0.0047 -1.0476
 5786TIP3   OH238916   2.030   6.386   7.826 -0.5766 -0.3684 -0.2351
 5786TIP3    H138917   2.050   6.435   7.906 -1.2875 -1.2429  0.4994
 5786TIP3    H238918   1.958   6.435   7.786 -0.0575  0.2091 -0.4804
 5787TIP3   OH238919   2.598   4.260   7.711  1.0066 -0.2023  0.0902
 5787TIP3    H138920   2.594   4.173   7.670 -0.0370 -0.3763  0.5162
 5787TIP3    H238921   2.506   4.288   7.714  0.9793 -0.3860  2.6812
 5788TIP3   OH238922   5.865   3.315   9.169  0.2279  0.1426  0.7389
 5788TIP3    H138923   5.818   3.324   9.086 -0.2270  0.5717  1.0358
 5788TIP3    H238924   5.933   3.382   9.165  1.7444 -1.3902 -0.2878
 5789TIP3   OH238925   2.442   6.364   8.806  0.1934 -0.5571 -0.0583
 5789TIP3    H138926   2.410   6.397   8.890  2.9118  0.5489  0.6230
 5789TIP3    H238927   2.440   6.440   8.748 -0.1148 -0.9265 -0.5435
 5790TIP3   OH238928   4.781   5.552   1.398 -0.0106 -0.4580  0.5134
 5790TIP3    H138929   4.787   5.605   1.319  1.0157  2.8310  2.5579
 5790TIP3    H238930   4.870   5.555   1.435 -0.3364 -2.2947  1.5728
 5791TIP3   OH238931   5.585   4.545   0.310 -0.0378 -0.5522  0.6007
 5791TIP3    H138932   5.581   4.630   0.266 -1.0904 -0.2229  1.3028
 5791TIP3    H238933   5.678   4.529   0.324  0.1662  0.5261  0.5428
 5792TIP3   OH238934   0.815   5.781   9.230  0.3061  0.0474 -0.5829
 5792TIP3    H138935   0.861   5.704   9.266  0.4948  0.3080 -0.2628
 5792TIP3    H238936   0.809   5.841   9.304  0.8306  0.6533 -1.0285
 5793TIP3   OH238937   2.374   4.285   2.053  0.2467 -0.4820  0.4620
 5793TIP3    H138938   2.439   4.349   2.084  0.2243 -0.4111  0.3604
 5793TIP3    H238939   2.368   4.222   2.125 -0.6008  0.2617  1.0748
 5794TIP3   OH238940   3.704   0.388   9.030  0.0095  0.6294 -0.2938
 5794TIP3    H138941   3.718   0.395   9.125  0.7770  1.6199 -0.4613
 5794TIP3    H238942   3.613   0.416   9.017  0.3968  2.1529  0.0057
 5795TIP3   OH238943   3.127   2.054   2.206 -0.0392 -0.2201 -0.1096
 5795TIP3    H138944   3.203   2.083   2.154  1.7959 -0.9928  1.9702
 5795TIP3    H238945   3.158   1.976   2.252 -2.3018 -0.8568  0.4608
 5796TIP3   OH238946   5.012   3.141   9.239  0.2788  0.2108  0.3116
 5796TIP3    H138947   5.025   3.229   9.274 -0.1236  0.5945 -0.4952
 5796TIP3    H238948   4.974   3.154   9.153  0.5486 -0.7486  0.0307
 5797TIP3   OH238949   0.332   3.680   0.691  0.2011 -0.1717  0.0077
 5797TIP3    H138950   0.334   3.596   0.644  3.2894  0.6155 -1.5170
 5797TIP3    H238951   0.339   3.656   0.783  0.3260 -1.5885 -0.3479
 5798TIP3   OH238952   4.425   0.286   8.482 -0.0099 -0.4866  0.1847
 5798TIP3    H138953   4.430   0.225   8.408  1.1779 -0.5439  0.2935
 5798TIP3    H238954   4.331   0.294   8.500 -0.1959 -2.9589  0.7199
 5799TIP3   OH238955   3.543   1.900   1.308  0.2656 -0.1646 -0.1549
 5799TIP3    H138956   3.475   1.893   1.241 -0.0564 -0.3877  0.1933
 5799TIP3    H238957   3.574   1.991   1.301 -1.8779  0.7744  1.4232
 5800TIP3   OH238958   4.589   1.321   0.277 -0.1904  0.5041  0.0284
 5800TIP3    H138959   4.544   1.285   0.353 -1.0343  0.7750 -0.3305
 5800TIP3    H238960   4.653   1.382   0.313 -0.3650  0.3970  0.5290
 5801TIP3   OH238961   4.878   0.944   0.694  0.4314 -0.1568  0.4364
 5801TIP3    H138962   4.817   0.897   0.752 -0.7134 -0.5814 -1.0618
 5801TIP3    H238963   4.958   0.953   0.746 -0.6161 -0.3232  2.1636
 5802TIP3   OH238964   2.040   0.919   7.717 -0.2298  0.5180 -0.8560
 5802TIP3    H138965   2.084   0.860   7.779 -1.3985  0.4225 -0.0982
 5802TIP3    H238966   2.027   1.000   7.766 -2.0609  0.1163 -0.6052
 5803TIP3   OH238967   1.829   0.094   8.512 -0.0649  0.5967 -0.4722
 5803TIP3    H138968   1.873   0.164   8.560  1.0526 -0.6531  0.3806
 5803TIP3    H238969   1.869   0.097   8.425 -0.6939  1.5963 -0.7449
 5804TIP3   OH238970   2.882   2.943   0.363 -0.1066  0.0450  0.7231
 5804TIP3    H138971   2.857   3.009   0.298 -2.4702 -1.5646 -0.1484
 5804TIP3    H238972   2.913   2.869   0.312  0.1913 -0.4083  1.5408
 5805TIP3   OH238973   5.292   1.575   1.034  0.0578  0.2717 -0.3404
 5805TIP3    H138974   5.225   1.601   0.970  0.0393 -0.6058 -0.6962
 5805TIP3    H238975   5.371   1.563   0.981  0.3145  0.5694 -0.0303
 5806TIP3   OH238976   6.043   3.729   1.418 -0.6067 -0.3407  0.5870
 5806TIP3    H138977   6.017   3.637   1.426 -1.0866 -0.1440  1.3423
 5806TIP3    H238978   6.080   3.735   1.330  0.8003 -1.5951  1.0362
 5807TIP3   OH238979   2.816   3.277   8.608 -0.8114  0.2478  0.6005
 5807TIP3    H138980   2.860   3.305   8.528 -0.6602  0.8624  0.8973
 5807TIP3    H238981   2.724   3.299   8.594 -0.6654  1.0964  0.9107
 5808TIP3   OH238982   4.021   5.872   8.536  0.0524 -0.1467  0.8523
 5808TIP3    H138983   4.018   5.968   8.540 -2.7489 -0.1279  0.3926
 5808TIP3    H238984   3.929   5.846   8.538  0.7531 -2.8428  0.7528
 5809TIP3   OH238985   1.789   3.439   2.386 -0.4009 -0.1232 -0.0931
 5809TIP3    H138986   1.708   3.430   2.437  0.1152 -1.0281  0.6097
 5809TIP3    H238987   1.856   3.457   2.452 -0.0050  0.4639 -0.6552
 5810TIP3   OH238988   5.313   4.322   1.017  0.4590  0.9121  0.2411
 5810TIP3    H138989   5.310   4.404   1.066 -2.2604  0.5061  0.9273
 5810TIP3    H238990   5.304   4.254   1.083  2.2631  0.0341 -0.3571
 5811TIP3   OH238991   2.636   2.614   2.821  0.1600  0.2784 -0.0192
 5811TIP3    H138992   2.624   2.578   2.733 -1.8322 -0.3733  0.4737
 5811TIP3    H238993   2.552   2.655   2.842  0.4490  0.0183  1.7618
 5812TIP3   OH238994   3.578   2.221   0.075 -0.3539 -0.2881  0.2902
 5812TIP3    H138995   3.502   2.164   0.082  0.0475 -0.7597  0.8219
 5812TIP3    H238996   3.630   2.184   0.003  1.2484 -2.2146  2.3287
 5813TIP3   OH238997   1.362   4.746   1.057  0.1189  0.2139  0.3411
 5813TIP3    H138998   1.403   4.686   0.995 -0.4047  0.0846  0.1127
 5813TIP3    H238999   1.327   4.817   1.003 -1.0433 -0.2970  0.3860
 5814TIP3   OH239000   0.231   0.997   8.005 -0.3120  0.4012  0.1389
 5814TIP3    H139001   0.322   1.005   7.976  0.0692 -2.0868  0.3695
 5814TIP3    H239002   0.224   1.055   8.080  0.5530  1.9755 -0.9473
 5815TIP3   OH239003   0.404   4.509   6.915 -0.0427  0.3965 -0.3899
 5815TIP3    H139004   0.349   4.464   6.851 -0.9625  2.7383 -1.3275
 5815TIP3    H239005   0.396   4.602   6.894  2.3558  1.0145  0.9944
 5816TIP3   OH239006   3.607   1.031   1.459 -0.1090 -0.1659  0.2331
 5816TIP3    H139007   3.582   1.122   1.472 -1.7447 -0.0830 -2.7001
 5816TIP3    H239008   3.559   0.983   1.527 -2.5309  0.7971 -0.7049
 5817TIP3   OH239009   3.252   4.128   1.985 -0.0952  0.0999 -0.3500
 5817TIP3    H139010   3.187   4.174   1.931 -0.9947 -0.9519 -0.1988
 5817TIP3    H239011   3.336   4.164   1.957 -0.4776 -0.6911 -2.7705
 5818TIP3   OH239012   5.669   2.209   1.837  0.5603 -0.6716  0.0990
 5818TIP3    H139013   5.672   2.300   1.807 -1.3994 -0.5199  0.2359
 5818TIP3    H239014   5.757   2.191   1.870  0.9906  1.1546  0.0107
 5819TIP3   OH239015   2.321   4.612   2.477  0.3406 -0.3298  0.0771
 5819TIP3    H139016   2.338   4.688   2.421 -2.0308  0.5994  0.5208
 5819TIP3    H239017   2.354   4.639   2.563 -0.8480  0.4076  0.3278
 5820TIP3   OH239018   2.251   3.076   1.787  0.4485 -0.3121  0.4909
 5820TIP3    H139019   2.256   3.071   1.691 -1.6380 -0.7200  0.3457
 5820TIP3    H239020   2.160   3.055   1.807  0.4950  1.0961  2.4970
 5821TIP3   OH239021   1.163   4.024   9.179  0.5960 -0.1573 -0.0547
 5821TIP3    H139022   1.186   4.116   9.172  0.7754 -0.1442  0.6334
 5821TIP3    H239023   1.074   4.024   9.214  0.7721 -0.2431  0.4076
 5822TIP3   OH239024   2.871   2.031   2.111 -0.0727 -0.5282  0.0427
 5822TIP3    H139025   2.959   2.057   2.139  0.5502 -2.6359  0.2478
 5822TIP3    H239026   2.833   1.987   2.187 -0.9491 -0.4573 -0.3387
 5823TIP3   OH239027   3.215   5.948   9.065  0.6315 -0.1643 -0.2420
 5823TIP3    H139028   3.237   5.866   9.109  0.0449  0.0170  0.3977
 5823TIP3    H239029   3.232   5.931   8.972 -1.5970 -1.7612 -0.4327
 5824TIP3   OH239030   0.011   0.166   7.169  0.0707  0.4913 -0.4722
 5824TIP3    H139031  -0.009   0.079   7.205  0.4918  0.4383 -0.3712
 5824TIP3    H239032  -0.034   0.167   7.084 -0.4325  0.3993 -0.2142
 5825TIP3   OH239033   1.020   5.830   2.509 -0.2379  0.8318  0.1646
 5825TIP3    H139034   1.052   5.899   2.451  0.0963  1.7860  1.4161
 5825TIP3    H239035   0.990   5.761   2.451  0.1339  1.7183 -1.1263
 5826TIP3   OH239036   0.340   1.341   7.708 -0.5171  0.5245  0.5512
 5826TIP3    H139037   0.275   1.406   7.733 -0.2476  0.8031  0.5368
 5826TIP3    H239038   0.423   1.376   7.743 -0.4662 -0.1032  1.0671
 5827TIP3   OH239039   6.425   3.021   0.060  0.8985  0.3726 -0.3846
 5827TIP3    H139040   6.367   2.945   0.056  0.3474  0.7667 -0.0030
 5827TIP3    H239041   6.507   2.988   0.096  0.8718 -0.1652 -0.8107
 5828TIP3   OH239042   0.102   5.046   7.438  0.0863 -0.0872  0.2405
 5828TIP3    H139043   0.081   5.118   7.378 -0.3576  1.1150  1.7975
 5828TIP3    H239044   0.162   4.991   7.388  1.0582  1.7715 -0.7433
 5829TIP3   OH239045   3.474   2.328   1.491  0.3566  0.2014  0.6153
 5829TIP3    H139046   3.432   2.271   1.427 -0.5834  1.2541  0.2581
 5829TIP3    H239047   3.538   2.378   1.440  1.4736 -0.7998  1.0028
 5830TIP3   OH239048   4.900   0.574   7.746 -0.1164  0.3922  0.3275
 5830TIP3    H139049   4.968   0.519   7.785 -0.3791 -0.2869 -0.1571
 5830TIP3    H239050   4.903   0.655   7.797  2.4653  1.2337 -0.9398
 5831TIP3   OH239051   5.671   0.733   1.628 -0.4872  0.0353  0.5647
 5831TIP3    H139052   5.593   0.729   1.684 -0.1770 -1.7338  0.9463
 5831TIP3    H239053   5.743   0.752   1.688 -0.3037 -0.8042  0.6281
 5832TIP3   OH239054   1.316   5.785   7.203 -0.1376 -0.2769 -0.3790
 5832TIP3    H139055   1.409   5.792   7.225  0.3063 -2.5955 -1.2529
 5832TIP3    H239056   1.285   5.876   7.199  1.8030  0.5012  0.9955
 5833TIP3   OH239057   6.075   3.102   8.296  0.6845 -0.0005 -0.4942
 5833TIP3    H139058   6.007   3.136   8.238 -0.3984 -1.2181  0.0324
 5833TIP3    H239059   6.100   3.018   8.258  1.5650  0.2081 -0.4073
 5834TIP3   OH239060   0.004   3.909   0.329  0.3066  0.3981 -0.2237
 5834TIP3    H139061   0.004   3.876   0.419  1.0303 -0.9598 -0.6987
 5834TIP3    H239062   0.082   3.871   0.289 -0.9043 -0.4399 -1.9352
 5835TIP3   OH239063   4.030   3.445   1.016  0.6003 -0.7068  0.3600
 5835TIP3    H139064   4.072   3.443   1.102  1.5287 -0.8631 -0.0800
 5835TIP3    H239065   3.937   3.456   1.034  0.7945 -0.6944  1.3801
 5836TIP3   OH239066   4.944   2.832   8.493 -0.2829 -0.5509  0.5010
 5836TIP3    H139067   5.024   2.821   8.544  0.5916  3.1223  0.1271
 5836TIP3    H239068   4.882   2.872   8.555 -0.2738  0.9328 -0.4188
 5837TIP3   OH239069   1.062   2.365   2.735  0.7068 -0.0897 -0.2689
 5837TIP3    H139070   1.004   2.374   2.660  0.9562  0.2341 -0.4247
 5837TIP3    H239071   1.005   2.373   2.811  0.4424 -0.4908 -0.4219
 5838TIP3   OH239072   4.793   3.778   1.178 -0.2588  0.0262  0.7649
 5838TIP3    H139073   4.731   3.705   1.180 -0.7498  0.4393  1.2692
 5838TIP3    H239074   4.866   3.749   1.233 -0.0898 -0.3856  0.3287
 5839TIP3   OH239075   1.659   4.615   8.774  0.1507  0.0580 -0.0355
 5839TIP3    H139076   1.609   4.546   8.816  1.1478 -0.8397 -0.2859
 5839TIP3    H239077   1.601   4.650   8.707  0.2156 -1.6812 -1.0427
 5840TIP3   OH239078   4.382   5.530   1.061  0.6415 -0.0861  0.2815
 5840TIP3    H139079   4.295   5.544   1.024  0.7591 -0.3861 -0.1190
 5840TIP3    H239080   4.437   5.594   1.016  0.6294  0.1021  0.5336
 5841TIP3   OH239081   6.026   3.063   8.901  0.2212 -0.2664 -0.2383
 5841TIP3    H139082   5.938   3.055   8.864  0.2743 -0.6153 -0.2911
 5841TIP3    H239083   6.085   3.054   8.827  0.3197 -0.6878 -0.1104
 5842TIP3   OH239084   2.049   6.536   8.867  0.5300  0.4381  0.2908
 5842TIP3    H139085   2.040   6.501   8.779  1.0244  1.0735 -0.0158
 5842TIP3    H239086   2.116   6.604   8.860  0.9495  0.1373  1.2632
 5843TIP3   OH239087   6.045   3.384   7.572  0.4888 -0.3212  0.4255
 5843TIP3    H139088   6.047   3.479   7.588  1.1329 -0.5524  1.8163
 5843TIP3    H239089   5.975   3.352   7.628  1.8854 -0.9666  1.8847
 5844TIP3   OH239090   3.658   1.012   9.180 -0.3856 -0.0089 -0.9456
 5844TIP3    H139091   3.733   0.982   9.231 -1.1160 -0.3719 -0.0698
 5844TIP3    H239092   3.688   1.093   9.139  0.3772  0.0293 -0.3320
 5845TIP3   OH239093   3.242   0.049   1.621  0.1983 -0.4192 -0.5711
 5845TIP3    H139094   3.285   0.019   1.700  1.8970  0.7915 -0.9920
 5845TIP3    H239095   3.148   0.039   1.639  0.4435  1.3902  2.2475
 5846TIP3   OH239096   4.991   5.833   8.429  0.0035 -0.2067 -0.6740
 5846TIP3    H139097   4.950   5.747   8.421  2.2995 -1.2337 -2.5870
 5846TIP3    H239098   4.962   5.881   8.352 -0.8682  0.5790  0.1269
 5847TIP3   OH239099   5.043   3.546   0.585  0.4369 -0.4844  0.3292
 5847TIP3    H139100   5.099   3.584   0.654  1.5184 -2.9596  0.9274
 5847TIP3    H239101   5.053   3.606   0.511  0.6279  1.3249  1.7465
 5848TIP3   OH239102   4.498   5.893   0.264  0.2496  0.4368 -0.5289
 5848TIP3    H139103   4.476   5.858   0.178  0.6359  2.3061 -1.4241
 5848TIP3    H239104   4.427   5.863   0.321 -1.5143  1.4810 -2.0944
 5849TIP3   OH239105   2.787   1.862   2.387 -0.0430  0.1982  0.3784
 5849TIP3    H139106   2.701   1.901   2.400  0.2800  0.9150  0.4012
 5849TIP3    H239107   2.838   1.890   2.463  0.0769 -0.6075  0.6022
 5850TIP3   OH239108   4.400   6.341   0.623 -0.2362  0.3981 -0.1044
 5850TIP3    H139109   4.327   6.281   0.640  0.7158 -0.1654  2.5609
 5850TIP3    H239110   4.475   6.284   0.607  0.1607  0.9115 -0.0939
 5851TIP3   OH239111   2.641   0.888   0.232  0.0566 -0.2488  0.0997
 5851TIP3    H139112   2.593   0.814   0.195  0.5426 -0.7314  0.4345
 5851TIP3    H239113   2.622   0.884   0.326 -1.3608  1.1058 -0.0831
 5852TIP3   OH239114   3.175   3.007   8.011 -0.6113 -0.0051 -0.2526
 5852TIP3    H139115   3.199   3.006   7.919 -1.9643 -1.5031 -0.6387
 5852TIP3    H239116   3.142   3.095   8.027 -1.3292 -0.0344 -1.4875
 5853TIP3   OH239117   3.756   5.922   8.516 -0.0272 -0.3388 -0.0756
 5853TIP3    H139118   3.691   5.861   8.550  0.4896 -0.2804  1.0540
 5853TIP3    H239119   3.741   6.003   8.564 -0.0317  0.1073 -0.8204
 5854TIP3   OH239120   4.650   4.080   1.513 -0.1162  0.2399  0.2112
 5854TIP3    H139121   4.668   3.986   1.523 -1.9266 -0.2879 -0.9243
 5854TIP3    H239122   4.639   4.092   1.419 -1.0342  1.3559  0.4464
 5855TIP3   OH239123   1.714   1.138   7.640 -0.4473  0.0252  0.1631
 5855TIP3    H139124   1.727   1.213   7.698  0.0703 -0.1724  0.3062
 5855TIP3    H239125   1.638   1.092   7.676 -0.4155  0.1656  0.4049
 5856TIP3   OH239126   4.628   4.285   8.345 -0.2924 -0.1486 -0.0078
 5856TIP3    H139127   4.584   4.357   8.390  1.2046  0.8934 -0.1606
 5856TIP3    H239128   4.587   4.282   8.258  1.1798  2.1022 -0.8630
 5857TIP3   OH239129   0.708   0.037   2.101  0.1926  0.3146  0.1850
 5857TIP3    H139130   0.642   0.078   2.045 -0.6566  0.1897  1.0602
 5857TIP3    H239131   0.661   0.018   2.183  1.4787  0.7985  1.0595
 5858TIP3   OH239132   1.442   2.949   7.574 -0.6005 -0.3405  0.4372
 5858TIP3    H139133   1.414   3.024   7.521 -2.2803 -1.0670  0.2546
 5858TIP3    H239134   1.400   2.963   7.659 -1.3682 -1.3384  0.2319
 5859TIP3   OH239135   0.938   0.346   1.944 -0.3114  0.8158 -0.6851
 5859TIP3    H139136   0.988   0.394   2.010  1.7923 -0.2598 -1.4066
 5859TIP3    H239137   0.864   0.403   1.924  0.3263  2.2462  0.8302
 5860TIP3   OH239138   0.271   4.282   0.019 -0.2631  0.6308  0.5090
 5860TIP3    H139139   0.294   4.223   0.091  0.1160  0.0521 -0.0732
 5860TIP3    H239140   0.179   4.303   0.033 -0.1561  0.6337  1.2371
 5861TIP3   OH239141   0.903   1.380   8.044  0.5212  0.0018 -0.1207
 5861TIP3    H139142   0.819   1.361   8.001 -2.0089  1.4470  3.6167
 5861TIP3    H239143   0.942   1.448   7.990 -2.2541  1.4932 -0.4423
 5862TIP3   OH239144   1.940   0.194   0.382  0.1730 -0.6071 -0.2430
 5862TIP3    H139145   1.869   0.147   0.338 -0.5073  0.8471 -0.7810
 5862TIP3    H239146   1.984   0.128   0.435 -1.0649 -1.7185 -0.5497
 5863TIP3   OH239147   0.718   1.858   1.446  0.2658 -0.3510  0.3262
 5863TIP3    H139148   0.766   1.936   1.420  0.0104  0.7895  3.0259
 5863TIP3    H239149   0.770   1.820   1.517 -1.6004 -0.3517  1.7682
 5864TIP3   OH239150   3.962   5.239   0.191  0.0667  0.1819  0.1756
 5864TIP3    H139151   4.038   5.297   0.184 -0.1855  0.3617 -4.0738
 5864TIP3    H239152   3.965   5.206   0.280  2.8835  3.1405  1.3902
 5865TIP3   OH239153   0.457   2.050   8.422 -0.5318 -0.5047 -0.2836
 5865TIP3    H139154   0.445   2.127   8.477 -0.9569 -1.5317  1.1512
 5865TIP3    H239155   0.529   2.072   8.363  0.7978  0.2233  1.5318
 5866TIP3   OH239156   1.553   5.378   9.135  0.1472 -0.1793 -0.6315
 5866TIP3    H139157   1.611   5.397   9.062 -1.4938  0.7042 -1.7678
 5866TIP3    H239158   1.465   5.397   9.102 -0.6902 -0.1428  1.4421
 5867TIP3   OH239159   0.291   1.657   8.773  0.0658 -1.0419 -0.2519
 5867TIP3    H139160   0.261   1.663   8.864  3.1179  0.3276  0.7933
 5867TIP3    H239161   0.298   1.563   8.756  0.9745 -1.3483  1.5514
 5868TIP3   OH239162   3.045   3.142   1.850  0.3124 -0.2316 -0.4696
 5868TIP3    H139163   3.052   3.182   1.764  0.7422 -0.4500 -0.5354
 5868TIP3    H239164   2.955   3.161   1.877  0.9135  2.1345  0.1652
 5869TIP3   OH239165   5.941   4.800   9.013 -0.4106  0.1754 -0.0138
 5869TIP3    H139166   6.003   4.741   9.057 -0.5508  0.4414  0.5572
 5869TIP3    H239167   5.932   4.874   9.074 -1.0653  0.2765 -0.2282
 5870TIP3   OH239168   6.216   5.350   9.047 -0.7017 -0.0399  0.4925
 5870TIP3    H139169   6.260   5.409   8.985  1.5804 -0.7889  1.2744
 5870TIP3    H239170   6.222   5.395   9.131  0.9492 -1.2449  1.0738
 5871TIP3   OH239171   3.692   6.204   8.732  0.0506  0.0777  0.7166
 5871TIP3    H139172   3.610   6.180   8.775 -0.0037  2.1252  1.8852
 5871TIP3    H239173   3.734   6.265   8.792  3.3991 -2.2798  1.0488
 5872TIP3   OH239174   2.564   2.756   0.464 -0.1616 -0.0344 -0.1320
 5872TIP3    H139175   2.597   2.737   0.376 -1.3025 -0.3671 -0.5053
 5872TIP3    H239176   2.638   2.736   0.522  0.3944 -0.4488 -0.9600
 5873TIP3   OH239177   1.921   3.096   0.860 -0.1062 -0.2694 -0.8512
 5873TIP3    H139178   1.899   3.181   0.900  1.3334 -0.2722  0.0129
 5873TIP3    H239179   1.957   3.118   0.775  1.9406  0.1707  0.0681
 5874TIP3   OH239180   5.074   6.473   1.139 -0.3206 -0.4363 -0.5637
 5874TIP3    H139181   5.135   6.460   1.066  0.4717  0.1675 -0.0286
 5874TIP3    H239182   5.087   6.396   1.194 -0.9429 -0.9095 -1.0599
 5875TIP3   OH239183   5.400   6.103   0.427 -0.7382  0.2864  0.4955
 5875TIP3    H139184   5.493   6.120   0.442 -0.2225 -0.2734 -1.7371
 5875TIP3    H239185   5.362   6.190   0.414 -0.4081  0.4790  0.7950
 5876TIP3   OH239186   4.670   5.500   7.076  0.1804  0.6326 -0.6348
 5876TIP3    H139187   4.648   5.422   7.025  1.7210 -0.7607  0.7127
 5876TIP3    H239188   4.586   5.542   7.094 -0.9046 -1.7033  0.0972
 5877TIP3   OH239189   3.231   5.519   1.878  0.3156 -0.4577 -0.1749
 5877TIP3    H139190   3.220   5.432   1.916 -1.2065 -1.0941 -1.9457
 5877TIP3    H239191   3.166   5.573   1.922  1.4038 -0.1044  1.0796
 5878TIP3   OH239192   3.590   3.018   9.037 -0.0843 -0.1187  0.5766
 5878TIP3    H139193   3.590   3.055   8.949  1.6346  0.4309  0.7583
 5878TIP3    H239194   3.577   2.924   9.025 -0.3419  0.0162 -0.2141
 5879TIP3   OH239195   6.629   2.546   0.863  0.2022 -0.2389 -0.3296
 5879TIP3    H139196   6.542   2.583   0.854 -0.1449 -1.0608 -0.4888
 5879TIP3    H239197   6.626   2.496   0.945  0.3808 -0.6262 -0.5534
 5880TIP3   OH239198   5.995   0.343   1.228 -0.6855  0.3778 -0.4876
 5880TIP3    H139199   5.987   0.430   1.188  0.4864  0.0643 -1.4718
 5880TIP3    H239200   5.911   0.300   1.207 -1.1376  1.1394 -0.2886
 5881TIP3   OH239201   1.909   1.021   1.552  0.0553  0.5120  0.3719
 5881TIP3    H139202   1.814   1.034   1.554 -0.5221 -2.0460 -2.2442
 5881TIP3    H239203   1.946   1.104   1.583 -2.9772  1.2070  2.5892
 5882TIP3   OH239204   6.284   4.662   0.232  0.3066  1.0395 -0.4653
 5882TIP3    H139205   6.341   4.585   0.239 -1.5106 -0.2756  0.5996
 5882TIP3    H239206   6.289   4.704   0.318 -0.6817  0.6492 -0.2113
 5883TIP3   OH239207   5.484   5.926   9.176  0.0672 -0.0967  0.3459
 5883TIP3    H139208   5.458   5.848   9.127 -1.5976  0.4208  0.3439
 5883TIP3    H239209   5.524   5.983   9.110  1.6291 -1.0464  0.4123
 5884TIP3   OH239210   0.661   5.141   0.294 -0.3300 -0.0579 -0.7821
 5884TIP3    H139211   0.580   5.154   0.245 -0.5856 -1.6507 -0.8263
 5884TIP3    H239212   0.683   5.228   0.327 -2.6812  0.2377  0.2039
 5885TIP3   OH239213   3.779   4.141   0.606  0.0747 -0.0306  0.6467
 5885TIP3    H139214   3.837   4.214   0.628  0.5034 -0.2848  0.3721
 5885TIP3    H239215   3.693   4.181   0.597  0.5204  0.6728 -0.7855
 5886TIP3   OH239216   3.993   2.493   8.096  0.1185  0.0657  0.4923
 5886TIP3    H139217   4.004   2.523   8.186 -1.5237  1.5658  0.2480
 5886TIP3    H239218   4.070   2.526   8.050  0.1196  0.7783  0.9967
 5887TIP3   OH239219   5.406   4.622   8.914  0.4458  0.2080 -0.2124
 5887TIP3    H139220   5.477   4.560   8.932 -0.8358 -1.4820 -0.6729
 5887TIP3    H239221   5.427   4.658   8.828  1.6474  1.1167  0.4235
 5888TIP3   OH239222   4.128   3.100   1.768 -0.7673 -0.2428 -0.4315
 5888TIP3    H139223   4.110   3.007   1.781  0.3117 -0.2141  1.6025
 5888TIP3    H239224   4.164   3.105   1.679  0.1636 -1.9181 -0.1960
 5889TIP3   OH239225   0.026   6.396   0.681 -0.5456  0.3100 -0.1574
 5889TIP3    H139226  -0.009   6.358   0.762 -1.4544 -1.1848 -1.2156
 5889TIP3    H239227   0.072   6.475   0.710 -2.3984  0.8126  1.6075
 5890TIP3   OH239228   2.006   0.364   0.171  0.0046  0.1832 -0.2362
 5890TIP3    H139229   1.992   0.311   0.250  1.3108 -0.1035 -0.1823
 5890TIP3    H239230   2.019   0.453   0.204  0.1034  0.1424 -0.1647
 5891TIP3   OH239231   5.652   5.924   0.771 -0.2839 -0.6068  0.0142
 5891TIP3    H139232   5.616   5.897   0.687 -2.4573 -0.1422  0.7232
 5891TIP3    H239233   5.686   6.012   0.757  0.1792 -0.8710 -0.5615
 5892TIP3   OH239234   5.916   5.598   9.157  0.1585  0.1697  0.2289
 5892TIP3    H139235   5.997   5.630   9.197 -0.1490 -0.0002  1.0100
 5892TIP3    H239236   5.865   5.677   9.138  0.2922  0.2503  0.2091
 5893TIP3   OH239237   5.681   4.595   9.095  0.6150  0.9435  0.0201
 5893TIP3    H139238   5.715   4.564   9.180  0.7641  2.8492  0.7043
 5893TIP3    H239239   5.759   4.606   9.041  0.6172  0.7413 -0.0202
 5894TIP3   OH239240   2.947   2.725   0.193 -0.1444  0.2432 -0.6562
 5894TIP3    H139241   2.911   2.674   0.266  0.7197  0.8273  0.2011
 5894TIP3    H239242   2.884   2.712   0.122 -3.0957  2.5788  1.2470
 5895TIP3   OH239243   5.742   4.520   7.892  0.4755 -0.2137 -0.4929
 5895TIP3    H139244   5.692   4.534   7.811  0.5076  2.1566 -0.1776
 5895TIP3    H239245   5.738   4.604   7.937  3.6839 -0.2824  0.1551
 5896TIP3   OH239246   0.769   2.171   1.027  0.2440 -0.0163 -0.2681
 5896TIP3    H139247   0.775   2.256   0.982  1.8149 -0.6509 -1.3588
 5896TIP3    H239248   0.675   2.157   1.039 -0.1781  0.8710 -2.1076
 5897TIP3   OH239249   1.472   0.970   0.460 -0.1323  0.4993 -0.4502
 5897TIP3    H139250   1.428   0.885   0.454 -1.5696  1.1420  0.5265
 5897TIP3    H239251   1.468   1.006   0.372  1.5198 -0.9001 -1.1551
 5898TIP3   OH239252   6.332   2.258   1.194  1.0660  1.1529  0.1443
 5898TIP3    H139253   6.272   2.199   1.149  0.9561  1.1343  0.3160
 5898TIP3    H239254   6.282   2.293   1.268  1.7560 -0.1169  1.2651
 5899TIP3   OH239255   3.540   4.209   7.502 -0.7820  0.0558  0.1777
 5899TIP3    H139256   3.515   4.163   7.422 -2.8816 -1.5882  1.6525
 5899TIP3    H239257   3.515   4.300   7.486 -0.9146 -0.1860 -1.1046
 5900TIP3   OH239258   1.548   4.190   7.424 -0.2439 -0.5349  0.0197
 5900TIP3    H139259   1.549   4.255   7.354 -0.2329  1.0764  1.4251
 5900TIP3    H239260   1.489   4.227   7.490 -0.7746 -2.3058  0.5812
 5901TIP3   OH239261   5.072   2.714   1.921 -0.1489 -0.5292  0.1739
 5901TIP3    H139262   5.098   2.806   1.926  0.2546 -0.5092 -1.5235
 5901TIP3    H239263   5.137   2.668   1.975 -0.4911  0.1874  1.2175
 5902TIP3   OH239264   5.521   5.592   2.574  0.3763  0.3436  0.1130
 5902TIP3    H139265   5.529   5.619   2.666 -0.9362  3.5019 -0.5783
 5902TIP3    H239266   5.597   5.631   2.531 -1.1423  2.5207 -0.7776
 5903TIP3   OH239267   0.105   1.262   1.687 -0.4130 -0.1453  0.1301
 5903TIP3    H139268   0.030   1.276   1.630  0.8039  0.5684 -1.3814
 5903TIP3    H239269   0.134   1.351   1.710 -0.5838 -0.4178  1.4985
 5904TIP3   OH239270   4.826   4.649   8.690  0.1265  0.6220  0.2010
 5904TIP3    H139271   4.853   4.737   8.715  0.1816  0.2922  1.3705
 5904TIP3    H239272   4.738   4.640   8.727  0.4009 -0.0544  0.7030
 5905TIP3   OH239273   6.062   4.177   0.172 -0.4129  0.1472 -0.2389
 5905TIP3    H139274   6.040   4.088   0.200  1.1944 -0.2574 -0.1710
 5905TIP3    H239275   5.982   4.210   0.131 -0.6443 -1.8337 -1.5150
 5906TIP3   OH239276   5.382   5.956   0.956 -0.4466  0.0293 -0.3611
 5906TIP3    H139277   5.367   6.049   0.972 -0.3723  0.3830 -2.1978
 5906TIP3    H239278   5.468   5.951   0.915  1.5178 -1.3140  3.4605
 5907TIP3   OH239279   6.317   3.935   7.949 -0.3722 -0.0730 -0.1758
 5907TIP3    H139280   6.324   3.935   8.044  0.6425 -0.9123 -0.2278
 5907TIP3    H239281   6.408   3.937   7.918 -0.6920  1.5754 -1.1537
 5908TIP3   OH239282   5.051   1.873   1.068  0.2065  0.4925 -0.1870
 5908TIP3    H139283   5.139   1.908   1.084  1.0931 -1.0773 -1.3058
 5908TIP3    H239284   5.003   1.946   1.029  0.9521  1.4234  0.5759
 5909TIP3   OH239285   0.282   2.927   8.240  0.2212 -0.1279 -0.0600
 5909TIP3    H139286   0.228   2.909   8.163  0.6009  0.4651 -0.4736
 5909TIP3    H239287   0.229   2.896   8.314  0.1252 -1.3072 -0.5936
 5910TIP3   OH239288   5.321   2.472   1.398  0.1518  0.1488 -0.4506
 5910TIP3    H139289   5.322   2.381   1.429  1.5245 -0.4189 -2.0692
 5910TIP3    H239290   5.251   2.474   1.333  0.3505  0.1698 -0.6623
 5911TIP3   OH239291   5.817   1.414   8.963  0.1376 -0.0701 -0.4494
 5911TIP3    H139292   5.893   1.464   8.936 -1.2223  1.0837 -2.3968
 5911TIP3    H239293   5.841   1.323   8.946  0.7865  0.3458 -1.9457
 5912TIP3   OH239294   3.014   0.496   9.128  0.2016  0.6110  0.8797
 5912TIP3    H139295   3.040   0.493   9.220  0.7055 -1.7243  0.7191
 5912TIP3    H239296   3.071   0.562   9.089  2.2782 -0.6732  1.6144
 5913TIP3   OH239297   3.922   3.126   8.426  0.2856 -0.5446  0.1726
 5913TIP3    H139298   3.989   3.144   8.359  0.6985  0.1882  0.7649
 5913TIP3    H239299   3.942   3.188   8.497  0.7549 -2.2735  1.6150
 5914TIP3   OH239300   6.380   4.041   1.207 -0.0294 -0.3515 -0.1005
 5914TIP3    H139301   6.401   3.948   1.197  0.5512 -0.1494 -0.8818
 5914TIP3    H239302   6.464   4.083   1.224 -0.2764  0.0390  0.1593
 5915TIP3   OH239303   0.304   0.790   9.013  1.0721 -0.0890  0.0392
 5915TIP3    H139304   0.344   0.832   8.937  1.3892 -0.2308  0.1285
 5915TIP3    H239305   0.210   0.801   8.999  1.1565  1.1320  0.3335
 5916TIP3   OH239306   6.014   4.451   8.312  0.5155 -0.4475  0.1335
 5916TIP3    H139307   6.012   4.489   8.400  2.3410  1.7588 -0.6751
 5916TIP3    H239308   6.089   4.392   8.312  0.3832 -0.6150  0.1310
 5917TIP3   OH239309   4.188   4.705   0.937 -0.6628 -0.2395 -0.2839
 5917TIP3    H139310   4.220   4.788   0.903 -0.4278 -0.0448  0.4030
 5917TIP3    H239311   4.239   4.639   0.889 -0.0398  0.0408 -0.0235
 5918TIP3   OH239312   2.250   4.214   0.693  0.2029  0.7369  1.0032
 5918TIP3    H139313   2.309   4.261   0.634 -1.0251  0.9487 -0.0887
 5918TIP3    H239314   2.237   4.129   0.652  0.5871  0.2711  1.8062
 5919TIP3   OH239315   3.040   0.593   8.037  0.1890 -0.0057  0.3926
 5919TIP3    H139316   2.966   0.588   8.097  0.6848 -0.1887  1.0026
 5919TIP3    H239317   3.004   0.570   7.951 -0.3479 -0.6384  0.7801
 5920TIP3   OH239318   2.052   3.655   0.598 -0.4788 -0.3914 -0.1002
 5920TIP3    H139319   2.039   3.705   0.517 -0.1802  0.0836  0.1338
 5920TIP3    H239320   2.145   3.667   0.618 -0.0690 -2.2251 -0.7987
 5921TIP3   OH239321   4.161   1.568   1.825 -0.0045  0.3121  0.4967
 5921TIP3    H139322   4.211   1.488   1.841  1.1378  1.2058  1.6279
 5921TIP3    H239323   4.198   1.605   1.745  0.6219  0.5655  0.9003
 5922TIP3   OH239324   6.365   4.257   7.595 -0.0717 -0.1704 -0.1406
 5922TIP3    H139325   6.289   4.202   7.611  0.6682 -0.7556  1.7030
 5922TIP3    H239326   6.347   4.337   7.645 -0.1517  0.3603 -0.9932
 5923TIP3   OH239327   3.306   1.423   8.576 -0.2317 -0.9414 -0.4303
 5923TIP3    H139328   3.381   1.477   8.550  1.1632 -2.2763  0.6201
 5923TIP3    H239329   3.342   1.360   8.638 -2.3635 -1.2680  0.5801
 5924TIP3   OH239330   4.339   3.761   0.464 -0.1938  0.3047  0.6689
 5924TIP3    H139331   4.253   3.743   0.501 -1.1230  3.3992  0.3522
 5924TIP3    H239332   4.329   3.741   0.371 -0.0037 -0.9542  0.9055
 5925TIP3   OH239333   3.474   1.586   9.098  0.2266  0.4404 -0.0108
 5925TIP3    H139334   3.529   1.626   9.166  0.5589 -0.1562  0.0722
 5925TIP3    H239335   3.473   1.651   9.027 -0.1506  1.0822  0.5702
 5926TIP3   OH239336   5.028   1.514   0.673  0.1773  0.2589  0.3930
 5926TIP3    H139337   5.007   1.451   0.604 -1.2191  0.4540  0.6154
 5926TIP3    H239338   5.027   1.599   0.629  0.9327  0.2341  0.3232
 5927TIP3   OH239339   2.057   0.460   8.298 -0.0019 -0.6687  0.1041
 5927TIP3    H139340   2.148   0.466   8.329 -0.3992 -1.4998  1.4828
 5927TIP3    H239341   2.064   0.472   8.203  1.2470  2.2113  0.4324
 5928TIP3   OH239342   6.620   5.298   1.337  0.1337 -0.3203 -0.0714
 5928TIP3    H139343   6.664   5.381   1.356 -2.4567  0.7643  1.7623
 5928TIP3    H239344   6.595   5.305   1.245 -0.8718  1.4170  0.2832
 5929TIP3   OH239345   1.707   5.338   7.817 -0.0354 -0.2289  0.0811
 5929TIP3    H139346   1.680   5.250   7.791  1.0495  0.1746 -2.6884
 5929TIP3    H239347   1.717   5.386   7.735  0.9382  2.0428  1.4243
 5930TIP3   OH239348   1.897   4.236   0.167 -0.8192  0.1640 -0.5000
 5930TIP3    H139349   1.977   4.187   0.146 -0.7650 -0.2160  0.4868
 5930TIP3    H239350   1.871   4.202   0.253 -0.8814  1.7492  0.1358
 5931TIP3   OH239351   1.911   5.139   0.636  0.8681  0.0012  0.3311
 5931TIP3    H139352   1.861   5.151   0.717  0.6007  0.3705  0.1162
 5931TIP3    H239353   2.000   5.167   0.658  0.9533 -0.5418  0.6830
 5932TIP3   OH239354   2.687   5.947   0.671 -0.2452  0.4596 -0.0447
 5932TIP3    H139355   2.730   5.921   0.753 -0.9667  0.2861  0.2899
 5932TIP3    H239356   2.663   6.039   0.686 -2.4085 -0.1896  0.8624
 5933TIP3   OH239357   1.049   1.741   8.150  0.1812  0.4524  0.4336
 5933TIP3    H139358   1.084   1.669   8.097 -1.6770 -0.8278  0.8675
 5933TIP3    H239359   0.978   1.702   8.201 -1.5200  2.7694  0.0157
 5934TIP3   OH239360   0.706   5.392   8.129 -0.4272 -0.0377  0.2819
 5934TIP3    H139361   0.642   5.413   8.197  0.9321  0.4362  1.4615
 5934TIP3    H239362   0.760   5.471   8.122 -1.9644  0.8772 -3.1132
 5935TIP3   OH239363   3.630   1.499   0.392  0.0420 -0.6360  0.1594
 5935TIP3    H139364   3.652   1.420   0.344 -1.0483 -0.9273  0.1018
 5935TIP3    H239365   3.567   1.544   0.336 -0.7018 -0.6272  0.9801
 5936TIP3   OH239366   2.002   0.154   2.207  0.0056 -0.2524 -0.2044
 5936TIP3    H139367   2.090   0.125   2.183 -0.1981 -0.7642 -0.3480
 5936TIP3    H239368   1.971   0.088   2.268 -0.1145  0.1651  0.1974
 5937TIP3   OH239369   4.909   3.582   0.259 -0.2540 -0.3369  0.2306
 5937TIP3    H139370   4.836   3.529   0.291 -1.5847  1.8254  0.9741
 5937TIP3    H239371   4.886   3.672   0.283  0.4266  1.0268 -3.5109
 5938TIP3   OH239372   3.050   5.990   2.588 -0.3770  0.2512  0.5169
 5938TIP3    H139373   2.972   6.046   2.592  1.0186  2.2917  1.3110
 5938TIP3    H239374   3.122   6.048   2.614  1.6905 -1.0542 -1.8108
 5939TIP3   OH239375   2.549   1.608   1.894 -0.5309 -0.2292  0.1132
 5939TIP3    H139376   2.462   1.636   1.868  0.1286  1.7430 -0.1858
 5939TIP3    H239377   2.586   1.567   1.816 -1.0030 -0.6459  0.1028
 5940TIP3   OH239378   3.565   1.452   0.651  0.0640 -0.1075  0.9187
 5940TIP3    H139379   3.609   1.489   0.575  0.9434  0.1032  1.5182
 5940TIP3    H239380   3.504   1.388   0.615  0.2532  0.2062  0.0246
 5941TIP3   OH239381   2.770   2.164   7.448 -0.0293 -0.3128  0.1130
 5941TIP3    H139382   2.794   2.219   7.374  1.3389 -0.9648  0.0366
 5941TIP3    H239383   2.740   2.082   7.409 -0.5342 -0.2049  0.2623
 5942TIP3   OH239384   1.252   4.306   6.649  0.5200  0.2689 -0.3637
 5942TIP3    H139385   1.320   4.269   6.593 -0.3068 -1.6286 -0.2050
 5942TIP3    H239386   1.203   4.366   6.593 -0.8316 -2.2200 -2.0254
 5943TIP3   OH239387   5.516   3.486   9.198  0.2182 -0.0210 -0.5132
 5943TIP3    H139388   5.483   3.413   9.251  2.7349 -0.1226  1.0938
 5943TIP3    H239389   5.493   3.463   9.108  0.0873 -2.3217  0.0408
 5944TIP3   OH239390   4.260   1.691   0.985  0.0470 -0.3944 -0.1028
 5944TIP3    H139391   4.320   1.734   0.924  1.1660 -0.3846  0.9660
 5944TIP3    H239392   4.311   1.680   1.065 -1.4752 -0.1694  0.9290
 5945TIP3   OH239393   3.308   2.986   0.439  0.6444 -0.1394  0.1489
 5945TIP3    H139394   3.244   2.959   0.373  1.5734 -0.6785 -0.5625
 5945TIP3    H239395   3.264   3.055   0.489  0.1114  0.7066 -1.4146
 5946TIP3   OH239396   5.071   0.433   0.070 -0.2655 -0.6052  0.3353
 5946TIP3    H139397   5.100   0.375   0.140  0.0517 -0.0139  0.6972
 5946TIP3    H239398   5.008   0.380   0.020  0.9884 -1.7133 -0.1364
 5947TIP3   OH239399   4.138   4.330   1.919 -0.4755  0.1102  0.3518
 5947TIP3    H139400   4.101   4.395   1.859 -0.2925  0.6397  0.8011
 5947TIP3    H239401   4.129   4.247   1.873 -2.2268  0.2104  0.4269
 5948TIP3   OH239402   5.122   5.469   0.111 -0.5957  0.4493  0.2163
 5948TIP3    H139403   5.205   5.454   0.156  0.6641  1.8376 -1.5099
 5948TIP3    H239404   5.079   5.383   0.111  1.0551 -0.4258  0.6813
 5949TIP3   OH239405   3.510   2.517   2.280 -0.4281 -0.1718  0.1419
 5949TIP3    H139406   3.581   2.454   2.268 -0.4892 -0.5771  1.7015
 5949TIP3    H239407   3.542   2.576   2.348 -0.3787  1.5058 -1.2839
 5950TIP3   OH239408   3.998   1.990   9.305  0.5280 -0.3095 -0.0244
 5950TIP3    H139409   3.985   1.914   9.249 -3.5365  0.0858  0.1064
 5950TIP3    H239410   4.022   1.953   9.390 -1.4508 -1.5330  0.0572
 5951TIP3   OH239411   1.986   3.163   0.294 -0.1876  0.1399 -0.1755
 5951TIP3    H139412   2.005   3.070   0.308  0.9532  0.6194  1.7725
 5951TIP3    H239413   1.950   3.167   0.205  0.8759 -1.9906 -0.7553
 5952TIP3   OH239414   5.555   2.389   8.793  0.2213  0.1901 -0.5308
 5952TIP3    H139415   5.502   2.339   8.856  0.2358  0.2260 -0.4904
 5952TIP3    H239416   5.644   2.387   8.829  0.2033  0.3297 -0.4773
 5953TIP3   OH239417   2.091   1.151   8.803  0.1954  0.4718 -0.4744
 5953TIP3    H139418   2.072   1.233   8.757 -0.9067  0.5745  0.1136
 5953TIP3    H239419   2.133   1.178   8.884  2.7339  0.2572 -1.6391
 5954TIP3   OH239420   0.393   3.819   7.359 -0.0911 -0.4576  0.2304
 5954TIP3    H139421   0.340   3.740   7.348 -0.8635  0.0822 -0.0370
 5954TIP3    H239422   0.381   3.867   7.277 -4.2132  2.6247  2.2472
 5955TIP3   OH239423   1.699   3.037   8.977  0.5262  0.2826  0.4589
 5955TIP3    H139424   1.721   2.946   8.956  0.6408  0.3432  0.3118
 5955TIP3    H239425   1.607   3.046   8.951  0.7438  0.4369 -0.2979
 5956TIP3   OH239426   4.308   0.782   1.562 -0.1236 -1.0489  0.0204
 5956TIP3    H139427   4.246   0.727   1.610  0.9388 -0.4477  2.2082
 5956TIP3    H239428   4.261   0.864   1.547 -0.0386 -0.7446  1.2991
 5957TIP3   OH239429   1.234   4.259   1.148  0.3810 -0.5266 -0.0171
 5957TIP3    H139430   1.250   4.352   1.169  0.4553 -0.9094  1.7724
 5957TIP3    H239431   1.259   4.212   1.228  1.0129 -2.1702 -1.1304
 5958TIP3   OH239432   5.489   6.442   1.384 -0.1497 -0.1499  0.0883
 5958TIP3    H139433   5.421   6.424   1.449  0.6768  1.3086  1.4249
 5958TIP3    H239434   5.472   6.380   1.313 -3.0062  0.3147  0.2602
 5959TIP3   OH239435   0.200   5.036   1.407  0.3225 -0.4388  0.1203
 5959TIP3    H139436   0.251   4.963   1.372  0.1577 -0.2655 -0.4982
 5959TIP3    H239437   0.174   5.086   1.329  0.9005  0.5783  0.5616
 5960TIP3   OH239438   2.943   0.728   7.609 -0.0546 -0.9262  0.2954
 5960TIP3    H139439   2.909   0.817   7.600 -0.7856 -1.2666 -0.3607
 5960TIP3    H239440   2.996   0.714   7.531 -1.0321 -1.5317 -0.2794
 5961TIP3   OH239441   6.361   1.636   7.550 -0.2934 -0.1539 -0.2510
 5961TIP3    H139442   6.339   1.567   7.612 -0.8832  0.2203 -0.0338
 5961TIP3    H239443   6.283   1.642   7.494  0.0808 -0.2239 -0.7835
 5962TIP3   OH239444   0.450   0.185   0.752 -0.0680  0.0178 -0.0369
 5962TIP3    H139445   0.529   0.189   0.697  0.1045 -1.4332  0.0657
 5962TIP3    H239446   0.418   0.275   0.754  1.7161  0.6842  0.1163
 5963TIP3   OH239447   4.641   6.295   7.520  0.3016 -0.2515 -0.3559
 5963TIP3    H139448   4.552   6.330   7.516  0.8498  1.1478 -1.2319
 5963TIP3    H239449   4.695   6.361   7.476  1.4724 -2.0355 -1.7838
 5964TIP3   OH239450   1.079   2.258   1.387  0.4075 -0.3003 -0.4296
 5964TIP3    H139451   1.106   2.174   1.423  1.9267  0.2234 -0.2702
 5964TIP3    H239452   1.111   2.257   1.296 -0.8113 -0.4489 -0.8684
 5965TIP3   OH239453   5.676   6.085   7.498  0.0725  0.4082 -0.1630
 5965TIP3    H139454   5.684   6.011   7.438  0.3984  0.1626  0.1750
 5965TIP3    H239455   5.594   6.070   7.545  1.7614 -1.7154  2.4680
 5966TIP3   OH239456   4.459   3.093   2.252  0.1418  0.1630  0.3328
 5966TIP3    H139457   4.439   3.165   2.311 -0.4146 -0.5174  0.9884
 5966TIP3    H239458   4.491   3.023   2.309  0.3314 -0.2367 -0.2504
 5967TIP3   OH239459   6.294   2.279   8.945  0.1914  0.1724 -0.8525
 5967TIP3    H139460   6.344   2.198   8.929  0.9560  0.7283 -1.3510
 5967TIP3    H239461   6.350   2.331   9.002 -0.7548 -0.0671  0.3443
 5968TIP3   OH239462   0.155   4.982   0.685 -0.0230 -0.2269  0.2782
 5968TIP3    H139463   0.066   4.997   0.653  0.4250  0.5490 -0.6775
 5968TIP3    H239464   0.145   4.964   0.778 -1.1080  0.7656  0.3741
 5969TIP3   OH239465   5.875   4.920   8.621  0.2698  0.1263  0.3301
 5969TIP3    H139466   5.910   4.851   8.565 -1.5981 -0.0285 -0.7404
 5969TIP3    H239467   5.842   4.873   8.698 -0.0434 -0.0554  0.0875
 5970TIP3   OH239468   4.556   5.492   7.934  0.0964  0.1602 -0.3347
 5970TIP3    H139469   4.586   5.470   8.023  0.5580  0.9778 -0.2807
 5970TIP3    H239470   4.567   5.411   7.885 -0.5419 -0.4194  0.4415
 5971TIP3   OH239471   0.251   3.975   8.369  0.1905 -0.3143  0.2002
 5971TIP3    H139472   0.199   3.918   8.312 -0.2130 -0.6132  0.8531
 5971TIP3    H239473   0.220   4.063   8.350  0.2085 -0.3926 -0.1960
 5972TIP3   OH239474   6.528   5.113   8.662  0.1000  0.7240 -0.0070
 5972TIP3    H139475   6.519   5.039   8.722  0.2881  0.4623 -0.2976
 5972TIP3    H239476   6.511   5.190   8.716 -2.0400  0.3763 -0.0880
 5973TIP3   OH239477   6.089   4.652   0.004 -0.1604 -0.4157  0.1571
 5973TIP3    H139478   6.002   4.688   0.018 -0.2144  0.0471 -1.1967
 5973TIP3    H239479   6.134   4.663   0.088 -0.2435  2.6371 -0.0808
 5974TIP3   OH239480   3.147   6.301   8.373 -0.3085 -0.2744 -0.4857
 5974TIP3    H139481   3.193   6.229   8.416  1.6034  0.9894 -0.3090
 5974TIP3    H239482   3.187   6.308   8.286 -0.8966  0.1878 -0.7348
 5975TIP3   OH239483   1.221   2.797   2.137  0.5052  0.4727 -0.1796
 5975TIP3    H139484   1.291   2.763   2.193 -0.4243 -0.1095  0.6674
 5975TIP3    H239485   1.145   2.741   2.156 -0.2221  1.1383 -1.0089
 5976TIP3   OH239486   2.971   3.739   1.942 -0.2614 -0.5879  0.1634
 5976TIP3    H139487   2.924   3.656   1.946  0.7031 -1.0976  2.3814
 5976TIP3    H239488   2.938   3.788   2.017 -0.4390  0.8682 -0.8204
 5977TIP3   OH239489   2.103   2.733   2.559 -0.3815 -0.0571  0.2381
 5977TIP3    H139490   2.141   2.820   2.569  0.6959 -0.2017 -2.0294
 5977TIP3    H239491   2.177   2.673   2.564 -1.1161 -0.8993  1.8123
 5978TIP3   OH239492   6.091   6.179   8.195  0.0159  0.2024 -0.1107
 5978TIP3    H139493   6.129   6.208   8.112  0.0294 -0.1380 -0.2262
 5978TIP3    H239494   6.166   6.152   8.248 -0.0689 -0.6242 -0.3992
 5979TIP3   OH239495   5.113   1.427   1.175  0.3568 -0.4631  0.3650
 5979TIP3    H139496   5.050   1.398   1.109  0.3235  0.0564  0.1606
 5979TIP3    H239497   5.172   1.485   1.126 -0.7429  1.3935  1.1617
 5980TIP3   OH239498   6.453   6.484   1.211 -0.1267 -0.2461 -0.5344
 5980TIP3    H139499   6.498   6.524   1.137  2.0587 -1.2282  0.1718
 5980TIP3    H239500   6.360   6.505   1.198  0.2339 -0.0787 -3.3078
 5981TIP3   OH239501   6.340   4.399   8.015  0.0741 -0.7791 -0.4418
 5981TIP3    H139502   6.423   4.409   7.968  0.0340  0.8261 -0.2527
 5981TIP3    H239503   6.295   4.327   7.971  1.5460 -1.6733 -0.5500
 5982TIP3   OH239504   0.700   5.639   1.079  0.7089 -0.0183 -0.4280
 5982TIP3    H139505   0.636   5.685   1.024 -0.2524  1.3975  1.7569
 5982TIP3    H239506   0.654   5.560   1.108 -0.5107  1.4287  1.8590
 5983TIP3   OH239507   1.759   0.859   2.564 -0.4915  0.4085  0.4020
 5983TIP3    H139508   1.760   0.934   2.624  0.2399 -0.0145  0.9258
 5983TIP3    H239509   1.755   0.782   2.621  1.7254 -0.0631  0.0104
 5984TIP3   OH239510   0.970   1.444   9.000 -0.0158  0.0525 -0.6225
 5984TIP3    H139511   0.989   1.353   9.022  1.5487  0.6730  0.8220
 5984TIP3    H239512   1.020   1.460   8.920  1.3916  0.1680  0.2351
 5985TIP3   OH239513   6.023   6.410   7.588  0.0779  0.2949 -0.6195
 5985TIP3    H139514   6.105   6.369   7.617 -0.9268 -1.3866 -0.0019
 5985TIP3    H239515   6.032   6.415   7.493  0.3580 -1.1451 -0.6908
 5986TIP3   OH239516   2.354   6.252   1.809  0.2224  0.1141  0.3441
 5986TIP3    H139517   2.357   6.210   1.895 -0.3868 -2.4077 -0.7589
 5986TIP3    H239518   2.446   6.266   1.786  0.4311 -0.1634  0.9807
 5987TIP3   OH239519   4.172   5.501   7.648  0.2192 -0.8708  0.0313
 5987TIP3    H139520   4.087   5.506   7.690 -0.1226 -0.4543 -0.6980
 5987TIP3    H239521   4.231   5.549   7.705 -0.2945 -0.0780 -0.0996
 5988TIP3   OH239522   1.890   5.642   7.981 -0.5387 -0.3363 -0.0131
 5988TIP3    H139523   1.849   5.717   8.024  0.9639 -1.1383  3.1703
 5988TIP3    H239524   1.981   5.667   7.968 -0.0079 -1.5099  1.1174
 5989TIP3   OH239525   1.796   0.828   2.914  0.6726 -0.3434  0.6039
 5989TIP3    H139526   1.783   0.754   2.854 -0.9614  0.7641 -0.4696
 5989TIP3    H239527   1.830   0.898   2.859 -2.7733  1.3656  0.3874
 5990TIP3   OH239528   1.343   2.028   0.806  0.0607 -0.2935  0.0087
 5990TIP3    H139529   1.378   1.947   0.842 -1.7704 -0.3660  1.7790
 5990TIP3    H239530   1.409   2.056   0.742 -0.0383 -4.0484 -1.9974
 5991TIP3   OH239531   6.219   1.963   7.413  0.7329  0.3550  0.0239
 5991TIP3    H139532   6.152   1.894   7.413  0.1424  0.8667  2.0522
 5991TIP3    H239533   6.283   1.935   7.348  0.0317 -1.6265  0.1418
 5992TIP3   OH239534   3.978   1.219   0.551  0.3714  0.2494  0.3652
 5992TIP3    H139535   3.956   1.312   0.548 -0.6833  0.0237  0.5687
 5992TIP3    H239536   4.001   1.202   0.642  0.3925  0.2731  0.3643
 5993TIP3   OH239537   3.734   1.414   8.911 -0.0837 -0.3367 -0.5510
 5993TIP3    H139538   3.748   1.324   8.940  1.7401  0.0727 -0.0236
 5993TIP3    H239539   3.762   1.468   8.985 -0.7738  0.6773 -1.0028
 5994TIP3   OH239540   4.429   4.370   1.332  0.0222 -0.6760  0.5302
 5994TIP3    H139541   4.512   4.395   1.373 -1.3323  0.9062  2.5164
 5994TIP3    H239542   4.374   4.448   1.340 -1.9088 -1.9157 -0.0684
 5995TIP3   OH239543   4.512   5.172   2.333  0.0651  0.0017 -0.0375
 5995TIP3    H139544   4.506   5.116   2.410 -3.7094  1.0183  0.6142
 5995TIP3    H239545   4.532   5.259   2.368  1.1073 -0.0438 -0.5116
 5996TIP3   OH239546   4.035   1.582   8.767 -0.2381 -0.0390  0.3467
 5996TIP3    H139547   4.006   1.491   8.758 -1.2708 -0.3441  4.6010
 5996TIP3    H239548   3.964   1.633   8.728 -1.9118 -1.0392  1.9294
 5997TIP3   OH239549   2.148   0.393   9.250  0.5304  0.3333  0.0446
 5997TIP3    H139550   2.073   0.335   9.234 -0.9167  1.9354  0.7559
 5997TIP3    H239551   2.187   0.359   9.331  1.1714 -1.0585 -0.8075
 5998TIP3   OH239552   6.507   3.529   8.155  0.1550  0.2470 -0.2349
 5998TIP3    H139553   6.533   3.457   8.097 -2.3127  0.4290 -1.6819
 5998TIP3    H239554   6.424   3.559   8.120 -2.1397 -0.3506  4.0417
 5999TIP3   OH239555   2.912   3.155   0.869 -0.2834 -0.0609 -0.4499
 5999TIP3    H139556   2.949   3.089   0.927 -0.1671  0.9395  0.6594
 5999TIP3    H239557   2.830   3.116   0.837  0.4111 -1.2355 -0.8387
 6000TIP3   OH239558   4.872   4.479   1.619 -0.1633 -0.1675  0.3077
 6000TIP3    H139559   4.861   4.386   1.600  2.9333 -0.3521 -1.3025
 6000TIP3    H239560   4.963   4.487   1.650 -0.3375  2.3084  0.4243
 6001TIP3   OH239561   4.740   1.988   8.921  0.5761  0.3426  0.1007
 6001TIP3    H139562   4.648   1.977   8.895 -0.2625  1.6037  2.2319
 6001TIP3    H239563   4.788   1.930   8.863 -1.3584  0.9173 -2.2740
 6002TIP3   OH239564   0.439   0.578   8.405 -0.3740 -0.0193 -0.2078
 6002TIP3    H139565   0.360   0.542   8.366  0.0752  0.7075 -1.8823
 6002TIP3    H239566   0.440   0.669   8.378  0.9969 -0.0037 -0.1716
 6003TIP3   OH239567   3.921   5.922   8.127  0.3651  0.0008  0.0404
 6003TIP3    H139568   3.903   5.840   8.173 -0.7669 -0.8865 -1.8552
 6003TIP3    H239569   3.993   5.901   8.068 -1.0209 -0.1981 -1.6748
 6004TIP3   OH239570   1.055   0.684   1.197 -1.1698 -0.3775  0.4281
 6004TIP3    H139571   1.003   0.756   1.231  0.9649  1.5091 -0.1004
 6004TIP3    H239572   1.131   0.679   1.256 -0.4165 -1.0104 -0.5586
 6005TIP3   OH239573   4.544   2.996   1.754  0.1517  0.6870  0.6426
 6005TIP3    H139574   4.449   2.986   1.762  0.3311 -1.5006  0.5313
 6005TIP3    H239575   4.570   3.039   1.835 -1.0098  2.1899  0.2689
 6006TIP3   OH239576   6.442   6.550   2.139 -0.4399 -0.0239  0.7244
 6006TIP3    H139577   6.396   6.613   2.195 -0.2452  0.5515  0.2403
 6006TIP3    H239578   6.527   6.590   2.122 -1.0452  0.5224 -1.2234
 6007TIP3   OH239579   2.004   1.772   0.164 -0.3031 -0.2693  0.0982
 6007TIP3    H139580   1.954   1.694   0.141  0.1292  0.1654 -2.5999
 6007TIP3    H239581   2.073   1.778   0.098 -0.0645  2.1576  0.4645
 6008TIP3   OH239582   5.846   2.551   0.615 -0.5146 -0.3191  0.1057
 6008TIP3    H139583   5.782   2.480   0.622  0.0398 -0.9156 -0.7370
 6008TIP3    H239584   5.829   2.590   0.528 -0.7734  0.5552  0.5306
 6009TIP3   OH239585   1.891   3.775   0.825  0.1248  0.3963  0.0750
 6009TIP3    H139586   1.969   3.757   0.773 -0.6741 -1.8465 -0.4455
 6009TIP3    H239587   1.906   3.731   0.908 -0.7015 -0.3394 -0.1517
 6010TIP3   OH239588   5.455   2.949   9.215  0.4937  0.1397  0.2614
 6010TIP3    H139589   5.416   2.872   9.173  0.9868  0.5898 -1.0895
 6010TIP3    H239590   5.479   2.919   9.303  1.1403 -1.4028 -0.4005
 6011TIP3   OH239591   5.462   1.499   1.555 -0.2558 -0.0399 -0.1151
 6011TIP3    H139592   5.539   1.531   1.507  0.6807  0.2401  1.4912
 6011TIP3    H239593   5.397   1.569   1.546 -0.2326 -0.1440 -1.2321
 6012TIP3   OH239594   4.464   6.376   0.196  0.3359 -0.3480 -0.1979
 6012TIP3    H139595   4.541   6.430   0.178 -0.2826  1.1734  1.3810
 6012TIP3    H239596   4.490   6.320   0.268 -0.0282  0.1883  0.3566
 6013TIP3   OH239597   5.476   3.262   8.292 -0.2715 -0.6631  0.4561
 6013TIP3    H139598   5.522   3.346   8.300 -1.3364 -0.0014 -0.0118
 6013TIP3    H239599   5.542   3.196   8.313  0.1548  0.3498  2.6767
 6014TIP3   OH239600   0.196   5.379   1.774 -0.0987 -0.4341  0.4817
 6014TIP3    H139601   0.245   5.298   1.783  0.9960 -0.3258 -2.9955
 6014TIP3    H239602   0.234   5.421   1.697 -3.0578  1.6206 -0.0145
 6015TIP3   OH239603   1.904   4.939   1.889 -0.0163 -0.0467  0.0242
 6015TIP3    H139604   1.913   4.951   1.984  2.2313  1.3621 -0.2843
 6015TIP3    H239605   1.913   5.028   1.853  0.3362 -0.6908 -1.5633
 6016TIP3   OH239606   4.054   4.030   7.694 -0.8179  0.9586 -0.1592
 6016TIP3    H139607   4.136   4.073   7.719 -0.0228  0.5907 -1.9900
 6016TIP3    H239608   3.997   4.043   7.770  0.6196  2.0016  0.8133
 6017TIP3   OH239609   5.330   2.078   8.718 -0.1056  0.1175 -0.1234
 6017TIP3    H139610   5.394   2.108   8.653  0.5978 -0.5664  0.2354
 6017TIP3    H239611   5.327   1.983   8.706  1.1667 -0.2192  1.8181
 6018TIP3   OH239612   1.997   0.516   0.961 -0.1853  0.2688  0.3339
 6018TIP3    H139613   1.904   0.538   0.967 -0.9619 -1.5885 -2.7398
 6018TIP3    H239614   2.020   0.533   0.870  1.7368 -1.8070  0.3557
 6019TIP3   OH239615   0.899   0.129   7.692 -0.3145  0.1409  0.3388
 6019TIP3    H139616   0.811   0.093   7.704  0.2773 -1.9348 -1.0161
 6019TIP3    H239617   0.899   0.164   7.603  0.5824 -1.0941 -0.1735
 6020TIP3   OH239618   1.301   3.285   8.623  0.3268 -0.2590  0.1418
 6020TIP3    H139619   1.237   3.278   8.694  0.8061  0.5639  0.6707
 6020TIP3    H239620   1.256   3.336   8.555  0.7927  1.3017  0.9748
 6021TIP3   OH239621   3.128   2.409   1.840 -0.2344 -0.1400 -0.4876
 6021TIP3    H139622   3.093   2.481   1.788 -1.6756  0.8301  1.6822
 6021TIP3    H239623   3.205   2.446   1.884 -1.1579  0.2160  0.8717
 6022TIP3   OH239624   2.418   2.303   7.884 -0.2401  0.6209  0.4549
 6022TIP3    H139625   2.364   2.250   7.826 -0.9918  2.2547 -0.4095
 6022TIP3    H239626   2.356   2.352   7.938  0.4383  0.2810  1.5824
 6023TIP3   OH239627   4.835   3.631   0.852 -0.2187  0.7641 -0.4003
 6023TIP3    H139628   4.893   3.566   0.812  0.8751  0.3355  1.7376
 6023TIP3    H239629   4.796   3.586   0.927 -0.5724  2.1266  0.2722
 6024TIP3   OH239630   6.482   3.071   1.533 -0.0322 -0.1220 -0.3867
 6024TIP3    H139631   6.401   3.096   1.577 -0.1120 -2.0373  0.6401
 6024TIP3    H239632   6.484   3.127   1.455 -1.3612  1.2960  0.5274
 6025TIP3   OH239633   3.564   4.593   0.737 -0.0753  0.3506  0.3154
 6025TIP3    H139634   3.470   4.591   0.755  0.1642 -2.0667  1.7279
 6025TIP3    H239635   3.598   4.663   0.792 -0.9531  0.7990  0.2985
 6026TIP3   OH239636   2.123   3.765   6.762 -0.3312 -0.4154  0.0472
 6026TIP3    H139637   2.045   3.717   6.790  0.4537 -0.1601  3.0314
 6026TIP3    H239638   2.196   3.720   6.806  1.1905 -0.3525 -2.2615
 6027TIP3   OH239639   2.796   6.500   8.852 -0.1592 -0.0377 -0.2567
 6027TIP3    H139640   2.784   6.407   8.869 -1.9559  0.2180  0.0408
 6027TIP3    H239641   2.774   6.543   8.935  1.0589  0.6553 -0.2592
 6028TIP3   OH239642   1.653   2.848   7.775 -0.0179  0.2285 -0.6264
 6028TIP3    H139643   1.746   2.829   7.788  0.7024  0.6112 -4.1953
 6028TIP3    H239644   1.645   2.941   7.792  0.0030  0.0326  0.5663
 6029TIP3   OH239645   2.744   1.411   1.259  0.0360 -0.4805 -0.6066
 6029TIP3    H139646   2.685   1.338   1.277 -2.8219  1.8389  0.2050
 6029TIP3    H239647   2.794   1.423   1.340 -0.1789 -0.9302 -0.4049
 6030TIP3   OH239648   3.257   1.414   8.295 -0.4349  0.3958 -0.5849
 6030TIP3    H139649   3.242   1.438   8.387  0.0782 -0.6739 -0.2141
 6030TIP3    H239650   3.267   1.319   8.296 -1.4495  0.2429 -1.9047
 6031TIP3   OH239651   4.119   2.933   8.721 -0.4158  0.1696  0.3578
 6031TIP3    H139652   4.135   2.848   8.763  3.8400  0.7038  0.2950
 6031TIP3    H239653   4.149   2.921   8.631  0.6524  1.7880  0.4622
 6032TIP3   OH239654   5.416   2.845   0.288 -0.2202 -0.2501  0.0177
 6032TIP3    H139655   5.412   2.940   0.302 -0.6552 -0.0012 -1.5031
 6032TIP3    H239656   5.493   2.833   0.232 -1.4654 -0.4736 -1.7220
 6033TIP3   OH239657   5.883   3.900   0.787 -0.4511  0.0235  0.3143
 6033TIP3    H139658   5.867   3.863   0.873  0.6095 -0.5038  0.2969
 6033TIP3    H239659   5.805   3.876   0.736 -0.0464 -1.7597  0.4577
 6034TIP3   OH239660   2.504   0.429   0.364 -0.3357 -0.2607 -0.1030
 6034TIP3    H139661   2.586   0.409   0.319  1.4183 -0.9629  3.0802
 6034TIP3    H239662   2.530   0.452   0.453 -3.4729  1.9038  0.4252
 6035TIP3   OH239663   4.303   6.439   1.242 -0.0043 -0.6249  0.1524
 6035TIP3    H139664   4.243   6.364   1.239  0.8963 -1.3684  0.3423
 6035TIP3    H239665   4.328   6.453   1.151 -1.4870  0.5513 -0.1066
 6036TIP3   OH239666   5.164   4.873   8.350 -0.0631  0.0933 -0.0717
 6036TIP3    H139667   5.141   4.835   8.435  1.2145  0.3177  0.3897
 6036TIP3    H239668   5.222   4.810   8.310  0.7906  0.8049  0.0124
 6037TIP3   OH239669   1.875   5.784   2.163  0.0359  0.0391  0.0814
 6037TIP3    H139670   1.864   5.721   2.092 -0.2358  0.7994 -0.5598
 6037TIP3    H239671   1.939   5.743   2.222 -1.8197 -1.8775  0.8856
 6038TIP3   OH239672   0.061   5.163   9.003  0.2584  1.3443  0.4051
 6038TIP3    H139673  -0.010   5.126   9.056  1.7390 -1.7697  0.4567
 6038TIP3    H239674   0.136   5.106   9.021  1.7018  2.0943 -2.6152
 6039TIP3   OH239675   3.303   5.325   2.197 -0.2649  0.3784  0.4210
 6039TIP3    H139676   3.273   5.326   2.288 -0.7034  2.3491  0.3040
 6039TIP3    H239677   3.392   5.290   2.201 -0.2624  0.4931  1.6217
 6040TIP3   OH239678   5.150   1.422   8.790  0.1660  0.1387  0.3592
 6040TIP3    H139679   5.209   1.401   8.862  1.6379  0.4903 -0.7045
 6040TIP3    H239680   5.083   1.354   8.793  1.8770 -1.6204  0.2212
 6041TIP3   OH239681   2.934   4.856   8.103 -0.2041 -0.4911  0.3851
 6041TIP3    H139682   3.009   4.834   8.049 -1.4731 -0.7016 -1.3881
 6041TIP3    H239683   2.923   4.780   8.161  0.6788 -0.6572  0.3377
 6042TIP3   OH239684   4.151   5.435   0.171  0.3927  0.0197  0.5945
 6042TIP3    H139685   4.091   5.475   0.108 -0.3757 -0.5422  0.9593
 6042TIP3    H239686   4.180   5.354   0.130  2.5926  1.2775 -0.5010
 6043TIP3   OH239687   6.312   5.335   7.445 -0.2402  0.5343 -0.3363
 6043TIP3    H139688   6.335   5.409   7.389  1.9623  0.2452  0.0704
 6043TIP3    H239689   6.286   5.266   7.383 -0.4467  1.0552 -0.8361
 6044TIP3   OH239690   3.132   4.803   7.937  0.1532 -0.4229 -0.2039
 6044TIP3    H139691   3.213   4.841   7.904  0.3081 -0.6624 -0.0986
 6044TIP3    H239692   3.095   4.756   7.861 -0.3011  0.3642 -0.4799
 6045TIP3   OH239693   2.229   2.288   1.667 -0.4250 -0.5822 -0.2146
 6045TIP3    H139694   2.250   2.310   1.576  0.2556  0.0470  0.0879
 6045TIP3    H239695   2.309   2.247   1.701 -0.3163  0.1351  0.4027
 6046TIP3   OH239696   5.865   3.506   8.448 -0.1404  0.2341  0.0129
 6046TIP3    H139697   5.947   3.501   8.399  0.6706  2.1516  1.0768
 6046TIP3    H239698   5.862   3.596   8.481 -3.0804  0.4789 -0.6625
 6047TIP3   OH239699   4.327   5.233   0.041  0.0115  1.0074 -0.1587
 6047TIP3    H139700   4.416   5.241   0.007  0.2402  0.0619  0.1621
 6047TIP3    H239701   4.334   5.168   0.111 -0.9397  0.8781 -0.1598
 6048TIP3   OH239702   3.828   6.015   1.886 -0.3252  0.5958 -0.2136
 6048TIP3    H139703   3.758   6.078   1.872 -1.6904 -1.0403 -1.3273
 6048TIP3    H239704   3.818   5.952   1.813  1.3045 -0.5702  0.4975
 6049TIP3   OH239705   4.751   1.228   2.060  0.1921 -0.1449  0.0502
 6049TIP3    H139706   4.781   1.210   1.971 -0.9287 -1.4040 -0.1084
 6049TIP3    H239707   4.804   1.171   2.116  1.2394  1.0027  0.2746
 6050TIP3   OH239708   6.301   2.119   0.490  0.3719 -0.9900  0.3649
 6050TIP3    H139709   6.324   2.098   0.581 -0.2880 -0.8236  0.5745
 6050TIP3    H239710   6.361   2.189   0.466 -0.2052 -0.2393  1.0619
 6051TIP3   OH239711   2.090   5.177   0.896 -0.4605  0.4184  0.6952
 6051TIP3    H139712   2.071   5.260   0.939 -1.3401  0.5753  0.0319
 6051TIP3    H239713   2.065   5.110   0.959 -1.6200  0.6484  0.4957
 6052TIP3   OH239714   0.765   2.162   7.977  0.4259 -0.0625 -0.1438
 6052TIP3    H139715   0.729   2.174   8.065 -0.6566  1.6645 -0.7731
 6052TIP3    H239716   0.840   2.104   7.990 -0.5966 -1.0927  1.6941
 6053TIP3   OH239717   4.271   3.323   0.293  0.5350  0.4866 -0.1041
 6053TIP3    H139718   4.243   3.375   0.218 -1.2821  0.3708  0.4356
 6053TIP3    H239719   4.290   3.388   0.361 -0.5732  0.5033  0.2000
 6054TIP3   OH239720   1.540   1.403   0.443 -0.0853  0.0475  0.3807
 6054TIP3    H139721   1.491   1.482   0.463 -0.0523  0.4751 -1.0965
 6054TIP3    H239722   1.476   1.342   0.408 -0.2160 -0.8326  2.0285
 6055TIP3   OH239723   5.752   4.378   8.275 -0.4714 -0.0750 -0.6901
 6055TIP3    H139724   5.831   4.432   8.281 -0.1746 -0.4054 -1.5036
 6055TIP3    H239725   5.713   4.404   8.192 -1.7660  0.8123  0.1619
 6056TIP3   OH239726   2.862   1.807   9.253 -0.1415 -0.1698  0.7746
 6056TIP3    H139727   2.773   1.842   9.249 -0.6580 -1.5042 -0.7797
 6056TIP3    H239728   2.858   1.736   9.317  0.3217  0.9901  2.1445
 6057TIP3   OH239729   1.166   3.090   8.987  0.2425 -0.2941  0.3573
 6057TIP3    H139730   1.082   3.084   9.031 -1.2966  2.6871 -1.8711
 6057TIP3    H239731   1.145   3.085   8.893  2.6512 -0.2644 -0.2540
 6058TIP3   OH239732   6.220   0.495   0.422 -1.1589 -0.2315 -0.0083
 6058TIP3    H139733   6.262   0.417   0.386  0.1810  0.3468  0.2395
 6058TIP3    H239734   6.133   0.496   0.382 -0.3900 -0.6274 -1.7964
 6059TIP3   OH239735   0.769   3.497   7.453 -0.0337  0.5015  0.1854
 6059TIP3    H139736   0.768   3.459   7.365 -1.3436  0.0186  0.3869
 6059TIP3    H239737   0.692   3.554   7.455 -0.1778  0.2816  1.1051
 6060TIP3   OH239738   5.265   6.397   8.557 -0.0509  0.2993  0.3092
 6060TIP3    H139739   5.237   6.385   8.466 -0.4318  0.9885  0.3293
 6060TIP3    H239740   5.343   6.452   8.550 -0.5276  0.9938  0.4457
 6061TIP3   OH239741   5.100   2.892   0.748 -0.3767  0.4722  0.0050
 6061TIP3    H139742   5.090   2.955   0.676 -0.2747 -0.0650 -0.4905
 6061TIP3    H239743   5.045   2.926   0.818  1.0786  2.0907  0.4210
 6062TIP3   OH239744   4.067   0.789   8.486  0.5989  0.5306 -0.0319
 6062TIP3    H139745   3.977   0.820   8.493  0.7515  1.2049 -0.8984
 6062TIP3    H239746   4.064   0.720   8.420  0.9287  1.4881 -1.0763
 6063TIP3   OH239747   0.799   6.401   2.395  0.5144  0.1395 -0.2075
 6063TIP3    H139748   0.739   6.427   2.325  2.5404  1.3817 -1.6073
 6063TIP3    H239749   0.812   6.307   2.382 -0.9789 -0.1227  0.0412
 6064TIP3   OH239750   4.884   0.150   0.712 -0.1813  0.1508 -0.1758
 6064TIP3    H139751   4.877   0.079   0.776  1.9541 -0.1509 -0.2139
 6064TIP3    H239752   4.818   0.213   0.741  0.2762 -0.2537  1.9890
 6065TIP3   OH239753   2.400   5.917   8.322 -0.2496  0.1641 -0.5304
 6065TIP3    H139754   2.431   5.978   8.388 -1.1357  0.8564 -0.7280
 6065TIP3    H239755   2.337   5.862   8.367 -0.5338  0.3548 -0.6902
 6066TIP3   OH239756   2.330   3.083   8.375 -0.1282 -0.1024 -0.5161
 6066TIP3    H139757   2.362   3.027   8.304  1.1676 -0.3092  0.1877
 6066TIP3    H239758   2.350   3.172   8.346  0.5026 -0.1928 -0.3926
 6067TIP3   OH239759   0.600   3.287   0.107  0.2283 -0.1251  0.2083
 6067TIP3    H139760   0.635   3.373   0.129 -1.9600  0.4433  1.8293
 6067TIP3    H239761   0.509   3.290   0.138 -0.3545 -2.5047 -1.0587
 6068TIP3   OH239762   5.020   1.523   9.107 -0.3139  0.1207  0.1660
 6068TIP3    H139763   5.104   1.569   9.100  0.7758 -1.7715  0.2972
 6068TIP3    H239764   4.957   1.582   9.064  0.6726  2.4402  1.6704
 6069TIP3   OH239765   2.733   2.237   1.525 -0.2096 -0.6788  0.3658
 6069TIP3    H139766   2.661   2.236   1.463  0.1836 -1.4074 -0.0940
 6069TIP3    H239767   2.756   2.330   1.533  1.0062 -0.6902 -2.1091
 6070TIP3   OH239768   4.391   2.420   2.312  0.0086  0.7927  0.2384
 6070TIP3    H139769   4.354   2.376   2.236  0.7874  1.0613 -0.3119
 6070TIP3    H239770   4.347   2.380   2.387  0.0846 -0.3219 -0.2877
 6071TIP3   OH239771   3.978   5.767   7.811 -0.0454 -0.0094 -0.6215
 6071TIP3    H139772   3.913   5.758   7.881  1.5329  1.7926  1.1812
 6071TIP3    H239773   3.956   5.696   7.750 -2.6759 -0.4759  0.6857
 6072TIP3   OH239774   4.384   5.343   8.222  0.2516 -0.0845 -0.0850
 6072TIP3    H139775   4.344   5.425   8.249 -2.1956 -1.2133 -0.0689
 6072TIP3    H239776   4.361   5.335   8.129  0.9424 -0.5241 -0.2274
 6073TIP3   OH239777   3.068   4.105   2.663  0.1464  0.5527  0.2971
 6073TIP3    H139778   3.136   4.039   2.647  0.3815  0.6995  0.6767
 6073TIP3    H239779   2.986   4.061   2.642  0.3010  0.1322  0.5603
 6074TIP3   OH239780   0.479   5.426   7.889  0.7670 -0.2290  0.2261
 6074TIP3    H139781   0.489   5.502   7.947  2.1061 -0.4130  0.2777
 6074TIP3    H239782   0.388   5.400   7.899  0.4235  1.0512  0.6093
 6075TIP3   OH239783   6.351   2.562   7.506 -0.3424  0.4247 -0.1363
 6075TIP3    H139784   6.338   2.474   7.541  1.9341 -0.0469 -0.3041
 6075TIP3    H239785   6.263   2.598   7.497 -1.3498 -1.8823 -0.2044
 6076TIP3   OH239786   3.994   5.478   9.110  0.9346  0.4359  0.0501
 6076TIP3    H139787   4.018   5.523   9.029  1.6544 -0.8547 -0.4713
 6076TIP3    H239788   3.966   5.549   9.169 -0.3243  1.3434 -1.5392
 6077TIP3   OH239789   5.796   0.963   0.101  0.0677 -1.1080 -0.3918
 6077TIP3    H139790   5.726   0.899   0.089 -0.2364 -0.6126 -1.3998
 6077TIP3    H239791   5.847   0.959   0.020  0.9046 -1.0997  0.1268
 6078TIP3   OH239792   0.268   1.294   1.038  0.2129  0.0118 -0.2014
 6078TIP3    H139793   0.343   1.306   1.095  0.2124  1.6993 -0.5214
 6078TIP3    H239794   0.286   1.348   0.961 -1.7378  1.2470  0.1362
 6079TIP3   OH239795   3.958   4.598   7.542  0.2965 -0.0804  0.2125
 6079TIP3    H139796   3.943   4.507   7.567  3.6216 -1.1188 -1.0037
 6079TIP3    H239797   3.909   4.609   7.460  0.4829 -1.0444 -0.0353
 6080TIP3   OH239798   3.018   5.082   7.331 -0.4108  0.0005 -0.4305
 6080TIP3    H139799   2.997   5.097   7.239 -0.7833  2.3924 -0.0290
 6080TIP3    H239800   2.962   5.008   7.357 -2.0521  0.7742 -1.5602
 6081TIP3   OH239801   2.926   0.016   0.258 -0.0348 -0.6279  0.0761
 6081TIP3    H139802   2.831   0.026   0.255 -0.1674 -1.2771  1.5574
 6081TIP3    H239803   2.959   0.096   0.217 -1.1989  1.3774  2.7499
 6082TIP3   OH239804   3.314   6.195   7.719 -0.1045 -0.1258 -0.2353
 6082TIP3    H139805   3.285   6.115   7.674 -1.8323 -0.5361  1.4478
 6082TIP3    H239806   3.348   6.164   7.803  1.3389  0.7692 -0.4503
 6083TIP3   OH239807   4.356   6.424   2.351 -0.0960  0.2149  0.5745
 6083TIP3    H139808   4.408   6.345   2.336 -1.5221 -0.4563 -1.1222
 6083TIP3    H239809   4.388   6.486   2.285  0.2103  0.6769  1.1420
 6084TIP3   OH239810   1.785   3.167   1.995 -0.3908 -0.4739  0.7748
 6084TIP3    H139811   1.755   3.217   1.919  1.4169 -0.4897 -0.0179
 6084TIP3    H239812   1.717   3.179   2.060 -2.1592 -0.6892 -0.9237
 6085TIP3   OH239813   4.118   3.098   0.309 -0.1500 -0.0174 -0.2687
 6085TIP3    H139814   4.103   3.133   0.221  0.6808  2.0957  0.3643
 6085TIP3    H239815   4.181   3.159   0.349  2.0417 -2.7298  0.7017
 6086TIP3   OH239816   4.982   4.615   0.777 -0.3147 -0.4797 -0.1291
 6086TIP3    H139817   4.976   4.650   0.689 -0.3286  1.8557  0.7221
 6086TIP3    H239818   5.073   4.631   0.803 -0.3776 -0.9133  0.3883
 6087TIP3   OH239819   4.406   3.340   7.118  0.5296 -0.4240 -0.5393
 6087TIP3    H139820   4.321   3.366   7.082  0.2735 -0.0721  0.2859
 6087TIP3    H239821   4.468   3.353   7.047  0.2778  1.6472 -0.4197
 6088TIP3   OH239822   1.765   2.384   1.945  0.5299  0.1332 -0.1825
 6088TIP3    H139823   1.789   2.345   1.861 -0.6432 -1.7249  0.2786
 6088TIP3    H239824   1.813   2.333   2.010 -1.4887 -1.0359  0.4800
 6089TIP3   OH239825   3.729   4.097   8.213 -0.1334 -0.6970 -0.4082
 6089TIP3    H139826   3.756   4.172   8.161  1.0750 -0.1409  0.9560
 6089TIP3    H239827   3.668   4.133   8.278  1.6843 -0.5146  1.2949
 6090TIP3   OH239828   4.333   3.203   1.206  0.0734  0.3501 -0.1538
 6090TIP3    H139829   4.414   3.169   1.243  1.0018  0.4456 -1.9443
 6090TIP3    H239830   4.292   3.128   1.163  0.1175  0.6441 -0.7305
 6091TIP3   OH239831   1.578   2.722   0.670  0.0774  0.4203  0.2369
 6091TIP3    H139832   1.543   2.810   0.661  3.0946  1.6925 -0.1918
 6091TIP3    H239833   1.534   2.672   0.601 -1.2809  1.6888  0.1281
 6092TIP3   OH239834   5.186   6.223   0.625  0.1968 -0.4434 -0.1496
 6092TIP3    H139835   5.247   6.256   0.559 -0.5203 -0.0379 -0.6307
 6092TIP3    H239836   5.108   6.197   0.575 -0.7592  0.8301  0.6094
 6093TIP3   OH239837   0.767   1.547   0.750  0.8911 -0.0179  0.3966
 6093TIP3    H139838   0.806   1.475   0.700  2.4361  0.9916  0.0820
 6093TIP3    H239839   0.676   1.520   0.763  1.2199 -1.6651 -0.3732
 6094TIP3   OH239840   1.161   0.377   0.098 -0.3892  0.7477 -0.1995
 6094TIP3    H139841   1.142   0.470   0.088 -2.6130  0.3448 -0.2604
 6094TIP3    H239842   1.215   0.372   0.177 -2.2596  1.9192  1.2392
 6095TIP3   OH239843   5.801   2.028   8.629 -0.2915  0.6820 -0.3237
 6095TIP3    H139844   5.765   2.100   8.578 -3.1327 -1.4743 -1.6988
 6095TIP3    H239845   5.788   1.951   8.574  1.9251 -1.0432  1.3508
 6096TIP3   OH239846   1.435   2.085   8.418  0.4870 -0.2693 -0.2686
 6096TIP3    H139847   1.405   2.008   8.369 -0.8924  0.2241 -0.2455
 6096TIP3    H239848   1.448   2.053   8.507 -0.0700 -0.4827 -0.2593
 6097TIP3   OH239849   3.349   0.309   8.585 -0.4536  0.1157  0.2926
 6097TIP3    H139850   3.433   0.321   8.629 -0.6786  1.2836  0.4300
 6097TIP3    H239851   3.341   0.214   8.575  1.1231  0.0034 -0.2055
 6098TIP3   OH239852   5.785   0.128   1.557  0.1407  0.7805  0.0918
 6098TIP3    H139853   5.836   0.049   1.575 -0.5444  0.5001  0.8526
 6098TIP3    H239854   5.750   0.154   1.642 -3.2793 -0.6265 -0.7053
 6099TIP3   OH239855   2.171   2.580   7.656 -0.7661  0.2504  0.3525
 6099TIP3    H139856   2.188   2.645   7.588  0.0081  0.0142  0.3153
 6099TIP3    H239857   2.169   2.630   7.738  1.6821  0.1071  0.5537
 6100TIP3   OH239858   5.248   6.117   7.512  0.0251 -0.2213 -0.1909
 6100TIP3    H139859   5.296   6.078   7.440  0.8170 -0.6779  0.5602
 6100TIP3    H239860   5.190   6.181   7.471 -0.2200 -1.1407 -1.2998
 6101TIP3   OH239861   0.188   1.403   8.779  0.2936  0.0042 -0.4840
 6101TIP3    H139862   0.105   1.415   8.733  0.5952  1.9750 -0.6233
 6101TIP3    H239863   0.164   1.399   8.871 -0.0424 -0.6357 -0.5930
 6102TIP3   OH239864   6.316   2.594   0.398  0.3810  0.1402 -0.0192
 6102TIP3    H139865   6.267   2.514   0.385  0.4393  0.3304 -1.6621
 6102TIP3    H239866   6.255   2.654   0.440 -0.8377  0.3567 -1.9700
 6103TIP3   OH239867   6.401   1.228   8.565 -0.0250  0.3280  0.4849
 6103TIP3    H139868   6.421   1.255   8.475 -2.9821  0.9852 -0.0755
 6103TIP3    H239869   6.337   1.157   8.555  1.5284 -1.4176  2.1064
 6104TIP3   OH239870   6.117   1.608   1.338  0.0834  0.2704  0.3378
 6104TIP3    H139871   6.161   1.550   1.400 -3.1120 -0.4508  2.1934
 6104TIP3    H239872   6.033   1.565   1.321 -0.0163  1.4880 -2.9887
 6105TIP3   OH239873   4.375   3.745   7.748 -1.2922  0.0894 -0.0471
 6105TIP3    H139874   4.446   3.808   7.739 -0.7427 -0.5213 -0.0645
 6105TIP3    H239875   4.394   3.677   7.683 -0.9807 -0.9243  1.0547
 6106TIP3   OH239876   4.804   1.723   0.975 -0.5095  0.0266  0.2996
 6106TIP3    H139877   4.864   1.771   1.033 -1.5803  1.9761 -0.1254
 6106TIP3    H239878   4.721   1.770   0.981 -1.6152 -1.7718 -0.2174
 6107TIP3   OH239879   5.141   1.741   8.757  0.6185 -0.3215  0.0423
 6107TIP3    H139880   5.105   1.652   8.755  2.0955 -0.9920  1.2872
 6107TIP3    H239881   5.231   1.729   8.787  1.3090  1.4690 -1.1986
 6108TIP3   OH239882   4.226   3.643   7.347 -0.4754 -0.7113 -0.5491
 6108TIP3    H139883   4.152   3.699   7.324 -0.8679 -1.5762 -1.4577
 6108TIP3    H239884   4.200   3.556   7.316 -0.0016 -1.4667  1.0801
 6109TIP3   OH239885   0.679   4.442   9.142  0.2733  0.0179  0.3476
 6109TIP3    H139886   0.700   4.352   9.118  0.8482  0.0433  0.7393
 6109TIP3    H239887   0.754   4.471   9.195 -0.5495  0.2596  1.4086
 6110TIP3   OH239888   1.581   3.607   0.351 -0.1905 -0.1889  0.1427
 6110TIP3    H139889   1.527   3.532   0.377 -0.0095 -0.5368 -0.4563
 6110TIP3    H239890   1.519   3.678   0.335 -0.4820 -0.5965 -0.5791
 6111TIP3   OH239891   5.830   5.867   7.180  0.1680  0.2543  0.2420
 6111TIP3    H139892   5.902   5.815   7.215  1.2230  0.2001 -1.8201
 6111TIP3    H239893   5.830   5.846   7.086 -2.3962  0.4476  0.1455
 6112TIP3   OH239894   5.864   1.876   8.161 -0.1712 -0.1077 -0.3826
 6112TIP3    H139895   5.849   1.964   8.197  0.2072 -1.1088  2.5245
 6112TIP3    H239896   5.955   1.876   8.133  0.8022 -0.3799  2.5005
 6113TIP3   OH239897   6.512   4.628   7.565  0.3087 -0.1093 -0.1088
 6113TIP3    H139898   6.453   4.587   7.502  0.0870 -1.8452  1.1295
 6113TIP3    H239899   6.475   4.605   7.651  1.8838  0.1398  0.6750
 6114TIP3   OH239900   5.455   1.893   0.628  0.3502 -0.2575  0.3070
 6114TIP3    H139901   5.443   1.876   0.722 -0.6836 -0.9348  0.0682
 6114TIP3    H239902   5.458   1.807   0.588 -1.8759 -0.0047 -0.5652
 6115TIP3   OH239903   0.546   5.076   9.167 -0.1380 -0.4480  0.5371
 6115TIP3    H139904   0.516   5.083   9.077 -0.7571 -2.3027  0.5546
 6115TIP3    H239905   0.640   5.088   9.163 -0.2185 -0.0557 -0.2778
 6116TIP3   OH239906   0.745   4.415   8.686 -0.2454 -0.3617  0.2517
 6116TIP3    H139907   0.650   4.422   8.676 -0.1740 -0.5267 -0.6313
 6116TIP3    H239908   0.770   4.494   8.733 -0.6609  0.3461 -0.6929
 6117TIP3   OH239909   0.962   3.422   8.874 -0.1362  0.0660 -0.4975
 6117TIP3    H139910   1.043   3.421   8.925 -0.1125 -0.0321 -0.5361
 6117TIP3    H239911   0.930   3.512   8.882 -0.6288 -0.1868  0.4607
 6118TIP3   OH239912   1.738   4.747   0.823 -0.4600 -0.4733 -0.1902
 6118TIP3    H139913   1.745   4.652   0.836 -0.5944 -0.5183 -0.4431
 6118TIP3    H239914   1.657   4.771   0.868 -0.9115 -0.6265 -0.9028
 6119TIP3   OH239915   4.773   5.559   7.706  0.7721 -0.2072  0.2558
 6119TIP3    H139916   4.800   5.585   7.793  1.4213  0.5291 -0.1531
 6119TIP3    H239917   4.677   5.568   7.706  0.8185  0.2761  0.7333
 6120TIP3   OH239918   5.204   0.788   1.668 -0.5790  0.3630  0.0287
 6120TIP3    H139919   5.196   0.798   1.573  1.1144  0.6502 -0.1225
 6120TIP3    H239920   5.134   0.843   1.704 -2.1428 -0.8401 -1.0349
 6121TIP3   OH239921   1.643   2.527   0.881 -0.2782 -0.4724 -0.4834
 6121TIP3    H139922   1.575   2.534   0.949 -1.4293 -2.3200 -1.3602
 6121TIP3    H239923   1.609   2.580   0.809 -0.2264 -0.4703 -0.5056
 6122TIP3   OH239924   4.903   4.242   8.347 -0.4513 -1.2956  0.6492
 6122TIP3    H139925   4.813   4.218   8.325 -0.5110  0.9466 -2.1866
 6122TIP3    H239926   4.895   4.295   8.426 -1.6725 -1.0438  0.3784
 6123TIP3   OH239927   5.406   6.236   0.778 -0.4229 -0.3095 -0.5017
 6123TIP3    H139928   5.370   6.225   0.866  0.1664 -0.9067 -0.3248
 6123TIP3    H239929   5.330   6.227   0.720 -0.9231  0.7001 -0.0405
 6124TIP3   OH239930   4.299   4.539   7.355  0.3991  0.1394  0.6596
 6124TIP3    H139931   4.249   4.463   7.384  0.9277 -1.0795 -1.3817
 6124TIP3    H239932   4.234   4.608   7.343 -0.3945 -0.6055  0.5881
 6125TIP3   OH239933   2.803   3.447   2.173  0.2439  0.3594  0.2720
 6125TIP3    H139934   2.872   3.399   2.220 -0.6315  0.4399  1.7235
 6125TIP3    H239935   2.791   3.527   2.225 -0.0002  1.0109 -0.7534
 6126TIP3   OH239936   4.431   0.161   1.994 -0.0524  0.9700  0.2680
 6126TIP3    H139937   4.511   0.210   2.009 -0.6446  2.0410 -0.0103
 6126TIP3    H239938   4.385   0.209   1.926 -0.4807 -0.1771 -0.2848
 6127TIP3   OH239939   0.548   6.493   2.250 -0.2669 -0.3227 -0.1314
 6127TIP3    H139940   0.504   6.578   2.253 -0.3762 -0.3753 -0.2234
 6127TIP3    H239941   0.514   6.445   2.326 -1.6721 -0.9946 -1.1460
 6128TIP3   OH239942   4.356   5.024   2.181  0.2692  0.1746  0.0899
 6128TIP3    H139943   4.362   4.942   2.230 -0.3308  0.0227 -0.0811
 6128TIP3    H239944   4.419   5.082   2.223  0.3454 -0.2163  0.5220
 6129TIP3   OH239945   0.601   0.040   8.499  0.1170  0.3177  0.3146
 6129TIP3    H139946   0.522   0.053   8.446  1.6101  1.5514 -1.7705
 6129TIP3    H239947   0.611   0.121   8.548  0.6600  0.5890 -0.2407
 6130TIP3   OH239948   2.895   3.591   8.491  0.0450 -0.5234 -0.3396
 6130TIP3    H139949   2.962   3.652   8.461 -0.4805 -0.2734 -1.0116
 6130TIP3    H239950   2.895   3.600   8.587  0.2957  0.1860 -0.4042
 6131TIP3   OH239951   2.726   3.622   1.745  0.0793 -0.2777  0.0315
 6131TIP3    H139952   2.701   3.705   1.786 -2.4468 -0.4237 -1.0287
 6131TIP3    H239953   2.672   3.557   1.788 -1.9956 -0.5623 -2.7193
 6132TIP3   OH239954   3.856   6.562   2.173  0.2887  0.7469  0.1493
 6132TIP3    H139955   3.947   6.533   2.176  0.5573  1.4175 -0.8923
 6132TIP3    H239956   3.857   6.649   2.213 -0.5555 -0.6171  3.4888
 6133TIP3   OH239957   3.934   2.587   7.068 -0.2750  0.0071  0.4592
 6133TIP3    H139958   3.866   2.591   7.000  0.6119 -0.0611 -0.4583
 6133TIP3    H239959   3.921   2.502   7.109 -1.1805  0.2798  0.7794
 6134TIP3   OH239960   3.866   4.411   8.385 -0.0327  0.0788  0.0903
 6134TIP3    H139961   3.822   4.467   8.321  1.0594  1.4651  0.5208
 6134TIP3    H239962   3.941   4.375   8.337 -0.3136 -0.4563  0.0386
 6135TIP3   OH239963   3.985   3.863   2.227  0.2886 -0.5110 -0.5793
 6135TIP3    H139964   3.975   3.827   2.315 -1.3167  0.0139 -0.4999
 6135TIP3    H239965   4.006   3.955   2.241  0.3391 -0.4961 -0.7486
 6136TIP3   OH239966   4.422   2.594   7.658 -0.2142 -0.5189 -0.1448
 6136TIP3    H139967   4.353   2.614   7.594 -0.0074 -0.1204 -0.2478
 6136TIP3    H239968   4.502   2.629   7.618 -0.1992  0.3739  0.6404
 6137TIP3   OH239969   4.455   1.815   9.071 -0.3259  0.0975 -0.2443
 6137TIP3    H139970   4.460   1.900   9.115 -0.3533  1.3125 -2.4689
 6137TIP3    H239971   4.544   1.781   9.073 -0.1313  0.6094 -0.1861
 6138TIP3   OH239972   1.174   1.180   1.533 -0.9524 -0.8322  0.3570
 6138TIP3    H139973   1.079   1.180   1.538 -1.0129  1.7560  0.3699
 6138TIP3    H239974   1.202   1.215   1.618 -0.2346  2.3455 -1.0425
 6139TIP3   OH239975   4.762   3.307   8.808 -0.8163  0.3704  0.5387
 6139TIP3    H139976   4.676   3.292   8.846 -1.4930  3.2446  0.3635
 6139TIP3    H239977   4.755   3.392   8.764  1.9305  0.4049 -0.0473
 6140TIP3   OH239978   5.787   2.896   8.405  0.3768 -0.2465  0.0800
 6140TIP3    H139979   5.725   2.894   8.478  1.7666 -0.3785  1.2963
 6140TIP3    H239980   5.865   2.853   8.438  0.7236 -1.1911 -1.8215
 6141TIP3   OH239981   6.593   1.945   1.852  0.4134  0.0194 -0.1495
 6141TIP3    H139982   6.655   2.008   1.889  1.0819 -1.4184  1.2847
 6141TIP3    H239983   6.509   1.990   1.851  0.5139  0.3892  2.5076
 6142TIP3   OH239984   0.074   2.828   8.447 -0.1517 -0.2427 -0.4614
 6142TIP3    H139985   0.063   2.747   8.495  0.2793 -0.1040 -0.1232
 6142TIP3    H239986  -0.003   2.880   8.468  0.5492  0.2707  0.9843
 6143TIP3   OH239987   5.048   1.271   7.307  0.6876 -0.4486 -0.2826
 6143TIP3    H139988   4.961   1.294   7.274 -0.2776 -1.1963  1.5490
 6143TIP3    H239989   5.101   1.257   7.229 -0.7108  0.4647 -1.4467
 6144TIP3   OH239990   3.884   2.365   8.800  0.4641 -0.1483 -0.7181
 6144TIP3    H139991   3.951   2.368   8.732  0.8028  0.7446 -0.3628
 6144TIP3    H239992   3.859   2.456   8.813 -3.0143 -0.5886 -2.9328
 6145TIP3   OH239993   0.773   5.671   1.757 -0.6918  0.8684  0.1216
 6145TIP3    H139994   0.691   5.674   1.707 -1.3010 -2.0680  0.8047
 6145TIP3    H239995   0.745   5.674   1.848  0.1232  1.5434  0.3602
 6146TIP3   OH239996   3.676   2.839   8.294  0.3598  0.1072 -0.1141
 6146TIP3    H139997   3.654   2.752   8.260 -0.6637  0.6031 -0.7750
 6146TIP3    H239998   3.769   2.850   8.273  0.2416 -0.4180 -0.9846
 6147TIP3   OH239999   6.185   4.983   2.255 -0.1310 -0.1506 -0.0679
 6147TIP3    H140000   6.145   5.021   2.176  2.3888  0.8121 -0.9841
 6147TIP3    H240001   6.143   4.897   2.264 -3.1860  1.1840 -0.2178
 6148TIP3   OH240002   1.716   3.001   1.683 -0.1936  0.4232 -0.4493
 6148TIP3    H140003   1.774   2.925   1.680  1.0364  1.2282  0.9370
 6148TIP3    H240004   1.771   3.073   1.652 -0.8526  0.9876 -0.3159
 6149TIP3   OH240005   5.765   0.056   8.357  0.1585  0.5378 -0.0364
 6149TIP3    H140006   5.821   0.007   8.297  0.7149 -0.3070  1.1295
 6149TIP3    H240007   5.694  -0.005   8.379  1.0887  0.0380  1.7649
 6150TIP3   OH240008   6.128   5.260   8.599 -0.4554  0.1380 -1.0883
 6150TIP3    H140009   6.038   5.239   8.622 -0.2518 -0.5407 -0.8669
 6150TIP3    H240010   6.177   5.180   8.619  0.6233  1.2568  1.2189
 6151TIP3   OH240011   3.084   4.539   1.057  0.7541  0.0572 -0.1115
 6151TIP3    H140012   3.179   4.535   1.066  0.9961 -0.4938 -2.2953
 6151TIP3    H240013   3.062   4.467   0.999 -1.0354  0.1162  0.4294
 6152TIP3   OH240014   6.493   4.227   7.095  0.1323  0.1165 -0.2200
 6152TIP3    H140015   6.422   4.188   7.044  0.3192  1.0914 -1.2473
 6152TIP3    H240016   6.565   4.237   7.033  1.0573 -0.4980  0.7192
 6153TIP3   OH240017   5.920   4.699   0.796  0.1353 -0.0160  0.3004
 6153TIP3    H140018   5.976   4.651   0.857 -0.5262 -1.4159 -0.1500
 6153TIP3    H240019   5.832   4.691   0.833  0.0529  1.1491  0.3831
 6154TIP3   OH240020   0.836   2.210   7.220  0.0612  0.2837  0.6729
 6154TIP3    H140021   0.929   2.226   7.236  0.1037  1.4118 -0.5750
 6154TIP3    H240022   0.830   2.117   7.198  0.3055 -0.8500  4.6031
 6155TIP3   OH240023   0.700   3.826   7.383 -0.2341 -0.1665  0.4538
 6155TIP3    H140024   0.779   3.803   7.333 -0.9830 -3.3227  0.5181
 6155TIP3    H240025   0.639   3.859   7.317  0.5433  0.7850  0.1738
 6156TIP3   OH240026   2.910   2.934   6.981 -0.2993 -0.1862  0.5340
 6156TIP3    H140027   2.949   2.932   6.894  0.6830  0.5821  0.9351
 6156TIP3    H240028   2.973   2.982   7.035 -0.9047 -0.6119  1.6621
 6157TIP3   OH240029   4.077   5.418   6.884  0.7343  0.1294 -0.1924
 6157TIP3    H140030   4.035   5.488   6.934  2.9655  0.7422  0.9189
 6157TIP3    H240031   4.039   5.337   6.921  0.4496  0.6513  0.6925
 6158TIP3   OH240032   6.092   6.332   8.473 -0.2239  0.6281 -0.0458
 6158TIP3    H140033   6.177   6.291   8.457 -0.1082 -0.5172  2.9668
 6158TIP3    H240034   6.028   6.267   8.443 -0.0282  0.1285  0.6041
 6159TIP3   OH240035   2.702   6.358   1.298 -0.3588  0.5502  0.3122
 6159TIP3    H140036   2.652   6.387   1.374  0.5551  1.0040  0.7533
 6159TIP3    H240037   2.775   6.419   1.293  0.4111 -0.3856 -0.0412
 6160TIP3   OH240038   2.498   3.803   8.641 -0.0512 -0.2680  0.2474
 6160TIP3    H140039   2.572   3.834   8.589 -0.4810 -0.7446 -0.6830
 6160TIP3    H240040   2.522   3.714   8.666 -0.3724 -0.4880 -0.2073
 6161TIP3   OH240041   3.087   4.969   2.279  0.0953 -0.0584  0.1019
 6161TIP3    H140042   3.151   4.900   2.261  0.3007 -0.3206  1.7495
 6161TIP3    H240043   3.006   4.937   2.239 -0.2355 -2.0522  2.1603
 6162TIP3   OH240044   6.014   0.787   8.492 -0.3849 -0.0357 -0.2700
 6162TIP3    H140045   5.970   0.870   8.511  0.4684  0.3417  0.1197
 6162TIP3    H240046   6.009   0.779   8.396  1.9473  1.9162 -0.6633
 6163TIP3   OH240047   2.629   1.902   7.597  0.1006  0.5148 -0.2320
 6163TIP3    H140048   2.650   1.849   7.520 -1.1868 -0.2945 -0.0570
 6163TIP3    H240049   2.714   1.920   7.638  0.6863 -0.1483 -1.1244
 6164TIP3   OH240050   3.077   3.045   7.173  0.3315  0.4748 -0.1318
 6164TIP3    H140051   3.124   3.104   7.114  0.1131 -0.1694 -0.9631
 6164TIP3    H240052   3.135   2.970   7.184 -0.1317  0.0508 -0.5016
 6165TIP3   OH240053   2.840   2.147   7.713 -0.0061 -0.4940  0.2394
 6165TIP3    H140054   2.875   2.059   7.699  1.7287  0.3348 -1.0308
 6165TIP3    H240055   2.806   2.174   7.627 -0.2327  0.1898  0.5338
 6166TIP3   OH240056   3.942   1.822   9.094 -0.1876 -0.2538  0.3411
 6166TIP3    H140057   3.860   1.798   9.051 -0.6898 -1.8814  2.0923
 6166TIP3    H240058   3.981   1.739   9.121 -0.9344  0.5870  4.7678
 6167TIP3   OH240059   3.522   3.993   8.950 -0.3483 -0.1768 -0.3045
 6167TIP3    H140060   3.613   4.019   8.967  0.4788 -0.9211 -2.9859
 6167TIP3    H240061   3.480   4.073   8.918 -0.8002  0.2787  1.3710
 6168TIP3   OH240062   1.321   5.517   2.859 -0.5091  0.5118 -0.3363
 6168TIP3    H140063   1.238   5.526   2.812 -0.9135 -1.5432 -0.1477
 6168TIP3    H240064   1.296   5.509   2.951 -0.1290 -0.2813 -0.2919
 6169TIP3   OH240065   6.114   2.807   1.738  0.3671  0.8322 -0.1241
 6169TIP3    H140066   6.105   2.779   1.646  0.2360  0.4687 -0.0051
 6169TIP3    H240067   6.037   2.860   1.755 -0.4283 -0.3900  0.2247
 6170TIP3   OH240068   1.289   5.314   7.376  0.2735  0.1742  0.3561
 6170TIP3    H140069   1.222   5.284   7.315  0.5096 -0.9027  0.5984
 6170TIP3    H240070   1.263   5.403   7.400 -1.4288 -0.4565  0.9622
 6171TIP3   OH240071   1.008   2.263   1.088 -0.3531 -0.2646  0.1190
 6171TIP3    H140072   1.072   2.211   1.039 -0.8349 -1.5566  0.7953
 6171TIP3    H240073   0.930   2.207   1.090 -0.0641 -0.7129  3.1494
 6172TIP3   OH240074   4.949   0.068   1.622  0.7002 -0.5659  0.1894
 6172TIP3    H140075   5.021   0.124   1.650 -2.3793  3.6518  0.5163
 6172TIP3    H240076   4.941   0.085   1.528 -0.8289  0.3605  0.4595
 6173TIP3   OH240077   6.279   5.457   8.070 -0.4835 -0.0019 -0.2792
 6173TIP3    H140078   6.337   5.530   8.091 -2.0689  1.5412 -1.0575
 6173TIP3    H240079   6.251   5.424   8.155 -0.1855  0.6466  0.0776
 6174TIP3   OH240080   1.335   3.888   8.637  0.3695 -0.7341 -0.4006
 6174TIP3    H140081   1.241   3.906   8.637  0.2740 -0.3630  3.0948
 6174TIP3    H240082   1.342   3.797   8.664  0.9564 -0.4916  0.3262
 6175TIP3   OH240083   4.359   1.071   1.093 -0.0238 -0.5061 -0.0135
 6175TIP3    H140084   4.313   1.034   1.169  0.8244  0.0021  0.7673
 6175TIP3    H240085   4.289   1.099   1.034 -0.7143 -0.2611  0.8964
 6176TIP3   OH240086   5.637   3.020   1.899  0.0865 -0.7086 -0.1693
 6176TIP3    H140087   5.566   2.970   1.857 -2.4350  1.8971  0.6019
 6176TIP3    H240088   5.691   3.049   1.826  0.5897 -2.9728 -0.7727
 6177TIP3   OH240089   4.226   2.050   8.523  0.3004 -0.0332 -0.3014
 6177TIP3    H140090   4.166   2.004   8.464  1.4960  0.9056 -2.4027
 6177TIP3    H240091   4.278   1.981   8.564 -0.9329 -0.7454  0.1203
 6178TIP3   OH240092   3.292   0.403   8.323  0.6587  0.2220 -0.1229
 6178TIP3    H140093   3.330   0.410   8.410  0.7092 -0.0939 -0.1182
 6178TIP3    H240094   3.200   0.427   8.335  0.5233 -0.4068  0.1323
 6179TIP3   OH240095   5.312   4.830   0.443 -0.0786 -0.1841 -0.0717
 6179TIP3    H140096   5.373   4.891   0.400 -1.0263  2.3905  1.9760
 6179TIP3    H240097   5.228   4.847   0.399 -0.1683 -0.6835 -0.0908
 6180TIP3   OH240098   0.841   1.747   6.535 -0.0386  0.4827 -0.1445
 6180TIP3    H140099   0.786   1.739   6.457 -0.8960  0.8411  0.4013
 6180TIP3    H240100   0.817   1.833   6.572  0.6870  0.5201  0.2595
 6181TIP3   OH240101   1.823   1.150   8.704  0.0484  0.4360 -0.1685
 6181TIP3    H140102   1.790   1.061   8.692  1.1223  0.1554 -1.2489
 6181TIP3    H240103   1.913   1.147   8.671  0.2548  1.8181  0.1879
 6182TIP3   OH240104   4.463   4.254   1.111 -0.7029  0.2175 -0.0991
 6182TIP3    H140105   4.533   4.278   1.050  0.1123 -1.3891  0.1440
 6182TIP3    H240106   4.480   4.308   1.189 -0.8416  1.1599 -0.7101
 6183TIP3   OH240107   5.963   5.522   0.172 -0.9560 -0.3094 -0.0932
 6183TIP3    H140108   5.969   5.455   0.103 -2.6983 -2.2607  1.5339
 6183TIP3    H240109   6.050   5.522   0.213 -0.9872 -1.7470  0.0144
 6184TIP3   OH240110   3.222   0.433   0.062 -0.3654 -0.1330 -0.1746
 6184TIP3    H140111   3.257   0.352   0.027 -1.0246 -0.7849  0.6412
 6184TIP3    H240112   3.285   0.500   0.034  0.8475 -1.0842  0.1766
 6185TIP3   OH240113   2.203   4.973   1.285 -0.1353 -0.1297  0.1140
 6185TIP3    H140114   2.199   4.891   1.334  0.6069  0.1562  0.6714
 6185TIP3    H240115   2.293   4.977   1.252 -0.6640 -0.4227 -1.4805
 6186TIP3   OH240116   0.532   3.824   1.513  0.3156 -0.6202 -0.8586
 6186TIP3    H140117   0.573   3.779   1.439  3.0572 -1.3350  0.9473
 6186TIP3    H240118   0.505   3.753   1.572  1.0294 -0.0548  0.1955
 6187TIP3   OH240119   3.616   5.333   8.297 -0.3153 -0.1561 -0.1942
 6187TIP3    H140120   3.553   5.375   8.355  0.0157  0.9831 -0.6166
 6187TIP3    H240121   3.683   5.400   8.282  2.0600 -1.9133  1.7594
 6188TIP3   OH240122   6.545   1.502   1.869  0.0821 -0.6972 -0.8915
 6188TIP3    H140123   6.491   1.428   1.843  1.4641 -1.0921 -2.9393
 6188TIP3    H240124   6.484   1.575   1.877 -1.0806 -1.6868 -0.4525
 6189TIP3   OH240125   5.129   2.209   1.211 -0.2786 -0.0514  0.5048
 6189TIP3    H140126   5.115   2.115   1.199 -0.1507  0.0424 -0.4628
 6189TIP3    H240127   5.224   2.218   1.219 -0.2113  0.0968 -0.4126
 6190TIP3   OH240128   2.007   4.136   0.418  0.3363  0.0316  0.4652
 6190TIP3    H140129   2.008   4.126   0.513 -0.1944  1.5894  0.6573
 6190TIP3    H240130   2.095   4.167   0.397  0.3631 -0.0359  0.4764
 6191TIP3   OH240131   5.897   4.219   1.798 -0.0724  0.0306  0.1076
 6191TIP3    H140132   5.944   4.145   1.835 -0.7455  0.0004  0.9384
 6191TIP3    H240133   5.966   4.276   1.763  0.5701 -0.1382  1.0575
 6192TIP3   OH240134   6.376   4.378   1.228  0.3619  0.3319  0.5976
 6192TIP3    H140135   6.458   4.400   1.273  0.6401  0.9917 -0.1973
 6192TIP3    H240136   6.405   4.335   1.147 -0.1011 -0.1813  0.7066
 6193TIP3   OH240137   2.770   4.328   9.012  0.1045 -0.4029 -0.3834
 6193TIP3    H140138   2.788   4.400   9.072  1.3966  0.3888 -1.6637
 6193TIP3    H240139   2.821   4.348   8.934 -0.9648 -1.7639 -1.4904
 6194TIP3   OH240140   1.667   0.807   7.904 -0.0723 -0.2056 -0.4998
 6194TIP3    H140141   1.693   0.717   7.921  1.8105  0.0963 -1.5168
 6194TIP3    H240142   1.677   0.818   7.809  2.0220  1.6941 -0.1418
 6195TIP3   OH240143   1.981   6.209   8.861  0.3156  0.0251 -0.2461
 6195TIP3    H140144   2.060   6.202   8.808  0.7072 -1.8859  0.5257
 6195TIP3    H240145   1.945   6.295   8.839  2.8529  1.1625 -0.2472
 6196TIP3   OH240146   3.816   1.684   1.187  0.8351 -0.5102  0.1611
 6196TIP3    H140147   3.830   1.625   1.261 -0.4783  0.3060  1.1202
 6196TIP3    H240148   3.902   1.721   1.169  1.0644 -0.0886  1.8783
 6197TIP3   OH240149   4.060   1.576   9.048 -0.4137 -0.0150 -0.1570
 6197TIP3    H140150   4.093   1.490   9.076  1.9232  1.1029  0.7620
 6197TIP3    H240151   4.055   1.570   8.953  0.9679 -0.7844 -0.2099
 6198TIP3   OH240152   0.309   3.349   8.902 -0.1933 -0.2490  0.3093
 6198TIP3    H140153   0.228   3.376   8.859  0.2711  0.3265 -0.2107
 6198TIP3    H240154   0.356   3.430   8.919  1.6059 -0.7159 -2.0126
 6199TIP3   OH240155   3.648   6.487   2.030  0.3053  0.0989  0.3754
 6199TIP3    H140156   3.733   6.516   2.062  0.4721 -2.3138  2.4094
 6199TIP3    H240157   3.669   6.434   1.953  0.7031 -0.8093  1.0960
 6200TIP3   OH240158   1.619   1.340   8.667 -0.1460 -0.3674 -0.4375
 6200TIP3    H140159   1.657   1.252   8.668 -0.3929 -0.4798 -0.8010
 6200TIP3    H240160   1.688   1.396   8.704  0.5521 -0.5004 -1.4999
 6201TIP3   OH240161   3.358   2.325   7.797 -0.2768 -0.2755  0.5888
 6201TIP3    H140162   3.288   2.260   7.802 -0.5699 -0.2516 -1.8371
 6201TIP3    H240163   3.434   2.282   7.835 -1.2013 -0.8524  1.8749
 6202TIP3   OH240164   3.700   2.725   2.390 -0.0466 -0.2909 -0.1229
 6202TIP3    H140165   3.691   2.820   2.389  1.0799 -0.1525  0.6126
 6202TIP3    H240166   3.670   2.698   2.477 -0.5794 -0.6335 -0.4097
 6203TIP3   OH240167   6.464   4.614   1.112 -0.0151 -0.0699 -0.6214
 6203TIP3    H140168   6.427   4.526   1.106 -1.0785  0.1795  1.3880
 6203TIP3    H240169   6.552   4.601   1.146 -0.3885 -0.3519  0.2671
 6204TIP3   OH240170   5.639   1.208   7.550  0.7402  0.1298 -0.1857
 6204TIP3    H140171   5.665   1.138   7.610 -0.4176  0.0525  0.2505
 6204TIP3    H240172   5.675   1.181   7.465 -0.0476 -1.2383 -0.1177
 6205TIP3   OH240173   4.047   0.442   6.748 -0.4037 -0.4334 -0.1857
 6205TIP3    H140174   4.109   0.505   6.710 -0.4104  0.1642  0.7793
 6205TIP3    H240175   4.097   0.397   6.816 -0.2975 -1.7380 -1.0840
 6206TIP3   OH240176   1.817   0.226   7.272  0.0943 -0.0896  0.6799
 6206TIP3    H140177   1.780   0.256   7.354 -1.4834 -0.4664  0.1418
 6206TIP3    H240178   1.778   0.139   7.258 -0.6447  0.4679 -1.0429
 6207TIP3   OH240179   3.179   1.853   7.467  0.0678 -0.0615  0.5458
 6207TIP3    H140180   3.096   1.878   7.506  0.5517  1.5866  0.5770
 6207TIP3    H240181   3.199   1.768   7.506 -0.2132  0.8235  2.7181
 6208TIP3   OH240182   5.271   6.404   7.002 -0.0558 -0.1175  0.0999
 6208TIP3    H140183   5.276   6.366   6.914 -0.2616 -0.2117  0.1266
 6208TIP3    H240184   5.261   6.498   6.987  1.1856  0.0235  0.0412
 6209TIP3   OH240185   6.506   3.154   1.252  0.0276  0.2160 -0.1678
 6209TIP3    H140186   6.450   3.107   1.190 -2.5373  4.5716 -1.5379
 6209TIP3    H240187   6.575   3.192   1.198  0.6800  0.0507  0.5223
 6210TIP3   OH240188   0.097   4.786   1.214  0.3133 -0.1231  0.1378
 6210TIP3    H140189   0.193   4.777   1.210  0.3652 -0.5212  1.7430
 6210TIP3    H240190   0.079   4.867   1.166  1.3664 -0.4813 -0.9197
 6211TIP3   OH240191   1.629   3.750   7.775 -0.4427 -0.2891 -0.0090
 6211TIP3    H140192   1.566   3.732   7.705  0.9073 -0.0600 -1.3280
 6211TIP3    H240193   1.588   3.819   7.827 -2.0180 -1.3370  0.1954
 6212TIP3   OH240194   6.278   3.896   0.487  0.4507  0.0371 -0.3182
 6212TIP3    H140195   6.311   3.957   0.421 -1.0379  1.0120 -0.2066
 6212TIP3    H240196   6.282   3.946   0.569 -0.0890 -0.2711 -0.1023
 6213TIP3   OH240197   4.542   4.432   0.105  0.5428  0.2923 -0.0684
 6213TIP3    H140198   4.497   4.360   0.148 -0.0483  0.5990 -0.1733
 6213TIP3    H240199   4.530   4.507   0.163 -0.5546  0.7972 -0.9191
 6214TIP3   OH240200   4.951   5.518   8.002  0.2397  0.4863  0.5259
 6214TIP3    H140201   4.899   5.594   7.977 -0.5508  0.0411  0.7780
 6214TIP3    H240202   4.945   5.459   7.926  0.5028  0.4936  0.4972
 6215TIP3   OH240203   6.077   1.000   2.109  0.8256 -0.4157  0.7996
 6215TIP3    H140204   6.148   0.936   2.100  1.1411 -0.0877  0.9575
 6215TIP3    H240205   6.120   1.085   2.102  0.1156 -0.1867 -1.7805
 6216TIP3   OH240206   2.588   2.569   8.564  0.0821 -0.2296 -0.2058
 6216TIP3    H140207   2.573   2.527   8.479 -1.0846 -1.6668  0.6571
 6216TIP3    H240208   2.574   2.499   8.628  0.3546  0.9615  1.2150
 6217TIP3   OH240209   2.793   4.768   0.383  0.3103  0.4800  0.1237
 6217TIP3    H140210   2.728   4.759   0.313 -0.6150  2.0934  0.7278
 6217TIP3    H240211   2.876   4.744   0.341  0.0069  2.6445 -1.9432
 6218TIP3   OH240212   1.824   1.617   1.298 -0.1534 -0.0043  0.9222
 6218TIP3    H140213   1.793   1.703   1.326  1.5369  0.4040  1.6326
 6218TIP3    H240214   1.786   1.556   1.361 -1.3938  0.1852  0.3902
 6219TIP3   OH240215   0.170   4.942   1.648 -0.0570 -0.0043 -0.1129
 6219TIP3    H140216   0.187   4.989   1.566  1.8495  2.1244  1.3883
 6219TIP3    H240217   0.074   4.939   1.654 -0.3000  3.2471 -0.6115
 6220TIP3   OH240218   4.284   5.813   0.399 -0.1055 -0.4791 -0.1666
 6220TIP3    H140219   4.252   5.724   0.417 -1.3456 -0.1666 -0.7658
 6220TIP3    H240220   4.215   5.871   0.430  1.1482  0.3643  1.2152
 6221TIP3   OH240221   2.811   5.254   1.883 -0.5838  0.0105  0.0741
 6221TIP3    H140222   2.881   5.267   1.947 -0.3116 -4.2857  0.9749
 6221TIP3    H240223   2.731   5.257   1.934 -0.8500  1.5270 -0.3727
 6222TIP3   OH240224   0.291   5.355   0.735  0.1968 -0.3224  0.4425
 6222TIP3    H140225   0.377   5.312   0.736 -0.6482 -2.1609  2.2199
 6222TIP3    H240226   0.253   5.332   0.650  0.9909 -0.4756  0.1189
 6223TIP3   OH240227   1.981   5.939   8.936 -0.6492  0.1735 -0.5688
 6223TIP3    H140228   1.962   5.938   9.029 -0.3933  2.1111 -0.4683
 6223TIP3    H240229   1.998   6.031   8.915  2.0124 -0.5048 -1.9463
 6224TIP3   OH240230   1.552   0.891   1.323  0.6704  0.5100 -0.1853
 6224TIP3    H140231   1.487   0.952   1.357  0.5041  1.4732 -2.0887
 6224TIP3    H240232   1.515   0.860   1.240  1.5668 -0.8138 -0.1238
 6225TIP3   OH240233   4.749   1.646   7.363  0.2163 -0.2149 -0.3470
 6225TIP3    H140234   4.764   1.581   7.295 -0.2989 -1.1583  0.4075
 6225TIP3    H240235   4.658   1.631   7.391 -0.1904  1.3904 -0.7253
 6226TIP3   OH240236   3.391   4.208   8.887 -0.4751 -0.3726 -0.0964
 6226TIP3    H140237   3.364   4.281   8.943  1.2579  0.8568 -0.7616
 6226TIP3    H240238   3.390   4.246   8.799  2.1977 -0.5662 -0.2658
 6227TIP3   OH240239   3.149   2.232   1.093  0.3480 -0.4310  0.1483
 6227TIP3    H140240   3.122   2.154   1.045 -0.6570 -0.4023  0.6413
 6227TIP3    H240241   3.183   2.291   1.026 -1.9497  0.0062 -0.7128
 6228TIP3   OH240242   4.437   5.012   2.540 -0.0608 -0.4656 -0.1717
 6228TIP3    H140243   4.462   5.041   2.627  1.4418 -1.2318 -0.3185
 6228TIP3    H240244   4.342   5.003   2.544 -0.1095  0.4468  1.0839
 6229TIP3   OH240245   5.633   1.411   0.375 -0.3811 -0.7700 -0.3703
 6229TIP3    H140246   5.559   1.351   0.370 -0.1150 -1.4143  2.1310
 6229TIP3    H240247   5.709   1.358   0.351 -0.2210 -1.3479  1.2818
 6230TIP3   OH240248   0.682   2.660   1.600 -0.4977  0.0677 -0.5141
 6230TIP3    H140249   0.631   2.606   1.660  1.1384 -0.7129  0.2361
 6230TIP3    H240250   0.655   2.630   1.513 -0.6884 -0.9595 -0.1208
 6231TIP3   OH240251   4.883   3.144   8.996  0.7753 -0.0043 -0.5431
 6231TIP3    H140252   4.800   3.124   9.039  0.1456 -0.7404 -2.0290
 6231TIP3    H240253   4.861   3.208   8.929  1.6998  0.9560  0.0333
 6232TIP3   OH240254   2.057   0.362   7.746 -0.2431  0.0773  0.2711
 6232TIP3    H140255   2.088   0.449   7.720 -0.2020  0.0493  0.2262
 6232TIP3    H240256   1.976   0.378   7.794  0.2174  0.2119  1.0207
 6233TIP3   OH240257   1.538   5.227   0.584  0.5103 -1.1450  0.0695
 6233TIP3    H140258   1.515   5.193   0.498 -2.1656  1.3003 -0.3197
 6233TIP3    H240259   1.602   5.296   0.567 -1.3468  0.5973 -0.2989
 6234TIP3   OH240260   3.139   6.331   2.416 -0.2594 -0.4242 -0.4104
 6234TIP3    H140261   3.082   6.351   2.490  0.6909 -1.4204  0.6438
 6234TIP3    H240262   3.228   6.343   2.450  0.2631 -2.6839 -0.7740
 6235TIP3   OH240263   6.044   3.097   1.256 -0.0809 -0.1253 -0.4493
 6235TIP3    H140264   5.958   3.113   1.216 -1.2986 -1.0712  1.5919
 6235TIP3    H240265   6.061   3.175   1.309 -0.1099 -0.2861 -0.1969
 6236TIP3   OH240266   4.023   1.977   0.236  0.6401  0.4327 -0.3737
 6236TIP3    H140267   3.942   1.963   0.286  0.6866  0.5301 -0.2707
 6236TIP3    H240268   4.077   2.033   0.292  0.9773 -0.0254 -0.2411
 6237TIP3   OH240269   6.109   2.017   0.767 -0.7546  0.1604 -0.4306
 6237TIP3    H140270   6.200   2.042   0.785 -0.9906  1.2412 -0.6203
 6237TIP3    H240271   6.062   2.101   0.766 -1.4460 -0.2239 -2.0657
 6238TIP3   OH240272   2.114   0.262   8.067  0.2367  0.3531 -0.2585
 6238TIP3    H140273   2.125   0.294   8.156 -2.7506  0.9344 -0.0139
 6238TIP3    H240274   2.190   0.297   8.020  0.5847  2.1374  1.4834
 6239TIP3   OH240275   4.737   3.198   7.040 -0.0786 -0.6350 -0.1379
 6239TIP3    H140276   4.697   3.124   7.086  1.6723 -2.7198 -1.7156
 6239TIP3    H240277   4.831   3.178   7.040  0.3159  0.9363 -1.7565
 6240TIP3   OH240278   1.157   1.427   1.081 -0.7213 -0.0767  0.0654
 6240TIP3    H140279   1.121   1.458   0.998 -1.9623 -2.6024 -0.4508
 6240TIP3    H240280   1.185   1.506   1.127 -1.5413  1.5214 -2.0435
 6241TIP3   OH240281   4.059   5.667   0.591 -0.3398  0.3880  0.9609
 6241TIP3    H140282   4.094   5.588   0.549 -1.5537  0.6580 -0.6898
 6241TIP3    H240283   4.097   5.667   0.678  1.8477 -0.5677  0.0821
 6242TIP3   OH240284   5.604   2.499   2.574 -0.0491 -0.7264  0.7274
 6242TIP3    H140285   5.578   2.562   2.507  1.8038  0.5185  1.1058
 6242TIP3    H240286   5.536   2.431   2.570 -2.2092  1.3219  0.4161
 6243TIP3   OH240287   0.442   5.431   2.493  0.1886 -0.4174  0.0584
 6243TIP3    H140288   0.352   5.413   2.468  0.2875  0.9911 -1.4315
 6243TIP3    H240289   0.495   5.376   2.435  0.3379 -1.2939  0.9737
 6244TIP3   OH240290   0.747   3.020   2.251 -0.1555  0.1091  0.1019
 6244TIP3    H140291   0.743   2.953   2.183  1.1651  0.5679 -0.4647
 6244TIP3    H240292   0.656   3.036   2.275 -0.5169 -1.6184  0.0079
 6245TIP3   OH240293   4.557   2.778   0.142 -0.1132 -0.2918  0.3522
 6245TIP3    H140294   4.480   2.832   0.161 -1.2354 -1.0609 -1.6927
 6245TIP3    H240295   4.521   2.693   0.118  1.2795 -0.3874 -1.6498
 6246TIP3   OH240296   3.740   4.992   0.447  0.0039  0.5635 -0.6172
 6246TIP3    H140297   3.833   5.012   0.438  0.0353  0.2116 -1.1231
 6246TIP3    H240298   3.737   4.898   0.462 -0.2530  0.6370 -0.1718
 6247TIP3   OH240299   5.109   3.129   8.553  0.7456 -0.6862 -0.4949
 6247TIP3    H140300   5.100   3.195   8.621  0.6221 -2.9466  1.8362
 6247TIP3    H240301   5.019   3.113   8.523  0.7425 -0.0499 -0.8264
 6248TIP3   OH240302   5.981   4.261   8.027  0.0252 -0.9746  0.1216
 6248TIP3    H140303   5.988   4.282   7.934 -0.9235 -2.0429 -0.2219
 6248TIP3    H240304   6.055   4.202   8.044 -0.9126 -2.3850 -0.4766
 6249TIP3   OH240305   4.527   0.619   8.806 -0.0313  0.4542 -0.0427
 6249TIP3    H140306   4.546   0.605   8.713 -0.8287  1.9802 -0.4579
 6249TIP3    H240307   4.608   0.656   8.841 -0.3848  1.8598 -0.6253
 6250TIP3   OH240308   1.099   5.450   1.178 -0.2126  0.0514 -0.0925
 6250TIP3    H140309   1.151   5.381   1.218  0.0443  0.0313 -0.4632
 6250TIP3    H240310   1.022   5.405   1.143  0.4245 -0.1931 -1.1960
 6251TIP3   OH240311   4.169   6.624   9.200  0.2180 -0.0337 -0.2393
 6251TIP3    H140312   4.185   6.589   9.112 -0.1423 -0.8252  0.0002
 6251TIP3    H240313   4.176   6.719   9.190  1.4036 -0.1697 -0.8693
 6252TIP3   OH240314   3.120   4.128   0.077  0.4081 -0.1408  0.0484
 6252TIP3    H140315   3.077   4.210   0.104  0.2936 -0.3139  0.4105
 6252TIP3    H240316   3.182   4.154   0.010 -1.8787 -0.1728 -2.2331
 6253TIP3   OH240317   5.837   2.876   1.688  0.7370  0.4951 -0.0589
 6253TIP3    H140318   5.863   2.968   1.688  0.9442  0.4424 -0.9836
 6253TIP3    H240319   5.763   2.871   1.628 -0.0910  0.2664  0.9475
 6254TIP3   OH240320   4.234   1.847   1.362  0.1679 -0.4421 -0.1724
 6254TIP3    H140321   4.279   1.906   1.422  1.9816 -1.7815 -0.1527
 6254TIP3    H240322   4.285   1.766   1.364  0.1572 -0.6557 -3.2685
 6255TIP3   OH240323   3.324   2.129   6.967  0.8028  0.7415 -0.1044
 6255TIP3    H140324   3.299   2.201   6.909 -1.9041 -1.7150 -2.3203
 6255TIP3    H240325   3.402   2.090   6.925  0.2901  0.4362 -0.7951
 6256TIP3   OH240326   0.320   1.229   0.711 -0.6668 -0.1886  0.8441
 6256TIP3    H140327   0.225   1.219   0.716 -1.0289  1.5228 -1.2702
 6256TIP3    H240328   0.342   1.216   0.619  1.0892 -0.0390  1.1920
 6257TIP3   OH240329   0.622   3.363   7.672  0.0755  0.4211  0.4274
 6257TIP3    H140330   0.620   3.398   7.582  1.4372 -0.1199  0.1543
 6257TIP3    H240331   0.692   3.298   7.670  0.3757  0.6698  1.9934
 6258TIP3   OH240332   2.438   3.648   1.105 -0.0499  0.1930  0.2583
 6258TIP3    H140333   2.473   3.566   1.140  0.3556  0.5122  0.6153
 6258TIP3    H240334   2.472   3.651   1.015 -0.4367 -0.2415  0.0930
 6259TIP3   OH240335   6.155   5.011   9.228  0.0524  0.4209 -0.4362
 6259TIP3    H140336   6.237   4.980   9.267 -0.2850 -1.0771 -0.8244
 6259TIP3    H240337   6.167   4.997   9.134 -0.2212  1.3013 -0.6127
 6260TIP3   OH240338   0.247   2.077   1.523 -0.1448 -0.0352  0.6002
 6260TIP3    H140339   0.333   2.052   1.489 -0.4442  1.3139 -1.2664
 6260TIP3    H240340   0.266   2.120   1.606  1.1581  1.5296 -0.4571
 6261TIP3   OH240341   0.475   4.169   8.643 -0.2145  0.2785 -0.1951
 6261TIP3    H140342   0.527   4.117   8.704 -0.3245 -1.1539 -1.2720
 6261TIP3    H240343   0.385   4.140   8.657 -0.2711  0.1214 -0.8419
 6262TIP3   OH240344   5.278   5.462   0.771 -0.1664 -0.3557 -0.1090
 6262TIP3    H140345   5.278   5.396   0.841  1.2777 -0.5978 -0.3166
 6262TIP3    H240346   5.337   5.530   0.803  0.2035 -0.2896 -0.9148
 6263TIP3   OH240347   3.753   1.312   0.839  0.7626 -0.0978  0.2540
 6263TIP3    H140348   3.842   1.298   0.807  0.5073 -1.0325 -0.0837
 6263TIP3    H240349   3.710   1.362   0.770  1.0880  0.5852  0.5338
 6264TIP3   OH240350   2.170   4.582   9.261 -0.0948  0.0089  0.9704
 6264TIP3    H140351   2.098   4.580   9.324 -0.6216 -0.8547  0.3656
 6264TIP3    H240352   2.151   4.510   9.200  2.0896 -1.3061  1.7149
 6265TIP3   OH240353   2.071   5.834   1.486 -0.8700 -0.3482  0.2296
 6265TIP3    H140354   2.009   5.896   1.450 -0.4090 -0.4278 -0.7410
 6265TIP3    H240355   2.139   5.826   1.419 -0.3877 -1.1056  0.7835
 6266TIP3   OH240356   5.681   5.484   1.671 -0.2279 -0.3452 -0.2988
 6266TIP3    H140357   5.671   5.490   1.766 -2.8236  0.3346 -0.5366
 6266TIP3    H240358   5.773   5.460   1.658  0.3580  0.1288  2.3425
 6267TIP3   OH240359   4.372   3.157   2.008  0.4356 -0.1042 -0.2901
 6267TIP3    H140360   4.379   3.126   2.098  0.6687 -1.0572 -0.6299
 6267TIP3    H240361   4.460   3.145   1.972  0.4378  0.6098 -0.5457
 6268TIP3   OH240362   5.986   4.182   0.799  0.1944 -0.3145 -0.1042
 6268TIP3    H140363   6.076   4.176   0.830  0.9692 -0.9645 -2.3347
 6268TIP3    H240364   5.958   4.092   0.787 -0.8052 -0.1201  0.6435
 6269TIP3   OH240365   6.225   4.583   8.731  0.3025  0.3019 -0.1152
 6269TIP3    H140366   6.258   4.668   8.760  1.4530  0.2533 -1.1926
 6269TIP3    H240367   6.260   4.521   8.794  0.1473  0.5300  0.1994
 6270TIP3   OH240368   2.047   0.740   1.893  0.5375 -0.1063  0.8084
 6270TIP3    H140369   1.980   0.807   1.883  1.8407  1.0135 -0.9981
 6270TIP3    H240370   2.098   0.766   1.970 -0.0340 -0.0170  1.1569
 6271TIP3   OH240371   3.678   0.421   7.638  0.5372  0.4164  0.2871
 6271TIP3    H140372   3.739   0.474   7.689  0.1771 -0.6582  1.9003
 6271TIP3    H240373   3.616   0.387   7.703 -0.2354 -0.6105 -0.9462
 6272TIP3   OH240374   3.627   1.881   0.583 -0.0347  0.2291 -0.0185
 6272TIP3    H140375   3.666   1.903   0.668  1.8140 -1.8752 -0.2300
 6272TIP3    H240376   3.548   1.831   0.606 -2.4930  3.9090  0.3998
 6273TIP3   OH240377   6.185   5.000   0.789 -0.1678 -0.5280 -0.0138
 6273TIP3    H140378   6.150   5.087   0.805 -1.1865 -0.7692 -0.8071
 6273TIP3    H240379   6.271   5.000   0.830 -0.4727  0.5957  0.6512
 6274TIP3   OH240380   1.359   3.322   8.107 -0.2659  0.1771  0.1425
 6274TIP3    H140381   1.425   3.324   8.037  0.9697 -1.4335  1.1605
 6274TIP3    H240382   1.350   3.413   8.135  0.9583  0.5362 -0.5717
 6275TIP3   OH240383   6.291   3.937   0.767 -0.2627 -0.4114  0.4869
 6275TIP3    H140384   6.250   4.006   0.819 -0.5607 -0.4454  0.3019
 6275TIP3    H240385   6.302   3.865   0.829  0.3564 -0.0868  0.7627
 6276TIP3   OH240386   3.580   1.896   7.110  0.4818  0.4394 -0.1466
 6276TIP3    H140387   3.498   1.898   7.158  0.2777 -1.5993 -0.3218
 6276TIP3    H240388   3.571   1.965   7.044 -1.5640 -0.4817 -0.9010
 6277TIP3   OH240389   1.544   4.317   1.168 -0.2814  0.1825 -0.2642
 6277TIP3    H140390   1.474   4.253   1.185 -0.5343  0.4954 -0.1207
 6277TIP3    H240391   1.594   4.319   1.249 -0.3387  0.2491 -0.2307
 6278TIP3   OH240392   5.226   5.292   8.055  0.0420 -0.2231  0.4522
 6278TIP3    H140393   5.281   5.218   8.077 -1.2115 -2.4190 -2.9926
 6278TIP3    H240394   5.144   5.276   8.103  0.4173 -0.0358  1.1617
 6279TIP3   OH240395   1.689   3.294   8.178 -0.2903 -0.3341  0.1249
 6279TIP3    H140396   1.664   3.368   8.124 -0.8266 -1.1309 -0.7332
 6279TIP3    H240397   1.612   3.276   8.232  0.3715  0.7124  1.4999
 6280TIP3   OH240398   6.073   4.573   1.000 -0.5450  0.0096  0.1315
 6280TIP3    H140399   6.011   4.513   0.959 -2.4683  0.8299  1.6811
 6280TIP3    H240400   6.094   4.532   1.085  0.3592  0.1793  0.0025
 6281TIP3   OH240401   3.315   3.154   8.729  0.2553  0.4201  0.0865
 6281TIP3    H140402   3.227   3.185   8.707 -0.3661  0.8346  2.8150
 6281TIP3    H240403   3.318   3.065   8.695 -0.7328  0.8034 -1.1099
 6282TIP3   OH240404   1.752   2.520   0.397 -0.0561 -0.4363 -0.0297
 6282TIP3    H140405   1.682   2.584   0.384 -1.0523 -1.2755  1.0416
 6282TIP3    H240406   1.715   2.454   0.456  1.7862 -0.6448  0.9935
 6283TIP3   OH240407   4.662   2.450   1.385  0.7207 -0.0471 -0.4809
 6283TIP3    H140408   4.749   2.411   1.390  0.7131 -0.1278 -0.9171
 6283TIP3    H240409   4.655   2.480   1.294 -0.7996 -2.6313 -1.3276
 6284TIP3   OH240410   0.312   3.526   7.672  0.2569 -0.0768 -0.7192
 6284TIP3    H140411   0.235   3.583   7.675  0.6094  0.3768  0.5840
 6284TIP3    H240412   0.332   3.516   7.579 -1.0917  0.1742 -1.0513
 6285TIP3   OH240413   3.575   4.636   8.041 -0.0707  0.1700 -0.3784
 6285TIP3    H140414   3.558   4.571   7.972 -0.8716  1.0776 -1.0680
 6285TIP3    H240415   3.647   4.688   8.007  0.4837 -0.2614  0.1171
 6286TIP3   OH240416   2.776   2.827   1.124 -0.2550 -0.1240  0.0535
 6286TIP3    H140417   2.689   2.788   1.111 -0.1062 -0.8150  1.0174
 6286TIP3    H240418   2.829   2.756   1.160  0.3812  0.6212  0.6229
 6287TIP3   OH240419   1.800   3.721   2.366  0.5802  0.4499 -0.1609
 6287TIP3    H140420   1.770   3.786   2.429 -0.8075 -0.3178  0.0115
 6287TIP3    H240421   1.752   3.642   2.389  1.0080 -0.1889 -1.3944
 6288TIP3   OH240422   3.587   4.266   7.879  0.4722 -0.6798 -0.5310
 6288TIP3    H140423   3.589   4.304   7.967 -2.8711 -1.3155 -0.0406
 6288TIP3    H240424   3.570   4.341   7.821 -0.0418 -0.6015 -0.2879
 6289TIP3   OH240425   2.702   3.024   1.274 -0.1004  0.1851  0.3658
 6289TIP3    H140426   2.754   2.955   1.235 -0.5370  0.2996 -0.4450
 6289TIP3    H240427   2.647   3.056   1.203  0.4259  1.6957  0.5908
 6290TIP3   OH240428   0.479   0.521   8.659  0.0761  0.0488  0.5659
 6290TIP3    H140429   0.386   0.508   8.678  0.2868 -0.8128  1.0938
 6290TIP3    H240430   0.482   0.542   8.566 -0.4971 -2.1343 -0.0025
 6291TIP3   OH240431   2.976   4.086   8.077 -0.2540 -0.3232 -0.3238
 6291TIP3    H140432   2.946   4.157   8.134 -0.3784  0.4470 -1.3198
 6291TIP3    H240433   2.932   4.102   7.993  0.0935 -1.3048 -0.7112
 6292TIP3   OH240434   4.094   3.525   1.657  0.6875 -0.6466  0.4259
 6292TIP3    H140435   4.082   3.441   1.613  1.1778 -0.2585 -0.4733
 6292TIP3    H240436   4.106   3.588   1.586 -1.5260  0.5236  0.9939
 6293TIP3   OH240437   0.209   4.801   0.918  0.0451 -0.6293  0.3387
 6293TIP3    H140438   0.193   4.722   0.970  1.7335 -1.9436 -1.0131
 6293TIP3    H240439   0.283   4.843   0.960 -2.2949  1.6931  2.5062
 6294TIP3   OH240440   0.486   2.823   8.098 -0.1702 -0.2465  0.1968
 6294TIP3    H140441   0.413   2.872   8.136 -0.5599 -0.1857 -0.6045
 6294TIP3    H240442   0.481   2.737   8.139  0.4988  0.3373  1.5971
 6295TIP3   OH240443   5.249   5.833   0.067  0.1950 -0.9258  0.1940
 6295TIP3    H140444   5.322   5.882   0.032  1.2875 -1.8862  1.0390
 6295TIP3    H240445   5.267   5.826   0.161 -2.4308  1.2490  0.9942
 6296TIP3   OH240446   4.842   1.001   2.185  0.1363  0.4244 -0.2954
 6296TIP3    H140447   4.922   1.018   2.235 -0.5781  2.9187  0.1550
 6296TIP3    H240448   4.834   0.906   2.183  2.2970  0.1604  0.9372
 6297TIP3   OH240449   4.762   0.950   9.220 -0.3645 -0.0925  0.5545
 6297TIP3    H140450   4.852   0.966   9.248  0.0116  0.8971 -1.0726
 6297TIP3    H240451   4.760   0.857   9.197 -0.1191 -0.4169  1.7744
 6298TIP3   OH240452   5.490   3.847   1.219  0.2332  0.0589  0.2040
 6298TIP3    H140453   5.482   3.941   1.201  1.0577  0.3120  1.0608
 6298TIP3    H240454   5.507   3.807   1.134  4.1694  1.2074  0.2480
 6299TIP3   OH240455   3.017   2.387   1.276  0.0931 -0.5645  0.3565
 6299TIP3    H140456   3.085   2.400   1.342  1.0649  1.1969 -0.8880
 6299TIP3    H240457   3.064   2.355   1.199 -0.4204  0.6977 -0.5327
 6300TIP3   OH240458   5.206   4.703   6.807  0.2236 -0.2285  0.3279
 6300TIP3    H140459   5.161   4.661   6.733  0.6273  2.0960 -1.3313
 6300TIP3    H240460   5.287   4.738   6.769  0.4413  1.0080  1.8647
 6301TIP3   OH240461   1.564   3.487   8.478  0.0705  0.4387 -0.4021
 6301TIP3    H140462   1.644   3.513   8.433  0.6047  0.7128  0.6652
 6301TIP3    H240463   1.593   3.428   8.547 -0.7789 -0.3528 -0.6947
 6302TIP3   OH240464   0.186   3.124   0.562  0.2133 -0.7501 -0.0678
 6302TIP3    H140465   0.228   3.039   0.575 -0.5625 -1.0877  0.2625
 6302TIP3    H240466   0.180   3.133   0.467  0.1002 -1.1550 -0.0978
 6303TIP3   OH240467   6.168   1.378   9.160 -0.3889 -0.0773  0.1116
 6303TIP3    H140468   6.090   1.364   9.214 -0.9765 -0.8813 -0.9299
 6303TIP3    H240469   6.141   1.443   9.095  0.1343  0.4265  0.3872
 6304TIP3   OH240470   3.087   0.524   0.304 -0.6992  0.3734  0.0871
 6304TIP3    H140471   3.135   0.606   0.289  0.7090 -0.6393 -1.2773
 6304TIP3    H240472   3.112   0.468   0.231  0.3645 -2.1520  2.2095
 6305TIP3   OH240473   1.855   1.348   2.235 -0.2598  0.3885  0.1474
 6305TIP3    H140474   1.807   1.377   2.313 -0.0185  0.5081  0.2537
 6305TIP3    H240475   1.787   1.335   2.169 -0.5130 -0.1191  0.4974
 6306TIP3   OH240476   0.522   1.029   8.029  0.2536 -0.0534  1.0383
 6306TIP3    H140477   0.555   0.950   7.986  3.4102  0.9253  1.4729
 6306TIP3    H240478   0.550   1.021   8.120  0.8106  1.6223  1.0539
 6307TIP3   OH240479   0.031   2.643   8.664  0.0555  0.4342  0.3959
 6307TIP3    H140480   0.111   2.603   8.699  0.4788 -1.0670 -2.0665
 6307TIP3    H240481  -0.038   2.579   8.681 -0.4250  1.1825  1.4026
 6308TIP3   OH240482   0.439   1.129   1.391 -0.5506  0.3872  0.1058
 6308TIP3    H140483   0.426   1.056   1.332  2.1248 -0.2129  0.1154
 6308TIP3    H240484   0.363   1.128   1.449 -0.0317 -3.2925  0.9807
 6309TIP3   OH240485   4.967   0.433   1.298  0.1315  0.1540 -0.6369
 6309TIP3    H140486   4.890   0.383   1.271  0.5781 -0.6292 -0.4930
 6309TIP3    H240487   4.950   0.455   1.390 -0.5860  1.2875 -1.0165
 6310TIP3   OH240488   2.080   5.767   7.113  0.4604 -0.4479  0.7551
 6310TIP3    H140489   2.075   5.787   7.020  1.4777  1.1009  0.9850
 6310TIP3    H240490   1.990   5.779   7.145  0.7501  3.2949  0.6767
 6311TIP3   OH240491   5.212   0.434   6.465 -0.0087  0.1430  0.3367
 6311TIP3    H140492   5.165   0.496   6.521  1.2687  0.6020  0.9256
 6311TIP3    H240493   5.184   0.456   6.376 -0.2102  1.0136  0.6077
 6312TIP3   OH240494   1.741   4.452   7.020 -0.5385 -0.5345  0.0615
 6312TIP3    H140495   1.701   4.396   6.954 -1.6115 -1.3133  1.3273
 6312TIP3    H240496   1.826   4.477   6.983 -1.7736  0.4193 -2.3098
 6313TIP3   OH240497   5.283   5.107   8.273  0.1636  0.5191 -0.1906
 6313TIP3    H140498   5.228   5.030   8.291  0.8644  0.2736  0.9906
 6313TIP3    H240499   5.267   5.166   8.346 -0.3377  1.4991 -1.0742
 6314TIP3   OH240500   5.809   0.963   0.756  0.4553 -0.0281  0.4766
 6314TIP3    H140501   5.846   1.030   0.813  0.8839  0.0061  0.1661
 6314TIP3    H240502   5.864   0.966   0.678  0.0722 -0.2938  0.1949
 6315TIP3   OH240503   5.970   0.686   1.669  0.5710  0.2159 -0.0697
 6315TIP3    H140504   6.004   0.772   1.691 -0.7597  1.2144 -1.6750
 6315TIP3    H240505   5.943   0.649   1.754  0.8689  1.4918  0.6123
 6316TIP3   OH240506   2.514   6.414   8.482 -0.7112  0.5788 -0.0946
 6316TIP3    H140507   2.486   6.497   8.444 -0.6358 -0.4003 -2.4313
 6316TIP3    H240508   2.566   6.372   8.413  0.5567 -0.7553  1.5781
 6317TIP3   OH240509   4.733   4.447   1.199 -0.6025 -0.1333 -0.1115
 6317TIP3    H140510   4.750   4.353   1.193  0.6637 -0.0952  1.9375
 6317TIP3    H240511   4.771   4.473   1.283 -0.2908  2.3587 -0.9467
 6318TIP3   OH240512   5.421   3.731   1.922 -0.3063  0.0898 -0.0176
 6318TIP3    H140513   5.511   3.760   1.937 -0.3278 -0.0528  0.3857
 6318TIP3    H240514   5.405   3.665   1.989 -0.0558 -1.3200 -1.2879
 6319TIP3   OH240515   4.412   2.337   1.202  0.8910  0.1770  0.5880
 6319TIP3    H140516   4.373   2.302   1.282 -0.2401 -0.2690 -0.1332
 6319TIP3    H240517   4.364   2.419   1.186 -1.6687 -1.5569 -1.6425
 6320TIP3   OH240518   5.416   3.249   9.273 -0.0113 -0.0166 -0.6345
 6320TIP3    H140519   5.434   3.162   9.238  1.6889  0.0952 -0.1162
 6320TIP3    H240520   5.348   3.235   9.339 -0.0675 -0.8695 -0.8627
 6321TIP3   OH240521   1.295   6.533   7.495 -0.6109  0.0611 -0.0986
 6321TIP3    H140522   1.288   6.603   7.561  0.5256 -0.4103  0.5578
 6321TIP3    H240523   1.251   6.568   7.418 -1.7435  0.7412  0.8266
 6322TIP3   OH240524   3.490   2.084   8.497 -0.0731  0.0130 -0.5219
 6322TIP3    H140525   3.481   2.179   8.495  0.6657  0.1432  0.9383
 6322TIP3    H240526   3.430   2.052   8.429  0.0812  1.5360 -1.4067
 6323TIP3   OH240527   4.882   4.258   7.856  0.4812 -0.2648  0.2248
 6323TIP3    H140528   4.903   4.242   7.764  0.8305 -0.6450  0.3679
 6323TIP3    H240529   4.905   4.176   7.900 -0.6436 -0.4473  0.4978
 6324TIP3   OH240530   5.424   4.495   8.550  0.1414  0.4169 -0.1498
 6324TIP3    H140531   5.376   4.462   8.474 -0.9062  0.4644  0.4710
 6324TIP3    H240532   5.477   4.420   8.579 -0.0182  0.1743 -0.4782
 6325TIP3   OH240533   1.831   4.695   6.280  0.1418 -0.5666  0.0887
 6325TIP3    H140534   1.776   4.654   6.346  1.0507 -0.7031  0.7726
 6325TIP3    H240535   1.770   4.725   6.213 -0.8749  0.2482  1.3410
 6326TIP3   OH240536   5.602   6.190   1.097 -0.4494 -0.1367 -0.0404
 6326TIP3    H140537   5.659   6.254   1.053  2.0304 -2.0169  0.2583
 6326TIP3    H240538   5.519   6.198   1.050  1.1703  0.0336 -3.1801
 6327TIP3   OH240539   1.177   5.481   7.123  0.4566  0.3812 -0.2087
 6327TIP3    H140540   1.098   5.518   7.081  0.2150 -0.0618 -0.1506
 6327TIP3    H240541   1.156   5.389   7.135  0.0577  0.7100  1.9656
 6328TIP3   OH240542   3.450   6.409   8.693  0.3329 -0.2055  0.7016
 6328TIP3    H140543   3.449   6.452   8.779  2.0107  0.6215  0.3509
 6328TIP3    H240544   3.361   6.376   8.682 -0.5066  1.5308  1.8279
 6329TIP3   OH240545   1.722   4.327   0.501  0.0655  0.4923 -0.1844
 6329TIP3    H140546   1.809   4.287   0.504 -0.0777  0.2186  0.5181
 6329TIP3    H240547   1.661   4.253   0.505 -0.1997  0.7371  0.4773
 6330TIP3   OH240548   1.660   4.579   8.339 -0.0273  0.3094  0.1486
 6330TIP3    H140549   1.611   4.497   8.345  0.6765 -0.1382  0.0074
 6330TIP3    H240550   1.599   4.641   8.299 -0.5633 -0.1522  0.2364
 6331TIP3   OH240551   4.466   5.009   0.677 -0.5180 -0.3316 -0.5323
 6331TIP3    H140552   4.481   4.919   0.707 -1.0813  0.3123  1.9503
 6331TIP3    H240553   4.491   5.063   0.752 -1.1744  1.5347 -1.6036
 6332TIP3   OH240554   5.534   3.496   7.941  0.4123 -0.1542 -0.0501
 6332TIP3    H140555   5.467   3.436   7.908  0.3363 -0.8452  1.3001
 6332TIP3    H240556   5.561   3.546   7.864 -1.0312 -0.4604 -0.8005
 6333TIP3   OH240557   5.907   6.516   1.597  0.4219 -0.4148 -0.0372
 6333TIP3    H140558   5.939   6.481   1.513 -1.3698  0.4615 -1.1534
 6333TIP3    H240559   5.835   6.458   1.621 -0.7625  0.8324 -0.4746
 6334TIP3   OH240560   1.344   1.269   0.311 -0.0265 -0.0540 -0.6582
 6334TIP3    H140561   1.280   1.200   0.292 -0.9270  0.9618 -1.4100
 6334TIP3    H240562   1.300   1.350   0.287  0.8498  0.8388  0.6468
 6335TIP3   OH240563   1.739   2.119   8.552 -0.7268 -0.2779  0.2871
 6335TIP3    H140564   1.835   2.117   8.554 -0.6122  0.7040 -1.4822
 6335TIP3    H240565   1.716   2.209   8.575 -1.0174  0.3250 -2.0706
 6336TIP3   OH240566   2.185   5.887   0.844  0.2302  0.3011 -0.3410
 6336TIP3    H140567   2.269   5.878   0.889 -0.8804  0.2887  1.8720
 6336TIP3    H240568   2.184   5.977   0.813  1.3549  0.0803 -1.0478
 6337TIP3   OH240569   2.976   0.731   1.341  0.4797 -0.6938 -0.1344
 6337TIP3    H140570   3.042   0.718   1.273 -0.6973  1.4064 -1.7876
 6337TIP3    H240571   2.893   0.711   1.297 -0.2452 -0.0763  0.9336
 6338TIP3   OH240572   6.204   1.068   1.531 -0.2571 -0.0389 -0.1523
 6338TIP3    H140573   6.231   1.038   1.618  1.1889  1.7210  0.0720
 6338TIP3    H240574   6.111   1.089   1.540  0.2093  1.5637  1.4458
 6339TIP3   OH240575   3.084   0.032   9.175  0.4270  0.2982  0.0075
 6339TIP3    H140576   3.023   0.105   9.172  0.0716  0.1185  1.6662
 6339TIP3    H240577   3.044  -0.035   9.119 -0.4786  0.5039  0.3848
 6340TIP3   OH240578   6.272   2.985   7.730 -0.2342 -0.4251  0.1435
 6340TIP3    H140579   6.331   3.018   7.797 -0.1605 -2.4599  1.1644
 6340TIP3    H240580   6.236   3.063   7.688 -1.2506  0.9770  3.3834
 6341TIP3   OH240581   6.141   5.440   1.846 -0.3927  0.0064 -0.1469
 6341TIP3    H140582   6.178   5.353   1.836 -2.0360 -0.8199  0.5759
 6341TIP3    H240583   6.192   5.480   1.917  1.0795  0.0793 -1.2126
 6342TIP3   OH240584   3.424   1.641   0.223 -1.3003 -0.4995 -0.6232
 6342TIP3    H140585   3.336   1.658   0.189 -1.1248  1.0845 -0.3589
 6342TIP3    H240586   3.478   1.712   0.188 -0.0807 -1.5196 -0.8829
 6343TIP3   OH240587   4.753   6.106   9.306  0.1794 -0.7364 -0.4551
 6343TIP3    H140588   4.774   6.015   9.323  0.7394 -0.4688  0.3805
 6343TIP3    H240589   4.679   6.125   9.364  1.0506 -0.2617  0.5483
 6344TIP3   OH240590   4.598   2.116   0.507  0.3579  0.2447  0.2277
 6344TIP3    H140591   4.657   2.061   0.455 -0.7634  1.9362 -3.1427
 6344TIP3    H240592   4.511   2.080   0.491  0.0439  0.3653  1.5853
 6345TIP3   OH240593   4.835   5.453   1.116  0.8827 -0.9964 -0.3486
 6345TIP3    H140594   4.811   5.544   1.132  2.5400 -0.4911 -0.6245
 6345TIP3    H240595   4.765   5.420   1.059 -2.1683 -1.2769  3.1673
 6346TIP3   OH240596   1.206   4.324   6.915  0.0532 -0.1518  0.3174
 6346TIP3    H140597   1.223   4.335   6.821  1.3535  0.5572  0.6102
 6346TIP3    H240598   1.284   4.281   6.948 -0.5734 -0.7675  1.0194
 6347TIP3   OH240599   1.742   0.696   1.243  0.1453 -0.1551 -0.2501
 6347TIP3    H140600   1.818   0.751   1.264 -0.5228  0.4807  0.6175
 6347TIP3    H240601   1.667   0.749   1.270 -0.6169 -0.7244 -1.2064
 6348TIP3   OH240602   4.380   5.513   1.349 -0.2364 -0.0492  0.2363
 6348TIP3    H140603   4.368   5.601   1.383  2.1004  0.3153  0.2936
 6348TIP3    H240604   4.391   5.525   1.255 -1.9193 -0.5426 -0.0577
 6349TIP3   OH240605   5.406   3.322   8.659  0.4285 -0.2976  0.0398
 6349TIP3    H140606   5.396   3.281   8.573  1.4560  3.2005 -1.9859
 6349TIP3    H240607   5.356   3.403   8.653  3.7739  2.0965  1.0899
 6350TIP3   OH240608   3.285   1.014   1.207  0.9995 -0.0969 -0.1080
 6350TIP3    H140609   3.370   0.970   1.211  0.1943 -1.6534  0.8854
 6350TIP3    H240610   3.225   0.947   1.174 -0.3155  0.1603  1.6544
 6351TIP3   OH240611   6.325   2.238   8.300 -0.5034 -0.1350  0.0636
 6351TIP3    H140612   6.297   2.147   8.297  1.6492 -0.8515 -0.2811
 6351TIP3    H240613   6.304   2.273   8.214 -0.7916 -0.4856 -0.0107
 6352TIP3   OH240614   5.082   1.084   6.975 -0.1893 -0.1608 -0.6047
 6352TIP3    H140615   5.073   1.132   6.893 -0.8942 -0.4751 -0.7225
 6352TIP3    H240616   5.152   1.129   7.023  1.1109 -0.7265 -1.9118
 6353TIP3   OH240617   6.288   4.385   1.766 -0.3505 -0.4617 -0.2347
 6353TIP3    H140618   6.319   4.385   1.676  0.7420 -1.2836  0.1128
 6353TIP3    H240619   6.298   4.294   1.795  1.7006  0.2069  1.4702
 6354TIP3   OH240620   3.906   5.820   2.075  0.4625  0.1164  0.8474
 6354TIP3    H140621   3.879   5.897   2.026 -0.0700 -0.0025  0.9470
 6354TIP3    H240622   4.001   5.818   2.066  0.4584  0.6435  0.6387
 6355TIP3   OH240623   3.965   3.927   1.063  0.3209 -0.3029 -0.3235
 6355TIP3    H140624   4.020   3.855   1.094 -0.1247 -0.3818  0.2953
 6355TIP3    H240625   3.889   3.883   1.023  0.0288 -0.1828  0.0924
 6356TIP3   OH240626   0.242   4.118   8.019 -0.0270  0.0732  0.4641
 6356TIP3    H140627   0.283   4.126   7.933 -0.1495  0.1261  0.4111
 6356TIP3    H240628   0.312   4.084   8.076 -0.6233 -2.5056 -0.2195
 6357TIP3   OH240629   3.370   4.521   7.031 -0.3854  0.0823 -0.0935
 6357TIP3    H140630   3.302   4.462   7.063 -0.8644  0.1625 -0.9302
 6357TIP3    H240631   3.425   4.466   6.975 -0.0979  0.1495  0.1211
 6358TIP3   OH240632   1.918   2.394   7.063 -0.7417  0.4930 -0.1369
 6358TIP3    H140633   1.852   2.389   6.994 -1.2818  2.0549  0.2329
 6358TIP3    H240634   1.996   2.355   7.024 -1.3668  0.2742 -1.2185
 6359TIP3   OH240635   3.416   3.177   9.147 -0.5494 -0.3317 -0.1440
 6359TIP3    H140636   3.469   3.102   9.120 -1.5193 -0.7729 -0.9113
 6359TIP3    H240637   3.456   3.207   9.228  1.5711  0.0740 -1.2669
 6360TIP3   OH240638   2.606   4.945   0.016 -0.2169 -0.3976 -0.3538
 6360TIP3    H140639   2.514   4.918   0.004 -0.3733 -0.3018  0.5558
 6360TIP3    H240640   2.646   4.871   0.062  0.0897 -0.3124 -0.4873
 6361TIP3   OH240641   5.624   6.547   9.270 -0.3288 -0.0431  0.8147
 6361TIP3    H140642   5.590   6.553   9.360 -0.5779 -0.0157  0.7181
 6361TIP3    H240643   5.685   6.621   9.263 -0.3343 -0.0242  0.9497
 6362TIP3   OH240644   1.942   6.441   1.513 -0.2320 -0.2606  0.2423
 6362TIP3    H140645   1.863   6.439   1.458 -0.1301  1.4703 -0.0186
 6362TIP3    H240646   2.012   6.467   1.453  0.1895  0.0670  0.8672
 6363TIP3   OH240647   4.170   0.316   6.953 -0.3436  0.5179  0.2838
 6363TIP3    H140648   4.142   0.247   7.013  1.4740 -1.1789 -0.7047
 6363TIP3    H240649   4.256   0.287   6.922  1.4752  4.2165  1.3511
 6364TIP3   OH240650   2.288   1.679   1.831 -0.2394  0.0209 -0.3707
 6364TIP3    H140651   2.205   1.649   1.868  0.0353  0.7613  0.9198
 6364TIP3    H240652   2.265   1.759   1.783 -0.1572  0.7952  0.8278
 6365TIP3   OH240653   6.208   5.355   8.340 -0.2896 -0.0559  0.1667
 6365TIP3    H140654   6.245   5.267   8.334  0.1242  0.1670 -0.8155
 6365TIP3    H240655   6.153   5.353   8.418  1.3958 -0.5562  1.4165
 6366TIP3   OH240656   0.170   4.647   0.118  0.1705  0.0521  0.0781
 6366TIP3    H140657   0.217   4.710   0.063 -0.0058  0.6670  0.6257
 6366TIP3    H240658   0.133   4.584   0.056  2.2795 -0.8680 -0.3577
 6367TIP3   OH240659   1.226   3.049   8.008  0.5780  0.0513  0.3947
 6367TIP3    H140660   1.191   2.982   7.949  0.5484  0.0824  0.3774
 6367TIP3    H240661   1.179   3.129   7.985  0.1034 -0.0745  0.8786
 6368TIP3   OH240662   2.804   3.745   7.880  0.1995  0.0795 -0.4671
 6368TIP3    H140663   2.821   3.762   7.973 -2.0878 -1.9373  0.4220
 6368TIP3    H240664   2.878   3.691   7.852  0.8402  0.5838  0.2115
 6369TIP3   OH240665   4.417   4.017   0.410 -0.5469  0.2149  0.3625
 6369TIP3    H140666   4.473   3.984   0.339 -0.3168  0.1276  0.5834
 6369TIP3    H240667   4.362   3.942   0.434 -0.5019  0.1931  0.3973
 6370TIP3   OH240668   6.438   5.140   1.797  0.1319 -0.3041  0.1092
 6370TIP3    H140669   6.518   5.157   1.747  0.5462 -0.1294  0.8257
 6370TIP3    H240670   6.367   5.151   1.733  0.6636 -0.2755 -0.4860
 6371TIP3   OH240671   0.214   0.222   1.724  0.3008  0.4230 -0.1823
 6371TIP3    H140672   0.247   0.161   1.659  0.7154  2.2786 -1.8094
 6371TIP3    H240673   0.286   0.233   1.786 -0.6851 -2.6540  1.6860
 6372TIP3   OH240674   3.866   6.485   0.038 -0.0645 -0.3777 -0.1182
 6372TIP3    H140675   3.886   6.520   0.125  0.3646  0.4617 -0.5472
 6372TIP3    H240676   3.772   6.501   0.028 -0.2633 -1.1061  0.4596
 6373TIP3   OH240677   0.565   1.467   7.813  0.0909 -0.0518  0.5719
 6373TIP3    H140678   0.518   1.537   7.859 -1.1035 -1.6876  2.0035
 6373TIP3    H240679   0.594   1.408   7.883  0.2914 -1.4145 -0.6169
 6374TIP3   OH240680   0.649   6.466   1.386  0.6233 -0.2865 -0.2240
 6374TIP3    H140681   0.709   6.514   1.443 -0.0019  0.5484 -0.2404
 6374TIP3    H240682   0.673   6.493   1.298 -0.2369  0.6414 -0.1950
 6375TIP3   OH240683   1.482   3.225   8.340  0.1693 -0.1278  0.1018
 6375TIP3    H140684   1.486   3.246   8.433 -0.8370 -0.3371  0.2050
 6375TIP3    H240685   1.406   3.273   8.308  0.1467 -0.5376 -0.4839
 6376TIP3   OH240686   1.236   5.588   2.521  0.7017  0.3866  0.0100
 6376TIP3    H140687   1.196   5.513   2.476  0.9385 -0.4903  1.2231
 6376TIP3    H240688   1.171   5.613   2.587  1.6832 -0.4035  1.3179
 6377TIP3   OH240689   2.065   4.049   7.919  0.0397  0.5792 -0.3428
 6377TIP3    H140690   2.140   4.012   7.873 -1.8660  0.0319 -3.2377
 6377TIP3    H240691   2.088   4.041   8.012  3.2595 -0.0951 -1.0750
 6378TIP3   OH240692   3.487   4.780   1.734 -0.2354 -0.4586  0.4134
 6378TIP3    H140693   3.522   4.777   1.823  0.4243  0.9570  0.2208
 6378TIP3    H240694   3.563   4.769   1.678 -0.4098  0.4067  0.0026
 6379TIP3   OH240695   0.975   5.990   7.492  0.7999 -0.1987 -0.0169
 6379TIP3    H140696   0.887   6.018   7.517  0.0126 -2.2255 -0.3696
 6379TIP3    H240697   0.967   5.897   7.474  2.6388 -0.0691 -1.8736
 6380TIP3   OH240698   0.503   3.066   1.302  0.6792  0.4205 -0.1611
 6380TIP3    H140699   0.578   3.045   1.357  0.3531 -0.0869  0.0990
 6380TIP3    H240700   0.484   3.158   1.320 -0.2316 -0.0652  1.5568
 6381TIP3   OH240701   3.271   4.551   8.396 -0.2684  0.1286 -0.0201
 6381TIP3    H140702   3.213   4.546   8.471 -3.6857  0.4007 -2.3978
 6381TIP3    H240703   3.303   4.462   8.383  0.6086  0.1275  1.7892
 6382TIP3   OH240704   4.987   5.908   1.272  0.3252  0.2720  0.0821
 6382TIP3    H140705   5.013   5.984   1.220 -0.4781  0.3369 -0.2414
 6382TIP3    H240706   5.069   5.869   1.301  0.7588  2.5628  2.2249
 6383TIP3   OH240707   5.159   2.602   0.998  0.7563  0.0739 -0.1824
 6383TIP3    H140708   5.102   2.616   0.922  0.1015 -1.0078  0.0751
 6383TIP3    H240709   5.232   2.551   0.963  0.8783  0.2903 -0.2447
 6384TIP3   OH240710   2.556   5.783   2.124 -0.6474  0.6510  0.2620
 6384TIP3    H140711   2.466   5.795   2.094 -0.5678  0.7332  0.0515
 6384TIP3    H240712   2.581   5.697   2.089 -0.5016  0.8165 -0.0455
 6385TIP3   OH240713   4.923   4.195   7.255 -0.0348  0.2567  0.3593
 6385TIP3    H140714   4.917   4.287   7.281 -2.6578  0.2403  0.0837
 6385TIP3    H240715   4.920   4.198   7.159  0.3159 -0.0953  0.3369
 6386TIP3   OH240716   2.440   0.761   1.841  0.0959 -0.2196 -0.3696
 6386TIP3    H140717   2.441   0.771   1.746 -1.0490 -2.4260 -0.6746
 6386TIP3    H240718   2.380   0.688   1.857  1.2391 -0.7424  1.9770
 6387TIP3   OH240719   6.434   3.304   9.276 -0.1644  0.4934  0.2312
 6387TIP3    H140720   6.461   3.227   9.327 -1.1729  0.1438  0.2635
 6387TIP3    H240721   6.356   3.275   9.229 -0.1201  1.2789 -0.3380
 6388TIP3   OH240722   5.574   1.003   8.444 -0.5384  0.5260 -0.0422
 6388TIP3    H140723   5.584   1.007   8.539  0.9448  2.0965 -0.2179
 6388TIP3    H240724   5.486   1.036   8.427 -0.6250  0.7148  0.7661
 6389TIP3   OH240725   6.520   0.129   8.377 -0.5627 -0.3251  0.0957
 6389TIP3    H140726   6.526   0.046   8.425 -0.4864 -0.0797  0.5084
 6389TIP3    H240727   6.498   0.103   8.288  1.3209 -0.9239 -0.2322
 6390TIP3   OH240728   4.869   2.642   0.668 -0.1994  0.3389  0.2534
 6390TIP3    H140729   4.890   2.550   0.685  0.0277  0.1391 -1.0141
 6390TIP3    H240730   4.945   2.675   0.619 -0.8623  0.8312 -0.4610
 6391TIP3   OH240731   2.587   5.549   0.930  0.1103  0.2397  0.2932
 6391TIP3    H140732   2.632   5.523   0.850  1.4870  1.2481  0.7187
 6391TIP3    H240733   2.654   5.546   0.998 -0.9755 -0.3542  1.3864
 6392TIP3   OH240734   3.248   2.475   8.800  0.5117  0.3930 -0.3703
 6392TIP3    H140735   3.236   2.394   8.751  0.0193 -0.1628  0.6380
 6392TIP3    H240736   3.338   2.501   8.783  0.5882 -0.2122 -0.9190
 6393TIP3   OH240737   2.974   1.370   9.326 -0.5279 -0.4311  0.2164
 6393TIP3    H140738   3.035   1.409   9.264 -2.3117  1.5360 -0.4097
 6393TIP3    H240739   3.025   1.360   9.407  0.7345  0.7382 -0.3983
 6394TIP3   OH240740   4.814   5.139   0.652  0.4897  0.5643  0.1393
 6394TIP3    H140741   4.900   5.114   0.618  0.2187  2.1015 -1.8675
 6394TIP3    H240742   4.766   5.057   0.659  2.0732 -0.3191  1.2591
 6395TIP3   OH240743   0.102   0.275   0.156 -0.7261  0.1615  0.3021
 6395TIP3    H140744   0.165   0.220   0.202  1.1465  0.2646 -1.9572
 6395TIP3    H240745   0.155   0.333   0.101 -2.7196  2.4155  0.5728
 6396TIP3   OH240746   5.759   3.934   1.777  0.0170 -0.2857  0.2905
 6396TIP3    H140747   5.845   3.969   1.802 -0.4638  0.9011  0.3642
 6396TIP3    H240748   5.739   3.868   1.843  1.5456 -1.7274 -0.6020
 6397TIP3   OH240749   2.806   3.836   0.601 -0.3090 -0.1515  0.2506
 6397TIP3    H140750   2.716   3.803   0.605 -0.4601  0.0788 -1.0298
 6397TIP3    H240751   2.832   3.827   0.510  0.6700  0.5876  0.4359
 6398TIP3   OH240752   0.572   0.854   1.619 -0.1963  0.1854 -0.2244
 6398TIP3    H140753   0.641   0.804   1.663 -0.2847  0.5777  0.3700
 6398TIP3    H240754   0.596   0.945   1.632  0.1124  0.3140 -1.5526
 6399TIP3   OH240755   3.203   1.661   2.525  0.0375 -0.3294  0.1937
 6399TIP3    H140756   3.167   1.690   2.442  0.8072 -1.4053 -0.5417
 6399TIP3    H240757   3.294   1.691   2.523  0.0451 -0.3048  0.6859
 6400TIP3   OH240758   0.974   5.365   8.762  0.5305  0.1582 -0.5111
 6400TIP3    H140759   0.962   5.395   8.672  1.5483  0.8754 -0.4306
 6400TIP3    H240760   0.984   5.445   8.814  0.7646 -0.2629  0.1115
 6401TIP3   OH240761   6.277   5.850   8.542 -0.0798 -0.7286 -0.0673
 6401TIP3    H140762   6.252   5.766   8.504  0.2498 -0.6727 -0.4177
 6401TIP3    H240763   6.195   5.888   8.572 -0.3150 -0.8909 -0.4883
 6402TIP3   OH240764   6.264   3.999   8.202  0.1517 -0.1559 -0.1864
 6402TIP3    H140765   6.182   3.971   8.244  0.9869 -1.3875  0.6938
 6402TIP3    H240766   6.318   4.031   8.275  1.5036 -2.0080 -0.3285
 6403TIP3   OH240767   6.496   3.954   7.609  0.0636  0.1777  0.1555
 6403TIP3    H140768   6.545   3.925   7.532 -0.7142 -1.8811  0.3513
 6403TIP3    H240769   6.405   3.933   7.588 -0.6504  2.7725  0.2923
 6404TIP3   OH240770   5.849   0.697   7.871  0.4919  0.4869 -0.2177
 6404TIP3    H140771   5.771   0.691   7.926 -0.6023 -1.3170 -1.7986
 6404TIP3    H240772   5.906   0.627   7.902  0.5935  0.5304 -0.3044
 6405TIP3   OH240773   3.478   1.952   8.730  0.9632 -0.3988  0.1364
 6405TIP3    H140774   3.443   2.015   8.792 -0.2838 -0.5937 -0.3326
 6405TIP3    H240775   3.484   2.000   8.647  2.1559 -0.2740  0.2765
 6406TIP3   OH240776   4.913   4.916   6.576 -0.1541  0.3021 -0.3558
 6406TIP3    H140777   4.896   4.977   6.648 -0.5581  2.0927 -1.8947
 6406TIP3    H240778   4.835   4.921   6.521  1.1616  0.9365 -2.2515
 6407TIP3   OH240779   1.114   4.366   1.736 -0.2320  0.1542 -0.2057
 6407TIP3    H140780   1.034   4.348   1.686  0.8704 -2.4678 -1.2381
 6407TIP3    H240781   1.129   4.460   1.726 -3.3157  0.8021  0.3146
 6408TIP3   OH240782   4.753   2.258   0.136  0.0842 -0.3400 -0.1088
 6408TIP3    H140783   4.773   2.325   0.071  0.2621  0.1247  0.4192
 6408TIP3    H240784   4.659   2.243   0.128 -0.3445  1.4507  1.1477
 6409TIP3   OH240785   5.548   4.550   7.709  0.3783 -0.1479 -0.0856
 6409TIP3    H140786   5.477   4.488   7.727  0.3848 -0.7054 -1.7391
 6409TIP3    H240787   5.569   4.535   7.616  2.4970  0.1748  0.2974
 6410TIP3   OH240788   4.295   6.193   7.799 -0.1989  0.5923  0.1093
 6410TIP3    H140789   4.374   6.161   7.843 -0.8950 -2.2349 -0.4874
 6410TIP3    H240790   4.237   6.221   7.870  0.0538 -0.5531  0.7921
 6411TIP3   OH240791   1.862   4.911   0.491  0.1938  0.1209 -0.3532
 6411TIP3    H140792   1.883   4.850   0.561  0.5629 -0.2769 -0.8006
 6411TIP3    H240793   1.877   4.998   0.529 -3.4393  0.1859  1.3706
 6412TIP3   OH240794   2.939   3.949   9.132  0.1326 -0.1099  0.2550
 6412TIP3    H140795   2.944   3.920   9.223 -1.2955  0.7760  0.6519
 6412TIP3    H240796   3.028   3.976   9.110  0.4205  0.0242  1.5314
 6413TIP3   OH240797   1.337   3.019   8.580  0.3755  0.3145  0.2612
 6413TIP3    H140798   1.307   3.106   8.606 -0.1963 -0.5903  2.9281
 6413TIP3    H240799   1.257   2.967   8.570  0.7580 -0.1843 -0.3242
 6414TIP3   OH240800   0.215   0.260   7.837  0.4783  0.3344 -0.0840
 6414TIP3    H140801   0.190   0.316   7.763  2.1189 -0.5803 -1.3752
 6414TIP3    H240802   0.223   0.173   7.799 -2.9978 -1.1243  2.0734
 6415TIP3   OH240803   6.466   5.607   0.944 -0.4158  0.0633  0.1839
 6415TIP3    H140804   6.507   5.643   0.866 -0.7144 -1.4624 -0.7307
 6415TIP3    H240805   6.494   5.664   1.015  1.6881  0.2245 -0.7070
 6416TIP3   OH240806   3.981   3.751   0.714 -0.1917 -0.3933 -0.0084
 6416TIP3    H140807   4.005   3.842   0.733  1.7519 -0.8417 -0.1621
 6416TIP3    H240808   3.931   3.723   0.791 -0.2524  0.5944  0.3255
 6417TIP3   OH240809   3.847   4.559   0.276 -0.1427  0.8397  0.0982
 6417TIP3    H140810   3.874   4.606   0.354 -4.1003  2.6950  0.5459
 6417TIP3    H240811   3.789   4.619   0.229 -3.9182 -2.7174 -0.3549
 6418TIP3   OH240812   2.220   0.902   1.177  0.0649 -0.3912  0.1969
 6418TIP3    H140813   2.194   0.987   1.211  1.6779 -0.7789  2.6583
 6418TIP3    H240814   2.147   0.874   1.122 -0.7164  2.3185 -0.2822
 6419TIP3   OH240815   4.667   5.093   6.624  0.2735  0.0227  0.1883
 6419TIP3    H140816   4.670   5.184   6.592 -0.7868 -0.6636 -2.0593
 6419TIP3    H240817   4.668   5.040   6.545  0.3458 -1.9392  1.4447
 6420TIP3   OH240818   4.909   3.994   7.951 -1.2129  0.2747 -0.0906
 6420TIP3    H140819   4.883   3.983   8.043 -0.7731  1.5895  0.2186
 6420TIP3    H240820   4.929   3.905   7.921  1.2961  0.0383  1.9319
 6421TIP3   OH240821   0.847   3.134   0.137  0.6591 -0.3419 -0.2311
 6421TIP3    H140822   0.811   3.210   0.091  1.0798 -0.7369 -1.2462
 6421TIP3    H240823   0.804   3.135   0.222 -1.1872 -0.3815 -1.1212
 6422TIP3   OH240824   2.385   0.048   1.405  0.5044  0.1477 -0.3354
 6422TIP3    H140825   2.325   0.067   1.476  1.0081  2.0607 -0.3630
 6422TIP3    H240826   2.394   0.131   1.358  0.9087 -0.8325 -2.0714
 6423TIP3   OH240827   5.218   6.308   7.751  0.3318 -0.2520  0.0093
 6423TIP3    H140828   5.246   6.229   7.706 -1.2085 -0.2859 -0.9644
 6423TIP3    H240829   5.130   6.287   7.783  0.8022  0.2954  1.7704
 6424TIP3   OH240830   0.001   4.400   1.292  0.0764  0.0162 -0.2541
 6424TIP3    H140831   0.056   4.352   1.231  1.0864  1.9089 -0.9025
 6424TIP3    H240832   0.056   4.470   1.325 -1.8561  1.9342 -0.8299
 6425TIP3   OH240833   0.004   2.656   0.107 -0.4361  0.1157  0.1488
 6425TIP3    H140834   0.049   2.591   0.053  0.7828  0.2301  1.0100
 6425TIP3    H240835  -0.075   2.678   0.056  1.3454  1.2880 -2.3101
 6426TIP3   OH240836   1.080   2.277   0.746  0.6007  0.4426 -0.7113
 6426TIP3    H140837   1.018   2.273   0.674  1.3544 -0.5229 -1.3316
 6426TIP3    H240838   1.074   2.367   0.778  0.0398  0.8015 -1.7772
 6427TIP3   OH240839   2.910   0.864   1.766 -0.0381 -0.6417 -0.1504
 6427TIP3    H140840   2.852   0.886   1.692  0.2163 -0.8544 -0.4159
 6427TIP3    H240841   2.860   0.890   1.843 -0.3281 -0.4558 -0.3936
 6428TIP3   OH240842   5.941   1.100   7.847  0.5046 -0.6918 -0.1172
 6428TIP3    H140843   6.015   1.041   7.858  1.0436  0.1981  1.2587
 6428TIP3    H240844   5.951   1.165   7.916 -1.5657 -0.5312  0.0976
 6429TIP3   OH240845   1.059   3.500   0.241 -0.2547 -0.1652  0.2485
 6429TIP3    H140846   1.063   3.421   0.188 -3.5487  1.0813 -2.2398
 6429TIP3    H240847   1.127   3.557   0.205  0.5807 -0.9772  0.5018
 6430TIP3   OH240848   1.706   2.423   6.879  0.3217  0.0167 -0.4430
 6430TIP3    H140849   1.683   2.342   6.834  0.3502 -1.3016  1.7396
 6430TIP3    H240850   1.636   2.435   6.943  0.8920  1.1190 -0.0036
 6431TIP3   OH240851   1.721   3.582   2.093 -0.2164 -0.4626  0.2894
 6431TIP3    H140852   1.753   3.631   2.169 -2.3067  0.4594  0.6467
 6431TIP3    H240853   1.626   3.592   2.097 -0.4348 -1.2192 -1.9054
 6432TIP3   OH240854   4.699   1.625   0.050  0.4108 -0.5486 -0.0129
 6432TIP3    H140855   4.721   1.654  -0.039  0.8657 -1.7147 -0.2882
 6432TIP3    H240856   4.740   1.539   0.058 -2.0457 -1.7773  0.2830
 6433TIP3   OH240857   4.250   5.895   8.380 -0.0011 -0.0227 -0.2115
 6433TIP3    H140858   4.207   5.911   8.296 -0.2704  1.3211  0.1537
 6433TIP3    H240859   4.182   5.913   8.445 -0.2681 -2.5477  0.3094
 6434TIP3   OH240860   2.101   1.437   9.216  0.4940 -0.2277 -0.4951
 6434TIP3    H140861   2.043   1.434   9.141  0.9643 -1.1255 -0.8353
 6434TIP3    H240862   2.122   1.346   9.234 -0.0148 -0.0800  1.0513
 6435TIP3   OH240863   0.739   3.316   8.732  0.0837 -0.0801  0.2931
 6435TIP3    H140864   0.829   3.328   8.761 -0.0798  0.9918  0.3924
 6435TIP3    H240865   0.719   3.395   8.682 -1.5182  0.8201  2.1968
 6436TIP3   OH240866   3.126   2.827   1.910 -0.2448  0.5724  0.4645
 6436TIP3    H140867   3.056   2.867   1.860  0.3453  1.7051  0.5221
 6436TIP3    H240868   3.113   2.858   2.000 -0.8026 -0.7741  0.8766
 6437TIP3   OH240869   4.364   1.309   8.504 -0.4016 -0.1705 -0.2791
 6437TIP3    H140870   4.374   1.262   8.587  0.0937 -1.5566 -1.1020
 6437TIP3    H240871   4.271   1.331   8.500 -0.8809 -2.0676 -0.3744
 6438TIP3   OH240872   5.356   1.373   6.731  0.6029 -0.2795 -0.1659
 6438TIP3    H140873   5.364   1.367   6.826 -0.5310 -1.0724 -0.1025
 6438TIP3    H240874   5.397   1.457   6.709  0.5217  0.1047  1.0620
 6439TIP3   OH240875   5.642   5.580   8.424  0.3520 -0.1802  0.3475
 6439TIP3    H140876   5.570   5.631   8.461  1.8534  0.9189  1.8934
 6439TIP3    H240877   5.642   5.499   8.474  0.0976 -0.2472  0.2398
 6440TIP3   OH240878   4.378   4.549   7.736 -0.9803  0.0781  0.5725
 6440TIP3    H140879   4.425   4.593   7.807 -1.9827  1.2856  0.5247
 6440TIP3    H240880   4.318   4.616   7.703 -1.5726 -0.9311 -0.4310
 6441TIP3   OH240881   1.295   5.161   8.058 -0.1859 -0.5512  0.3008
 6441TIP3    H140882   1.317   5.119   8.141  1.3894 -0.3347  0.0154
 6441TIP3    H240883   1.213   5.207   8.076 -0.1010 -0.8532  1.6033
 6442TIP3   OH240884   3.017   2.617   9.158  0.6247  0.1709  1.3115
 6442TIP3    H140885   3.040   2.654   9.073  0.1305 -2.9418 -0.3086
 6442TIP3    H240886   3.094   2.635   9.213  2.0506  0.0476 -0.5394
 6443TIP3   OH240887   1.560   3.055   6.827 -0.2649  0.7200  0.0178
 6443TIP3    H140888   1.506   3.092   6.757  0.6011 -1.9518 -2.2693
 6443TIP3    H240889   1.650   3.072   6.800  0.0899 -0.4048  0.4266
 6444TIP3   OH240890   5.127   0.385   7.731 -0.3217  0.0768  0.0812
 6444TIP3    H140891   5.173   0.306   7.700 -1.2758  0.5311 -2.8475
 6444TIP3    H240892   5.086   0.358   7.813  1.1264 -1.7925  0.2675
 6445TIP3   OH240893   0.080   2.183   0.347  0.2111 -0.2805 -0.4697
 6445TIP3    H140894   0.002   2.214   0.393  0.6814 -1.0671  0.9602
 6445TIP3    H240895   0.148   2.184   0.415  1.4458  0.3679 -1.6783
 6446TIP3   OH240896   4.424   5.644   7.147  0.4497  0.8738 -0.2666
 6446TIP3    H140897   4.439   5.739   7.146 -0.5799  1.2175  3.4809
 6446TIP3    H240898   4.331   5.635   7.166  1.0546 -0.7864  2.3237
 6447TIP3   OH240899   5.452   0.577   8.608 -0.0797  0.0799 -0.3950
 6447TIP3    H140900   5.371   0.603   8.564  1.0441  0.1028 -2.6257
 6447TIP3    H240901   5.486   0.505   8.555  2.0699  1.0259 -0.4220
 6448TIP3   OH240902   2.062   6.476   1.004  0.5486  0.2787 -0.0472
 6448TIP3    H140903   2.129   6.543   1.018  0.3485  0.6854 -0.9254
 6448TIP3    H240904   1.980   6.517   1.032  0.6686 -0.2340  1.0687
 6449TIP3   OH240905   0.424   4.181   0.676  0.0734  0.0408  0.0302
 6449TIP3    H140906   0.453   4.273   0.681 -0.8347  0.3598 -0.3557
 6449TIP3    H240907   0.371   4.178   0.597 -0.3901 -0.6872  0.3701
 6450TIP3   OH240908   5.390   1.264   1.677 -0.5798  0.4563 -0.4134
 6450TIP3    H140909   5.411   1.353   1.651  2.6015 -0.8507 -3.0465
 6450TIP3    H240910   5.349   1.225   1.599 -0.1558 -0.9017  0.0072
 6451TIP3   OH240911   2.327   1.423   7.257 -0.1530  0.0043 -0.5145
 6451TIP3    H140912   2.247   1.449   7.302 -1.4881  0.1869 -2.8081
 6451TIP3    H240913   2.302   1.345   7.207  1.5688 -0.8900 -0.0617
 6452TIP3   OH240914   3.500   1.609   0.859  0.2425 -0.1531  0.4431
 6452TIP3    H140915   3.542   1.538   0.810  2.3692  1.2007  0.1511
 6452TIP3    H240916   3.472   1.568   0.941  0.1091 -1.6216 -0.3099
 6453TIP3   OH240917   5.669   2.306   0.943 -0.3552  0.1970 -0.6297
 6453TIP3    H140918   5.677   2.214   0.969 -0.3604 -0.0199 -1.3951
 6453TIP3    H240919   5.612   2.344   1.010 -0.4330 -0.3780 -0.3629
 6454TIP3   OH240920   2.921   2.986   7.411 -0.3545  0.0650 -0.3602
 6454TIP3    H140921   2.961   3.012   7.328  2.0625 -0.4450  0.5499
 6454TIP3    H240922   2.906   3.069   7.458 -0.5990  0.2800 -0.8130
 6455TIP3   OH240923   2.565   6.088   2.260 -0.3043 -0.0667  0.2708
 6455TIP3    H140924   2.601   6.012   2.305  1.8763  0.1595 -0.9131
 6455TIP3    H240925   2.532   6.144   2.330 -0.7335 -1.4856  1.2525
 6456TIP3   OH240926   2.779   2.088   0.116  0.2262 -0.1952 -0.3501
 6456TIP3    H140927   2.826   2.143   0.180  1.1378 -1.0028 -0.2911
 6456TIP3    H240928   2.815   2.114   0.032 -0.6921  0.5932 -0.5073
 6457TIP3   OH240929   4.376   5.318   7.427 -0.5280  0.1683 -0.2097
 6457TIP3    H140930   4.452   5.290   7.375 -0.2853 -1.1656  0.8240
 6457TIP3    H240931   4.325   5.238   7.439 -1.0669  0.6531  0.7991
 6458TIP3   OH240932   5.785   5.034   1.213  0.0220  0.5594 -0.2203
 6458TIP3    H140933   5.872   4.995   1.203  0.7699  2.1675 -0.4022
 6458TIP3    H240934   5.735   5.001   1.139  0.3369 -0.7163  0.1150
 6459TIP3   OH240935   0.836   2.743   0.361  0.0689  0.0879  0.2117
 6459TIP3    H140936   0.844   2.738   0.456  0.8728 -1.1872  0.1102
 6459TIP3    H240937   0.743   2.760   0.345  0.2049  1.9941  1.2343
 6460TIP3   OH240938   4.210   6.011   0.175  0.2118 -0.0909 -0.0376
 6460TIP3    H140939   4.208   5.963   0.258 -1.0665  0.3823  0.2285
 6460TIP3    H240940   4.252   5.951   0.114  0.8966 -0.5682  0.8824
 6461TIP3   OH240941   4.688   3.906   8.125 -0.0053 -0.4429 -0.6995
 6461TIP3    H140942   4.683   3.940   8.036 -1.7824 -1.7687 -1.1775
 6461TIP3    H240943   4.612   3.944   8.169  0.5172 -0.2804  0.0608
 6462TIP3   OH240944   2.021   1.600   8.410  0.4717 -0.6703 -0.1315
 6462TIP3    H140945   2.061   1.687   8.414 -0.7503 -0.0943  0.1274
 6462TIP3    H240946   1.940   1.613   8.362 -1.6577 -0.8288  3.0929
 6463TIP3   OH240947   4.635   5.686   1.833 -0.2533  0.2399  0.1147
 6463TIP3    H140948   4.571   5.723   1.894 -2.2505 -0.2694 -1.5424
 6463TIP3    H240949   4.607   5.717   1.747  2.3643  0.7822 -0.6165
 6464TIP3   OH240950   1.015   1.241   7.252 -0.3773 -0.2094  0.5813
 6464TIP3    H140951   1.086   1.233   7.316  1.2690  0.2276 -1.1062
 6464TIP3    H240952   0.967   1.319   7.279  0.9672  0.6158  0.6549
 6465TIP3   OH240953   2.583   3.720   0.478 -0.2899 -0.1320 -0.6266
 6465TIP3    H140954   2.535   3.775   0.416 -1.1654  1.1395  1.0731
 6465TIP3    H240955   2.539   3.636   0.475 -0.5713  0.0334 -1.4221
 6466TIP3   OH240956   6.217   0.128   1.430 -0.1337  0.2201 -0.2182
 6466TIP3    H140957   6.126   0.118   1.458  0.5219  0.9557  2.5554
 6466TIP3    H240958   6.239   0.218   1.454  0.9974  0.4466 -1.9954
 6467TIP3   OH240959   1.175   4.161   8.028 -0.1581 -0.2756 -0.1935
 6467TIP3    H140960   1.114   4.153   8.101 -0.8534 -0.4604 -0.7924
 6467TIP3    H240961   1.253   4.202   8.067 -0.8493  0.4474  0.4676
 6468TIP3   OH240962   3.455   3.336   0.955  0.1644 -0.0040  0.0311
 6468TIP3    H140963   3.383   3.295   0.907 -0.0061  0.7149 -0.3435
 6468TIP3    H240964   3.421   3.347   1.044  0.1438 -0.5009  0.0846
 6469TIP3   OH240965   1.958   3.024   7.276 -0.1984 -0.7184 -0.5871
 6469TIP3    H140966   1.887   3.070   7.321 -0.1914 -2.6311  1.6059
 6469TIP3    H240967   1.924   3.007   7.188 -2.7051 -1.9603  0.5182
 6470TIP3   OH240968   3.900   5.024   0.957 -0.0746  0.3923  0.3345
 6470TIP3    H140969   3.971   5.072   1.000 -0.5850  0.1774  1.4489
 6470TIP3    H240970   3.887   5.070   0.874  0.7011  1.0308  0.5486
 6471TIP3   OH240971   3.993   5.813   0.904 -0.0922 -0.1239  0.1420
 6471TIP3    H140972   3.931   5.783   0.838 -2.6594 -0.4013  2.5307
 6471TIP3    H240973   3.946   5.880   0.953  2.0813  0.7732  1.1366
 6472TIP3   OH240974   2.958   5.694   9.235  0.2803  0.1751  0.4393
 6472TIP3    H140975   2.905   5.653   9.303 -0.9527  0.0520 -0.5426
 6472TIP3    H240976   3.043   5.711   9.276  0.1665 -1.5240  1.4484
 6473TIP3   OH240977   0.906   5.301   7.497 -0.3143  0.0308 -0.3820
 6473TIP3    H140978   0.884   5.247   7.421  1.0663 -1.4141  0.1762
 6473TIP3    H240979   0.843   5.372   7.495 -0.4704 -0.0932 -2.7354
 6474TIP3   OH240980   2.511   1.636   9.241  0.1652  0.5533 -0.1307
 6474TIP3    H140981   2.502   1.726   9.273  1.3792  0.4174  0.6517
 6474TIP3    H240982   2.596   1.607   9.274  0.1661 -0.6006 -1.0869
 6475TIP3   OH240983   1.061   2.793   1.286  0.0568  0.0045 -0.6973
 6475TIP3    H140984   1.090   2.799   1.377 -1.5751  0.5430 -0.1743
 6475TIP3    H240985   1.062   2.699   1.267  1.4922 -0.0422 -0.5314
 6476TIP3   OH240986   5.665   3.561   7.690  0.3979 -0.3223  0.3052
 6476TIP3    H140987   5.668   3.594   7.600  2.9053 -0.6382  0.1936
 6476TIP3    H240988   5.726   3.487   7.691 -0.9426 -1.4862  1.8649
 6477TIP3   OH240989   5.827   2.848   0.007  0.0863  0.1798  0.0433
 6477TIP3    H140990   5.887   2.917  -0.023  1.0454 -0.9773 -0.7830
 6477TIP3    H240991   5.789   2.813  -0.073  2.1042 -2.4456  0.0935
 6478TIP3   OH240992   4.981   0.757   8.526  0.5125  0.0053 -0.4570
 6478TIP3    H140993   4.969   0.668   8.560 -0.9500  0.6292  0.7335
 6478TIP3    H240994   4.923   0.762   8.450 -0.4452  0.3399  0.2753
 6479TIP3   OH240995   1.675   2.853   8.212  0.5474  0.5614 -0.4681
 6479TIP3    H140996   1.602   2.914   8.219 -1.9414 -2.3345  1.2152
 6479TIP3    H240997   1.744   2.892   8.267 -0.7765  2.0555  0.2197
 6480TIP3   OH240998   0.623   4.161   0.441 -0.2421 -0.2021  0.3087
 6480TIP3    H140999   0.567   4.092   0.476 -1.9170  1.0711  0.3158
 6480TIP3    H241000   0.643   4.217   0.516  0.8104 -0.4610  0.2397
 6481TIP3   OH241001   5.699   0.127   1.810 -0.1129  0.0608 -0.3291
 6481TIP3    H141002   5.635   0.191   1.839 -1.3830 -0.1323 -2.4729
 6481TIP3    H241003   5.676   0.047   1.858  0.6583  0.8045  1.3682
 6482TIP3   OH241004   4.502   1.115   0.879 -0.6365  0.1854  0.5202
 6482TIP3    H141005   4.593   1.143   0.894  0.5738 -2.7061 -0.7943
 6482TIP3    H241006   4.469   1.093   0.966  0.2562  0.3313  0.9036
 6483TIP3   OH241007   5.548   2.238   7.681 -0.1619 -0.2301  0.0402
 6483TIP3    H141008   5.568   2.331   7.677  0.7020 -0.4029  0.1575
 6483TIP3    H241009   5.602   2.198   7.612 -0.8463 -0.5995 -0.3055
 6484TIP3   OH241010   4.087   5.184   8.163 -0.2461 -0.4434 -0.0002
 6484TIP3    H141011   4.031   5.232   8.224  1.3025 -0.5414  1.5710
 6484TIP3    H241012   4.093   5.242   8.087 -1.1637  0.2957  0.4686
 6485TIP3   OH241013   2.606   3.547   8.654 -0.2680 -0.3211 -0.6924
 6485TIP3    H141014   2.602   3.519   8.746 -0.4906  2.3073  0.1922
 6485TIP3    H241015   2.694   3.585   8.645  0.0207 -1.2136 -1.8039
 6486TIP3   OH241016   5.967   5.906   8.533 -0.0244 -0.0618  0.0526
 6486TIP3    H141017   6.027   5.867   8.469 -0.0979  1.4239 -0.9854
 6486TIP3    H241018   5.956   5.996   8.503 -1.9408  0.0099  0.8507
 6487TIP3   OH241019   4.463   1.349   9.037  0.4959  0.3746  0.3898
 6487TIP3    H141020   4.440   1.428   9.085 -0.5712  0.5243 -0.3259
 6487TIP3    H241021   4.558   1.347   9.038  0.5250  1.3900  0.8665
 6488TIP3   OH241022   1.878   6.554   9.079 -0.2441 -0.3562  0.6485
 6488TIP3    H141023   1.853   6.645   9.097 -3.9118 -0.1331 -3.7418
 6488TIP3    H241024   1.934   6.560   9.001  0.4023 -1.8518  0.9774
 6489TIP3   OH241025   6.056   1.051   9.307 -0.1084  0.1166 -0.5919
 6489TIP3    H141026   6.099   0.977   9.349  0.1950  1.2959  1.3329
 6489TIP3    H241027   6.079   1.044   9.215  1.9872 -0.7989 -0.0547
 6490TIP3   OH241028   1.931   3.335   1.737 -0.4923 -0.7321 -0.8835
 6490TIP3    H141029   1.954   3.259   1.685 -1.2845 -1.7280  0.1844
 6490TIP3    H241030   2.005   3.395   1.726  0.7360 -2.1705 -0.7267
 6491TIP3   OH241031   0.036   3.253   8.142  0.7714 -0.3430 -0.1849
 6491TIP3    H141032   0.008   3.276   8.230  0.7291  0.3699 -0.3826
 6491TIP3    H241033   0.127   3.280   8.137  0.9237 -0.8442 -0.2000
 6492TIP3   OH241034   2.776   6.220   8.962  0.0765 -0.0129 -0.3267
 6492TIP3    H141035   2.724   6.205   9.041  0.4724 -1.6918 -0.3559
 6492TIP3    H241036   2.858   6.173   8.978 -0.5484 -1.9839 -2.4604
 6493TIP3   OH241037   1.108   4.245   7.777  0.2183  0.1852 -0.0910
 6493TIP3    H141038   1.021   4.267   7.744  0.6125 -0.1311 -1.3959
 6493TIP3    H241039   1.095   4.229   7.870 -1.0251  0.6417 -0.1704
 6494TIP3   OH241040   3.962   1.366   7.459 -0.0200 -0.6823  0.7171
 6494TIP3    H141041   3.960   1.302   7.530 -3.5283  1.6724  3.0656
 6494TIP3    H241042   3.952   1.451   7.502 -0.7519  1.0480 -2.4712
 6495TIP3   OH241043   3.486   4.201   0.598  0.0884 -0.2635  0.1951
 6495TIP3    H141044   3.462   4.180   0.689  0.2579 -0.9390  0.0815
 6495TIP3    H241045   3.409   4.246   0.563 -0.9760 -2.2014 -0.0965
 6496TIP3   OH241046   2.568   0.584   8.083  0.5777  0.3622  0.2649
 6496TIP3    H141047   2.595   0.674   8.068  0.5648  0.0115 -2.4566
 6496TIP3    H241048   2.533   0.556   7.998  1.7239 -2.5886  0.6565
 6497TIP3   OH241049   4.393   0.702   1.082 -0.6942 -0.1405  0.0255
 6497TIP3    H141050   4.383   0.681   0.989  1.8536  2.2004 -0.8923
 6497TIP3    H241051   4.303   0.715   1.113 -1.6059 -0.8334 -2.1105
 6498TIP3   OH241052   1.613   1.826   0.577  0.3288  0.0803  0.2214
 6498TIP3    H141053   1.571   1.908   0.604  1.8463  0.8044  0.4465
 6498TIP3    H241054   1.541   1.763   0.575 -0.9476  1.4705 -0.2835
 6499TIP3   OH241055   4.475   1.840   8.356  0.2493 -0.1780 -0.1027
 6499TIP3    H141056   4.508   1.911   8.412 -0.8600  0.0519  0.2817
 6499TIP3    H241057   4.454   1.769   8.416  0.6079 -0.5522 -0.4092
 6500TIP3   OH241058   0.301   0.684   6.512 -0.1534 -0.4503  0.0797
 6500TIP3    H141059   0.362   0.735   6.566 -0.8419 -0.0904  0.5327
 6500TIP3    H241060   0.318   0.713   6.423 -0.1902  0.2275  0.2834
 6501TIP3   OH241061   4.351   4.318   7.584 -0.4786  0.1115 -0.5716
 6501TIP3    H141062   4.335   4.396   7.636  0.4686 -0.1975  0.2052
 6501TIP3    H241063   4.273   4.309   7.530 -0.4001  1.8698 -1.0406
 6502TIP3   OH241064   0.697   2.931   0.612 -0.6184  0.2833  0.1124
 6502TIP3    H141065   0.675   2.996   0.679  0.6612 -0.2129  1.0718
 6502TIP3    H241066   0.717   2.852   0.662 -0.0555 -0.2283 -0.8974
 6503TIP3   OH241067   5.226   6.622   8.769  1.1182  0.1877 -0.3928
 6503TIP3    H141068   5.273   6.557   8.821  0.6458 -0.1136 -0.3323
 6503TIP3    H241069   5.146   6.577   8.741 -0.2983  1.3893  1.4733
 6504TIP3   OH241070   1.637   2.707   1.492  0.5019  0.6463 -0.2828
 6504TIP3    H141071   1.659   2.697   1.585 -0.3312  0.6274 -0.0816
 6504TIP3    H241072   1.668   2.626   1.451  1.6952  1.0434 -0.1862
 6505TIP3   OH241073   0.662   4.083   7.187  1.0502  0.0633 -0.4070
 6505TIP3    H141074   0.581   4.111   7.145  0.7835 -0.5568 -0.3047
 6505TIP3    H241075   0.717   4.052   7.114  0.8054 -0.4743 -0.3646
 6506TIP3   OH241076   4.295   0.539   2.155 -0.2480  0.1354 -0.2405
 6506TIP3    H141077   4.235   0.508   2.087 -0.7185 -1.7686  0.9817
 6506TIP3    H241078   4.251   0.519   2.237  0.4279  2.1486  0.6877
 6507TIP3   OH241079   0.798   5.684   1.340 -0.0311 -0.0670  0.1282
 6507TIP3    H141080   0.770   5.645   1.257 -1.1127 -1.1828  0.9830
 6507TIP3    H241081   0.720   5.729   1.373 -0.0683 -0.9001  1.2363
 6508TIP3   OH241082   6.099   3.753   0.674  0.7781 -0.0633  0.1893
 6508TIP3    H141083   6.041   3.818   0.712  1.7141 -0.4000  2.3001
 6508TIP3    H241084   6.186   3.793   0.675  0.8792 -0.1184 -1.5980
 6509TIP3   OH241085   1.384   4.306   1.648 -0.3122  0.0079  0.0602
 6509TIP3    H141086   1.292   4.291   1.668 -0.3079  0.1111  0.1569
 6509TIP3    H241087   1.431   4.239   1.698 -0.0766  2.0396  2.7783
 6510TIP3   OH241088   6.365   6.585   8.730  0.4287  0.3113 -0.3583
 6510TIP3    H141089   6.431   6.609   8.794  1.8433  1.3803 -2.1123
 6510TIP3    H241090   6.291   6.644   8.747  1.1971  1.2853 -0.3531
 6511TIP3   OH241091   2.144   5.673   1.059 -0.0296 -0.4643  0.0989
 6511TIP3    H141092   2.127   5.698   0.968  1.7341  0.0184 -0.1216
 6511TIP3    H241093   2.101   5.741   1.111  0.3136  0.1486 -0.4067
 6512TIP3   OH241094   2.174   3.664   2.528 -0.1882 -0.3960 -0.0734
 6512TIP3    H141095   2.254   3.715   2.514 -0.4758 -0.1451 -0.8445
 6512TIP3    H241096   2.112   3.728   2.564 -0.5402 -0.1861 -1.0129
 6513TIP3   OH241097   2.982   5.818   7.239  0.4495 -0.4626  0.4285
 6513TIP3    H141098   2.949   5.815   7.149 -0.2857  0.8402  0.6278
 6513TIP3    H241099   2.940   5.744   7.282 -1.5946  0.6211  0.4380
 6514TIP3   OH241100   0.774   0.312   8.091  0.3065 -0.1966  0.2526
 6514TIP3    H141101   0.703   0.248   8.090 -1.3677  1.5647  0.2504
 6514TIP3    H241102   0.845   0.270   8.043 -1.5230 -1.1879 -1.7890
 6515TIP3   OH241103   2.588   3.415   8.013 -0.4301 -0.3503  0.3144
 6515TIP3    H141104   2.619   3.491   8.062 -0.1431  0.1603 -0.6289
 6515TIP3    H241105   2.496   3.433   7.995 -0.6135 -0.6745  0.9081
 6516TIP3   OH241106   3.951   4.008   1.323  0.2179 -0.4424 -0.9297
 6516TIP3    H141107   3.992   3.995   1.237 -1.1021  0.3740 -1.7278
 6516TIP3    H241108   3.911   4.095   1.317 -0.7543 -0.7855  0.1592
 6517TIP3   OH241109   6.519   5.011   6.992 -0.4962  0.2385  0.2255
 6517TIP3    H141110   6.497   5.104   6.988  0.8420  0.5335 -1.0565
 6517TIP3    H241111   6.612   5.009   7.016 -0.2166 -0.7048 -0.8214
 6518TIP3   OH241112   5.534   1.071   2.218  0.1710 -0.3642 -0.5973
 6518TIP3    H141113   5.586   1.115   2.285  0.0698  1.2652 -1.5283
 6518TIP3    H241114   5.447   1.109   2.227  0.0996 -0.3005 -1.4659
 6519TIP3   OH241115   1.520   2.113   0.614  0.4270 -0.3644 -0.6256
 6519TIP3    H141116   1.549   2.200   0.641 -0.2962 -0.2266 -0.2628
 6519TIP3    H241117   1.458   2.131   0.543 -0.2197 -0.5398 -0.1147
 6520TIP3   OH241118   5.326   4.285   1.818  0.1540  0.3778 -0.6076
 6520TIP3    H141119   5.412   4.326   1.809  1.0476 -1.1366  0.6393
 6520TIP3    H241120   5.335   4.226   1.892 -1.6896 -0.5514 -1.0707
 6521TIP3   OH241121   4.482   3.578   7.276  0.2816 -0.6264  0.3492
 6521TIP3    H141122   4.389   3.598   7.269  0.9746  2.5196 -1.5110
 6521TIP3    H241123   4.492   3.495   7.229 -1.3489 -0.1505 -0.9353
 6522TIP3   OH241124   4.931   6.407   8.165 -0.2491 -0.8589 -0.1822
 6522TIP3    H141125   5.024   6.424   8.161 -0.3953  0.1058  0.3859
 6522TIP3    H241126   4.905   6.393   8.073  0.4410 -1.1321 -0.3404
 6523TIP3   OH241127   0.787   6.004   7.888  0.5108  0.2402 -0.6845
 6523TIP3    H141128   0.744   6.088   7.902 -0.8001 -0.3145 -1.2796
 6523TIP3    H241129   0.723   5.951   7.841  1.8564 -0.6127 -1.6232
 6524TIP3   OH241130   5.412   2.571   1.708  0.0906 -0.2342 -0.1538
 6524TIP3    H141131   5.424   2.664   1.725 -0.5465  0.0263 -1.0171
 6524TIP3    H241132   5.330   2.567   1.659  0.6426 -1.1474 -1.0259
 6525TIP3   OH241133   2.851   6.289   1.629 -0.1547 -0.3935  0.0766
 6525TIP3    H141134   2.910   6.349   1.675 -0.7561  0.6353 -0.4441
 6525TIP3    H241135   2.857   6.315   1.537 -2.4398  0.7245  0.1540
 6526TIP3   OH241136   4.723   1.224   2.394 -0.1536 -0.3442  0.6350
 6526TIP3    H141137   4.743   1.131   2.395  0.3120 -0.3105 -1.3583
 6526TIP3    H241138   4.628   1.229   2.387 -0.1875 -0.6592  0.8818
 6527TIP3   OH241139   2.622   3.950   7.787 -0.0570  0.6120  0.4017
 6527TIP3    H141140   2.647   3.969   7.878  1.1328 -0.5270  0.3372
 6527TIP3    H241141   2.654   3.861   7.771 -2.0730 -0.0195 -0.4922
 6528TIP3   OH241142   0.476   4.979   1.966 -0.0018 -1.0362  0.0766
 6528TIP3    H141143   0.502   4.889   1.946 -1.1231 -1.6643  1.2604
 6528TIP3    H241144   0.445   4.975   2.057 -1.0726  0.3155 -0.2025
 6529TIP3   OH241145   1.922   1.656   2.167 -0.1758 -0.2226  0.2493
 6529TIP3    H141146   1.963   1.613   2.242  1.2542 -1.0536 -0.9575
 6529TIP3    H241147   1.896   1.741   2.201  0.4061 -0.5756  1.7018
 6530TIP3   OH241148   5.797   5.447   2.167 -0.0901  0.1292  0.0739
 6530TIP3    H141149   5.738   5.380   2.203  0.3953  0.6484  1.9549
 6530TIP3    H241150   5.793   5.519   2.231 -0.5857  1.9240 -1.8626
 6531TIP3   OH241151   0.108   0.187   0.619  0.0207 -0.4381 -0.2022
 6531TIP3    H141152   0.015   0.199   0.638  0.2709  1.3803  0.0557
 6531TIP3    H241153   0.152   0.256   0.668  1.6645 -2.0519  0.7389
 6532TIP3   OH241154   3.169   1.770   8.412 -0.4879  0.1076  0.3584
 6532TIP3    H141155   3.146   1.749   8.321 -0.6169  2.7378 -0.3100
 6532TIP3    H241156   3.089   1.752   8.462 -0.8451 -0.0893 -0.2696
 6533TIP3   OH241157   3.479   0.886   1.854  0.2711  0.0618 -0.1450
 6533TIP3    H141158   3.550   0.867   1.915  1.4406  0.3225 -1.3569
 6533TIP3    H241159   3.493   0.978   1.830  0.1858 -0.1828 -1.1949
 6534TIP3   OH241160   4.286   1.297   1.647 -0.0819  0.0969  0.0823
 6534TIP3    H141161   4.301   1.323   1.738  0.4550 -3.0417  0.9983
 6534TIP3    H241162   4.374   1.292   1.609 -0.3045  1.3975 -0.6831
 6535TIP3   OH241163   2.930   5.369   2.101  0.5283  0.7652 -0.6245
 6535TIP3    H141164   2.983   5.369   2.180 -1.7292 -0.7043  1.0070
 6535TIP3    H241165   2.872   5.445   2.111  0.7367  1.0112 -1.2435
 6536TIP3   OH241166   5.358   3.059   1.729  0.8252 -0.1033 -0.3871
 6536TIP3    H141167   5.391   3.142   1.694 -0.7081  0.3670 -0.7851
 6536TIP3    H241168   5.317   3.016   1.654  0.6627 -0.7322  0.0552
 6537TIP3   OH241169   3.476   1.412   1.749 -0.4257  0.1923  0.0641
 6537TIP3    H141170   3.406   1.478   1.746  0.0527  0.6836 -0.9912
 6537TIP3    H241171   3.554   1.462   1.773 -0.3504 -0.2757  0.8056
 6538TIP3   OH241172   1.599   1.352   2.108 -0.3486 -0.1597 -0.4795
 6538TIP3    H141173   1.546   1.276   2.083 -0.5279  0.7158 -2.9786
 6538TIP3    H241174   1.535   1.416   2.140 -0.1250 -1.2522  2.5015
 6539TIP3   OH241175   2.625   5.550   8.938  0.0252 -0.1677  0.0334
 6539TIP3    H141176   2.613   5.623   8.999 -0.4569 -0.3624  0.1800
 6539TIP3    H241177   2.549   5.555   8.880  0.2086 -0.3020 -0.2197
 6540TIP3   OH241178   0.027   5.979   1.831 -0.7453  0.2580 -0.0464
 6540TIP3    H141179   0.111   5.963   1.874 -1.2302 -0.6660  0.5904
 6540TIP3    H241180  -0.012   6.051   1.880 -0.8033 -0.0450  0.3596
 6541TIP3   OH241181   0.501   1.847   1.944  0.1089 -0.5061 -0.0018
 6541TIP3    H141182   0.469   1.824   2.032  0.4925 -0.6581  0.1017
 6541TIP3    H241183   0.593   1.872   1.958 -0.2351  0.9207 -0.1372
 6542TIP3   OH241184   0.529   5.187   0.951  0.1714  0.8239 -0.1127
 6542TIP3    H141185   0.513   5.159   0.861 -1.5559 -0.4995  0.5605
 6542TIP3    H241186   0.625   5.189   0.958  0.3877 -1.6708 -1.2341
 6543TIP3   OH241187   0.443   0.479   2.316 -0.3940  0.2530 -0.0949
 6543TIP3    H141188   0.378   0.457   2.383 -0.9920  1.2220 -0.3314
 6543TIP3    H241189   0.525   0.441   2.348 -1.0985 -1.1663  0.1211
 6544TIP3   OH241190   0.806   3.911   8.579  0.2069  0.1734  0.1315
 6544TIP3    H141191   0.745   3.922   8.506 -0.1610 -2.5203 -0.0734
 6544TIP3    H241192   0.814   3.998   8.617 -2.3325  0.9889 -0.9857
 6545TIP3   OH241193   4.162   4.893   0.265 -0.0713  0.1581  0.0167
 6545TIP3    H141194   4.107   4.823   0.229 -1.4205  0.4560  1.3771
 6545TIP3    H241195   4.237   4.897   0.206 -0.4848 -1.6923 -0.7102
 6546TIP3   OH241196   0.071   2.792   8.044 -0.5016  0.3734 -0.0728
 6546TIP3    H141197   0.084   2.703   8.076 -1.0007  0.7661  1.2989
 6546TIP3    H241198  -0.016   2.792   8.006 -0.6504  0.3552  0.2618
 6547TIP3   OH241199   0.924   0.765   7.471 -0.0362 -0.9391 -0.1768
 6547TIP3    H141200   1.002   0.797   7.517 -0.8948  0.5794  0.2944
 6547TIP3    H241201   0.910   0.828   7.401 -0.9004 -1.1492 -0.2005
 6548TIP3   OH241202   1.269   2.083   0.217  0.0558 -0.1127 -0.0133
 6548TIP3    H141203   1.330   2.156   0.211  0.0871  0.0335  1.6555
 6548TIP3    H241204   1.216   2.101   0.295 -1.7981 -0.5008 -1.0991
 6549TIP3   OH241205   2.678   4.333   8.113 -0.0540  0.7611  0.5815
 6549TIP3    H141206   2.644   4.310   8.027  0.9855 -2.1149  0.8197
 6549TIP3    H241207   2.698   4.426   8.107  1.3806  0.3769 -2.8134
 6550TIP3   OH241208   3.277   0.862   0.532 -0.3792  0.0483  0.2105
 6550TIP3    H141209   3.355   0.808   0.516 -1.9689 -1.9909 -1.0160
 6550TIP3    H241210   3.289   0.939   0.476  0.0369 -1.0055 -1.1977
 6551TIP3   OH241211   6.057   5.758   7.783 -0.1952 -0.1174  0.2976
 6551TIP3    H141212   6.114   5.815   7.834 -0.2320  0.4430 -0.2762
 6551TIP3    H241213   5.983   5.740   7.841 -1.5883  2.7092 -0.4462
 6552TIP3   OH241214   5.406   0.927   0.972 -0.5277 -0.7753  0.4948
 6552TIP3    H141215   5.394   0.832   0.963 -0.8015 -0.6677 -0.3493
 6552TIP3    H241216   5.438   0.955   0.886 -1.0405 -0.0086  0.5498
 6553TIP3   OH241217   5.585   2.712   0.057  0.4313  0.1822 -0.7260
 6553TIP3    H141218   5.659   2.772   0.068 -1.1758  2.1135  0.1415
 6553TIP3    H241219   5.626   2.627   0.040  2.8216  1.5246 -2.4076
 6554TIP3   OH241220   4.640   6.515   1.329  0.0745 -0.0968  0.6696
 6554TIP3    H141221   4.564   6.549   1.375  0.4294  0.8029  0.6141
 6554TIP3    H241222   4.640   6.560   1.244 -0.3405 -1.4260 -0.0687
 6555TIP3   OH241223   4.320   4.593   1.210  0.0089 -0.0052 -0.4850
 6555TIP3    H141224   4.392   4.642   1.171  1.4596 -1.8100 -0.1949
 6555TIP3    H241225   4.272   4.557   1.136  0.3539 -0.1091 -0.6570
 6556TIP3   OH241226   6.496   2.122   0.110 -0.4965  0.5028  0.0599
 6556TIP3    H141227   6.426   2.075   0.155 -0.7823 -1.1593 -1.9621
 6556TIP3    H241228   6.502   2.206   0.156 -1.7971 -0.4512  2.1271
 6557TIP3   OH241229   2.330   3.012   8.114  0.1841 -0.1994  0.2209
 6557TIP3    H141230   2.418   2.993   8.079  0.3946  0.9931  0.0552
 6557TIP3    H241231   2.272   3.003   8.038  0.1027 -1.2933  0.3956
 6558TIP3   OH241232   5.039   4.344   1.217 -0.3208  0.1023 -0.1843
 6558TIP3    H141233   5.043   4.312   1.127  2.3933 -1.4528  0.3943
 6558TIP3    H241234   5.022   4.438   1.208 -1.5311 -0.2575 -2.2177
 6559TIP3   OH241235   5.180   0.058   0.369  0.6397  0.6032 -0.3886
 6559TIP3    H141236   5.266   0.021   0.390 -0.2612 -0.9698  0.7667
 6559TIP3    H241237   5.142  -0.005   0.308 -1.8985 -2.0352  3.4236
 6560TIP3   OH241238   2.784   0.894   1.539 -0.7279  0.0256  0.1461
 6560TIP3    H141239   2.821   0.877   1.452 -1.5036 -0.3459 -0.1216
 6560TIP3    H241240   2.734   0.815   1.560 -0.6668  0.1743  0.8680
 6561TIP3   OH241241   0.374   1.736   1.551  0.3388 -0.1155  0.4718
 6561TIP3    H141242   0.370   1.795   1.476 -1.2721 -1.4607 -0.5581
 6561TIP3    H241243   0.301   1.762   1.607  1.4842  0.8297  1.5780
 6562TIP3   OH241244   5.387   0.900   8.822  0.0162  0.3047  0.1236
 6562TIP3    H141245   5.369   0.850   8.902  1.2439  1.7743  1.3704
 6562TIP3    H241246   5.360   0.841   8.751 -2.2840 -0.5762  1.5936
 6563TIP3   OH241247   3.199   3.462   7.491 -0.3016  0.8870 -0.2823
 6563TIP3    H141248   3.279   3.495   7.449 -0.7968  1.4074 -0.8469
 6563TIP3    H241249   3.149   3.425   7.419  0.0486 -0.7525  0.2788
 6564TIP3   OH241250   3.142   3.815   8.825  0.0073  0.3326 -0.2075
 6564TIP3    H141251   3.138   3.862   8.908 -1.1315  0.4295 -0.3118
 6564TIP3    H241252   3.173   3.728   8.849 -0.8073  0.1959  0.4018
 6565TIP3   OH241253   2.773   0.468   2.140 -0.2868 -0.2589  0.1109
 6565TIP3    H141254   2.806   0.512   2.062 -0.8059  2.1464  1.1687
 6565TIP3    H241255   2.686   0.505   2.154  0.4319  0.6544  2.7191
 6566TIP3   OH241256   2.699   3.041   0.747  0.0434  0.0815 -0.0178
 6566TIP3    H141257   2.771   2.990   0.711 -1.0923 -1.3176 -0.4199
 6566TIP3    H241258   2.688   3.114   0.685  2.6898  1.8078  1.3988
 6567TIP3   OH241259   3.424   1.488   1.087  0.4152  0.2858 -0.2435
 6567TIP3    H141260   3.358   1.419   1.079  0.3522  0.2223  0.6477
 6567TIP3    H241261   3.470   1.466   1.168  0.7551  0.9899 -0.2426
 6568TIP3   OH241262   2.572   3.143   7.984 -0.0435  0.1133  0.2373
 6568TIP3    H141263   2.549   3.235   7.999 -0.5282  0.1437 -0.5918
 6568TIP3    H241264   2.665   3.145   7.962 -0.2706  0.5553 -0.7793
 6569TIP3   OH241265   3.083   2.660   0.956  0.3119  0.0555  0.3425
 6569TIP3    H141266   3.040   2.646   0.872 -0.2856 -1.7994  0.9039
 6569TIP3    H241267   3.151   2.592   0.960 -0.1187 -0.3258  1.6199
 6570TIP3   OH241268   3.958   5.411   0.431 -0.2494 -0.0764  0.1640
 6570TIP3    H141269   3.881   5.358   0.453 -0.0146 -1.7819 -2.6009
 6570TIP3    H241270   3.923   5.483   0.379 -0.2182  0.7642  1.2680
 6571TIP3   OH241271   3.799   4.074   0.119  0.0470 -0.4045  0.0304
 6571TIP3    H141272   3.742   4.132   0.068 -1.6306 -0.8543  1.3317
 6571TIP3    H241273   3.811   4.119   0.202 -0.0850 -1.2418  0.5112
 6572TIP3   OH241274   0.668   3.226   8.978 -0.0865 -0.0458  0.4546
 6572TIP3    H141275   0.703   3.239   8.890 -1.3355  0.2042 -0.0220
 6572TIP3    H241276   0.580   3.190   8.964 -0.5381  0.5808  1.5833
 6573TIP3   OH241277   1.056   4.356   8.874 -0.0757  0.1039 -0.2937
 6573TIP3    H141278   0.997   4.389   8.942 -0.2897 -0.5244 -0.1727
 6573TIP3    H241279   1.058   4.261   8.887 -0.3690 -0.0574 -1.3686
 6574TIP3   OH241280   5.758   1.953   7.718  0.5278 -0.1846  0.2673
 6574TIP3    H141281   5.843   1.956   7.762  2.1710 -3.7557 -2.2109
 6574TIP3    H241282   5.775   1.984   7.630 -1.4292  1.5529  0.4377
 6575TIP3   OH241283   6.271   3.825   7.537 -0.8810 -0.4899  0.1649
 6575TIP3    H141284   6.196   3.802   7.483 -1.5800 -2.0882  1.6998
 6575TIP3    H241285   6.298   3.742   7.576  0.2285  0.4263  1.4368
 6576TIP3   OH241286   3.184   2.000   8.634 -0.0305  0.1302  0.2467
 6576TIP3    H141287   3.117   1.942   8.597  0.2522 -0.3133  0.4225
 6576TIP3    H241288   3.180   1.983   8.728 -0.1867  0.6587  0.3431
 6577TIP3   OH241289   5.282   2.250   7.172 -0.3457 -0.5485  0.1662
 6577TIP3    H141290   5.314   2.160   7.179 -0.9785 -0.7864  0.0285
 6577TIP3    H241291   5.187   2.244   7.182 -0.6581 -0.1810 -2.0367
 6578TIP3   OH241292   4.253   0.703   7.682  0.3831  0.6232  0.2375
 6578TIP3    H141293   4.242   0.698   7.777 -1.7891  0.3654  0.0209
 6578TIP3    H241294   4.344   0.730   7.670  1.5282 -1.8396  2.3386
 6579TIP3   OH241295   2.159   5.020   7.195  0.9315  0.3137  0.2328
 6579TIP3    H141296   2.133   5.004   7.286 -0.8883  0.3245 -0.2379
 6579TIP3    H241297   2.082   5.062   7.155  1.8393  0.6848 -1.2114
 6580TIP3   OH241298   4.956   4.267   6.990  0.1225 -0.3363  0.6735
 6580TIP3    H141299   4.868   4.274   6.951 -0.1933  3.3981  1.6939
 6580TIP3    H241300   5.012   4.320   6.933  1.0756 -0.2929  1.6233
 6581TIP3   OH241301   4.137   0.083   7.405  0.2074 -0.3275 -0.0826
 6581TIP3    H141302   4.117   0.014   7.467  2.3642 -0.9973 -0.0413
 6581TIP3    H241303   4.130   0.041   7.319  0.2062 -0.2432 -0.1242
 6582TIP3   OH241304   6.405   4.980   2.080  0.3849  0.2378  0.1953
 6582TIP3    H141305   6.453   4.900   2.101  0.4925  0.1604 -0.3296
 6582TIP3    H241306   6.337   4.985   2.146 -2.1699 -2.4195 -1.9293
 6583TIP3   OH241307   5.758   3.936   0.481 -0.3796 -0.2383  0.2159
 6583TIP3    H141308   5.738   3.845   0.504 -1.1567 -0.6737 -1.9317
 6583TIP3    H241309   5.850   3.933   0.453 -0.7638 -0.6752 -1.0882
 6584TIP3   OH241310   4.179   4.878   6.510 -0.3058 -0.3153 -0.1919
 6584TIP3    H141311   4.261   4.925   6.528 -0.4947  0.0300 -0.2262
 6584TIP3    H241312   4.113   4.947   6.505 -0.1622 -0.2591 -3.0306
 6585TIP3   OH241313   0.563   1.930   8.060 -0.5490  0.0351 -0.4268
 6585TIP3    H141314   0.593   1.958   8.146  0.3051 -0.0953 -0.6721
 6585TIP3    H241315   0.479   1.975   8.049 -0.0714  1.0747 -0.0490
 6586TIP3   OH241316   4.311   4.475   0.811 -0.2545  0.1933  0.1647
 6586TIP3    H141317   4.335   4.469   0.718  1.4891  1.2068  0.5023
 6586TIP3    H241318   4.385   4.433   0.856 -0.6955  0.4543  1.1362
 6587TIP3   OH241319   0.657   0.395   7.805  0.3383  0.5195  0.8212
 6587TIP3    H141320   0.696   0.465   7.858  1.1292 -0.5524  1.7132
 6587TIP3    H241321   0.576   0.373   7.850 -0.9130  2.1403 -0.5378
 6588TIP3   OH241322   3.781   5.718   8.886  0.1355 -0.1397 -0.4225
 6588TIP3    H141323   3.840   5.651   8.853  0.9284  0.8714 -1.0825
 6588TIP3    H241324   3.813   5.800   8.850 -2.4091  0.3329 -1.8891
 6589TIP3   OH241325   1.802   0.470   1.428  0.1731 -0.1149  0.4565
 6589TIP3    H141326   1.758   0.517   1.500  2.3993  0.8845  1.2591
 6589TIP3    H241327   1.808   0.535   1.358 -0.0732 -0.4203  0.1468
 6590TIP3   OH241328   0.578   2.402   1.913  0.4638 -0.5601 -0.3349
 6590TIP3    H141329   0.580   2.307   1.903 -2.5288 -0.7765  0.1006
 6590TIP3    H241330   0.637   2.420   1.986  2.1218 -1.8917 -1.2741
 6591TIP3   OH241331   4.984   4.172   8.827 -0.1618 -0.1236 -0.0325
 6591TIP3    H141332   5.011   4.172   8.735 -1.6411  0.6266 -0.5128
 6591TIP3    H241333   5.038   4.105   8.868 -0.2527 -1.3051 -1.7144
 6592TIP3   OH241334   6.040   4.006   1.193 -0.4855  0.1249 -0.3981
 6592TIP3    H141335   6.063   4.087   1.238  0.4862 -0.9295  1.1091
 6592TIP3    H241336   6.105   3.943   1.224 -0.8369 -1.0826 -2.0161
 6593TIP3   OH241337   5.995   0.025   8.844 -0.2225 -0.0310  0.3481
 6593TIP3    H141338   6.050   0.080   8.788  1.9331 -0.7841  1.6229
 6593TIP3    H241339   5.971  -0.049   8.788  1.5235 -0.5416  0.2076
 6594TIP3   OH241340   0.012   4.712   1.496  0.2659  0.0302  0.0493
 6594TIP3    H141341   0.024   4.763   1.415 -1.6291 -1.2118 -1.1044
 6594TIP3    H241342  -0.066   4.751   1.536  0.8972  0.3003  1.0531
 6595TIP3   OH241343   1.126   3.511   8.523  0.5647 -0.2463 -0.0198
 6595TIP3    H141344   1.084   3.563   8.591  0.6841  0.1502 -0.2446
 6595TIP3    H241345   1.054   3.477   8.471  0.4738 -0.5273  0.2856
 6596TIP3   OH241346   5.070   5.382   2.857 -0.2030 -0.7374 -0.2782
 6596TIP3    H141347   4.981   5.417   2.864  0.0666  0.4676 -2.2215
 6596TIP3    H241348   5.058   5.294   2.822 -0.6508 -0.8461  0.1373
 6597TIP3   OH241349   4.857   5.868   9.289 -0.7992 -0.1152  0.1910
 6597TIP3    H141350   4.814   5.790   9.254 -1.0243 -0.5221  1.3306
 6597TIP3    H241351   4.906   5.837   9.365 -0.0815  0.6889  0.0677
 6598TIP3   OH241352   1.410   5.790   7.988  1.0650 -0.4518  0.4414
 6598TIP3    H141353   1.487   5.780   7.932  1.7952  2.1050  0.8767
 6598TIP3    H241354   1.441   5.769   8.076  1.5981  1.5743  0.7764
 6599TIP3   OH241355   2.749   4.437   2.550  0.1381 -0.4984 -0.0190
 6599TIP3    H141356   2.756   4.518   2.498 -0.3841 -1.4245 -1.5912
 6599TIP3    H241357   2.797   4.372   2.499 -0.1396 -1.3705  0.8184
 6600TIP3   OH241358   1.339   0.545   9.184 -0.6154 -0.1607  0.0323
 6600TIP3    H141359   1.298   0.606   9.246  1.4517  1.1913  0.1416
 6600TIP3    H241360   1.329   0.460   9.226 -2.0813  0.2818  0.6735
 6601TIP3   OH241361   4.932   0.715   1.843  0.0504 -0.0942  0.1512
 6601TIP3    H141362   4.942   0.807   1.818  1.6144 -0.2484  0.0828
 6601TIP3    H241363   4.923   0.668   1.760  0.8673 -0.1470  0.0777
 6602TIP3   OH241364   3.910   3.763   7.938 -0.0187 -0.1713 -0.0446
 6602TIP3    H141365   3.964   3.762   7.858 -0.9416  0.2091 -0.6859
 6602TIP3    H241366   3.938   3.685   7.986 -0.9963 -1.6739 -1.7914
 6603TIP3   OH241367   6.110   1.016   8.124  0.0381  0.0656  0.0641
 6603TIP3    H141368   6.163   0.936   8.124 -1.9413 -1.3373 -0.1279
 6603TIP3    H241369   6.132   1.059   8.207  2.0763  0.0261 -0.4096
 6604TIP3   OH241370   2.347   5.882   0.224  0.2177 -0.0569  0.2222
 6604TIP3    H141371   2.411   5.851   0.288  0.8129 -0.3936 -0.5110
 6604TIP3    H241372   2.401   5.916   0.152 -0.4226 -1.2554 -0.8514
 6605TIP3   OH241373   0.976   5.845   1.651  0.4014  0.4938 -0.1055
 6605TIP3    H141374   1.030   5.837   1.730 -0.0046  0.6725  0.1953
 6605TIP3    H241375   0.905   5.782   1.665 -1.2511  2.4532  0.9838
 6606TIP3   OH241376   3.890   0.537   7.786  0.5538 -0.3787  0.0189
 6606TIP3    H141377   3.887   0.628   7.756  0.2414 -0.2888  0.3186
 6606TIP3    H241378   3.984   0.521   7.799  0.5176  0.4196  1.4848
 6607TIP3   OH241379   5.224   5.331   0.550 -0.0446 -0.2117  0.4882
 6607TIP3    H141380   5.254   5.404   0.604  1.4430 -1.0632  0.8768
 6607TIP3    H241381   5.206   5.261   0.613 -0.0605 -0.6326  0.0224
 6608TIP3   OH241382   2.513   5.720   0.728 -0.1466 -0.0945 -0.0611
 6608TIP3    H141383   2.564   5.800   0.724 -0.9683  0.3975 -1.1885
 6608TIP3    H241384   2.550   5.671   0.802  0.5256  1.1927  0.4734
 6609TIP3   OH241385   3.402   2.619   0.275  0.3398  0.0917 -0.1912
 6609TIP3    H141386   3.407   2.556   0.203  0.5745 -2.1914  1.6976
 6609TIP3    H241387   3.397   2.704   0.232 -1.5283 -1.2474 -2.9242
 6610TIP3   OH241388   3.230   3.209   7.537  0.3185 -0.0482  0.1430
 6610TIP3    H141389   3.289   3.195   7.463 -0.1068  0.4454 -0.2961
 6610TIP3    H241390   3.198   3.298   7.526 -2.4360 -1.0834 -1.0543
 6611TIP3   OH241391   3.813   0.015   8.190 -0.5127 -0.5180 -1.0920
 6611TIP3    H141392   3.765  -0.067   8.181 -0.8402 -0.2714 -1.6329
 6611TIP3    H241393   3.745   0.083   8.195 -0.2569 -0.3279 -0.1027
 6612TIP3   OH241394   0.492   4.021   9.188 -0.5097  0.4210 -0.2727
 6612TIP3    H141395   0.507   4.054   9.276  0.1906 -1.0577  0.1898
 6612TIP3    H241396   0.412   3.969   9.196  0.0965 -0.5261 -0.2704
 6613TIP3   OH241397   4.267   2.489   8.055  0.1602 -0.2562 -0.1492
 6613TIP3    H141398   4.333   2.527   8.113 -1.3180  0.4507  1.1857
 6613TIP3    H241399   4.316   2.452   7.982  1.9031  1.5204  0.0425
 6614TIP3   OH241400   5.954   3.159   0.483  0.2718  0.4870 -0.1906
 6614TIP3    H141401   5.894   3.087   0.461  0.1461  0.5780 -0.1432
 6614TIP3    H241402   5.946   3.220   0.410  1.1483 -0.0339 -0.7412
 6615TIP3   OH241403   3.581   5.114   0.265 -0.0610 -0.0092 -0.3739
 6615TIP3    H141404   3.631   5.085   0.189  0.4127  1.0457 -0.4781
 6615TIP3    H241405   3.616   5.062   0.338 -0.0744 -0.5640 -0.7533
 6616TIP3   OH241406   1.866   3.355   1.250  0.1861  0.4298  0.2672
 6616TIP3    H141407   1.922   3.279   1.261 -1.7341 -0.9123  1.2187
 6616TIP3    H241408   1.813   3.358   1.329 -3.0348 -0.0677 -1.6712
 6617TIP3   OH241409   3.122   6.174   7.962  0.7445 -0.2156 -0.4113
 6617TIP3    H141410   3.061   6.109   7.997  0.2454  0.6488  0.3725
 6617TIP3    H241411   3.096   6.184   7.870  1.0643 -1.3739 -0.6461
 6618TIP3   OH241412   1.046   6.391   2.679  0.2229 -0.5559 -0.0449
 6618TIP3    H141413   1.125   6.403   2.732  0.3446  0.7715 -0.4826
 6618TIP3    H241414   1.064   6.315   2.625  0.7038 -1.0057  0.7420
 6619TIP3   OH241415   3.154   1.098   9.295  0.1659 -0.2103  0.3157
 6619TIP3    H141416   3.101   1.159   9.347  0.5447 -0.3958  0.9382
 6619TIP3    H241417   3.213   1.057   9.359  1.8768  0.8190 -0.5208
 6620TIP3   OH241418   5.730   0.437   7.053 -0.8271  0.5709  0.5630
 6620TIP3    H141419   5.745   0.452   6.960 -0.2740  1.6303  0.8160
 6620TIP3    H241420   5.794   0.370   7.077 -1.4116 -0.1953  0.0571
 6621TIP3   OH241421   5.411   4.315   2.588  0.5488  0.2755 -0.4427
 6621TIP3    H141422   5.328   4.330   2.543  0.2351  4.0045  1.0035
 6621TIP3    H241423   5.472   4.378   2.549  1.6155  0.2112  1.0161
 6622TIP3   OH241424   4.887   2.750   0.380 -0.1169  0.0065  0.0173
 6622TIP3    H141425   4.837   2.672   0.358 -0.7402  1.2072 -3.4755
 6622TIP3    H241426   4.969   2.740   0.332  0.3642  0.9176  0.6167
 6623TIP3   OH241427   4.939   3.472   8.474  0.4065  0.2231  0.9824
 6623TIP3    H141428   4.981   3.436   8.396  0.8022 -0.4486  1.4949
 6623TIP3    H241429   4.864   3.414   8.489  0.8650 -0.2205  1.6269
 6624TIP3   OH241430   4.044   6.335   9.208 -0.7152 -0.0159  0.1638
 6624TIP3    H141431   3.993   6.406   9.246  1.1510  1.5386 -0.0949
 6624TIP3    H241432   4.116   6.320   9.271  0.5913  0.4094 -1.1702
 6625TIP3   OH241433   4.942   5.702   8.970  0.7297  0.0716  0.5080
 6625TIP3    H141434   5.014   5.724   9.028  1.3234 -2.8504  1.0148
 6625TIP3    H241435   4.867   5.686   9.028  0.7843 -0.8946  0.3196
 6626TIP3   OH241436   1.332   2.615   0.192 -0.0453 -0.2661 -0.3902
 6626TIP3    H141437   1.421   2.646   0.179  0.0235 -0.6633 -0.8877
 6626TIP3    H241438   1.283   2.649   0.116 -0.6837  1.2793  0.6586
 6627TIP3   OH241439   1.070   1.203   2.524  0.0995 -0.0263  0.6669
 6627TIP3    H141440   1.141   1.243   2.573  1.6714 -2.1491  0.2854
 6627TIP3    H241441   1.038   1.133   2.581  0.8478 -1.4618 -0.5759
 6628TIP3   OH241442   5.660   0.266   8.654 -0.2204  0.3820  0.2536
 6628TIP3    H141443   5.622   0.197   8.708 -0.0789  0.7993  0.9028
 6628TIP3    H241444   5.755   0.252   8.660 -0.1933  0.5843  0.3263
 6629TIP3   OH241445   5.304   0.167   0.940 -0.2419 -0.0784  0.8236
 6629TIP3    H141446   5.259   0.202   1.017 -1.7734 -0.3858  0.1223
 6629TIP3    H241447   5.359   0.096   0.974  1.4073  1.6749  1.9933
 6630TIP3   OH241448   4.569   1.893   0.222  0.1267  0.1767 -0.3909
 6630TIP3    H141449   4.486   1.847   0.221  0.2072  0.0180  0.0396
 6630TIP3    H241450   4.635   1.824   0.233  0.3947  0.1893 -1.7302
 6631TIP3   OH241451   5.765   5.762   1.531 -0.1423  0.1440 -0.3881
 6631TIP3    H141452   5.693   5.823   1.548  1.1817  1.2223  1.7821
 6631TIP3    H241453   5.735   5.680   1.571 -1.1606 -0.1641 -1.7048
 6632TIP3   OH241454   6.328   5.984   7.365 -0.4706  0.1996 -0.4281
 6632TIP3    H141455   6.307   5.917   7.299 -0.1167  0.6833 -1.0422
 6632TIP3    H241456   6.268   6.056   7.346  0.6315  0.9500 -1.1921
 6633TIP3   OH241457   0.862   5.162   1.459 -0.2428 -0.4030 -0.5568
 6633TIP3    H141458   0.863   5.067   1.466 -0.6286 -0.2929  1.6068
 6633TIP3    H241459   0.790   5.190   1.516  0.2430  1.2066 -0.6831
 6634TIP3   OH241460   5.655   5.671   0.634  0.0502  0.2752  0.3787
 6634TIP3    H141461   5.701   5.588   0.641  0.9656  0.8960  2.4545
 6634TIP3    H241462   5.608   5.680   0.717  0.8922  2.3114  0.6999
 6635TIP3   OH241463   4.288   0.194   1.180  0.1781  0.0283 -0.4312
 6635TIP3    H141464   4.283   0.213   1.274  0.7920  0.7266 -0.5280
 6635TIP3    H241465   4.238   0.114   1.169 -2.2361  1.3775  0.0600
 6636TIP3   OH241466   0.875   4.269   1.596 -0.0942  0.5333  0.5061
 6636TIP3    H141467   0.906   4.183   1.623  1.7799  0.8396 -0.4872
 6636TIP3    H241468   0.797   4.251   1.543  1.4519 -0.7972 -1.4655
 6637TIP3   OH241469   1.613   5.301   8.454  0.7088  0.0172 -0.1949
 6637TIP3    H141470   1.569   5.289   8.538 -1.4474 -0.8820 -1.3818
 6637TIP3    H241471   1.664   5.382   8.465 -0.8130  0.8100  1.4524
 6638TIP3   OH241472   4.514   3.014   1.000 -0.0163  0.1173 -0.3072
 6638TIP3    H141473   4.551   3.001   1.087 -0.0024  0.2238 -0.2971
 6638TIP3    H241474   4.420   2.996   1.012 -0.1475  0.8945 -0.0965
 6639TIP3   OH241475   6.284   3.506   8.464 -0.2780 -0.0918 -0.0765
 6639TIP3    H141476   6.212   3.555   8.424 -0.5004  0.1750  0.6356
 6639TIP3    H241477   6.348   3.573   8.488  0.3686 -0.3588 -1.0134
 6640TIP3   OH241478   5.069   0.607   9.184 -0.0906 -0.1405  0.8470
 6640TIP3    H141479   5.083   0.563   9.268  1.1636  0.2417  0.8658
 6640TIP3    H241480   5.118   0.554   9.121 -0.6718 -0.1844  0.4311
 6641TIP3   OH241481   0.028   3.893   7.358  0.0843  0.4294  0.1747
 6641TIP3    H141482   0.042   3.988   7.359  0.4781  0.3736  0.0944
 6641TIP3    H241483   0.063   3.865   7.274 -1.0408  0.3549 -0.2922
 6642TIP3   OH241484   5.463   0.821   2.208 -0.7084  0.1345  0.0050
 6642TIP3    H141485   5.545   0.778   2.232 -0.0055  0.7082 -1.3108
 6642TIP3    H241486   5.484   0.915   2.207 -1.3240  0.2748 -0.5234
 6643TIP3   OH241487   0.158   2.392   0.126  0.4139 -0.0863 -0.1860
 6643TIP3    H141488   0.215   2.356   0.059 -0.7952 -1.3850 -0.5834
 6643TIP3    H241489   0.142   2.319   0.186 -2.5615 -0.4977 -1.3112
 6644TIP3   OH241490   4.274   1.855   1.783 -0.3297  0.0572 -0.0017
 6644TIP3    H141491   4.356   1.855   1.832 -0.5001  0.4686  0.2948
 6644TIP3    H241492   4.294   1.808   1.703 -0.0935 -0.7830  0.5413
 6645TIP3   OH241493   6.507   6.185   9.125  0.1663 -0.1180 -0.0654
 6645TIP3    H141494   6.417   6.215   9.129  0.1965  0.1144 -0.8550
 6645TIP3    H241495   6.501   6.091   9.108  0.0756 -0.2955  0.9178
 6646TIP3   OH241496   4.742   6.419   0.431  0.7372  0.4301  0.4612
 6646TIP3    H141497   4.836   6.402   0.425  0.6122 -0.3175  0.5184
 6646TIP3    H241498   4.707   6.343   0.477  0.2086  1.0862  1.1699
 6647TIP3   OH241499   6.155   2.339   0.295  0.1765  0.3869 -0.1081
 6647TIP3    H141500   6.176   2.343   0.388  1.4318 -0.0711 -0.3529
 6647TIP3    H241501   6.143   2.246   0.276  0.5877  0.4098 -0.5264
 6648TIP3   OH241502   0.833   6.593   8.826 -0.0786 -0.2045 -0.1663
 6648TIP3    H141503   0.891   6.550   8.764 -1.6803 -1.2457 -1.0103
 6648TIP3    H241504   0.892   6.639   8.886  1.5897  2.2644 -3.3293
 6649TIP3   OH241505   0.085   3.795   8.893  0.0388  0.6509  0.2049
 6649TIP3    H141506   0.051   3.728   8.834  1.2685  0.8738 -0.8016
 6649TIP3    H241507   0.122   3.861   8.835 -0.4122  1.8089  1.2033
 6650TIP3   OH241508   1.232   5.019   8.300  0.0968 -0.3297 -0.0188
 6650TIP3    H141509   1.158   4.962   8.320 -0.8558  1.4768  2.1023
 6650TIP3    H241510   1.301   4.990   8.360 -0.1128  0.1944  0.4849
 6651TIP3   OH241511   0.543   6.106   8.184 -0.1412 -0.1680  0.6096
 6651TIP3    H141512   0.490   6.117   8.105  1.3544  0.6707 -0.3172
 6651TIP3    H241513   0.555   6.011   8.192 -1.6636 -0.3749  0.7974
 6652TIP3   OH241514   2.439   2.041   8.413 -0.0181  0.4459 -0.6510
 6652TIP3    H141515   2.375   2.106   8.443 -1.1354 -2.0704  3.1993
 6652TIP3    H241516   2.388   1.980   8.360 -0.6514 -0.7920  1.2663
 6653TIP3   OH241517   1.624   3.515   1.788  0.0279  0.3150  0.2008
 6653TIP3    H141518   1.540   3.530   1.832  0.1834 -1.6616  1.2643
 6653TIP3    H241519   1.605   3.448   1.723  0.8395 -0.4136  0.6960
 6654TIP3   OH241520   5.266   3.160   8.860 -0.2295  0.3291 -0.0881
 6654TIP3    H141521   5.217   3.219   8.802 -1.1155 -0.0557  0.2479
 6654TIP3    H241522   5.205   3.088   8.878  0.2016  0.1994  0.9221
 6655TIP3   OH241523   6.170   1.165   8.944  0.3650 -0.8251 -1.0660
 6655TIP3    H141524   6.197   1.092   8.999 -0.2771 -0.2203  0.0954
 6655TIP3    H241525   6.187   1.243   8.997 -0.9971 -0.2715 -1.3838
 6656TIP3   OH241526   3.021   5.322   1.382  0.1268 -0.3334  0.0745
 6656TIP3    H141527   3.082   5.251   1.402  1.3403  0.4225 -0.7309
 6656TIP3    H241528   2.982   5.346   1.466  0.4467 -1.2885  0.4980
 6657TIP3   OH241529   4.438   1.684   0.461 -0.0361  0.4655 -0.7573
 6657TIP3    H141530   4.410   1.688   0.369  0.2383  1.7352 -0.8085
 6657TIP3    H241531   4.368   1.635   0.505  0.5309 -1.4382 -1.8671
 6658TIP3   OH241532   3.313   1.322   2.509 -0.2132  0.6631  0.2946
 6658TIP3    H141533   3.407   1.306   2.503 -0.4685 -0.5273 -1.2662
 6658TIP3    H241534   3.305   1.417   2.521  1.1658  0.8031  0.2134
 6659TIP3   OH241535   2.158   3.021   7.643  0.1724 -0.4562  0.3521
 6659TIP3    H141536   2.213   2.952   7.606  2.0782  1.4187 -0.4581
 6659TIP3    H241537   2.162   3.092   7.579  0.6333  1.5280  2.4744
 6660TIP3   OH241538   4.503   1.163   8.804 -0.2014  0.2528  0.5975
 6660TIP3    H141539   4.526   1.177   8.896 -0.0944 -0.4744  0.6858
 6660TIP3    H241540   4.474   1.072   8.799  2.0616 -0.4896 -0.5087
 6661TIP3   OH241541   6.114   4.198   8.462 -0.2650  0.2837  0.9283
 6661TIP3    H141542   6.203   4.201   8.425 -0.1086  0.5395  1.3159
 6661TIP3    H241543   6.127   4.218   8.555 -0.4196 -2.1663  1.5412
 6662TIP3   OH241544   1.125   0.187   0.881  0.2477 -0.4674 -0.1917
 6662TIP3    H141545   1.213   0.157   0.901  0.3348  0.0511  0.2135
 6662TIP3    H241546   1.070   0.145   0.948  0.1416 -1.0128 -0.6117
 6663TIP3   OH241547   4.853   0.042   0.425 -0.1732  0.0350 -0.1392
 6663TIP3    H141548   4.777   0.089   0.390 -1.0603  1.6385  3.4585
 6663TIP3    H241549   4.818  -0.041   0.456 -0.3837  0.4787  0.8689
 6664TIP3   OH241550   4.945   1.236   8.819 -0.3256  0.3256 -0.0161
 6664TIP3    H141551   4.939   1.147   8.785  0.7597 -0.1631  0.9864
 6664TIP3    H241552   4.873   1.243   8.882 -0.8071  0.3817 -0.5718
 6665TIP3   OH241553   5.195   4.494   1.658 -0.0365  0.6245 -0.3015
 6665TIP3    H141554   5.216   4.587   1.664  2.2316  0.1742 -0.2811
 6665TIP3    H241555   5.214   4.460   1.745 -0.3277  0.0451 -0.4606
 6666TIP3   OH241556   3.763   4.153   8.843  0.0177 -0.0850 -0.2250
 6666TIP3    H141557   3.707   4.230   8.832 -0.9517 -0.4925  1.4142
 6666TIP3    H241558   3.827   4.159   8.772 -1.2376  1.1619 -1.3252
 6667TIP3   OH241559   2.405   4.559   1.848 -0.8998  0.1392 -0.0945
 6667TIP3    H141560   2.490   4.515   1.859 -1.5330 -0.8311  1.1443
 6667TIP3    H241561   2.343   4.488   1.832 -1.6311  0.7648 -0.0674
 6668TIP3   OH241562   5.852   5.030   9.236 -0.1513  1.0994  0.3491
 6668TIP3    H141563   5.772   4.995   9.274 -0.6724  1.0537 -0.7421
 6668TIP3    H241564   5.922   5.000   9.294 -0.9103  1.0306  1.2400
 6669TIP3   OH241565   5.017   2.232   7.197  0.5915 -0.1980 -0.3852
 6669TIP3    H141566   5.031   2.155   7.252  0.3377  1.5617  2.3171
 6669TIP3    H241567   4.930   2.220   7.161  0.4781 -1.1001  0.1534
 6670TIP3   OH241568   1.278   0.749   7.828 -0.2152  0.2874  0.0796
 6670TIP3    H141569   1.287   0.688   7.901  0.6391  0.5632  0.2172
 6670TIP3    H241570   1.227   0.701   7.762 -0.2959 -0.2541  0.5304
 6671TIP3   OH241571   1.932   3.237   0.011 -0.1851  0.2433  0.2186
 6671TIP3    H141572   1.973   3.180  -0.054  1.2437 -0.1601  1.4404
 6671TIP3    H241573   1.874   3.294  -0.041  0.6968 -0.2420 -1.3650
 6672TIP3   OH241574   6.302   1.613   0.757  0.4987  0.0301  0.0643
 6672TIP3    H141575   6.335   1.567   0.834  0.2825 -2.2582 -1.1295
 6672TIP3    H241576   6.230   1.666   0.791  0.1208 -1.2505  1.3886
 6673TIP3   OH241577   3.131   6.491   0.043 -0.3534 -0.2612  0.6032
 6673TIP3    H141578   3.124   6.557   0.112  0.6463 -1.9987  2.4587
 6673TIP3    H241579   3.161   6.541  -0.034  0.0145  1.4942  1.8174
 6674TIP3   OH241580   2.276   2.440   1.076  0.5418  0.4778  0.3171
 6674TIP3    H141581   2.308   2.493   1.003  2.7001 -2.5926 -1.1979
 6674TIP3    H241582   2.186   2.418   1.052  0.4577  1.3613 -0.2410
 6675TIP3   OH241583   1.533   1.632   1.358 -0.2347 -0.4797  0.0711
 6675TIP3    H141584   1.539   1.628   1.262  1.6539 -1.0141  0.1727
 6675TIP3    H241585   1.477   1.558   1.381  1.9803 -2.4378 -0.4782
 6676TIP3   OH241586   0.796   3.540   0.701 -0.2497 -0.6546  0.9799
 6676TIP3    H141587   0.777   3.457   0.745  0.6496 -1.3338  0.1274
 6676TIP3    H241588   0.871   3.521   0.646 -0.0205  0.7492  0.7840
 6677TIP3   OH241589   5.886   6.148   8.405 -0.2198 -0.1876  0.1199
 6677TIP3    H141590   5.796   6.147   8.436 -0.0874  0.0048  0.5238
 6677TIP3    H241591   5.882   6.115   8.315 -0.7567  0.3000 -0.0367
 6678TIP3   OH241592   0.189   4.502   9.191 -0.2389 -0.3581  0.5766
 6678TIP3    H141593   0.240   4.500   9.110  0.0968  0.3048  0.7652
 6678TIP3    H241594   0.224   4.429   9.242 -2.5717 -2.8328 -1.1005
 6679TIP3   OH241595   0.388   0.975   6.872  0.1217 -0.3164 -0.4532
 6679TIP3    H141596   0.307   0.953   6.826 -0.6298  0.0938  0.6339
 6679TIP3    H241597   0.415   1.060   6.834 -0.5278  0.0545 -0.0893
 6680TIP3   OH241598   6.118   5.254   0.792  0.3299 -0.5518 -0.3309
 6680TIP3    H141599   6.025   5.270   0.775  0.2826 -0.2539  0.1675
 6680TIP3    H241600   6.164   5.313   0.733  0.1656  0.8482  0.8828
 6681TIP3   OH241601   3.560   5.302   2.277 -0.1571  0.3872 -0.3107
 6681TIP3    H141602   3.513   5.344   2.350  0.5933  0.1889  0.3040
 6681TIP3    H241603   3.642   5.273   2.316 -0.8484 -2.1058 -0.5624
 6682TIP3   OH241604   2.580   2.842   1.658  0.0801  0.0792  0.0558
 6682TIP3    H141605   2.603   2.851   1.751 -0.5041  2.4185  0.0340
 6682TIP3    H241606   2.492   2.802   1.659  0.0697  0.1043  0.5098
 6683TIP3   OH241607   3.209   2.280   8.602 -0.4016 -0.1267  0.3250
 6683TIP3    H141608   3.240   2.261   8.514 -0.6506 -1.3139  0.4879
 6683TIP3    H241609   3.197   2.195   8.643 -1.3117  0.3770  1.1570
 6684TIP3   OH241610   3.042   4.988   8.763 -0.3907  0.3271 -0.5825
 6684TIP3    H141611   3.061   5.046   8.837  0.8401 -2.8064  1.7404
 6684TIP3    H241612   2.949   4.966   8.773 -0.7079  1.3572 -1.1224
 6685TIP3   OH241613   6.037   6.081   1.217 -0.3055 -0.2104 -0.3954
 6685TIP3    H141614   6.106   6.141   1.243  0.1525 -1.5759  1.8242
 6685TIP3    H241615   6.018   6.030   1.296 -3.7626 -0.0154 -0.9379
 6686TIP3   OH241616   0.209   1.924   8.325 -0.3005 -0.4536  0.2811
 6686TIP3    H141617   0.163   1.955   8.403 -1.5307  0.6723 -0.8311
 6686TIP3    H241618   0.300   1.948   8.340 -0.5898  0.1256  1.2031
 6687TIP3   OH241619   5.293   5.026   0.065  0.2277  0.0967 -0.0042
 6687TIP3    H141620   5.252   5.094   0.010  1.5133  0.5393 -0.4405
 6687TIP3    H241621   5.275   5.055   0.155 -1.4237 -0.3516 -0.1462
 6688TIP3   OH241622   3.376   1.680   7.574 -0.1631 -0.3819  0.2470
 6688TIP3    H141623   3.460   1.666   7.529 -0.0840 -0.8290  0.5304
 6688TIP3    H241624   3.397   1.745   7.641 -0.4328  0.8071 -0.7809
 6689TIP3   OH241625   2.741   5.402   1.288  0.6427  0.2146 -0.6141
 6689TIP3    H141626   2.765   5.388   1.196 -0.6218  2.3252 -1.3522
 6689TIP3    H241627   2.825   5.409   1.334  1.2999 -1.8391 -1.3733
 6690TIP3   OH241628   2.773   5.037   8.839 -0.5538  0.1592 -0.1263
 6690TIP3    H141629   2.742   5.124   8.862 -0.2678  0.1907  0.1549
 6690TIP3    H241630   2.696   4.992   8.804 -1.1864 -0.1344  1.5703
 6691TIP3   OH241631   5.993   6.522   0.118 -0.2504 -0.0768 -0.0858
 6691TIP3    H141632   5.955   6.510   0.204 -3.4426 -1.9060 -1.5993
 6691TIP3    H241633   6.057   6.451   0.109 -1.0436 -0.8396  0.2209
 6692TIP3   OH241634   2.694   5.707   0.122  0.0850  0.1259 -0.0361
 6692TIP3    H141635   2.639   5.748   0.055 -0.5492  2.1452  1.6062
 6692TIP3    H241636   2.684   5.613   0.108 -0.3232  0.4754 -2.4816
 6693TIP3   OH241637   1.751   6.464   8.603  0.3069  0.2165 -0.7952
 6693TIP3    H141638   1.678   6.508   8.647  0.2859  1.4958 -2.0137
 6693TIP3    H241639   1.794   6.534   8.554  0.0007 -1.1971 -3.2165
 6694TIP3   OH241640   2.472   3.087   1.589  0.5028 -0.3667  0.1425
 6694TIP3    H141641   2.526   3.016   1.622 -0.0174  0.0679  2.0637
 6694TIP3    H241642   2.534   3.147   1.547  1.0853 -1.3890 -0.4767
 6695TIP3   OH241643   6.345   6.552   1.672 -0.3610  0.4968 -0.4539
 6695TIP3    H141644   6.376   6.464   1.648  0.0329  0.6453 -0.4870
 6695TIP3    H241645   6.417   6.591   1.720 -0.8208  0.5292  0.2344
 6696TIP3   OH241646   6.344   5.885   3.051  0.4913 -0.1381 -0.2111
 6696TIP3    H141647   6.373   5.895   2.960 -0.2636  1.0099 -0.3503
 6696TIP3    H241648   6.290   5.963   3.068  1.0988 -0.0257  1.4149
 6697TIP3   OH241649   5.897   5.779   0.226 -0.6824 -0.4199  0.2506
 6697TIP3    H141650   5.851   5.804   0.307  0.0858  0.5469  0.4174
 6697TIP3    H241651   5.919   5.687   0.238 -0.4486 -0.2537  1.2313
 6698TIP3   OH241652   1.319   6.170   8.731 -0.2617  0.1573 -0.1873
 6698TIP3    H141653   1.251   6.103   8.727  1.0424 -1.1862 -0.5850
 6698TIP3    H241654   1.304   6.224   8.654 -0.6545 -0.3728 -0.4885
 6699TIP3   OH241655   3.288   6.300   0.993 -0.0857 -0.3450  0.3932
 6699TIP3    H141656   3.279   6.394   1.010  2.0344 -0.4312  2.6832
 6699TIP3    H241657   3.380   6.289   0.969 -0.4306 -1.7981 -0.3861
 6700TIP3   OH241658   0.988   5.945   1.280 -0.4147  0.0950  0.1350
 6700TIP3    H141659   0.937   5.930   1.359 -0.1296 -2.1692 -0.0343
 6700TIP3    H241660   1.068   5.989   1.311 -0.2404 -0.8840  1.1451
 6701TIP3   OH241661   5.510   2.213   8.582 -0.4715  0.0798  0.1843
 6701TIP3    H141662   5.527   2.269   8.658 -0.1265 -2.1817  1.9114
 6701TIP3    H241663   5.596   2.198   8.544 -0.2800 -0.7833  0.9148
 6702TIP3   OH241664   1.234   2.415   7.420  0.3707 -0.1363  0.9844
 6702TIP3    H141665   1.261   2.471   7.347  0.6973 -1.2072  0.2517
 6702TIP3    H241666   1.139   2.406   7.409  0.6922 -2.3104 -0.8732
 6703TIP3   OH241667   6.137   3.407   0.517  0.6826 -0.2961 -0.4193
 6703TIP3    H141668   6.128   3.324   0.564 -0.8810  0.4959  0.7623
 6703TIP3    H241669   6.083   3.469   0.567  2.4258  1.6367 -0.8073
 6704TIP3   OH241670   3.108   4.660   1.421 -0.8459 -0.2410 -0.0476
 6704TIP3    H141671   3.038   4.648   1.357 -1.1799  0.0602  0.2571
 6704TIP3    H241672   3.079   4.734   1.474  0.2913  0.7021 -0.7070
 6705TIP3   OH241673   5.485   6.462   8.090 -0.1982 -0.5811 -0.0217
 6705TIP3    H141674   5.534   6.380   8.078  1.2827 -0.0141  1.7663
 6705TIP3    H241675   5.485   6.476   8.184 -2.9354  0.0473 -0.0469
 6706TIP3   OH241676   0.128   1.793   1.657 -0.1826 -0.6888  0.0530
 6706TIP3    H141677   0.066   1.823   1.723  0.2623  1.0966 -0.2838
 6706TIP3    H241678   0.090   1.712   1.623 -0.9696 -1.0357  1.6992
 6707TIP3   OH241679   0.842   5.456   2.987 -0.0551 -0.2752 -0.2421
 6707TIP3    H141680   0.813   5.399   2.916  0.2732 -1.5813  0.6438
 6707TIP3    H241681   0.866   5.538   2.943  1.5837 -1.5371 -1.8506
 6708TIP3   OH241682   3.406   5.892   1.041  0.0884 -0.0269  0.2259
 6708TIP3    H141683   3.398   5.954   0.969 -1.2463 -0.6488 -0.1852
 6708TIP3    H241684   3.479   5.835   1.016 -0.3689 -0.2383 -0.6355
 6709TIP3   OH241685   2.303   1.763   8.610  0.4189  0.3582 -0.0639
 6709TIP3    H141686   2.249   1.780   8.532 -0.1789  1.5821  0.5904
 6709TIP3    H241687   2.279   1.832   8.671  0.8434 -0.6125  1.2430
 6710TIP3   OH241688   3.194   6.253   1.748  0.4757 -0.2652 -1.1836
 6710TIP3    H141689   3.162   6.314   1.681  1.6137  0.5885 -0.9726
 6710TIP3    H241690   3.173   6.167   1.713 -0.8261  0.2174 -1.6666
 6711TIP3   OH241691   4.464   5.749   2.048 -0.0578 -0.6209 -0.0442
 6711TIP3    H141692   4.495   5.839   2.060 -0.1723 -0.4719 -0.8005
 6711TIP3    H241693   4.515   5.698   2.110 -0.9724  0.1508  1.3975
 6712TIP3   OH241694   4.732   5.376   0.527 -0.2287  0.4257 -0.5997
 6712TIP3    H141695   4.819   5.406   0.498  0.0780  0.7208  0.5523
 6712TIP3    H241696   4.751   5.305   0.588 -0.5093  2.9244  2.6744
 6713TIP3   OH241697   4.788   2.839   6.746  0.2770  0.5440  0.3714
 6713TIP3    H141698   4.819   2.769   6.804 -0.6322 -0.0309  0.1852
 6713TIP3    H241699   4.706   2.869   6.786 -0.4863 -0.0120 -0.6943
 6714TIP3   OH241700   5.643   5.358   9.047 -0.6780  0.6692  0.0143
 6714TIP3    H141701   5.625   5.285   8.988 -0.1427  0.5678 -0.0284
 6714TIP3    H241702   5.602   5.333   9.130 -0.0344  0.0720  0.1597
 6715TIP3   OH241703   4.613   5.548   2.193 -0.2660  0.1810 -0.0326
 6715TIP3    H141704   4.701   5.535   2.157 -0.3728 -1.5001  0.2204
 6715TIP3    H241705   4.629   5.586   2.280  0.0444  2.7173 -1.1093
 6716TIP3   OH241706   3.115   1.464   2.120  0.2776  0.2664  1.1224
 6716TIP3    H141707   3.105   1.534   2.185  2.2545  1.4409  0.2792
 6716TIP3    H241708   3.108   1.383   2.170 -2.2068  1.0166  2.1152
 6717TIP3   OH241709   0.480   0.326   9.071 -0.0702 -0.5389  0.4031
 6717TIP3    H141710   0.476   0.324   8.976  0.4130 -0.2698  0.3731
 6717TIP3    H241711   0.493   0.419   9.092 -0.8303 -0.5093  0.7578
 6718TIP3   OH241712   0.558   3.454   8.148  0.6852 -0.0553 -0.1254
 6718TIP3    H141713   0.526   3.421   8.064 -0.9125 -0.9667  0.7939
 6718TIP3    H241714   0.648   3.424   8.152 -0.3077 -3.4587  0.1316
 6719TIP3   OH241715   3.556   5.677   1.206 -0.0531  0.4335 -0.5885
 6719TIP3    H141716   3.625   5.683   1.271 -2.0164  2.0934  1.5058
 6719TIP3    H241717   3.503   5.602   1.233 -1.0468  1.3080 -0.0297
 6720TIP3   OH241718   0.883   6.624   1.484 -0.5839 -0.1998 -0.0502
 6720TIP3    H141719   0.843   6.653   1.566  1.2988  2.4193  0.0943
 6720TIP3    H241720   0.974   6.605   1.507 -0.3295 -0.5873 -1.3081
 6721TIP3   OH241721   6.283   4.479   7.726  0.6039  0.2016  0.5441
 6721TIP3    H141722   6.191   4.501   7.713  1.3012  3.2304 -0.1958
 6721TIP3    H241723   6.294   4.477   7.821 -0.1602  0.0994  0.6378
 6722TIP3   OH241724   3.953   0.325   8.221 -0.2725 -0.1095  0.1795
 6722TIP3    H141725   3.923   0.355   8.136  0.1508 -1.3285 -0.4212
 6722TIP3    H241726   3.883   0.350   8.282  0.2469  2.4972 -0.1394
 6723TIP3   OH241727   4.920   4.937   0.096 -0.1423  0.0190 -0.0943
 6723TIP3    H141728   4.900   4.959   0.004  2.3664 -1.1724 -1.0095
 6723TIP3    H241729   4.872   4.856   0.112 -0.1118 -0.0899 -0.5452
 6724TIP3   OH241730   3.066   3.588   0.224  0.3052  0.2438 -0.0222
 6724TIP3    H141731   3.134   3.550   0.169 -1.2067  0.4466 -2.1278
 6724TIP3    H241732   3.022   3.652   0.168  1.3496  3.7130  2.6856
 6725TIP3   OH241733   2.186   5.150   2.176  0.3587 -0.8578 -0.1749
 6725TIP3    H141734   2.186   5.175   2.268  0.6266  0.3807 -0.4969
 6725TIP3    H241735   2.096   5.168   2.146  0.9390  1.3934 -0.8026
 6726TIP3   OH241736   4.571   1.279   7.371  0.3046  0.3928 -0.2106
 6726TIP3    H141737   4.541   1.192   7.397  1.5187  0.4539  1.5597
 6726TIP3    H241738   4.508   1.339   7.411  0.8497  0.3984  0.6606
 6727TIP3   OH241739   1.455   2.974   1.681  0.6752 -0.4377 -0.4280
 6727TIP3    H141740   1.548   2.977   1.702  0.2698  0.1679  1.5577
 6727TIP3    H241741   1.417   2.917   1.748 -0.6319  0.9378  0.0737
 6728TIP3   OH241742   1.457   0.466   1.203 -0.0203  0.5135 -0.1835
 6728TIP3    H141743   1.484   0.413   1.278 -0.8828  1.5123  0.8662
 6728TIP3    H241744   1.453   0.405   1.130 -1.4744 -0.9866  1.0892
 6729TIP3   OH241745   2.626   3.628   6.910 -0.3752 -0.0176 -0.0889
 6729TIP3    H141746   2.592   3.715   6.889  1.7061  0.4707 -1.8205
 6729TIP3    H241747   2.576   3.569   6.853 -0.0319  0.3876 -0.8277
 6730TIP3   OH241748   4.891   2.889   0.960 -0.2536 -0.6882  0.0239
 6730TIP3    H141749   4.846   2.968   0.931 -1.2813 -0.8298  1.1246
 6730TIP3    H241750   4.850   2.818   0.911  0.5568 -0.5701 -0.8446
 6731TIP3   OH241751   4.243   2.163   0.421  0.2474 -0.2063  0.2392
 6731TIP3    H141752   4.290   2.239   0.456 -1.4004  1.5886 -1.1757
 6731TIP3    H241753   4.175   2.201   0.366 -2.1723 -2.6731  1.2981
 6732TIP3   OH241754   1.449   3.633   2.275  0.9009 -0.3927 -0.4117
 6732TIP3    H141755   1.363   3.632   2.233  0.3595  1.6406  0.5632
 6732TIP3    H241756   1.482   3.721   2.261  1.4950 -0.2023  1.8181
 6733TIP3   OH241757   0.226   6.336   1.307 -0.0935 -0.2420 -0.3121
 6733TIP3    H141758   0.148   6.286   1.283  0.1822 -0.8075 -0.0382
 6733TIP3    H241759   0.205   6.374   1.392 -1.3458  2.3373 -1.6474
 6734TIP3   OH241760   1.578   3.774   7.239  0.7597  0.2514  0.7429
 6734TIP3    H141761   1.656   3.785   7.294  0.8896  1.1942  0.3809
 6734TIP3    H241762   1.563   3.860   7.200 -0.3346  0.0316  0.6260
 6735TIP3   OH241763   6.556   1.270   2.466 -0.2111 -0.0305  0.3587
 6735TIP3    H141764   6.550   1.349   2.520  1.3039  0.7320 -0.5515
 6735TIP3    H241765   6.496   1.286   2.393 -1.5537 -0.6723  1.2791
 6736TIP3   OH241766   2.130   0.421   1.458  0.1764  0.3417  0.0859
 6736TIP3    H141767   2.145   0.450   1.368 -0.3228  0.8710  0.1644
 6736TIP3    H241768   2.036   0.436   1.473  0.3511  0.7471  0.8602
 6737TIP3   OH241769   4.943   5.850   1.989 -0.2705 -0.2220 -0.4343
 6737TIP3    H141770   4.881   5.848   2.062  1.1321 -0.1290  0.8213
 6737TIP3    H241771   4.939   5.763   1.951  2.7531 -2.2462  3.1970
 6738TIP3   OH241772   1.385   0.709   0.434 -0.0229 -0.3984  0.3842
 6738TIP3    H141773   1.453   0.651   0.402 -0.2093 -1.0547  1.1402
 6738TIP3    H241774   1.311   0.651   0.454  0.8092 -0.4219  4.0912
 6739TIP3   OH241775   6.192   2.147   1.522  0.3769 -0.2754  0.6310
 6739TIP3    H141776   6.282   2.177   1.529  1.0598 -1.2486 -2.4607
 6739TIP3    H241777   6.150   2.208   1.461 -0.5810 -0.7681  0.7596
 6740TIP3   OH241778   0.256   1.737   1.242 -0.4083 -0.1262  1.3142
 6740TIP3    H141779   0.351   1.752   1.246 -0.1435 -1.0847 -0.3647
 6740TIP3    H241780   0.218   1.824   1.230  0.4311  0.0744 -0.0697
 6741TIP3   OH241781   5.168   6.337   7.231 -0.3801  0.3286  0.0902
 6741TIP3    H141782   5.079   6.369   7.220 -0.1751  0.8684 -0.0525
 6741TIP3    H241783   5.212   6.358   7.148 -0.3573 -0.7469 -0.1858
 6742TIP3   OH241784   1.188   1.619   1.546 -0.1772  0.2283  0.8162
 6742TIP3    H141785   1.181   1.686   1.614  1.3048  1.4460 -0.1284
 6742TIP3    H241786   1.222   1.667   1.470  0.0830 -1.4449 -0.1698
 6743TIP3   OH241787   1.043   0.399   1.470  0.2641 -0.5647 -0.2954
 6743TIP3    H141788   1.106   0.457   1.428 -0.2338 -0.8060 -1.4211
 6743TIP3    H241789   1.089   0.363   1.546  0.7762  0.8253  0.0646
 6744TIP3   OH241790   2.966   0.321   7.779 -0.2505 -0.0263  0.0129
 6744TIP3    H141791   2.928   0.403   7.809  1.6980  1.9310 -2.4667
 6744TIP3    H241792   2.919   0.300   7.698 -1.6610 -2.2126  1.2774
 6745TIP3   OH241793   1.224   1.166   8.884  0.2810 -0.5222 -0.1279
 6745TIP3    H141794   1.229   1.201   8.795  0.7149 -1.9456 -0.6973
 6745TIP3    H241795   1.298   1.205   8.930  0.1161  0.1368 -0.4186
 6746TIP3   OH241796   0.001   5.197   1.607  0.0990  0.1841  0.2553
 6746TIP3    H141797   0.085   5.203   1.653  0.6302  0.8198 -0.7461
 6746TIP3    H241798   0.020   5.233   1.520 -1.5882  1.7744  0.5017
 6747TIP3   OH241799   6.233   5.237   7.799 -0.1902 -0.5015 -0.0425
 6747TIP3    H141800   6.314   5.284   7.781  0.1073 -0.2267  1.7495
 6747TIP3    H241801   6.166   5.306   7.801  0.0073 -0.3118  1.1254
 6748TIP3   OH241802   1.389   6.172   0.198  0.2526 -0.5676  0.6495
 6748TIP3    H141803   1.482   6.161   0.220  0.3529 -1.8246 -0.3011
 6748TIP3    H241804   1.343   6.148   0.279  0.7365 -0.6907  0.8933
 6749TIP3   OH241805   3.884   3.832   2.478 -0.2870 -0.2054 -0.9270
 6749TIP3    H141806   3.875   3.849   2.571 -0.3218 -1.7983 -0.6234
 6749TIP3    H241807   3.819   3.889   2.437 -0.9058 -0.1540  0.0915
 6750TIP3   OH241808   2.196   1.876   1.674  0.9285  0.9650 -0.2112
 6750TIP3    H141809   2.101   1.869   1.676  0.6848  3.4327  0.7907
 6750TIP3    H241810   2.215   1.932   1.599  1.5953  0.5697 -0.3504
 6751TIP3   OH241811   6.538   6.145   1.981 -0.5713  0.1154  0.1254
 6751TIP3    H141812   6.557   6.220   2.038 -1.8470  0.2263  0.4538
 6751TIP3    H241813   6.446   6.125   1.999 -0.0990 -1.9281  0.5064
 6752TIP3   OH241814   2.493   6.253   2.464  0.6692 -0.4216 -0.0937
 6752TIP3    H141815   2.580   6.279   2.493  0.6930  0.4747 -0.9443
 6752TIP3    H241816   2.439   6.258   2.543  0.9599  0.9609  0.0281
 6753TIP3   OH241817   2.113   5.727   1.785 -0.0851  0.7360 -0.3529
 6753TIP3    H141818   2.086   5.817   1.798 -0.1919  0.5226  1.1573
 6753TIP3    H241819   2.195   5.719   1.835 -0.7671 -0.3194  0.6609
 6754TIP3   OH241820   4.217   3.742   2.080  0.3765 -0.4942  0.1714
 6754TIP3    H141821   4.135   3.784   2.108  0.3498 -1.8152  2.2319
 6754TIP3    H241822   4.279   3.815   2.071 -0.6943  0.3990 -0.3416
 6755TIP3   OH241823   2.282   2.739   8.542  0.3748 -0.1306 -0.2819
 6755TIP3    H141824   2.376   2.721   8.542  0.7703  1.0312  3.3904
 6755TIP3    H241825   2.276   2.835   8.545 -0.8617 -0.2136  0.7205
 6756TIP3   OH241826   0.464   1.840   6.758 -0.9216 -0.1725 -0.4967
 6756TIP3    H141827   0.370   1.849   6.746 -1.0571 -1.5588 -0.6225
 6756TIP3    H241828   0.485   1.755   6.721  0.5765  0.5821 -1.4799
 6757TIP3   OH241829   6.222   1.850   1.665  0.3150  0.3979  0.3514
 6757TIP3    H141830   6.271   1.798   1.601  2.0644  0.9854  1.1460
 6757TIP3    H241831   6.142   1.876   1.619  0.8325 -0.4190 -1.0756
 6758TIP3   OH241832   1.201   6.406   8.865  0.0885  0.2672  0.8962
 6758TIP3    H141833   1.232   6.316   8.867  0.5211  0.3538 -0.6024
 6758TIP3    H241834   1.235   6.445   8.946  1.0814 -0.5495  0.8938
 6759TIP3   OH241835   1.584   3.141   1.420 -0.2141 -0.4040  0.1250
 6759TIP3    H141836   1.580   3.122   1.326 -0.1745 -0.3057  0.1039
 6759TIP3    H241837   1.639   3.071   1.456  0.6361  0.1443 -0.0814
 6760TIP3   OH241838   4.206   3.702   9.228 -0.3970  0.4540 -0.4956
 6760TIP3    H141839   4.184   3.792   9.254 -1.2998 -0.1052  0.8232
 6760TIP3    H241840   4.123   3.665   9.197 -0.1346 -0.0471 -0.6146
 6761TIP3   OH241841   5.268   6.497   7.411 -0.0676 -0.0256  0.2966
 6761TIP3    H141842   5.226   6.434   7.353  1.1628 -1.5246  0.9460
 6761TIP3    H241843   5.211   6.503   7.487 -0.7390  0.5049 -0.2405
 6762TIP3   OH241844   2.843   1.242   9.146  0.5707 -0.0791 -0.3415
 6762TIP3    H141845   2.901   1.260   9.220  0.2965 -0.1037 -0.1244
 6762TIP3    H241846   2.866   1.309   9.081  0.4669  0.2439 -0.0436
 6763TIP3   OH241847   1.115   5.708   2.750  0.7491  0.2628 -0.0617
 6763TIP3    H141848   1.163   5.764   2.811 -0.2722  1.0461  0.0440
 6763TIP3    H241849   1.101   5.763   2.673  1.7397 -0.6061 -0.9133
 6764TIP3   OH241850   1.730   5.549   1.339 -0.3746  0.1397  0.4103
 6764TIP3    H141851   1.743   5.618   1.274 -1.2205  0.0058  0.0841
 6764TIP3    H241852   1.805   5.556   1.398  0.8804 -0.3100 -1.0891
 6765TIP3   OH241853   1.479   0.090   1.386 -0.6930 -0.1882 -0.0055
 6765TIP3    H141854   1.410   0.035   1.350 -0.9461  0.5835 -0.7390
 6765TIP3    H241855   1.443   0.179   1.384 -0.3738 -0.0135  1.3543
 6766TIP3   OH241856   2.199   1.234   9.033 -0.3774  0.2187  0.1441
 6766TIP3    H141857   2.222   1.164   9.094 -0.5253 -0.5884 -0.6912
 6766TIP3    H241858   2.258   1.306   9.055  0.4390 -0.5145  0.4144
 6767TIP3   OH241859   3.960   1.840   0.687  0.5228 -0.5961 -0.2336
 6767TIP3    H141860   3.936   1.768   0.746 -0.5728  0.1977  0.3316
 6767TIP3    H241861   3.959   1.918   0.742 -1.3592  0.3024 -1.4238
 6768TIP3   OH241862   2.509   2.087   1.654 -1.0788 -0.2609 -0.4183
 6768TIP3    H141863   2.500   2.071   1.748  0.8828 -0.0349 -0.1430
 6768TIP3    H241864   2.594   2.131   1.646 -2.6996  2.9524 -1.9426
 6769TIP3   OH241865   1.299   6.147   9.010 -0.1460 -0.3245  0.0387
 6769TIP3    H141866   1.368   6.085   9.033 -0.4381  0.0550  2.0962
 6769TIP3    H241867   1.260   6.110   8.930  1.9492 -0.8954 -0.7828
 6770TIP3   OH241868   3.472   3.628   1.564  0.3072  0.1343  0.3925
 6770TIP3    H141869   3.563   3.604   1.580 -0.4398 -2.9488  0.5446
 6770TIP3    H241870   3.437   3.646   1.651 -0.1167 -2.4421  0.8261
 6771TIP3   OH241871   2.868   2.673   0.766  0.2643  0.4117 -0.2547
 6771TIP3    H141872   2.833   2.616   0.698 -0.7153 -0.1737  0.7234
 6771TIP3    H241873   2.893   2.753   0.719 -0.8999  0.2294 -1.2226
 6772TIP3   OH241874   6.069   0.688   8.789 -0.1804  0.0445 -0.0424
 6772TIP3    H141875   6.068   0.719   8.699 -0.3337 -1.2837 -0.5162
 6772TIP3    H241876   6.158   0.654   8.802 -0.3048 -0.2126  0.1482
 6773TIP3   OH241877   0.595   3.166   8.555 -0.0398  0.1793 -0.3176
 6773TIP3    H141878   0.656   3.097   8.530  1.0366  1.5037 -1.5596
 6773TIP3    H241879   0.635   3.208   8.631 -0.6748 -0.5071  0.4144
 6774TIP3   OH241880   5.556   6.093   8.970 -0.0199 -0.2470  0.4906
 6774TIP3    H141881   5.566   6.170   9.026 -1.0318  0.7341 -0.6322
 6774TIP3    H241882   5.597   6.118   8.888 -0.9894 -0.6305 -0.1266
 6775TIP3   OH241883   4.559   4.388   7.341 -0.0501 -0.2888  0.2620
 6775TIP3    H141884   4.475   4.408   7.382 -0.3791  0.1541 -0.6218
 6775TIP3    H241885   4.624   4.410   7.409 -0.6142 -0.2273  0.7904
 6776TIP3   OH241886   0.610   1.539   0.282  0.5994  0.1940 -0.0610
 6776TIP3    H141887   0.533   1.578   0.241  0.6411 -0.2598 -0.5748
 6776TIP3    H241888   0.587   1.531   0.375 -1.0097 -2.3928 -0.5870
 6777TIP3   OH241889   0.717   6.167   1.699 -0.4012 -0.1480 -0.3112
 6777TIP3    H141890   0.749   6.257   1.701  0.0391 -0.3229  0.6232
 6777TIP3    H241891   0.744   6.129   1.783  0.7755 -1.6244 -1.3020
 6778TIP3   OH241892   4.298   2.731   1.231 -0.2718 -0.0062  0.0737
 6778TIP3    H141893   4.243   2.700   1.303  1.9986 -1.4717  1.2859
 6778TIP3    H241894   4.371   2.776   1.274  1.7969 -1.9741 -1.1562
 6779TIP3   OH241895   4.234   5.399   1.652  0.0547  0.2623 -0.8030
 6779TIP3    H141896   4.239   5.350   1.570  0.9511 -1.2881  0.1326
 6779TIP3    H241897   4.207   5.335   1.718 -1.1837  1.5914  0.0490
 6780TIP3   OH241898   5.871   4.301   7.514 -0.2400 -0.2269 -0.4419
 6780TIP3    H141899   5.779   4.279   7.495 -0.4147  0.6750 -0.6965
 6780TIP3    H241900   5.895   4.364   7.446 -0.4050  1.9572  1.3829
 6781TIP3   OH241901   6.385   4.339   0.659  0.5947  0.4201  0.5742
 6781TIP3    H141902   6.453   4.393   0.618 -1.0977  0.4969 -2.4357
 6781TIP3    H241903   6.304   4.390   0.647 -0.5709 -1.4039  0.4083
 6782TIP3   OH241904   3.364   1.233   7.179 -0.4278  0.1318  0.1076
 6782TIP3    H141905   3.405   1.162   7.129  0.4132  0.2389  0.6205
 6782TIP3    H241906   3.425   1.306   7.171 -1.6464  1.0728 -1.0471
 6783TIP3   OH241907   3.578   6.248   9.282  0.0959 -0.0192  0.6324
 6783TIP3    H141908   3.526   6.202   9.216 -1.1485  0.7167  1.0655
 6783TIP3    H241909   3.631   6.180   9.322 -2.3424 -1.3403  1.8850
 6784TIP3   OH241910   3.061   5.829   2.857  0.3850 -0.1978  0.2154
 6784TIP3    H141911   2.984   5.776   2.834  0.3931 -0.3028  0.4241
 6784TIP3    H241912   3.073   5.887   2.783  2.2348 -2.5571 -1.5076
 6785TIP3   OH241913   4.795   5.096   0.952  0.5054 -0.1842 -0.2595
 6785TIP3    H141914   4.887   5.078   0.971 -0.1868 -3.5538  0.4165
 6785TIP3    H241915   4.797   5.142   0.868  2.7903  0.0569 -0.1449
 6786TIP3   OH241916   6.074   1.675   7.854 -0.6036  0.8448  0.0342
 6786TIP3    H141917   6.046   1.667   7.763 -1.5401  2.3545  0.1548
 6786TIP3    H241918   6.167   1.695   7.850 -0.4289 -0.0661 -0.5468
 6787TIP3   OH241919   3.770   4.463   1.174 -0.1672  0.5159 -0.5489
 6787TIP3    H141920   3.833   4.415   1.120  1.0393  1.7151 -0.2697
 6787TIP3    H241921   3.684   4.434   1.143  0.5007 -1.5820 -0.5696
 6788TIP3   OH241922   2.171   4.415   0.842  0.2386  0.8290  0.1526
 6788TIP3    H141923   2.092   4.369   0.868  2.0300 -1.3502  2.1557
 6788TIP3    H241924   2.212   4.359   0.776  0.0509  2.0599 -1.0588
 6789TIP3   OH241925   4.968   4.628   8.340  0.2294  0.3604  0.0639
 6789TIP3    H141926   5.009   4.664   8.262  0.0215  2.4586  0.8611
 6789TIP3    H241927   5.038   4.620   8.404 -0.0061  0.8786  0.3960
 6790TIP3   OH241928   3.316   3.521   0.106 -0.7609 -0.2385  0.2600
 6790TIP3    H141929   3.359   3.589   0.158 -2.1625 -0.3853  1.6990
 6790TIP3    H241930   3.387   3.477   0.061  0.2956  1.4285  0.1957
 6791TIP3   OH241931   5.045   1.549   0.055 -0.4109 -0.2000  0.6136
 6791TIP3    H141932   5.005   1.514  -0.024  0.8605 -2.4833  0.9240
 6791TIP3    H241933   5.008   1.638   0.062 -1.7422 -0.4864 -1.6398
 6792TIP3   OH241934   3.863   1.029   0.035  0.1957  0.0124  0.6976
 6792TIP3    H141935   3.935   1.084   0.065 -0.2337  1.8331 -1.3066
 6792TIP3    H241936   3.791   1.049   0.095  0.0621  1.6929  0.0512
 6793TIP3   OH241937   2.320   4.809   8.663  0.0745 -0.1912 -0.8194
 6793TIP3    H141938   2.263   4.812   8.740 -1.0151  0.1901 -1.6119
 6793TIP3    H241939   2.282   4.741   8.608  0.4403  0.0109 -1.3230
 6794TIP3   OH241940   2.754   0.463   0.732 -0.0122  0.6278 -0.2752
 6794TIP3    H141941   2.770   0.371   0.753  0.9607  0.7576 -0.3915
 6794TIP3    H241942   2.838   0.495   0.698 -0.2979  1.5922 -0.1122
 6795TIP3   OH241943   4.387   2.661   1.806 -0.3404 -0.2336  0.6291
 6795TIP3    H141944   4.456   2.608   1.766 -1.3181 -0.6046 -0.6365
 6795TIP3    H241945   4.349   2.604   1.873  1.2900  0.3793  2.1303
 6796TIP3   OH241946   3.326   3.540   7.007 -0.0564  0.7810 -0.3026
 6796TIP3    H141947   3.410   3.530   6.963  0.1522 -0.7699  0.3965
 6796TIP3    H241948   3.274   3.594   6.948  1.1411  1.0504 -1.1327
 6797TIP3   OH241949   4.447   1.742   6.711  0.1822  0.6052 -0.4361
 6797TIP3    H141950   4.411   1.730   6.623  0.0937  0.6441 -0.4059
 6797TIP3    H241951   4.501   1.664   6.726  1.6225  1.4215 -1.2085
 6798TIP3   OH241952   2.175   2.167   0.435 -0.3331  0.0529 -0.3881
 6798TIP3    H141953   2.234   2.209   0.496 -0.4015 -0.0300 -0.2645
 6798TIP3    H241954   2.186   2.073   0.451 -0.4903  0.0365 -0.3696
 6799TIP3   OH241955   1.856   1.849   0.711 -0.0851 -0.3468  0.0139
 6799TIP3    H141956   1.770   1.875   0.678 -0.4293  0.6558  1.6011
 6799TIP3    H241957   1.841   1.762   0.749 -0.0606 -0.7692 -0.9042
 6800TIP3   OH241958   5.116   1.986   7.686  0.7469  0.5096 -0.7770
 6800TIP3    H141959   5.030   1.948   7.667  0.3208  0.4684  1.0423
 6800TIP3    H241960   5.178   1.929   7.642  0.0297 -1.5885  0.7832
 6801TIP3   OH241961   4.793   0.331   7.681 -0.0021 -0.1061 -0.3649
 6801TIP3    H141962   4.835   0.415   7.698 -2.0478  0.7145  1.0579
 6801TIP3    H241963   4.702   0.345   7.704 -0.4794 -2.6337 -0.4559
 6802TIP3   OH241964   2.524   3.378   6.750 -0.1955  0.1991  0.1916
 6802TIP3    H141965   2.471   3.346   6.677  1.0000  0.2662 -0.7413
 6802TIP3    H241966   2.611   3.343   6.734 -0.2644 -1.3148  2.6041
 6803TIP3   OH241967   1.725   1.739   1.040 -0.1894 -0.0915 -0.1816
 6803TIP3    H141968   1.659   1.681   1.079 -0.7492  0.1761 -0.7120
 6803TIP3    H241969   1.762   1.689   0.967  1.0359 -0.6887  0.8143
 6804TIP3   OH241970   0.597   0.894   0.715 -0.1968 -0.2032 -0.0606
 6804TIP3    H141971   0.508   0.874   0.687 -0.5218 -1.7038  1.8025
 6804TIP3    H241972   0.586   0.956   0.787  0.1764 -0.8740  0.5988
 6805TIP3   OH241973   1.446   3.049   2.015 -0.4290 -0.3895  0.2183
 6805TIP3    H141974   1.466   3.025   2.106 -0.1610 -0.5220  0.1235
 6805TIP3    H241975   1.439   2.965   1.969 -0.1206 -0.3097  0.0227
 6806TIP3   OH241976   1.228   2.097   8.656 -0.2446 -0.3712 -0.0761
 6806TIP3    H141977   1.312   2.120   8.618  0.3482 -1.8023  0.3309
 6806TIP3    H241978   1.214   2.163   8.724 -0.0230  0.5609 -0.8989
 6807TIP3   OH241979   4.150   3.370   7.361 -0.2240  0.1131 -0.4189
 6807TIP3    H141980   4.133   3.378   7.455 -1.1398 -1.0115 -0.4753
 6807TIP3    H241981   4.177   3.279   7.348  0.7399  0.4780 -1.1329
 6808TIP3   OH241982   4.368   4.576   9.240 -0.2720 -0.0258  0.1982
 6808TIP3    H141983   4.378   4.515   9.313  2.0749  0.6918  0.5326
 6808TIP3    H241984   4.414   4.535   9.167  0.5159  0.8966  0.1606
 6809TIP3   OH241985   0.846   1.823   1.671 -0.6197  0.0709  0.3450
 6809TIP3    H141986   0.844   1.759   1.742 -0.8313  1.6444  1.8239
 6809TIP3    H241987   0.819   1.905   1.712  1.0273  1.4391 -1.1416
 6810TIP3   OH241988   4.118   1.453   6.845  0.3129  0.4750 -0.3558
 6810TIP3    H141989   4.150   1.364   6.859 -0.1889  0.2034 -0.8695
 6810TIP3    H241990   4.080   1.451   6.757 -0.6484  0.9131  0.0373
 6811TIP3   OH241991   1.416   5.117   1.160  0.4244  0.3934 -0.3337
 6811TIP3    H141992   1.454   5.175   1.227  1.1204 -0.4837  0.0461
 6811TIP3    H241993   1.478   5.045   1.152  2.0415  1.9467 -4.2086
 6812TIP3   OH241994   0.759   2.975   7.891  0.0474  0.2179  0.0344
 6812TIP3    H141995   0.766   3.007   7.801 -1.6084 -0.2375 -0.2983
 6812TIP3    H241996   0.834   2.918   7.902 -0.3148 -0.6010 -1.4531
 6813TIP3   OH241997   4.792   2.127   0.726 -0.5365 -0.1285  0.0031
 6813TIP3    H141998   4.731   2.137   0.653  0.5105 -0.0734 -0.8921
 6813TIP3    H241999   4.846   2.052   0.702  1.2076  1.1810 -0.3169
 6814TIP3   OH242000   4.860   6.474   1.491 -0.6474  0.1391  0.3477
 6814TIP3    H142001   4.889   6.533   1.560  0.0084  1.5200 -1.0451
 6814TIP3    H242002   4.781   6.515   1.455  0.7100  1.1336 -1.7108
 6815TIP3   OH242003   5.011   2.120   0.005  0.0265  0.2277 -0.0369
 6815TIP3    H142004   4.921   2.106  -0.025  0.1131 -0.8339  0.1762
 6815TIP3    H242005   5.033   2.042   0.056  0.8776  0.7266  0.3958
 6816TIP3   OH242006   4.436   0.142   7.321  0.4476 -0.4380 -0.2456
 6816TIP3    H142007   4.510   0.085   7.303  0.4211 -0.5201 -0.1017
 6816TIP3    H242008   4.359   0.085   7.314  0.3541 -0.2302 -0.9436
 6817TIP3   OH242009   4.511   1.370   0.557  0.3744  0.1851 -0.1392
 6817TIP3    H142010   4.553   1.427   0.621 -1.1499 -1.8075  2.8475
 6817TIP3    H242011   4.417   1.387   0.568  0.0127 -1.2996 -0.7722
 6818TIP3   OH242012   0.432   3.893   8.864  0.2683  0.0381 -0.0214
 6818TIP3    H142013   0.387   3.865   8.784  1.3126  1.8875 -1.3393
 6818TIP3    H242014   0.367   3.947   8.910 -0.0617 -0.3348 -0.0479
 6819TIP3   OH242015   3.529   2.906   2.151 -0.0027  0.7430  0.3567
 6819TIP3    H142016   3.575   2.841   2.098 -0.6933  1.4025 -1.0796
 6819TIP3    H242017   3.589   2.922   2.225  1.1184  0.0370 -0.3612
 6820TIP3   OH242018   1.642   0.805   7.635 -0.3051  0.5208  0.2377
 6820TIP3    H142019   1.647   0.793   7.540 -0.1080  1.4910  0.1083
 6820TIP3    H242020   1.578   0.876   7.645 -0.7724  0.0169  0.8689
 6821TIP3   OH242021   1.701   3.721   9.047  0.3609  0.4047  0.2130
 6821TIP3    H142022   1.650   3.673   8.982  1.5911  0.0296 -0.4912
 6821TIP3    H242023   1.755   3.781   8.997  3.1245 -1.5422  0.5924
 6822TIP3   OH242024   6.486   4.591   9.176  0.4829 -1.1670  0.2535
 6822TIP3    H142025   6.494   4.514   9.233  1.6810 -0.5358  0.9722
 6822TIP3    H242026   6.570   4.596   9.131 -0.3167 -1.4368 -1.3243
 6823TIP3   OH242027   5.328   2.366   0.121 -0.3443  0.9713  0.5229
 6823TIP3    H142028   5.387   2.322   0.060  0.8805  1.9323  0.9729
 6823TIP3    H242029   5.270   2.297   0.152  1.1472 -0.2304  0.7743
 6824TIP3   OH242030   6.051   3.760   7.360 -0.0404 -0.3158 -0.5222
 6824TIP3    H142031   6.060   3.802   7.275 -0.0165 -1.6194 -1.1823
 6824TIP3    H242032   5.994   3.686   7.344 -1.9459  0.7184  1.0848
 6825TIP3   OH242033   2.897   1.222   8.232 -0.6058 -0.4755  0.2677
 6825TIP3    H142034   2.876   1.313   8.210 -0.1339 -0.0578  1.4826
 6825TIP3    H242035   2.933   1.186   8.151  0.2262  0.7463  0.0663
 6826TIP3   OH242036   2.935   4.499   7.337  0.3152  0.7278  0.0344
 6826TIP3    H142037   2.853   4.509   7.289 -0.4372 -0.1241  1.0946
 6826TIP3    H242038   2.991   4.447   7.279 -0.6713 -0.5320  0.1685
 6827TIP3   OH242039   5.870   0.273   0.838 -0.4282  0.8016  0.0558
 6827TIP3    H142040   5.794   0.225   0.870  0.7476 -0.2610  1.3432
 6827TIP3    H242041   5.935   0.206   0.818  0.7585  1.7523  0.5820
 6828TIP3   OH242042   1.637   5.666   2.673 -0.4810  0.0748 -0.3854
 6828TIP3    H142043   1.585   5.743   2.695 -0.8647 -0.2591 -0.1005
 6828TIP3    H242044   1.709   5.699   2.619 -0.8812  0.5682 -0.6210
 6829TIP3   OH242045   3.903   2.853   8.928 -0.2687 -0.5431 -0.0781
 6829TIP3    H142046   3.896   2.934   8.979 -1.4947 -1.0417  0.5803
 6829TIP3    H242047   3.874   2.878   8.840 -1.4358 -0.4344  0.3205
 6830TIP3   OH242048   1.537   0.829   8.496 -0.0095  0.4954  0.1236
 6830TIP3    H142049   1.473   0.851   8.564  0.5308 -0.3638  0.9376
 6830TIP3    H242050   1.530   0.734   8.488  1.1913  0.3872  0.2502
 6831TIP3   OH242051   2.139   4.580   8.200 -0.4135  0.4694 -0.5965
 6831TIP3    H142052   2.092   4.650   8.155  1.5504  1.8276 -0.6329
 6831TIP3    H242053   2.169   4.522   8.130  1.5004  1.8709 -1.0073
 6832TIP3   OH242054   5.309   3.134   0.464  0.0851 -0.4421 -0.4292
 6832TIP3    H142055   5.222   3.099   0.484 -0.5479  1.0335 -0.5250
 6832TIP3    H242056   5.353   3.139   0.549 -0.5073  0.3043 -0.1576
 6833TIP3   OH242057   4.493   3.482   1.956  0.2982  0.6818  0.3563
 6833TIP3    H142058   4.548   3.530   1.895 -0.0970  1.5194  0.6477
 6833TIP3    H242059   4.553   3.423   2.002  0.7286  0.6391 -0.2459
 6834TIP3   OH242060   5.728   0.972   2.552  0.0358  0.3444  0.0240
 6834TIP3    H142061   5.657   0.938   2.606  0.0069  0.2734 -0.0590
 6834TIP3    H242062   5.710   1.066   2.545 -0.4563  0.2029 -0.6155
 6835TIP3   OH242063   6.070   2.711   7.453 -0.1122  0.3881 -0.5574
 6835TIP3    H142064   6.049   2.706   7.360  0.8953  1.2575 -0.8551
 6835TIP3    H242065   6.095   2.803   7.467  2.6531 -0.3524 -0.0972
 6836TIP3   OH242066   0.126   4.285   1.067  0.1737  0.2716  0.3279
 6836TIP3    H142067   0.141   4.355   1.003  1.5130 -0.0052  0.2945
 6836TIP3    H242068   0.208   4.235   1.066  0.1294  0.1134  2.0856
 6837TIP3   OH242069   3.105   1.156   0.505 -0.4560  0.1324 -0.2276
 6837TIP3    H142070   3.061   1.202   0.577 -1.3288  2.0082 -1.8780
 6837TIP3    H242071   3.088   1.063   0.523 -2.2749  0.6398  0.9676
 6838TIP3   OH242072   6.590   2.213   8.347  0.3709  0.7239 -0.1566
 6838TIP3    H142073   6.496   2.210   8.332  0.4140  2.1958 -0.9503
 6838TIP3    H242074   6.629   2.179   8.267  0.5200  0.2358  0.1204
 6839TIP3   OH242075   1.462   1.466   8.484 -0.2939  0.4618 -0.4301
 6839TIP3    H142076   1.521   1.431   8.550 -0.8382  0.0646 -0.1469
 6839TIP3    H242077   1.457   1.397   8.417  0.2209  0.8430 -0.8769
 6840TIP3   OH242078   0.511   2.126   1.123  0.7269 -0.4661  1.2259
 6840TIP3    H142079   0.452   2.151   1.051  1.2181  0.6086  1.1726
 6840TIP3    H242080   0.453   2.091   1.190 -0.0596  1.0066  1.3672
 6841TIP3   OH242081   6.400   3.610   7.653 -0.6223 -0.5395 -0.4047
 6841TIP3    H142082   6.465   3.547   7.623  0.7837  0.8726 -0.4160
 6841TIP3    H242083   6.348   3.561   7.717  1.3092 -1.3569  0.6293
 6842TIP3   OH242084   0.499   1.816   8.708 -0.0503  0.7976 -0.2971
 6842TIP3    H142085   0.431   1.763   8.751 -0.2213  1.9696  0.9450
 6842TIP3    H242086   0.485   1.904   8.741  0.8758  1.4442 -1.5393
 6843TIP3   OH242087   4.764   2.169   7.120 -0.1642  0.1396  0.1715
 6843TIP3    H142088   4.762   2.262   7.095 -0.0890 -0.0645 -0.6209
 6843TIP3    H242089   4.807   2.126   7.047  0.6095 -0.4088  0.9264
 6844TIP3   OH242090   3.480   1.168   1.849 -1.0694 -0.0563  0.4275
 6844TIP3    H142091   3.412   1.176   1.915 -1.0307  1.2579  0.3388
 6844TIP3    H242092   3.479   1.252   1.803 -0.4644 -0.6048 -0.6232
 6845TIP3   OH242093   3.270   6.509   0.443 -0.3110 -0.1568  1.0786
 6845TIP3    H142094   3.192   6.496   0.389 -0.1186  1.0582  0.4687
 6845TIP3    H242095   3.293   6.422   0.474 -1.6361 -0.5902  0.8861
 6846TIP3   OH242096   1.365   1.760   8.511 -0.2486  0.6006  0.2362
 6846TIP3    H142097   1.383   1.691   8.448  0.6319  2.2670 -1.4333
 6846TIP3    H242098   1.437   1.756   8.573 -0.9896 -0.8982  1.0324
 6847TIP3   OH242099   2.358   3.553   6.890 -0.1313 -0.7037  0.5712
 6847TIP3    H142100   2.394   3.467   6.866  1.7667 -0.0785  0.9966
 6847TIP3    H242101   2.387   3.566   6.980  0.2035  0.6935  0.2744
 6848TIP3   OH242102   4.328   5.524   8.858  0.0561  0.1641 -0.3514
 6848TIP3    H142103   4.290   5.592   8.802  0.7518 -0.2512 -1.3614
 6848TIP3    H242104   4.271   5.448   8.844  0.8386 -0.2599 -1.3507
 6849TIP3   OH242105   0.492   2.471   2.606 -0.0596  0.2774  0.1295
 6849TIP3    H142106   0.535   2.422   2.677  0.1901  2.0068  1.2353
 6849TIP3    H242107   0.554   2.466   2.533  0.7144  0.3075  0.7646
 6850TIP3   OH242108   0.007   2.695   1.579 -0.5361 -0.0609  0.4031
 6850TIP3    H142109  -0.088   2.685   1.576 -0.4153 -0.9766 -1.0230
 6850TIP3    H242110   0.030   2.739   1.497  0.4833 -2.1491 -0.5043
 6851TIP3   OH242111   3.895   3.086   7.465  0.4933 -0.3155  0.0456
 6851TIP3    H142112   3.867   3.170   7.428 -0.6240 -0.6840  0.0053
 6851TIP3    H242113   3.875   3.093   7.558  0.2509 -0.5866  0.0155
 6852TIP3   OH242114   5.927   5.589   8.394  0.8309  0.4800  0.3087
 6852TIP3    H142115   5.925   5.494   8.402 -0.1428  0.5650  1.5138
 6852TIP3    H242116   5.840   5.617   8.425  1.3983  1.7982  0.7903
 6853TIP3   OH242117   1.673   1.913   8.344 -0.6272 -0.2329  0.3626
 6853TIP3    H142118   1.637   1.946   8.261 -0.8012 -1.7883 -0.2022
 6853TIP3    H242119   1.686   1.992   8.396  0.1994  0.8675 -1.4068
 6854TIP3   OH242120   2.589   5.792   2.632 -0.1242 -0.4521 -0.4237
 6854TIP3    H142121   2.557   5.733   2.700 -1.2292 -1.5192 -1.7953
 6854TIP3    H242122   2.570   5.745   2.550  0.3437  1.1707 -1.4929
 6855TIP3   OH242123   3.889   2.343   0.854 -0.6317  0.9288 -0.3304
 6855TIP3    H142124   3.971   2.306   0.820 -0.4918  0.2213  0.7481
 6855TIP3    H242125   3.821   2.295   0.808 -0.4552 -0.8182  1.1227
 6856TIP3   OH242126   3.295   4.634   0.839 -0.1468  1.2199 -0.2939
 6856TIP3    H142127   3.346   4.578   0.898  0.8089  1.6607 -0.6824
 6856TIP3    H242128   3.284   4.716   0.887  0.5228  1.5342 -0.6623
 6857TIP3   OH242129   4.040   2.756   7.260  0.2622  0.2856 -0.2348
 6857TIP3    H142130   4.013   2.698   7.189 -0.9986  0.8697 -0.2594
 6857TIP3    H242131   3.959   2.784   7.301  0.9101  0.9663  0.6349
 6858TIP3   OH242132   2.700   1.436   7.451  0.0168  0.2245 -0.2761
 6858TIP3    H142133   2.646   1.368   7.410 -0.5439 -0.6889  1.8786
 6858TIP3    H242134   2.785   1.395   7.464 -0.1176  0.1551  0.4055
 6859TIP3   OH242135   5.998   4.880   0.607 -0.7302  0.2653 -0.4021
 6859TIP3    H142136   6.088   4.890   0.638 -1.3238  0.7170  1.2881
 6859TIP3    H242137   5.951   4.842   0.682 -1.7442 -0.9680 -1.6003
 6860TIP3   OH242138   3.245   2.703   9.273 -0.1189  0.4867 -0.4236
 6860TIP3    H142139   3.332   2.676   9.244  0.0916 -0.2792  0.8198
 6860TIP3    H242140   3.251   2.798   9.285  0.6248  0.4064 -0.1123
 6861TIP3   OH242141   4.755   2.551   8.222 -0.9578 -0.2867  0.4652
 6861TIP3    H142142   4.833   2.600   8.248 -0.4236 -1.0450  0.3435
 6861TIP3    H242143   4.788   2.488   8.158 -1.5141 -1.1576  1.0156
 6862TIP3   OH242144   0.608   0.733   0.046 -0.2080  0.0845 -0.9368
 6862TIP3    H142145   0.672   0.755   0.114  0.3700 -2.1158 -0.7033
 6862TIP3    H242146   0.599   0.813  -0.005  2.9531  0.4144 -1.1651
 6863TIP3   OH242147   1.949   1.509   0.124  0.4681  0.2839  0.6322
 6863TIP3    H142148   2.021   1.482   0.066  1.3564 -0.9548  2.2403
 6863TIP3    H242149   1.871   1.472   0.083  1.0886 -0.6561  0.2526
 6864TIP3   OH242150   5.543   2.737   7.311  0.0474 -0.6274 -0.3397
 6864TIP3    H142151   5.598   2.755   7.388  0.9444 -0.9057 -0.9031
 6864TIP3    H242152   5.500   2.820   7.293  1.2464 -0.0405 -0.6283
 6865TIP3   OH242153   5.514   6.332   0.303 -0.2364  0.1715  0.2323
 6865TIP3    H142154   5.472   6.280   0.234  0.2744 -0.5595  0.4644
 6865TIP3    H242155   5.555   6.405   0.256  0.1011 -0.3137 -0.2455
 6866TIP3   OH242156   3.837   0.144   1.933 -0.3559  0.7025 -0.6073
 6866TIP3    H142157   3.749   0.115   1.912  0.4406 -2.2996 -0.2389
 6866TIP3    H242158   3.895   0.083   1.888  1.5642  2.2360 -0.3899
 6867TIP3   OH242159   3.040   5.806   8.447  0.4218 -0.8318 -0.3834
 6867TIP3    H142160   3.075   5.872   8.507 -0.3175 -2.0856  1.5154
 6867TIP3    H242161   3.033   5.851   8.363  1.8116  0.8984  0.3609
 6868TIP3   OH242162   5.656   0.770   9.245  0.3591  0.1593  0.5524
 6868TIP3    H142163   5.729   0.711   9.260 -0.4365 -1.4400 -1.5144
 6868TIP3    H242164   5.641   0.768   9.151 -2.8153 -0.1935  0.9507
 6869TIP3   OH242165   0.986   0.591   8.042  0.1708  0.1889  0.5627
 6869TIP3    H142166   0.964   0.622   7.954 -3.4408 -0.0897  1.2123
 6869TIP3    H242167   1.067   0.637   8.065  2.3258 -1.0689 -3.4804
 6870TIP3   OH242168   4.326   2.897   0.180  0.2936  0.3544  0.5782
 6870TIP3    H142169   4.232   2.889   0.194  0.2471 -0.3681 -0.0735
 6870TIP3    H242170   4.353   2.968   0.238 -0.3976 -0.4090  1.8740
 6871TIP3   OH242171   4.784   5.913   1.461 -0.0057 -0.8087  0.2525
 6871TIP3    H142172   4.828   5.923   1.377  0.4279  0.0388  0.5671
 6871TIP3    H242173   4.847   5.868   1.517  0.3342  0.0489  0.5839
 6872TIP3   OH242174   0.452   2.633   1.803 -0.2815 -0.1768  0.3836
 6872TIP3    H142175   0.383   2.652   1.867 -0.5709  1.1820 -0.2939
 6872TIP3    H242176   0.502   2.561   1.842 -1.2600 -0.2757  1.5083
 6873TIP3   OH242177   1.041   3.231   6.944 -0.2863 -0.0548 -0.4216
 6873TIP3    H142178   1.018   3.309   6.895  0.9983 -0.3427 -1.5676
 6873TIP3    H242179   0.958   3.185   6.957 -0.7285  0.1810 -2.1175
 6874TIP3   OH242180   6.173   0.243   8.028 -0.6903 -0.1054  0.1562
 6874TIP3    H142181   6.248   0.274   8.079 -0.9771  1.2046 -0.1838
 6874TIP3    H242182   6.096   0.271   8.079 -0.9975  1.7703 -1.2392
 6875TIP3   OH242183   5.296   3.838   0.835 -0.5498 -0.4877 -0.1852
 6875TIP3    H142184   5.316   3.929   0.812 -1.5343  0.2995  1.7622
 6875TIP3    H242185   5.309   3.789   0.754 -1.9309  1.6838 -1.8285
 6876TIP3   OH242186   6.504   2.605   1.338 -0.0963 -0.1036 -0.2107
 6876TIP3    H142187   6.568   2.649   1.283 -0.5328 -0.0796 -0.7039
 6876TIP3    H242188   6.450   2.676   1.374  1.4368  0.0909  1.9144
 6877TIP3   OH242189   4.134   2.408   0.001  0.3690 -0.5838 -0.3277
 6877TIP3    H142190   4.162   2.453  -0.078 -0.7084  0.1270 -0.3291
 6877TIP3    H242191   4.178   2.454   0.073 -0.1515  0.0227 -0.3849
 6878TIP3   OH242192   0.138   0.524   1.158 -0.0373  0.3278 -0.1580
 6878TIP3    H142193   0.154   0.440   1.201  1.5002  1.0839  0.8140
 6878TIP3    H242194   0.044   0.524   1.140 -0.5164 -0.6069  2.0137
 6879TIP3   OH242195   2.478   4.371   8.395 -0.1421  0.6799 -0.2328
 6879TIP3    H142196   2.554   4.423   8.421  1.6519 -2.0412  0.4311
 6879TIP3    H242197   2.405   4.410   8.443  1.9119 -0.1029  4.0092
 6880TIP3   OH242198   5.477   3.793   2.588  0.1402 -0.5622 -0.2715
 6880TIP3    H142199   5.479   3.883   2.623  0.1843 -0.1812 -1.2166
 6880TIP3    H242200   5.498   3.804   2.495  0.6400 -1.6113 -0.2927
 6881TIP3   OH242201   0.151   1.390   9.100  0.3232  0.0719 -0.4527
 6881TIP3    H142202   0.243   1.415   9.101 -0.1407  1.8754 -0.2472
 6881TIP3    H242203   0.107   1.462   9.055 -0.9115 -1.1197 -1.2347
 6882TIP3   OH242204   4.121   2.067   1.857  0.1886 -0.1570  0.4550
 6882TIP3    H142205   4.173   1.992   1.831  1.2798  0.2782  1.3229
 6882TIP3    H242206   4.183   2.140   1.859 -0.9726  0.9406 -1.0558
 6883TIP3   OH242207   2.464   1.340   0.983  0.4102 -0.1581  0.5214
 6883TIP3    H142208   2.428   1.255   0.958  0.1480  0.3101 -0.7216
 6883TIP3    H242209   2.436   1.400   0.914  1.3057  0.7725  0.9411
 6884TIP3   OH242210   6.201   1.411   8.175  0.3424 -0.3523 -0.3177
 6884TIP3    H142211   6.181   1.354   8.250 -1.6622  1.1743  0.3998
 6884TIP3    H242212   6.225   1.495   8.215 -0.1685  0.3143 -1.3753
 6885TIP3   OH242213   6.408   4.118   7.349 -0.5967 -0.1144 -0.0282
 6885TIP3    H142214   6.339   4.181   7.328 -2.0471 -1.0959  1.5440
 6885TIP3    H242215   6.426   4.133   7.441  0.0646 -1.0414 -0.0027
 6886TIP3   OH242216   3.703   2.496   1.011  0.4633 -0.3194  0.0359
 6886TIP3    H142217   3.753   2.438   0.954  1.4310 -1.8682  2.2874
 6886TIP3    H242218   3.769   2.533   1.071 -0.6456  0.1617  1.0030
 6887TIP3   OH242219   1.700   2.050   0.086  0.0319 -0.3396 -0.1477
 6887TIP3    H142220   1.783   2.020   0.122  0.6429 -0.9418 -1.9592
 6887TIP3    H242221   1.640   1.977   0.099 -0.3971  0.2821  1.6196
 6888TIP3   OH242222   3.363   1.134   0.961 -0.1945  0.0877  0.4515
 6888TIP3    H142223   3.455   1.140   0.985 -0.2043 -0.7412  0.7348
 6888TIP3    H242224   3.322   1.087   1.035 -1.1320  1.7773  1.0466
 6889TIP3   OH242225   1.542   4.356   7.200  0.3636  1.2533  0.6240
 6889TIP3    H142226   1.507   4.290   7.140 -0.2806 -0.4912  2.7856
 6889TIP3    H242227   1.609   4.401   7.150 -1.9193  1.7322 -2.2625
 6890TIP3   OH242228   6.564   4.585   0.678  0.3887  0.2357  0.1454
 6890TIP3    H142229   6.496   4.605   0.614  0.2031  3.5628  1.2245
 6890TIP3    H242230   6.646   4.607   0.634  0.6870 -1.7440 -0.4026
 6891TIP3   OH242231   2.323   3.162   9.170  0.0687  0.4754 -0.3678
 6891TIP3    H142232   2.369   3.079   9.166 -1.5019 -0.4721  0.5864
 6891TIP3    H242233   2.318   3.184   9.263 -2.0387  0.1466 -0.3514
 6892TIP3   OH242234   0.019   4.066   1.219  0.0631 -0.1101 -0.0822
 6892TIP3    H142235   0.081   4.111   1.161 -0.6576  0.1976 -0.6370
 6892TIP3    H242236   0.074   4.011   1.275  0.9414  1.1520  0.3382
 6893TIP3   OH242237   1.483   0.955   0.138  0.1458 -0.6578 -0.8586
 6893TIP3    H142238   1.500   0.863   0.158  2.3558 -0.3462 -1.0509
 6893TIP3    H242239   1.489   0.961   0.043 -0.2464 -0.3715 -0.8651
 6894TIP3   OH242240   1.273   4.303   1.960  0.1705 -0.6192  0.0817
 6894TIP3    H142241   1.222   4.300   1.879  0.6225  0.8981 -0.2984
 6894TIP3    H242242   1.224   4.361   2.018  0.9206  0.0003  0.1045
 6895TIP3   OH242243   3.871   4.200   8.594  0.2443 -0.0138 -0.2137
 6895TIP3    H142244   3.794   4.211   8.537  0.9376 -0.5075 -1.2787
 6895TIP3    H242245   3.904   4.290   8.605  1.0396 -0.0468 -1.9735
 6896TIP3   OH242246   3.944   4.049   7.450 -0.0656  0.3490 -0.2663
 6896TIP3    H142247   3.864   4.057   7.502  1.1220  0.3121  1.6345
 6896TIP3    H242248   4.015   4.066   7.511  1.4654 -0.8639 -1.6070
 6897TIP3   OH242249   4.981   2.212   7.523 -0.4769  0.5381  0.2286
 6897TIP3    H142250   5.037   2.151   7.571  2.1435  1.3373 -1.5838
 6897TIP3    H242251   4.915   2.156   7.482 -1.5274 -0.3725  2.9199
 6898TIP3   OH242252   0.784   2.309   1.664  0.4378 -0.3951 -0.0240
 6898TIP3    H142253   0.816   2.278   1.749  1.6569 -0.4799 -0.5030
 6898TIP3    H242254   0.857   2.358   1.627 -0.0757 -0.3767 -1.0446
 6899TIP3   OH242255   5.240   3.945   9.201 -0.1714  0.2378 -0.5363
 6899TIP3    H142256   5.232   3.852   9.180 -0.6828 -0.0737  0.9234
 6899TIP3    H242257   5.257   3.947   9.295  4.2490  1.4586 -1.1426
 6900TIP3   OH242258   4.586   1.984   8.568 -1.1213 -0.1133  0.1902
 6900TIP3    H142259   4.620   2.062   8.524  1.4060 -1.5359 -0.5680
 6900TIP3    H242260   4.567   2.014   8.658  2.5144  0.8363  0.7977
 6901TIP3   OH242261   5.582   5.643   7.078  0.0160 -0.4993 -0.1660
 6901TIP3    H142262   5.581   5.722   7.023 -1.4646 -0.0461  0.4720
 6901TIP3    H242263   5.490   5.622   7.092  0.3283 -0.6497  2.0538
 6902TIP3   OH242264   1.390   0.878   2.529  0.4813  0.0639  0.3621
 6902TIP3    H142265   1.343   0.931   2.593 -3.4757 -1.6030 -0.8161
 6902TIP3    H242266   1.398   0.934   2.452  1.5533  0.7407  0.9493
 6903TIP3   OH242267   1.583   3.983   9.194 -0.3539 -0.3550  0.4494
 6903TIP3    H142268   1.583   3.893   9.227 -1.2528 -0.8529 -0.8213
 6903TIP3    H242269   1.664   3.991   9.144  0.2283 -0.1053  1.3973
 6904TIP3   OH242270   4.076   4.529   1.377  0.2050  0.5394  0.2686
 6904TIP3    H142271   4.102   4.524   1.469 -0.2102 -0.1544  0.3524
 6904TIP3    H242272   4.156   4.555   1.331  0.1334  2.0706  0.9492
 6905TIP3   OH242273   2.119   5.609   8.186 -0.0853  0.1521  0.2231
 6905TIP3    H142274   2.084   5.689   8.147  0.3559  0.5833  0.6920
 6905TIP3    H242275   2.210   5.605   8.156  0.5319  0.9500  1.8281
 6906TIP3   OH242276   5.831   0.894   7.101 -0.5891 -0.3967 -0.1531
 6906TIP3    H142277   5.737   0.904   7.118 -0.6964  0.2716 -1.0739
 6906TIP3    H242278   5.844   0.928   7.013  0.7533  0.9466  0.5021
 6907TIP3   OH242279   1.571   2.562   8.461 -0.1057 -0.0405 -0.5072
 6907TIP3    H142280   1.541   2.639   8.414 -1.4884 -0.9827 -1.2273
 6907TIP3    H242281   1.640   2.595   8.520  0.4746  1.4361 -1.9461
 6908TIP3   OH242282   2.409   4.293   9.085 -0.4558  0.0810 -0.3008
 6908TIP3    H142283   2.460   4.362   9.127 -0.2547 -0.2835  0.0591
 6908TIP3    H242284   2.464   4.264   9.012 -0.2136 -0.1959 -0.0143
 6909TIP3   OH242285   2.274   3.682   1.891 -0.0218  0.2382  0.1718
 6909TIP3    H142286   2.212   3.688   1.964 -1.5308 -1.4743 -0.8911
 6909TIP3    H242287   2.266   3.766   1.846  0.9624  1.3356  1.9605
 6910TIP3   OH242288   2.026   0.497   0.689  0.3036 -0.2262  0.0785
 6910TIP3    H142289   1.988   0.562   0.629  0.3376 -0.5469 -0.2933
 6910TIP3    H242290   1.989   0.414   0.661 -1.2505 -0.1541  1.7641
 6911TIP3   OH242291   6.585   4.465   7.904 -0.7902 -0.3064  0.4619
 6911TIP3    H142292   6.568   4.554   7.875  0.2139  1.2461  4.0125
 6911TIP3    H242293   6.674   4.447   7.875 -0.8547  0.0143  0.0598
 6912TIP3   OH242294   0.155   6.203   7.847 -0.7178  0.0029  0.0304
 6912TIP3    H142295   0.178   6.184   7.756 -1.1614  2.1531 -0.5828
 6912TIP3    H242296   0.063   6.229   7.843 -1.4405 -2.0614  1.4809
 6913TIP3   OH242297   4.408   2.973   8.135  0.1372  0.3957  0.0973
 6913TIP3    H142298   4.372   2.896   8.177 -0.9829  0.3709 -0.8524
 6913TIP3    H242299   4.462   3.015   8.202 -0.9155 -0.0878  1.2753
 6914TIP3   OH242300   4.848   4.915   1.771  0.7934 -0.3302 -0.1537
 6914TIP3    H142301   4.790   4.885   1.841  0.5180  0.6496  0.0439
 6914TIP3    H242302   4.798   4.982   1.725  0.8952 -1.0908 -1.4204
 6915TIP3   OH242303   2.151   5.012   8.015  0.1803  0.3103  0.2166
 6915TIP3    H142304   2.245   4.998   8.004  0.1258  0.9472 -1.3264
 6915TIP3    H242305   2.144   5.082   8.079  0.7943  0.7953 -0.2371
 6916TIP3   OH242306   1.411   4.792   6.744 -0.3358  0.6642  0.5929
 6916TIP3    H142307   1.497   4.801   6.702 -1.2446  1.2348 -1.2634
 6916TIP3    H242308   1.356   4.856   6.699 -1.2868  1.7078  3.0703
 6917TIP3   OH242309   2.644   2.254   0.616 -0.3566 -0.8872  0.0223
 6917TIP3    H142310   2.627   2.162   0.595  1.4900 -1.4526  0.8545
 6917TIP3    H242311   2.719   2.252   0.675 -0.0232  1.1975 -0.2601
 6918TIP3   OH242312   2.899   3.637   1.239  0.3268  0.2555  0.0319
 6918TIP3    H142313   2.920   3.730   1.232  0.9853  0.3128  2.0342
 6918TIP3    H242314   2.891   3.622   1.333  0.3782 -1.7529 -0.2494
 6919TIP3   OH242315   4.866   5.421   7.249 -0.1148  0.5635  0.1746
 6919TIP3    H142316   4.938   5.446   7.191  0.1078  0.0621  0.2268
 6919TIP3    H242317   4.787   5.448   7.203  0.0888  0.7452 -0.0697
 6920TIP3   OH242318   2.465   6.025   1.976 -0.1083  0.3346 -0.4635
 6920TIP3    H142319   2.504   6.039   2.062  0.9551  0.9936 -1.0263
 6920TIP3    H242320   2.528   6.064   1.915 -0.3087 -1.0745 -1.6275
 6921TIP3   OH242321   6.475   5.690   9.063  0.2461 -0.0417 -0.3128
 6921TIP3    H142322   6.470   5.657   9.153 -0.2504  1.0574  0.0791
 6921TIP3    H242323   6.384   5.692   9.033  0.4601 -0.9447 -1.0537
 6922TIP3   OH242324   6.092   2.297   7.697 -0.2235 -0.4527  0.0191
 6922TIP3    H142325   6.094   2.364   7.628  0.8322 -1.7018 -1.2094
 6922TIP3    H242326   6.038   2.227   7.660 -0.7826 -0.5674  1.0303
 6923TIP3   OH242327   3.764   3.325   1.678 -0.0897  0.2229 -0.2322
 6923TIP3    H142328   3.743   3.265   1.607  0.8223  2.6452 -2.7164
 6923TIP3    H242329   3.695   3.312   1.742 -0.9667 -2.0727 -1.5341
 6924TIP3   OH242330   6.490   2.308   0.477  0.4063 -0.4695  0.5780
 6924TIP3    H142331   6.478   2.305   0.572 -0.3851  0.3178  0.5105
 6924TIP3    H242332   6.546   2.384   0.462 -1.6517  1.0478  0.2322
 6925TIP3   OH242333   0.430   4.397   7.896 -0.2077 -0.6858 -0.0130
 6925TIP3    H142334   0.454   4.405   7.989 -0.0866  1.2183 -0.1554
 6925TIP3    H242335   0.505   4.354   7.855  0.1297 -0.7221  0.6270
 6926TIP3   OH242336   5.674   0.587   0.196  0.4223  0.2641 -0.2406
 6926TIP3    H142337   5.632   0.615   0.115 -0.4677 -0.4260 -0.0367
 6926TIP3    H242338   5.644   0.649   0.262 -0.7628 -0.5565  0.0170
 6927TIP3   OH242339   0.738   0.483   0.949 -0.0708 -0.1859 -0.5850
 6927TIP3    H142340   0.751   0.471   1.044  0.6172 -0.3656 -0.6921
 6927TIP3    H242341   0.734   0.578   0.938  0.6050 -0.1320 -0.4562
 6928TIP3   OH242342   3.247   4.264   7.377  1.0860  0.3478  0.1376
 6928TIP3    H142343   3.213   4.286   7.290 -0.5854  0.6493  0.8360
 6928TIP3    H242344   3.328   4.215   7.359  1.6461  1.7731 -1.5405
 6929TIP3   OH242345   5.686   0.645   8.744 -0.5034  0.5280 -0.0810
 6929TIP3    H142346   5.610   0.630   8.687 -0.4032 -0.1594 -0.0382
 6929TIP3    H242347   5.741   0.568   8.732  0.4431  1.2471 -0.4918
 6930TIP3   OH242348   5.513   3.654   8.159 -0.4968 -0.0645  0.0769
 6930TIP3    H142349   5.560   3.600   8.095  1.2425 -2.5283  3.1442
 6930TIP3    H242350   5.432   3.605   8.176 -0.4626  0.0279  0.5119
 6931TIP3   OH242351   5.338   0.395   1.482  0.6105 -0.0615 -0.1401
 6931TIP3    H142352   5.432   0.380   1.478  0.4662 -1.4141  0.8819
 6931TIP3    H242353   5.323   0.469   1.423  2.1250 -0.6009 -1.2637
 6932TIP3   OH242354   4.013   0.727   0.574  0.0198  0.2513 -0.0931
 6932TIP3    H142355   4.012   0.633   0.589  1.0316  0.3724  0.9629
 6932TIP3    H242356   3.970   0.739   0.489 -1.9685 -0.9566  0.6664
 6933TIP3   OH242357   0.201   0.780   0.951 -0.5196 -0.3202 -0.0838
 6933TIP3    H142358   0.169   0.830   0.876  1.1019 -0.2931 -0.7833
 6933TIP3    H242359   0.137   0.708   0.960 -1.8348  0.7872 -0.2126
 6934TIP3   OH242360   1.896   2.450   7.766  0.0721  0.3247 -0.1727
 6934TIP3    H142361   1.980   2.421   7.732 -0.0368  0.1181 -0.2689
 6934TIP3    H242362   1.917   2.523   7.824  0.4327 -0.4825  0.7246
 6935TIP3   OH242363   0.213   2.056   7.752 -0.0857  0.3426  0.3336
 6935TIP3    H142364   0.189   2.083   7.663 -1.2798  0.7642  0.7640
 6935TIP3    H242365   0.205   2.136   7.804 -2.0735 -0.4200  1.3162
 6936TIP3   OH242366   4.789   2.852   1.725  0.0849 -0.5895  0.1257
 6936TIP3    H142367   4.728   2.926   1.728 -0.2429 -0.8718  0.5948
 6936TIP3    H242368   4.875   2.891   1.739 -0.1860 -0.4041  1.3388
 6937TIP3   OH242369   3.203   1.358   7.907 -0.0857  0.1039 -0.4995
 6937TIP3    H142370   3.220   1.398   7.822  4.5129  2.3942  1.1839
 6937TIP3    H242371   3.169   1.430   7.961  2.5543  0.3363  0.9999
 6938TIP3   OH242372   2.246   0.050   1.080 -0.1494 -0.4584  0.2853
 6938TIP3    H142373   2.196   0.085   1.154  1.2305 -0.1805  1.1191
 6938TIP3    H242374   2.337   0.074   1.099  0.4292 -1.7615 -0.7223
 6939TIP3   OH242375   4.243   2.153   9.308  0.0116 -0.7776 -0.1174
 6939TIP3    H142376   4.170   2.103   9.274  0.6536 -2.2762  0.5953
 6939TIP3    H242377   4.205   2.236   9.338 -1.0825 -0.8418 -1.2904
 6940TIP3   OH242378   0.587   6.624   8.963  0.3577  0.1982  0.5521
 6940TIP3    H142379   0.655   6.596   8.901  0.6376 -0.0451  0.9654
 6940TIP3    H242380   0.545   6.699   8.920  0.5404  0.0226  0.0635
 6941TIP3   OH242381   1.695   2.378   8.615 -0.2227 -0.2723  0.1230
 6941TIP3    H142382   1.679   2.362   8.708 -1.3483 -0.6803 -0.1277
 6941TIP3    H242383   1.609   2.398   8.579  0.0146 -1.2370 -1.0429
 6942TIP3   OH242384   1.757   6.322   0.124 -0.0868  0.5579  0.3768
 6942TIP3    H142385   1.747   6.416   0.134 -1.0074  0.7621 -1.9419
 6942TIP3    H242386   1.834   6.312   0.067 -0.1763 -0.0778  0.3601
 6943TIP3   OH242387   5.028   0.183   2.636  0.1755  0.2671 -0.5625
 6943TIP3    H142388   5.103   0.222   2.592 -0.3851  0.4680 -1.3718
 6943TIP3    H242389   4.971   0.256   2.657 -0.7525 -0.0310 -1.8433
 6944TIP3   OH242390   2.029   1.401   8.205  0.3457 -0.3283 -0.0020
 6944TIP3    H142391   2.109   1.449   8.226  0.1914 -0.2628  0.4500
 6944TIP3    H242392   2.059   1.312   8.189  0.3873 -0.5749  1.3106
 6945TIP3   OH242393   6.322   2.850   6.484 -0.0792  0.7286 -0.0239
 6945TIP3    H142394   6.349   2.764   6.452  0.5115  0.5269  0.9911
 6945TIP3    H242395   6.315   2.903   6.405 -0.1813 -0.1700 -0.6383
 6946TIP3   OH242396   2.589   2.739   0.170  0.7611  0.3763  0.1483
 6946TIP3    H142397   2.571   2.646   0.181  2.0423  0.2033  0.8978
 6946TIP3    H242398   2.672   2.742   0.123 -1.4183  1.1416 -4.2055
 6947TIP3   OH242399   6.375   6.048   1.316  0.0036  0.2683 -0.4048
 6947TIP3    H142400   6.416   5.974   1.363 -2.3912 -0.4023  0.7877
 6947TIP3    H242401   6.340   6.009   1.236  2.5171  1.0708 -2.0250
 6948TIP3   OH242402   5.941   1.269   7.356  0.3532 -0.6854 -0.7800
 6948TIP3    H142403   5.966   1.267   7.448  0.8919 -0.5765 -0.9215
 6948TIP3    H242404   5.967   1.183   7.323  1.3660 -0.2646 -1.1323
 6949TIP3   OH242405   4.591   0.385   8.076 -0.1291  0.0989 -0.1598
 6949TIP3    H142406   4.528   0.320   8.108 -1.1362  2.5340  3.4997
 6949TIP3    H242407   4.672   0.364   8.123 -0.1575  0.7939  0.2107
 6950TIP3   OH242408   2.462   4.266   0.092  0.1356  0.3476  0.0620
 6950TIP3    H142409   2.474   4.250  -0.002  1.0295  0.9376  0.0677
 6950TIP3    H242410   2.433   4.357   0.097 -0.4844  0.1409  0.3250
 6951TIP3   OH242411   5.553   4.790   0.208 -0.3926 -0.3202  0.4716
 6951TIP3    H142412   5.554   4.861   0.272 -1.7776 -0.5547  0.7813
 6951TIP3    H242413   5.528   4.832   0.126  1.5001  0.0020  0.0088
 6952TIP3   OH242414   2.491   2.820   1.021  0.2256  0.0498  0.2904
 6952TIP3    H142415   2.487   2.893   0.959  0.4321 -0.0244  0.1889
 6952TIP3    H242416   2.417   2.764   0.996  0.2203  0.0944  0.2068
 6953TIP3   OH242417   4.329   1.370   7.480 -0.1795 -0.3392  0.2248
 6953TIP3    H142418   4.387   1.438   7.515  0.3392 -0.1766 -0.9137
 6953TIP3    H242419   4.245   1.387   7.522 -0.7889  2.6023 -1.8361
 6954TIP3   OH242420   0.962   1.942   1.124  0.0563  0.3852  0.0249
 6954TIP3    H142421   0.910   2.008   1.170  1.2877  0.5196  1.2706
 6954TIP3    H242422   0.949   1.862   1.174  1.8214  0.6484  0.9921
 6955TIP3   OH242423   5.559   6.051   7.146 -0.3514 -0.0993  0.3552
 6955TIP3    H142424   5.578   5.981   7.083  1.7299  0.2849  0.4725
 6955TIP3    H242425   5.551   6.006   7.230  1.0087 -0.2333  0.4348
 6956TIP3   OH242426   5.951   5.820   8.928  0.2976  0.0074 -0.0572
 6956TIP3    H142427   5.908   5.800   8.845  0.5571 -2.2765  0.3082
 6956TIP3    H242428   5.881   5.816   8.992  0.5133 -0.6647  0.1406
 6957TIP3   OH242429   5.087   2.154   0.700 -0.3147  0.5839 -0.4709
 6957TIP3    H142430   5.129   2.157   0.787 -1.3097 -3.4770  0.3409
 6957TIP3    H242431   5.000   2.191   0.715 -1.0001 -1.3454  0.7340
 6958TIP3   OH242432   5.377   5.680   1.802  0.1404 -0.0433 -0.4175
 6958TIP3    H142433   5.465   5.680   1.840 -0.1798  1.9155  0.4396
 6958TIP3    H242434   5.319   5.674   1.878 -0.4809  0.0068 -0.8840
 6959TIP3   OH242435   4.436   6.131   8.698 -0.3502 -0.6895 -0.3147
 6959TIP3    H142436   4.386   6.094   8.771 -0.0607 -2.1253 -0.8061
 6959TIP3    H242437   4.489   6.058   8.665  0.6768  0.3171 -0.9944
 6960TIP3   OH242438   4.614   1.170   1.656 -0.0133 -0.7851  0.5793
 6960TIP3    H142439   4.673   1.127   1.594  0.7195  0.0452  0.6732
 6960TIP3    H242440   4.629   1.125   1.739  0.2926 -0.7607  0.5378
 6961TIP3   OH242441   4.709   0.019   8.589 -0.5707 -0.0541  0.3723
 6961TIP3    H142442   4.728   0.074   8.513 -1.4252  0.6810  0.6798
 6961TIP3    H242443   4.665   0.077   8.651  1.2794 -0.2904  2.0032
 6962TIP3   OH242444   6.593   4.817   1.833  0.1121 -0.0092  0.0036
 6962TIP3    H142445   6.503   4.789   1.854 -0.1898 -0.0717 -1.3070
 6962TIP3    H242446   6.607   4.894   1.888 -0.2443 -0.7955  1.2343
 6963TIP3   OH242447   3.396   2.199   1.247  0.1005  0.1695  0.1850
 6963TIP3    H142448   3.421   2.202   1.154  2.3976  1.7324  0.7762
 6963TIP3    H242449   3.303   2.220   1.247  0.2443  1.0170 -1.7194
 6964TIP3   OH242450   3.821   6.542   1.353 -0.2996  0.5490  0.5321
 6964TIP3    H142451   3.757   6.490   1.305  1.0759 -0.4753 -0.2889
 6964TIP3    H242452   3.857   6.602   1.288 -0.2738  0.9700  0.9294
 6965TIP3   OH242453   2.105   3.530   7.430  0.0859 -0.4775 -0.3415
 6965TIP3    H142454   2.149   3.594   7.373 -0.2237 -0.1199 -0.1841
 6965TIP3    H242455   2.097   3.452   7.375  0.2091 -0.2892 -0.6347
 6966TIP3   OH242456   0.819   1.396   1.981 -0.5415  0.0977  0.0834
 6966TIP3    H142457   0.842   1.308   2.011 -0.6000  0.3772  0.9749
 6966TIP3    H242458   0.791   1.384   1.890 -0.8119 -0.8397  0.2822
 6967TIP3   OH242459   2.207   2.074   2.015 -0.3132  0.1531 -1.0312
 6967TIP3    H142460   2.292   2.075   1.971  0.7075 -1.0965  0.8050
 6967TIP3    H242461   2.224   2.110   2.102 -1.1794 -2.0274  0.1109
 6968TIP3   OH242462   4.476   5.150   8.414 -0.0857  0.0639 -0.1558
 6968TIP3    H142463   4.453   5.224   8.358  0.0151  0.2517  0.0496
 6968TIP3    H242464   4.527   5.092   8.357  2.0788  1.3598  0.3392
 6969TIP3   OH242465   1.578   6.289   2.381 -0.2412  0.0371 -0.0562
 6969TIP3    H142466   1.586   6.366   2.325 -0.6229  1.4148  1.7017
 6969TIP3    H242467   1.621   6.314   2.462 -2.2391 -0.7815  1.3311
 6970TIP3   OH242468   5.206   4.907   1.123  0.0799  0.3218  0.1831
 6970TIP3    H142469   5.295   4.935   1.143  0.7596 -0.8209 -1.0917
 6970TIP3    H242470   5.172   4.873   1.206  1.4173 -0.7012  0.3399
 6971TIP3   OH242471   4.421   0.346   6.663  0.1468 -0.5353 -0.7593
 6971TIP3    H142472   4.396   0.303   6.745 -0.7406  0.3534 -0.5445
 6971TIP3    H242473   4.457   0.276   6.609  0.2022 -1.2423  0.1760
 6972TIP3   OH242474   5.385   4.786   2.562 -0.2220  0.1705 -0.6345
 6972TIP3    H142475   5.448   4.715   2.564 -0.3200 -0.0349 -2.8400
 6972TIP3    H242476   5.341   4.781   2.647  1.9775 -0.3170  0.5413
 6973TIP3   OH242477   5.758   0.598   8.395 -0.0565 -0.4972  0.1221
 6973TIP3    H142478   5.830   0.584   8.457  1.0441 -0.5604 -1.1288
 6973TIP3    H242479   5.686   0.545   8.430  0.7250 -0.9863  1.0391
 6974TIP3   OH242480   5.275   1.480   7.807  0.6017  0.3249 -0.2980
 6974TIP3    H142481   5.214   1.473   7.880  0.9200 -1.5319 -0.1508
 6974TIP3    H242482   5.221   1.463   7.729  0.7178 -0.2228 -0.2626
 6975TIP3   OH242483   1.755   5.866   1.782  0.4111  0.0342  0.4268
 6975TIP3    H142484   1.765   5.959   1.762 -0.7502 -0.1101 -0.9958
 6975TIP3    H242485   1.708   5.830   1.707  0.2460 -1.5790  1.2544
 6976TIP3   OH242486   4.550   2.665   9.116  0.1368 -0.0937  0.3965
 6976TIP3    H142487   4.602   2.746   9.117  0.1128 -0.0655 -0.2866
 6976TIP3    H242488   4.474   2.685   9.170 -0.4440  0.7417 -0.6824
 6977TIP3   OH242489   6.137   4.270   9.070  0.1322 -0.6858 -0.1070
 6977TIP3    H142490   6.052   4.227   9.077  0.1606 -0.5207  1.6941
 6977TIP3    H242491   6.186   4.237   9.145  1.4403 -0.2843 -0.7593
 6978TIP3   OH242492   3.148   0.711   9.276 -0.3186 -0.3567 -0.0209
 6978TIP3    H142493   3.152   0.778   9.208  0.5508  1.9292  2.1148
 6978TIP3    H242494   3.227   0.658   9.262  1.9619  2.4200  1.3183
 6979TIP3   OH242495   0.366   4.717   8.632 -0.1223 -0.0242 -0.0808
 6979TIP3    H142496   0.347   4.810   8.625  0.4403  0.1025  0.0423
 6979TIP3    H242497   0.290   4.681   8.679 -1.1458  0.0780 -1.5875
 6980TIP3   OH242498   0.113   2.955   9.212  0.6937  0.3474 -0.3380
 6980TIP3    H142499   0.047   2.997   9.158  0.1886 -1.0247 -0.8157
 6980TIP3    H242500   0.118   2.865   9.180  1.1026 -0.2304  1.2355
 6981TIP3   OH242501   0.486   6.015   1.675  0.4511 -0.5270 -0.3523
 6981TIP3    H142502   0.425   6.079   1.638  0.7513 -0.0845 -0.0962
 6981TIP3    H242503   0.566   6.065   1.690  1.8258 -1.6642 -3.1820
 6982TIP3   OH242504   3.665   1.166   8.190  0.4558  0.4844 -0.4811
 6982TIP3    H142505   3.665   1.070   8.182  1.7996  0.4869 -0.7617
 6982TIP3    H242506   3.601   1.195   8.125 -0.1881 -0.2278 -0.1848
 6983TIP3   OH242507   1.087   1.247   0.884 -0.4285 -0.3706 -0.4482
 6983TIP3    H142508   1.107   1.298   0.962  0.9350 -0.4532 -0.7262
 6983TIP3    H242509   1.171   1.209   0.857 -1.3430 -2.6605 -0.3257
 6984TIP3   OH242510   0.378   4.763   9.292 -0.1257 -0.0075 -0.2190
 6984TIP3    H142511   0.417   4.796   9.373 -2.5521 -0.1958  1.1255
 6984TIP3    H242512   0.386   4.668   9.299 -2.4605 -0.1983  1.0917
 6985TIP3   OH242513   2.017   4.175   1.870  0.3815  0.3766  0.2839
 6985TIP3    H142514   1.923   4.192   1.882 -0.1004 -0.2128 -2.1576
 6985TIP3    H242515   2.030   4.086   1.904  0.5779  1.2226  2.6307
 6986TIP3   OH242516   5.782   3.848   9.083  0.3546  1.0162 -0.2895
 6986TIP3    H142517   5.820   3.765   9.054 -0.2677  0.5783  0.1232
 6986TIP3    H242518   5.725   3.824   9.156  0.2415  1.8202 -0.1100
 6987TIP3   OH242519   0.323   4.527   8.433  0.5805 -0.1628  0.1826
 6987TIP3    H142520   0.410   4.491   8.413  0.2956 -0.6544 -0.2137
 6987TIP3    H242521   0.339   4.596   8.497  1.1264 -1.2686  1.2918
 6988TIP3   OH242522   3.548   5.846   7.177 -0.5658 -0.6122  0.3254
 6988TIP3    H142523   3.613   5.798   7.125  0.2175 -0.2526  0.9501
 6988TIP3    H242524   3.479   5.782   7.194 -0.8481 -0.7293 -1.1616
 6989TIP3   OH242525   2.908   1.721   1.493  0.2951  0.3472 -0.3119
 6989TIP3    H142526   2.916   1.627   1.476 -0.1493  0.3799 -0.7374
 6989TIP3    H242527   2.915   1.729   1.588  0.5775 -0.0911 -0.2943
 6990TIP3   OH242528   4.325   0.812   8.306 -0.3566 -0.0345 -0.3553
 6990TIP3    H142529   4.308   0.721   8.281 -1.2258  0.1214 -0.3628
 6990TIP3    H242530   4.241   0.843   8.339 -0.1089  0.8249 -0.5285
 6991TIP3   OH242531   6.171   4.710   7.874  0.1354 -0.1578 -0.4518
 6991TIP3    H142532   6.158   4.803   7.892 -2.7475  0.1824 -3.3355
 6991TIP3    H242533   6.119   4.665   7.940  0.6943  0.3036  0.3125
 6992TIP3   OH242534   4.801   1.192   0.857 -0.3595  0.5464 -0.5499
 6992TIP3    H142535   4.813   1.129   0.786 -0.1240  2.4873 -2.3264
 6992TIP3    H242536   4.880   1.184   0.910  0.4794  0.5441 -1.7496
 6993TIP3   OH242537   5.586   2.096   2.083 -0.2473 -0.6174  0.1303
 6993TIP3    H142538   5.609   2.006   2.104  1.2372 -0.5516 -1.1166
 6993TIP3    H242539   5.662   2.131   2.037 -0.3932  1.5747  1.4051
 6994TIP3   OH242540   5.059   5.153   8.796  0.2136 -0.8111  0.4913
 6994TIP3    H142541   5.089   5.242   8.817 -0.1608 -0.5839  0.0874
 6994TIP3    H242542   5.139   5.102   8.785  0.5482  0.2001 -2.4645
 6995TIP3   OH242543   4.606   5.350   1.431 -0.0125  1.1169  0.4549
 6995TIP3    H142544   4.525   5.398   1.412 -0.3879 -0.3335 -2.0035
 6995TIP3    H242545   4.676   5.414   1.413 -0.5151  0.9867 -2.5624
 6996TIP3   OH242546   4.030   5.990   1.508 -0.0260 -0.0104  0.1171
 6996TIP3    H142547   3.951   5.950   1.544  0.3168 -1.3699 -0.5904
 6996TIP3    H242548   4.014   5.992   1.413  1.1084 -1.0532 -0.1133
 6997TIP3   OH242549   6.039   6.106   7.078  0.0838 -0.2865  0.2350
 6997TIP3    H142550   5.946   6.128   7.081  0.7374  3.5144 -1.1457
 6997TIP3    H242551   6.084   6.190   7.088  3.4380 -1.9808  1.1189
 6998TIP3   OH242552   2.859   4.249   7.481 -0.1937  0.6203 -0.0440
 6998TIP3    H142553   2.788   4.187   7.466 -0.0702  0.4668  0.0029
 6998TIP3    H242554   2.864   4.300   7.400 -0.4945  0.7707  0.0295
 6999TIP3   OH242555   1.057   4.122   0.142  0.4146 -0.1295 -0.7132
 6999TIP3    H142556   0.986   4.087   0.087  0.2855 -0.2912 -0.4465
 6999TIP3    H242557   1.046   4.217   0.137  1.0473 -0.1048 -1.8118
 7000TIP3   OH242558   4.352   1.643   1.622 -0.5741 -0.3349  0.0655
 7000TIP3    H142559   4.430   1.625   1.675 -2.2012 -0.6983  2.5399
 7000TIP3    H242560   4.366   1.594   1.541  1.5019 -0.8243  0.6585
 7001TIP3   OH242561   0.570   5.218   8.618  0.0944  0.2705  0.2299
 7001TIP3    H142562   0.626   5.256   8.551 -0.1816  0.9520  0.3718
 7001TIP3    H242563   0.611   5.242   8.701  0.1742 -0.1555  0.3173
 7002TIP3   OH242564   6.023   0.981   6.705  0.2726  0.4211 -0.1173
 7002TIP3    H142565   6.026   0.886   6.694  0.8917  0.3785  0.3764
 7002TIP3    H242566   5.939   0.997   6.748  1.3644 -0.2184  2.4601
 7003TIP3   OH242567   4.974   3.920   8.214 -0.1613  0.0514  0.3242
 7003TIP3    H142568   4.934   3.854   8.270  1.1024 -1.4845 -0.4968
 7003TIP3    H242569   4.980   3.878   8.128  0.1812  1.4482 -0.3652
 7004TIP3   OH242570   2.180   0.377   0.403 -0.5967 -0.0309  0.4592
 7004TIP3    H142571   2.122   0.323   0.457  0.3794 -1.5029  0.0795
 7004TIP3    H242572   2.185   0.331   0.319 -0.6912  1.2999 -0.3056
 7005TIP3   OH242573   2.435   1.502   7.510  0.4908  0.0132  0.2182
 7005TIP3    H142574   2.397   1.482   7.424  0.1808 -2.2471  0.8189
 7005TIP3    H242575   2.521   1.461   7.508  1.7639  2.4994 -0.0214
 7006TIP3   OH242576   1.885   2.470   0.730 -0.2895  0.0378 -0.0601
 7006TIP3    H142577   1.816   2.489   0.793 -1.8603  0.6645 -1.8471
 7006TIP3    H242578   1.838   2.441   0.651  1.5474 -0.3961 -1.0646
 7007TIP3   OH242579   4.743   1.386   1.225 -0.3330  0.1458  0.1522
 7007TIP3    H142580   4.789   1.447   1.168  2.5163  1.0628  3.0937
 7007TIP3    H242581   4.725   1.436   1.305  1.6915 -2.5175  2.5259
 7008TIP3   OH242582   1.307   6.101   7.217  0.5762  0.5965  0.4142
 7008TIP3    H142583   1.287   6.082   7.308 -2.6109  0.1744 -0.2550
 7008TIP3    H242584   1.275   6.190   7.203 -0.5075  0.0831 -0.6136
 7009TIP3   OH242585   5.510   0.365   8.448 -0.5546  0.2209  0.0775
 7009TIP3    H142586   5.436   0.304   8.440 -1.1270  0.9337 -0.1559
 7009TIP3    H242587   5.562   0.329   8.520  0.0050 -1.4613 -1.0911
 7010TIP3   OH242588   2.117   4.088   1.050  0.3630 -0.2365  0.0181
 7010TIP3    H142589   2.081   4.152   0.989  1.1462  1.2916  1.0792
 7010TIP3    H242590   2.203   4.065   1.014  0.9571  0.9003  0.6756
 7011TIP3   OH242591   5.000   5.790   1.618  0.0221 -0.2573  0.2443
 7011TIP3    H142592   4.989   5.758   1.708  0.4193 -0.1656  0.3304
 7011TIP3    H242593   5.003   5.710   1.565  1.2405 -0.3926  0.4849
 7012TIP3   OH242594   0.381   4.442   7.332  0.1036 -0.3853 -0.0619
 7012TIP3    H142595   0.365   4.377   7.264  0.9520 -0.9793  0.2884
 7012TIP3    H242596   0.452   4.497   7.296  0.0492 -0.2482  0.0399
 7013TIP3   OH242597   1.178   5.132   7.753 -0.4436 -0.0038 -0.1674
 7013TIP3    H142598   1.192   5.117   7.847 -1.3753 -1.8794 -0.2707
 7013TIP3    H242599   1.128   5.213   7.749 -0.6435 -0.0532  0.9789
 7014TIP3   OH242600   1.510   1.253   9.319  0.3954  0.2357 -0.5523
 7014TIP3    H142601   1.478   1.189   9.382 -0.6659 -1.0145 -2.2571
 7014TIP3    H242602   1.433   1.276   9.267  0.6076  3.3499  0.3059
 7015TIP3   OH242603   4.507   5.782   8.572 -0.2380 -0.2445 -0.1520
 7015TIP3    H142604   4.506   5.706   8.513  0.7440  0.0285 -0.5514
 7015TIP3    H242605   4.537   5.854   8.517  1.1508 -0.0775  0.7663
 7016TIP3   OH242606   5.221   4.765   9.311 -0.2222  0.3863  0.1399
 7016TIP3    H142607   5.259   4.827   9.373  1.1195  0.6227 -0.8718
 7016TIP3    H242608   5.229   4.809   9.226  1.0796 -1.2783 -0.6561
 7017TIP3   OH242609   4.229   0.306   0.649 -0.1465  0.2929  0.3476
 7017TIP3    H142610   4.172   0.340   0.580 -1.6364  0.0295  1.3907
 7017TIP3    H242611   4.317   0.333   0.623 -0.6911  0.4128 -1.5029
 7018TIP3   OH242612   0.011   2.135   8.088 -0.6745 -0.2513  0.5241
 7018TIP3    H142613  -0.052   2.206   8.075  1.4778  1.7293  0.1880
 7018TIP3    H242614   0.074   2.145   8.016  0.0202 -2.1612  0.7991
 7019TIP3   OH242615   5.110   1.212   6.714  0.2197  0.4541 -0.1106
 7019TIP3    H142616   5.082   1.181   6.628  1.4387 -1.2620  0.0700
 7019TIP3    H242617   5.186   1.268   6.696 -0.2643  1.0933 -0.2166
 7020TIP3   OH242618   1.987   3.834   1.906 -0.3417 -0.2215  0.2683
 7020TIP3    H142619   1.940   3.750   1.899 -0.4067 -0.3644  1.8527
 7020TIP3    H242620   1.965   3.865   1.994  1.3051  0.4629  0.4707
 7021TIP3   OH242621   1.537   1.613   1.789 -0.2182 -0.6716 -0.0946
 7021TIP3    H142622   1.569   1.689   1.837  0.4097 -0.4178 -0.8869
 7021TIP3    H242623   1.504   1.554   1.857 -0.3905  0.1501  0.5568
 7022TIP3   OH242624   5.827   1.002   1.341  0.0752  0.0257 -0.2957
 7022TIP3    H142625   5.817   1.023   1.248  0.6317 -2.7470 -1.0789
 7022TIP3    H242626   5.866   0.915   1.342 -0.5809 -0.3444  2.5587
 7023TIP3   OH242627   4.955   2.664   7.972 -0.0385 -0.1642 -0.1854
 7023TIP3    H142628   4.952   2.725   8.045 -1.2277 -0.4132 -0.0123
 7023TIP3    H242629   5.044   2.674   7.936  0.9295 -0.7547  1.8718
 7024TIP3   OH242630   5.638   0.593   1.214  0.2401  0.4035  0.4520
 7024TIP3    H142631   5.637   0.689   1.219 -0.4803  0.3885  0.7454
 7024TIP3    H242632   5.701   0.566   1.281  0.2764  0.6724  0.5269
 7025TIP3   OH242633   5.105   5.066   1.720 -0.5616 -0.7465 -0.5039
 7025TIP3    H142634   5.013   5.069   1.745 -0.4356  1.5901 -0.1051
 7025TIP3    H242635   5.147   5.017   1.791 -1.0767  0.8528  1.0023
 7026TIP3   OH242636   4.099   1.334   8.498  0.1646 -0.2511 -0.3425
 7026TIP3    H142637   4.061   1.325   8.586  0.3570  1.5200 -0.0343
 7026TIP3    H242638   4.029   1.370   8.445 -0.0419 -1.5997 -1.0258
 7027TIP3   OH242639   3.726   1.242   8.669  0.2623 -0.1285  0.2164
 7027TIP3    H142640   3.638   1.243   8.631  0.8057  0.9423 -1.0791
 7027TIP3    H242641   3.782   1.209   8.600  0.8558 -1.1670  1.1589
 7028TIP3   OH242642   4.873   5.700   7.012  0.5940 -0.1468 -0.2196
 7028TIP3    H142643   4.800   5.645   7.039  0.9674 -1.2222 -1.3081
 7028TIP3    H242644   4.947   5.668   7.064  0.3032  0.9863  0.9325
 7029TIP3   OH242645   0.343   3.894   7.086  0.4185  0.1477 -0.4014
 7029TIP3    H142646   0.297   3.974   7.060 -2.0383 -0.4600  1.6528
 7029TIP3    H242647   0.281   3.823   7.071  1.6628 -1.0863  0.0109
 7030TIP3   OH242648   0.490   2.588   8.994 -0.0570 -0.1135 -0.1180
 7030TIP3    H142649   0.524   2.584   9.083  0.7325 -0.7848 -0.4290
 7030TIP3    H242650   0.471   2.681   8.979  0.7405  0.1401  0.4056
 7031TIP3   OH242651   0.172   1.012   8.816 -0.0195 -0.3962  0.3378
 7031TIP3    H142652   0.148   1.079   8.880  0.7893  0.7731 -0.5474
 7031TIP3    H242653   0.124   0.934   8.844 -1.7258  0.7766  0.8710
 7032TIP3   OH242654   1.438   5.301   1.559  0.0991 -0.0878  0.1982
 7032TIP3    H142655   1.470   5.342   1.640 -2.1981  2.4482 -0.0280
 7032TIP3    H242656   1.343   5.304   1.568 -0.1939 -2.1498 -1.5313
 7033TIP3   OH242657   3.062   3.821   8.501  0.7641  0.2445  0.1619
 7033TIP3    H142658   3.133   3.879   8.528  1.4721 -0.9928  1.0320
 7033TIP3    H242659   3.010   3.874   8.440  2.4889  1.1398 -0.6017
 7034TIP3   OH242660   4.824   0.764   1.321  0.2746 -0.2091  0.0171
 7034TIP3    H142661   4.907   0.754   1.276  1.6785  4.3494  1.0342
 7034TIP3    H242662   4.763   0.793   1.253  0.2485 -0.8571 -0.2428
 7035TIP3   OH242663   6.556   6.014   8.054  0.1450  0.0061 -0.1755
 7035TIP3    H142664   6.606   5.983   8.130 -0.5781  0.0963  0.3534
 7035TIP3    H242665   6.559   6.109   8.060  0.2640  0.0152 -0.3803
 7036TIP3   OH242666   5.450   0.805   1.795 -0.3898 -0.5320  0.2468
 7036TIP3    H142667   5.416   0.866   1.860  0.2635  2.9317 -2.3406
 7036TIP3    H242668   5.375   0.789   1.737 -0.4163 -1.8938  0.6196
 7037TIP3   OH242669   3.572   1.642   1.348  0.3313  0.1065  0.2207
 7037TIP3    H142670   3.649   1.609   1.302  0.3231  0.6818 -0.2091
 7037TIP3    H242671   3.568   1.735   1.326 -0.8960 -0.0641 -0.3489
 7038TIP3   OH242672   1.354   5.915   0.054 -0.2355  0.1473  0.1873
 7038TIP3    H142673   1.355   6.004   0.090  1.8594 -0.2409  1.2765
 7038TIP3    H242674   1.331   5.860   0.128 -2.5541 -0.2016 -0.7239
 7039TIP3   OH242675   5.498   3.721   0.358  0.2008 -0.5954  0.4383
 7039TIP3    H142676   5.503   3.634   0.399  0.2991 -1.1380 -0.6816
 7039TIP3    H242677   5.579   3.729   0.308 -0.5101 -0.5305 -0.7399
 7040TIP3   OH242678   5.139   6.586   9.191 -0.5881 -0.3813  0.2461
 7040TIP3    H142679   5.175   6.635   9.265 -1.3261 -0.5253  0.7050
 7040TIP3    H242680   5.076   6.646   9.151 -1.4980 -0.9347  0.8125
 7041TIP3   OH242681   5.400   1.929   9.080  0.6817 -0.3639 -0.2459
 7041TIP3    H142682   5.455   1.926   9.002  2.0643 -0.2528  0.6870
 7041TIP3    H242683   5.461   1.942   9.152 -0.7119  1.5032  0.6957
 7042TIP3   OH242684   4.296   1.816   7.587 -0.0042 -0.1378 -0.6546
 7042TIP3    H142685   4.285   1.901   7.542 -0.7375  0.2960  0.3199
 7042TIP3    H242686   4.365   1.833   7.652 -0.1477 -0.2963 -0.4640
 7043TIP3   OH242687   6.170   4.833   8.210 -0.9297 -0.2932 -0.3296
 7043TIP3    H142688   6.087   4.799   8.178 -1.4394  2.6420 -2.5867
 7043TIP3    H242689   6.235   4.766   8.187 -2.1439 -0.8711 -2.3004
 7044TIP3   OH242690   5.266   6.404   9.005  0.5784  0.4278  0.1655
 7044TIP3    H142691   5.210   6.455   9.064 -0.8170 -1.5091  0.6490
 7044TIP3    H242692   5.209   6.332   8.976  1.9787  0.0199 -1.6819
 7045TIP3   OH242693   1.444   4.910   1.587 -0.1858  0.1679  0.1259
 7045TIP3    H142694   1.524   4.933   1.540  0.3875 -0.0040  0.9805
 7045TIP3    H242695   1.461   4.937   1.677 -1.8169  1.8491 -0.0044
 7046TIP3   OH242696   0.649   4.530   8.034  0.3155 -0.4355 -0.1040
 7046TIP3    H142697   0.702   4.519   8.114  1.3400 -1.0515 -0.8401
 7046TIP3    H242698   0.559   4.539   8.066  0.5799 -1.6236  1.0859
 7047TIP3   OH242699   1.579   2.695   0.128  0.0457 -0.4572  0.1192
 7047TIP3    H142700   1.603   2.604   0.114  1.8940  0.2018 -1.3342
 7047TIP3    H242701   1.661   2.739   0.147 -0.6192  1.1579 -0.5864
 7048TIP3   OH242702   4.111   1.943   8.883 -0.3268 -0.2500  0.1833
 7048TIP3    H142703   4.067   1.909   8.962 -0.8044 -1.4916 -0.5867
 7048TIP3    H242704   4.040   1.956   8.821 -0.2189  2.6056  0.5453
 7049TIP3   OH242705   4.666   2.245   9.070  0.1570 -0.2065 -0.1025
 7049TIP3    H142706   4.704   2.166   9.032  0.3771  0.3832 -1.1429
 7049TIP3    H242707   4.739   2.305   9.078  0.1341 -0.3261  1.3622
 7050TIP3   OH242708   0.982   2.002   0.211 -0.2094 -0.3659  0.1269
 7050TIP3    H142709   1.019   2.070   0.156 -1.0092  0.2358  0.3237
 7050TIP3    H242710   0.950   1.935   0.149 -0.4596 -0.0248 -0.1164
 7051TIP3   OH242711   4.142   2.382   9.017  0.1967 -0.5720  0.6467
 7051TIP3    H142712   4.170   2.473   9.015 -1.3140 -0.0647  0.9877
 7051TIP3    H242713   4.065   2.380   8.960 -1.8119 -0.8621  3.1816
 7052TIP3   OH242714   3.311   5.980   0.115 -0.4582  0.3269 -0.1245
 7052TIP3    H142715   3.228   5.967   0.161  0.4381 -0.6435  1.3332
 7052TIP3    H242716   3.336   6.070   0.137 -0.2439  0.0097  0.9857
 7053TIP3   OH242717   3.614   0.540   1.618  0.4669  0.0547  0.2134
 7053TIP3    H142718   3.639   0.595   1.543  3.8323 -3.1840 -1.3408
 7053TIP3    H242719   3.522   0.520   1.603  0.3375  1.6640 -1.5483
 7054TIP3   OH242720   2.484   0.219   9.175 -0.1298 -0.0007  0.2276
 7054TIP3    H142721   2.541   0.196   9.248  1.1910 -0.2426 -0.8424
 7054TIP3    H242722   2.423   0.146   9.167  1.8397 -1.6150 -0.9687
 7055TIP3   OH242723   3.242   5.100   7.469  0.3979  0.3182  0.1682
 7055TIP3    H142724   3.160   5.102   7.418  0.9142 -0.1254 -0.7033
 7055TIP3    H242725   3.296   5.035   7.424  0.6798 -0.4869  1.6215
 7056TIP3   OH242726   4.334   3.766   1.736 -0.2254  0.3165  0.3483
 7056TIP3    H142727   4.423   3.743   1.762  0.0488 -0.7841 -1.4557
 7056TIP3    H242728   4.341   3.856   1.703  0.8364 -0.6895 -2.3981
 7057TIP3   OH242729   0.747   5.979   0.481  0.2166 -0.0137  0.7222
 7057TIP3    H142730   0.828   5.987   0.532  0.1177  0.2378  0.8411
 7057TIP3    H242731   0.741   6.061   0.433  0.5107 -0.4024  0.0041
 7058TIP3   OH242732   2.923   3.984   8.730 -0.2172  0.2579 -0.3605
 7058TIP3    H142733   2.865   3.946   8.797  0.4249  1.9958  1.2695
 7058TIP3    H242734   3.008   3.940   8.745  0.2098  1.3936  0.7359
 7059TIP3   OH242735   0.861   4.219   1.220  0.4873  0.5556  0.0555
 7059TIP3    H142736   0.857   4.133   1.260  1.0648  0.7629  0.5572
 7059TIP3    H242737   0.927   4.210   1.150 -0.9962  0.0051 -1.3497
 7060TIP3   OH242738   2.127   1.693   8.857 -0.1633 -0.2428  0.5445
 7060TIP3    H142739   2.073   1.750   8.803  0.1305 -0.1645  0.3302
 7060TIP3    H242740   2.080   1.609   8.858  0.8549 -0.9185 -1.6214
 7061TIP3   OH242741   5.439   3.776   7.906  0.3715  0.2558  0.0823
 7061TIP3    H142742   5.431   3.707   7.972  0.2149  0.2553  0.0630
 7061TIP3    H242743   5.356   3.774   7.858  1.7063 -2.0833 -2.4195
 7062TIP3   OH242744   5.598   4.622   2.591 -1.2469 -0.6396 -0.1519
 7062TIP3    H142745   5.675   4.657   2.636  0.7079 -1.1047 -2.8996
 7062TIP3    H242746   5.630   4.544   2.545 -3.4457 -0.9995 -1.2155
 7063TIP3   OH242747   3.717   2.634   8.028 -0.1330 -0.0418  0.2461
 7063TIP3    H142748   3.747   2.618   7.938 -0.4943  2.1150 -0.3336
 7063TIP3    H242749   3.792   2.612   8.083  0.5663 -0.1159 -0.7191
 7064TIP3   OH242750   4.721   3.575   7.636 -0.1152  1.0003  0.2256
 7064TIP3    H142751   4.749   3.495   7.681  0.0152  2.0229  2.0673
 7064TIP3    H242752   4.626   3.564   7.626  0.2459 -0.8081 -2.6444
 7065TIP3   OH242753   4.705   2.810   7.697 -0.4063 -0.5277 -0.3269
 7065TIP3    H142754   4.641   2.862   7.648 -1.1724 -0.8744  0.3029
 7065TIP3    H242755   4.692   2.835   7.788  1.4630  0.6201 -0.2965
 7066TIP3   OH242756   5.607   4.130   0.606 -0.0622 -0.3420 -0.0229
 7066TIP3    H142757   5.609   4.129   0.702 -1.6463 -1.7874  0.0489
 7066TIP3    H242758   5.672   4.065   0.580 -0.7807 -1.1425  0.1454
 7067TIP3   OH242759   3.369   3.682   8.139 -0.5545  0.5248 -0.1829
 7067TIP3    H142760   3.445   3.660   8.193 -1.4810 -0.2503  0.8574
 7067TIP3    H242761   3.404   3.737   8.069  0.6088  2.1181  1.5585
 7068TIP3   OH242762   3.319   0.091   8.150 -0.3048  0.1017 -0.6637
 7068TIP3    H142763   3.291   0.130   8.233 -0.2458 -0.5322 -0.3379
 7068TIP3    H242764   3.263   0.132   8.084 -2.4768 -1.5523  0.0220
 7069TIP3   OH242765   1.720   5.081   2.415  0.2259  0.1104  0.4597
 7069TIP3    H142766   1.813   5.080   2.438  0.2915 -0.0702  0.1789
 7069TIP3    H242767   1.678   5.129   2.487  0.6153  0.7140  0.2888
 7070TIP3   OH242768   5.089   2.124   6.786 -0.4043  0.2169 -0.1896
 7070TIP3    H142769   5.175   2.166   6.785 -0.3483  0.1054 -0.1390
 7070TIP3    H242770   5.055   2.135   6.698 -0.6604  0.9179 -0.0066
 7071TIP3   OH242771   2.564   1.429   0.218  0.3963  0.1759  0.3982
 7071TIP3    H142772   2.528   1.371   0.151  0.6009  1.1659 -0.6080
 7071TIP3    H242773   2.488   1.468   0.260  0.2198 -1.6121  1.8597
 7072LIG      O42774   2.582   3.470   9.275 -0.1513  0.3444 -0.3515
 7072LIG     C142775   2.623   3.571   9.361 -0.0753 -1.0073 -0.3301
 7072LIG     C242776   2.700   3.491   9.474  0.2269  0.4795  0.3014
 7072LIG     C342777   2.725   3.655   9.279  0.0645 -0.5240  0.5709
 7072LIG     H142778   2.530   3.617   9.400 -1.3353 -4.1326  0.6284
 7072LIG     H242779   2.732   3.570   9.544  1.9942  0.7400 -0.7296
 7072LIG     H342780   2.792   3.436   9.444  0.7829  0.2003  2.3846
 7072LIG     H442781   2.627   3.423   9.523  0.7379 -2.1687 -2.3048
 7072LIG     H542782   2.672   3.721   9.207 -1.4056 -0.8330  1.3310
 7072LIG     H642783   2.794   3.591   9.220  0.3713  0.4923 -0.1968
 7072LIG     H742784   2.781   3.728   9.340  0.4077 -2.4359  2.6555
 7072LIG     H842785   2.535   3.520   9.207  2.2576  0.9311 -1.6888
   6.62954   6.62954   9.32950
