Title
82276
    1SAPS     N    1   4.795   2.219  10.848  0.0044  0.2367  0.1383
    1SAPS   HN1    2   4.867   2.209  10.774 -0.0447 -1.7236  0.3099
    1SAPS   HN2    3   4.727   2.274  10.792  0.3989  0.6507  0.0738
    1SAPS   HN3    4   4.819   2.268  10.936 -0.7216  0.7441  0.0588
    1SAPS   C12    5   4.748   2.074  10.868  0.3418 -0.6563 -0.0968
    1SAPS  H12A    6   4.809   2.009  10.806 -1.2539 -1.2463 -1.0625
    1SAPS   C13    7   4.754   2.021  11.015  0.1730  0.0322  0.5692
    1SAPS  O13A    8   4.787   2.100  11.106 -0.1222 -0.3325  0.1353
    1SAPS  O13B    9   4.766   1.899  11.035  0.0996  0.2377  0.0199
    1SAPS   C11   10   4.600   2.057  10.812  0.0840 -0.2429 -0.1983
    1SAPS  H11A   11   4.590   1.947  10.817  1.4597 -0.3091  1.7120
    1SAPS  H11B   12   4.597   2.092  10.707 -0.1587 -0.6445 -0.3224
    1SAPS     P   13   4.378   2.080  10.944 -0.0504 -0.0309 -0.1151
    1SAPS   O13   14   4.394   1.940  10.978  0.0154 -0.5519 -0.4871
    1SAPS   O14   15   4.334   2.161  11.059  0.6410  0.2764  1.3458
    1SAPS   O12   16   4.503   2.138  10.887  0.2527  0.4720 -0.1205
    1SAPS   O11   17   4.280   2.095  10.826 -0.0446 -0.3766  0.1021
    1SAPS    C1   18   4.248   2.221  10.763 -0.0837  0.1332  0.2125
    1SAPS    HA   19   4.150   2.256  10.802 -0.7972 -0.8390 -0.6631
    1SAPS    HB   20   4.324   2.299  10.782 -0.1633  0.2925 -0.1175
    1SAPS    C2   21   4.215   2.208  10.604  0.6740  1.0562 -0.5196
    1SAPS    HS   22   4.193   2.311  10.568  1.3923  0.4490 -2.7478
    1SAPS   O21   23   4.104   2.124  10.579  0.8467  0.6850  0.0444
    1SAPS   C21   24   3.986   2.185  10.594  0.0439  0.6529 -0.1996
    1SAPS   O22   25   3.966   2.302  10.618 -0.3859  0.4749 -0.0660
    1SAPS   C22   26   3.883   2.079  10.548 -0.3717  0.2144 -0.1796
    1SAPS   H2R   27   3.930   2.042  10.455  1.1246 -1.3970  1.1889
    1SAPS   H2S   28   3.882   1.992  10.617  1.6971 -0.2774 -0.7306
    1SAPS    C3   29   4.346   2.167  10.527  0.1006  0.0929  0.1242
    1SAPS    HX   30   4.374   2.065  10.561 -0.1231  0.2671  0.8448
    1SAPS    HY   31   4.424   2.235  10.569 -1.0529  2.2030 -1.0972
    1SAPS   O31   32   4.328   2.188  10.388  0.9403  0.3230 -0.0347
    1SAPS   C31   33   4.443   2.185  10.321  0.1433 -0.2258 -1.0520
    1SAPS   O32   34   4.550   2.152  10.367 -0.9031 -0.4883 -0.4406
    1SAPS   C32   35   4.413   2.243  10.186  0.4894 -1.0576  0.9905
    1SAPS   H2X   36   4.408   2.354  10.196  1.3691 -0.6478 -2.3159
    1SAPS   H2Y   37   4.314   2.210  10.149  0.0921 -2.0260  2.8859
    1SAPS   C23   38   3.740   2.136  10.511 -0.1638 -0.9934 -0.2222
    1SAPS   H3R   39   3.753   2.222  10.442  0.0186 -0.1593  0.8372
    1SAPS   H3S   40   3.701   2.183  10.604  2.0659 -1.7644  1.1416
    1SAPS   C24   41   3.649   2.036  10.452 -0.3714 -0.0320 -0.5540
    1SAPS   H4R   42   3.552   2.086  10.472  0.1943  0.9579 -0.2581
    1SAPS   H4S   43   3.661   1.941  10.509 -0.3856 -0.3511 -1.0813
    1SAPS   C25   44   3.691   2.007  10.315  0.2253  0.3515 -0.2715
    1SAPS   H5R   45   3.777   1.938  10.313 -0.6884 -0.9229  2.4299
    1SAPS   C26   46   3.627   2.042  10.200  0.4136 -0.3486 -0.5829
    1SAPS   H6R   47   3.667   2.007  10.103 -1.1456 -1.5993 -0.8036
    1SAPS   C27   48   3.505   2.125  10.190  0.9342  0.1619 -0.2571
    1SAPS   H7R   49   3.454   2.134  10.288 -1.1275 -0.2024 -1.2789
    1SAPS   H7S   50   3.430   2.070  10.131 -1.0689 -1.4701  3.6301
    1SAPS   C28   51   3.545   2.268  10.140 -0.5705  0.4587 -0.3209
    1SAPS   H8R   52   3.600   2.327  10.215  0.4971 -0.6007 -0.2316
    1SAPS   C29   53   3.498   2.320  10.027 -0.2098  0.6855 -0.4095
    1SAPS   H9R   54   3.539   2.420  10.004  0.9965  1.0268  2.9659
    1SAPS  C210   55   3.407   2.254   9.930 -0.2348  0.2925 -0.1024
    1SAPS  H10R   56   3.314   2.215   9.976 -0.1942 -0.3098 -0.5270
    1SAPS  H10S   57   3.454   2.163   9.887 -2.0705 -0.9563  0.4944
    1SAPS  C211   58   3.387   2.352   9.814 -0.7745 -0.5372 -0.1403
    1SAPS  H11R   59   3.342   2.449   9.839 -1.9490 -0.3342 -2.9024
    1SAPS  C212   60   3.421   2.332   9.686  0.6818  0.3481 -0.1150
    1SAPS  H12R   61   3.404   2.410   9.610  3.2647  1.6457  0.5731
    1SAPS  C213   62   3.494   2.213   9.634  0.3588 -0.4575  0.7566
    1SAPS  H13R   63   3.437   2.118   9.631  3.8770 -2.6463  0.2076
    1SAPS  H13S   64   3.588   2.207   9.693  0.4794  1.1026  0.7461
    1SAPS  C214   65   3.546   2.249   9.496  0.0134  0.2268  0.1460
    1SAPS  H14R   66   3.600   2.343   9.477  1.9727 -1.0720 -0.8637
    1SAPS  C215   67   3.537   2.168   9.392 -0.0257  0.7720  0.1315
    1SAPS  H15R   68   3.576   2.204   9.296  2.3656 -0.9578  0.4131
    1SAPS  C216   69   3.474   2.040   9.380  0.0177  0.4334  0.3164
    1SAPS  H16R   70   3.366   2.063   9.364 -0.3324 -0.5206  1.2782
    1SAPS  H16S   71   3.477   1.967   9.464  1.1265 -0.1417 -0.2127
    1SAPS  C217   72   3.510   1.957   9.259  0.0217  0.1570  0.0525
    1SAPS  H17R   73   3.592   1.892   9.297  0.2279  0.1232 -0.4437
    1SAPS  H17S   74   3.540   2.021   9.173 -0.5290  1.3083  0.7075
    1SAPS  C218   75   3.413   1.852   9.208 -0.4194 -0.0563 -0.0882
    1SAPS  H18R   76   3.334   1.898   9.145 -0.7888 -0.7386 -0.1156
    1SAPS  H18S   77   3.356   1.823   9.299 -2.5183  3.1234 -0.2902
    1SAPS  C219   78   3.480   1.736   9.131 -0.3013 -0.0381 -0.0869
    1SAPS  H19R   79   3.408   1.653   9.149 -1.6308  1.0639 -0.1647
    1SAPS  H19S   80   3.574   1.692   9.170 -0.0987  1.4754  1.1785
    1SAPS  C220   81   3.506   1.772   8.986 -0.7960  1.0177  0.9405
    1SAPS  H20R   82   3.408   1.804   8.945 -0.5841 -0.9859 -1.2019
    1SAPS  H20S   83   3.533   1.686   8.921 -1.9031  0.5390  1.0960
    1SAPS  H20T   84   3.582   1.850   8.963 -1.3903  0.7544 -2.1308
    1SAPS   C33   85   4.533   2.225  10.089 -0.4102 -0.1052 -0.3924
    1SAPS   H3X   86   4.562   2.118  10.086  0.2912 -0.0080  1.9254
    1SAPS   H3Y   87   4.617   2.291  10.120  0.5573 -1.3403 -0.3400
    1SAPS   C34   88   4.495   2.259   9.944 -0.1918 -0.2206  0.1826
    1SAPS   H4X   89   4.436   2.353   9.946  1.9044  1.1584 -0.6325
    1SAPS   H4Y   90   4.421   2.191   9.897 -0.1537 -0.3579  0.3234
    1SAPS   C35   91   4.612   2.271   9.844  0.0195  0.0530 -0.2057
    1SAPS   H5X   92   4.662   2.172   9.840 -0.4416 -0.1675 -0.5285
    1SAPS   H5Y   93   4.681   2.341   9.895 -0.4346 -2.1873  3.7200
    1SAPS   C36   94   4.568   2.304   9.701  0.5148  0.2470 -0.6284
    1SAPS   H6X   95   4.490   2.382   9.693 -1.4749 -1.7082 -0.7059
    1SAPS   H6Y   96   4.521   2.214   9.655 -0.6213  0.7957 -0.5472
    1SAPS   C37   97   4.696   2.349   9.619  0.2986 -0.2956  0.8111
    1SAPS   H7X   98   4.787   2.292   9.650 -0.0268 -1.4339 -0.3101
    1SAPS   H7Y   99   4.719   2.449   9.663  2.5269 -1.4295  2.3448
    1SAPS   C38  100   4.672   2.371   9.467  1.2886 -0.0333  0.2465
    1SAPS   H8X  101   4.564   2.389   9.447  0.8611 -3.1453 -0.5835
    1SAPS   H8Y  102   4.713   2.283   9.412  0.2877  0.2008 -0.8935
    1SAPS   C39  103   4.746   2.487   9.399 -0.9305 -0.3057 -0.6366
    1SAPS   H9X  104   4.856   2.474   9.410 -0.5138  1.1411 -2.7780
    1SAPS   H9Y  105   4.729   2.579   9.459 -1.2393 -0.3692 -0.6273
    1SAPS  C310  106   4.707   2.510   9.259  0.6085 -0.1825  0.3172
    1SAPS  H10X  107   4.687   2.407   9.223 -1.4879  0.9910 -2.0336
    1SAPS  H10Y  108   4.800   2.546   9.209  0.5505 -1.7790 -0.9625
    1SAPS  C311  109   4.585   2.600   9.236 -0.1667 -0.3393 -0.3257
    1SAPS  H11X  110   4.501   2.571   9.301 -0.2775 -0.8587 -0.6944
    1SAPS  H11Y  111   4.548   2.591   9.132 -0.3485 -2.0952 -0.1221
    1SAPS  C312  112   4.623   2.752   9.251  0.5285  0.0473  0.3022
    1SAPS  H12X  113   4.681   2.770   9.344  3.2680 -1.0424 -1.1341
    1SAPS  H12Y  114   4.533   2.814   9.269 -0.2937 -0.9568 -0.3020
    1SAPS  C313  115   4.689   2.820   9.128  0.4473 -0.0226  0.3322
    1SAPS  H13X  116   4.663   2.755   9.041  2.0828 -0.1362 -0.0898
    1SAPS  H13Y  117   4.799   2.811   9.145  0.5634 -0.9649 -0.8023
    1SAPS  C314  118   4.646   2.963   9.104  0.6494  0.2568  0.1235
    1SAPS  H14X  119   4.680   3.027   9.188  1.6747  0.3116 -0.3235
    1SAPS  H14Y  120   4.538   2.982   9.088  1.0267  0.6462 -2.2130
    1SAPS  C315  121   4.721   3.021   8.981 -0.3110  0.2043 -0.1977
    1SAPS  H15X  122   4.832   3.016   8.987 -0.1684  2.0001 -1.0780
    1SAPS  H15Y  123   4.700   3.130   8.990 -0.5776  0.0476  1.1006
    1SAPS  C316  124   4.686   2.964   8.846  0.0849 -0.1413  0.5952
    1SAPS  H16X  125   4.576   2.955   8.859  0.1976 -1.7184  0.5539
    1SAPS  H16Y  126   4.730   2.869   8.810 -0.8284 -0.6809  0.8874
    1SAPS  C317  127   4.706   3.065   8.733  0.4872 -0.1592  0.2401
    1SAPS  H17X  128   4.662   3.162   8.763 -0.5282 -0.6334  0.2882
    1SAPS  H17Y  129   4.644   3.033   8.647  0.0049 -1.3848  1.0365
    1SAPS  C318  130   4.855   3.080   8.697 -0.2819  0.5900  0.2974
    1SAPS  H18X  131   4.913   2.986   8.711 -0.1882  0.8101  1.4342
    1SAPS  H18Y  132   4.897   3.149   8.773 -0.7017  0.3088  0.7840
    1SAPS  H18Z  133   4.881   3.118   8.596 -0.9678 -2.7534 -1.2090
    2SAPS     N  134   1.933   1.896  11.061  0.1082  0.5827 -0.1090
    2SAPS   HN1  135   1.867   1.817  11.041  2.4674 -1.7647  1.0713
    2SAPS   HN2  136   1.961   1.888  11.160 -1.7103  0.8574  0.4462
    2SAPS   HN3  137   1.890   1.988  11.040 -0.2362  0.4893  0.1860
    2SAPS   C12  138   2.064   1.883  10.985 -0.5160  0.4198 -0.2851
    2SAPS  H12A  139   2.112   1.980  10.987  1.1974 -0.3902 -0.6018
    2SAPS   C13  140   2.163   1.782  11.044 -0.3849 -0.0240  0.8029
    2SAPS  O13A  141   2.147   1.717  11.150  0.7927  0.4318 -0.1368
    2SAPS  O13B  142   2.272   1.777  10.983 -0.3330  0.4731  0.1298
    2SAPS   C11  143   2.033   1.836  10.844 -0.5063 -0.6233  0.0809
    2SAPS  H11A  144   1.977   1.740  10.853 -1.3410 -0.1090  0.4370
    2SAPS  H11B  145   2.127   1.817  10.789 -2.1430  0.5239 -3.2674
    2SAPS     P  146   1.931   1.906  10.613  0.0462  0.4080 -0.0459
    2SAPS   O13  147   1.900   1.759  10.594  0.3856 -0.6795  0.1252
    2SAPS   O14  148   1.837   2.009  10.557 -0.5644 -0.4652  0.1668
    2SAPS   O12  149   1.951   1.930  10.775  0.1859 -0.1287  0.2320
    2SAPS   O11  150   2.077   1.928  10.547  0.4069 -0.3286 -0.6562
    2SAPS    C1  151   2.139   2.055  10.579 -0.0915 -0.3861  0.5817
    2SAPS    HA  152   2.077   2.143  10.555  0.5775  0.9942  3.5998
    2SAPS    HB  153   2.145   2.071  10.689 -3.1456 -0.2315  0.7735
    2SAPS    C2  154   2.276   2.074  10.517 -0.1782 -0.3651 -0.7916
    2SAPS    HS  155   2.307   2.179  10.538  0.8406 -0.7169 -0.4718
    2SAPS   O21  156   2.282   2.036  10.379 -0.0385 -0.0445  0.1249
    2SAPS   C21  157   2.225   2.113  10.292 -0.8552  0.1726 -0.0058
    2SAPS   O22  158   2.163   2.215  10.321  0.1459 -0.6123 -0.5735
    2SAPS   C22  159   2.255   2.060  10.151  0.4168 -0.0629 -0.5505
    2SAPS   H2R  160   2.270   1.950  10.159  0.6654  0.0599  0.7732
    2SAPS   H2S  161   2.168   2.087  10.088 -1.7980 -1.5241  1.8067
    2SAPS    C3  162   2.378   1.982  10.595 -0.2831 -0.6180  0.1343
    2SAPS    HX  163   2.344   1.877  10.612 -1.6812  0.2325  2.9417
    2SAPS    HY  164   2.384   2.027  10.696  2.2479 -0.3848 -0.0926
    2SAPS   O31  165   2.512   1.991  10.545 -0.5729 -0.1114 -0.2134
    2SAPS   C31  166   2.550   1.911  10.451 -0.2630  0.3038  0.7705
    2SAPS   O32  167   2.485   1.824  10.399 -0.4289  0.5943  0.0638
    2SAPS   C32  168   2.698   1.932  10.432  0.2997 -0.1160 -0.0781
    2SAPS   H2X  169   2.753   1.906  10.526 -3.1457 -0.0800  2.0354
    2SAPS   H2Y  170   2.712   2.041  10.415 -1.2629 -0.0242 -0.8989
    2SAPS   C23  171   2.389   2.111  10.089  0.1061 -0.5218  0.0027
    2SAPS   H3R  172   2.466   2.089  10.167 -2.0991 -0.9061  2.1382
    2SAPS   H3S  173   2.377   2.220  10.072  1.0947 -0.9354 -3.6461
    2SAPS   C24  174   2.411   2.027   9.957  0.2974 -0.5528 -0.5668
    2SAPS   H4R  175   2.399   1.926  10.002  0.3537  0.5759  2.1298
    2SAPS   H4S  176   2.517   2.045   9.928  0.0114 -0.5007 -1.5647
    2SAPS   C25  177   2.316   2.048   9.844  0.2345  0.5821 -0.0098
    2SAPS   H5R  178   2.221   2.084   9.886 -0.4073  0.1981 -1.1007
    2SAPS   C26  179   2.323   2.024   9.715  0.3943 -0.2215  0.7187
    2SAPS   H6R  180   2.239   2.052   9.649  1.0403 -1.0701 -0.4783
    2SAPS   C27  181   2.437   1.975   9.624 -0.4242 -0.3934  0.3262
    2SAPS   H7R  182   2.397   1.884   9.573 -1.5379 -0.2342  0.9022
    2SAPS   H7S  183   2.512   1.931   9.693 -0.6129 -0.2001  0.6574
    2SAPS   C28  184   2.506   2.066   9.525  0.8229 -0.3568  0.2360
    2SAPS   H8R  185   2.548   2.159   9.566  0.6911 -0.0298 -0.3681
    2SAPS   C29  186   2.522   2.051   9.390  0.3032  1.3711  0.3479
    2SAPS   H9R  187   2.574   2.125   9.327  1.0853 -1.9261 -3.0686
    2SAPS  C210  188   2.468   1.930   9.317  0.3642  0.3485 -0.3155
    2SAPS  H10R  189   2.388   1.874   9.369 -1.1591  1.2561 -1.6480
    2SAPS  H10S  190   2.558   1.874   9.284 -1.1109 -1.5994 -1.1371
    2SAPS  C211  191   2.396   1.986   9.198 -0.5732 -0.2473  0.3044
    2SAPS  H11R  192   2.316   2.056   9.227 -0.1448  0.3744  0.0077
    2SAPS  C212  193   2.410   1.951   9.070  0.0730  0.5745  0.4252
    2SAPS  H12R  194   2.343   1.999   8.998 -2.1538 -0.4217  1.7822
    2SAPS  C213  195   2.500   1.849   9.004 -0.3229 -0.4250  0.2040
    2SAPS  H13R  196   2.445   1.779   8.938 -1.7190  2.1227 -1.4151
    2SAPS  H13S  197   2.531   1.779   9.085  0.8727 -2.9892 -2.3814
    2SAPS  C214  198   2.620   1.897   8.925  0.0945 -0.0399  0.2030
    2SAPS  H14R  199   2.712   1.901   8.986  1.3412 -0.7634 -1.5912
    2SAPS  C215  200   2.609   1.939   8.798 -0.0356  0.7136 -0.0225
    2SAPS  H15R  201   2.689   1.988   8.742  0.8985 -0.8349 -0.0664
    2SAPS  C216  202   2.483   1.943   8.717 -0.3304  0.6420 -0.3980
    2SAPS  H16R  203   2.415   1.859   8.746  0.3912 -0.3375 -1.4960
    2SAPS  H16S  204   2.508   1.919   8.612  3.2265 -1.0690  0.7278
    2SAPS  C217  205   2.415   2.077   8.721 -0.2336  0.5461 -0.0020
    2SAPS  H17R  206   2.435   2.125   8.819  2.2520 -1.4043  0.4890
    2SAPS  H17S  207   2.306   2.057   8.715 -0.5673  2.0665  0.8485
    2SAPS  C218  208   2.467   2.182   8.609  0.0213 -1.1878  0.0761
    2SAPS  H18R  209   2.399   2.269   8.620  2.2772  0.6633 -0.3072
    2SAPS  H18S  210   2.442   2.133   8.512 -1.9253 -0.1765  0.0294
    2SAPS  C219  211   2.619   2.230   8.609  0.3550  0.0709 -0.2861
    2SAPS  H19R  212   2.692   2.147   8.596 -0.9023 -0.9805 -0.6975
    2SAPS  H19S  213   2.626   2.276   8.710  1.4243 -2.2257  0.7384
    2SAPS  C220  214   2.649   2.321   8.487 -0.1309 -0.7926 -0.4075
    2SAPS  H20R  215   2.719   2.405   8.507 -0.5407 -0.8333  1.2634
    2SAPS  H20S  216   2.556   2.365   8.446 -0.7089 -1.5732  0.0512
    2SAPS  H20T  217   2.694   2.262   8.404  0.0909 -0.3878 -0.5772
    2SAPS   C33  218   2.766   1.847  10.319 -0.0150  0.4333 -0.6901
    2SAPS   H3X  219   2.757   1.739  10.346  0.1233 -0.9861 -5.8793
    2SAPS   H3Y  220   2.870   1.879  10.300 -0.1971  0.2733 -1.9703
    2SAPS   C34  221   2.699   1.874  10.189 -0.2328  0.8105  0.0957
    2SAPS   H4X  222   2.660   1.978  10.185 -0.3317  0.8687  2.0881
    2SAPS   H4Y  223   2.600   1.824  10.180  1.8501 -3.9664  1.7950
    2SAPS   C35  224   2.791   1.839  10.076 -0.1683 -0.9540 -0.2096
    2SAPS   H5X  225   2.851   1.748  10.096 -0.0085 -0.9517 -0.6784
    2SAPS   H5Y  226   2.851   1.929  10.054  1.9763 -1.8484  1.7574
    2SAPS   C36  227   2.723   1.812   9.942 -0.1819  0.2253 -0.0252
    2SAPS   H6X  228   2.676   1.904   9.903  0.3465  0.6854  0.4172
    2SAPS   H6Y  229   2.639   1.742   9.960  0.7889 -0.3319  2.5475
    2SAPS   C37  230   2.822   1.735   9.849  0.4173  0.2940 -0.3168
    2SAPS   H7X  231   2.830   1.640   9.906  1.0215  1.5410  1.7564
    2SAPS   H7Y  232   2.922   1.783   9.841  0.1008  0.7909 -1.4035
    2SAPS   C38  233   2.757   1.723   9.708 -0.1899  0.2988 -0.3644
    2SAPS   H8X  234   2.714   1.820   9.675 -2.4874 -0.2778  0.7943
    2SAPS   H8Y  235   2.677   1.646   9.710  0.2538 -0.2603 -2.5986
    2SAPS   C39  236   2.861   1.674   9.602 -0.1868  0.3232  0.0405
    2SAPS   H9X  237   2.886   1.568   9.625  1.9436 -0.0564 -3.5609
    2SAPS   H9Y  238   2.949   1.740   9.611  0.5637 -0.9420  2.3885
    2SAPS  C310  239   2.831   1.697   9.453 -0.3236 -0.1071  0.7585
    2SAPS  H10X  240   2.858   1.802   9.427  0.8950 -0.3413  1.0440
    2SAPS  H10Y  241   2.722   1.691   9.431  0.1279 -0.9956 -1.3462
    2SAPS  C311  242   2.911   1.608   9.353 -0.4098  1.2358  0.0718
    2SAPS  H11X  243   2.870   1.504   9.357 -0.2638  1.2025  0.6787
    2SAPS  H11Y  244   3.019   1.607   9.377 -0.2138  1.2005 -0.8019
    2SAPS  C312  245   2.909   1.647   9.203  0.1902 -0.1495 -0.5741
    2SAPS  H12X  246   2.804   1.667   9.171 -0.1850 -0.5013  0.4097
    2SAPS  H12Y  247   2.937   1.555   9.147 -0.3093  0.3180 -1.6120
    2SAPS  C313  248   3.004   1.761   9.179  0.1758 -0.1973  0.0724
    2SAPS  H13X  249   3.112   1.734   9.173  0.2302 -0.9063  3.2855
    2SAPS  H13Y  250   2.977   1.837   9.255  0.5831 -0.8992  0.9306
    2SAPS  C314  251   2.981   1.829   9.043 -0.6107 -0.1120  0.1696
    2SAPS  H14X  252   3.046   1.919   9.049 -0.3455 -0.1629 -1.6574
    2SAPS  H14Y  253   2.880   1.873   9.050  1.1967  4.2759  0.1294
    2SAPS  C315  254   3.033   1.763   8.914  0.1388  0.4774  0.4838
    2SAPS  H15X  255   2.973   1.673   8.886  0.5130  0.6385 -0.8674
    2SAPS  H15Y  256   3.139   1.730   8.920 -1.0535 -3.4742  1.0028
    2SAPS  C316  257   3.026   1.853   8.786  0.3811 -0.0416  0.8810
    2SAPS  H16X  258   2.918   1.864   8.763  0.2074 -0.1231  1.6552
    2SAPS  H16Y  259   3.070   1.795   8.702  0.4509  0.6936  0.3978
    2SAPS  C317  260   3.106   1.979   8.787  0.5042  0.2569  0.0147
    2SAPS  H17X  261   3.212   1.946   8.793  0.3095 -0.7881 -2.0347
    2SAPS  H17Y  262   3.074   2.034   8.878 -1.2419  1.0362 -1.0444
    2SAPS  C318  263   3.087   2.072   8.666  0.3593  0.5223 -0.5759
    2SAPS  H18X  264   3.141   2.168   8.663 -0.4976  1.0277 -0.0754
    2SAPS  H18Y  265   2.982   2.099   8.642  0.6310 -0.3172 -2.8259
    2SAPS  H18Z  266   3.128   2.019   8.577  2.6258  2.2373 -0.5800
    3SAPS     N  267   3.289   3.971  10.818 -0.2035 -0.4779 -0.3458
    3SAPS   HN1  268   3.319   3.878  10.781  0.6129 -1.0659  1.6800
    3SAPS   HN2  269   3.191   3.986  10.789 -0.4745 -2.4971 -0.5649
    3SAPS   HN3  270   3.351   4.041  10.773  0.3157 -0.6029  0.1617
    3SAPS   C12  271   3.304   3.982  10.962 -0.1791  0.0612 -0.0929
    3SAPS  H12A  272   3.245   3.897  10.996  0.0257 -0.5569 -1.2500
    3SAPS   C13  273   3.448   3.941  11.013 -0.3715 -0.4341 -0.5692
    3SAPS  O13A  274   3.543   3.951  10.927 -0.5555 -0.3441 -0.0387
    3SAPS  O13B  275   3.473   3.904  11.129  0.4782 -0.1597 -0.0267
    3SAPS   C11  276   3.254   4.131  11.004 -0.1588  0.4332  0.2739
    3SAPS  H11A  277   3.315   4.204  10.945 -1.4906  0.1288 -1.5469
    3SAPS  H11B  278   3.266   4.143  11.113  2.2568  1.6741 -0.0982
    3SAPS     P  279   3.005   4.184  11.053 -0.2043  0.5599  0.2797
    3SAPS   O13  280   2.997   4.089  11.163  0.0692  0.4039  0.0115
    3SAPS   O14  281   3.023   4.325  11.093 -0.6013  0.2384 -0.1736
    3SAPS   O12  282   3.122   4.144  10.958 -0.2090  0.5865 -0.3619
    3SAPS   O11  283   2.875   4.170  10.960  0.2285  0.0766  0.6858
    3SAPS    C1  284   2.844   4.060  10.878 -0.8895 -0.1471 -0.7497
    3SAPS    HA  285   2.934   3.996  10.866  1.1123  2.1593  1.5563
    3SAPS    HB  286   2.771   3.991  10.925 -2.9571  1.9755 -0.7214
    3SAPS    C2  287   2.818   4.101  10.729 -0.1942 -0.0091 -0.2916
    3SAPS    HS  288   2.833   4.006  10.672 -0.9354  0.3136 -1.0313
    3SAPS   O21  289   2.902   4.207  10.686 -0.0331  0.8701  0.2650
    3SAPS   C21  290   3.038   4.175  10.665 -1.0261  0.3856  0.3109
    3SAPS   O22  291   3.081   4.061  10.668  0.0624 -0.6108 -0.5292
    3SAPS   C22  292   3.117   4.298  10.622 -1.0160  0.1762  0.2741
    3SAPS   H2R  293   3.085   4.386  10.680  1.8560  1.2507  0.3363
    3SAPS   H2S  294   3.223   4.286  10.656 -0.8660  0.9753  0.1052
    3SAPS    C3  295   2.669   4.144  10.697  0.3403 -0.5286 -0.2443
    3SAPS    HX  296   2.654   4.234  10.760  1.8256 -0.2750 -0.2201
    3SAPS    HY  297   2.609   4.055  10.725  0.5485 -0.3118  0.9111
    3SAPS   O31  298   2.649   4.181  10.562 -0.2076  0.5070  0.0022
    3SAPS   C31  299   2.671   4.086  10.473  1.0309 -0.2153  0.0777
    3SAPS   O32  300   2.697   3.974  10.495 -0.9112 -0.0775  0.5028
    3SAPS   C32  301   2.639   4.149  10.339 -0.0427  0.5174 -0.4937
    3SAPS   H2X  302   2.712   4.226  10.306 -1.2759  0.5666 -3.2703
    3SAPS   H2Y  303   2.537   4.191  10.345 -0.0391  0.2209  2.2127
    3SAPS   C23  304   3.102   4.330  10.474 -0.6866  0.4536  0.7572
    3SAPS   H3R  305   3.121   4.248  10.401  1.3146 -0.5353  2.3295
    3SAPS   H3S  306   3.182   4.408  10.471  0.4729 -0.7779 -1.7677
    3SAPS   C24  307   2.962   4.386  10.440  0.3312 -0.6606 -0.0745
    3SAPS   H4R  308   2.917   4.428  10.532  1.4719  1.8518 -0.6038
    3SAPS   H4S  309   2.899   4.301  10.407  3.4741 -2.6827 -1.1566
    3SAPS   C25  310   2.971   4.498  10.342  0.5129  0.1182 -0.2194
    3SAPS   H5R  311   2.955   4.595  10.390  1.4669 -1.5889  3.7861
    3SAPS   C26  312   3.027   4.483  10.217 -0.6532  1.1430  0.5199
    3SAPS   H6R  313   3.029   4.564  10.143 -1.6572  1.6552  1.0359
    3SAPS   C27  314   3.076   4.358  10.148  0.1594  0.1459 -0.1239
    3SAPS   H7R  315   3.134   4.299  10.222  1.8875  1.1672 -0.6397
    3SAPS   H7S  316   3.161   4.379  10.079  0.2270 -3.4351 -1.2595
    3SAPS   C28  317   2.967   4.283  10.078 -0.3630  0.2258  0.0299
    3SAPS   H8R  318   2.939   4.188  10.125  0.9935  0.9878  2.4300
    3SAPS   C29  319   2.891   4.323   9.981 -0.3901 -0.3696  0.0259
    3SAPS   H9R  320   2.811   4.266   9.931  1.7384 -0.7079 -3.1616
    3SAPS  C210  321   2.917   4.450   9.912  0.5437 -0.1519  0.4531
    3SAPS  H10R  322   3.026   4.471   9.917  0.1044  2.0341  1.7640
    3SAPS  H10S  323   2.857   4.517   9.978  0.1512  2.1881 -2.2167
    3SAPS  C211  324   2.859   4.474   9.770 -0.5584 -0.1350 -0.4727
    3SAPS  H11R  325   2.809   4.569   9.745  0.7803  0.9893  1.0412
    3SAPS  C212  326   2.891   4.404   9.658 -0.0960  0.3332  0.8428
    3SAPS  H12R  327   2.842   4.426   9.561  1.1978  0.5170  0.2217
    3SAPS  C213  328   2.981   4.283   9.662  0.5959  0.0051  0.0415
    3SAPS  H13R  329   3.036   4.274   9.758  2.9785  2.2137 -1.0455
    3SAPS  H13S  330   3.067   4.290   9.591  0.4414 -0.3118 -0.1790
    3SAPS  C214  331   2.910   4.150   9.650  0.0887  0.1841  0.2492
    3SAPS  H14R  332   2.877   4.093   9.738  1.9478  0.9994  1.4991
    3SAPS  C215  333   2.887   4.081   9.538  0.5695  0.2736  1.0260
    3SAPS  H15R  334   2.839   3.982   9.544 -0.1108  0.4526 -0.8843
    3SAPS  C216  335   2.921   4.129   9.399 -0.2380 -0.1642 -0.6045
    3SAPS  H16R  336   3.026   4.165   9.387 -0.7810  1.7136 -0.0119
    3SAPS  H16S  337   2.851   4.215   9.392 -1.7319 -1.3088 -0.0419
    3SAPS  C217  338   2.896   4.056   9.262  0.7276 -0.0452  0.1935
    3SAPS  H17R  339   2.803   3.995   9.266  0.3198  0.5797  0.4357
    3SAPS  H17S  340   2.987   3.994   9.248 -0.3899 -1.7152  0.1276
    3SAPS  C218  341   2.895   4.151   9.147 -0.2941 -0.2710 -0.9287
    3SAPS  H18R  342   3.003   4.172   9.137 -0.4564  0.4929 -1.0934
    3SAPS  H18S  343   2.837   4.242   9.173 -0.3451 -0.1297 -1.5151
    3SAPS  C219  344   2.856   4.091   9.012 -0.3361  0.1555  0.3000
    3SAPS  H19R  345   2.914   3.998   8.991  1.5861  1.6473 -1.2256
    3SAPS  H19S  346   2.894   4.152   8.927  3.0117 -3.7975 -1.2442
    3SAPS  C220  347   2.711   4.063   9.000  0.4538 -0.3377  0.3758
    3SAPS  H20R  348   2.671   3.987   9.071 -1.3774  0.0340 -0.2129
    3SAPS  H20S  349   2.693   4.023   8.897 -2.2090  1.3478  0.1322
    3SAPS  H20T  350   2.649   4.155   9.008  0.0765 -0.5717  0.1945
    3SAPS   C33  351   2.646   4.034  10.235 -0.5927  0.4680  0.0252
    3SAPS   H3X  352   2.570   3.958  10.263  0.2982 -0.1356  0.8310
    3SAPS   H3Y  353   2.744   3.982  10.238 -0.8153  0.0351 -0.0857
    3SAPS   C34  354   2.624   4.088  10.095 -0.7832  0.3443  0.1259
    3SAPS   H4X  355   2.711   4.148  10.061 -0.8874 -0.4360 -1.5827
    3SAPS   H4Y  356   2.528   4.142  10.080  0.7567  3.0994 -0.1620
    3SAPS   C35  357   2.637   3.966   9.996 -0.3538  1.1010 -0.1410
    3SAPS   H5X  358   2.562   3.887  10.017  0.2082  0.8883  1.0841
    3SAPS   H5Y  359   2.738   3.927  10.020 -1.0551 -0.3659  0.4875
    3SAPS   C36  360   2.636   4.004   9.845 -0.6193  0.2815 -0.8434
    3SAPS   H6X  361   2.702   3.937   9.786  0.0830 -0.4379  0.7164
    3SAPS   H6Y  362   2.664   4.111   9.832 -1.0191  0.5499  0.4739
    3SAPS   C37  363   2.506   3.995   9.775  1.1106  0.6474 -0.5036
    3SAPS   H7X  364   2.434   4.075   9.805  0.7108  0.4592 -0.9553
    3SAPS   H7Y  365   2.457   3.897   9.793 -0.4342  1.8749  2.2790
    3SAPS   C38  366   2.512   4.024   9.622  0.4985  0.3245 -0.2941
    3SAPS   H8X  367   2.600   3.964   9.591  1.2760  1.4946 -0.4078
    3SAPS   H8Y  368   2.525   4.132   9.597 -1.8949  0.5672 -0.6486
    3SAPS   C39  369   2.382   3.964   9.556  0.4854  0.0607  0.4567
    3SAPS   H9X  370   2.303   4.041   9.568 -1.0910 -1.1846 -1.6138
    3SAPS   H9Y  371   2.342   3.876   9.610  2.0151 -0.3408  0.9519
    3SAPS  C310  372   2.392   3.937   9.409  0.4035 -0.0454  0.1246
    3SAPS  H10X  373   2.425   4.032   9.363  0.0569  1.6732  3.3092
    3SAPS  H10Y  374   2.293   3.905   9.371 -0.4004 -1.1521  3.0392
    3SAPS  C311  375   2.502   3.838   9.366 -0.2415  0.4138  0.2486
    3SAPS  H11X  376   2.501   3.740   9.417 -1.6818 -0.5491 -1.5554
    3SAPS  H11Y  377   2.595   3.895   9.386 -0.3908  1.0778 -0.8584
    3SAPS  C312  378   2.504   3.811   9.212  0.5018 -0.9586 -0.2070
    3SAPS  H12X  379   2.611   3.784   9.196  0.3891 -0.7942 -1.2857
    3SAPS  H12Y  380   2.498   3.905   9.154 -0.4829 -1.3351 -0.7300
    3SAPS  C313  381   2.411   3.715   9.155 -0.4042 -0.0079  0.5193
    3SAPS  H13X  382   2.310   3.759   9.145  0.0656  0.7946 -0.9418
    3SAPS  H13Y  383   2.396   3.620   9.210 -1.1254 -0.3403 -0.2462
    3SAPS  C314  384   2.466   3.667   9.020  0.4257 -0.3346 -0.0948
    3SAPS  H14X  385   2.564   3.617   9.035  0.7693  0.5475  0.6830
    3SAPS  H14Y  386   2.485   3.749   8.947  0.0154 -1.3580 -1.3681
    3SAPS  C315  387   2.391   3.552   8.951  0.1964  0.1043 -0.0448
    3SAPS  H15X  388   2.394   3.458   9.011 -1.2037  0.4712  0.6263
    3SAPS  H15Y  389   2.455   3.522   8.865 -0.5451 -1.9684  0.0942
    3SAPS  C316  390   2.252   3.588   8.893 -0.3233  0.0549  0.2990
    3SAPS  H16X  391   2.269   3.684   8.841  0.7129 -0.0979  0.3455
    3SAPS  H16Y  392   2.179   3.605   8.975  0.0824  0.5567  0.5572
    3SAPS  C317  393   2.193   3.486   8.796  0.3520 -0.2516 -0.8204
    3SAPS  H17X  394   2.198   3.382   8.834  2.6011 -0.0160 -0.4306
    3SAPS  H17Y  395   2.259   3.492   8.707  0.6276  1.0862 -0.5347
    3SAPS  C318  396   2.046   3.515   8.751  0.1201  0.2658 -0.0317
    3SAPS  H18X  397   2.034   3.619   8.714  2.0955  0.7374  0.6326
    3SAPS  H18Y  398   1.967   3.506   8.828  0.7069  0.8239  0.6378
    3SAPS  H18Z  399   2.002   3.447   8.674 -1.2197  2.2975 -1.1035
    4SAPS     N  400   5.656   4.517  10.786  0.0578  0.3517 -0.1808
    4SAPS   HN1  401   5.725   4.498  10.861 -0.2481 -0.4147 -0.0855
    4SAPS   HN2  402   5.699   4.469  10.704 -0.5906 -1.3443  0.4542
    4SAPS   HN3  403   5.661   4.615  10.753  0.9334  0.6311  0.7826
    4SAPS   C12  404   5.519   4.462  10.803  0.8627  0.1724  0.2941
    4SAPS  H12A  405   5.492   4.400  10.719  0.1375  2.4350 -1.1849
    4SAPS   C13  406   5.503   4.384  10.934 -0.1020 -0.0209  0.4531
    4SAPS  O13A  407   5.601   4.383  11.015  0.0341 -0.3749  0.7443
    4SAPS  O13B  408   5.389   4.345  10.974 -0.3715 -0.2767 -0.1142
    4SAPS   C11  409   5.419   4.580  10.815 -0.9513 -0.2598 -0.6049
    4SAPS  H11A  410   5.448   4.636  10.907 -1.6068  1.3758 -1.3604
    4SAPS  H11B  411   5.315   4.544  10.834 -1.1193  0.1306 -0.7683
    4SAPS     P  412   5.345   4.798  10.692 -0.0730 -0.2184 -0.1930
    4SAPS   O13  413   5.330   4.865  10.825 -0.3431  0.0753 -0.3221
    4SAPS   O14  414   5.403   4.875  10.581 -0.1320  0.5161  0.3607
    4SAPS   O12  415   5.435   4.665  10.706 -0.2663  0.2596  1.0698
    4SAPS   O11  416   5.209   4.742  10.648  0.8428 -0.0380 -0.7225
    4SAPS    C1  417   5.200   4.635  10.556  0.1122 -0.0350  0.5746
    4SAPS    HA  418   5.294   4.595  10.513 -0.7094 -0.1552 -1.1506
    4SAPS    HB  419   5.142   4.548  10.593 -0.6285 -1.5421 -3.8822
    4SAPS    C2  420   5.127   4.688  10.431 -0.0054 -0.2675  0.2127
    4SAPS    HS  421   5.103   4.606  10.360  4.0539 -0.1600 -1.3763
    4SAPS   O21  422   5.201   4.790  10.358  0.4771  0.3035 -0.7685
    4SAPS   C21  423   5.280   4.742  10.267 -0.1327 -0.5988  0.3497
    4SAPS   O22  424   5.275   4.627  10.220  0.2317 -0.5206 -0.1288
    4SAPS   C22  425   5.359   4.858  10.196  0.3792 -0.6706 -0.4439
    4SAPS   H2R  426   5.287   4.940  10.174  0.9252 -0.6339 -2.1379
    4SAPS   H2S  427   5.425   4.903  10.273 -0.6108 -0.6545  0.4079
    4SAPS    C3  428   4.985   4.740  10.468 -0.3119 -0.1711  0.1472
    4SAPS    HX  429   5.001   4.833  10.527 -0.1394  1.0505 -1.7911
    4SAPS    HY  430   4.930   4.681  10.545 -3.0116  1.5239 -0.3959
    4SAPS   O31  431   4.903   4.749  10.356  0.4200  0.1682 -0.4289
    4SAPS   C31  432   4.890   4.868  10.307 -0.9227  0.2256 -0.1263
    4SAPS   O32  433   4.940   4.966  10.355  0.1433  0.7969  0.6175
    4SAPS   C32  434   4.841   4.877  10.164 -0.8708 -0.1489  0.3973
    4SAPS   H2X  435   4.830   4.983  10.131 -1.1157  0.0507  1.1208
    4SAPS   H2Y  436   4.743   4.826  10.154 -0.2386 -1.0441 -1.4262
    4SAPS   C23  437   5.441   4.828  10.068 -0.1859  0.1514  0.0060
    4SAPS   H3R  438   5.514   4.747  10.085 -2.5177 -2.0357 -0.1756
    4SAPS   H3S  439   5.503   4.920  10.055 -0.1587  0.8860  4.5635
    4SAPS   C24  440   5.357   4.805   9.941 -0.1546 -0.2164 -0.6114
    4SAPS   H4R  441   5.281   4.732   9.974 -0.9765  0.9830  0.1985
    4SAPS   H4S  442   5.410   4.755   9.858  0.7229  2.2124 -1.5783
    4SAPS   C25  443   5.277   4.920   9.891 -0.1515 -0.2590 -0.8984
    4SAPS   H5R  444   5.220   4.978   9.965  0.1796 -0.5497 -0.4179
    4SAPS   C26  445   5.254   4.951   9.759 -0.1093 -0.3769 -0.3754
    4SAPS   H6R  446   5.169   5.019   9.740  0.9187  0.7151 -1.1471
    4SAPS   C27  447   5.320   4.888   9.637  0.2507  0.1151  0.7433
    4SAPS   H7R  448   5.425   4.870   9.671  1.3799  1.1868 -2.0158
    4SAPS   H7S  449   5.334   4.964   9.557  1.2166  0.9840  1.7225
    4SAPS   C28  450   5.258   4.757   9.592 -0.0834 -0.0024 -0.8988
    4SAPS   H8R  451   5.209   4.700   9.672 -1.7245  1.8866 -0.5286
    4SAPS   C29  452   5.236   4.717   9.470 -1.0770 -0.1341 -0.0774
    4SAPS   H9R  453   5.203   4.613   9.457  2.4186 -1.0329 -2.7698
    4SAPS  C210  454   5.280   4.794   9.348  0.0755 -0.3026  0.2591
    4SAPS  H10R  455   5.298   4.718   9.269 -0.3719  2.6479 -2.7976
    4SAPS  H10S  456   5.382   4.833   9.369  0.8452 -0.7719 -2.3555
    4SAPS  C211  457   5.181   4.898   9.310 -0.7156 -0.2745  0.0031
    4SAPS  H11R  458   5.153   4.979   9.380  0.7513  1.0459 -0.8876
    4SAPS  C212  459   5.140   4.913   9.183  0.4338  0.3438  0.4247
    4SAPS  H12R  460   5.064   4.992   9.168  1.8377  2.1786  2.6679
    4SAPS  C213  461   5.169   4.843   9.053  0.0844 -0.2108  1.3031
    4SAPS  H13R  462   5.093   4.871   8.978 -0.4533 -0.7062  1.6591
    4SAPS  H13S  463   5.150   4.734   9.061 -1.8809 -0.1543 -1.9050
    4SAPS  C214  464   5.307   4.880   8.988 -0.1205 -0.3047  0.9577
    4SAPS  H14R  465   5.359   4.790   8.952 -1.5747 -0.1880 -1.5511
    4SAPS  C215  466   5.357   5.002   8.947 -0.4401 -0.3133  0.3476
    4SAPS  H15R  467   5.458   5.010   8.902 -0.2506  1.3249  1.0125
    4SAPS  C216  468   5.275   5.130   8.947 -0.5471 -0.4263 -0.0944
    4SAPS  H16R  469   5.343   5.210   8.983 -0.9583 -0.8140  1.5724
    4SAPS  H16S  470   5.186   5.123   9.013 -0.8928 -0.2919 -0.5430
    4SAPS  C217  471   5.221   5.168   8.809 -0.1898  0.3769 -0.2681
    4SAPS  H17R  472   5.147   5.251   8.812 -0.1543  0.3683  1.4496
    4SAPS  H17S  473   5.165   5.080   8.770 -0.6694  0.9549 -0.8889
    4SAPS  C218  474   5.327   5.228   8.713 -0.0748 -0.2835 -0.3968
    4SAPS  H18R  475   5.421   5.169   8.705  0.5498  0.4771  1.1503
    4SAPS  H18S  476   5.381   5.316   8.753  0.4468 -1.0151  0.5143
    4SAPS  C219  477   5.272   5.249   8.577  0.7271  0.1305 -0.3158
    4SAPS  H19R  478   5.201   5.334   8.590  2.1436  0.9495  2.6133
    4SAPS  H19S  479   5.223   5.152   8.552  0.7668 -0.0765  0.3850
    4SAPS  C220  480   5.376   5.274   8.465  0.6416  0.0968 -0.0801
    4SAPS  H20R  481   5.442   5.186   8.449 -0.1996 -0.2904 -1.4681
    4SAPS  H20S  482   5.442   5.358   8.498  0.7826  0.1133 -0.4067
    4SAPS  H20T  483   5.320   5.305   8.374 -1.7708  1.6903  1.8859
    4SAPS   C33  484   4.952   4.811  10.069  0.7759 -0.0687 -0.2611
    4SAPS   H3X  485   4.950   4.702  10.086 -0.9681  0.3808  2.9255
    4SAPS   H3Y  486   5.053   4.853  10.088  2.0106 -2.9625 -0.1835
    4SAPS   C34  487   4.935   4.849   9.921 -0.0094  0.0918  0.1924
    4SAPS   H4X  488   5.025   4.806   9.872  2.3388  0.8443  3.6387
    4SAPS   H4Y  489   4.950   4.958   9.910  2.0242  0.0430  2.1064
    4SAPS   C35  490   4.808   4.795   9.855  0.0025 -0.0955 -0.4444
    4SAPS   H5X  491   4.732   4.785   9.935  1.4738  1.7939  1.2213
    4SAPS   H5Y  492   4.825   4.691   9.820  1.7339 -0.4297  1.3477
    4SAPS   C36  493   4.747   4.875   9.738  0.0911 -0.6715 -0.4925
    4SAPS   H6X  494   4.739   4.980   9.774 -2.2255 -0.1969 -2.2687
    4SAPS   H6Y  495   4.651   4.828   9.707 -2.0989  2.8981  0.5249
    4SAPS   C37  496   4.837   4.882   9.611  0.1592  0.4154 -0.4014
    4SAPS   H7X  497   4.933   4.923   9.650  0.6482 -0.1877 -0.9718
    4SAPS   H7Y  498   4.789   4.951   9.538  0.8577 -0.4469 -1.6886
    4SAPS   C38  499   4.870   4.747   9.549  0.2212  0.5115  0.2660
    4SAPS   H8X  500   4.916   4.688   9.632  0.7111  0.8819  0.2636
    4SAPS   H8Y  501   4.937   4.755   9.460  0.5870 -0.2563  0.4662
    4SAPS   C39  502   4.739   4.667   9.508 -0.0545 -0.6552  1.0407
    4SAPS   H9X  503   4.683   4.657   9.603  0.1326  0.4295  1.2744
    4SAPS   H9Y  504   4.772   4.570   9.467 -0.2169  0.8467 -2.9504
    4SAPS  C310  505   4.663   4.745   9.397 -0.2541 -0.0982 -0.0169
    4SAPS  H10X  506   4.621   4.839   9.438 -1.8028 -0.8912  0.2736
    4SAPS  H10Y  507   4.582   4.683   9.353 -1.3842  2.0817 -1.0693
    4SAPS  C311  508   4.756   4.791   9.285  0.4961  0.2682 -0.3119
    4SAPS  H11X  509   4.831   4.714   9.258  1.9049  1.7484 -0.7388
    4SAPS  H11Y  510   4.807   4.886   9.313  1.4200 -1.1513  3.0377
    4SAPS  C312  511   4.672   4.811   9.156  0.1199 -1.0821 -0.7351
    4SAPS  H12X  512   4.588   4.881   9.176  1.7710  1.3317 -1.9441
    4SAPS  H12Y  513   4.625   4.713   9.136  2.3851 -2.1717 -0.8051
    4SAPS  C313  514   4.773   4.846   9.045  0.0029  0.1397  0.1641
    4SAPS  H13X  515   4.852   4.769   9.057 -0.0746  0.2071  1.1576
    4SAPS  H13Y  516   4.823   4.944   9.062  0.7379  0.0246 -1.2854
    4SAPS  C314  517   4.716   4.836   8.896 -0.1918  0.5588 -0.0483
    4SAPS  H14X  518   4.624   4.898   8.887 -0.3388  0.1031 -1.8661
    4SAPS  H14Y  519   4.673   4.734   8.881  0.6015  0.2307 -0.1355
    4SAPS  C315  520   4.821   4.865   8.785  0.7608 -0.0874 -0.0654
    4SAPS  H15X  521   4.889   4.777   8.786  0.9236  0.0266 -1.1869
    4SAPS  H15Y  522   4.881   4.953   8.819  0.8650 -0.2024  0.0502
    4SAPS  C316  523   4.769   4.893   8.646  0.0842 -0.0184 -0.1941
    4SAPS  H16X  524   4.848   4.942   8.584 -0.4483  3.0531  1.4665
    4SAPS  H16Y  525   4.696   4.973   8.667  0.2926 -0.2290  1.4085
    4SAPS  C317  526   4.697   4.778   8.571  0.7154  0.7468 -0.1005
    4SAPS  H17X  527   4.635   4.818   8.488 -3.3802 -0.2180  2.3081
    4SAPS  H17Y  528   4.619   4.728   8.633  1.8025  0.5002  1.0986
    4SAPS  C318  529   4.789   4.667   8.517  0.0944  0.7115  0.0898
    4SAPS  H18X  530   4.743   4.594   8.447  0.3952  0.1254  0.4940
    4SAPS  H18Y  531   4.841   4.618   8.603 -3.1207  1.3160  2.4570
    4SAPS  H18Z  532   4.867   4.713   8.454  2.3951  0.3803  2.5657
    5SAPS     N  533   1.796   3.805  11.322 -0.4084  0.3111  0.4462
    5SAPS   HN1  534   1.853   3.731  11.276  1.4970  2.1579 -0.2859
    5SAPS   HN2  535   1.850   3.892  11.341 -0.1576  0.0097  1.1101
    5SAPS   HN3  536   1.765   3.764  11.412 -0.3044 -0.0274  0.3279
    5SAPS   C12  537   1.687   3.859  11.235  0.4511  1.0389 -0.1164
    5SAPS  H12A  538   1.627   3.775  11.202 -0.0376  2.6174 -3.4632
    5SAPS   C13  539   1.597   3.972  11.309 -0.2476 -0.2221 -0.2982
    5SAPS  O13A  540   1.655   4.026  11.408  0.9353  0.7672 -0.3854
    5SAPS  O13B  541   1.493   4.015  11.252 -0.0343  0.1788  0.4110
    5SAPS   C11  542   1.754   3.917  11.108  0.1953 -1.0227 -0.3404
    5SAPS  H11A  543   1.805   4.011  11.139 -0.6320  0.1678 -2.4399
    5SAPS  H11B  544   1.682   3.955  11.033 -0.3562 -0.7092  0.3464
    5SAPS     P  545   1.810   3.717  10.949 -0.3860 -0.4710  0.3191
    5SAPS   O13  546   1.896   3.604  10.984 -0.6152 -0.2815  0.1223
    5SAPS   O14  547   1.663   3.695  10.961  0.4154 -0.9173  0.4981
    5SAPS   O12  548   1.852   3.828  11.055  0.1137 -0.0803 -0.2519
    5SAPS   O11  549   1.848   3.775  10.811 -0.5922  0.2686  0.4511
    5SAPS    C1  550   1.952   3.884  10.808  0.5552  0.0714 -0.0887
    5SAPS    HA  551   1.891   3.977  10.796 -1.3871 -1.1306  0.3076
    5SAPS    HB  552   2.017   3.901  10.897 -0.0075  1.9622  0.0028
    5SAPS    C2  553   2.063   3.866  10.691  0.2630  0.0517 -0.0752
    5SAPS    HS  554   2.113   3.964  10.701 -0.1413  0.0616  2.2993
    5SAPS   O21  555   1.998   3.845  10.563 -0.1039  0.4234 -0.4470
    5SAPS   C21  556   1.934   3.951  10.516 -0.0868  0.4584  0.1102
    5SAPS   O22  557   1.955   4.067  10.544  0.5374  0.2661 -0.1677
    5SAPS   C22  558   1.846   3.905  10.400  0.6158 -0.5796  0.3990
    5SAPS   H2R  559   1.906   3.846  10.328  0.0920 -1.3731  0.6145
    5SAPS   H2S  560   1.767   3.844  10.450 -0.6509 -0.6089 -1.5822
    5SAPS    C3  561   2.168   3.754  10.727  0.6503  0.7912 -0.4250
    5SAPS    HX  562   2.105   3.662  10.727  2.0315 -0.1839 -1.4925
    5SAPS    HY  563   2.212   3.753  10.829  1.2555 -0.9839 -0.6802
    5SAPS   O31  564   2.263   3.719  10.630 -0.4908  0.0993  0.5340
    5SAPS   C31  565   2.367   3.801  10.609 -0.7145  0.4439  0.0081
    5SAPS   O32  566   2.391   3.895  10.677 -0.1044 -0.2016 -0.0360
    5SAPS   C32  567   2.449   3.754  10.490 -0.3752 -0.3235  0.4943
    5SAPS   H2X  568   2.524   3.678  10.520 -0.3276 -0.8913 -1.0015
    5SAPS   H2Y  569   2.499   3.846  10.453 -0.9754 -0.0295  0.4098
    5SAPS   C23  570   1.766   4.008  10.333  0.0386  0.3299  0.0694
    5SAPS   H3R  571   1.721   4.079  10.406 -3.7907 -1.5904 -0.3276
    5SAPS   H3S  572   1.681   3.963  10.278 -1.5819  0.6012  2.2859
    5SAPS   C24  573   1.841   4.088  10.226  0.2192  0.1864 -0.2182
    5SAPS   H4R  574   1.862   4.018  10.142  0.8463  0.9897 -0.7273
    5SAPS   H4S  575   1.929   4.129  10.279  0.2261  0.4819 -0.4598
    5SAPS   C25  576   1.758   4.211  10.189  0.0590  0.1050  0.3344
    5SAPS   H5R  577   1.698   4.255  10.271 -2.0534 -1.7443 -0.1643
    5SAPS   C26  578   1.732   4.262  10.067 -0.3073  0.0595 -1.0478
    5SAPS   H6R  579   1.669   4.352  10.063 -0.4674 -0.1009 -2.4231
    5SAPS   C27  580   1.776   4.213   9.933  0.0126 -0.2360  0.2571
    5SAPS   H7R  581   1.688   4.193   9.869  0.2208 -1.0446  0.2172
    5SAPS   H7S  582   1.830   4.116   9.941  0.5723  0.2087  2.1700
    5SAPS   C28  583   1.869   4.315   9.871  0.4609 -0.1216  0.4684
    5SAPS   H8R  584   1.978   4.309   9.883  0.9913  1.4278 -3.1514
    5SAPS   C29  585   1.830   4.436   9.813 -0.0124  0.6637 -0.3020
    5SAPS   H9R  586   1.910   4.500   9.774  0.5457  0.4073  0.4259
    5SAPS  C210  587   1.689   4.480   9.785  1.0550  0.1619 -0.4326
    5SAPS  H10R  588   1.616   4.403   9.820  2.2366 -0.4251  0.7635
    5SAPS  H10S  589   1.664   4.473   9.677 -1.5253 -0.9231  0.1923
    5SAPS  C211  590   1.647   4.619   9.831 -0.1031 -0.1480 -0.3029
    5SAPS  H11R  591   1.707   4.697   9.783 -2.0019  1.6488  0.1435
    5SAPS  C212  592   1.551   4.668   9.911 -0.7134 -0.3899  0.2563
    5SAPS  H12R  593   1.562   4.775   9.937 -0.8240 -0.4479  0.5473
    5SAPS  C213  594   1.458   4.578   9.994 -1.1474 -0.6854 -0.5216
    5SAPS  H13R  595   1.489   4.583  10.101  1.3554  2.0207 -1.2815
    5SAPS  H13S  596   1.471   4.473   9.963 -3.6105 -1.2515  0.2898
    5SAPS  C214  597   1.312   4.604   9.983  0.4060 -0.6355 -0.1480
    5SAPS  H14R  598   1.282   4.697  10.034 -0.6814 -1.0686  0.0039
    5SAPS  C215  599   1.213   4.537   9.912  0.3267  0.1254  0.4254
    5SAPS  H15R  600   1.122   4.597   9.901  2.1053  2.5404 -2.0752
    5SAPS  C216  601   1.233   4.418   9.829 -0.5020 -0.1202  0.5397
    5SAPS  H16R  602   1.177   4.332   9.871 -0.8202 -0.0774  0.2099
    5SAPS  H16S  603   1.341   4.400   9.809 -0.2706  1.8442 -0.0979
    5SAPS  C217  604   1.171   4.451   9.684 -0.5963 -0.6954 -0.1570
    5SAPS  H17R  605   1.205   4.553   9.657  1.1908 -0.7585  1.6888
    5SAPS  H17S  606   1.063   4.426   9.687 -1.2770  2.3205  2.0198
    5SAPS  C218  607   1.222   4.360   9.566 -0.4348 -0.6669 -0.7125
    5SAPS  H18R  608   1.204   4.253   9.592 -0.6114 -0.4222  0.1864
    5SAPS  H18S  609   1.174   4.379   9.468 -1.0449  0.8352 -0.1346
    5SAPS  C219  610   1.374   4.380   9.538  0.3927 -0.2018 -0.4384
    5SAPS  H19R  611   1.433   4.337   9.622 -0.5817  1.2072  0.9943
    5SAPS  H19S  612   1.385   4.490   9.535 -0.2700 -0.1611 -1.7807
    5SAPS  C220  613   1.415   4.325   9.408  0.6542 -0.1117 -0.0597
    5SAPS  H20R  614   1.524   4.322   9.388  1.1475  2.0351  2.1359
    5SAPS  H20S  615   1.372   4.400   9.339 -0.0452  1.6235  2.2046
    5SAPS  H20T  616   1.356   4.233   9.384 -1.3003  0.9509  0.5367
    5SAPS   C33  617   2.356   3.699  10.378 -0.0025  0.5682  0.0913
    5SAPS   H3X  618   2.293   3.616  10.417 -0.0327  0.4631 -0.1781
    5SAPS   H3Y  619   2.425   3.655  10.304 -1.4249 -0.0099 -0.9277
    5SAPS   C34  620   2.288   3.813  10.301  0.3751  0.4738  0.0529
    5SAPS   H4X  621   2.361   3.890  10.268 -0.3622  1.1186 -0.0857
    5SAPS   H4Y  622   2.219   3.855  10.377  0.9354  0.7406  0.4223
    5SAPS   C35  623   2.228   3.771  10.168 -0.5538 -0.4145  0.1539
    5SAPS   H5X  624   2.139   3.706  10.184 -0.8850  0.7583  3.3573
    5SAPS   H5Y  625   2.305   3.708  10.118 -0.2104  0.1217  0.0137
    5SAPS   C36  626   2.186   3.885  10.076  0.2664  0.6071  0.9987
    5SAPS   H6X  627   2.274   3.950  10.053  0.4877 -0.8434 -2.5942
    5SAPS   H6Y  628   2.109   3.947  10.125  0.6136  1.2813  0.6967
    5SAPS   C37  629   2.114   3.844   9.950 -0.2782 -0.1227  0.4526
    5SAPS   H7X  630   2.008   3.825   9.978 -0.2558  0.3198  0.8571
    5SAPS   H7Y  631   2.161   3.752   9.910  4.0339  2.6426 -1.1240
    5SAPS   C38  632   2.117   3.955   9.847 -0.7647 -0.1801  0.5483
    5SAPS   H8X  633   2.216   3.955   9.797  0.0729 -1.9641  2.1526
    5SAPS   H8Y  634   2.097   4.050   9.902  0.7927  0.5319 -0.0935
    5SAPS   C39  635   1.996   3.937   9.750  0.6251  0.7323  0.3024
    5SAPS   H9X  636   1.902   3.926   9.808  0.3895  3.9243  0.6110
    5SAPS   H9Y  637   2.001   3.841   9.694 -0.7106  1.3641 -0.9197
    5SAPS  C310  638   1.965   4.048   9.648  0.3252 -0.5407 -0.1048
    5SAPS  H10X  639   2.049   4.056   9.575  1.2008  0.7800  1.0321
    5SAPS  H10Y  640   1.970   4.147   9.697 -1.5920 -1.1994  1.5169
    5SAPS  C311  641   1.836   4.024   9.572 -0.0900  0.1134 -0.3317
    5SAPS  H11X  642   1.760   4.002   9.649 -1.3639  0.0737 -1.5748
    5SAPS  H11Y  643   1.858   3.936   9.507 -0.3571  0.1986 -0.5418
    5SAPS  C312  644   1.792   4.141   9.479 -0.1168 -0.0573  0.5694
    5SAPS  H12X  645   1.759   4.230   9.536 -0.7826  1.2558 -1.7773
    5SAPS  H12Y  646   1.707   4.107   9.415  1.1599 -0.3628 -0.9852
    5SAPS  C313  647   1.898   4.195   9.389 -0.6212 -0.0496  0.0910
    5SAPS  H13X  648   1.983   4.232   9.450  0.8001 -1.7341 -0.8299
    5SAPS  H13Y  649   1.860   4.276   9.323 -0.7262 -1.0207 -1.0528
    5SAPS  C314  650   1.962   4.081   9.294 -0.3307  0.0389 -0.0236
    5SAPS  H14X  651   2.017   4.015   9.365 -0.4682 -2.0459 -1.7896
    5SAPS  H14Y  652   2.038   4.122   9.225  0.7054  0.5289  1.3725
    5SAPS  C315  653   1.862   4.006   9.201 -0.1861  0.3297  0.1494
    5SAPS  H15X  654   1.768   3.988   9.257 -0.3955  1.2330  0.1086
    5SAPS  H15Y  655   1.912   3.915   9.162  1.7405 -0.0345  3.3045
    5SAPS  C316  656   1.819   4.089   9.073 -0.1322  0.3287 -0.1375
    5SAPS  H16X  657   1.896   4.166   9.051  0.4757  0.2123  1.5241
    5SAPS  H16Y  658   1.719   4.132   9.096 -0.2896 -1.5420  2.8340
    5SAPS  C317  659   1.798   3.998   8.951 -0.6828 -0.2463  0.2559
    5SAPS  H17X  660   1.739   4.056   8.876  0.3048 -0.3197 -0.5791
    5SAPS  H17Y  661   1.725   3.921   8.986 -0.5591  0.6001  2.4866
    5SAPS  C318  662   1.920   3.932   8.885 -0.1512  0.0665  0.0267
    5SAPS  H18X  663   1.991   4.008   8.846 -0.2638  0.2064  0.0949
    5SAPS  H18Y  664   1.904   3.875   8.791  0.1859 -1.3094  0.7846
    5SAPS  H18Z  665   1.969   3.867   8.961 -0.1066  0.2713  0.1721
    6SAPS     N  666   1.938   3.355  10.967  0.0559 -0.9717  0.4618
    6SAPS   HN1  667   2.035   3.332  10.999  0.3399 -1.0371 -0.4233
    6SAPS   HN2  668   1.933   3.343  10.864  1.4032  0.0055  0.2680
    6SAPS   HN3  669   1.927   3.456  10.989 -1.4672 -0.4891 -2.2888
    6SAPS   C12  670   1.846   3.272  11.044 -0.3876  0.3380  0.0449
    6SAPS  H12A  671   1.849   3.175  10.999 -0.5618  1.4823 -2.5162
    6SAPS   C13  672   1.895   3.266  11.190  0.5214  0.6119 -0.3054
    6SAPS  O13A  673   2.012   3.297  11.229  0.2773 -0.3037  0.5771
    6SAPS  O13B  674   1.825   3.193  11.264  0.5951  0.0191  0.4110
    6SAPS   C11  675   1.697   3.314  11.043  0.6985  0.1707 -0.1829
    6SAPS  H11A  676   1.678   3.405  11.104  0.1298  0.5935 -0.9869
    6SAPS  H11B  677   1.647   3.236  11.105 -0.5367  2.7174  2.1529
    6SAPS     P  678   1.481   3.346  10.897  0.1799  0.1708  0.1244
    6SAPS   O13  679   1.411   3.368  11.028 -0.0318  0.1476  0.4792
    6SAPS   O14  680   1.456   3.436  10.780  0.3693 -0.3354  0.7089
    6SAPS   O12  681   1.636   3.327  10.916 -0.1585  0.6783  1.0235
    6SAPS   O11  682   1.431   3.205  10.845 -0.3406  0.4196  0.6818
    6SAPS    C1  683   1.516   3.128  10.758 -0.5271  0.8042 -0.0962
    6SAPS    HA  684   1.596   3.188  10.710  0.4281 -0.7013 -0.3941
    6SAPS    HB  685   1.566   3.049  10.818  1.4617  1.6018 -0.6816
    6SAPS    C2  686   1.431   3.068  10.639  0.8473  0.2999  0.2724
    6SAPS    HS  687   1.502   3.013  10.573  0.1406 -1.2617  0.8023
    6SAPS   O21  688   1.382   3.171  10.558 -0.4319 -0.3772 -0.1184
    6SAPS   C21  689   1.472   3.239  10.495 -0.4497  0.1065 -0.3915
    6SAPS   O22  690   1.592   3.211  10.482  0.3349 -0.2717 -0.0467
    6SAPS   C22  691   1.405   3.357  10.425 -0.0346  0.2254  0.1824
    6SAPS   H2R  692   1.314   3.396  10.476  0.1420 -1.1840  1.6010
    6SAPS   H2S  693   1.483   3.436  10.435 -0.5326  0.9516 -1.5947
    6SAPS    C3  694   1.313   2.980  10.693  0.0228 -0.1704 -0.1543
    6SAPS    HX  695   1.253   3.050  10.755 -0.5605 -0.5786 -0.2488
    6SAPS    HY  696   1.351   2.895  10.753  0.3970 -0.5611 -0.9374
    6SAPS   O31  697   1.237   2.932  10.580 -0.2476 -0.1175  0.1805
    6SAPS   C31  698   1.126   2.867  10.623  0.6867  0.8895  0.1684
    6SAPS   O32  699   1.108   2.833  10.737  0.2849  0.0399  0.9676
    6SAPS   C32  700   1.041   2.847  10.505  0.3090  0.0538  1.2616
    6SAPS   H2X  701   1.096   2.851  10.409 -1.0818 -1.7462  0.3628
    6SAPS   H2Y  702   0.972   2.933  10.498 -0.1723 -0.5174 -2.1126
    6SAPS   C23  703   1.376   3.342  10.280 -0.5718  0.4095 -0.1342
    6SAPS   H3R  704   1.274   3.298  10.277 -0.4292  0.0764 -0.1281
    6SAPS   H3S  705   1.454   3.275  10.238  0.3177  1.1018  0.3922
    6SAPS   C24  706   1.367   3.479  10.198 -0.4782  0.3153  0.0373
    6SAPS   H4R  707   1.387   3.450  10.092  0.3151 -0.1928  0.3177
    6SAPS   H4S  708   1.459   3.534  10.225  1.5394 -2.3525 -1.1184
    6SAPS   C25  709   1.241   3.548  10.228 -0.2853 -1.0227  0.1624
    6SAPS   H5R  710   1.230   3.594  10.328  0.2897  0.4345 -0.4300
    6SAPS   C26  711   1.135   3.560  10.140  0.0513 -0.3293  0.6339
    6SAPS   H6R  712   1.049   3.623  10.167 -0.0877  0.9754 -2.5952
    6SAPS   C27  713   1.134   3.518   9.997 -0.0742 -0.0283 -0.5329
    6SAPS   H7R  714   1.033   3.482   9.970  0.2952 -0.2561 -1.6361
    6SAPS   H7S  715   1.192   3.424  10.006 -1.1615 -0.8146 -1.5862
    6SAPS   C28  716   1.202   3.603   9.884  0.2164  0.0518 -0.0335
    6SAPS   H8R  717   1.218   3.707   9.916  0.0626 -0.3818  1.4443
    6SAPS   C29  718   1.237   3.577   9.762  1.0168 -0.2408 -0.0843
    6SAPS   H9R  719   1.293   3.645   9.696  1.1349  0.0949  0.3593
    6SAPS  C210  720   1.202   3.443   9.694  0.2162  0.0439 -0.5017
    6SAPS  H10R  721   1.112   3.401   9.744 -1.1165  0.2361 -2.6745
    6SAPS  H10S  722   1.294   3.382   9.702 -0.8860 -1.5151  0.6423
    6SAPS  C211  723   1.165   3.459   9.548  0.3230 -0.3681 -0.2458
    6SAPS  H11R  724   1.088   3.536   9.533  1.8534  0.9766 -1.4088
    6SAPS  C212  725   1.196   3.374   9.450  0.2735  0.3631  0.5590
    6SAPS  H12R  726   1.156   3.387   9.349 -0.7707  3.5423  1.3382
    6SAPS  C213  727   1.286   3.251   9.467 -1.2433  0.6276 -0.0313
    6SAPS  H13R  728   1.315   3.233   9.573 -0.9038 -0.5200 -0.3154
    6SAPS  H13S  729   1.383   3.258   9.414 -1.6407  2.9441 -0.4915
    6SAPS  C214  730   1.192   3.146   9.418 -0.8417  0.6402  0.0221
    6SAPS  H14R  731   1.096   3.135   9.471 -0.7217  1.1730  0.3596
    6SAPS  C215  732   1.208   3.071   9.310  0.1418 -0.6014 -0.7115
    6SAPS  H15R  733   1.121   3.010   9.282  0.4459 -2.0884  1.4669
    6SAPS  C216  734   1.324   3.081   9.210  0.5697  0.6483 -0.2573
    6SAPS  H16R  735   1.419   3.035   9.246  0.7616  1.1362 -0.1412
    6SAPS  H16S  736   1.365   3.184   9.213  1.1344  0.3903  3.0026
    6SAPS  C217  737   1.310   3.050   9.060 -0.3445  0.3560  0.2031
    6SAPS  H17R  738   1.416   3.064   9.029  0.3125 -0.5516  1.9555
    6SAPS  H17S  739   1.255   3.130   9.006  0.3223  2.0582  1.9782
    6SAPS  C218  740   1.254   2.914   9.018 -0.4707  0.1189  0.4727
    6SAPS  H18R  741   1.145   2.899   9.031 -0.2578 -0.9806  1.0172
    6SAPS  H18S  742   1.307   2.839   9.080 -0.2799 -0.4558 -0.3782
    6SAPS  C219  743   1.277   2.886   8.876  0.0376 -0.0143 -0.3487
    6SAPS  H19R  744   1.265   2.984   8.825 -0.2576  1.0889  1.7866
    6SAPS  H19S  745   1.203   2.809   8.847 -0.6172  0.1400  0.8852
    6SAPS  C220  746   1.415   2.833   8.841 -0.7447  0.1927 -0.6464
    6SAPS  H20R  747   1.424   2.818   8.732  0.8044  0.1040 -0.5082
    6SAPS  H20S  748   1.430   2.734   8.890  1.6743  0.3650 -1.0009
    6SAPS  H20T  749   1.495   2.903   8.872  1.5073 -1.8926 -1.6317
    6SAPS   C33  750   0.950   2.721  10.503 -0.0765 -0.1244 -0.2538
    6SAPS   H3X  751   0.899   2.710  10.601  0.4711 -1.5028 -0.1068
    6SAPS   H3Y  752   1.021   2.636  10.497  0.5849  0.5397 -2.1241
    6SAPS   C34  753   0.840   2.722  10.400 -0.2207 -1.0328  0.2378
    6SAPS   H4X  754   0.782   2.815  10.418  1.4886  0.2354 -0.7223
    6SAPS   H4Y  755   0.774   2.632  10.404  1.3646 -2.2173  0.1379
    6SAPS   C35  756   0.888   2.725  10.251  0.3782 -0.3575 -0.4197
    6SAPS   H5X  757   0.953   2.636  10.234 -0.2178 -0.9874  0.5630
    6SAPS   H5Y  758   0.954   2.811  10.225 -0.6696  0.8927  0.9740
    6SAPS   C36  759   0.771   2.720  10.152  0.2867  0.2040  0.3762
    6SAPS   H6X  760   0.714   2.815  10.163 -0.2227 -0.0349 -0.2072
    6SAPS   H6Y  761   0.701   2.635  10.167  1.5131 -0.7702  0.5879
    6SAPS   C37  762   0.818   2.739  10.011 -0.1989  0.8516 -0.5595
    6SAPS   H7X  763   0.879   2.648   9.989 -0.0054  0.9045 -0.2447
    6SAPS   H7Y  764   0.890   2.823  10.004 -0.3066  0.9012 -1.1014
    6SAPS   C38  765   0.711   2.770   9.911 -0.3686 -0.2057  0.4354
    6SAPS   H8X  766   0.648   2.856   9.942  1.0966  2.1153 -2.8286
    6SAPS   H8Y  767   0.634   2.689   9.913  1.1210 -1.6607 -0.2586
    6SAPS   C39  768   0.777   2.765   9.775  0.3915  0.0868  0.0934
    6SAPS   H9X  769   0.833   2.673   9.749  1.7039  1.1217 -0.8264
    6SAPS   H9Y  770   0.849   2.849   9.779  0.2365  0.2125  0.2510
    6SAPS  C310  771   0.671   2.791   9.667 -0.4014  0.3109  0.0123
    6SAPS  H10X  772   0.653   2.901   9.661  1.7652  0.6010 -1.5514
    6SAPS  H10Y  773   0.576   2.740   9.695  0.4085 -0.7426  0.8900
    6SAPS  C311  774   0.721   2.743   9.533 -0.3608  0.1061  0.1792
    6SAPS  H11X  775   0.757   2.637   9.533 -0.7856 -0.0720 -2.3575
    6SAPS  H11Y  776   0.814   2.796   9.503 -0.8472  1.0233  0.2908
    6SAPS  C312  777   0.614   2.755   9.424 -0.1284  0.1697  0.3279
    6SAPS  H12X  778   0.581   2.861   9.416 -2.1644 -0.4504  0.4895
    6SAPS  H12Y  779   0.532   2.693   9.465 -0.5565  0.6320  0.1708
    6SAPS  C313  780   0.649   2.711   9.287 -0.6686 -1.0810 -0.1764
    6SAPS  H13X  781   0.557   2.700   9.225 -0.5631  2.3555 -1.0207
    6SAPS  H13Y  782   0.702   2.613   9.286  2.4217  0.5406 -0.1075
    6SAPS  C314  783   0.733   2.804   9.191  0.2064 -0.3767 -0.3325
    6SAPS  H14X  784   0.828   2.839   9.236 -0.4550  0.9282  0.0796
    6SAPS  H14Y  785   0.664   2.888   9.170  1.9254  0.3344 -3.6214
    6SAPS  C315  786   0.766   2.732   9.055  0.2336  0.5195 -0.8705
    6SAPS  H15X  787   0.667   2.724   9.005 -0.3264  1.5192  0.0339
    6SAPS  H15Y  788   0.802   2.629   9.074  1.4481  0.9650 -0.7425
    6SAPS  C316  789   0.866   2.808   8.962 -0.8659 -0.7109 -0.4249
    6SAPS  H16X  790   0.956   2.850   9.012  0.5131 -2.8414 -1.0705
    6SAPS  H16Y  791   0.811   2.888   8.907  2.1690 -0.4543 -3.2502
    6SAPS  C317  792   0.922   2.699   8.870  0.2599 -0.4692  0.4663
    6SAPS  H17X  793   0.982   2.761   8.800  1.9253  1.5895  3.5760
    6SAPS  H17Y  794   0.839   2.649   8.817 -0.3764  0.0143  0.9997
    6SAPS  C318  795   1.016   2.600   8.937  0.3962  0.1559 -0.3386
    6SAPS  H18X  796   0.971   2.546   9.023 -0.9279  1.2225 -0.3509
    6SAPS  H18Y  797   1.112   2.644   8.972  1.1832 -1.7446 -0.0347
    6SAPS  H18Z  798   1.052   2.528   8.859 -0.4288  0.1120 -0.6837
    7SAPS     N  799   3.299   5.401  10.950  0.7100 -0.2617  0.5102
    7SAPS   HN1  800   3.329   5.332  10.879  0.9758 -0.7182  1.0657
    7SAPS   HN2  801   3.268   5.357  11.039 -0.4555  0.9805  0.7484
    7SAPS   HN3  802   3.228   5.470  10.918  1.5069  0.2364 -0.1878
    7SAPS   C12  803   3.428   5.466  10.994  0.0758 -0.1253  0.1001
    7SAPS  H12A  804   3.417   5.559  11.048  1.4667 -0.3458  0.7819
    7SAPS   C13  805   3.504   5.383  11.087  0.0614  0.2302 -0.3153
    7SAPS  O13A  806   3.452   5.274  11.129 -0.0935  0.2708 -0.2812
    7SAPS  O13B  807   3.598   5.444  11.153  0.0309  0.0839 -0.6607
    7SAPS   C11  808   3.517   5.489  10.866 -0.0943  0.4355 -0.2944
    7SAPS  H11A  809   3.606   5.548  10.897 -0.8407  0.3634  2.0768
    7SAPS  H11B  810   3.459   5.539  10.786 -2.2021 -1.0912  0.2223
    7SAPS     P  811   3.685   5.349  10.720 -0.2896 -0.1636  0.1752
    7SAPS   O13  812   3.794   5.439  10.767  0.3500  0.1312 -0.6421
    7SAPS   O14  813   3.719   5.206  10.716 -0.3145  0.2564 -0.2440
    7SAPS   O12  814   3.552   5.365  10.806 -1.0433  0.1951  0.0778
    7SAPS   O11  815   3.648   5.396  10.575 -0.5940  0.2126 -0.0833
    7SAPS    C1  816   3.514   5.397  10.523  0.4214 -0.3332 -0.3270
    7SAPS    HA  817   3.440   5.411  10.604  1.5570  1.3058  0.4369
    7SAPS    HB  818   3.507   5.484  10.454  0.5724  0.4734  0.6754
    7SAPS    C2  819   3.477   5.261  10.456 -0.2291 -0.5008 -0.4884
    7SAPS    HS  820   3.483   5.181  10.533 -3.3908 -0.3170  0.0293
    7SAPS   O21  821   3.552   5.245  10.332  0.4223  0.4125 -0.2291
    7SAPS   C21  822   3.589   5.123  10.313 -0.1760 -0.1309  0.1282
    7SAPS   O22  823   3.564   5.030  10.388  0.1960  0.7772 -0.5155
    7SAPS   C22  824   3.683   5.114  10.188  0.1955  0.3955  0.6683
    7SAPS   H2R  825   3.713   5.218  10.159  2.6865  0.2379  2.5869
    7SAPS   H2S  826   3.778   5.065  10.217  1.1738  2.2998  0.7672
    7SAPS    C3  827   3.327   5.257  10.431 -0.8708  0.4892  0.1391
    7SAPS    HX  828   3.313   5.344  10.364 -0.3115  1.8781  1.7893
    7SAPS    HY  829   3.272   5.267  10.526  0.3468 -1.0764  1.0506
    7SAPS   O31  830   3.295   5.149  10.348 -0.1946 -0.2585 -0.4772
    7SAPS   C31  831   3.203   5.075  10.397 -0.2103  0.0082  0.8142
    7SAPS   O32  832   3.143   5.094  10.502 -0.4173 -0.6339  0.3463
    7SAPS   C32  833   3.162   4.966  10.295 -0.5635 -0.1186 -0.4882
    7SAPS   H2X  834   3.085   4.898  10.337 -1.0691  1.3006  0.9461
    7SAPS   H2Y  835   3.256   4.912  10.270 -2.0510 -2.4062 -1.2807
    7SAPS   C23  836   3.610   5.029  10.081  0.3718 -0.1985 -0.6781
    7SAPS   H3R  837   3.605   4.927  10.125  0.0141  0.2540  0.3550
    7SAPS   H3S  838   3.674   5.034   9.990  1.2734  2.3725  0.0690
    7SAPS   C24  839   3.470   5.085  10.042 -0.4336  0.0525 -1.0504
    7SAPS   H4R  840   3.389   5.074  10.117  0.2189  1.2689 -0.1585
    7SAPS   H4S  841   3.430   5.015   9.965  1.7808  0.3986 -2.5559
    7SAPS   C25  842   3.467   5.230  10.002 -0.1152 -0.0928 -0.5249
    7SAPS   H5R  843   3.473   5.307  10.081 -0.8133 -0.3500 -0.2150
    7SAPS   C26  844   3.468   5.269   9.877 -0.4054  0.6090  0.0187
    7SAPS   H6R  845   3.474   5.375   9.848 -1.6003  1.0882  1.4790
    7SAPS   C27  846   3.472   5.167   9.760 -0.2769  0.0493 -0.2658
    7SAPS   H7R  847   3.373   5.172   9.709 -0.7577 -1.2204  0.5244
    7SAPS   H7S  848   3.473   5.059   9.788 -3.1108  0.1352  0.3636
    7SAPS   C28  849   3.585   5.200   9.669  0.3096  0.1127  0.4944
    7SAPS   H8R  850   3.664   5.270   9.698  0.1965  0.8778 -1.0098
    7SAPS   C29  851   3.582   5.173   9.538 -0.1159  0.4106 -0.1397
    7SAPS   H9R  852   3.677   5.192   9.486 -0.5526 -0.7021 -1.3499
    7SAPS  C210  853   3.471   5.113   9.457 -0.4855 -0.6286  0.3833
    7SAPS  H10R  854   3.461   5.174   9.364 -0.2801 -0.0803  0.7228
    7SAPS  H10S  855   3.377   5.129   9.513 -0.7356 -1.1710  0.1323
    7SAPS  C211  856   3.490   4.965   9.436 -0.0265 -0.0205  0.9041
    7SAPS  H11R  857   3.527   4.900   9.516  0.8400 -1.9879 -1.0297
    7SAPS  C212  858   3.462   4.914   9.314  0.3459 -0.3978  0.9407
    7SAPS  H12R  859   3.482   4.807   9.299 -0.0148 -0.2459 -0.7713
    7SAPS  C213  860   3.415   4.980   9.185 -0.9361 -0.3295 -0.1074
    7SAPS  H13R  861   3.501   5.040   9.148 -2.1072  0.6332 -1.2979
    7SAPS  H13S  862   3.328   5.045   9.210 -0.8073  0.1149 -0.8101
    7SAPS  C214  863   3.374   4.884   9.072 -0.1341 -0.1321  0.0765
    7SAPS  H14R  864   3.310   4.801   9.106 -0.8608  0.4043  0.0311
    7SAPS  C215  865   3.396   4.896   8.943  0.1181 -0.2483  0.2746
    7SAPS  H15R  866   3.368   4.805   8.888 -1.6679  1.0761 -1.0819
    7SAPS  C216  867   3.470   5.010   8.884 -0.7922  0.4643  0.1575
    7SAPS  H16R  868   3.566   4.974   8.841 -1.1673 -0.3665  0.0238
    7SAPS  H16S  869   3.487   5.097   8.952  1.6172 -0.4851  0.8181
    7SAPS  C217  870   3.380   5.056   8.768 -0.0262 -0.0261  0.6156
    7SAPS  H17R  871   3.339   4.970   8.710 -4.4198  0.2978  3.0038
    7SAPS  H17S  872   3.439   5.124   8.703  0.4951 -1.0635 -0.0166
    7SAPS  C218  873   3.257   5.124   8.817 -0.0208  0.0309 -0.4666
    7SAPS  H18R  874   3.279   5.196   8.899 -0.2856 -2.7108  2.0704
    7SAPS  H18S  875   3.181   5.056   8.861  1.4452 -1.1863  0.2002
    7SAPS  C219  876   3.186   5.199   8.708 -0.4496  0.0716 -0.2874
    7SAPS  H19R  877   3.176   5.147   8.611  0.5031 -0.1786 -0.2619
    7SAPS  H19S  878   3.257   5.281   8.683  0.3289 -0.1862  1.0013
    7SAPS  C220  879   3.049   5.258   8.750 -0.4018 -0.4157 -0.0181
    7SAPS  H20R  880   3.051   5.339   8.826  1.3974  1.0315 -1.5581
    7SAPS  H20S  881   2.966   5.185   8.757 -0.4884 -0.3952 -0.7617
    7SAPS  H20T  882   3.023   5.305   8.653 -1.9386 -2.6025 -0.7036
    7SAPS   C33  883   3.095   5.029  10.167 -0.1417  0.1386  0.7179
    7SAPS   H3X  884   3.159   5.119  10.155 -0.9365  0.6498  0.2889
    7SAPS   H3Y  885   2.995   5.071  10.193 -0.0976 -0.5413  2.0447
    7SAPS   C34  886   3.084   4.942  10.039 -0.4213  0.0025  0.4930
    7SAPS   H4X  887   3.014   4.857  10.055 -0.8959  0.3121  0.0804
    7SAPS   H4Y  888   3.178   4.885  10.024  0.2453  1.2230 -0.0320
    7SAPS   C35  889   3.058   5.023   9.915 -0.4969  0.0891  0.2868
    7SAPS   H5X  890   3.151   5.081   9.897 -0.1604 -0.0103  1.6042
    7SAPS   H5Y  891   2.980   5.097   9.942 -0.6635 -0.0510  0.1910
    7SAPS   C36  892   3.049   4.922   9.793  0.2947  0.3721 -0.3447
    7SAPS   H6X  893   2.961   4.858   9.813  1.6813 -0.5360  3.2965
    7SAPS   H6Y  894   3.145   4.866   9.791 -0.6776 -1.2885 -0.6519
    7SAPS   C37  895   3.042   5.003   9.660 -0.4281  0.3120 -0.5483
    7SAPS   H7X  896   3.127   5.073   9.652 -1.4729  1.6918  0.2175
    7SAPS   H7Y  897   2.948   5.061   9.673  0.6625  2.4161 -1.9482
    7SAPS   C38  898   3.026   4.910   9.543  0.6211  0.4969 -0.0280
    7SAPS   H8X  899   2.940   4.845   9.570  0.5982  0.2381 -0.7250
    7SAPS   H8Y  900   3.105   4.831   9.537 -0.0243 -0.0340 -1.7125
    7SAPS   C39  901   3.009   4.974   9.404 -0.2861 -0.9375  0.4045
    7SAPS   H9X  902   3.093   5.043   9.384  0.3310 -1.7404  0.1712
    7SAPS   H9Y  903   2.912   5.028   9.409  1.1513  1.6251  1.5481
    7SAPS  C310  904   3.010   4.867   9.281 -0.3258 -0.3168 -0.0475
    7SAPS  H10X  905   2.985   4.764   9.314 -0.8714 -0.5163 -1.0833
    7SAPS  H10Y  906   3.116   4.869   9.247 -0.2650 -0.3099  0.1413
    7SAPS  C311  907   2.914   4.915   9.166 -0.3711  0.1814 -0.2318
    7SAPS  H11X  908   2.935   5.021   9.142 -0.3426  0.1783 -0.2217
    7SAPS  H11Y  909   2.810   4.905   9.205 -0.1194 -0.4128  0.3018
    7SAPS  C312  910   2.925   4.831   9.037  0.0348  0.7507  0.4190
    7SAPS  H12X  911   2.908   4.722   9.049 -2.1390  1.0444  0.3267
    7SAPS  H12Y  912   3.027   4.835   8.994  0.0582  0.0707  0.4136
    7SAPS  C313  913   2.822   4.873   8.928  0.5447 -0.0860  0.2534
    7SAPS  H13X  914   2.847   4.980   8.916  1.4265 -0.2937  0.2424
    7SAPS  H13Y  915   2.719   4.851   8.965 -0.3023  0.1544 -1.8710
    7SAPS  C314  916   2.849   4.796   8.793 -0.3746  0.3532 -0.4079
    7SAPS  H14X  917   2.954   4.760   8.787 -0.5050  0.0697 -1.0213
    7SAPS  H14Y  918   2.824   4.865   8.709 -0.4638  0.2843 -0.4381
    7SAPS  C315  919   2.754   4.675   8.776 -0.2013 -0.4265  0.0504
    7SAPS  H15X  920   2.646   4.699   8.782 -0.7957 -3.0466  0.4658
    7SAPS  H15Y  921   2.774   4.606   8.861  0.1672  0.6070  0.8013
    7SAPS  C316  922   2.778   4.605   8.638  0.7140  0.3982  0.6183
    7SAPS  H16X  923   2.766   4.495   8.648  0.7838 -0.0188 -2.9542
    7SAPS  H16Y  924   2.881   4.615   8.595  0.5119  0.8255  0.2278
    7SAPS  C317  925   2.676   4.653   8.530 -0.4192 -0.0912 -0.1794
    7SAPS  H17X  926   2.671   4.764   8.525  1.0420  0.0169  0.5424
    7SAPS  H17Y  927   2.576   4.635   8.575 -1.3011 -0.3307 -2.1688
    7SAPS  C318  928   2.692   4.579   8.394 -0.3543  0.0147  0.1944
    7SAPS  H18X  929   2.649   4.635   8.309  1.7610 -0.2578 -1.0913
    7SAPS  H18Y  930   2.643   4.480   8.389  4.8408 -2.7485  0.4188
    7SAPS  H18Z  931   2.802   4.565   8.382 -0.7739 -2.0177 -1.4911
    8SAPS     N  932   1.436   6.194  10.985  0.0836  0.5091  0.3818
    8SAPS   HN1  933   1.490   6.269  10.938 -0.0103  0.6155  0.4429
    8SAPS   HN2  934   1.492   6.107  10.992  2.7441  2.0936 -0.4466
    8SAPS   HN3  935   1.351   6.179  10.926 -1.6138  0.5771  2.7189
    8SAPS   C12  936   1.385   6.243  11.116 -0.4810  0.1993  0.1822
    8SAPS  H12A  937   1.298   6.298  11.084 -1.2153 -0.8183  0.4017
    8SAPS   C13  938   1.339   6.145  11.223 -0.8521  0.9171 -0.2568
    8SAPS  O13A  939   1.347   6.020  11.211  0.2498 -0.2443  0.5157
    8SAPS  O13B  940   1.292   6.185  11.335 -0.1789 -0.1593  0.3721
    8SAPS   C11  941   1.497   6.340  11.176  0.8539 -0.0932  0.7200
    8SAPS  H11A  942   1.575   6.277  11.224  0.9522 -0.2322  0.3789
    8SAPS  H11B  943   1.454   6.400  11.259 -0.4723  0.3476 -0.2700
    8SAPS     P  944   1.704   6.437  11.058  0.2464 -0.3973 -0.3598
    8SAPS   O13  945   1.741   6.543  10.961 -0.1865  0.2150  0.6131
    8SAPS   O14  946   1.772   6.434  11.186 -0.5371  0.2985 -0.1030
    8SAPS   O12  947   1.551   6.437  11.082  0.2365  0.3225 -0.4470
    8SAPS   O11  948   1.718   6.293  10.987 -0.1050 -0.3105  0.7494
    8SAPS    C1  949   1.839   6.218  10.988 -0.1331 -0.1062 -0.0072
    8SAPS    HA  950   1.926   6.281  11.014  1.5256 -1.5660 -1.8070
    8SAPS    HB  951   1.841   6.140  11.067  1.5022  0.0421  0.1227
    8SAPS    C2  952   1.874   6.140  10.859  0.1672  0.7151  0.0536
    8SAPS    HS  953   1.904   6.227  10.796  0.8073  0.3047 -0.2117
    8SAPS   O21  954   1.763   6.061  10.812 -0.5740 -0.4628 -0.6328
    8SAPS   C21  955   1.723   6.091  10.689  0.4204 -0.0436  0.5570
    8SAPS   O22  956   1.782   6.165  10.612  0.5084 -0.9309 -0.2752
    8SAPS   C22  957   1.597   6.015  10.643  0.6375  0.3791 -0.2084
    8SAPS   H2R  958   1.613   5.913  10.685 -0.3576  0.7122  0.9992
    8SAPS   H2S  959   1.513   6.051  10.705 -0.7158 -0.5704 -1.4738
    8SAPS    C3  960   1.996   6.051  10.882 -0.0572 -0.1068  0.0254
    8SAPS    HX  961   1.979   5.959  10.942 -1.3608 -0.0525 -0.2564
    8SAPS    HY  962   2.054   6.110  10.957 -1.2417  0.5228  0.4639
    8SAPS   O31  963   2.072   6.033  10.762  0.2455  0.0426 -0.5199
    8SAPS   C31  964   2.040   5.916  10.703  0.3167 -0.3280 -0.3299
    8SAPS   O32  965   1.964   5.833  10.757 -0.5929 -0.3696  0.0772
    8SAPS   C32  966   2.133   5.886  10.585  0.5490 -0.0816 -0.4668
    8SAPS   H2X  967   2.214   5.823  10.630  0.3973  0.2567  0.2977
    8SAPS   H2Y  968   2.177   5.981  10.547  2.0584 -0.9586 -0.9700
    8SAPS   C23  969   1.556   6.010  10.497 -0.2712  0.2161  0.3385
    8SAPS   H3R  970   1.536   6.108  10.450  1.3605  0.2957 -0.2204
    8SAPS   H3S  971   1.452   5.972  10.492 -1.2483  2.6483  1.2490
    8SAPS   C24  972   1.654   5.931  10.409  0.3836  0.2981  0.4971
    8SAPS   H4R  973   1.756   5.971  10.429  0.3103  1.6876 -1.8272
    8SAPS   H4S  974   1.627   5.935  10.302  0.0451  0.1495  0.5745
    8SAPS   C25  975   1.649   5.790  10.444 -0.5429  0.0970 -0.5016
    8SAPS   H5R  976   1.712   5.764  10.530 -2.5598  0.3917  1.1069
    8SAPS   C26  977   1.576   5.693  10.389 -0.4300 -0.2113  0.4683
    8SAPS   H6R  978   1.590   5.589  10.422  0.2559 -0.9094 -1.9656
    8SAPS   C27  979   1.476   5.695  10.278  0.6296 -0.6290 -0.6242
    8SAPS   H7R  980   1.531   5.692  10.181  1.5888 -2.3214 -0.0531
    8SAPS   H7S  981   1.414   5.788  10.279  2.5326  0.6623  1.5337
    8SAPS   C28  982   1.382   5.574  10.268 -0.0058  0.4492  0.3773
    8SAPS   H8R  983   1.275   5.587  10.290  0.0709  0.7662  0.5706
    8SAPS   C29  984   1.424   5.454  10.232  0.1259  0.4071 -0.7167
    8SAPS   H9R  985   1.352   5.372  10.247 -1.0170  1.4720 -0.2771
    8SAPS  C210  986   1.557   5.406  10.197  0.1125 -0.2307 -0.1282
    8SAPS  H10R  987   1.600   5.348  10.282 -1.1459 -1.0327 -0.0293
    8SAPS  H10S  988   1.630   5.490  10.195  0.6205 -0.6822 -3.8855
    8SAPS  C211  989   1.564   5.334  10.064  0.0473  0.6538 -0.1542
    8SAPS  H11R  990   1.542   5.226  10.071  0.2297  0.4349 -2.4733
    8SAPS  C212  991   1.598   5.373   9.937 -0.6282 -0.2837  0.4695
    8SAPS  H12R  992   1.596   5.300   9.854 -2.1526 -1.7796  1.7935
    8SAPS  C213  993   1.638   5.506   9.892  0.3410 -0.0086  0.6330
    8SAPS  H13R  994   1.745   5.502   9.864  0.3868 -2.3299  0.9963
    8SAPS  H13S  995   1.633   5.571   9.982  0.0397  0.6698  0.1226
    8SAPS  C214  996   1.547   5.557   9.783  0.3541 -0.4698  0.0589
    8SAPS  H14R  997   1.446   5.584   9.818  0.0340 -0.3962 -0.9017
    8SAPS  C215  998   1.563   5.568   9.652  0.5677  1.0305  0.3441
    8SAPS  H15R  999   1.483   5.608   9.588  1.2441  0.7668 -0.6730
    8SAPS  C216 1000   1.689   5.525   9.581 -0.3474  0.0616  0.3859
    8SAPS  H16R 1001   1.776   5.503   9.647 -0.8964 -2.1094  0.4354
    8SAPS  H16S 1002   1.730   5.612   9.525 -3.5231 -0.8243 -3.5362
    8SAPS  C217 1003   1.666   5.403   9.493  0.1380 -0.1436  0.2522
    8SAPS  H17R 1004   1.632   5.316   9.552 -2.4666  0.8048  0.1992
    8SAPS  H17S 1005   1.765   5.372   9.452  0.0377 -1.7078  1.1698
    8SAPS  C218 1006   1.586   5.422   9.364  0.0352  0.3225  0.1675
    8SAPS  H18R 1007   1.629   5.492   9.289 -1.3738  0.4818 -0.5224
    8SAPS  H18S 1008   1.487   5.470   9.383  0.7360  0.8694  2.7293
    8SAPS  C219 1009   1.567   5.293   9.281  0.1708  0.6782 -0.0053
    8SAPS  H19R 1010   1.511   5.216   9.338  1.0653 -0.7509 -1.0078
    8SAPS  H19S 1011   1.666   5.245   9.263 -1.1244 -1.6439 -1.0775
    8SAPS  C220 1012   1.491   5.319   9.150 -0.0696  0.1137 -0.3666
    8SAPS  H20R 1013   1.404   5.381   9.180  0.3701 -0.1429  1.4753
    8SAPS  H20S 1014   1.464   5.226   9.095  0.6085  0.4210 -1.2322
    8SAPS  H20T 1015   1.550   5.377   9.076  0.7442 -1.0452 -0.6374
    8SAPS   C33 1016   2.067   5.818  10.467 -0.0527  0.6951  0.0230
    8SAPS   H3X 1017   1.976   5.764  10.501  1.2892 -1.9611 -0.5070
    8SAPS   H3Y 1018   2.131   5.745  10.414 -1.6797 -1.1725  0.5563
    8SAPS   C34 1019   2.026   5.923  10.360 -0.4486  0.0793  0.3172
    8SAPS   H4X 1020   1.973   6.012  10.402 -0.9250  0.9690 -2.0900
    8SAPS   H4Y 1021   1.964   5.892  10.273  2.0354  0.7038 -1.7228
    8SAPS   C35 1022   2.149   5.977  10.284  0.3436 -0.1901 -0.6982
    8SAPS   H5X 1023   2.202   5.888  10.244 -0.4111 -1.3930  0.8964
    8SAPS   H5Y 1024   2.232   6.021  10.344  0.2522 -1.0821  0.0958
    8SAPS   C36 1025   2.115   6.082  10.177 -0.3409 -0.1631 -0.0334
    8SAPS   H6X 1026   2.109   6.177  10.234 -0.9182  0.0845 -0.5042
    8SAPS   H6Y 1027   2.015   6.058  10.137 -0.5917  1.6665 -0.5451
    8SAPS   C37 1028   2.215   6.090  10.063 -0.1684  0.4813 -0.3300
    8SAPS   H7X 1029   2.197   5.998  10.003 -0.4661 -0.2637  0.8711
    8SAPS   H7Y 1030   2.321   6.091  10.097 -0.8919  0.9533  2.0501
    8SAPS   C38 1031   2.180   6.207   9.965 -0.0724  0.3464 -0.8727
    8SAPS   H8X 1032   2.078   6.193   9.924 -0.5500 -0.4501  0.5453
    8SAPS   H8Y 1033   2.249   6.205   9.877 -0.4986 -2.0103 -1.1923
    8SAPS   C39 1034   2.199   6.349  10.031  0.6216  0.4315 -0.9388
    8SAPS   H9X 1035   2.298   6.351  10.081  0.3308  2.8872 -0.4255
    8SAPS   H9Y 1036   2.127   6.370  10.112  0.4192  1.4455 -1.3780
    8SAPS  C310 1037   2.191   6.460   9.927  0.6038  0.4298  0.3067
    8SAPS  H10X 1038   2.273   6.450   9.853  0.3848 -2.3283  0.3936
    8SAPS  H10Y 1039   2.222   6.552   9.980 -1.9947  1.0402  0.8032
    8SAPS  C311 1040   2.051   6.486   9.870 -0.1957 -0.0715  0.0631
    8SAPS  H11X 1041   1.999   6.392   9.843 -0.8949  0.3522 -0.0594
    8SAPS  H11Y 1042   2.053   6.550   9.779 -0.2960 -0.2942 -0.0966
    8SAPS  C312 1043   1.971   6.569   9.967  1.1111 -0.1079  0.8051
    8SAPS  H12X 1044   2.020   6.668   9.959  1.2159 -0.2446 -0.3452
    8SAPS  H12Y 1045   1.978   6.524  10.069  1.2231 -0.5449  0.6032
    8SAPS  C313 1046   1.820   6.584   9.934  0.1252  0.5895  0.2648
    8SAPS  H13X 1047   1.783   6.632  10.027 -0.9534  0.3024 -0.0159
    8SAPS  H13Y 1048   1.760   6.492   9.920  0.4165  0.3190  0.7693
    8SAPS  C314 1049   1.804   6.670   9.809 -0.1787 -0.3818 -0.1635
    8SAPS  H14X 1050   1.847   6.619   9.720 -1.0516 -1.6622  0.1342
    8SAPS  H14Y 1051   1.874   6.755   9.825 -1.6146  0.9170 -0.6702
    8SAPS  C315 1052   1.663   6.725   9.785 -0.0389  0.1931  0.7086
    8SAPS  H15X 1053   1.667   6.820   9.727  1.0354 -1.1382 -1.4483
    8SAPS  H15Y 1054   1.622   6.750   9.885  0.3432 -2.0811  1.4563
    8SAPS  C316 1055   1.562   6.642   9.710 -0.4031 -0.4082  0.6560
    8SAPS  H16X 1056   1.471   6.705   9.702  0.1051  0.1746 -0.8665
    8SAPS  H16Y 1057   1.560   6.547   9.766 -2.5852 -0.6433  0.2169
    8SAPS  C317 1058   1.615   6.599   9.569  0.0081 -1.0926 -0.4562
    8SAPS  H17X 1059   1.544   6.526   9.522 -1.5664  0.3168 -0.3210
    8SAPS  H17Y 1060   1.712   6.550   9.589 -0.1720 -1.5055 -0.5861
    8SAPS  C318 1061   1.629   6.714   9.471 -0.2224  0.0523  0.1880
    8SAPS  H18X 1062   1.528   6.749   9.441 -0.2359  1.9317  2.2341
    8SAPS  H18Y 1063   1.685   6.665   9.389 -1.5330 -0.4774 -0.3923
    8SAPS  H18Z 1064   1.694   6.790   9.520  1.9378 -1.4952 -0.1893
    9SAPS     N 1065   3.837   2.782   6.069 -0.1726 -0.3509  0.2268
    9SAPS   HN1 1066   3.784   2.761   5.982  0.0563 -0.7192  0.1749
    9SAPS   HN2 1067   3.858   2.695   6.122  2.6915  0.8842  1.2279
    9SAPS   HN3 1068   3.783   2.847   6.131  0.8880 -1.0672  1.9435
    9SAPS   C12 1069   3.967   2.842   6.034  0.4061  0.2449  0.3634
    9SAPS  H12A 1070   4.026   2.768   5.981  0.9757 -0.2229  1.6213
    9SAPS   C13 1071   3.957   2.959   5.932 -0.4383  0.7241 -0.3278
    9SAPS  O13A 1072   3.847   3.007   5.909 -0.8520  0.2064 -0.4987
    9SAPS  O13B 1073   4.061   2.992   5.873 -0.4398  0.1555  0.6253
    9SAPS   C11 1074   4.049   2.885   6.156  0.3791 -0.3471  0.3223
    9SAPS  H11A 1075   3.991   2.960   6.213  1.3405  3.1228 -3.0571
    9SAPS  H11B 1076   4.145   2.926   6.117 -0.9774 -1.4123 -4.4706
    9SAPS     P 1077   4.047   2.734   6.385 -0.0053 -0.0674 -0.1212
    9SAPS   O13 1078   3.896   2.733   6.396 -0.1640 -0.2959  0.4804
    9SAPS   O14 1079   4.129   2.615   6.418  0.4344  0.1025  0.7292
    9SAPS   O12 1080   4.077   2.767   6.235 -0.1102 -0.5554 -0.1512
    9SAPS   O11 1081   4.097   2.857   6.462 -0.4402  0.5058  0.0591
    9SAPS    C1 1082   4.029   2.977   6.483  0.3077  0.0930 -0.2165
    9SAPS    HA 1083   4.086   3.061   6.437  3.1274 -0.9378  1.2439
    9SAPS    HB 1084   3.930   2.979   6.434  1.0324  0.1135 -1.7160
    9SAPS    C2 1085   3.992   3.012   6.630  0.1181  0.1484 -0.3147
    9SAPS    HS 1086   4.004   3.120   6.655  2.1045  0.2396 -1.5260
    9SAPS   O21 1087   4.074   2.933   6.720  0.1166 -0.0134  0.3142
    9SAPS   C21 1088   4.199   2.959   6.717 -0.2034 -0.5118 -0.0431
    9SAPS   O22 1089   4.256   3.054   6.663 -0.6149 -0.0191  0.6091
    9SAPS   C22 1090   4.276   2.862   6.807  0.0932 -0.2772 -0.2361
    9SAPS   H2R 1091   4.228   2.766   6.778 -1.4648  0.5874 -0.6047
    9SAPS   H2S 1092   4.381   2.864   6.770 -0.1428  1.7107 -0.8203
    9SAPS    C3 1093   3.843   2.975   6.664  0.2490 -0.0624 -0.0025
    9SAPS    HX 1094   3.833   2.870   6.628 -0.9357  0.0281  0.0526
    9SAPS    HY 1095   3.777   3.039   6.603  0.4833 -0.9716 -1.2305
    9SAPS   O31 1096   3.813   2.968   6.806 -0.6429  0.0174  0.3836
    9SAPS   C31 1097   3.799   3.089   6.864  0.3754 -0.3671  0.5787
    9SAPS   O32 1098   3.822   3.198   6.813  0.1315  0.0423 -0.1427
    9SAPS   C32 1099   3.735   3.073   7.000 -0.1399 -0.3762  0.3141
    9SAPS   H2X 1100   3.671   2.983   7.013 -1.1798 -0.6349 -5.1609
    9SAPS   H2Y 1101   3.662   3.156   7.006  0.3791  0.1687 -0.7142
    9SAPS   C23 1102   4.261   2.886   6.955 -0.4968 -1.1300 -0.3164
    9SAPS   H3R 1103   4.155   2.906   6.981  0.0135  0.2421  0.7733
    9SAPS   H3S 1104   4.328   2.971   6.980 -1.0003 -1.2964  1.7352
    9SAPS   C24 1105   4.297   2.757   7.035  0.7030 -0.6481 -0.5918
    9SAPS   H4R 1106   4.221   2.684   7.000  0.0656  0.1355 -0.8615
    9SAPS   H4S 1107   4.276   2.780   7.141  4.5410  1.2743 -0.1732
    9SAPS   C25 1108   4.436   2.710   7.024 -0.2042 -0.1955 -0.1501
    9SAPS   H5R 1109   4.461   2.684   6.919 -2.4895  0.2258 -0.8239
    9SAPS   C26 1110   4.514   2.668   7.127  0.1900 -0.1048  0.3283
    9SAPS   H6R 1111   4.616   2.655   7.090  0.2411 -0.9909  0.7737
    9SAPS   C27 1112   4.491   2.656   7.275 -0.1174 -0.3172 -0.0631
    9SAPS   H7R 1113   4.577   2.593   7.306  0.3738 -0.3366 -1.4569
    9SAPS   H7S 1114   4.391   2.620   7.305  0.0559  0.1618  1.1265
    9SAPS   C28 1115   4.505   2.797   7.334  0.2054  0.0830  0.0979
    9SAPS   H8R 1116   4.520   2.882   7.266 -1.9672  0.8815  0.5930
    9SAPS   C29 1117   4.505   2.834   7.466  1.0552  0.3451  0.0596
    9SAPS   H9R 1118   4.529   2.939   7.485  1.7153  0.4278 -1.1775
    9SAPS  C210 1119   4.489   2.740   7.583 -0.0934  0.1146  0.2290
    9SAPS  H10R 1120   4.583   2.749   7.642 -0.3771 -3.6176  1.3843
    9SAPS  H10S 1121   4.472   2.635   7.551 -1.5968  1.0292 -2.0817
    9SAPS  C211 1122   4.378   2.785   7.669  0.8613  0.5589  0.2971
    9SAPS  H11R 1123   4.297   2.837   7.616  1.0227  1.6161  1.0787
    9SAPS  C212 1124   4.353   2.762   7.805  0.1411  0.2072 -0.0686
    9SAPS  H12R 1125   4.260   2.803   7.846 -0.9428  0.2387 -2.4285
    9SAPS  C213 1126   4.444   2.686   7.889  0.7957  0.2915  0.2913
    9SAPS  H13R 1127   4.517   2.628   7.828 -0.3954  0.0082 -0.8886
    9SAPS  H13S 1128   4.382   2.609   7.940  1.3067 -1.3751 -1.5225
    9SAPS  C214 1129   4.528   2.772   7.983 -0.0588  0.5003  0.4482
    9SAPS  H14R 1130   4.584   2.849   7.928  1.3290 -1.2931 -0.6854
    9SAPS  C215 1131   4.531   2.764   8.119  0.2807 -0.5177  0.2211
    9SAPS  H15R 1132   4.599   2.830   8.175  2.0379 -2.4038  0.3420
    9SAPS  C216 1133   4.456   2.673   8.217 -0.2668  0.1162 -0.5456
    9SAPS  H16R 1134   4.517   2.587   8.251  0.6291  1.3424  1.0299
    9SAPS  H16S 1135   4.375   2.623   8.160 -1.2219  0.5286  0.4285
    9SAPS  C217 1136   4.408   2.756   8.334  0.5148  0.7455  0.7638
    9SAPS  H17R 1137   4.323   2.694   8.370  1.5422 -1.8568 -1.1769
    9SAPS  H17S 1138   4.360   2.851   8.301  0.4113  0.2881 -0.4021
    9SAPS  C218 1139   4.510   2.785   8.450 -0.0442 -0.5919  0.2226
    9SAPS  H18R 1140   4.460   2.832   8.537  3.0218  1.0975  1.1803
    9SAPS  H18S 1141   4.580   2.866   8.419  0.1435 -1.1496 -0.8410
    9SAPS  C219 1142   4.586   2.659   8.505 -0.3325  0.0870 -0.2292
    9SAPS  H19R 1143   4.684   2.692   8.545  0.5584 -1.1370 -1.3998
    9SAPS  H19S 1144   4.621   2.594   8.422  1.5629  0.6155  0.1309
    9SAPS  C220 1145   4.518   2.587   8.619 -0.3232 -0.0777 -0.1690
    9SAPS  H20R 1146   4.584   2.513   8.670 -2.0320 -3.1298 -2.1859
    9SAPS  H20S 1147   4.417   2.544   8.605 -1.4076  3.0258 -2.5112
    9SAPS  H20T 1148   4.499   2.666   8.695 -0.6074  1.0745 -1.4218
    9SAPS   C33 1149   3.832   3.095   7.114  0.4899  0.5433  0.0169
    9SAPS   H3X 1150   3.892   3.185   7.091  1.5501 -0.7147 -2.2500
    9SAPS   H3Y 1151   3.915   3.021   7.115  1.1311  1.2578  0.7767
    9SAPS   C34 1152   3.775   3.125   7.254  0.4501 -0.0072 -0.1026
    9SAPS   H4X 1153   3.704   3.041   7.268  2.4794 -1.9774 -1.2716
    9SAPS   H4Y 1154   3.731   3.227   7.253 -0.4965 -0.4114 -0.0775
    9SAPS   C35 1155   3.891   3.132   7.368 -0.6215  0.5163 -0.6541
    9SAPS   H5X 1156   3.984   3.179   7.329 -0.3128 -0.4427 -1.0984
    9SAPS   H5Y 1157   3.913   3.027   7.397 -1.7636 -0.4125 -2.9855
    9SAPS   C36 1158   3.850   3.230   7.489 -0.1264  0.3621 -0.1593
    9SAPS   H6X 1159   3.815   3.327   7.447  0.1555  0.6888  0.3581
    9SAPS   H6Y 1160   3.948   3.256   7.533  0.8864 -0.9033 -1.6144
    9SAPS   C37 1161   3.731   3.181   7.585 -0.1152  0.0405 -0.1982
    9SAPS   H7X 1162   3.746   3.091   7.648  0.8966  0.8832  0.7803
    9SAPS   H7Y 1163   3.649   3.163   7.512 -0.7265  0.9406  0.2601
    9SAPS   C38 1164   3.689   3.306   7.670  0.5398 -0.0510 -0.1175
    9SAPS   H8X 1165   3.626   3.375   7.611  0.2066 -0.0763  0.2082
    9SAPS   H8Y 1166   3.777   3.372   7.689  1.6351 -1.3522 -0.5415
    9SAPS   C39 1167   3.619   3.265   7.800  0.3868  0.2254  0.0403
    9SAPS   H9X 1168   3.703   3.221   7.857  1.4683  2.2355  0.0400
    9SAPS   H9Y 1169   3.541   3.189   7.782  0.0479 -0.2383  3.1937
    9SAPS  C310 1170   3.569   3.387   7.873 -0.8465 -0.6707  0.6645
    9SAPS  H10X 1171   3.504   3.453   7.812 -0.6830 -0.5806  0.5896
    9SAPS  H10Y 1172   3.655   3.454   7.893 -1.6397  0.5441  0.0432
    9SAPS  C311 1173   3.521   3.340   8.006  0.2629 -0.5966 -0.3444
    9SAPS  H11X 1174   3.606   3.304   8.069  0.9196 -0.1182 -0.9507
    9SAPS  H11Y 1175   3.454   3.254   7.987 -1.3632  0.7320 -0.7587
    9SAPS  C312 1176   3.431   3.445   8.072  0.2104  0.7358  0.7070
    9SAPS  H12X 1177   3.333   3.457   8.021  0.3856 -1.7042 -0.2458
    9SAPS  H12Y 1178   3.489   3.540   8.068 -0.3871  1.1098  0.8434
    9SAPS  C313 1179   3.418   3.424   8.222  0.0654  0.8219  0.0290
    9SAPS  H13X 1180   3.407   3.314   8.233 -1.0646  1.1992  3.2951
    9SAPS  H13Y 1181   3.327   3.477   8.257 -0.1327 -0.1658  1.0363
    9SAPS  C314 1182   3.532   3.479   8.307 -0.0482  0.0773  0.3550
    9SAPS  H14X 1183   3.541   3.589   8.296  2.2328  0.0224  1.3052
    9SAPS  H14Y 1184   3.629   3.436   8.274  0.1925  2.6509 -2.5304
    9SAPS  C315 1185   3.515   3.450   8.462 -0.2307 -0.3323  1.0006
    9SAPS  H15X 1186   3.521   3.339   8.465  1.5852 -0.2700  0.2633
    9SAPS  H15Y 1187   3.412   3.475   8.495 -1.6893 -1.5982 -2.3073
    9SAPS  C316 1188   3.619   3.521   8.548  0.2048  1.0173 -0.7996
    9SAPS  H16X 1189   3.620   3.631   8.530  3.2532  1.1839  0.0742
    9SAPS  H16Y 1190   3.715   3.479   8.511 -1.2651 -2.6000 -0.7294
    9SAPS  C317 1191   3.613   3.486   8.694 -0.1903 -0.1133 -0.1038
    9SAPS  H17X 1192   3.635   3.379   8.714  0.4122  0.1890  0.8800
    9SAPS  H17Y 1193   3.513   3.501   8.740 -0.7209 -3.4497 -0.0489
    9SAPS  C318 1194   3.703   3.581   8.767  0.2667 -0.2878 -0.0944
    9SAPS  H18X 1195   3.695   3.584   8.877 -1.4445 -1.8785 -0.1469
    9SAPS  H18Y 1196   3.699   3.686   8.731  1.8469 -0.0389  0.4215
    9SAPS  H18Z 1197   3.809   3.558   8.740  0.7636  0.8729  0.8457
   10SAPS     N 1198   3.706   2.155   6.050 -0.2264 -0.0526  0.4264
   10SAPS   HN1 1199   3.654   2.091   6.112 -1.7529  1.0416  0.3097
   10SAPS   HN2 1200   3.627   2.184   5.989  0.1509 -1.0860 -0.5732
   10SAPS   HN3 1201   3.781   2.104   6.000 -0.5308 -0.3927  0.3213
   10SAPS   C12 1202   3.746   2.277   6.121  0.2776  0.0009 -0.2226
   10SAPS  H12A 1203   3.832   2.258   6.185  1.2319  0.0182 -1.4761
   10SAPS   C13 1204   3.792   2.407   6.040 -0.1364 -0.1459  0.1643
   10SAPS  O13A 1205   3.835   2.388   5.925 -0.2825  0.0229 -0.0189
   10SAPS  O13B 1206   3.828   2.506   6.114  0.2532 -0.0289 -0.3690
   10SAPS   C11 1207   3.640   2.327   6.219 -0.2223 -0.0623  0.3639
   10SAPS  H11A 1208   3.560   2.378   6.162  0.9671  2.3955  0.8615
   10SAPS  H11B 1209   3.672   2.417   6.275 -2.9923 -1.2765  4.1704
   10SAPS     P 1210   3.681   2.174   6.430  0.4293  0.1356 -0.0425
   10SAPS   O13 1211   3.598   2.096   6.519 -0.5450  0.4446 -0.1361
   10SAPS   O14 1212   3.797   2.096   6.381  0.3953 -0.2690  0.2990
   10SAPS   O12 1213   3.591   2.222   6.308 -0.0194  0.0926 -0.3298
   10SAPS   O11 1214   3.719   2.311   6.499  0.3550 -0.0581  0.8759
   10SAPS    C1 1215   3.859   2.354   6.514 -0.0394  0.2773 -0.0305
   10SAPS    HA 1216   3.916   2.348   6.419 -0.5753  0.3846 -0.3623
   10SAPS    HB 1217   3.847   2.462   6.536  1.2739  0.4820 -0.2715
   10SAPS    C2 1218   3.938   2.280   6.632  0.2427 -0.1842  0.1791
   10SAPS    HS 1219   3.960   2.178   6.592  3.5529  0.2426  0.7485
   10SAPS   O21 1220   3.857   2.272   6.753  0.3621 -0.3161  0.0722
   10SAPS   C21 1221   3.848   2.158   6.802  0.0482  0.4575 -1.6946
   10SAPS   O22 1222   3.906   2.055   6.762 -0.5802 -0.0044 -0.0923
   10SAPS   C22 1223   3.750   2.162   6.915  0.4324  0.2156 -0.2912
   10SAPS   H2R 1224   3.742   2.265   6.957  3.5200  1.2782 -2.1278
   10SAPS   H2S 1225   3.656   2.121   6.874  0.3304 -0.0195  0.1669
   10SAPS    C3 1226   4.071   2.358   6.671 -0.2509  0.1057 -0.1602
   10SAPS    HX 1227   4.040   2.464   6.683  0.9122  0.4594 -0.1944
   10SAPS    HY 1228   4.140   2.346   6.585  0.4977  1.6758  0.2020
   10SAPS   O31 1229   4.126   2.310   6.794  0.3358 -0.1686 -0.5637
   10SAPS   C31 1230   4.215   2.386   6.852  0.5153  0.1902 -0.4380
   10SAPS   O32 1231   4.258   2.487   6.799 -0.0758  0.6675  0.6846
   10SAPS   C32 1232   4.239   2.335   6.992 -0.1272 -0.8035 -0.0195
   10SAPS   H2X 1233   4.169   2.250   7.004 -0.0326 -0.8409  0.2847
   10SAPS   H2Y 1234   4.197   2.414   7.058  0.3162 -1.4743  1.0791
   10SAPS   C23 1235   3.779   2.064   7.028 -0.4818  0.2904 -0.1297
   10SAPS   H3R 1236   3.785   1.963   6.983  2.7678 -0.8297  2.6090
   10SAPS   H3S 1237   3.701   2.058   7.106 -0.3138  0.9812  0.0910
   10SAPS   C24 1238   3.927   2.076   7.093 -0.6852  0.2715 -0.3327
   10SAPS   H4R 1239   4.010   2.060   7.020  1.4981  1.0246  1.9076
   10SAPS   H4S 1240   3.929   1.994   7.168 -1.5422  1.3321  0.8690
   10SAPS   C25 1241   3.947   2.211   7.161 -0.7618 -0.3860  0.3339
   10SAPS   H5R 1242   3.940   2.300   7.097 -0.2605 -1.5504 -1.3985
   10SAPS   C26 1243   3.942   2.228   7.293  0.6561  0.1482 -0.1644
   10SAPS   H6R 1244   3.966   2.327   7.334 -0.5717 -0.5404  2.3037
   10SAPS   C27 1245   3.912   2.123   7.399 -0.0160 -0.0792 -0.1365
   10SAPS   H7R 1246   3.851   2.039   7.358 -0.2457  1.6508 -3.5423
   10SAPS   H7S 1247   3.842   2.176   7.467  0.9473 -1.0241  1.6172
   10SAPS   C28 1248   4.035   2.066   7.476  0.2860  0.1536  0.0081
   10SAPS   H8R 1249   4.103   2.002   7.419  1.4762 -0.0180  1.6146
   10SAPS   C29 1250   4.059   2.088   7.610 -0.2411  0.0468  0.0311
   10SAPS   H9R 1251   4.159   2.061   7.648  1.6474  3.8181 -1.9658
   10SAPS  C210 1252   3.975   2.169   7.703 -0.3201 -0.4586  0.1790
   10SAPS  H10R 1253   3.869   2.177   7.672  0.3262  1.1231 -1.7069
   10SAPS  H10S 1254   4.023   2.269   7.700 -0.4284 -0.4309 -1.2940
   10SAPS  C211 1255   3.973   2.095   7.838 -0.7829  0.3231 -0.0787
   10SAPS  H11R 1256   3.960   1.985   7.841 -2.5390  0.5328  0.8899
   10SAPS  C212 1257   3.991   2.158   7.958 -0.1404  0.1253  0.0218
   10SAPS  H12R 1258   3.993   2.097   8.050  1.1548  0.9592  0.5633
   10SAPS  C213 1259   4.007   2.308   7.981  0.0585 -0.6287  0.2806
   10SAPS  H13R 1260   3.949   2.331   8.074  0.4114  0.2486  0.2854
   10SAPS  H13S 1261   3.961   2.365   7.898 -0.6700 -1.6927 -0.0562
   10SAPS  C214 1262   4.153   2.346   7.975 -1.4025  0.0011 -0.6395
   10SAPS  H14R 1263   4.194   2.362   7.875  0.6314 -1.0762 -0.0085
   10SAPS  C215 1264   4.236   2.366   8.076 -0.3047 -0.8842 -0.3664
   10SAPS  H15R 1265   4.338   2.401   8.056 -1.1346  2.2548  0.6574
   10SAPS  C216 1266   4.210   2.347   8.223 -1.4178  0.1814 -0.3108
   10SAPS  H16R 1267   4.100   2.341   8.239 -1.1556 -2.0747  0.8921
   10SAPS  H16S 1268   4.239   2.435   8.284 -0.7659  0.3605 -0.8696
   10SAPS  C217 1269   4.268   2.219   8.290 -0.1022 -0.2902  0.5663
   10SAPS  H17R 1270   4.362   2.185   8.241 -0.8730  1.7394 -2.3628
   10SAPS  H17S 1271   4.185   2.147   8.275  0.0151 -1.1157  3.4281
   10SAPS  C218 1272   4.286   2.245   8.444 -0.4636  1.2034  0.6942
   10SAPS  H18R 1273   4.198   2.303   8.480 -0.8294  0.3021  1.2555
   10SAPS  H18S 1274   4.372   2.313   8.459  0.7608  0.1187 -1.1610
   10SAPS  C219 1275   4.319   2.110   8.522 -0.0018 -0.2832 -0.6670
   10SAPS  H19R 1276   4.234   2.039   8.511 -1.8473  1.2975  2.5456
   10SAPS  H19S 1277   4.323   2.133   8.630  1.3983  1.7467 -1.1327
   10SAPS  C220 1278   4.441   2.033   8.484 -0.6199 -0.1552 -0.7562
   10SAPS  H20R 1279   4.481   1.975   8.570 -0.3569 -0.4086 -1.0476
   10SAPS  H20S 1280   4.524   2.100   8.453  0.2697 -0.3620  1.0824
   10SAPS  H20T 1281   4.419   1.961   8.402  2.3391 -0.5022 -1.3287
   10SAPS   C33 1282   4.381   2.299   7.011  0.2442  0.3642  0.1227
   10SAPS   H3X 1283   4.443   2.390   7.002 -0.7352  1.4613  3.5120
   10SAPS   H3Y 1284   4.415   2.232   6.929  0.7865  0.2426  0.4425
   10SAPS   C34 1285   4.396   2.239   7.151  0.2689 -0.8244  0.0115
   10SAPS   H4X 1286   4.505   2.231   7.168  0.6513  2.0576 -0.8325
   10SAPS   H4Y 1287   4.348   2.138   7.157  1.8301 -1.5849 -0.1078
   10SAPS   C35 1288   4.333   2.322   7.262 -1.2019 -0.1065 -0.2307
   10SAPS   H5X 1289   4.222   2.316   7.265 -1.1699 -0.1821  0.7361
   10SAPS   H5Y 1290   4.359   2.429   7.246  1.5405 -0.9823 -2.0100
   10SAPS   C36 1291   4.388   2.274   7.405  0.3394  0.2834 -0.0120
   10SAPS   H6X 1292   4.498   2.284   7.414  0.0967  1.3749  2.3107
   10SAPS   H6Y 1293   4.357   2.168   7.410  1.3745 -0.0712 -0.9133
   10SAPS   C37 1294   4.315   2.357   7.510 -0.1871  0.4853  0.2317
   10SAPS   H7X 1295   4.209   2.348   7.477 -0.2957 -3.3867  1.4256
   10SAPS   H7Y 1296   4.346   2.463   7.499 -2.7544  1.1489 -1.2145
   10SAPS   C38 1297   4.346   2.318   7.654 -0.7775 -0.6639  0.1862
   10SAPS   H8X 1298   4.299   2.218   7.663  0.4568 -1.3347 -0.7756
   10SAPS   H8Y 1299   4.303   2.400   7.716 -1.5879 -2.7315  2.4574
   10SAPS   C39 1300   4.499   2.312   7.684  0.6600 -0.0777 -0.5965
   10SAPS   H9X 1301   4.546   2.405   7.644  1.3175  0.0922  0.5435
   10SAPS   H9Y 1302   4.544   2.220   7.642  3.4949  0.2889  1.4633
   10SAPS  C310 1303   4.529   2.310   7.838 -0.5112  0.6043 -1.0094
   10SAPS  H10X 1304   4.466   2.232   7.886  0.1330 -1.8799 -4.0445
   10SAPS  H10Y 1305   4.493   2.408   7.876 -0.1963  1.3129 -2.4928
   10SAPS  C311 1306   4.673   2.289   7.872 -1.3253 -0.0522  0.6563
   10SAPS  H11X 1307   4.725   2.380   7.837 -3.4851  0.7036 -0.7010
   10SAPS  H11Y 1308   4.715   2.198   7.823 -2.6050  0.4935 -1.5153
   10SAPS  C312 1309   4.704   2.287   8.023 -0.1240 -0.1328 -0.7208
   10SAPS  H12X 1310   4.804   2.247   8.052 -0.3118  0.5823  0.9312
   10SAPS  H12Y 1311   4.634   2.220   8.076  0.1101 -0.7649 -1.2046
   10SAPS  C313 1312   4.691   2.430   8.078 -0.3282 -0.0474 -0.2552
   10SAPS  H13X 1313   4.586   2.463   8.067 -1.3971 -3.3347 -0.5936
   10SAPS  H13Y 1314   4.757   2.500   8.023  1.3915 -0.2829  1.4622
   10SAPS  C314 1315   4.744   2.442   8.222  0.0291  0.3800  0.4265
   10SAPS  H14X 1316   4.721   2.545   8.257 -1.0883 -0.0614  0.9837
   10SAPS  H14Y 1317   4.855   2.434   8.227 -0.0207 -0.6744  0.0572
   10SAPS  C315 1318   4.701   2.345   8.331  0.5073  0.4145  0.3340
   10SAPS  H15X 1319   4.711   2.244   8.285 -1.7982 -1.0537  2.8966
   10SAPS  H15Y 1320   4.594   2.363   8.353  0.1194 -0.2574 -0.8918
   10SAPS  C316 1321   4.780   2.344   8.459 -0.4969  0.2220  0.0344
   10SAPS  H16X 1322   4.708   2.302   8.533  0.0444 -2.1251 -0.7465
   10SAPS  H16Y 1323   4.818   2.442   8.493 -1.0540  0.6434 -0.5452
   10SAPS  C317 1324   4.894   2.240   8.478  0.1149 -0.6502  0.0033
   10SAPS  H17X 1325   4.946   2.251   8.576 -1.9590 -0.4441  1.0968
   10SAPS  H17Y 1326   4.977   2.266   8.409  0.0792  1.7213  0.8266
   10SAPS  C318 1327   4.858   2.093   8.464  0.0999 -0.3235 -0.3153
   10SAPS  H18X 1328   4.816   2.080   8.363 -2.9602 -0.7807  0.9753
   10SAPS  H18Y 1329   4.784   2.059   8.539  0.9271 -0.0477  0.6439
   10SAPS  H18Z 1330   4.947   2.029   8.484 -0.0667 -0.3024  0.5157
   11SAPS     N 1331   5.525   5.055   5.467  0.0464  0.0493 -0.3474
   11SAPS   HN1 1332   5.568   5.089   5.379 -1.6408  2.0130 -0.4506
   11SAPS   HN2 1333   5.482   4.960   5.468  0.6311 -0.2076  0.5603
   11SAPS   HN3 1334   5.448   5.124   5.480 -0.2225  0.1297 -2.2307
   11SAPS   C12 1335   5.621   5.061   5.583  0.1051  0.2708 -0.4752
   11SAPS  H12A 1336   5.686   4.981   5.551  1.3822  1.4805 -0.9791
   11SAPS   C13 1337   5.692   5.199   5.577  0.4376  0.6903 -0.0633
   11SAPS  O13A 1338   5.666   5.279   5.488 -0.0741  0.2039  0.4341
   11SAPS  O13B 1339   5.768   5.220   5.674  0.4736 -0.6542  0.0577
   11SAPS   C11 1340   5.540   5.044   5.719 -0.3917  0.1098  0.2087
   11SAPS  H11A 1341   5.475   5.133   5.729  1.3316  1.5159 -0.8404
   11SAPS  H11B 1342   5.615   5.046   5.801  1.1719 -1.4873 -1.1379
   11SAPS     P 1343   5.508   4.784   5.748 -0.4881  0.2293 -0.0112
   11SAPS   O13 1344   5.387   4.701   5.761 -0.5864 -0.4079 -0.0596
   11SAPS   O14 1345   5.601   4.752   5.640 -0.1070 -0.2742  0.3375
   11SAPS   O12 1346   5.456   4.927   5.727  0.4776 -0.7372 -0.2625
   11SAPS   O11 1347   5.581   4.804   5.886  0.2103 -0.3810 -0.1859
   11SAPS    C1 1348   5.513   4.849   6.001  0.2884  0.1092 -0.9106
   11SAPS    HA 1349   5.456   4.942   5.979 -0.7535 -0.4182 -0.4991
   11SAPS    HB 1350   5.428   4.781   6.022 -0.3941  1.0663 -0.5262
   11SAPS    C2 1351   5.604   4.867   6.127 -0.8142 -0.8346  0.2625
   11SAPS    HS 1352   5.657   4.770   6.143 -1.1835 -1.1440 -0.3632
   11SAPS   O21 1353   5.533   4.906   6.241  0.1648 -0.0787 -0.6239
   11SAPS   C21 1354   5.455   4.814   6.302 -0.9579 -0.6005 -0.0170
   11SAPS   O22 1355   5.452   4.699   6.267 -0.0587 -0.1344  0.4073
   11SAPS   C22 1356   5.396   4.877   6.432 -0.0627  0.1642  0.1403
   11SAPS   H2R 1357   5.467   4.960   6.451  0.6403 -1.1012  3.3198
   11SAPS   H2S 1358   5.298   4.925   6.409 -1.1392 -1.3817  1.4167
   11SAPS    C3 1359   5.723   4.965   6.100 -0.6393  0.3413 -0.0435
   11SAPS    HX 1360   5.671   5.063   6.095 -0.6823  0.3476  0.4592
   11SAPS    HY 1361   5.767   4.933   6.003  0.8538 -1.4011  1.1778
   11SAPS   O31 1362   5.814   4.990   6.212  0.2312  0.8245  0.0272
   11SAPS   C31 1363   5.911   4.904   6.220  0.3950  0.9022 -0.5305
   11SAPS   O32 1364   5.921   4.806   6.147  0.6836  0.1132  0.3338
   11SAPS   C32 1365   6.012   4.950   6.327  0.0477  1.1096 -0.8543
   11SAPS   H2X 1366   6.050   5.049   6.294 -0.7518  2.5232  2.3380
   11SAPS   H2Y 1367   6.097   4.878   6.333 -1.8487 -1.2547 -1.5475
   11SAPS   C23 1368   5.402   4.789   6.557  0.1138  0.1098  0.7765
   11SAPS   H3R 1369   5.506   4.751   6.565 -0.4294 -1.3093  1.3121
   11SAPS   H3S 1370   5.330   4.704   6.545 -0.7295  0.8027  0.8856
   11SAPS   C24 1371   5.360   4.879   6.668  0.7439 -0.0344  0.3799
   11SAPS   H4R 1372   5.253   4.906   6.656  0.5418 -1.9300 -2.6551
   11SAPS   H4S 1373   5.408   4.979   6.675  2.9700 -1.1842  2.8619
   11SAPS   C25 1374   5.379   4.821   6.803  0.0670  0.4692 -0.4277
   11SAPS   H5R 1375   5.469   4.856   6.856 -0.7883 -1.9532  2.7750
   11SAPS   C26 1376   5.302   4.725   6.861 -0.8623  0.7989  0.2368
   11SAPS   H6R 1377   5.331   4.689   6.961  2.2883 -0.0822 -0.9065
   11SAPS   C27 1378   5.190   4.654   6.795 -0.5642  0.1505 -0.4090
   11SAPS   H7R 1379   5.184   4.673   6.685 -3.6781  0.5869 -0.2149
   11SAPS   H7S 1380   5.096   4.704   6.828 -0.3198  1.6340 -1.8804
   11SAPS   C28 1381   5.192   4.506   6.817  0.0257 -0.4481 -0.8287
   11SAPS   H8R 1382   5.241   4.455   6.733  2.0451  1.2096 -0.6835
   11SAPS   C29 1383   5.146   4.437   6.920  1.1356  0.1971  0.4790
   11SAPS   H9R 1384   5.152   4.328   6.908  0.1254  0.5003 -3.3925
   11SAPS  C210 1385   5.074   4.496   7.034  0.4008  0.7379 -0.0621
   11SAPS  H10R 1386   4.973   4.451   7.028  0.8541 -0.0880 -2.4004
   11SAPS  H10S 1387   5.053   4.602   7.009 -1.0055  0.9050  1.7189
   11SAPS  C211 1388   5.136   4.473   7.167 -0.1154  0.1709  0.0836
   11SAPS  H11R 1389   5.146   4.368   7.198 -0.5696  0.0820 -0.0724
   11SAPS  C212 1390   5.183   4.565   7.247  0.4544  0.9175 -0.1597
   11SAPS  H12R 1391   5.193   4.537   7.353  1.8084  1.7743 -0.0474
   11SAPS  C213 1392   5.186   4.711   7.223 -0.6358 -0.2603  0.3179
   11SAPS  H13R 1393   5.120   4.747   7.305 -1.7056 -0.1576 -0.5754
   11SAPS  H13S 1394   5.132   4.736   7.129  1.2022 -0.6253 -0.8524
   11SAPS  C214 1395   5.311   4.790   7.222  0.5332  0.3580  0.3604
   11SAPS  H14R 1396   5.319   4.846   7.128  0.2072  0.4046  0.3601
   11SAPS  C215 1397   5.421   4.779   7.305 -0.6927 -0.7022  0.3676
   11SAPS  H15R 1398   5.511   4.827   7.263 -0.7503  0.4563  1.5558
   11SAPS  C216 1399   5.439   4.681   7.419 -0.1658  0.2420 -0.3432
   11SAPS  H16R 1400   5.541   4.687   7.461 -0.4341  0.3507  0.2869
   11SAPS  H16S 1401   5.432   4.573   7.393  0.8633  0.4425 -1.5211
   11SAPS  C217 1402   5.342   4.716   7.530 -0.7729  0.3276 -0.2865
   11SAPS  H17R 1403   5.239   4.705   7.490 -1.0809  0.4133  0.4740
   11SAPS  H17S 1404   5.358   4.817   7.574 -1.0730  0.4685 -0.4937
   11SAPS  C218 1405   5.336   4.614   7.638  0.5780  1.0805  0.5056
   11SAPS  H18R 1406   5.418   4.634   7.711  0.8148  1.1458  0.2209
   11SAPS  H18S 1407   5.350   4.512   7.596 -3.6651  0.5248  0.2122
   11SAPS  C219 1408   5.206   4.623   7.730 -0.2164  0.2493 -0.4444
   11SAPS  H19R 1409   5.112   4.598   7.677 -1.1368 -0.5148  1.4802
   11SAPS  H19S 1410   5.185   4.727   7.763 -1.8545 -0.4551  0.8021
   11SAPS  C220 1411   5.226   4.537   7.859 -0.4596  0.2685 -0.0041
   11SAPS  H20R 1412   5.128   4.511   7.904 -0.7850  1.9543  0.2985
   11SAPS  H20S 1413   5.299   4.582   7.930  1.7530 -3.7837  0.4624
   11SAPS  H20T 1414   5.271   4.445   7.817  1.6959  1.6244 -0.7400
   11SAPS   C33 1415   5.951   4.957   6.469  0.4551 -0.0324 -0.5233
   11SAPS   H3X 1416   5.863   5.024   6.461 -0.3901 -0.8774  1.3491
   11SAPS   H3Y 1417   6.026   4.987   6.545  0.9925 -1.6407 -0.4012
   11SAPS   C34 1418   5.881   4.821   6.515 -0.1191  0.1456 -0.2059
   11SAPS   H4X 1419   5.956   4.739   6.513 -1.5227 -1.2215  1.5252
   11SAPS   H4Y 1420   5.796   4.801   6.446 -0.9642 -0.2798  0.9429
   11SAPS   C35 1421   5.827   4.832   6.656  0.7291 -0.1713  0.1689
   11SAPS   H5X 1422   5.781   4.736   6.689  1.7350 -1.3009 -1.5679
   11SAPS   H5Y 1423   5.754   4.914   6.672 -0.0180 -0.6623 -0.6542
   11SAPS   C36 1424   5.945   4.847   6.760  0.5237 -0.8105 -0.0581
   11SAPS   H6X 1425   5.997   4.945   6.765 -0.1373 -0.4441 -0.3040
   11SAPS   H6Y 1426   6.022   4.776   6.724  0.4637 -0.1627 -1.4918
   11SAPS   C37 1427   5.906   4.799   6.900 -0.3914  0.7961 -0.3023
   11SAPS   H7X 1428   5.998   4.804   6.962  0.2558  0.6962 -1.2539
   11SAPS   H7Y 1429   5.872   4.693   6.892 -2.2980  1.3493  0.0875
   11SAPS   C38 1430   5.795   4.877   6.966  0.5595  0.5089  0.2649
   11SAPS   H8X 1431   5.702   4.863   6.907  0.5942 -0.1281  0.3545
   11SAPS   H8Y 1432   5.824   4.984   6.966 -0.7531  0.8792  1.3677
   11SAPS   C39 1433   5.771   4.830   7.107  0.6214 -0.2018 -0.2797
   11SAPS   H9X 1434   5.776   4.720   7.118  0.4520 -0.2699 -0.8994
   11SAPS   H9Y 1435   5.665   4.857   7.127  0.7341  0.5325 -0.6483
   11SAPS  C310 1436   5.861   4.905   7.203 -0.2557 -0.3408 -0.0652
   11SAPS  H10X 1437   5.846   5.015   7.202 -0.2497 -0.3475 -2.5596
   11SAPS  H10Y 1438   5.967   4.885   7.181  0.2803  1.9297  0.3400
   11SAPS  C311 1439   5.834   4.837   7.343  0.0815  0.2177 -0.2344
   11SAPS  H11X 1440   5.848   4.727   7.339 -1.0969 -0.0217  1.7759
   11SAPS  H11Y 1441   5.729   4.864   7.368  0.2290  0.9984 -0.4169
   11SAPS  C312 1442   5.930   4.893   7.442 -0.0742 -0.8521  0.2678
   11SAPS  H12X 1443   6.030   4.845   7.435  0.0728 -0.2866 -1.5608
   11SAPS  H12Y 1444   5.895   4.872   7.545 -2.5008  2.1389  0.1219
   11SAPS  C313 1445   5.938   5.051   7.443 -0.2547  0.2956 -0.0941
   11SAPS  H13X 1446   5.840   5.074   7.398 -1.3321 -1.8498  1.1100
   11SAPS  H13Y 1447   6.027   5.089   7.389  0.9774 -0.9881  0.9834
   11SAPS  C314 1448   5.942   5.123   7.585 -0.3021  0.1440  0.5939
   11SAPS  H14X 1449   6.027   5.073   7.637 -0.0885  0.6669  0.7502
   11SAPS  H14Y 1450   5.852   5.099   7.645  0.5627 -1.8802  1.1319
   11SAPS  C315 1451   5.952   5.278   7.588 -0.2263  0.4499  0.8727
   11SAPS  H15X 1452   5.852   5.324   7.570  0.1875  0.1697 -2.5299
   11SAPS  H15Y 1453   6.027   5.300   7.509 -0.4800  3.1682  1.3453
   11SAPS  C316 1454   6.005   5.342   7.717 -0.1056 -0.2720 -1.0583
   11SAPS  H16X 1455   5.985   5.451   7.705 -0.7814 -0.3675 -0.8301
   11SAPS  H16Y 1456   6.116   5.341   7.719 -0.1057 -1.0797 -1.5242
   11SAPS  C317 1457   5.934   5.296   7.841 -0.7585  0.5711  0.3560
   11SAPS  H17X 1458   5.973   5.194   7.861 -0.1009  0.4101 -1.6169
   11SAPS  H17Y 1459   5.825   5.299   7.823 -0.7057 -1.0482 -0.3617
   11SAPS  C318 1460   5.977   5.377   7.963 -0.1835 -0.6132  0.1350
   11SAPS  H18X 1461   6.087   5.384   7.971 -0.0082 -3.5498  0.5840
   11SAPS  H18Y 1462   5.939   5.337   8.060  0.2380 -1.1444  0.0750
   11SAPS  H18Z 1463   5.929   5.475   7.941  1.1451 -0.2616 -1.2759
   12SAPS     N 1464   4.573   6.278   6.231 -0.2414  0.2988 -0.4991
   12SAPS   HN1 1465   4.498   6.325   6.176 -0.1649 -0.4067 -1.2207
   12SAPS   HN2 1466   4.531   6.218   6.305  0.6585  2.3198  1.7318
   12SAPS   HN3 1467   4.634   6.350   6.274  0.6431 -0.9928  0.4252
   12SAPS   C12 1468   4.646   6.196   6.140 -0.1789 -0.0198  0.1629
   12SAPS  H12A 1469   4.721   6.146   6.200  1.3221  1.9751  0.0157
   12SAPS   C13 1470   4.557   6.097   6.053  0.5616 -0.5419  0.3181
   12SAPS  O13A 1471   4.432   6.092   6.086 -0.0269 -0.4700  0.3556
   12SAPS  O13B 1472   4.606   6.011   5.982  0.0405 -0.2536 -0.3221
   12SAPS   C11 1473   4.723   6.289   6.038 -0.5927  0.0125 -0.3498
   12SAPS  H11A 1474   4.652   6.354   5.982  0.8081 -0.4522 -2.7593
   12SAPS  H11B 1475   4.781   6.235   5.959 -0.0256 -1.2310  0.8967
   12SAPS     P 1476   4.972   6.349   6.103  0.2427 -0.2791  0.5276
   12SAPS   O13 1477   5.003   6.314   5.963  0.6230  0.3427 -0.2763
   12SAPS   O14 1478   5.040   6.471   6.159 -0.1008  0.3144 -0.1314
   12SAPS   O12 1479   4.822   6.377   6.102 -0.1317  0.1115 -0.3353
   12SAPS   O11 1480   4.985   6.222   6.199  0.4038  0.2522 -0.2077
   12SAPS    C1 1481   4.946   6.240   6.334 -0.0874  0.3152  0.0043
   12SAPS    HA 1482   4.854   6.302   6.337 -0.6023 -0.4425 -0.0164
   12SAPS    HB 1483   4.919   6.150   6.392  1.0217  0.4666  0.7776
   12SAPS    C2 1484   5.062   6.295   6.422 -0.4220  0.4252 -0.3227
   12SAPS    HS 1485   5.129   6.367   6.373 -0.4330  0.6337 -0.0327
   12SAPS   O21 1486   5.137   6.178   6.472  0.1580  0.4722 -0.6209
   12SAPS   C21 1487   5.270   6.184   6.487  0.5076 -0.3515 -0.4417
   12SAPS   O22 1488   5.342   6.283   6.471  0.2124 -0.1266 -0.1678
   12SAPS   C22 1489   5.309   6.037   6.518 -0.1365 -0.0209  0.4374
   12SAPS   H2R 1490   5.221   5.974   6.498 -0.8856  1.1182  0.0827
   12SAPS   H2S 1491   5.388   6.011   6.444 -0.0977 -0.5463  0.6638
   12SAPS    C3 1492   4.995   6.362   6.539  0.4810  0.4227 -1.0216
   12SAPS    HX 1493   4.924   6.285   6.576  0.9593 -0.5228 -2.0483
   12SAPS    HY 1494   4.941   6.456   6.514  1.0726  0.7618 -1.0189
   12SAPS   O31 1495   5.097   6.394   6.640 -0.1336 -0.1621  0.2070
   12SAPS   C31 1496   5.053   6.455   6.750  0.3127  0.3183 -0.0282
   12SAPS   O32 1497   4.933   6.475   6.773  0.3308 -0.0183  0.0040
   12SAPS   C32 1498   5.171   6.508   6.819 -0.1694  0.9065 -0.3744
   12SAPS   H2X 1499   5.153   6.610   6.860 -0.1318  0.7360  0.0730
   12SAPS   H2Y 1500   5.256   6.534   6.752 -1.4407  1.3980 -1.8340
   12SAPS   C23 1501   5.368   6.019   6.657 -0.1226 -0.2676 -0.2966
   12SAPS   H3R 1502   5.286   6.020   6.732 -1.5545 -0.1977 -1.8229
   12SAPS   H3S 1503   5.433   6.106   6.683 -0.8451  0.0463  0.5048
   12SAPS   C24 1504   5.459   5.897   6.676  0.4854  0.3590 -0.5000
   12SAPS   H4R 1505   5.527   5.910   6.763 -0.1861  0.1112  0.0665
   12SAPS   H4S 1506   5.519   5.875   6.584  1.1681 -0.5271  0.1464
   12SAPS   C25 1507   5.367   5.779   6.695  0.3671 -0.1778  0.2429
   12SAPS   H5R 1508   5.322   5.749   6.599  1.2894  0.6346 -0.4604
   12SAPS   C26 1509   5.349   5.707   6.813  0.2436  0.6894  0.0708
   12SAPS   H6R 1510   5.289   5.615   6.812  1.3835 -0.0641 -0.3945
   12SAPS   C27 1511   5.430   5.733   6.946  0.2180  0.7993 -0.0714
   12SAPS   H7R 1512   5.490   5.826   6.935  1.3024  0.2605  1.1396
   12SAPS   H7S 1513   5.503   5.649   6.948  0.3557  0.8882 -0.9108
   12SAPS   C28 1514   5.351   5.745   7.074  0.4340  0.7008  0.0064
   12SAPS   H8R 1515   5.242   5.755   7.060  0.2399 -0.1763  0.8605
   12SAPS   C29 1516   5.398   5.718   7.201  0.4705  0.2630 -0.0151
   12SAPS   H9R 1517   5.319   5.718   7.278  0.8275 -0.1087  0.3524
   12SAPS  C210 1518   5.546   5.680   7.234 -0.2995 -0.0417  0.0346
   12SAPS  H10R 1519   5.602   5.683   7.138 -0.8954  0.2958 -0.3016
   12SAPS  H10S 1520   5.562   5.575   7.268  1.0553  0.7048  1.8322
   12SAPS  C211 1521   5.609   5.776   7.327  0.7105  0.6116 -0.3939
   12SAPS  H11R 1522   5.643   5.868   7.277 -1.0329  1.4457 -0.1022
   12SAPS  C212 1523   5.641   5.768   7.459 -0.1343 -0.3808  0.2141
   12SAPS  H12R 1524   5.687   5.854   7.510 -2.8305  1.3944 -0.2565
   12SAPS  C213 1525   5.628   5.649   7.543 -0.4909 -0.2710 -0.4674
   12SAPS  H13R 1526   5.683   5.659   7.639  2.5015 -0.5398 -2.0861
   12SAPS  H13S 1527   5.683   5.562   7.502 -1.3058 -0.7809 -0.4887
   12SAPS  C214 1528   5.490   5.603   7.576  0.3187  0.2696 -0.3361
   12SAPS  H14R 1529   5.415   5.607   7.495  0.5129  1.7183 -0.4583
   12SAPS  C215 1530   5.430   5.570   7.692  0.4856  0.6111 -0.0394
   12SAPS  H15R 1531   5.326   5.534   7.687  1.1599 -1.0015 -3.0393
   12SAPS  C216 1532   5.500   5.574   7.822 -0.8225  0.6241 -0.7619
   12SAPS  H16R 1533   5.453   5.656   7.881  2.1244  0.7556  1.5120
   12SAPS  H16S 1534   5.605   5.611   7.821 -0.4078 -0.4723  0.5040
   12SAPS  C217 1535   5.509   5.444   7.901  0.2910 -0.3799  0.1792
   12SAPS  H17R 1536   5.556   5.360   7.846 -2.3080  0.2018 -3.0737
   12SAPS  H17S 1537   5.409   5.404   7.931  0.8104 -0.4878  1.8546
   12SAPS  C218 1538   5.599   5.458   8.022  0.3874 -0.1545  0.6478
   12SAPS  H18R 1539   5.561   5.539   8.090 -2.6687 -2.8295  2.2888
   12SAPS  H18S 1540   5.701   5.473   7.982 -1.4185  0.9393 -3.9022
   12SAPS  C219 1541   5.613   5.323   8.095  0.1500 -0.5334 -0.5986
   12SAPS  H19R 1542   5.672   5.256   8.029  0.9955 -1.0180  0.6122
   12SAPS  H19S 1543   5.511   5.282   8.113  0.2901 -0.7809 -0.3474
   12SAPS  C220 1544   5.674   5.337   8.230 -0.4360  0.2616  0.4273
   12SAPS  H20R 1545   5.616   5.394   8.306 -0.8845  0.5138 -0.1011
   12SAPS  H20S 1546   5.774   5.384   8.226 -0.1028 -0.4988 -0.5204
   12SAPS  H20T 1547   5.679   5.231   8.264 -0.9347  0.6155  1.6277
   12SAPS   C33 1548   5.231   6.426   6.934  0.5100  0.3560 -0.2062
   12SAPS   H3X 1549   5.152   6.396   7.007  2.3956 -2.0207  0.9251
   12SAPS   H3Y 1550   5.318   6.471   6.985  1.0422  1.6073 -2.1794
   12SAPS   C34 1551   5.267   6.278   6.888 -0.0747  0.6428  0.2069
   12SAPS   H4X 1552   5.346   6.293   6.811 -0.9248  2.6740 -0.3063
   12SAPS   H4Y 1553   5.177   6.225   6.852  0.0810  0.2609  0.3718
   12SAPS   C35 1554   5.331   6.194   6.999 -0.0746  0.0352 -0.2049
   12SAPS   H5X 1555   5.393   6.266   7.058 -1.1952  0.5656  0.3438
   12SAPS   H5Y 1556   5.395   6.116   6.952  1.4975  1.2641 -0.1717
   12SAPS   C36 1557   5.226   6.128   7.094 -0.3140 -0.5078  0.1281
   12SAPS   H6X 1558   5.170   6.052   7.037  0.9391 -0.8757 -0.6250
   12SAPS   H6Y 1559   5.152   6.207   7.119 -1.0608 -1.6075  1.4165
   12SAPS   C37 1560   5.278   6.106   7.234  0.6392 -0.7075 -0.3702
   12SAPS   H7X 1561   5.308   6.204   7.279 -0.6680  0.3087 -1.6525
   12SAPS   H7Y 1562   5.369   6.043   7.227  2.3107  1.6489 -0.4278
   12SAPS   C38 1563   5.181   6.037   7.330 -0.2162  0.4065 -0.2114
   12SAPS   H8X 1564   5.154   5.941   7.280  0.6595 -1.3404  2.5859
   12SAPS   H8Y 1565   5.096   6.105   7.351 -0.6720 -0.4308  0.6860
   12SAPS   C39 1566   5.251   6.015   7.467  0.0010  0.2015  0.4500
   12SAPS   H9X 1567   5.289   6.117   7.486  0.3599  0.3700 -1.0878
   12SAPS   H9Y 1568   5.332   5.942   7.448 -0.7322  0.0110 -2.1608
   12SAPS  C310 1569   5.156   5.963   7.572  0.3511 -1.0355  0.3778
   12SAPS  H10X 1570   5.129   5.857   7.552 -0.7957 -0.6764 -0.0008
   12SAPS  H10Y 1571   5.070   6.033   7.571 -0.2942 -1.8182 -0.9105
   12SAPS  C311 1572   5.222   5.944   7.702  0.1429 -0.6030  0.2465
   12SAPS  H11X 1573   5.326   5.908   7.690  0.1104 -0.3200 -0.9044
   12SAPS  H11Y 1574   5.173   5.866   7.765  0.1700 -0.1116  0.8884
   12SAPS  C312 1575   5.224   6.078   7.790 -0.2606  0.0408  0.2788
   12SAPS  H12X 1576   5.117   6.099   7.808 -0.8960 -0.7199 -2.4718
   12SAPS  H12Y 1577   5.263   6.166   7.735  2.7822 -0.9880  0.6916
   12SAPS  C313 1578   5.295   6.063   7.919 -0.9178 -0.9497 -0.0325
   12SAPS  H13X 1579   5.258   5.971   7.969 -0.3043 -1.4958 -0.5837
   12SAPS  H13Y 1580   5.265   6.155   7.975 -0.0149 -0.7466  0.1318
   12SAPS  C314 1581   5.447   6.076   7.924 -0.5730  0.7072 -0.5227
   12SAPS  H14X 1582   5.484   6.129   7.834  2.3893  0.2464  0.3921
   12SAPS  H14Y 1583   5.490   5.974   7.920  0.2392  0.8739  2.4026
   12SAPS  C315 1584   5.506   6.141   8.053 -0.5592 -0.7711  0.0836
   12SAPS  H15X 1585   5.616   6.123   8.050 -0.8595 -2.9713  1.6779
   12SAPS  H15Y 1586   5.450   6.091   8.134 -3.1215 -1.8706 -2.2834
   12SAPS  C316 1587   5.481   6.295   8.068 -0.3915 -0.0815 -0.1406
   12SAPS  H16X 1588   5.373   6.314   8.087 -0.4444  0.3306 -0.7935
   12SAPS  H16Y 1589   5.508   6.346   7.973  2.6422 -3.4315 -1.1580
   12SAPS  C317 1590   5.559   6.350   8.185  0.6764 -0.4464  0.3169
   12SAPS  H17X 1591   5.664   6.351   8.148  0.9950 -0.9392  1.1992
   12SAPS  H17Y 1592   5.562   6.273   8.265  0.3462  1.2429  1.9868
   12SAPS  C318 1593   5.517   6.486   8.232 -0.9355  0.3367 -0.1162
   12SAPS  H18X 1594   5.407   6.487   8.249 -1.1868  2.0579 -1.6423
   12SAPS  H18Y 1595   5.545   6.559   8.152 -0.8319 -0.8869 -1.2091
   12SAPS  H18Z 1596   5.576   6.506   8.324 -1.7776 -1.0033  0.7270
   13SAPS     N 1597   6.074   4.007   5.901  0.4452 -0.4125  0.4929
   13SAPS   HN1 1598   6.060   3.951   5.815  1.4369 -0.0787  0.1080
   13SAPS   HN2 1599   6.141   4.086   5.888  0.4351 -0.5733 -0.5876
   13SAPS   HN3 1600   6.123   3.936   5.960  2.4477  1.5394  1.2289
   13SAPS   C12 1601   5.937   4.049   5.941 -0.5281 -0.2106 -0.1281
   13SAPS  H12A 1602   5.950   4.154   5.963  2.6210 -0.1527 -2.0354
   13SAPS   C13 1603   5.835   4.042   5.828 -0.3747  0.0637  0.3460
   13SAPS  O13A 1604   5.865   4.008   5.709 -0.2846  0.2264 -0.0888
   13SAPS  O13B 1605   5.724   4.096   5.848 -0.1847  0.4873  0.4528
   13SAPS   C11 1606   5.889   3.968   6.067 -0.7119  0.6172  0.4170
   13SAPS  H11A 1607   5.789   4.000   6.101 -0.1122 -0.3535  3.2824
   13SAPS  H11B 1608   5.947   3.996   6.157  2.6982 -0.9034 -1.1788
   13SAPS     P 1609   6.012   3.741   6.109  0.3247  0.2013 -0.0725
   13SAPS   O13 1610   6.011   3.602   6.066  0.8276  0.3950 -0.4520
   13SAPS   O14 1611   6.140   3.813   6.083  0.3835 -0.3235  0.1532
   13SAPS   O12 1612   5.891   3.827   6.049  0.3626  0.2277 -0.2153
   13SAPS   O11 1613   6.005   3.754   6.265 -0.2793  0.0961 -0.7294
   13SAPS    C1 1614   5.896   3.702   6.348 -0.6568 -0.0422 -0.2565
   13SAPS    HA 1615   5.824   3.782   6.373 -0.1233  1.1847 -2.4776
   13SAPS    HB 1616   5.836   3.629   6.289 -2.5894 -0.1558  1.7908
   13SAPS    C2 1617   5.957   3.638   6.472  0.0131 -0.3626 -0.3967
   13SAPS    HS 1618   5.890   3.572   6.531 -0.5468  1.2461  0.7997
   13SAPS   O21 1619   5.987   3.746   6.560 -0.5566  0.1415 -0.2959
   13SAPS   C21 1620   5.878   3.804   6.625  0.0538 -0.2486  0.4133
   13SAPS   O22 1621   5.763   3.776   6.600 -0.5757  0.0527  0.2497
   13SAPS   C22 1622   5.926   3.901   6.735 -0.4687 -0.8764 -0.7452
   13SAPS   H2R 1623   5.965   3.833   6.813 -0.9164  0.4620  0.6782
   13SAPS   H2S 1624   6.008   3.964   6.694 -0.6358  1.4135  2.2667
   13SAPS    C3 1625   6.089   3.549   6.452  0.3555  0.0019 -0.7662
   13SAPS    HX 1626   6.149   3.606   6.378  2.4763 -1.1327  0.0236
   13SAPS    HY 1627   6.053   3.449   6.420  0.0081  0.7557 -2.8080
   13SAPS   O31 1628   6.174   3.539   6.571  0.1157  0.3556  0.1715
   13SAPS   C31 1629   6.118   3.464   6.664  0.2891 -0.2385 -0.0164
   13SAPS   O32 1630   6.020   3.390   6.650  0.0386 -0.5988  0.1648
   13SAPS   C32 1631   6.181   3.489   6.804 -0.5253 -0.8727  0.0530
   13SAPS   H2X 1632   6.163   3.599   6.812 -1.3073 -0.8678 -1.4689
   13SAPS   H2Y 1633   6.288   3.461   6.809 -0.7607 -2.1122 -1.4510
   13SAPS   C23 1634   5.813   3.993   6.774 -0.1254 -0.4400  0.1366
   13SAPS   H3R 1635   5.727   3.931   6.807 -1.5019  0.2905 -1.9518
   13SAPS   H3S 1636   5.787   4.044   6.679 -0.4427 -0.6187  0.1260
   13SAPS   C24 1637   5.853   4.098   6.888  0.0487 -0.0828 -0.1370
   13SAPS   H4R 1638   5.890   4.031   6.968  0.3947  1.3538  0.9257
   13SAPS   H4S 1639   5.763   4.151   6.926  0.8249 -0.0701  1.7170
   13SAPS   C25 1640   5.955   4.198   6.843 -0.1783 -0.2730  0.0624
   13SAPS   H5R 1641   5.917   4.287   6.790  0.7548 -0.1755 -0.4526
   13SAPS   C26 1642   6.088   4.190   6.865  0.1176 -0.3989 -0.1000
   13SAPS   H6R 1643   6.149   4.276   6.833  1.5008 -1.8487 -1.4697
   13SAPS   C27 1644   6.170   4.084   6.937  0.9882 -0.1953  0.4133
   13SAPS   H7R 1645   6.241   4.039   6.864 -1.8283 -1.9961 -1.2876
   13SAPS   H7S 1646   6.113   3.999   6.979  1.6183 -1.3033 -0.9352
   13SAPS   C28 1647   6.240   4.147   7.050  0.4758 -0.0856  0.1615
   13SAPS   H8R 1648   6.335   4.191   7.016 -0.4829  0.4512 -1.8870
   13SAPS   C29 1649   6.193   4.170   7.177  0.2262  0.2229 -0.1872
   13SAPS   H9R 1650   6.249   4.230   7.251  0.8780  0.8472 -1.1816
   13SAPS  C210 1651   6.050   4.134   7.222 -0.0267 -0.3426 -0.6844
   13SAPS  H10R 1652   6.038   4.026   7.245 -1.2713 -0.6330 -2.5777
   13SAPS  H10S 1653   5.970   4.145   7.146 -0.0070  0.1558 -0.6319
   13SAPS  C211 1654   6.005   4.228   7.338 -0.0830  0.0714 -0.2730
   13SAPS  H11R 1655   5.961   4.326   7.315  2.9028  1.3309 -0.8239
   13SAPS  C212 1656   5.995   4.190   7.464 -0.4665  0.7646  0.2338
   13SAPS  H12R 1657   5.972   4.263   7.544  0.7270  0.2194  1.1043
   13SAPS  C213 1658   6.017   4.050   7.513  0.6039  0.2393  0.4530
   13SAPS  H13R 1659   6.072   3.979   7.447  1.3290 -0.6410  1.9760
   13SAPS  H13S 1660   5.922   4.002   7.543  0.6946 -0.4741 -0.3741
   13SAPS  C214 1661   6.100   4.056   7.640  0.0453 -0.8080 -0.4568
   13SAPS  H14R 1662   6.196   4.004   7.625 -0.0173 -1.0828  0.0600
   13SAPS  C215 1663   6.063   4.101   7.766 -0.2797 -0.5342 -0.1141
   13SAPS  H15R 1664   6.141   4.096   7.843 -2.2513 -1.7210  1.8493
   13SAPS  C216 1665   5.930   4.159   7.804 -0.3630  0.1417 -0.4910
   13SAPS  H16R 1666   5.858   4.137   7.723 -1.1958 -1.3327  0.6298
   13SAPS  H16S 1667   5.932   4.270   7.807 -1.2348  0.1508 -0.0483
   13SAPS  C217 1668   5.869   4.115   7.934  0.3516 -0.5295 -0.2823
   13SAPS  H17R 1669   5.835   4.011   7.917  0.3048 -0.6278  0.4237
   13SAPS  H17S 1670   5.778   4.178   7.948 -1.4031 -2.9495 -0.4999
   13SAPS  C218 1671   5.954   4.131   8.063  0.2919  0.0808  0.1964
   13SAPS  H18R 1672   5.955   4.237   8.098 -1.0443 -0.2651  1.3690
   13SAPS  H18S 1673   6.060   4.102   8.052  0.2340 -0.0011 -0.1321
   13SAPS  C219 1674   5.906   4.037   8.166 -0.3411 -0.6654 -0.1784
   13SAPS  H19R 1675   5.979   4.040   8.249  2.2094  0.3185 -2.4071
   13SAPS  H19S 1676   5.905   3.932   8.129 -1.2379  0.0266 -2.1972
   13SAPS  C220 1677   5.759   4.047   8.216  0.3677  0.0841 -0.5859
   13SAPS  H20R 1678   5.750   4.145   8.268  0.0139 -0.0366 -0.4161
   13SAPS  H20S 1679   5.733   3.970   8.291 -1.6334 -0.6050 -1.9395
   13SAPS  H20T 1680   5.681   4.037   8.137  0.5752  1.5926 -1.0000
   13SAPS   C33 1681   6.092   3.412   6.920  0.1114  0.7291 -0.6087
   13SAPS   H3X 1682   6.113   3.308   6.889  0.3207  0.7738 -0.6229
   13SAPS   H3Y 1683   5.983   3.419   6.905 -0.4001 -0.0401  2.5439
   13SAPS   C34 1684   6.125   3.445   7.065 -0.5314  0.4855  0.5054
   13SAPS   H4X 1685   6.141   3.553   7.085  3.1397  0.4012 -1.5424
   13SAPS   H4Y 1686   6.224   3.398   7.080  0.6420  2.6068 -0.3507
   13SAPS   C35 1687   6.025   3.392   7.159  1.0901  1.0183  0.0135
   13SAPS   H5X 1688   5.990   3.290   7.131  0.1361  1.9423 -2.2192
   13SAPS   H5Y 1689   5.936   3.458   7.165 -0.8259 -1.5518  0.7622
   13SAPS   C36 1690   6.098   3.373   7.291 -0.3483 -0.7677 -0.3696
   13SAPS   H6X 1691   6.153   3.468   7.308 -1.7072  0.0995 -0.7333
   13SAPS   H6Y 1692   6.169   3.288   7.281  2.3732  1.4513 -0.3485
   13SAPS   C37 1693   6.006   3.348   7.417 -0.3037 -0.6173  0.3944
   13SAPS   H7X 1694   5.961   3.250   7.390  0.9085 -0.7700 -1.1834
   13SAPS   H7Y 1695   5.929   3.426   7.433 -0.6406 -0.1601 -3.0897
   13SAPS   C38 1696   6.087   3.307   7.538  0.0647  0.6580  0.0248
   13SAPS   H8X 1697   6.147   3.389   7.582 -0.6209  0.8622  0.5961
   13SAPS   H8Y 1698   6.154   3.224   7.507 -2.4020  0.1165 -4.1778
   13SAPS   C39 1699   5.989   3.260   7.649  0.4369 -0.0026  0.5545
   13SAPS   H9X 1700   5.937   3.171   7.609  1.9072 -1.1522  1.1852
   13SAPS   H9Y 1701   5.914   3.338   7.677  0.4626  1.0226 -2.0632
   13SAPS  C310 1702   6.067   3.206   7.771  0.8391  0.7673 -0.3495
   13SAPS  H10X 1703   6.138   3.282   7.811  1.3645  0.7932 -1.3022
   13SAPS  H10Y 1704   6.134   3.123   7.737  1.6741  2.2787 -2.5279
   13SAPS  C311 1705   5.978   3.137   7.877 -0.5529 -0.4820  0.1382
   13SAPS  H11X 1706   5.913   3.066   7.822 -0.9733  2.0969 -2.8585
   13SAPS  H11Y 1707   5.921   3.208   7.942  0.7727 -0.0912  0.8943
   13SAPS  C312 1708   6.059   3.054   7.972 -0.5576  0.8535  0.3902
   13SAPS  H12X 1709   6.137   3.125   8.005 -0.9488  1.3074  0.3368
   13SAPS  H12Y 1710   6.110   2.981   7.906 -2.0706 -0.7986  0.9979
   13SAPS  C313 1711   5.973   2.993   8.081  0.2247  0.2285  0.2693
   13SAPS  H13X 1712   6.032   2.908   8.119  0.7321  0.5928  0.3034
   13SAPS  H13Y 1713   5.878   2.954   8.038  0.9892 -1.0153 -0.3086
   13SAPS  C314 1714   5.934   3.104   8.182 -0.8360  0.4385 -0.1576
   13SAPS  H14X 1715   5.891   3.194   8.132  2.4190  0.9397 -2.2310
   13SAPS  H14Y 1716   6.024   3.137   8.240 -1.0417 -0.9428  0.9784
   13SAPS  C315 1717   5.812   3.061   8.271 -0.6710  0.1000 -0.5222
   13SAPS  H15X 1718   5.820   2.953   8.294 -2.2056 -0.1457 -1.0980
   13SAPS  H15Y 1719   5.734   3.053   8.193 -0.2262 -0.3821 -0.9194
   13SAPS  C316 1720   5.788   3.151   8.389  0.3481  0.4944  0.7329
   13SAPS  H16X 1721   5.875   3.189   8.448  0.0586  2.6957 -0.1828
   13SAPS  H16Y 1722   5.724   3.092   8.458 -2.8198  1.9542 -0.8786
   13SAPS  C317 1723   5.703   3.274   8.370  0.4004  0.5038 -0.1009
   13SAPS  H17X 1724   5.602   3.250   8.333  0.4361 -0.7677  0.5856
   13SAPS  H17Y 1725   5.759   3.330   8.291  0.0544  0.3106 -0.4854
   13SAPS  C318 1726   5.689   3.353   8.498 -0.3006 -0.2730 -0.2559
   13SAPS  H18X 1727   5.620   3.294   8.561 -1.1948  1.7829  0.7326
   13SAPS  H18Y 1728   5.636   3.450   8.486  2.6500  1.3110 -1.1976
   13SAPS  H18Z 1729   5.789   3.378   8.540 -1.3709  1.5129  1.3241
   14SAPS     N 1730   5.614   5.551   5.501  0.0871  0.2786  0.4630
   14SAPS   HN1 1731   5.624   5.448   5.486  1.1766  0.0011  2.8501
   14SAPS   HN2 1732   5.564   5.606   5.428 -0.0499  2.2447  2.0036
   14SAPS   HN3 1733   5.709   5.589   5.520  0.8840 -0.8923 -1.0604
   14SAPS   C12 1734   5.527   5.580   5.620 -1.2654 -0.0770 -0.3380
   14SAPS  H12A 1735   5.559   5.677   5.655  0.9583 -1.0101  0.2743
   14SAPS   C13 1736   5.375   5.579   5.611  0.1915  0.1507  0.3406
   14SAPS  O13A 1737   5.322   5.523   5.508 -0.0199  0.1863  0.4140
   14SAPS  O13B 1738   5.301   5.609   5.714 -0.3457 -0.1400 -0.0353
   14SAPS   C11 1739   5.571   5.483   5.739 -0.4038 -0.4368  1.0272
   14SAPS  H11A 1740   5.680   5.467   5.727 -0.2932  1.4850 -0.8654
   14SAPS  H11B 1741   5.520   5.387   5.718  0.2171  0.0168 -3.1561
   14SAPS     P 1742   5.652   5.633   5.932 -0.1852  0.4947 -0.1444
   14SAPS   O13 1743   5.713   5.704   5.820 -0.5362  0.0107 -0.0803
   14SAPS   O14 1744   5.575   5.712   6.032 -0.8541  0.3981 -0.1820
   14SAPS   O12 1745   5.538   5.528   5.871  0.7023 -0.2159 -0.0696
   14SAPS   O11 1746   5.763   5.541   5.994 -0.1604  0.2754 -0.1056
   14SAPS    C1 1747   5.732   5.414   6.056  0.0725 -0.4184  0.6057
   14SAPS    HA 1748   5.664   5.358   5.989  0.0969 -0.0713  0.2891
   14SAPS    HB 1749   5.826   5.354   6.057  1.4145  1.6079 -0.0458
   14SAPS    C2 1750   5.674   5.431   6.198 -0.6005 -0.3249  0.0110
   14SAPS    HS 1751   5.573   5.478   6.189 -0.3462 -0.2909 -3.6594
   14SAPS   O21 1752   5.766   5.514   6.272 -0.4447 -0.3229 -0.4723
   14SAPS   C21 1753   5.710   5.592   6.363  0.3853 -0.3690 -0.0716
   14SAPS   O22 1754   5.590   5.598   6.389  0.0305 -0.3936  0.5183
   14SAPS   C22 1755   5.813   5.670   6.443  0.2939 -0.1689 -0.2543
   14SAPS   H2R 1756   5.910   5.640   6.397  1.1860  0.5410  1.1349
   14SAPS   H2S 1757   5.779   5.775   6.428 -0.1305  0.2348  3.1607
   14SAPS    C3 1758   5.663   5.293   6.271  0.4854 -0.5115  0.0485
   14SAPS    HX 1759   5.761   5.241   6.268  0.2655 -1.0532  1.7681
   14SAPS    HY 1760   5.605   5.222   6.208  1.3643 -1.1891 -0.0027
   14SAPS   O31 1761   5.613   5.305   6.408  0.4060 -0.2756 -0.1175
   14SAPS   C31 1762   5.483   5.272   6.430  1.0529  0.0038 -0.4258
   14SAPS   O32 1763   5.409   5.229   6.344  0.0306 -0.5205  0.2058
   14SAPS   C32 1764   5.445   5.259   6.582 -1.0244  0.1761  0.5905
   14SAPS   H2X 1765   5.376   5.172   6.591 -0.1896 -0.6354 -0.7315
   14SAPS   H2Y 1766   5.389   5.351   6.610 -1.6667 -0.1593  0.4290
   14SAPS   C23 1767   5.807   5.650   6.593  0.0087  0.0151 -1.0177
   14SAPS   H3R 1768   5.804   5.541   6.613  3.6059  0.3432  1.8655
   14SAPS   H3S 1769   5.716   5.693   6.640  0.2808 -0.0671 -0.4054
   14SAPS   C24 1770   5.933   5.702   6.673  0.0605 -0.1953 -0.1357
   14SAPS   H4R 1771   5.940   5.813   6.669  0.6516 -0.2771 -1.8144
   14SAPS   H4S 1772   6.023   5.656   6.626 -0.1880  0.5060 -1.3202
   14SAPS   C25 1773   5.943   5.652   6.818 -0.1359  0.3469  0.1567
   14SAPS   H5R 1774   5.919   5.546   6.837  3.1702 -0.1127  2.2350
   14SAPS   C26 1775   5.971   5.730   6.922 -1.0391  0.2755  0.1496
   14SAPS   H6R 1776   5.978   5.688   7.023  0.3117  1.0327  0.3974
   14SAPS   C27 1777   5.995   5.876   6.911  0.2660  0.2750  0.1953
   14SAPS   H7R 1778   5.933   5.929   6.836  0.4164  1.1262  0.6727
   14SAPS   H7S 1779   6.090   5.884   6.852 -0.6895  3.9810 -0.9707
   14SAPS   C28 1780   6.005   5.975   7.027 -0.1015 -0.7413 -0.1873
   14SAPS   H8R 1781   5.910   6.021   7.057  1.7162  3.3442 -0.2754
   14SAPS   C29 1782   6.110   5.989   7.111 -0.2362  0.2684 -0.0776
   14SAPS   H9R 1783   6.090   6.048   7.201 -0.9931 -0.1304  0.0207
   14SAPS  C210 1784   6.243   5.922   7.102 -0.2703 -0.1128  0.1796
   14SAPS  H10R 1785   6.234   5.836   7.033  0.1014  0.1133 -0.1559
   14SAPS  H10S 1786   6.272   5.882   7.202  0.6207 -2.6274 -1.0590
   14SAPS  C211 1787   6.347   6.016   7.050  0.3968  1.5386 -0.0975
   14SAPS  H11R 1788   6.310   6.077   6.966 -0.5205  3.2614  1.5122
   14SAPS  C212 1789   6.468   6.049   7.093 -1.1938  0.2453 -0.1582
   14SAPS  H12R 1790   6.515   6.116   7.020 -0.3059  0.1691  0.3422
   14SAPS  C213 1791   6.522   6.001   7.221  0.1784 -0.3140  0.1345
   14SAPS  H13R 1792   6.447   5.962   7.293  0.0836 -0.9537 -0.3025
   14SAPS  H13S 1793   6.549   6.093   7.276  0.6552  0.1211 -0.8021
   14SAPS  C214 1794   6.639   5.909   7.208 -0.1186 -0.3835  1.2482
   14SAPS  H14R 1795   6.632   5.836   7.125  1.1562  0.3896  0.4381
   14SAPS  C215 1796   6.753   5.920   7.277 -0.0856 -0.3152 -0.2299
   14SAPS  H15R 1797   6.835   5.856   7.240 -2.4387 -3.9644  0.6014
   14SAPS  C216 1798   6.790   6.015   7.384  0.0862 -0.7941 -0.1665
   14SAPS  H16R 1799   6.815   5.954   7.473  2.8310 -2.0859 -1.7441
   14SAPS  H16S 1800   6.707   6.082   7.415  0.2852  0.0790 -1.4883
   14SAPS  C217 1801   6.921   6.086   7.340 -0.5470  0.3258  0.0991
   14SAPS  H17R 1802   6.990   6.024   7.280 -0.4161  1.0053 -0.4692
   14SAPS  H17S 1803   6.973   6.120   7.432 -1.3383 -0.2639  0.7685
   14SAPS  C218 1804   6.885   6.211   7.253  0.0414  0.0354  0.3590
   14SAPS  H18R 1805   6.829   6.277   7.323 -1.1377 -0.9140  0.3119
   14SAPS  H18S 1806   6.803   6.182   7.185 -0.5314  1.3415  0.4776
   14SAPS  C219 1807   7.003   6.273   7.174  0.0029  0.1967  1.3853
   14SAPS  H19R 1808   6.960   6.359   7.118  1.6916 -1.1491 -2.1870
   14SAPS  H19S 1809   7.039   6.199   7.099 -3.3146 -0.0950 -0.0170
   14SAPS  C220 1810   7.123   6.323   7.255 -0.7067 -0.9123  0.3271
   14SAPS  H20R 1811   7.204   6.349   7.184 -0.9777  0.4414  0.5038
   14SAPS  H20S 1812   7.150   6.255   7.339  3.1035  0.9608  0.7138
   14SAPS  H20T 1813   7.100   6.412   7.319  0.0888 -1.3135  1.1848
   14SAPS   C33 1814   5.566   5.250   6.675  0.2870 -0.4001 -0.3373
   14SAPS   H3X 1815   5.619   5.347   6.668  0.1048 -0.2969 -0.3060
   14SAPS   H3Y 1816   5.650   5.182   6.650  0.9227  1.2787 -2.9156
   14SAPS   C34 1817   5.521   5.233   6.822 -0.7988 -0.5377 -0.1908
   14SAPS   H4X 1818   5.463   5.138   6.825  0.9614 -1.5886  1.0207
   14SAPS   H4Y 1819   5.452   5.316   6.846 -0.3654 -0.5304  1.0431
   14SAPS   C35 1820   5.640   5.219   6.912 -0.7759  0.3230 -0.3529
   14SAPS   H5X 1821   5.690   5.318   6.916  0.9905 -0.5386 -0.8254
   14SAPS   H5Y 1822   5.708   5.137   6.879 -1.6052 -0.0989 -1.0469
   14SAPS   C36 1823   5.614   5.175   7.058  0.2311  0.0534 -0.2513
   14SAPS   H6X 1824   5.719   5.156   7.089  0.2127  2.3892  1.3711
   14SAPS   H6Y 1825   5.552   5.085   7.077 -0.1720  0.5966  1.0699
   14SAPS   C37 1826   5.571   5.290   7.150  0.5799  0.5012  0.0048
   14SAPS   H7X 1827   5.460   5.288   7.150  0.5796 -0.0424  0.8746
   14SAPS   H7Y 1828   5.594   5.388   7.105 -1.5030  0.2288 -1.7470
   14SAPS   C38 1829   5.626   5.285   7.298 -0.0903 -0.4483 -0.6106
   14SAPS   H8X 1830   5.597   5.380   7.347  2.3408 -0.6751  1.3874
   14SAPS   H8Y 1831   5.735   5.272   7.316 -0.4793 -1.3412  1.2755
   14SAPS   C39 1832   5.547   5.173   7.375 -0.4382 -0.0793  0.2438
   14SAPS   H9X 1833   5.587   5.076   7.340 -0.3107 -0.1762  0.6588
   14SAPS   H9Y 1834   5.438   5.186   7.359 -0.6135  0.4110  1.8119
   14SAPS  C310 1835   5.549   5.197   7.527  0.7826 -0.2860  0.5252
   14SAPS  H10X 1836   5.523   5.304   7.544 -2.3465 -0.7543 -0.8638
   14SAPS  H10Y 1837   5.650   5.176   7.566 -0.0319 -1.0457  2.2828
   14SAPS  C311 1838   5.456   5.099   7.594  0.0789 -0.0747 -0.0055
   14SAPS  H11X 1839   5.485   4.992   7.592 -0.4514 -0.2103 -3.6911
   14SAPS  H11Y 1840   5.358   5.102   7.542  0.5976 -1.3623 -1.0953
   14SAPS  C312 1841   5.429   5.131   7.743 -0.4596 -0.1406  0.7611
   14SAPS  H12X 1842   5.384   5.233   7.743  0.6516  0.3633 -0.2656
   14SAPS  H12Y 1843   5.530   5.142   7.789  0.5055 -1.9541 -0.8865
   14SAPS  C313 1844   5.331   5.041   7.816 -0.0963 -0.1300  0.0817
   14SAPS  H13X 1845   5.384   4.945   7.833 -3.0076 -1.9833 -0.8549
   14SAPS  H13Y 1846   5.247   5.031   7.744 -1.0018 -1.0723  1.2204
   14SAPS  C314 1847   5.282   5.098   7.950  0.0078  0.1719 -0.0601
   14SAPS  H14X 1848   5.242   5.200   7.933  0.3754  0.4565  0.7617
   14SAPS  H14Y 1849   5.359   5.111   8.029  0.5878  1.9029 -0.8769
   14SAPS  C315 1850   5.172   5.015   8.007  0.1199  0.5527  0.0154
   14SAPS  H15X 1851   5.096   4.989   7.930 -2.1885 -1.8015  2.9859
   14SAPS  H15Y 1852   5.119   5.084   8.077  1.9789  1.7876  0.2391
   14SAPS  C316 1853   5.220   4.885   8.076 -0.7113 -0.0304 -0.9363
   14SAPS  H16X 1854   5.291   4.917   8.155  1.2659 -1.2008 -2.1808
   14SAPS  H16Y 1855   5.292   4.837   8.005 -1.2185 -0.4221 -1.1889
   14SAPS  C317 1856   5.115   4.786   8.130 -0.8652 -0.0718  0.7892
   14SAPS  H17X 1857   5.151   4.710   8.203  0.5411  0.7982  1.0180
   14SAPS  H17Y 1858   5.081   4.728   8.042 -2.3914  0.4951  0.9940
   14SAPS  C318 1859   5.001   4.867   8.197  0.6060 -0.3949 -0.4302
   14SAPS  H18X 1860   5.046   4.935   8.272 -2.8781 -1.0945  2.4370
   14SAPS  H18Y 1861   4.935   4.794   8.248 -0.2428  0.4012 -0.3671
   14SAPS  H18Z 1862   4.942   4.918   8.118  0.8933 -0.9018 -0.9815
   15SAPS     N 1863   6.000   5.301   5.573 -0.1821  0.4520 -0.3313
   15SAPS   HN1 1864   6.044   5.211   5.601  1.6794  0.9315 -1.6074
   15SAPS   HN2 1865   5.900   5.288   5.597 -0.9122 -1.7906 -4.1856
   15SAPS   HN3 1866   6.008   5.314   5.470 -0.9170  0.1122 -0.4352
   15SAPS   C12 1867   6.050   5.422   5.644 -0.2430 -0.1507 -0.3595
   15SAPS  H12A 1868   6.156   5.431   5.625 -0.3298  2.3031  0.0941
   15SAPS   C13 1869   5.993   5.550   5.584  0.4386 -0.2825  0.7650
   15SAPS  O13A 1870   5.896   5.549   5.504 -0.1633  0.2004 -0.0403
   15SAPS  O13B 1871   6.054   5.654   5.617 -0.1075  0.2329  0.1956
   15SAPS   C11 1872   6.027   5.410   5.800  0.0188 -0.2897 -0.0344
   15SAPS  H11A 1873   5.917   5.422   5.808  0.2428  1.4628  0.7595
   15SAPS  H11B 1874   6.073   5.496   5.854 -0.3526 -1.2356  1.8168
   15SAPS     P 1875   6.223   5.270   5.903 -0.2091  0.0710 -0.1277
   15SAPS   O13 1876   6.241   5.141   5.979  0.4354 -0.3698 -0.8397
   15SAPS   O14 1877   6.316   5.303   5.791 -1.0621 -0.1282 -0.3358
   15SAPS   O12 1878   6.076   5.284   5.850 -0.2690  0.3650  0.3876
   15SAPS   O11 1879   6.228   5.386   6.015  0.6854 -0.5235 -0.0351
   15SAPS    C1 1880   6.143   5.378   6.129  0.4530  0.1471  0.4729
   15SAPS    HA 1881   6.123   5.482   6.161  1.2380  0.6563 -0.6417
   15SAPS    HB 1882   6.042   5.336   6.112  1.8084 -3.0859  0.0595
   15SAPS    C2 1883   6.210   5.323   6.253 -0.0746 -0.3061 -0.6484
   15SAPS    HS 1884   6.223   5.212   6.251 -0.0480 -0.3891  2.0641
   15SAPS   O21 1885   6.136   5.357   6.368 -0.1157  0.1971 -1.0155
   15SAPS   C21 1886   6.141   5.281   6.469 -0.0588 -0.3128 -0.4506
   15SAPS   O22 1887   6.200   5.173   6.474 -0.6628  1.0539 -0.1009
   15SAPS   C22 1888   6.069   5.332   6.586 -0.1735  0.0413  0.4390
   15SAPS   H2R 1889   6.087   5.441   6.595 -0.7361  0.1403  0.3926
   15SAPS   H2S 1890   5.961   5.315   6.569 -0.1971 -0.8617  1.4464
   15SAPS    C3 1891   6.355   5.386   6.274  0.6256  0.8454  0.5747
   15SAPS    HX 1892   6.345   5.496   6.261 -0.7276  0.6628  0.1053
   15SAPS    HY 1893   6.415   5.347   6.190 -0.1906  1.0238 -0.0901
   15SAPS   O31 1894   6.427   5.365   6.403 -0.0179  0.6486 -0.4862
   15SAPS   C31 1895   6.527   5.280   6.400 -0.0403 -0.4220 -0.4983
   15SAPS   O32 1896   6.537   5.186   6.325 -0.7437 -0.0434 -0.1391
   15SAPS   C32 1897   6.622   5.313   6.509 -0.0985  0.1034 -0.5575
   15SAPS   H2X 1898   6.660   5.417   6.503 -0.3958  0.4633  2.6544
   15SAPS   H2Y 1899   6.709   5.251   6.481 -0.9985 -1.8901  0.9493
   15SAPS   C23 1900   6.117   5.252   6.711 -0.2413 -0.5838 -0.2158
   15SAPS   H3R 1901   6.225   5.262   6.734  0.0497  0.0489 -1.8062
   15SAPS   H3S 1902   6.106   5.143   6.693  1.1237 -0.7286 -0.2601
   15SAPS   C24 1903   6.033   5.283   6.840 -0.4827  0.1580  0.2453
   15SAPS   H4R 1904   5.931   5.269   6.798  0.6147 -2.3483 -1.6835
   15SAPS   H4S 1905   6.054   5.390   6.864  2.2921 -0.6285  1.5019
   15SAPS   C25 1906   6.048   5.184   6.950  0.1112  0.0709  0.3362
   15SAPS   H5R 1907   6.044   5.079   6.919 -1.5263  0.3964 -0.6474
   15SAPS   C26 1908   6.060   5.203   7.080  0.2336 -0.9522 -1.1496
   15SAPS   H6R 1909   6.071   5.120   7.151  2.0053  0.7711  0.6849
   15SAPS   C27 1910   6.069   5.344   7.144 -0.8386 -0.9165 -0.3684
   15SAPS   H7R 1911   6.154   5.399   7.097 -0.9356 -0.3007  0.1696
   15SAPS   H7S 1912   6.099   5.336   7.251  0.1247 -0.5996 -0.6071
   15SAPS   C28 1913   5.939   5.417   7.150 -0.3365  0.1790  0.2460
   15SAPS   H8R 1914   5.849   5.366   7.111  0.1180 -0.2630 -0.2260
   15SAPS   C29 1915   5.923   5.527   7.224  0.0561 -0.0980  0.3549
   15SAPS   H9R 1916   5.820   5.565   7.234 -0.5922 -1.8592  0.5553
   15SAPS  C210 1917   6.018   5.602   7.308  0.1253  1.0161  0.0000
   15SAPS  H10R 1918   6.112   5.619   7.252 -0.1368 -0.6822 -0.9861
   15SAPS  H10S 1919   6.049   5.538   7.393  2.4999  2.2502  0.0993
   15SAPS  C211 1920   5.974   5.742   7.347  0.5076 -0.1989 -0.0287
   15SAPS  H11R 1921   5.920   5.794   7.266  1.8847 -1.1490 -1.5834
   15SAPS  C212 1922   5.997   5.792   7.466 -0.1763 -0.2913 -0.7151
   15SAPS  H12R 1923   5.963   5.893   7.494 -0.4849 -1.0235  1.6198
   15SAPS  C213 1924   6.054   5.719   7.587 -0.1571  0.4259  0.5182
   15SAPS  H13R 1925   6.146   5.668   7.552 -0.6240  0.1940 -0.4038
   15SAPS  H13S 1926   5.976   5.647   7.621  0.6658 -0.4254  0.6009
   15SAPS  C214 1927   6.109   5.802   7.702  0.4166  0.2236  0.1354
   15SAPS  H14R 1928   6.205   5.855   7.691  0.3284  0.7537  1.7640
   15SAPS  C215 1929   6.053   5.827   7.826 -1.3701 -0.0620 -0.1886
   15SAPS  H15R 1930   6.090   5.898   7.902 -2.9905 -0.8355  1.3587
   15SAPS  C216 1931   5.919   5.772   7.856  0.1501  0.0975 -0.1283
   15SAPS  H16R 1932   5.930   5.664   7.877 -0.5233 -0.1664 -1.1363
   15SAPS  H16S 1933   5.847   5.771   7.772 -1.2587 -4.1484  1.0025
   15SAPS  C217 1934   5.843   5.823   7.980  0.2720 -0.1378  0.4805
   15SAPS  H17R 1935   5.740   5.785   7.963 -0.8075  1.8019  2.4662
   15SAPS  H17S 1936   5.842   5.934   7.988 -1.7739 -0.0415 -0.6677
   15SAPS  C218 1937   5.877   5.773   8.118  0.0204  0.3446 -0.1992
   15SAPS  H18R 1938   5.982   5.801   8.142  0.3452 -0.6738 -0.4157
   15SAPS  H18S 1939   5.880   5.663   8.135  3.6091  0.5463  0.9282
   15SAPS  C219 1940   5.775   5.817   8.225 -0.3554  0.2401  0.5276
   15SAPS  H19R 1941   5.673   5.824   8.180 -0.0397 -0.9847 -0.4255
   15SAPS  H19S 1942   5.802   5.918   8.262 -0.5322 -0.1121  1.6363
   15SAPS  C220 1943   5.762   5.716   8.341 -0.5262  0.1138  0.1599
   15SAPS  H20R 1944   5.731   5.613   8.315 -0.4832  0.6116 -1.9951
   15SAPS  H20S 1945   5.698   5.759   8.421 -2.9566 -2.4445 -0.3375
   15SAPS  H20T 1946   5.862   5.714   8.389 -0.4041 -1.3792 -0.1574
   15SAPS   C33 1947   6.585   5.263   6.651 -0.3061 -0.4317  0.6611
   15SAPS   H3X 1948   6.478   5.286   6.669 -0.3831  1.1320 -1.5386
   15SAPS   H3Y 1949   6.657   5.320   6.714  0.2442  1.5668 -1.6906
   15SAPS   C34 1950   6.614   5.119   6.670 -0.5207 -0.0464  0.6652
   15SAPS   H4X 1951   6.722   5.102   6.687 -0.9564 -0.9427  2.6868
   15SAPS   H4Y 1952   6.597   5.061   6.577 -2.1381 -0.4152  1.1673
   15SAPS   C35 1953   6.547   5.047   6.778  0.2781  0.7689 -0.3602
   15SAPS   H5X 1954   6.578   4.940   6.779  0.6539  0.8760  0.9885
   15SAPS   H5Y 1955   6.436   5.051   6.778  0.3151  1.9142  0.2832
   15SAPS   C36 1956   6.579   5.102   6.914 -0.3993  0.0822 -0.2073
   15SAPS   H6X 1957   6.571   5.213   6.910  0.5032  0.1441 -0.1941
   15SAPS   H6Y 1958   6.682   5.077   6.946  0.7387  1.4073 -2.7009
   15SAPS   C37 1959   6.486   5.054   7.031  0.2056 -0.0600 -0.3079
   15SAPS   H7X 1960   6.495   4.946   7.052 -3.4814 -0.0365  1.8263
   15SAPS   H7Y 1961   6.381   5.074   6.999 -0.1758 -0.4286  0.6878
   15SAPS   C38 1962   6.494   5.131   7.169  0.6090  0.9175  0.7689
   15SAPS   H8X 1963   6.490   5.238   7.140 -0.9249  0.9407  1.0305
   15SAPS   H8Y 1964   6.595   5.113   7.212  1.9782 -0.4066 -2.8349
   15SAPS   C39 1965   6.394   5.086   7.277 -0.1061 -0.0841  0.1277
   15SAPS   H9X 1966   6.372   4.978   7.282 -2.0598  0.3276  0.9719
   15SAPS   H9Y 1967   6.296   5.139   7.268 -0.5201 -0.9008 -0.2511
   15SAPS  C310 1968   6.451   5.144   7.415 -0.5968 -0.5424  0.0298
   15SAPS  H10X 1969   6.496   5.245   7.406  3.4816 -1.8891  3.5250
   15SAPS  H10Y 1970   6.539   5.081   7.442  1.4574  1.6251 -1.4021
   15SAPS  C311 1971   6.361   5.138   7.541  0.8383 -0.1865 -0.3154
   15SAPS  H11X 1972   6.264   5.088   7.520  0.4595 -0.0059  0.9972
   15SAPS  H11Y 1973   6.324   5.238   7.572 -0.1778  0.0781 -2.3045
   15SAPS  C312 1974   6.426   5.065   7.665  0.3449 -0.3111  0.1121
   15SAPS  H12X 1975   6.465   4.965   7.638 -0.3413  0.0180 -2.1902
   15SAPS  H12Y 1976   6.355   5.060   7.751 -0.7919  1.1500 -0.7188
   15SAPS  C313 1977   6.551   5.142   7.710  0.6518 -0.1302 -0.1357
   15SAPS  H13X 1978   6.563   5.250   7.685  0.5544 -0.0157  0.2982
   15SAPS  H13Y 1979   6.646   5.110   7.662  0.7307  2.2078 -1.6000
   15SAPS  C314 1980   6.568   5.126   7.866 -0.5021  0.3092 -0.2858
   15SAPS  H14X 1981   6.573   5.018   7.891  0.7948 -0.4531 -3.5375
   15SAPS  H14Y 1982   6.471   5.151   7.914 -1.0544  0.4483 -1.4476
   15SAPS  C315 1983   6.662   5.220   7.928 -0.6467  0.2512 -0.1044
   15SAPS  H15X 1984   6.641   5.321   7.887  2.3293  0.4847 -1.1976
   15SAPS  H15Y 1985   6.768   5.215   7.894 -0.5329 -0.5375  0.3399
   15SAPS  C316 1986   6.662   5.220   8.080 -0.7832 -0.0591 -0.6505
   15SAPS  H16X 1987   6.568   5.251   8.130 -0.5807  0.2611 -0.4616
   15SAPS  H16Y 1988   6.747   5.284   8.114 -0.3537 -1.1929  0.4417
   15SAPS  C317 1989   6.695   5.078   8.128  0.2817 -0.0574 -0.2501
   15SAPS  H17X 1990   6.773   5.025   8.068  2.3388  0.9106  1.5237
   15SAPS  H17Y 1991   6.601   5.023   8.110 -0.0022  0.5862 -0.7434
   15SAPS  C318 1992   6.740   5.074   8.271  0.2355 -0.4017  0.8194
   15SAPS  H18X 1993   6.664   5.113   8.343  1.4196  1.0529  1.3231
   15SAPS  H18Y 1994   6.833   5.133   8.282 -0.4296  1.0997 -1.3838
   15SAPS  H18Z 1995   6.749   4.966   8.294 -0.0488 -0.5126  0.4044
   16SAPS     N 1996   1.205   0.305   6.440  0.5912  0.2619  0.3571
   16SAPS   HN1 1997   1.291   0.267   6.485 -1.4309 -1.9167  2.5807
   16SAPS   HN2 1998   1.230   0.369   6.362  0.3700  0.4762  0.4600
   16SAPS   HN3 1999   1.154   0.359   6.513  2.4798  1.6597  0.6769
   16SAPS   C12 2000   1.130   0.201   6.370  0.1586  0.4301  0.2232
   16SAPS  H12A 2001   1.030   0.239   6.357  0.8015  2.0060 -0.2612
   16SAPS   C13 2002   1.191   0.175   6.231 -0.1590 -0.3163 -0.1303
   16SAPS  O13A 2003   1.299   0.225   6.193  0.2160 -0.6228 -0.4489
   16SAPS  O13B 2004   1.125   0.114   6.148  0.3090  0.1700  0.2053
   16SAPS   C11 2005   1.124   0.072   6.454  0.0563 -1.2022 -0.5841
   16SAPS  H11A 2006   1.224   0.025   6.448  0.5745 -0.0644 -0.8756
   16SAPS  H11B 2007   1.047   0.006   6.409 -1.6418  2.0292 -2.5858
   16SAPS     P 2008   1.070  -0.008   6.701  0.2920 -0.0069  0.3146
   16SAPS   O13 2009   1.093  -0.140   6.639 -0.3553  0.1204 -0.6227
   16SAPS   O14 2010   1.157   0.025   6.818 -0.3620  0.0254 -0.6456
   16SAPS   O12 2011   1.083   0.104   6.590 -0.7029  0.5455 -0.3631
   16SAPS   O11 2012   0.917   0.010   6.745  0.3449 -0.1138  0.4508
   16SAPS    C1 2013   0.869   0.139   6.778  0.9935 -0.4371  0.3329
   16SAPS    HA 2014   0.896   0.211   6.698 -0.3206 -1.0645 -0.7045
   16SAPS    HB 2015   0.758   0.131   6.771  1.0227 -0.0266 -0.6594
   16SAPS    C2 2016   0.906   0.186   6.915 -0.4007  0.0639  0.1122
   16SAPS    HS 2017   1.017   0.190   6.909 -0.4061 -0.1709 -0.1215
   16SAPS   O21 2018   0.846   0.101   7.010  0.0591 -0.0598 -0.1842
   16SAPS   C21 2019   0.920   0.073   7.120  0.5178  0.1489  0.5930
   16SAPS   O22 2020   1.035   0.109   7.132 -0.1781 -0.3643  0.0579
   16SAPS   C22 2021   0.833  -0.018   7.202  0.6319  0.1434 -0.2180
   16SAPS   H2R 2022   0.730   0.022   7.211  1.1237  0.7595  3.4162
   16SAPS   H2S 2023   0.829  -0.115   7.149 -3.0444  0.9644 -1.5370
   16SAPS    C3 2024   0.850   0.328   6.944  0.0900 -0.5186  0.2891
   16SAPS    HX 2025   0.740   0.323   6.934  0.0603  0.8008 -0.1586
   16SAPS    HY 2026   0.884   0.398   6.864  1.5438 -0.6880  0.7388
   16SAPS   O31 2027   0.884   0.368   7.075  0.1089 -0.0191 -0.6840
   16SAPS   C31 2028   1.009   0.427   7.083  0.4199 -0.2887 -0.4639
   16SAPS   O32 2029   1.087   0.435   6.992 -0.2397  0.2809  0.1322
   16SAPS   C32 2030   1.041   0.463   7.234  0.2839  0.4039  0.3754
   16SAPS   H2X 2031   1.142   0.506   7.251  0.3680  0.0892  0.6626
   16SAPS   H2Y 2032   1.031   0.370   7.294 -1.0962 -0.5311 -1.2565
   16SAPS   C23 2033   0.889  -0.035   7.344  0.1301  0.1376  0.3843
   16SAPS   H3R 2034   0.986  -0.088   7.329  0.3962  0.9955 -1.0509
   16SAPS   H3S 2035   0.822  -0.102   7.402  0.8512  1.6003  2.9815
   16SAPS   C24 2036   0.909   0.094   7.426 -0.5967  0.4354 -0.2036
   16SAPS   H4R 2037   0.803   0.126   7.436 -0.7744 -0.0694 -0.4625
   16SAPS   H4S 2038   0.958   0.174   7.367 -0.7977 -0.1344 -1.1615
   16SAPS   C25 2039   0.991   0.052   7.550 -0.2473  0.1425  0.6648
   16SAPS   H5R 2040   1.099   0.038   7.534 -0.1504  0.9481  0.6112
   16SAPS   C26 2041   0.937   0.024   7.671  0.7394  0.3733 -0.4006
   16SAPS   H6R 2042   0.999  -0.009   7.756  0.6179  1.0421 -0.0457
   16SAPS   C27 2043   0.792   0.030   7.715 -0.1161  0.7758 -0.0633
   16SAPS   H7R 2044   0.752  -0.073   7.721  1.6433  0.0331 -0.7552
   16SAPS   H7S 2045   0.728   0.074   7.635 -1.3961  0.1670  0.6020
   16SAPS   C28 2046   0.769   0.103   7.849  0.6327  0.2532  0.1135
   16SAPS   H8R 2047   0.811   0.204   7.861  2.5723 -0.5707  0.3621
   16SAPS   C29 2048   0.689   0.051   7.946 -0.0439 -0.6472  0.2764
   16SAPS   H9R 2049   0.679   0.120   8.031 -1.1081 -1.2781  0.6618
   16SAPS  C210 2050   0.606  -0.074   7.945  0.2881  0.4554 -0.0241
   16SAPS  H10R 2051   0.682  -0.156   7.945 -0.4996 -0.3029 -2.6174
   16SAPS  H10S 2052   0.558  -0.077   7.845 -2.0586  0.2997  1.0768
   16SAPS  C211 2053   0.502  -0.107   8.058  0.1562  0.1985  0.0033
   16SAPS  H11R 2054   0.398  -0.084   8.029  0.4628 -0.3426 -1.5279
   16SAPS  C212 2055   0.530  -0.147   8.183 -0.2768 -0.4526 -0.0963
   16SAPS  H12R 2056   0.445  -0.173   8.248 -0.2629  2.6772  1.2870
   16SAPS  C213 2057   0.668  -0.175   8.239  0.4818  0.1947  1.1444
   16SAPS  H13R 2058   0.697  -0.100   8.315  3.7149  0.4238 -0.2560
   16SAPS  H13S 2059   0.746  -0.165   8.161 -2.0782  1.7509 -1.3133
   16SAPS  C214 2060   0.669  -0.318   8.284 -0.1010  0.0450 -0.0300
   16SAPS  H14R 2061   0.634  -0.390   8.210 -0.1978  1.1182 -1.0485
   16SAPS  C215 2062   0.731  -0.353   8.395 -0.3340 -0.8362 -1.0221
   16SAPS  H15R 2063   0.736  -0.460   8.418 -0.0566 -1.0568 -2.0875
   16SAPS  C216 2064   0.809  -0.260   8.488 -0.6073 -0.3419 -0.3749
   16SAPS  H16R 2065   0.825  -0.153   8.463 -0.6397 -0.2025  0.1850
   16SAPS  H16S 2066   0.911  -0.299   8.507  0.8048  2.0936 -2.5613
   16SAPS  C217 2067   0.736  -0.253   8.619 -0.0129  1.1262  0.7538
   16SAPS  H17R 2068   0.641  -0.196   8.605 -0.5501 -0.3371 -2.0560
   16SAPS  H17S 2069   0.790  -0.175   8.677 -0.2898 -1.7231  5.0290
   16SAPS  C218 2070   0.726  -0.376   8.709  0.5784 -0.1145 -0.2898
   16SAPS  H18R 2071   0.675  -0.458   8.653  1.3008 -1.3284  0.7825
   16SAPS  H18S 2072   0.652  -0.338   8.782 -0.6436 -1.7896 -0.6098
   16SAPS  C219 2073   0.858  -0.437   8.770  0.2523  0.0692  1.0298
   16SAPS  H19R 2074   0.826  -0.455   8.875  0.7805 -1.2827  0.9675
   16SAPS  H19S 2075   0.942  -0.367   8.788  0.5509 -0.0831  0.2484
   16SAPS  C220 2076   0.903  -0.565   8.701  0.0779  0.0696 -0.8911
   16SAPS  H20R 2077   0.825  -0.643   8.714  0.8665 -1.1812 -3.3269
   16SAPS  H20S 2078   1.000  -0.591   8.749 -0.0564 -1.9442 -1.6762
   16SAPS  H20T 2079   0.927  -0.545   8.594 -1.5543 -1.0907 -1.4965
   16SAPS   C33 2080   0.945   0.581   7.285  0.1401 -0.4600  0.1368
   16SAPS   H3X 2081   0.836   0.574   7.263 -0.3014 -0.2042  2.1230
   16SAPS   H3Y 2082   0.977   0.669   7.226 -1.5327  0.5006  0.6078
   16SAPS   C34 2083   0.958   0.612   7.439  0.4254  0.5074  0.0061
   16SAPS   H4X 2084   0.949   0.722   7.447 -1.0172  0.3876  0.2802
   16SAPS   H4Y 2085   1.060   0.579   7.465  0.2420 -0.2217 -0.1836
   16SAPS   C35 2086   0.850   0.544   7.528  0.2735 -0.3482 -0.1715
   16SAPS   H5X 2087   0.872   0.447   7.577 -0.1214 -0.1033  0.4980
   16SAPS   H5Y 2088   0.757   0.524   7.469 -0.4672  0.3257  0.7619
   16SAPS   C36 2089   0.797   0.647   7.634 -0.8265  0.1231  0.1223
   16SAPS   H6X 2090   0.766   0.739   7.581 -0.4548  0.6587  0.8190
   16SAPS   H6Y 2091   0.870   0.682   7.711 -1.3562 -2.8012  2.0365
   16SAPS   C37 2092   0.679   0.586   7.720  0.4085 -0.2201 -0.2733
   16SAPS   H7X 2093   0.693   0.477   7.730 -1.0233 -0.4428 -0.5139
   16SAPS   H7Y 2094   0.580   0.607   7.674 -0.7075  1.0426  2.5558
   16SAPS   C38 2095   0.668   0.637   7.863 -0.4157  0.1201 -0.3962
   16SAPS   H8X 2096   0.680   0.747   7.863  0.4219  0.0340 -1.0504
   16SAPS   H8Y 2097   0.757   0.602   7.919 -2.6982 -2.0645  1.9688
   16SAPS   C39 2098   0.542   0.586   7.930  0.0175  0.1195 -0.9367
   16SAPS   H9X 2099   0.531   0.476   7.917 -1.1791  0.2919 -1.5118
   16SAPS   H9Y 2100   0.450   0.636   7.891 -0.3431  0.8177  0.7890
   16SAPS  C310 2101   0.536   0.595   8.083 -0.2687 -0.5739 -0.1920
   16SAPS  H10X 2102   0.564   0.701   8.099 -0.9663 -0.4315  0.1475
   16SAPS  H10Y 2103   0.623   0.544   8.129  0.4613  1.5282  0.8284
   16SAPS  C311 2104   0.408   0.559   8.160 -0.2007 -0.7290  0.3387
   16SAPS  H11X 2105   0.324   0.589   8.094  0.9057  0.2608 -0.6335
   16SAPS  H11Y 2106   0.398   0.615   8.256  0.5254 -0.8710  0.5031
   16SAPS  C312 2107   0.384   0.410   8.191  0.1905 -0.8436 -0.2975
   16SAPS  H12X 2108   0.380   0.352   8.096 -1.7625  0.9131 -1.3461
   16SAPS  H12Y 2109   0.293   0.387   8.251  0.8632  0.0256  1.0725
   16SAPS  C313 2110   0.505   0.349   8.261  0.6816  0.5369  0.4562
   16SAPS  H13X 2111   0.553   0.420   8.332  0.4880  1.3825 -0.2415
   16SAPS  H13Y 2112   0.585   0.318   8.190 -0.4421 -0.1416 -0.5274
   16SAPS  C314 2113   0.469   0.218   8.338 -0.1589  0.2509 -0.1629
   16SAPS  H14X 2114   0.443   0.133   8.272  0.3041  1.2107 -1.6133
   16SAPS  H14Y 2115   0.389   0.259   8.404 -0.8875 -2.5060  0.7011
   16SAPS  C315 2116   0.575   0.168   8.431  0.2068 -0.5913 -0.8728
   16SAPS  H15X 2117   0.662   0.140   8.367  0.1520 -0.2204 -1.1075
   16SAPS  H15Y 2118   0.549   0.072   8.479 -1.1187  0.4017  0.4456
   16SAPS  C316 2119   0.623   0.268   8.537  0.3227  0.3833  0.3654
   16SAPS  H16X 2120   0.535   0.303   8.595  0.4774  0.5719  0.4890
   16SAPS  H16Y 2121   0.667   0.355   8.484  2.9861 -2.0324 -1.5360
   16SAPS  C317 2122   0.733   0.215   8.634 -0.4049  0.2869  0.1215
   16SAPS  H17X 2123   0.822   0.179   8.577  1.4162  2.4387  1.5534
   16SAPS  H17Y 2124   0.691   0.128   8.690  1.6074 -1.8798 -1.6396
   16SAPS  C318 2125   0.772   0.320   8.738  0.6908  0.0515 -0.3540
   16SAPS  H18X 2126   0.687   0.380   8.778  0.3008 -0.5419 -0.2825
   16SAPS  H18Y 2127   0.852   0.381   8.692 -0.0468 -0.5833 -2.5222
   16SAPS  H18Z 2128   0.817   0.266   8.824 -1.4941 -1.5612 -0.1522
   17SAPC     N 2129   5.197   3.290  10.452  0.0347 -0.0473 -0.5989
   17SAPC   C12 2130   5.182   3.189  10.335  0.5347 -0.1226 -0.2384
   17SAPC  H12A 2131   5.274   3.192  10.278  0.9580 -0.4420  0.4245
   17SAPC  H12B 2132   5.112   3.229  10.263 -0.4460 -2.0428 -0.3724
   17SAPC   C13 2133   5.308   3.254  10.540 -0.0729  0.2493 -0.0483
   17SAPC  H13A 2134   5.281   3.172  10.605 -1.6004  0.1376 -0.8010
   17SAPC  H13B 2135   5.394   3.213  10.490 -0.1604 -3.0642  2.3560
   17SAPC  H13C 2136   5.335   3.335  10.606 -1.7181 -0.2089  1.2144
   17SAPC   C14 2137   5.221   3.428  10.393  0.3668  0.1660 -0.1660
   17SAPC  H14A 2138   5.315   3.450  10.346  0.5599 -0.8697 -0.2593
   17SAPC  H14B 2139   5.154   3.451  10.312  0.9442  0.3067 -0.6009
   17SAPC  H14C 2140   5.226   3.495  10.478 -2.0279 -0.7922  0.7737
   17SAPC   C15 2141   5.075   3.293  10.528  1.2800 -0.2462 -0.5670
   17SAPC  H15A 2142   5.065   3.207  10.593  1.0707  0.3465  0.1797
   17SAPC  H15B 2143   5.075   3.377  10.595 -0.3099 -0.4776 -0.2537
   17SAPC  H15C 2144   4.990   3.299  10.461 -1.3556 -1.0302  2.6023
   17SAPC   C11 2145   5.135   3.051  10.371 -0.3882  0.0148 -0.1428
   17SAPC  H11A 2146   5.115   2.995  10.277  2.5498 -1.9696  0.3498
   17SAPC  H11B 2147   5.035   3.051  10.419  0.2377  0.7442  1.1925
   17SAPC     P 2148   5.367   2.923  10.398 -0.0851 -0.4139 -0.0062
   17SAPC   O13 2149   5.470   3.020  10.440  0.4163  0.9848 -0.1875
   17SAPC   O14 2150   5.401   2.784  10.444  0.2181  0.5363  0.2837
   17SAPC   O12 2151   5.225   2.971  10.450  0.0528  0.4823 -0.2361
   17SAPC   O11 2152   5.362   2.949  10.243  0.1412 -0.2846 -0.0257
   17SAPC    C1 2153   5.300   2.850  10.153  0.1574  0.0273  0.1877
   17SAPC    HA 2154   5.281   2.756  10.209 -0.2988 -1.9662 -3.1586
   17SAPC    HB 2155   5.202   2.887  10.117 -0.1425 -0.5711  0.3872
   17SAPC    C2 2156   5.380   2.841  10.025  0.4933  0.4976 -0.3415
   17SAPC    HS 2157   5.341   2.770   9.948 -1.3849  1.6460 -0.4762
   17SAPC   O21 2158   5.509   2.802  10.066 -0.3384  0.7124 -0.2552
   17SAPC   C21 2159   5.526   2.683  10.119  0.3533 -0.7965  0.4352
   17SAPC   O22 2160   5.436   2.595  10.130  0.4720 -0.3050 -0.2969
   17SAPC   C22 2161   5.671   2.656  10.144  0.3860  0.4731  0.1423
   17SAPC   H2R 2162   5.724   2.753  10.151  0.4901  0.6193 -2.4600
   17SAPC   H2S 2163   5.687   2.594  10.235  0.3779  1.1575  0.6132
   17SAPC    C3 2164   5.393   2.974   9.952  0.2180  0.2439  0.4708
   17SAPC    HX 2165   5.432   3.042  10.031  1.3908 -1.3515  1.2876
   17SAPC    HY 2166   5.290   3.006   9.924  1.0563  1.4697 -1.3059
   17SAPC   O31 2167   5.475   2.971   9.837  0.5734  0.2745  0.1474
   17SAPC   C31 2168   5.606   2.992   9.858  0.1881 -0.2851 -0.1963
   17SAPC   O32 2169   5.656   3.019   9.965  0.2993  0.0739  0.0663
   17SAPC   C32 2170   5.689   2.977   9.733 -0.2006  0.1258  0.4179
   17SAPC   H2X 2171   5.682   2.869   9.710  1.1769 -0.1697  1.3525
   17SAPC   H2Y 2172   5.793   2.992   9.767  0.5826 -1.7268 -1.0804
   17SAPC   C23 2173   5.753   2.556  10.048  0.0498 -0.5102 -0.3962
   17SAPC   H3R 2174   5.694   2.462  10.054  0.5585 -0.7482  1.0111
   17SAPC   H3S 2175   5.855   2.549  10.091 -0.6724  0.6162  1.5425
   17SAPC   C24 2176   5.763   2.613   9.908 -0.4803 -0.5743 -0.0063
   17SAPC   H4R 2177   5.663   2.643   9.871 -0.8203 -2.3851 -0.5810
   17SAPC   H4S 2178   5.797   2.531   9.842 -0.1160 -0.8624  0.5379
   17SAPC   C25 2179   5.847   2.733   9.881 -0.5670 -0.4802 -0.9267
   17SAPC   H5R 2180   5.812   2.821   9.939 -0.3368 -2.1049  1.7692
   17SAPC   C26 2181   5.963   2.738   9.818 -0.3124 -0.0544  0.0908
   17SAPC   H6R 2182   6.011   2.837   9.805  0.6608 -0.4053  0.9802
   17SAPC   C27 2183   6.025   2.622   9.745  0.1939 -0.2936  0.2322
   17SAPC   H7R 2184   5.958   2.593   9.662 -1.0771  1.8024  0.4985
   17SAPC   H7S 2185   6.024   2.526   9.802 -2.1217  0.9044  2.2955
   17SAPC   C28 2186   6.162   2.649   9.701 -0.2423  0.2530 -0.2396
   17SAPC   H8R 2187   6.242   2.660   9.775  0.7856  0.7441 -1.4062
   17SAPC   C29 2188   6.188   2.686   9.577 -0.0881  1.0394 -0.4743
   17SAPC   H9R 2189   6.286   2.722   9.540 -0.5467  1.2979 -1.4588
   17SAPC  C210 2190   6.093   2.710   9.462 -0.2622  0.4646 -0.2556
   17SAPC  H10R 2191   5.990   2.730   9.497 -0.0777  1.2526 -0.1488
   17SAPC  H10S 2192   6.097   2.622   9.395 -0.9725 -0.1863  0.5507
   17SAPC  C211 2193   6.122   2.840   9.389 -0.0180  0.0889  1.1391
   17SAPC  H11R 2194   6.159   2.920   9.455 -1.9514  1.8826  0.1253
   17SAPC  C212 2195   6.099   2.867   9.260  0.7253 -0.0392 -0.1025
   17SAPC  H12R 2196   6.126   2.966   9.220  0.7510 -0.0067 -0.0075
   17SAPC  C213 2197   6.045   2.771   9.159 -0.3894 -0.1373 -0.0954
   17SAPC  H13R 2198   5.971   2.827   9.097  0.6309 -0.1813 -1.3774
   17SAPC  H13S 2199   5.987   2.695   9.215 -0.6359  0.2302  0.1605
   17SAPC  C214 2200   6.136   2.687   9.076 -0.4383 -0.3983 -0.0327
   17SAPC  H14R 2201   6.144   2.585   9.115 -0.2939 -0.7052 -0.8652
   17SAPC  C215 2202   6.199   2.722   8.965 -0.1271 -0.3358  0.6140
   17SAPC  H15R 2203   6.255   2.640   8.916  0.4642 -0.1378  0.9630
   17SAPC  C216 2204   6.188   2.858   8.894  0.4189  0.7474 -0.5647
   17SAPC  H16R 2205   6.280   2.920   8.901  0.1980  1.2488 -1.9600
   17SAPC  H16S 2206   6.104   2.911   8.944  2.6300  0.4635  3.6966
   17SAPC  C217 2207   6.154   2.847   8.745  0.3548  0.2455 -0.1002
   17SAPC  H17R 2208   6.062   2.788   8.727  0.9043 -0.7080  0.2018
   17SAPC  H17S 2209   6.238   2.796   8.692 -0.1944 -1.3505  0.5311
   17SAPC  C218 2210   6.115   2.983   8.678 -0.7613 -0.1793 -0.5364
   17SAPC  H18R 2211   6.180   3.066   8.711 -2.8925  1.2597  0.1591
   17SAPC  H18S 2212   6.015   3.001   8.722 -0.1597  0.4546  0.5988
   17SAPC  C219 2213   6.116   2.982   8.525  0.1340 -0.1996  0.0313
   17SAPC  H19R 2214   6.097   3.085   8.487 -1.4439 -0.7843 -0.7946
   17SAPC  H19S 2215   6.032   2.919   8.488  0.3573 -0.3569 -0.2102
   17SAPC  C220 2216   6.247   2.923   8.466  0.4345 -0.1379 -0.2511
   17SAPC  H20R 2217   6.242   2.930   8.356  0.9436 -0.0737 -0.2745
   17SAPC  H20S 2218   6.250   2.814   8.488 -0.2750  0.2466  1.8803
   17SAPC  H20T 2219   6.339   2.975   8.500 -0.1149  1.4779 -1.1844
   17SAPC   C33 2220   5.633   3.043   9.610 -0.3887 -0.3472 -0.5209
   17SAPC   H3X 2221   5.626   3.154   9.618 -0.9090 -0.3078 -1.3962
   17SAPC   H3Y 2222   5.532   3.000   9.592 -1.0828  0.5638  1.0510
   17SAPC   C34 2223   5.716   2.994   9.485 -0.3469  0.1515 -0.3141
   17SAPC   H4X 2224   5.737   2.885   9.489 -2.4973 -0.2413  0.8082
   17SAPC   H4Y 2225   5.815   3.045   9.491 -0.1398 -0.2739 -0.1137
   17SAPC   C35 2226   5.641   3.013   9.353  0.1100  0.2572 -0.2415
   17SAPC   H5X 2227   5.632   3.123   9.340 -4.8062  0.2724  2.0706
   17SAPC   H5Y 2228   5.535   2.978   9.349  0.7874 -1.9974  0.4683
   17SAPC   C36 2229   5.707   2.958   9.229  0.3546 -0.0405 -0.0397
   17SAPC   H6X 2230   5.720   2.849   9.249  0.4613  0.2869  1.8321
   17SAPC   H6Y 2231   5.810   2.996   9.210  0.5084 -1.5431 -2.4465
   17SAPC   C37 2232   5.623   2.987   9.112 -0.0756 -0.5335 -0.3909
   17SAPC   H7X 2233   5.627   3.096   9.091 -0.5170 -0.1117  1.6321
   17SAPC   H7Y 2234   5.518   2.958   9.134 -0.7047  0.9490 -1.3420
   17SAPC   C38 2235   5.671   2.910   8.993  0.5849  1.0990 -0.1186
   17SAPC   H8X 2236   5.651   2.802   9.010  0.5609  0.9653 -0.9697
   17SAPC   H8Y 2237   5.781   2.911   8.975  0.3898 -2.4255 -1.9817
   17SAPC   C39 2238   5.595   2.952   8.867 -0.7301 -0.2886  0.0805
   17SAPC   H9X 2239   5.604   3.063   8.875 -2.6868 -0.1298  0.3043
   17SAPC   H9Y 2240   5.487   2.926   8.875 -0.5697 -1.7609 -2.0540
   17SAPC  C310 2241   5.649   2.897   8.731 -0.4723 -0.3277  0.0426
   17SAPC  H10X 2242   5.760   2.902   8.725 -0.5661 -0.1098 -1.9294
   17SAPC  H10Y 2243   5.620   2.958   8.643  2.2235 -0.5996 -1.0969
   17SAPC  C311 2244   5.615   2.748   8.710  0.0065 -0.4954  0.2382
   17SAPC  H11X 2245   5.509   2.736   8.741 -0.2697 -0.9291 -0.8593
   17SAPC  H11Y 2246   5.673   2.682   8.779 -1.9628 -0.6428  1.8011
   17SAPC  C312 2247   5.622   2.710   8.563 -0.2147  0.4890  0.0549
   17SAPC  H12X 2248   5.563   2.784   8.505  1.3569  0.7902 -1.1881
   17SAPC  H12Y 2249   5.580   2.612   8.533  1.1056 -0.2342  0.5062
   17SAPC  C313 2250   5.767   2.728   8.503 -0.3938 -0.3203  0.9213
   17SAPC  H13X 2251   5.824   2.798   8.568  0.1955 -0.9485  1.0983
   17SAPC  H13Y 2252   5.742   2.769   8.403  4.4019 -0.1005 -0.3229
   17SAPC  C314 2253   5.845   2.594   8.509 -0.1722  0.0361 -0.2433
   17SAPC  H14X 2254   5.791   2.523   8.444  0.4024  0.4209 -1.1537
   17SAPC  H14Y 2255   5.841   2.561   8.615 -2.7410  0.0240 -0.3238
   17SAPC  C315 2256   6.002   2.594   8.486  0.0337  0.4459 -0.0905
   17SAPC  H15X 2257   6.043   2.663   8.562  1.0244 -0.6704  0.3971
   17SAPC  H15Y 2258   6.025   2.636   8.386 -0.9969  1.3241  0.0263
   17SAPC  C316 2259   6.075   2.458   8.494  0.7353  1.0756  0.3158
   17SAPC  H16X 2260   6.069   2.399   8.399 -1.3829 -0.5651  1.4129
   17SAPC  H16Y 2261   6.038   2.393   8.576 -0.5819 -0.3123 -1.3305
   17SAPC  C317 2262   6.227   2.465   8.526  0.1132  0.6943 -0.8477
   17SAPC  H17X 2263   6.282   2.538   8.463 -0.2193  0.7898 -1.0268
   17SAPC  H17Y 2264   6.261   2.364   8.495  0.5625  0.5216  0.1732
   17SAPC  C318 2265   6.242   2.493   8.680  0.8147 -0.1564  0.6226
   17SAPC  H18X 2266   6.192   2.428   8.755 -0.9128  1.0082  0.5313
   17SAPC  H18Y 2267   6.348   2.510   8.706  1.2569 -2.3292  0.2798
   17SAPC  H18Z 2268   6.186   2.587   8.703 -0.9845 -1.4535  1.7447
   18SAPC     N 2269   6.383   2.631  10.778  0.4730  0.4105 -0.0131
   18SAPC   C12 2270   6.238   2.620  10.737  0.2972  0.0378  0.0174
   18SAPC  H12A 2271   6.197   2.719  10.733 -0.4560 -0.2894 -0.4535
   18SAPC  H12B 2272   6.197   2.564  10.821  2.3308  0.4498  1.3186
   18SAPC   C13 2273   6.403   2.730  10.888 -0.1499 -0.5909  0.0053
   18SAPC  H13A 2274   6.347   2.706  10.976 -0.6867  1.8053  0.3520
   18SAPC  H13B 2275   6.508   2.734  10.916 -0.1905  0.6823 -0.0097
   18SAPC  H13C 2276   6.382   2.831  10.856  1.6437 -0.5599 -1.1477
   18SAPC   C14 2277   6.437   2.494  10.823  0.2033  0.8037 -0.1072
   18SAPC  H14A 2278   6.389   2.454  10.911  2.2212 -0.0043  0.6695
   18SAPC  H14B 2279   6.445   2.424  10.741 -1.7808  0.2991  0.1010
   18SAPC  H14C 2280   6.537   2.513  10.858  1.0941 -0.5071 -1.8509
   18SAPC   C15 2281   6.463   2.673  10.653 -0.2068 -0.0222  0.5891
   18SAPC  H15A 2282   6.419   2.749  10.590  0.1364  1.7236  2.4303
   18SAPC  H15B 2283   6.568   2.689  10.674 -0.2165 -1.2579  1.6165
   18SAPC  H15C 2284   6.451   2.582  10.595 -2.3129 -0.1529  1.2052
   18SAPC   C11 2285   6.186   2.545  10.607 -0.5605  0.8320 -0.0203
   18SAPC  H11A 2286   6.215   2.586  10.508  3.0235 -2.2735 -0.3890
   18SAPC  H11B 2287   6.076   2.558  10.611 -0.7816 -0.3351 -1.8410
   18SAPC     P 2288   6.306   2.341  10.513 -0.2668  0.0876  0.1040
   18SAPC   O13 2289   6.413   2.435  10.465 -0.0089 -0.2444 -0.2965
   18SAPC   O14 2290   6.360   2.221  10.577 -0.3584 -0.1182 -0.3417
   18SAPC   O12 2291   6.202   2.407  10.604 -0.3000  0.1215 -0.5079
   18SAPC   O11 2292   6.210   2.306  10.389 -0.3603 -0.0697 -0.1176
   18SAPC    C1 2293   6.237   2.187  10.315 -0.5163  0.3862 -0.5957
   18SAPC    HA 2294   6.253   2.101  10.384  0.2496 -1.4341 -2.9667
   18SAPC    HB 2295   6.146   2.169  10.254 -1.0482  1.8401 -0.2509
   18SAPC    C2 2296   6.358   2.204  10.220 -0.0217  0.2920 -0.0160
   18SAPC    HS 2297   6.432   2.261  10.280  0.3992 -0.9520  0.6552
   18SAPC   O21 2298   6.315   2.284  10.109 -0.9173  0.0164 -0.3782
   18SAPC   C21 2299   6.415   2.346  10.045 -0.5523  0.3155  0.8726
   18SAPC   O22 2300   6.526   2.360  10.091  0.2727 -0.0051  0.2712
   18SAPC   C22 2301   6.374   2.368   9.897  0.1958  0.3192 -0.4264
   18SAPC   H2R 2302   6.302   2.292   9.862 -1.6184  1.7287  0.1220
   18SAPC   H2S 2303   6.326   2.468   9.899 -1.6530 -0.5673  0.4981
   18SAPC    C3 2304   6.405   2.064  10.176 -0.4338  0.3562  0.0986
   18SAPC    HX 2305   6.320   2.022  10.118  0.9644 -0.6028 -1.3086
   18SAPC    HY 2306   6.429   1.996  10.261  2.5862  0.4936 -0.5871
   18SAPC   O31 2307   6.512   2.080  10.082 -0.4923  0.4521  0.6548
   18SAPC   C31 2308   6.629   2.072  10.129  0.7873  0.5745  0.1479
   18SAPC   O32 2309   6.654   2.060  10.246  0.0132  0.3302  0.1450
   18SAPC   C32 2310   6.742   2.092  10.027 -1.1817 -0.3802  0.6525
   18SAPC   H2X 2311   6.835   2.121  10.080 -0.2030  0.3324 -1.3894
   18SAPC   H2Y 2312   6.723   2.176   9.957  2.0516 -1.0940 -1.1776
   18SAPC   C23 2313   6.504   2.355   9.805  0.1590  0.0833 -0.1375
   18SAPC   H3R 2314   6.553   2.256   9.819 -0.0388  0.4821  4.2022
   18SAPC   H3S 2315   6.575   2.439   9.825 -0.2702  0.1594  1.1365
   18SAPC   C24 2316   6.454   2.381   9.665 -0.9880  0.4858 -0.0227
   18SAPC   H4R 2317   6.395   2.474   9.663 -2.6535 -0.5476  0.4989
   18SAPC   H4S 2318   6.390   2.294   9.640 -1.0010  0.0850  1.3449
   18SAPC   C25 2319   6.575   2.378   9.574  0.4437 -0.2205 -0.2394
   18SAPC   H5R 2320   6.674   2.358   9.617  0.0111 -1.6881  0.0798
   18SAPC   C26 2321   6.574   2.398   9.441  0.0233  0.0373  0.0732
   18SAPC   H6R 2322   6.672   2.390   9.392  0.3691 -1.8550  1.0226
   18SAPC   C27 2323   6.447   2.417   9.359  0.2125  0.1166  0.4467
   18SAPC   H7R 2324   6.355   2.407   9.422  0.1632 -1.8473  0.1101
   18SAPC   H7S 2325   6.435   2.334   9.286  0.4942  0.7859 -0.3525
   18SAPC   C28 2326   6.420   2.554   9.307  0.0599  0.6242  0.1871
   18SAPC   H8R 2327   6.352   2.611   9.372  1.5961  1.9178  0.6696
   18SAPC   C29 2328   6.463   2.607   9.193  0.7554  0.1385  0.1651
   18SAPC   H9R 2329   6.418   2.705   9.169 -0.2267 -0.1049  0.9609
   18SAPC  C210 2330   6.554   2.554   9.086  0.3753 -0.5398 -0.3477
   18SAPC  H10R 2331   6.511   2.565   8.984 -1.2977 -1.2837  0.2571
   18SAPC  H10S 2332   6.570   2.445   9.096  2.2804 -0.2317  0.0499
   18SAPC  C211 2333   6.687   2.622   9.092 -0.6556  0.1110  0.0707
   18SAPC  H11R 2334   6.743   2.595   9.182 -0.8365  0.7339  0.3733
   18SAPC  C212 2335   6.752   2.688   8.993  0.1004 -0.4306 -0.2986
   18SAPC  H12R 2336   6.848   2.737   9.016 -0.8170  0.7993  0.9636
   18SAPC  C213 2337   6.703   2.718   8.853  0.1928  0.0802 -0.2956
   18SAPC  H13R 2338   6.677   2.619   8.810 -0.4371 -0.3390  1.0234
   18SAPC  H13S 2339   6.795   2.752   8.799  2.3603 -1.5836  2.2246
   18SAPC  C214 2340   6.595   2.821   8.827 -0.1668 -0.8007 -0.1934
   18SAPC  H14R 2341   6.532   2.830   8.916  1.7861  1.0005  1.0617
   18SAPC  C215 2342   6.568   2.894   8.718  0.1620  0.3815 -0.4287
   18SAPC  H15R 2343   6.484   2.964   8.725 -2.4057 -2.5814 -0.5602
   18SAPC  C216 2344   6.650   2.900   8.592  0.0093 -0.1401  0.2186
   18SAPC  H16R 2345   6.756   2.873   8.613  0.9571  2.8132 -0.6036
   18SAPC  H16S 2346   6.643   2.997   8.539 -1.5303  0.4627  1.4647
   18SAPC  C217 2347   6.620   2.798   8.475 -0.3452  0.1981  0.2290
   18SAPC  H17R 2348   6.514   2.819   8.449  0.2029 -0.0991 -2.4222
   18SAPC  H17S 2349   6.630   2.692   8.505  1.7114 -0.3335 -2.1177
   18SAPC  C218 2350   6.705   2.817   8.348 -0.0550  0.2620 -0.6089
   18SAPC  H18R 2351   6.812   2.823   8.379 -0.5785  0.0032  1.3253
   18SAPC  H18S 2352   6.675   2.914   8.303  1.6375  1.4636  0.7698
   18SAPC  C219 2353   6.692   2.696   8.254  0.2071  0.0912 -1.0566
   18SAPC  H19R 2354   6.588   2.679   8.219  0.4982 -1.1564 -1.3284
   18SAPC  H19S 2355   6.713   2.604   8.312 -0.8179  1.0015  0.8070
   18SAPC  C220 2356   6.781   2.717   8.125  0.8286  0.3758  0.1590
   18SAPC  H20R 2357   6.884   2.754   8.146  1.8817 -0.9780 -2.3503
   18SAPC  H20S 2358   6.743   2.792   8.053 -0.5269 -0.4711 -0.0197
   18SAPC  H20T 2359   6.790   2.616   8.078  0.7574  1.6196 -2.6308
   18SAPC   C33 2360   6.781   1.967   9.944 -0.1847  0.5357  0.4139
   18SAPC   H3X 2361   6.823   1.890  10.012  0.8979 -1.7282 -2.6808
   18SAPC   H3Y 2362   6.877   1.988   9.892 -0.2706 -0.7843 -0.2973
   18SAPC   C34 2363   6.669   1.898   9.853  0.2801  0.1069 -0.4779
   18SAPC   H4X 2364   6.568   1.925   9.890  0.1583 -0.5585 -0.3210
   18SAPC   H4Y 2365   6.676   1.788   9.840 -0.6436 -0.1527  1.1156
   18SAPC   C35 2366   6.682   1.969   9.721  0.3747 -0.0409 -0.7767
   18SAPC   H5X 2367   6.788   1.963   9.688  0.2085  0.9722 -1.5223
   18SAPC   H5Y 2368   6.670   2.079   9.730 -0.3718  0.0207 -2.3572
   18SAPC   C36 2369   6.581   1.925   9.614 -0.2867  0.0434  0.0177
   18SAPC   H6X 2370   6.475   1.943   9.641 -1.3185 -2.6922 -2.0066
   18SAPC   H6Y 2371   6.600   1.819   9.587  0.0478 -0.6901  2.9790
   18SAPC   C37 2372   6.615   2.003   9.481  0.1373 -0.2700 -0.1548
   18SAPC   H7X 2373   6.725   2.007   9.463  0.1837 -0.0238  0.1870
   18SAPC   H7Y 2374   6.579   2.106   9.498  1.5136  0.0786  0.7192
   18SAPC   C38 2375   6.542   1.934   9.360  0.0577 -0.2867  0.3616
   18SAPC   H8X 2376   6.433   1.926   9.382 -0.3883 -0.1066 -1.7477
   18SAPC   H8Y 2377   6.591   1.836   9.341  0.2438 -0.5863  2.2273
   18SAPC   C39 2378   6.569   2.007   9.229  0.3234  1.0613  0.1608
   18SAPC   H9X 2379   6.679   2.019   9.229  0.3961  0.6790  2.6430
   18SAPC   H9Y 2380   6.527   2.110   9.232 -1.1445  0.5502 -1.6666
   18SAPC  C310 2381   6.537   1.927   9.102  0.1162  0.3664 -0.1552
   18SAPC  H10X 2382   6.433   1.943   9.065 -0.4584 -1.5951  0.5639
   18SAPC  H10Y 2383   6.542   1.818   9.124  0.6864  1.0513  3.3847
   18SAPC  C311 2384   6.628   1.973   8.988  0.0206  0.2934  0.5187
   18SAPC  H11X 2385   6.595   1.933   8.890  0.5123 -0.5407  0.6975
   18SAPC  H11Y 2386   6.732   1.948   9.016 -0.1105 -0.0657  0.6775
   18SAPC  C312 2387   6.628   2.124   8.965 -0.2905  0.1958 -0.2703
   18SAPC  H12X 2388   6.697   2.168   9.040 -1.8508 -0.9345  1.8708
   18SAPC  H12Y 2389   6.536   2.184   8.983 -0.1684 -0.3101  2.1593
   18SAPC  C313 2390   6.691   2.155   8.824  0.1959 -0.9271  0.3456
   18SAPC  H13X 2391   6.607   2.158   8.752  0.8190  0.1631 -0.3536
   18SAPC  H13Y 2392   6.750   2.066   8.793 -0.6365 -1.2531 -0.3194
   18SAPC  C314 2393   6.791   2.272   8.810  0.2822  0.3984 -0.3479
   18SAPC  H14X 2394   6.887   2.239   8.855 -0.8709 -3.0174 -0.2324
   18SAPC  H14Y 2395   6.751   2.359   8.867  2.0822  0.4749  0.8373
   18SAPC  C315 2396   6.793   2.317   8.664 -0.9472 -0.7748  0.1185
   18SAPC  H15X 2397   6.691   2.339   8.628 -0.4385  1.4098 -0.0620
   18SAPC  H15Y 2398   6.826   2.226   8.609 -2.4778 -0.3470 -1.5529
   18SAPC  C316 2399   6.891   2.438   8.630 -0.0589  0.2337 -0.2875
   18SAPC  H16X 2400   6.960   2.436   8.718 -2.1928  1.7012  1.4685
   18SAPC  H16Y 2401   6.843   2.537   8.646  1.4787  1.0280 -0.4686
   18SAPC  C317 2402   6.960   2.412   8.499  0.1585  0.1421 -0.3182
   18SAPC  H17X 2403   6.881   2.405   8.421  1.0724 -1.5018 -1.1295
   18SAPC  H17Y 2404   7.003   2.309   8.498 -0.5753 -0.1713 -0.2480
   18SAPC  C318 2405   7.071   2.515   8.465 -1.0054  0.2189  0.4365
   18SAPC  H18X 2406   7.153   2.513   8.539 -0.6738 -2.7618  0.0416
   18SAPC  H18Y 2407   7.040   2.621   8.454  1.1563  1.0461  2.0923
   18SAPC  H18Z 2408   7.118   2.481   8.370  0.9744 -1.1173  1.8565
   19SAPC     N 2409   5.908   4.084  10.752  0.4536  0.7038 -0.5688
   19SAPC   C12 2410   5.910   4.009  10.617  0.9582  0.3996 -0.2357
   19SAPC  H12A 2411   5.835   3.931  10.620 -0.4389  1.7440  1.1048
   19SAPC  H12B 2412   6.000   3.950  10.607 -0.1028 -1.1521 -0.8359
   19SAPC   C13 2413   5.940   3.990  10.869  0.3630 -0.1068 -0.4962
   19SAPC  H13A 2414   5.872   3.906  10.862  1.9339 -1.5114  0.7211
   19SAPC  H13B 2415   6.037   3.943  10.867 -0.8163 -2.5703 -2.7878
   19SAPC  H13C 2416   5.917   4.037  10.964 -0.8462 -0.8517 -0.4102
   19SAPC   C14 2417   6.002   4.202  10.754  0.5978  0.5856  0.5764
   19SAPC  H14A 2418   5.999   4.244  10.853 -2.3882  0.2439  0.6524
   19SAPC  H14B 2419   6.101   4.165  10.730  1.0115 -0.0740  3.1824
   19SAPC  H14C 2420   5.970   4.277  10.683 -0.4711  0.6044  1.0674
   19SAPC   C15 2421   5.773   4.141  10.773 -0.6066 -0.5882  0.1893
   19SAPC  H15A 2422   5.700   4.068  10.741 -0.6607  0.2844 -1.7516
   19SAPC  H15B 2423   5.770   4.178  10.874  1.4942 -0.1840  0.1379
   19SAPC  H15C 2424   5.764   4.217  10.698  1.0546 -1.6965 -1.1754
   19SAPC   C11 2425   5.880   4.104  10.489  0.4258  0.3054 -0.6429
   19SAPC  H11A 2426   5.905   4.039  10.402  3.0551 -1.6782  1.5337
   19SAPC  H11B 2427   5.954   4.187  10.483  0.2123  0.5616  0.2579
   19SAPC     P 2428   5.636   4.068  10.403  0.2173  0.1806  0.2736
   19SAPC   O13 2429   5.678   3.930  10.422 -0.3658 -0.1613  0.0077
   19SAPC   O14 2430   5.500   4.099  10.451  0.3663 -0.3649  0.3198
   19SAPC   O12 2431   5.746   4.157  10.480 -0.5134 -0.6697  0.4644
   19SAPC   O11 2432   5.659   4.108  10.248 -0.3597 -0.1422 -0.2649
   19SAPC    C1 2433   5.669   4.246  10.204 -0.4952 -0.3734 -0.3777
   19SAPC    HA 2434   5.709   4.311  10.286  3.1971 -2.9565 -0.0191
   19SAPC    HB 2435   5.754   4.251  10.133  1.5202 -2.9037  1.7383
   19SAPC    C2 2436   5.535   4.297  10.148 -0.3867 -0.5386 -0.6838
   19SAPC    HS 2437   5.464   4.276  10.231 -1.3521  0.2816 -1.2956
   19SAPC   O21 2438   5.503   4.229  10.025 -0.2486 -0.3808 -0.3326
   19SAPC   C21 2439   5.379   4.228   9.996 -0.0152  0.0852  0.0276
   19SAPC   O22 2440   5.289   4.276  10.061 -0.1089 -0.1217 -0.2048
   19SAPC   C22 2441   5.358   4.165   9.858  0.4937  0.0689  0.0566
   19SAPC   H2R 2442   5.430   4.211   9.787 -2.0071  3.4308 -0.4398
   19SAPC   H2S 2443   5.357   4.056   9.876 -0.9081 -0.1593 -1.2732
   19SAPC    C3 2444   5.540   4.449  10.117 -0.0172  0.6617  0.4103
   19SAPC    HX 2445   5.560   4.504  10.211 -1.1063 -1.1436  1.7268
   19SAPC    HY 2446   5.440   4.485  10.084  0.3467 -0.1482 -1.6423
   19SAPC   O31 2447   5.645   4.482  10.016  0.2212 -0.0313 -0.5343
   19SAPC   C31 2448   5.594   4.490   9.895  0.1677 -0.7632  0.6976
   19SAPC   O32 2449   5.477   4.498   9.867  0.2628  0.0004 -0.2652
   19SAPC   C32 2450   5.705   4.484   9.791 -0.3673 -0.3362  0.1685
   19SAPC   H2X 2451   5.767   4.392   9.786  1.3312  0.7661  0.4741
   19SAPC   H2Y 2452   5.780   4.554   9.834 -2.1029  0.7770  1.4768
   19SAPC   C23 2453   5.215   4.204   9.795  0.7355 -0.1979 -0.0307
   19SAPC   H3R 2454   5.133   4.186   9.867  0.1610  1.9375 -0.1103
   19SAPC   H3S 2455   5.204   4.136   9.707 -2.2812 -1.3672  1.2088
   19SAPC   C24 2456   5.194   4.360   9.757 -0.4703 -0.3764 -0.3278
   19SAPC   H4R 2457   5.271   4.401   9.689  1.3743 -0.5964  1.5710
   19SAPC   H4S 2458   5.193   4.425   9.847 -2.1230 -2.0192  0.8884
   19SAPC   C25 2459   5.056   4.378   9.690 -0.2973 -0.6403 -0.2015
   19SAPC   H5R 2460   4.978   4.404   9.764  0.5901  0.1996  0.4554
   19SAPC   C26 2461   5.027   4.361   9.565  0.1674 -0.2544 -0.5128
   19SAPC   H6R 2462   4.924   4.374   9.528  0.0938  0.1732 -0.1694
   19SAPC   C27 2463   5.118   4.308   9.460 -0.1315 -1.0733  0.4206
   19SAPC   H7R 2464   5.059   4.221   9.425 -2.1975  0.6537 -0.5254
   19SAPC   H7S 2465   5.218   4.273   9.494  0.2180  0.2158  0.7669
   19SAPC   C28 2466   5.136   4.396   9.342 -0.3035 -0.0087 -0.3207
   19SAPC   H8R 2467   5.096   4.499   9.345 -1.6623 -0.5410  0.2842
   19SAPC   C29 2468   5.201   4.359   9.229 -0.0797 -0.3327  0.8487
   19SAPC   H9R 2469   5.195   4.432   9.147 -0.8895 -0.8081  0.4775
   19SAPC  C210 2470   5.268   4.231   9.194  0.3224  0.2115  0.2169
   19SAPC  H10R 2471   5.249   4.155   9.273  0.2560 -0.7727 -0.7355
   19SAPC  H10S 2472   5.379   4.221   9.201  0.1549 -1.7415  0.3517
   19SAPC  C211 2473   5.211   4.178   9.066  0.0988 -0.2261 -0.2014
   19SAPC  H11R 2474   5.110   4.136   9.061 -0.0491  0.0602  0.3114
   19SAPC  C212 2475   5.278   4.181   8.947 -0.0541 -0.4172  0.1815
   19SAPC  H12R 2476   5.230   4.144   8.855  0.2907 -0.1564 -0.1043
   19SAPC  C213 2477   5.414   4.245   8.928  0.0166  0.7169 -0.4646
   19SAPC  H13R 2478   5.489   4.177   8.976  0.5459  0.8435 -1.1004
   19SAPC  H13S 2479   5.408   4.347   8.971 -1.9928 -0.3359  1.8144
   19SAPC  C214 2480   5.449   4.249   8.777  0.1442  0.4535  0.1150
   19SAPC  H14R 2481   5.534   4.186   8.748  0.0305  1.7967 -3.3602
   19SAPC  C215 2482   5.410   4.341   8.684  0.6314 -0.2628 -0.2110
   19SAPC  H15R 2483   5.461   4.335   8.587 -0.2567 -3.3116 -0.5313
   19SAPC  C216 2484   5.328   4.457   8.713  0.1633 -0.8275  0.8546
   19SAPC  H16R 2485   5.343   4.492   8.817  0.0024 -0.2077  0.6708
   19SAPC  H16S 2486   5.228   4.409   8.715 -0.6332  0.7431  0.0822
   19SAPC  C217 2487   5.339   4.581   8.612  0.3723  0.1476 -0.0164
   19SAPC  H17R 2488   5.305   4.551   8.511 -0.9346  1.2523  0.0810
   19SAPC  H17S 2489   5.444   4.616   8.596  0.1534  1.1271  0.6317
   19SAPC  C218 2490   5.255   4.705   8.663 -1.0911  0.2165 -0.5459
   19SAPC  H18R 2491   5.308   4.756   8.746 -0.1072 -0.5338 -0.7100
   19SAPC  H18S 2492   5.154   4.677   8.700 -0.7205 -1.7328 -0.9739
   19SAPC  C219 2493   5.227   4.809   8.557  0.8530 -0.3433  0.5068
   19SAPC  H19R 2494   5.163   4.885   8.608 -1.9655 -1.8023 -0.7268
   19SAPC  H19S 2495   5.165   4.760   8.478  1.8062 -3.2646  1.5205
   19SAPC  C220 2496   5.347   4.888   8.503  0.2839  0.4877 -0.3116
   19SAPC  H20R 2497   5.320   4.969   8.431 -0.7455  1.5757  1.2445
   19SAPC  H20S 2498   5.404   4.811   8.448  0.1124 -0.9992  1.5229
   19SAPC  H20T 2499   5.406   4.933   8.586 -0.5682  0.9356  0.0653
   19SAPC   C33 2500   5.661   4.535   9.649 -0.1070  0.3591 -0.0629
   19SAPC   H3X 2501   5.754   4.578   9.607 -1.0323  3.5011  0.8952
   19SAPC   H3Y 2502   5.593   4.623   9.650  1.1097  1.3384  2.3725
   19SAPC   C34 2503   5.592   4.426   9.567  0.3814 -0.5483  0.0126
   19SAPC   H4X 2504   5.513   4.397   9.640  1.3446 -2.0364  0.4840
   19SAPC   H4Y 2505   5.664   4.344   9.547 -0.4588 -1.3320  0.1806
   19SAPC   C35 2506   5.535   4.471   9.432  0.1144 -0.2420  0.2843
   19SAPC   H5X 2507   5.451   4.539   9.455  1.3827  1.6187 -0.4852
   19SAPC   H5Y 2508   5.492   4.384   9.378  1.8487 -0.6457 -0.5056
   19SAPC   C36 2509   5.623   4.551   9.334  0.2530 -0.2987  0.2092
   19SAPC   H6X 2510   5.729   4.523   9.353  0.4590 -0.9100 -1.7574
   19SAPC   H6Y 2511   5.614   4.658   9.362 -0.5293 -0.3415  0.1481
   19SAPC   C37 2512   5.580   4.544   9.188 -0.1552  0.3084  0.7366
   19SAPC   H7X 2513   5.479   4.588   9.172  0.1180  0.5115 -0.4528
   19SAPC   H7Y 2514   5.565   4.438   9.157 -1.4235  0.6313  0.1950
   19SAPC   C38 2515   5.680   4.620   9.102  0.6581 -0.2729  0.5541
   19SAPC   H8X 2516   5.781   4.579   9.123  0.7187 -0.2711  0.2714
   19SAPC   H8Y 2517   5.687   4.718   9.153  0.4877  0.7018 -1.2545
   19SAPC   C39 2518   5.646   4.633   8.958 -0.4710  0.0638  0.1858
   19SAPC   H9X 2519   5.542   4.664   8.933 -1.2043 -2.8930 -0.5851
   19SAPC   H9Y 2520   5.661   4.540   8.900  2.3318  1.1767 -0.9238
   19SAPC  C310 2521   5.733   4.739   8.896  0.0294  0.4937 -0.4159
   19SAPC  H10X 2522   5.843   4.735   8.907  0.0071 -1.0860 -0.6334
   19SAPC  H10Y 2523   5.707   4.836   8.945 -1.0801  0.6804 -1.3437
   19SAPC  C311 2524   5.696   4.758   8.748  0.8618 -0.5029  0.0468
   19SAPC  H11X 2525   5.587   4.747   8.731 -0.0535  5.1132  1.3083
   19SAPC  H11Y 2526   5.751   4.680   8.691 -1.7140 -2.2260 -0.1801
   19SAPC  C312 2527   5.740   4.895   8.705  0.3092 -0.2854 -0.1107
   19SAPC  H12X 2528   5.785   4.955   8.788 -2.4085  0.0343  1.1794
   19SAPC  H12Y 2529   5.646   4.950   8.683 -1.0384 -2.4090  0.1977
   19SAPC  C313 2530   5.837   4.900   8.580  0.1577  0.0548 -0.5118
   19SAPC  H13X 2531   5.935   4.863   8.615 -0.8643 -2.2520  0.0033
   19SAPC  H13Y 2532   5.862   5.003   8.547 -1.3577  0.3305 -0.8672
   19SAPC  C314 2533   5.789   4.817   8.461 -0.3194 -0.1949 -0.9484
   19SAPC  H14X 2534   5.683   4.845   8.448 -0.3358 -0.1447 -0.7156
   19SAPC  H14Y 2535   5.787   4.709   8.487 -1.7902 -0.4081 -1.8856
   19SAPC  C315 2536   5.869   4.836   8.332  0.2717  0.2401  0.2175
   19SAPC  H15X 2537   5.967   4.783   8.334  0.7885  1.0814 -2.0009
   19SAPC  H15Y 2538   5.898   4.942   8.319 -1.5956  0.7157 -0.0861
   19SAPC  C316 2539   5.787   4.795   8.212 -0.2190  0.0704  0.0528
   19SAPC  H16X 2540   5.712   4.720   8.247 -0.4645 -0.7065 -2.0662
   19SAPC  H16Y 2541   5.851   4.755   8.131  0.5558  0.0401  0.6758
   19SAPC  C317 2542   5.702   4.915   8.159 -0.1683 -0.3849  0.2453
   19SAPC  H17X 2543   5.778   4.975   8.104 -0.8588  0.7394  0.4937
   19SAPC  H17Y 2544   5.658   4.977   8.240  0.8529  1.0498 -0.2564
   19SAPC  C318 2545   5.603   4.879   8.053  0.3276 -0.2535 -0.2703
   19SAPC  H18X 2546   5.661   4.813   7.985 -1.7930 -1.8152 -0.6231
   19SAPC  H18Y 2547   5.559   4.966   7.999  0.4605  0.1536  0.2755
   19SAPC  H18Z 2548   5.521   4.818   8.095 -0.8415  1.6588  0.2791
   20SAPC     N 2549   5.637   1.369  10.836 -0.0842  0.5402  0.0718
   20SAPC   C12 2550   5.498   1.311  10.876 -0.6085 -0.3487 -0.0899
   20SAPC  H12A 2551   5.425   1.384  10.843 -0.6473  0.1762  1.1157
   20SAPC  H12B 2552   5.497   1.276  10.979 -0.5401 -2.5665 -0.8165
   20SAPC   C13 2553   5.749   1.277  10.864 -0.3932  0.1716 -0.8876
   20SAPC  H13A 2554   5.837   1.324  10.824 -1.0413  0.7746 -1.6248
   20SAPC  H13B 2555   5.760   1.260  10.971  2.4801 -1.7498 -1.4428
   20SAPC  H13C 2556   5.741   1.182  10.813  0.1535  0.3061 -1.2260
   20SAPC   C14 2557   5.630   1.414  10.696  0.5357  0.3397  0.7058
   20SAPC  H14A 2558   5.719   1.473  10.681  0.5759  0.0391 -0.2777
   20SAPC  H14B 2559   5.642   1.331  10.627  0.8083  0.3986  0.6828
   20SAPC  H14C 2560   5.550   1.479  10.665  0.4882 -0.8454 -1.8821
   20SAPC   C15 2561   5.653   1.495  10.920  0.1553 -0.2967  0.3745
   20SAPC  H15A 2562   5.604   1.582  10.881  0.3677 -0.0201  0.7232
   20SAPC  H15B 2563   5.613   1.476  11.019  0.4303 -0.8889  0.3755
   20SAPC  H15C 2564   5.756   1.524  10.931  0.0215 -0.6348  2.8867
   20SAPC   C11 2565   5.462   1.182  10.786 -0.7381  0.0940  0.1074
   20SAPC  H11A 2566   5.468   1.203  10.677  1.0849  1.2551  0.4018
   20SAPC  H11B 2567   5.354   1.165  10.804 -1.3764  3.5200 -0.0052
   20SAPC     P 2568   5.513   1.003  10.969  0.7302  0.3904 -0.2481
   20SAPC   O13 2569   5.636   0.960  11.038 -0.6189 -0.1451  1.1030
   20SAPC   O14 2570   5.429   1.097  11.047  0.8516 -0.0291  0.2650
   20SAPC   O12 2571   5.543   1.067  10.827 -0.2368  0.0133 -0.3475
   20SAPC   O11 2572   5.436   0.869  10.920 -0.0895 -0.2488 -0.2119
   20SAPC    C1 2573   5.502   0.750  10.878  0.3471 -0.5105 -0.0985
   20SAPC    HA 2574   5.603   0.728  10.918  1.3599  1.4903 -1.4584
   20SAPC    HB 2575   5.438   0.660  10.891 -0.6624  0.1114 -0.7247
   20SAPC    C2 2576   5.512   0.762  10.722  0.1345  0.7336  0.0472
   20SAPC    HS 2577   5.572   0.855  10.712 -0.1875  0.9648  0.2269
   20SAPC   O21 2578   5.378   0.796  10.673  0.0326 -0.3016 -0.7660
   20SAPC   C21 2579   5.371   0.886  10.578 -0.6704  0.8156  0.1250
   20SAPC   O22 2580   5.464   0.933  10.514  0.2685 -0.4714  0.6301
   20SAPC   C22 2581   5.225   0.929  10.578 -0.9189  0.5069  0.2460
   20SAPC   H2R 2582   5.171   0.835  10.556  0.4748 -0.2685  0.0889
   20SAPC   H2S 2583   5.211   0.978  10.676  0.7160  0.5503  0.4718
   20SAPC    C3 2584   5.570   0.639  10.647  0.6792 -0.1300 -0.0883
   20SAPC    HX 2585   5.500   0.555  10.667  0.3294  0.5020  1.4333
   20SAPC    HY 2586   5.666   0.594  10.682 -0.6741 -2.0710  1.2836
   20SAPC   O31 2587   5.584   0.663  10.510 -0.0351 -0.7752  0.4072
   20SAPC   C31 2588   5.485   0.630  10.425 -0.5053 -0.5658  0.1099
   20SAPC   O32 2589   5.376   0.582  10.456 -0.1907  0.1124  0.0101
   20SAPC   C32 2590   5.515   0.681  10.282  0.7142  0.2108 -0.2383
   20SAPC   H2X 2591   5.609   0.628  10.255  0.4803  0.2281 -1.1214
   20SAPC   H2Y 2592   5.527   0.791  10.293 -2.0106  0.2839  2.8733
   20SAPC   C23 2593   5.197   1.032  10.465  0.0597 -0.4523  0.4164
   20SAPC   H3R 2594   5.202   0.970  10.373  4.1514 -0.2865  0.4584
   20SAPC   H3S 2595   5.281   1.102  10.442 -0.1670 -0.2664  0.1291
   20SAPC   C24 2596   5.056   1.091  10.472 -0.6637 -0.8950  0.0662
   20SAPC   H4R 2597   4.984   1.016  10.511  0.4578 -2.0666 -0.0475
   20SAPC   H4S 2598   5.011   1.107  10.372  2.1559 -2.2723 -1.4914
   20SAPC   C25 2599   5.056   1.218  10.555  0.0887  0.1674 -0.3087
   20SAPC   H5R 2600   4.987   1.215  10.641 -0.6163  0.1669 -0.8765
   20SAPC   C26 2601   5.113   1.329  10.519  0.5839  0.0122  0.3606
   20SAPC   H6R 2602   5.117   1.423  10.575  0.1188  0.6230 -0.6198
   20SAPC   C27 2603   5.187   1.358  10.388 -0.2102 -0.3182 -0.3993
   20SAPC   H7R 2604   5.144   1.446  10.335  0.8302  0.1720 -0.4426
   20SAPC   H7S 2605   5.177   1.277  10.313  1.6324 -1.0097  0.0683
   20SAPC   C28 2606   5.331   1.391  10.410  0.0526  0.3800 -0.5109
   20SAPC   H8R 2607   5.351   1.459  10.493  1.1336  0.7506 -1.0589
   20SAPC   C29 2608   5.436   1.370  10.330  0.2677 -0.3139 -0.5645
   20SAPC   H9R 2609   5.536   1.390  10.371 -0.3961  3.2559 -0.5387
   20SAPC  C210 2610   5.452   1.297  10.197 -0.0342  0.2656  1.0141
   20SAPC  H10R 2611   5.507   1.364  10.129  0.9445 -0.0063  1.5275
   20SAPC  H10S 2612   5.357   1.289  10.140  0.9610 -1.5348 -0.4625
   20SAPC  C211 2613   5.524   1.166  10.205 -0.2917  0.6543  0.0179
   20SAPC  H11R 2614   5.479   1.098  10.279  2.6613 -1.0021  0.3506
   20SAPC  C212 2615   5.633   1.126  10.139 -0.6859 -0.0024 -0.1057
   20SAPC  H12R 2616   5.679   1.030  10.169  1.4420  0.7109 -0.9868
   20SAPC  C213 2617   5.714   1.194  10.040 -0.3199 -0.0227 -0.2561
   20SAPC  H13R 2618   5.674   1.288   9.996  0.4557  0.2964 -0.2864
   20SAPC  H13S 2619   5.710   1.133   9.947 -0.7374  0.5780 -0.6346
   20SAPC  C214 2620   5.862   1.217  10.076 -0.6923  0.7195 -0.1897
   20SAPC  H14R 2621   5.905   1.217  10.177 -1.2464 -0.3109  0.0544
   20SAPC  C215 2622   5.950   1.247   9.987 -0.2269 -0.7392 -0.0118
   20SAPC  H15R 2623   6.052   1.264  10.025 -0.4565  1.4469 -0.2716
   20SAPC  C216 2624   5.934   1.264   9.836  0.5311  0.4193 -0.2184
   20SAPC  H16R 2625   5.920   1.372   9.814  0.3085  0.4988  0.3023
   20SAPC  H16S 2626   5.844   1.208   9.802  0.1530  0.2889  0.9514
   20SAPC  C217 2627   6.065   1.212   9.766 -0.5300 -0.4480  0.3846
   20SAPC  H17R 2628   6.075   1.102   9.780  2.5310 -0.1492  0.8575
   20SAPC  H17S 2629   6.154   1.257   9.816 -1.1669 -0.3384  1.4406
   20SAPC  C218 2630   6.078   1.250   9.624 -0.1294 -0.0392 -0.0490
   20SAPC  H18R 2631   6.050   1.357   9.612 -1.8863 -0.5755 -0.8974
   20SAPC  H18S 2632   6.001   1.197   9.563 -0.6636  2.5776 -1.6977
   20SAPC  C219 2633   6.221   1.254   9.560 -0.1427  0.8445 -0.1670
   20SAPC  H19R 2634   6.254   1.150   9.578  0.4925  1.1163  0.2762
   20SAPC  H19S 2635   6.286   1.326   9.614  0.4526 -0.8284  1.4162
   20SAPC  C220 2636   6.208   1.288   9.409 -0.0893  0.2000 -0.1804
   20SAPC  H20R 2637   6.143   1.214   9.358  0.1548 -0.6417  0.7191
   20SAPC  H20S 2638   6.311   1.285   9.366 -0.5904 -3.0614 -1.3482
   20SAPC  H20T 2639   6.149   1.379   9.388  0.7191  0.3804 -1.7803
   20SAPC   C33 2640   5.419   0.642  10.171  0.2614 -0.7445 -0.1228
   20SAPC   H3X 2641   5.325   0.697  10.190  1.5721  1.3512  0.5420
   20SAPC   H3Y 2642   5.413   0.531  10.168  2.2748 -0.8459 -2.5278
   20SAPC   C34 2643   5.473   0.683  10.035  0.0516 -0.0736  0.3531
   20SAPC   H4X 2644   5.570   0.630  10.026  1.6817  2.4960  2.2549
   20SAPC   H4Y 2645   5.496   0.791  10.043 -1.5836  0.5275 -2.4463
   20SAPC   C35 2646   5.378   0.660   9.915 -0.2339 -0.8043  0.0163
   20SAPC   H5X 2647   5.303   0.741   9.912 -0.0408 -0.6650 -1.3407
   20SAPC   H5Y 2648   5.333   0.558   9.913  0.6519 -1.1978 -0.2221
   20SAPC   C36 2649   5.454   0.680   9.785 -1.1174  0.5061 -0.5462
   20SAPC   H6X 2650   5.532   0.602   9.770 -0.3821  1.6158 -2.7893
   20SAPC   H6Y 2651   5.526   0.765   9.784  1.9944 -2.0417 -1.4387
   20SAPC   C37 2652   5.369   0.692   9.659  0.7047  0.8852 -0.2339
   20SAPC   H7X 2653   5.302   0.780   9.670  2.5849  2.2654  0.4960
   20SAPC   H7Y 2654   5.309   0.601   9.640 -1.1381  2.2905 -1.1852
   20SAPC   C38 2655   5.462   0.699   9.534  0.2635 -0.0052  0.5585
   20SAPC   H8X 2656   5.516   0.603   9.544 -2.0447 -1.2629  1.4036
   20SAPC   H8Y 2657   5.530   0.786   9.544  1.1509 -0.2341 -2.8507
   20SAPC   C39 2658   5.371   0.703   9.410 -0.4289  0.3533 -0.0917
   20SAPC   H9X 2659   5.313   0.797   9.420 -1.4508  0.0640 -2.6700
   20SAPC   H9Y 2660   5.303   0.615   9.410 -2.4101  1.8404 -0.6993
   20SAPC  C310 2661   5.444   0.699   9.278  0.0624 -0.5744 -0.1890
   20SAPC  H10X 2662   5.480   0.595   9.256  1.9077 -0.0235  0.1463
   20SAPC  H10Y 2663   5.531   0.765   9.296 -0.6427  0.4572 -0.5516
   20SAPC  C311 2664   5.358   0.748   9.171  0.1223  0.7433  0.1829
   20SAPC  H11X 2665   5.303   0.839   9.204 -0.3238  0.8102 -0.7441
   20SAPC  H11Y 2666   5.276   0.673   9.163  1.1526 -0.0584 -3.8999
   20SAPC  C312 2667   5.412   0.764   9.032 -0.4687  0.2722 -0.6937
   20SAPC  H12X 2668   5.487   0.684   9.014  0.1872  1.0891 -1.6454
   20SAPC  H12Y 2669   5.467   0.861   9.029 -1.4676  0.8803  0.0965
   20SAPC  C313 2670   5.294   0.767   8.929  0.1594  0.2249  0.1592
   20SAPC  H13X 2671   5.232   0.675   8.933  0.0057  0.3158 -0.1752
   20SAPC  H13Y 2672   5.344   0.773   8.830  1.7554 -1.6117  0.8191
   20SAPC  C314 2673   5.210   0.890   8.936  0.3403  0.0588  0.5089
   20SAPC  H14X 2674   5.278   0.977   8.917 -0.9737  1.2587  1.1931
   20SAPC  H14Y 2675   5.166   0.912   9.036 -0.7499  0.2382  0.0001
   20SAPC  C315 2676   5.111   0.891   8.820 -0.2221 -0.5887  0.0669
   20SAPC  H15X 2677   5.021   0.827   8.813 -0.8462  0.3879 -1.0289
   20SAPC  H15Y 2678   5.170   0.861   8.731  0.1032  1.1860 -0.3402
   20SAPC  C316 2679   5.053   1.033   8.804 -0.5490 -0.2307  0.5913
   20SAPC  H16X 2680   5.024   1.046   8.697  0.7690 -0.1372  0.2381
   20SAPC  H16Y 2681   5.134   1.103   8.833 -0.7334  0.6755 -1.0078
   20SAPC  C317 2682   4.933   1.059   8.891 -0.0474 -0.1679 -0.0380
   20SAPC  H17X 2683   4.966   1.054   8.997 -1.0946 -1.5326  0.2486
   20SAPC  H17Y 2684   4.860   0.975   8.880  1.3804 -1.1787 -2.0316
   20SAPC  C318 2685   4.861   1.191   8.866 -0.4906 -0.0764  0.1257
   20SAPC  H18X 2686   4.791   1.219   8.947  1.5350  2.5581  1.0486
   20SAPC  H18Y 2687   4.799   1.178   8.775 -0.1729  1.9300 -0.3914
   20SAPC  H18Z 2688   4.932   1.274   8.844 -0.4269  0.1502  1.1190
   21SAPC     N 2689   4.868   0.113  11.249  0.0542 -0.5309 -0.1826
   21SAPC   C12 2690   4.864   0.161  11.105 -0.2017 -0.4573 -0.5081
   21SAPC  H12A 2691   4.863   0.269  11.112 -2.3695 -0.4317 -0.8424
   21SAPC  H12B 2692   4.775   0.123  11.057 -1.5566 -0.4750  1.9538
   21SAPC   C13 2693   4.864  -0.042  11.255 -0.2752 -0.3081 -0.4515
   21SAPC  H13A 2694   4.765  -0.069  11.222  0.0628  0.7145 -2.4080
   21SAPC  H13B 2695   4.945  -0.077  11.193 -0.6582  0.6829 -1.5345
   21SAPC  H13C 2696   4.885  -0.081  11.354 -0.4004  3.0583  0.9895
   21SAPC   C14 2697   4.988   0.169  11.323 -0.2752  0.0431 -0.1294
   21SAPC  H14A 2698   5.000   0.276  11.313 -0.5945 -0.1079 -2.6505
   21SAPC  H14B 2699   4.975   0.149  11.428  0.9715  0.2453  0.0673
   21SAPC  H14C 2700   5.085   0.132  11.294 -0.9539 -0.2061 -2.2012
   21SAPC   C15 2701   4.738   0.163  11.320 -0.3089 -0.3805 -0.5007
   21SAPC  H15A 2702   4.732   0.129  11.422 -0.4129  0.4898 -0.2094
   21SAPC  H15B 2703   4.740   0.271  11.318  0.9613 -0.3999 -0.3794
   21SAPC  H15C 2704   4.651   0.130  11.265  0.3583 -2.5436 -0.3066
   21SAPC   C11 2705   4.971   0.111  11.009  0.1158 -0.2919  0.3774
   21SAPC  H11A 2706   5.070   0.126  11.058  0.9757  1.2109 -1.7145
   21SAPC  H11B 2707   4.965   0.171  10.915 -1.8445  0.8005  1.1818
   21SAPC     P 2708   4.878  -0.095  10.874 -0.1452 -0.3057  0.3284
   21SAPC   O13 2709   4.956  -0.219  10.842 -0.1613 -0.2845 -0.3480
   21SAPC   O14 2710   4.729  -0.097  10.897 -0.2875 -0.0743 -0.9927
   21SAPC   O12 2711   4.949  -0.027  10.990  0.0553 -0.1532  0.0744
   21SAPC   O11 2712   4.904   0.011  10.758  0.0613  0.0686  0.3937
   21SAPC    C1 2713   4.793   0.081  10.685  0.1763  0.4264  0.4286
   21SAPC    HA 2714   4.709   0.010  10.668 -0.7994  1.5250  0.5641
   21SAPC    HB 2715   4.753   0.166  10.746 -1.2061  1.6912 -2.1761
   21SAPC    C2 2716   4.837   0.140  10.550  0.1496  0.7193 -0.5114
   21SAPC    HS 2717   4.745   0.176  10.500 -1.1779  1.2347  2.1931
   21SAPC   O21 2718   4.904   0.034  10.482 -0.3805 -0.8220  0.3070
   21SAPC   C21 2719   4.823  -0.029  10.400  0.4178  0.0449 -0.3920
   21SAPC   O22 2720   4.711   0.008  10.375 -0.2095  0.0001  0.4356
   21SAPC   C22 2721   4.893  -0.159  10.341  0.2041  0.8832 -0.0625
   21SAPC   H2R 2722   4.948  -0.202  10.427  1.6884 -1.8593 -2.3144
   21SAPC   H2S 2723   4.809  -0.228  10.317  0.2199  0.6281  0.6237
   21SAPC    C3 2724   4.933   0.252  10.590 -0.7502  0.2008  0.3525
   21SAPC    HX 2725   5.010   0.209  10.658 -0.2252 -0.2640 -0.5140
   21SAPC    HY 2726   4.871   0.315  10.657  0.5109  0.3669  1.3822
   21SAPC   O31 2727   4.994   0.336  10.488  0.2089  0.0253 -0.0582
   21SAPC   C31 2728   5.109   0.298  10.433 -0.8486  0.6268  0.1933
   21SAPC   O32 2729   5.186   0.214  10.476  0.2940  0.2682  0.0608
   21SAPC   C32 2730   5.126   0.390  10.310 -0.8802 -0.0913  0.4026
   21SAPC   H2X 2731   5.165   0.488  10.346  3.3170 -1.4444 -0.1332
   21SAPC   H2Y 2732   5.029   0.419  10.265  0.7372  2.3323 -1.6625
   21SAPC   C23 2733   4.975  -0.126  10.209  0.3499 -0.2935 -0.7328
   21SAPC   H3R 2734   5.064  -0.192  10.209  0.9050  0.4383 -0.1736
   21SAPC   H3S 2735   5.030  -0.030  10.221 -0.7494  0.2622 -0.0054
   21SAPC   C24 2736   4.910  -0.134  10.071 -0.4948  0.4023  0.2677
   21SAPC   H4R 2737   4.851  -0.229  10.064 -0.7936  0.5730  0.4535
   21SAPC   H4S 2738   4.994  -0.134   9.999 -0.7655  0.2250 -0.0528
   21SAPC   C25 2739   4.822  -0.017  10.049  0.5316 -0.5240 -0.6818
   21SAPC   H5R 2740   4.770   0.011  10.142  0.5647 -1.2537 -0.4438
   21SAPC   C26 2741   4.799   0.048   9.927  0.2795 -0.0449 -0.6641
   21SAPC   H6R 2742   4.741   0.142   9.932  3.1436  1.7415  0.1023
   21SAPC   C27 2743   4.858   0.017   9.789  1.0439  0.3741  0.2172
   21SAPC   H7R 2744   4.944  -0.049   9.812  1.9807  1.4679 -0.0904
   21SAPC   H7S 2745   4.901   0.103   9.734  0.1722 -0.6093 -2.0736
   21SAPC   C28 2746   4.760  -0.054   9.702  0.2763  0.1476  0.0211
   21SAPC   H8R 2747   4.689  -0.115   9.759  0.6655 -0.8977 -0.5908
   21SAPC   C29 2748   4.757  -0.047   9.567 -0.3957 -0.5027 -0.1053
   21SAPC   H9R 2749   4.689  -0.113   9.511 -0.2191 -1.7639  1.1412
   21SAPC  C210 2750   4.855   0.026   9.476 -0.7336 -0.5208 -0.2165
   21SAPC  H10R 2751   4.870  -0.037   9.385  0.1981  1.1181 -1.2202
   21SAPC  H10S 2752   4.954   0.033   9.524 -1.1885 -1.8840  0.9405
   21SAPC  C211 2753   4.811   0.161   9.438  0.2093  0.4853 -0.7545
   21SAPC  H11R 2754   4.837   0.236   9.514  1.2693 -1.7345  1.1450
   21SAPC  C212 2755   4.762   0.205   9.316  0.7543 -0.1786  0.5737
   21SAPC  H12R 2756   4.738   0.311   9.301  0.5142 -0.7211 -3.4221
   21SAPC  C213 2757   4.741   0.114   9.199  0.3668 -0.1251  0.0006
   21SAPC  H13R 2758   4.789   0.014   9.207  1.4095  0.4425  0.9080
   21SAPC  H13S 2759   4.787   0.154   9.106 -0.7779  1.4538  0.1002
   21SAPC  C214 2760   4.592   0.107   9.170 -0.3384 -0.4092 -1.2201
   21SAPC  H14R 2761   4.529   0.057   9.245  0.9829  0.6584  0.6579
   21SAPC  C215 2762   4.519   0.136   9.062  0.1083  0.7392  0.0462
   21SAPC  H15R 2763   4.413   0.107   9.066  1.0029 -2.7893  0.3435
   21SAPC  C216 2764   4.562   0.201   8.937 -0.4082 -0.3385  0.4904
   21SAPC  H16R 2765   4.672   0.192   8.923 -0.6903 -2.0579 -0.8098
   21SAPC  H16S 2766   4.542   0.310   8.944 -0.3272 -0.3288  0.5672
   21SAPC  C217 2767   4.484   0.154   8.812 -0.8313  0.2718 -0.5148
   21SAPC  H17R 2768   4.387   0.107   8.837  0.2613 -0.5522  2.4913
   21SAPC  H17S 2769   4.542   0.075   8.759 -0.0646  0.4624  0.0297
   21SAPC  C218 2770   4.451   0.259   8.705 -0.3695  0.3083 -0.6883
   21SAPC  H18R 2771   4.544   0.280   8.650 -0.5362  0.9478 -0.7291
   21SAPC  H18S 2772   4.423   0.359   8.745  0.8592  0.1711  0.5645
   21SAPC  C219 2773   4.339   0.208   8.609  0.7325 -0.4683 -0.0408
   21SAPC  H19R 2774   4.244   0.232   8.660  1.9120  0.2754  1.8651
   21SAPC  H19S 2775   4.358   0.101   8.587  1.0132 -0.1486 -1.4194
   21SAPC  C220 2776   4.322   0.297   8.480  0.2089  1.1138 -0.0751
   21SAPC  H20R 2777   4.232   0.248   8.436 -0.8677  2.1565  0.9215
   21SAPC  H20S 2778   4.420   0.296   8.428  0.4054  1.2874  0.2862
   21SAPC  H20T 2779   4.291   0.397   8.517  1.1726  0.4461  2.6771
   21SAPC   C33 2780   5.210   0.321  10.204 -0.9154 -0.0719 -0.2713
   21SAPC   H3X 2781   5.309   0.304  10.251 -0.8958  0.2989 -0.1753
   21SAPC   H3Y 2782   5.240   0.395  10.126  0.4592  1.4025  1.6149
   21SAPC   C34 2783   5.156   0.201  10.135  0.5239  0.5012  0.2214
   21SAPC   H4X 2784   5.048   0.197  10.108  0.6668  0.8271 -0.3931
   21SAPC   H4Y 2785   5.166   0.114  10.203 -0.5959  0.9906  1.0309
   21SAPC   C35 2786   5.219   0.148  10.007 -0.4289  0.9911  0.0132
   21SAPC   H5X 2787   5.203   0.039   9.994  2.1899  0.5495  0.1314
   21SAPC   H5Y 2788   5.323   0.147  10.046  0.1706  0.2291 -1.5838
   21SAPC   C36 2789   5.199   0.232   9.881 -0.1793  0.4389 -0.5040
   21SAPC   H6X 2790   5.259   0.326   9.883 -0.1863  0.4257  1.0289
   21SAPC   H6Y 2791   5.092   0.255   9.865  0.1210  2.0468 -0.2931
   21SAPC   C37 2792   5.239   0.155   9.756  0.1802  0.7409 -0.2637
   21SAPC   H7X 2793   5.174   0.066   9.738  0.0828  1.3399 -3.0644
   21SAPC   H7Y 2794   5.345   0.122   9.761 -0.5011 -1.2560  2.3880
   21SAPC   C38 2795   5.220   0.231   9.632 -0.2833 -0.6923 -0.0804
   21SAPC   H8X 2796   5.288   0.318   9.630 -0.6220 -0.4176  0.3425
   21SAPC   H8Y 2797   5.114   0.264   9.637 -0.1198 -0.4718  3.2154
   21SAPC   C39 2798   5.245   0.156   9.493 -0.9559 -0.6071  0.0125
   21SAPC   H9X 2799   5.204   0.053   9.508  2.8519 -1.9379  2.1811
   21SAPC   H9Y 2800   5.354   0.132   9.499 -0.8781  0.0094  1.2605
   21SAPC  C310 2801   5.187   0.243   9.376 -0.0703  0.1429 -0.1574
   21SAPC  H10X 2802   5.231   0.344   9.388 -0.7528  0.3542  0.5619
   21SAPC  H10Y 2803   5.082   0.276   9.382 -0.0065  1.0519 -3.1971
   21SAPC  C311 2804   5.224   0.180   9.244 -0.5049  0.4628  0.2701
   21SAPC  H11X 2805   5.173   0.085   9.219 -0.6943  0.3790  0.9924
   21SAPC  H11Y 2806   5.333   0.162   9.256 -1.2006 -4.9978 -0.5340
   21SAPC  C312 2807   5.198   0.282   9.130 -0.3383  0.1047  0.0159
   21SAPC  H12X 2808   5.232   0.386   9.152 -1.2310  0.3055  0.4333
   21SAPC  H12Y 2809   5.090   0.294   9.106 -0.1867  0.6797 -0.3904
   21SAPC  C313 2810   5.276   0.248   9.001 -0.5637 -0.5648  0.8990
   21SAPC  H13X 2811   5.227   0.158   8.955  0.8440 -0.9504  0.1338
   21SAPC  H13Y 2812   5.373   0.206   9.033 -0.8232 -0.4906  1.7840
   21SAPC  C314 2813   5.297   0.362   8.904 -0.4626 -0.2189 -0.3297
   21SAPC  H14X 2814   5.353   0.443   8.955 -1.3281 -0.0830  0.4139
   21SAPC  H14Y 2815   5.199   0.407   8.877  0.7091  2.8013  0.2085
   21SAPC  C315 2816   5.367   0.336   8.770 -0.8991 -0.2687 -0.2177
   21SAPC  H15X 2817   5.306   0.258   8.719 -0.2091 -1.4668  0.7596
   21SAPC  H15Y 2818   5.468   0.296   8.795  0.7484  2.1897 -2.6110
   21SAPC  C316 2819   5.389   0.457   8.687  0.2648 -0.4164  0.8561
   21SAPC  H16X 2820   5.449   0.534   8.741  0.7281  0.8869 -1.4405
   21SAPC  H16Y 2821   5.301   0.523   8.679 -0.1589 -0.8484  1.8594
   21SAPC  C317 2822   5.447   0.422   8.549 -0.0134 -0.3440  0.2843
   21SAPC  H17X 2823   5.375   0.347   8.510  1.1082 -0.8478 -0.8802
   21SAPC  H17Y 2824   5.543   0.367   8.561 -0.4712 -1.6181 -1.6695
   21SAPC  C318 2825   5.457   0.540   8.448  1.0681 -0.1016 -0.0382
   21SAPC  H18X 2826   5.363   0.597   8.431  0.4973 -0.9133  0.3407
   21SAPC  H18Y 2827   5.468   0.490   8.350 -0.9587 -0.6840 -0.0046
   21SAPC  H18Z 2828   5.540   0.608   8.478  2.0576 -1.3627  0.1446
   22SAPC     N 2829   4.943   5.138  10.729 -0.2246 -0.0568 -0.0554
   22SAPC   C12 2830   4.803   5.089  10.750  0.3301 -0.1155  0.3310
   22SAPC  H12A 2831   4.730   5.165  10.722  1.3399  0.5533 -0.5115
   22SAPC  H12B 2832   4.797   5.051  10.851  0.5263  1.0175  0.7830
   22SAPC   C13 2833   5.045   5.035  10.757 -0.3382  0.2285 -0.5142
   22SAPC  H13A 2834   5.041   4.996  10.858 -2.4062 -2.4333 -1.5708
   22SAPC  H13B 2835   5.026   4.950  10.694 -0.0485 -2.3510  2.7364
   22SAPC  H13C 2836   5.142   5.077  10.735 -0.3700  0.5491 -0.0587
   22SAPC   C14 2837   4.965   5.187  10.590  0.0973 -0.2224  0.1430
   22SAPC  H14A 2838   4.904   5.273  10.565  1.3750  0.9937  1.1418
   22SAPC  H14B 2839   5.070   5.208  10.581  0.3250 -1.0562  0.7346
   22SAPC  H14C 2840   4.951   5.119  10.507  0.0001  0.3594 -0.3175
   22SAPC   C15 2841   4.967   5.246  10.833  0.6050  0.2653  0.0066
   22SAPC  H15A 2842   4.881   5.310  10.846  1.1719  1.3717 -1.5944
   22SAPC  H15B 2843   4.996   5.201  10.927  1.1558  1.0731  0.2234
   22SAPC  H15C 2844   5.045   5.315  10.806  1.4596 -0.5729  0.2983
   22SAPC   C11 2845   4.763   4.974  10.658  0.3176 -0.1606  0.1676
   22SAPC  H11A 2846   4.786   4.984  10.550  0.4416 -0.1350  0.1964
   22SAPC  H11B 2847   4.652   4.971  10.658  0.3165 -2.3289  3.8263
   22SAPC     P 2848   4.744   4.735  10.778 -0.1400 -0.0764  0.1177
   22SAPC   O13 2849   4.836   4.621  10.792  0.9471  0.3680 -0.8236
   22SAPC   O14 2850   4.692   4.778  10.903 -0.2175  0.0379 -0.3536
   22SAPC   O12 2851   4.819   4.854  10.704 -0.5498 -0.3518  0.0041
   22SAPC   O11 2852   4.619   4.686  10.688  0.0685 -0.3233  0.2698
   22SAPC    C1 2853   4.618   4.702  10.543 -0.3331 -0.3852  0.3663
   22SAPC    HA 2854   4.519   4.737  10.507  1.6081  3.0293 -1.9485
   22SAPC    HB 2855   4.700   4.763  10.500 -2.3812  0.9697 -1.6798
   22SAPC    C2 2856   4.638   4.571  10.473  0.8053  0.3669 -0.0768
   22SAPC    HS 2857   4.741   4.538  10.499  1.0706  0.3348 -1.1581
   22SAPC   O21 2858   4.622   4.590  10.332 -0.2965 -0.1397  0.1336
   22SAPC   C21 2859   4.680   4.495  10.258 -0.3895 -0.2665  0.1166
   22SAPC   O22 2860   4.754   4.404  10.292 -0.4074  0.4941  0.8073
   22SAPC   C22 2861   4.638   4.521  10.112 -0.3797 -0.6126  0.3923
   22SAPC   H2R 2862   4.561   4.601  10.103 -0.0326 -0.3220 -0.0147
   22SAPC   H2S 2863   4.729   4.561  10.062 -2.1681  1.7494 -1.0600
   22SAPC    C3 2864   4.532   4.465  10.525  0.6437  0.6181 -0.2610
   22SAPC    HX 2865   4.529   4.452  10.635  1.4855 -3.2834 -0.6374
   22SAPC    HY 2866   4.566   4.367  10.486  1.0741  0.7049 -0.1190
   22SAPC   O31 2867   4.407   4.504  10.470  0.6057 -0.8530  0.0190
   22SAPC   C31 2868   4.310   4.424  10.512 -0.3277  0.1474 -0.1829
   22SAPC   O32 2869   4.329   4.310  10.553 -0.6541  0.4702  0.0470
   22SAPC   C32 2870   4.177   4.497  10.499 -0.1016 -0.4659  0.3468
   22SAPC   H2X 2871   4.170   4.570  10.583 -0.4041 -1.7709  1.4854
   22SAPC   H2Y 2872   4.098   4.419  10.510 -0.1284 -0.7477 -1.7286
   22SAPC   C23 2873   4.603   4.389  10.041 -0.3884  0.2468 -0.4903
   22SAPC   H3R 2874   4.507   4.354  10.086  0.5794 -0.3484  1.1617
   22SAPC   H3S 2875   4.676   4.307  10.061  1.0854  1.5057 -0.6689
   22SAPC   C24 2876   4.585   4.393   9.890 -0.0349  0.5757 -0.6831
   22SAPC   H4R 2877   4.684   4.403   9.840  1.1480  2.0707  1.8238
   22SAPC   H4S 2878   4.511   4.475   9.883  0.8217  1.4095 -0.1411
   22SAPC   C25 2879   4.519   4.265   9.839  0.0091  0.0103  0.6656
   22SAPC   H5R 2880   4.473   4.194   9.909  0.0365  0.9171  1.6104
   22SAPC   C26 2881   4.514   4.235   9.703 -0.8843 -0.3232 -0.4022
   22SAPC   H6R 2882   4.462   4.142   9.675 -2.0660 -0.1346  1.1183
   22SAPC   C27 2883   4.575   4.305   9.588  0.2610  0.0281 -0.4729
   22SAPC   H7R 2884   4.632   4.396   9.618  0.5603 -0.1596 -0.4706
   22SAPC   H7S 2885   4.495   4.333   9.516 -0.6722 -1.2339  0.0472
   22SAPC   C28 2886   4.679   4.212   9.526  0.0537 -0.4228 -0.0631
   22SAPC   H8R 2887   4.741   4.142   9.583 -0.5474 -1.5771 -0.8052
   22SAPC   C29 2888   4.712   4.204   9.393  0.1121  0.1751 -0.7578
   22SAPC   H9R 2889   4.790   4.134   9.358 -1.5542 -2.4374  0.6411
   22SAPC  C210 2890   4.646   4.278   9.280  0.1295  0.6971  0.0209
   22SAPC  H10R 2891   4.723   4.313   9.208 -0.1086 -0.9029 -1.0592
   22SAPC  H10S 2892   4.598   4.371   9.317 -2.0554 -0.5486  0.4026
   22SAPC  C211 2893   4.549   4.184   9.224 -0.4327  1.2956 -0.0826
   22SAPC  H11R 2894   4.486   4.129   9.295 -1.8386  2.2734 -0.5484
   22SAPC  C212 2895   4.540   4.142   9.095  0.6873  0.3380  0.6858
   22SAPC  H12R 2896   4.465   4.065   9.074  0.0240  1.1843 -0.0672
   22SAPC  C213 2897   4.621   4.182   8.974 -0.0215 -0.1262 -0.3829
   22SAPC  H13R 2898   4.687   4.097   8.946  0.0684  0.2766 -1.4134
   22SAPC  H13S 2899   4.698   4.255   9.006  1.7805 -2.5471  0.9267
   22SAPC  C214 2900   4.537   4.246   8.864 -0.3231 -0.0478 -0.0704
   22SAPC  H14R 2901   4.475   4.328   8.903 -2.8965 -1.3713 -1.3190
   22SAPC  C215 2902   4.545   4.226   8.731 -0.4292 -0.4344 -0.1656
   22SAPC  H15R 2903   4.480   4.283   8.662 -0.4180 -0.7317 -0.4203
   22SAPC  C216 2904   4.638   4.116   8.675  0.1894 -0.3634 -0.5292
   22SAPC  H16R 2905   4.606   4.085   8.573  2.2847 -0.1566 -1.2901
   22SAPC  H16S 2906   4.629   4.020   8.730 -0.9481  0.1766  0.2302
   22SAPC  C217 2907   4.781   4.171   8.676  0.4622  0.1030  0.9207
   22SAPC  H17R 2908   4.817   4.168   8.781  1.7321 -0.1580  0.4852
   22SAPC  H17S 2909   4.788   4.271   8.628 -0.3686  0.0332  0.6467
   22SAPC  C218 2910   4.859   4.053   8.619  0.6696  0.4267 -0.5510
   22SAPC  H18R 2911   4.832   4.038   8.512 -2.2671  0.1356  0.1923
   22SAPC  H18S 2912   4.821   3.956   8.658 -0.1630  0.6233 -0.8694
   22SAPC  C219 2913   5.013   4.057   8.638  0.6012  0.3838 -0.6901
   22SAPC  H19R 2914   5.047   3.962   8.592  0.9528 -0.3925  1.1329
   22SAPC  H19S 2915   5.033   4.035   8.745 -0.8317 -0.5915 -0.6020
   22SAPC  C220 2916   5.079   4.178   8.588 -0.2111 -0.6412  0.3840
   22SAPC  H20R 2917   5.190   4.177   8.593 -0.1620  0.1199 -0.3333
   22SAPC  H20S 2918   5.047   4.269   8.642 -1.3491 -0.0514 -1.2242
   22SAPC  H20T 2919   5.055   4.197   8.481 -0.6782 -2.1532  0.2140
   22SAPC   C33 2920   4.150   4.571  10.368 -0.4737  0.2864  0.1255
   22SAPC   H3X 2921   4.238   4.633  10.340  0.5996 -1.6081 -0.8073
   22SAPC   H3Y 2922   4.079   4.652  10.396 -0.8339 -0.1471  0.4847
   22SAPC   C34 2923   4.098   4.489  10.255  0.3765 -0.0176 -0.7864
   22SAPC   H4X 2924   4.016   4.431  10.303  1.1239 -0.5494 -0.1425
   22SAPC   H4Y 2925   4.173   4.415  10.218 -0.8774 -1.3579 -0.6816
   22SAPC   C35 2926   4.057   4.580  10.147 -1.1500  0.1758  0.0544
   22SAPC   H5X 2927   4.052   4.535  10.046 -1.9418 -0.0641  0.1981
   22SAPC   H5Y 2928   4.133   4.661  10.155 -1.8724  0.6544  2.9390
   22SAPC   C36 2929   3.920   4.657  10.160 -0.8789 -0.0628 -0.2786
   22SAPC   H6X 2930   3.922   4.717  10.254  1.3050 -0.4527 -0.0647
   22SAPC   H6Y 2931   3.846   4.575  10.171  0.5371 -1.5915 -2.0270
   22SAPC   C37 2932   3.895   4.750  10.042  0.3599 -0.1494 -0.2440
   22SAPC   H7X 2933   3.994   4.800  10.042 -0.4248  1.4422 -0.3631
   22SAPC   H7Y 2934   3.816   4.825  10.061 -0.5575 -1.1095 -0.2298
   22SAPC   C38 2935   3.863   4.667   9.915  0.1221  0.2424  0.0483
   22SAPC   H8X 2936   3.760   4.627   9.909  0.4800 -0.4589 -1.5138
   22SAPC   H8Y 2937   3.928   4.578   9.904 -0.3043 -0.0692  0.0606
   22SAPC   C39 2938   3.883   4.751   9.786  0.2600 -0.0546  0.1848
   22SAPC   H9X 2939   3.992   4.766   9.768 -0.0806  1.8572 -0.4170
   22SAPC   H9Y 2940   3.842   4.854   9.792  2.1018  0.8418 -1.8890
   22SAPC  C310 2941   3.817   4.689   9.666  0.7361  0.0233  0.4224
   22SAPC  H10X 2942   3.709   4.666   9.679  0.5317  1.4416  1.3467
   22SAPC  H10Y 2943   3.861   4.588   9.657  0.6369 -0.0617  0.8775
   22SAPC  C311 2944   3.827   4.765   9.534  0.1190 -0.3402  0.0449
   22SAPC  H11X 2945   3.935   4.787   9.528  0.0176 -0.3971 -2.1973
   22SAPC  H11Y 2946   3.766   4.858   9.531  3.9921  2.3369  0.1773
   22SAPC  C312 2947   3.782   4.689   9.407  0.5017  0.1145  0.1618
   22SAPC  H12X 2948   3.677   4.652   9.416  0.8355 -0.5158  1.5455
   22SAPC  H12Y 2949   3.838   4.594   9.410 -0.2666 -0.2995  2.1524
   22SAPC  C313 2950   3.799   4.772   9.276  0.6865  0.2086  0.1698
   22SAPC  H13X 2951   3.905   4.803   9.277  0.9738 -0.7547  0.4040
   22SAPC  H13Y 2952   3.742   4.867   9.291 -1.2568 -0.9563  0.3989
   22SAPC  C314 2953   3.762   4.699   9.144  0.0975  0.2458  0.0578
   22SAPC  H14X 2954   3.651   4.692   9.153  0.1262 -0.2924 -0.0157
   22SAPC  H14Y 2955   3.791   4.592   9.139 -0.0749  0.1753  0.5616
   22SAPC  C315 2956   3.795   4.794   9.028  0.3288  0.1575  0.0723
   22SAPC  H15X 2957   3.899   4.830   9.039  0.1034  0.9940 -0.4997
   22SAPC  H15Y 2958   3.741   4.891   9.031  1.5262  0.7833  4.4672
   22SAPC  C316 2959   3.772   4.737   8.881  0.4691  0.2934 -0.6360
   22SAPC  H16X 2960   3.661   4.738   8.877  0.3355 -3.2255  0.2223
   22SAPC  H16Y 2961   3.802   4.630   8.888 -0.0553  0.1996  0.3124
   22SAPC  C317 2962   3.845   4.809   8.767  0.3184  0.3776 -0.5348
   22SAPC  H17X 2963   3.946   4.819   8.811 -0.4861  1.3336  1.1184
   22SAPC  H17Y 2964   3.793   4.907   8.762  0.4438  0.7202  3.5211
   22SAPC  C318 2965   3.850   4.746   8.627  0.1973  0.0842 -0.2112
   22SAPC  H18X 2966   3.756   4.748   8.569 -1.0719  3.8783  1.8442
   22SAPC  H18Y 2967   3.890   4.642   8.632  0.2121  0.1211  0.6032
   22SAPC  H18Z 2968   3.921   4.811   8.571  0.4134  1.7597  1.9480
   23SAPC     N 2969   6.464   6.078  11.088 -0.3194 -0.4780 -0.4196
   23SAPC   C12 2970   6.458   6.143  10.944  0.6972  0.1941 -0.3254
   23SAPC  H12A 2971   6.502   6.069  10.879 -0.9355 -1.8150  0.8024
   23SAPC  H12B 2972   6.522   6.231  10.948 -0.9542  1.5620 -2.6099
   23SAPC   C13 2973   6.373   5.958  11.091 -0.3161  0.4089 -0.2154
   23SAPC  H13A 2974   6.368   5.918  11.192  0.7815  0.0126 -0.3071
   23SAPC  H13B 2975   6.272   5.986  11.065 -0.1758  1.6073  0.5316
   23SAPC  H13C 2976   6.401   5.890  11.011 -0.4663  0.7042 -0.5155
   23SAPC   C14 2977   6.607   6.040  11.109  0.3700 -0.2543  0.0989
   23SAPC  H14A 2978   6.647   5.986  11.024  0.9638  0.7819 -0.2828
   23SAPC  H14B 2979   6.668   6.127  11.123  1.7163 -1.5633  2.8450
   23SAPC  H14C 2980   6.609   5.978  11.198 -2.5396  0.7274  0.9248
   23SAPC   C15 2981   6.420   6.177  11.192 -0.6321  0.0084 -0.4627
   23SAPC  H15A 2982   6.463   6.143  11.285 -0.2588 -1.9436 -1.3330
   23SAPC  H15B 2983   6.438   6.281  11.171  2.3066 -0.0428  1.4291
   23SAPC  H15C 2984   6.313   6.170  11.192 -0.7027  1.0504 -0.9229
   23SAPC   C11 2985   6.319   6.176  10.889 -0.2298  0.6442  0.3392
   23SAPC  H11A 2986   6.322   6.255  10.811  2.3503 -0.1350 -0.3943
   23SAPC  H11B 2987   6.263   6.226  10.971  2.4757  0.4156  2.3937
   23SAPC     P 2988   6.309   5.980  10.719  0.2962 -0.1920  0.1330
   23SAPC   O13 2989   6.450   5.933  10.747  0.5146 -0.4776  0.5152
   23SAPC   O14 2990   6.211   5.879  10.674  0.3389 -0.8992  0.5947
   23SAPC   O12 2991   6.253   6.055  10.851 -0.7489  0.2886 -0.0199
   23SAPC   O11 2992   6.323   6.109  10.622  0.2573  0.4008 -0.1774
   23SAPC    C1 2993   6.204   6.165  10.567  0.4774  0.6547  0.1511
   23SAPC    HA 2994   6.111   6.126  10.615  1.0545 -1.3730 -0.3078
   23SAPC    HB 2995   6.202   6.275  10.584 -0.6144  0.8511 -1.1956
   23SAPC    C2 2996   6.190   6.142  10.415 -0.1217  0.4796 -0.7072
   23SAPC    HS 2997   6.122   6.211  10.361  0.4284  2.0730  0.5925
   23SAPC   O21 2998   6.164   6.005  10.379  0.6204 -0.1323 -0.2943
   23SAPC   C21 2999   6.041   5.962  10.389  0.6880 -0.1397  0.4708
   23SAPC   O22 3000   5.951   6.023  10.439  0.4350 -0.2833  0.0232
   23SAPC   C22 3001   6.031   5.826  10.319  0.5109 -0.0671  0.5954
   23SAPC   H2R 3002   6.095   5.834  10.228 -0.8307  0.3763 -0.3240
   23SAPC   H2S 3003   6.074   5.739  10.372 -1.8747 -2.1446 -0.7301
   23SAPC    C3 3004   6.329   6.179  10.349  0.4333 -0.2886 -0.3658
   23SAPC    HX 3005   6.411   6.116  10.390 -0.2566 -0.9363  0.0313
   23SAPC    HY 3006   6.341   6.283  10.386 -1.5572 -1.0330  2.4631
   23SAPC   O31 3007   6.328   6.183  10.205 -0.2119 -0.1661  0.2810
   23SAPC   C31 3008   6.451   6.169  10.154 -0.1863 -0.3086  1.2747
   23SAPC   O32 3009   6.554   6.163  10.219 -0.0857  0.1998  0.4011
   23SAPC   C32 3010   6.436   6.148  10.003  0.0299 -0.9897  0.1969
   23SAPC   H2X 3011   6.389   6.050   9.979  1.1456 -0.3921 -4.9131
   23SAPC   H2Y 3012   6.538   6.148   9.960 -0.2541  1.9088 -0.5919
   23SAPC   C23 3013   5.885   5.787  10.273  0.1433 -0.5380  0.3873
   23SAPC   H3R 3014   5.848   5.881  10.225  2.8311 -0.1668 -1.0801
   23SAPC   H3S 3015   5.820   5.762  10.359 -1.0869  2.3195  0.3482
   23SAPC   C24 3016   5.881   5.666  10.174  0.2613  0.2155  0.5593
   23SAPC   H4R 3017   5.930   5.580  10.226  0.0353  0.1159  0.6106
   23SAPC   H4S 3018   5.947   5.682  10.087  0.6121  0.6241  0.9020
   23SAPC   C25 3019   5.742   5.635  10.123  0.1742  0.1550 -0.0271
   23SAPC   H5R 3020   5.675   5.602  10.203 -0.4269  0.6543 -0.3110
   23SAPC   C26 3021   5.707   5.634   9.994 -0.3991 -1.0820  0.0475
   23SAPC   H6R 3022   5.610   5.587   9.971 -0.6399 -0.7690  0.4267
   23SAPC   C27 3023   5.794   5.669   9.872  0.5600 -0.4089  0.2526
   23SAPC   H7R 3024   5.846   5.765   9.892  0.0391  0.1693 -1.1264
   23SAPC   H7S 3025   5.734   5.687   9.781 -0.5485  0.5642  1.1648
   23SAPC   C28 3026   5.879   5.550   9.847 -0.5053 -0.6283 -0.8483
   23SAPC   H8R 3027   5.897   5.480   9.931  0.5659  0.0791 -0.4800
   23SAPC   C29 3028   5.932   5.519   9.727  0.0907  0.2470  0.1815
   23SAPC   H9R 3029   5.999   5.432   9.718 -0.8163 -0.5201  0.7333
   23SAPC  C210 3030   5.916   5.598   9.602 -0.5660  0.0974 -0.1503
   23SAPC  H10R 3031   6.010   5.581   9.546 -0.2400  3.5363 -0.7548
   23SAPC  H10S 3032   5.918   5.707   9.621  0.2729  0.4235 -2.0639
   23SAPC  C211 3033   5.794   5.575   9.521 -0.3662 -0.3831 -0.6161
   23SAPC  H11R 3034   5.706   5.559   9.585  2.9218 -1.2820  3.9172
   23SAPC  C212 3035   5.790   5.564   9.390 -0.5410  0.2358  0.0306
   23SAPC  H12R 3036   5.695   5.553   9.336 -0.8787  1.1261  0.4277
   23SAPC  C213 3037   5.917   5.584   9.301  0.5478 -0.2155 -0.0371
   23SAPC  H13R 3038   5.903   5.526   9.207  0.9595  0.1224 -0.3120
   23SAPC  H13S 3039   6.007   5.530   9.339  1.5493  0.0077 -2.0169
   23SAPC  C214 3040   5.940   5.721   9.253 -0.0271 -0.5500 -0.1805
   23SAPC  H14R 3041   5.884   5.800   9.304 -0.6266 -1.4216  0.5060
   23SAPC  C215 3042   6.020   5.765   9.152 -0.2372 -0.5988 -0.1484
   23SAPC  H15R 3043   6.024   5.875   9.149  0.4270 -0.6049  0.3198
   23SAPC  C216 3044   6.099   5.683   9.058 -0.0224  0.2407  0.9991
   23SAPC  H16R 3045   6.036   5.595   9.033 -0.5032  1.2273 -1.3950
   23SAPC  H16S 3046   6.191   5.637   9.101  0.7781  0.8773  0.0059
   23SAPC  C217 3047   6.138   5.748   8.920  0.2629  0.2166 -0.3199
   23SAPC  H17R 3048   6.210   5.681   8.868 -0.5689 -0.8689 -0.1005
   23SAPC  H17S 3049   6.193   5.842   8.939 -1.3266  1.2451 -0.7529
   23SAPC  C218 3050   6.021   5.783   8.835 -0.3380  0.0241  0.4506
   23SAPC  H18R 3051   6.074   5.828   8.748 -0.2567 -0.9133  0.0077
   23SAPC  H18S 3052   5.960   5.862   8.883  0.3617  0.1439  1.1388
   23SAPC  C219 3053   5.940   5.661   8.782  0.1245  0.1554 -0.3027
   23SAPC  H19R 3054   5.866   5.696   8.707 -0.3861 -0.5672 -0.1381
   23SAPC  H19S 3055   5.892   5.611   8.869  0.0546  0.1087 -0.3689
   23SAPC  C220 3056   6.022   5.566   8.709  0.1099  0.2796 -0.3730
   23SAPC  H20R 3057   5.963   5.479   8.674 -0.4218  0.7692 -0.7097
   23SAPC  H20S 3058   6.105   5.530   8.772 -1.5456 -1.2040  1.0093
   23SAPC  H20T 3059   6.051   5.621   8.616 -1.5007  0.5383 -0.7431
   23SAPC   C33 3060   6.355   6.259   9.932 -0.1030 -0.2596 -0.1748
   23SAPC   H3X 3061   6.386   6.361   9.963  1.7994 -1.1647  0.9436
   23SAPC   H3Y 3062   6.250   6.247   9.966 -0.4831 -0.5714 -1.4142
   23SAPC   C34 3063   6.349   6.252   9.778 -0.0466  0.2725 -0.8691
   23SAPC   H4X 3064   6.297   6.344   9.744  1.5894  1.6114  0.2235
   23SAPC   H4Y 3065   6.295   6.162   9.743 -0.8161  0.6642 -0.6909
   23SAPC   C35 3066   6.501   6.248   9.731 -0.0639 -0.1471  0.0137
   23SAPC   H5X 3067   6.540   6.145   9.748 -2.0196 -1.1521 -1.3157
   23SAPC   H5Y 3068   6.563   6.307   9.802  0.1606  0.9576 -1.0892
   23SAPC   C36 3069   6.519   6.292   9.588  0.5792 -0.3381  0.3121
   23SAPC   H6X 3070   6.623   6.276   9.552  0.6350 -0.0464  0.3329
   23SAPC   H6Y 3071   6.504   6.403   9.587 -1.7684 -0.6410 -1.0257
   23SAPC   C37 3072   6.431   6.218   9.481 -0.1012 -0.3952  0.0665
   23SAPC   H7X 3073   6.325   6.249   9.492  0.0331 -0.7384  2.5542
   23SAPC   H7Y 3074   6.433   6.108   9.493  0.5517 -0.5039 -0.9107
   23SAPC   C38 3075   6.472   6.253   9.335 -0.3758  0.3854 -0.0835
   23SAPC   H8X 3076   6.573   6.212   9.315 -0.5991 -1.7415  2.7812
   23SAPC   H8Y 3077   6.474   6.364   9.327 -2.5560  0.2981 -2.3467
   23SAPC   C39 3078   6.365   6.198   9.235 -0.1980  0.5199 -0.6628
   23SAPC   H9X 3079   6.284   6.274   9.241  0.7056  1.3861  0.9393
   23SAPC   H9Y 3080   6.326   6.097   9.258  1.1468 -0.1113 -1.1181
   23SAPC  C310 3081   6.412   6.204   9.092  0.5971 -0.1572  0.5943
   23SAPC  H10X 3082   6.492   6.126   9.088  1.0672  0.3007  1.0235
   23SAPC  H10Y 3083   6.439   6.309   9.067 -0.3093 -0.3307 -1.1787
   23SAPC  C311 3084   6.289   6.172   9.011  0.0167 -0.3918  0.0625
   23SAPC  H11X 3085   6.201   6.237   9.028 -0.2239  0.2508 -3.3655
   23SAPC  H11Y 3086   6.254   6.068   9.027 -2.3866  0.2689 -0.8094
   23SAPC  C312 3087   6.324   6.175   8.858  0.2604 -0.6835 -0.1063
   23SAPC  H12X 3088   6.416   6.114   8.845  0.6764 -0.0859  0.0319
   23SAPC  H12Y 3089   6.347   6.278   8.824 -0.5030 -0.2732  0.5782
   23SAPC  C313 3090   6.200   6.139   8.775  0.1720  0.2024 -0.8425
   23SAPC  H13X 3091   6.135   6.229   8.781 -0.5052 -0.3829  0.7038
   23SAPC  H13Y 3092   6.150   6.053   8.823  1.9310 -0.1191  0.4464
   23SAPC  C314 3093   6.228   6.102   8.625  0.1744 -0.4029 -0.0649
   23SAPC  H14X 3094   6.144   6.037   8.594 -0.1544  1.0217 -2.2764
   23SAPC  H14Y 3095   6.316   6.034   8.631 -1.3398 -2.1108  6.9306
   23SAPC  C315 3096   6.244   6.229   8.539  0.6371  0.7290 -0.1062
   23SAPC  H15X 3097   6.307   6.300   8.596  0.0197  1.9119 -0.8675
   23SAPC  H15Y 3098   6.146   6.271   8.507 -0.6405 -1.8848  0.2360
   23SAPC  C316 3099   6.336   6.206   8.419  0.1236  0.0913  0.4003
   23SAPC  H16X 3100   6.428   6.154   8.451  0.7424  1.1350  0.3593
   23SAPC  H16Y 3101   6.375   6.304   8.384  1.2813 -1.1224 -1.8193
   23SAPC  C317 3102   6.268   6.125   8.311 -0.1796 -0.4468 -0.3399
   23SAPC  H17X 3103   6.176   6.175   8.273 -0.5769 -0.7878  0.1483
   23SAPC  H17Y 3104   6.237   6.020   8.334 -0.9560 -0.4689 -1.4570
   23SAPC  C318 3105   6.368   6.111   8.197 -0.4883  0.2830  0.3149
   23SAPC  H18X 3106   6.321   6.051   8.117  0.2417  1.2966 -0.8846
   23SAPC  H18Y 3107   6.459   6.056   8.228 -0.0397  0.3725 -0.8432
   23SAPC  H18Z 3108   6.405   6.211   8.166 -0.5073  0.7852  1.8579
   24SAPC     N 3109   1.316   6.786  11.101  0.2358 -0.7248 -0.2151
   24SAPC   C12 3110   1.294   6.733  10.963 -0.3063 -0.3314 -0.2086
   24SAPC  H12A 3111   1.380   6.759  10.903  0.6411 -1.2180  0.7400
   24SAPC  H12B 3112   1.207   6.784  10.925 -2.1017 -2.3908  1.0054
   24SAPC   C13 3113   1.193   6.796  11.181 -0.1627 -0.2806 -0.4775
   24SAPC  H13A 3114   1.209   6.817  11.286  0.7570  2.7908 -1.1794
   24SAPC  H13B 3115   1.117   6.863  11.142  0.5807  0.1544 -1.1849
   24SAPC  H13C 3116   1.144   6.700  11.176  0.6805 -0.7176 -0.2732
   24SAPC   C14 3117   1.419   6.707  11.175 -0.6263 -0.3103 -0.1105
   24SAPC  H14A 3118   1.404   6.602  11.159 -0.6173 -0.4845  1.0376
   24SAPC  H14B 3119   1.515   6.734  11.134 -0.8340  1.5755  0.5577
   24SAPC  H14C 3120   1.424   6.747  11.275  0.3109 -0.5562 -0.0603
   24SAPC   C15 3121   1.372   6.926  11.093 -0.2570 -0.0533  0.0756
   24SAPC  H15A 3122   1.460   6.918  11.031  0.1968  1.6645  0.4721
   24SAPC  H15B 3123   1.293   6.995  11.066 -0.1045  0.4681  0.9434
   24SAPC  H15C 3124   1.404   6.961  11.190  0.6168 -0.5855 -0.0151
   24SAPC   C11 3125   1.264   6.585  10.958  0.3009  0.2125  0.3349
   24SAPC  H11A 3126   1.348   6.522  10.994  1.5111  1.7685  0.3066
   24SAPC  H11B 3127   1.254   6.569  10.849 -0.5518 -0.4333  0.5039
   24SAPC     P 3128   1.002   6.579  10.959 -0.0199  0.2625 -0.1850
   24SAPC   O13 3129   0.906   6.485  11.021  0.1939 -0.4085 -0.4056
   24SAPC   O14 3130   0.973   6.722  10.969 -0.0784 -0.1188 -0.0249
   24SAPC   O12 3131   1.146   6.546  11.026  0.0373 -0.2558  0.2548
   24SAPC   O11 3132   1.008   6.541  10.802 -0.3580 -0.0685  0.1459
   24SAPC    C1 3133   1.079   6.422  10.762 -0.0804 -0.0276  0.7198
   24SAPC    HA 3134   1.173   6.398  10.816 -0.1299 -3.4959 -0.5984
   24SAPC    HB 3135   1.007   6.339  10.778 -2.4094  1.3222 -2.2391
   24SAPC    C2 3136   1.118   6.430  10.611 -0.1024 -0.1554 -0.1113
   24SAPC    HS 3137   1.201   6.504  10.620 -0.5281  0.4829 -1.3569
   24SAPC   O21 3138   1.015   6.492  10.531  0.2111  0.2056  0.2495
   24SAPC   C21 3139   0.907   6.422  10.508  0.6661  0.0820  0.1441
   24SAPC   O22 3140   0.877   6.311  10.555  0.1703 -0.0860 -0.0249
   24SAPC   C22 3141   0.809   6.497  10.419 -0.5357  0.3723  0.0941
   24SAPC   H2R 3142   0.728   6.521  10.491 -1.2756 -2.7222  0.3785
   24SAPC   H2S 3143   0.854   6.592  10.382  0.8381 -0.3029 -0.0150
   24SAPC    C3 3144   1.169   6.292  10.555 -0.4376  0.0654  0.8616
   24SAPC    HX 3145   1.080   6.225  10.560  0.0250 -0.5744  0.5197
   24SAPC    HY 3146   1.246   6.257  10.626  1.2438  0.4759 -0.7298
   24SAPC   O31 3147   1.203   6.306  10.417  0.0496 -0.2762  0.3345
   24SAPC   C31 3148   1.325   6.351  10.401 -0.1187  0.4205  0.5176
   24SAPC   O32 3149   1.410   6.357  10.486  0.3215  0.0046 -0.0292
   24SAPC   C32 3150   1.350   6.386  10.250  0.1915  0.3901 -0.1517
   24SAPC   H2X 3151   1.258   6.446  10.230  0.3504  0.4102 -0.8176
   24SAPC   H2Y 3152   1.347   6.293  10.191  3.0052  0.3711 -0.3324
   24SAPC   C23 3153   0.756   6.413  10.298  0.6065 -0.1588 -0.0111
   24SAPC   H3R 3154   0.649   6.442  10.290  0.9941  1.1023 -0.8330
   24SAPC   H3S 3155   0.747   6.306  10.324 -0.9218  0.7136  3.3206
   24SAPC   C24 3156   0.807   6.444  10.155  0.5615 -0.5683  0.0601
   24SAPC   H4R 3157   0.805   6.554  10.141 -0.5439 -0.5213  0.5824
   24SAPC   H4S 3158   0.724   6.398  10.097  0.2671 -0.2769  0.2492
   24SAPC   C25 3159   0.941   6.375  10.139 -0.5548  0.5056 -0.4513
   24SAPC   H5R 3160   1.004   6.356  10.227 -0.7990 -0.3225 -0.4476
   24SAPC   C26 3161   0.992   6.344  10.019 -0.5582  0.1334 -0.8417
   24SAPC   H6R 3162   1.074   6.271  10.015 -2.4163 -2.0892  0.0570
   24SAPC   C27 3163   0.930   6.378   9.889  0.8212 -0.3959  0.4154
   24SAPC   H7R 3164   0.821   6.398   9.895  0.3925 -2.4503 -0.3534
   24SAPC   H7S 3165   0.940   6.289   9.823  1.7532 -0.9920  1.3500
   24SAPC   C28 3166   0.989   6.508   9.836  0.3410 -0.3357  0.2116
   24SAPC   H8R 3167   0.982   6.591   9.908 -1.6871 -0.1375 -0.1767
   24SAPC   C29 3168   1.035   6.533   9.715  0.2361  0.3650  0.1981
   24SAPC   H9R 3169   1.075   6.633   9.690  0.0055  0.5858  0.7173
   24SAPC  C210 3170   1.051   6.425   9.611  0.3085  0.1270 -0.8173
   24SAPC  H10R 3171   1.035   6.467   9.510 -2.0113 -1.7163 -1.2888
   24SAPC  H10S 3172   0.964   6.356   9.614 -0.9535  1.6941 -0.6766
   24SAPC  C211 3173   1.181   6.347   9.624  0.4152 -0.9906 -0.0138
   24SAPC  H11R 3174   1.196   6.292   9.719 -2.5067  1.0986  1.7401
   24SAPC  C212 3175   1.272   6.328   9.529  0.5045 -0.0655 -0.4974
   24SAPC  H12R 3176   1.358   6.262   9.550  0.0365 -1.3689 -2.5082
   24SAPC  C213 3177   1.262   6.386   9.388  0.4319 -0.3618 -0.1646
   24SAPC  H13R 3178   1.164   6.367   9.339  0.1031 -0.1252  0.3925
   24SAPC  H13S 3179   1.331   6.333   9.320  1.1294 -1.2369  1.1993
   24SAPC  C214 3180   1.291   6.535   9.385  0.0324  0.1410 -0.8240
   24SAPC  H14R 3181   1.315   6.573   9.485  0.8861 -1.6215 -0.3306
   24SAPC  C215 3182   1.291   6.610   9.274 -0.7989 -0.2605 -0.0966
   24SAPC  H15R 3183   1.313   6.717   9.292 -3.8560  0.8430 -2.5026
   24SAPC  C216 3184   1.259   6.572   9.132  0.0624 -0.1440  0.1927
   24SAPC  H16R 3185   1.230   6.465   9.128  0.7843 -0.2757 -3.5232
   24SAPC  H16S 3186   1.352   6.585   9.072  0.6627 -0.0355  1.1325
   24SAPC  C217 3187   1.149   6.659   9.076 -0.5547  1.3957  0.4046
   24SAPC  H17R 3188   1.144   6.677   8.967  0.4894  0.5611  0.2148
   24SAPC  H17S 3189   1.164   6.760   9.118  1.3164  1.3335 -0.1106
   24SAPC  C218 3190   0.997   6.630   9.114 -0.1736 -0.0869  0.2709
   24SAPC  H18R 3191   0.989   6.641   9.225  0.7026  1.2943  0.2245
   24SAPC  H18S 3192   0.967   6.529   9.081 -0.2126  0.1498 -0.4180
   24SAPC  C219 3193   0.903   6.727   9.039 -0.4869 -0.0979 -0.2406
   24SAPC  H19R 3194   0.921   6.695   8.934  4.2740  1.7494 -0.0818
   24SAPC  H19S 3195   0.935   6.830   9.067  1.6308 -1.0112  0.8187
   24SAPC  C220 3196   0.757   6.709   9.076 -0.0790  0.0699 -0.0358
   24SAPC  H20R 3197   0.690   6.780   9.023 -0.5860  0.6586  1.3903
   24SAPC  H20S 3198   0.748   6.705   9.187  2.0281 -0.3930  0.1318
   24SAPC  H20T 3199   0.722   6.607   9.048 -3.2863  0.8921  0.7536
   24SAPC   C33 3200   1.484   6.463  10.218 -0.6723 -0.6669 -0.7394
   24SAPC   H3X 3201   1.509   6.524  10.308 -1.3442 -3.1020  1.1478
   24SAPC   H3Y 3202   1.463   6.526  10.129  0.2123  2.1898  0.9875
   24SAPC   C34 3203   1.605   6.372  10.187  0.4695  0.1604  0.4396
   24SAPC   H4X 3204   1.616   6.308  10.278 -0.7171 -2.1427 -0.9777
   24SAPC   H4Y 3205   1.701   6.426  10.173 -0.0951  1.2910  0.9111
   24SAPC   C35 3206   1.600   6.275  10.066 -0.3558  0.1350 -0.4807
   24SAPC   H5X 3207   1.601   6.326   9.968  0.2086  0.5111 -0.2767
   24SAPC   H5Y 3208   1.519   6.200  10.079  0.7100 -0.7754  1.0631
   24SAPC   C36 3209   1.724   6.180  10.076  0.1450 -0.6035 -0.3912
   24SAPC   H6X 3210   1.743   6.143  10.179 -0.7047  0.6051  0.2212
   24SAPC   H6Y 3211   1.822   6.227  10.054  0.8402 -1.6111  0.5254
   24SAPC   C37 3212   1.718   6.051   9.987 -0.6029 -0.2559 -0.9449
   24SAPC   H7X 3213   1.643   5.978  10.024 -1.2483  1.8999  2.1571
   24SAPC   H7Y 3214   1.813   5.993   9.994 -0.0816  0.7379  0.3421
   24SAPC   C38 3215   1.705   6.080   9.834 -0.4193 -0.1403 -0.3120
   24SAPC   H8X 3216   1.601   6.118   9.826 -0.1215  1.2056  1.5979
   24SAPC   H8Y 3217   1.715   5.983   9.782  1.3304  0.6101 -1.4125
   24SAPC   C39 3218   1.796   6.191   9.784  0.3249 -0.0906  1.2395
   24SAPC   H9X 3219   1.896   6.166   9.827 -0.4692 -0.7884  2.6900
   24SAPC   H9Y 3220   1.753   6.292   9.798  2.5714  1.3199 -1.3457
   24SAPC  C310 3221   1.797   6.186   9.626  0.1684 -0.5266 -0.2977
   24SAPC  H10X 3222   1.830   6.083   9.602  1.8401  0.0338 -0.4495
   24SAPC  H10Y 3223   1.883   6.249   9.594  0.4068 -0.1252  1.1137
   24SAPC  C311 3224   1.654   6.217   9.578  0.3867 -0.1287 -0.5429
   24SAPC  H11X 3225   1.636   6.326   9.590  1.1763  0.1636 -1.9033
   24SAPC  H11Y 3226   1.573   6.166   9.633 -0.3426  2.2757  0.6866
   24SAPC  C312 3227   1.638   6.197   9.431  0.3881  0.4463 -0.5143
   24SAPC  H12X 3228   1.703   6.268   9.375  0.1760  1.2220  0.2098
   24SAPC  H12Y 3229   1.536   6.227   9.400  1.0730  2.0668 -1.2524
   24SAPC  C313 3230   1.676   6.060   9.386 -0.0165 -0.3198 -0.9677
   24SAPC  H13X 3231   1.634   5.983   9.454 -0.5693 -2.0139 -3.1768
   24SAPC  H13Y 3232   1.785   6.040   9.394 -0.1519 -0.1328  1.5182
   24SAPC  C314 3233   1.639   6.035   9.243 -0.0019  0.1978  0.4627
   24SAPC  H14X 3234   1.717   6.077   9.176  0.4773 -0.5346  0.5628
   24SAPC  H14Y 3235   1.540   6.082   9.223  0.8319  1.7421 -0.1296
   24SAPC  C315 3236   1.641   5.889   9.198 -0.6208  0.4351  0.1105
   24SAPC  H15X 3237   1.580   5.824   9.264 -0.0260 -1.1209 -0.8455
   24SAPC  H15Y 3238   1.745   5.851   9.199 -0.9829 -0.5878 -0.2235
   24SAPC  C316 3239   1.580   5.859   9.058 -0.5983  0.8538  0.3776
   24SAPC  H16X 3240   1.636   5.917   8.982  0.0306  0.9446  0.9115
   24SAPC  H16Y 3241   1.473   5.889   9.049 -0.8811 -0.5588 -1.3397
   24SAPC  C317 3242   1.595   5.710   9.024  0.1465 -0.6310 -0.1545
   24SAPC  H17X 3243   1.588   5.635   9.105  0.7739 -0.1146  0.3856
   24SAPC  H17Y 3244   1.700   5.706   8.986  0.5200  0.3214  0.7548
   24SAPC  C318 3245   1.498   5.656   8.924  0.0702  0.2843 -0.2563
   24SAPC  H18X 3246   1.398   5.640   8.970  0.2246 -3.2921 -1.0074
   24SAPC  H18Y 3247   1.530   5.555   8.892 -0.2689 -0.9473  3.1247
   24SAPC  H18Z 3248   1.489   5.710   8.827 -0.0165 -0.3022 -0.5758
   25SAPC     N 3249   5.068   4.951   5.784  0.1624  0.3308 -0.4945
   25SAPC   C12 3250   5.109   4.810   5.825  0.3904  0.2283  0.2123
   25SAPC  H12A 3251   5.202   4.790   5.774  2.0516 -0.1526  3.2600
   25SAPC  H12B 3252   5.038   4.734   5.796 -1.9454  2.4968 -0.2702
   25SAPC   C13 3253   4.936   4.992   5.827 -0.0677  0.6048  0.5327
   25SAPC  H13A 3254   4.930   4.998   5.935  2.4080  2.0152  0.6208
   25SAPC  H13B 3255   4.921   5.092   5.788  1.1016  0.0417 -1.4159
   25SAPC  H13C 3256   4.862   4.923   5.789  1.6556  0.2001 -2.2176
   25SAPC   C14 3257   5.174   5.049   5.827  0.6545  0.1537 -0.1624
   25SAPC  H14A 3258   5.147   5.148   5.793 -1.4544  0.3224  1.8751
   25SAPC  H14B 3259   5.156   5.051   5.934 -1.4733 -0.0226 -0.4890
   25SAPC  H14C 3260   5.268   5.023   5.781  0.7043 -2.1302  1.1550
   25SAPC   C15 3261   5.063   4.959   5.636  0.1768  0.0890 -0.3873
   25SAPC  H15A 3262   5.004   4.879   5.594  0.9490 -0.0739 -1.1817
   25SAPC  H15B 3263   5.029   5.056   5.602  2.5364  2.8639  4.5590
   25SAPC  H15C 3264   5.165   4.951   5.601  1.0580  1.0421  1.8529
   25SAPC   C11 3265   5.124   4.787   5.974 -0.3484  0.3054 -0.0980
   25SAPC  H11A 3266   5.176   4.867   6.032  0.7855  2.4210 -3.8614
   25SAPC  H11B 3267   5.194   4.702   5.988  0.4524  0.6038 -2.0651
   25SAPC     P 3268   4.935   4.809   6.159  0.1921 -0.5689 -0.4591
   25SAPC   O13 3269   4.955   4.961   6.168  0.5753  0.7723  0.2985
   25SAPC   O14 3270   4.798   4.757   6.166  0.3727  0.0403 -0.3000
   25SAPC   O12 3271   5.000   4.753   6.027  0.2084 -0.1612 -0.0788
   25SAPC   O11 3272   5.025   4.734   6.270 -0.1068 -0.0518 -0.3017
   25SAPC    C1 3273   5.087   4.603   6.257 -0.8101  0.6202 -0.3153
   25SAPC    HA 3274   5.125   4.589   6.154 -0.9305  0.4479 -0.3356
   25SAPC    HB 3275   5.180   4.601   6.318 -0.9608 -0.1819 -0.1062
   25SAPC    C2 3276   4.997   4.485   6.302 -0.5727 -0.3316  1.0115
   25SAPC    HS 3277   4.914   4.486   6.228  1.4122 -0.8336 -1.2740
   25SAPC   O21 3278   4.955   4.519   6.435 -0.1679  0.1246  0.8170
   25SAPC   C21 3279   4.849   4.453   6.485  0.0719  0.1111 -0.5055
   25SAPC   O22 3280   4.802   4.353   6.445 -0.1794  0.5755 -0.2003
   25SAPC   C22 3281   4.794   4.541   6.595  0.7512  0.1842  0.2426
   25SAPC   H2R 3282   4.865   4.571   6.675  1.8884 -1.8010  0.0165
   25SAPC   H2S 3283   4.758   4.630   6.540 -0.8901 -0.1292  0.8074
   25SAPC    C3 3284   5.060   4.342   6.283  0.1560 -0.2020 -0.3992
   25SAPC    HX 3285   5.093   4.333   6.178  1.5084 -0.4305  0.0319
   25SAPC    HY 3286   4.979   4.269   6.303 -1.4410  2.0269  1.6031
   25SAPC   O31 3287   5.176   4.319   6.363 -0.3484 -0.5465  0.5027
   25SAPC   C31 3288   5.171   4.284   6.491 -0.0337 -0.5948  0.1320
   25SAPC   O32 3289   5.070   4.267   6.554 -0.2233 -0.4456  0.0554
   25SAPC   C32 3290   5.314   4.265   6.537  0.8097 -0.5518 -0.0358
   25SAPC   H2X 3291   5.362   4.365   6.541  1.0127 -0.6572  0.1389
   25SAPC   H2Y 3292   5.370   4.201   6.466 -1.9005 -1.6821 -1.2364
   25SAPC   C23 3293   4.670   4.474   6.669  0.6861 -0.0985 -0.3501
   25SAPC   H3R 3294   4.700   4.373   6.704  1.7816  1.0228  2.1238
   25SAPC   H3S 3295   4.585   4.448   6.603 -0.3687  2.6315 -0.1171
   25SAPC   C24 3296   4.620   4.549   6.791 -0.3858  0.3448 -0.4856
   25SAPC   H4R 3297   4.537   4.483   6.821  0.0563 -0.4080 -0.8980
   25SAPC   H4S 3298   4.568   4.642   6.759  0.3705  1.3005  0.9712
   25SAPC   C25 3299   4.710   4.587   6.901 -0.3844 -0.3835 -0.1015
   25SAPC   H5R 3300   4.817   4.601   6.881 -0.4396  2.7624  1.5559
   25SAPC   C26 3301   4.680   4.573   7.029  0.1831 -0.4801  0.2575
   25SAPC   H6R 3302   4.757   4.600   7.102  1.6857 -1.4067 -0.9546
   25SAPC   C27 3303   4.561   4.525   7.101  0.2984  1.1305 -0.2555
   25SAPC   H7R 3304   4.565   4.421   7.140 -0.5623  0.9789 -0.5655
   25SAPC   H7S 3305   4.476   4.513   7.031  0.4156 -1.4721 -0.0370
   25SAPC   C28 3306   4.514   4.614   7.214  0.0494  0.6190 -1.0821
   25SAPC   H8R 3307   4.487   4.717   7.187  0.2306  1.1677  0.7459
   25SAPC   C29 3308   4.511   4.598   7.346  0.0869 -0.4948 -0.6488
   25SAPC   H9R 3309   4.460   4.673   7.408 -1.6029 -0.9975 -1.3821
   25SAPC  C210 3310   4.547   4.475   7.423 -0.1322 -0.0162 -0.0254
   25SAPC  H10R 3311   4.648   4.483   7.469 -0.2092  0.0374  0.1354
   25SAPC  H10S 3312   4.556   4.386   7.357 -0.6293  0.2593 -0.4639
   25SAPC  C211 3313   4.447   4.442   7.536 -0.1614  0.2119 -0.1251
   25SAPC  H11R 3314   4.360   4.379   7.512  1.3038 -0.8593 -2.9166
   25SAPC  C212 3315   4.462   4.478   7.668 -0.5346  1.2535  0.2116
   25SAPC  H12R 3316   4.386   4.454   7.744  0.0362  1.2324  0.7860
   25SAPC  C213 3317   4.578   4.548   7.733  0.9614 -0.3201 -0.5120
   25SAPC  H13R 3318   4.529   4.584   7.826  0.5559  0.8736 -1.1702
   25SAPC  H13S 3319   4.587   4.640   7.670  0.3785 -1.3284 -2.0978
   25SAPC  C214 3320   4.709   4.474   7.755  0.6495 -0.4168 -0.0387
   25SAPC  H14R 3321   4.744   4.405   7.677  0.0752 -1.0448  0.2488
   25SAPC  C215 3322   4.788   4.491   7.865  0.5976  0.0439  0.1652
   25SAPC  H15R 3323   4.884   4.439   7.874 -0.6218 -2.5323 -1.1192
   25SAPC  C216 3324   4.755   4.576   7.984  0.3552  0.3963 -0.2968
   25SAPC  H16R 3325   4.648   4.608   7.985 -0.4421 -2.1459 -1.2990
   25SAPC  H16S 3326   4.817   4.668   7.988  0.3908  0.3866 -0.7012
   25SAPC  C217 3327   4.774   4.494   8.112  0.3042 -0.6295 -0.4562
   25SAPC  H17R 3328   4.716   4.399   8.106 -0.2817 -0.3882  1.1892
   25SAPC  H17S 3329   4.743   4.559   8.196  0.2959  0.2396 -1.1208
   25SAPC  C218 3330   4.926   4.462   8.134 -0.5034 -0.7237 -0.1974
   25SAPC  H18R 3331   4.982   4.543   8.081 -0.7933  0.8703  1.8812
   25SAPC  H18S 3332   4.947   4.368   8.079  0.0685  0.3725 -1.8955
   25SAPC  C219 3333   4.976   4.476   8.277 -0.5948  0.2111  0.0073
   25SAPC  H19R 3334   4.917   4.406   8.341 -0.9311  0.2347 -0.2738
   25SAPC  H19S 3335   4.948   4.580   8.305 -0.0950  0.2591  0.3293
   25SAPC  C220 3336   5.128   4.440   8.289 -0.3379 -0.2137 -0.7620
   25SAPC  H20R 3337   5.200   4.517   8.253 -0.2770  0.3292  0.5203
   25SAPC  H20S 3338   5.149   4.343   8.239 -2.2230 -0.8078 -0.4411
   25SAPC  H20T 3339   5.151   4.434   8.397  3.2154 -0.5447 -1.4771
   25SAPC   C33 3340   5.322   4.190   6.673  0.3976  0.3774  0.2543
   25SAPC   H3X 3341   5.230   4.136   6.704  0.3695  0.9002  1.0854
   25SAPC   H3Y 3342   5.317   4.269   6.751 -0.3376  0.8463 -0.2576
   25SAPC   C34 3343   5.434   4.100   6.696  0.0485  0.2545  0.2962
   25SAPC   H4X 3344   5.534   4.148   6.684 -0.3795  1.4549  1.4334
   25SAPC   H4Y 3345   5.424   4.020   6.620 -3.2326 -2.4072  3.3764
   25SAPC   C35 3346   5.450   4.044   6.837 -0.5109 -0.5919  0.3753
   25SAPC   H5X 3347   5.507   4.117   6.898 -0.0792  0.3395 -1.1238
   25SAPC   H5Y 3348   5.517   3.956   6.825 -0.2068 -0.4127  0.7611
   25SAPC   C36 3349   5.322   3.984   6.904  0.0388 -0.3729  0.2535
   25SAPC   H6X 3350   5.265   3.915   6.838 -1.2042  1.0281 -0.1623
   25SAPC   H6Y 3351   5.251   4.069   6.910 -1.4069 -1.2079 -3.4005
   25SAPC   C37 3352   5.351   3.920   7.043 -0.5739  0.3531  0.0338
   25SAPC   H7X 3353   5.392   3.821   7.015 -0.9977 -0.5512  2.5282
   25SAPC   H7Y 3354   5.251   3.902   7.089  0.1506  1.6415  2.2066
   25SAPC   C38 3355   5.442   4.001   7.134 -0.3336 -0.1949 -0.0297
   25SAPC   H8X 3356   5.418   4.103   7.100  0.0311  0.3734  1.3876
   25SAPC   H8Y 3357   5.544   3.968   7.107  0.2970  1.5223  0.2505
   25SAPC   C39 3358   5.410   3.969   7.286 -0.1730 -0.5196  0.6476
   25SAPC   H9X 3359   5.431   3.860   7.287 -0.0256 -0.5037 -0.2928
   25SAPC   H9Y 3360   5.303   3.985   7.312 -0.4051 -0.6465 -0.2122
   25SAPC  C310 3361   5.502   4.039   7.381 -0.6832  0.0286 -0.5134
   25SAPC  H10X 3362   5.498   4.149   7.368  1.7006  0.1674 -0.2646
   25SAPC  H10Y 3363   5.608   4.025   7.354 -0.7874 -1.9099 -0.0193
   25SAPC  C311 3364   5.478   3.995   7.523  0.6422 -0.2527 -0.4632
   25SAPC  H11X 3365   5.524   3.898   7.550  0.4171 -0.6808 -1.5911
   25SAPC  H11Y 3366   5.369   4.006   7.538  0.7951  2.3686 -1.0254
   25SAPC  C312 3367   5.525   4.109   7.620 -0.5237 -0.4811 -0.2003
   25SAPC  H12X 3368   5.471   4.200   7.584  1.8695  1.5351  1.0993
   25SAPC  H12Y 3369   5.635   4.118   7.610 -0.6806 -1.1927 -2.9742
   25SAPC  C313 3370   5.502   4.093   7.767  0.0479  0.6637  0.1472
   25SAPC  H13X 3371   5.547   4.180   7.820 -0.9031  1.7442 -0.8048
   25SAPC  H13Y 3372   5.548   3.998   7.801  2.9660  2.3060  1.0340
   25SAPC  C314 3373   5.357   4.115   7.812 -0.8378  0.2089 -0.2847
   25SAPC  H14X 3374   5.283   4.045   7.767 -1.6183  1.1543 -0.4870
   25SAPC  H14Y 3375   5.320   4.216   7.787  1.8548  1.1544 -0.5357
   25SAPC  C315 3376   5.342   4.092   7.965 -0.0241  0.9011  0.0470
   25SAPC  H15X 3377   5.386   3.992   7.988  2.4506  1.5797 -1.5904
   25SAPC  H15Y 3378   5.234   4.088   7.993  0.1285 -2.6041  0.3627
   25SAPC  C316 3379   5.399   4.211   8.054  0.0611 -0.3562 -0.1449
   25SAPC  H16X 3380   5.334   4.301   8.041  2.2978  0.9986 -2.3091
   25SAPC  H16Y 3381   5.495   4.243   8.009 -0.4163 -1.2013 -1.7911
   25SAPC  C317 3382   5.411   4.177   8.205 -0.4118  0.3451  0.8061
   25SAPC  H17X 3383   5.451   4.074   8.213 -0.4322 -0.0571 -3.2815
   25SAPC  H17Y 3384   5.308   4.175   8.248 -0.6815 -1.0983  0.1035
   25SAPC  C318 3385   5.486   4.277   8.294  0.0368 -0.1548 -0.2031
   25SAPC  H18X 3386   5.573   4.315   8.238 -0.3838  0.0192 -0.7341
   25SAPC  H18Y 3387   5.540   4.235   8.382  0.3442  0.2578 -0.1975
   25SAPC  H18Z 3388   5.429   4.371   8.310  0.7039 -0.0696  1.8176
   26SAPC     N 3389   4.703   6.717   5.929  0.1623 -0.0941  0.8338
   26SAPC   C12 3390   4.679   6.674   6.076  0.3394  0.0130  0.5491
   26SAPC  H12A 3391   4.776   6.681   6.124  0.2050  0.9106  0.7018
   26SAPC  H12B 3392   4.649   6.571   6.068  1.4404 -0.0971 -3.0501
   26SAPC   C13 3393   4.808   6.634   5.861  0.0984  0.2071  0.1161
   26SAPC  H13A 3394   4.786   6.529   5.875  2.2059 -0.5992 -2.2859
   26SAPC  H13B 3395   4.820   6.656   5.756 -0.3775  1.7610  0.3631
   26SAPC  H13C 3396   4.901   6.659   5.910 -1.1324  1.6456  1.7714
   26SAPC   C14 3397   4.571   6.725   5.855 -0.3471  0.5377  0.2149
   26SAPC  H14A 3398   4.573   6.799   5.777 -1.6937  1.1693  0.7697
   26SAPC  H14B 3399   4.547   6.640   5.793  0.1829  1.3529 -1.1288
   26SAPC  H14C 3400   4.492   6.743   5.926  0.1433 -0.5376  1.0572
   26SAPC   C15 3401   4.751   6.858   5.931  0.2337 -0.3588  1.1433
   26SAPC  H15A 3402   4.787   6.882   5.832 -0.9629  2.2134  1.2990
   26SAPC  H15B 3403   4.672   6.925   5.962  1.4623  0.4671  2.5631
   26SAPC  H15C 3404   4.830   6.876   6.004  1.8450 -1.5591 -0.2725
   26SAPC   C11 3405   4.570   6.745   6.153  0.4480 -0.0786  0.2747
   26SAPC  H11A 3406   4.587   6.851   6.123  1.9156  0.1692  1.9011
   26SAPC  H11B 3407   4.591   6.745   6.263 -2.6909 -2.4432  0.9392
   26SAPC     P 3408   4.372   6.580   6.155 -0.0803 -0.1348 -0.3362
   26SAPC   O13 3409   4.233   6.566   6.125  0.1277 -0.2128 -0.0759
   26SAPC   O14 3410   4.453   6.468   6.096  0.0570 -0.5704  0.1062
   26SAPC   O12 3411   4.436   6.721   6.122 -0.4798 -0.4396  0.1197
   26SAPC   O11 3412   4.383   6.573   6.318 -0.5277  0.3880  0.1386
   26SAPC    C1 3413   4.342   6.682   6.404 -0.0298  0.0003  0.3120
   26SAPC    HA 3414   4.405   6.769   6.374 -0.7768  0.3014 -0.3955
   26SAPC    HB 3415   4.234   6.702   6.387 -0.1918 -1.5891 -0.5583
   26SAPC    C2 3416   4.357   6.662   6.553 -0.4396 -0.1483 -0.0668
   26SAPC    HS 3417   4.464   6.639   6.571 -0.1753  0.7739 -0.4556
   26SAPC   O21 3418   4.279   6.548   6.596 -0.3551  0.3810 -0.6694
   26SAPC   C21 3419   4.331   6.474   6.693  1.1106 -0.5365  0.1480
   26SAPC   O22 3420   4.439   6.498   6.742 -0.7442 -0.4118 -0.3560
   26SAPC   C22 3421   4.236   6.364   6.713  0.4219  0.1943 -0.6856
   26SAPC   H2R 3422   4.133   6.399   6.693 -0.3431 -2.0471 -0.6957
   26SAPC   H2S 3423   4.251   6.281   6.640 -1.4067 -0.3626 -0.4458
   26SAPC    C3 3424   4.326   6.789   6.636  0.1040 -0.3091  0.1462
   26SAPC    HX 3425   4.216   6.808   6.635  0.0050 -0.8770 -0.1064
   26SAPC    HY 3426   4.385   6.867   6.584 -0.3535 -1.9727 -3.0122
   26SAPC   O31 3427   4.378   6.789   6.769  0.3346  0.1168 -0.0303
   26SAPC   C31 3428   4.304   6.755   6.874  0.0091 -0.3097  0.1485
   26SAPC   O32 3429   4.185   6.732   6.876 -0.8021  0.4577 -0.5600
   26SAPC   C32 3430   4.402   6.731   6.996 -0.4791 -0.2411 -0.3679
   26SAPC   H2X 3431   4.471   6.818   6.994 -0.9771  0.2546  2.1016
   26SAPC   H2Y 3432   4.466   6.644   6.973 -0.5402 -0.1245 -0.9646
   26SAPC   C23 3433   4.244   6.289   6.844  0.7521  0.5123 -0.2152
   26SAPC   H3R 3434   4.328   6.217   6.838  0.5956 -0.0192  3.1648
   26SAPC   H3S 3435   4.153   6.227   6.855  0.4214  1.0231 -0.0251
   26SAPC   C24 3436   4.266   6.370   6.973 -0.7290  0.4369 -0.5098
   26SAPC   H4R 3437   4.180   6.437   6.996 -1.5407 -0.7843  0.0759
   26SAPC   H4S 3438   4.357   6.431   6.957 -1.1784  0.8442 -1.5742
   26SAPC   C25 3439   4.300   6.273   7.092  0.1469 -0.6444 -0.4117
   26SAPC   H5R 3440   4.405   6.258   7.120  0.4465 -1.1162 -1.7757
   26SAPC   C26 3441   4.199   6.215   7.165  0.0072  0.1790  0.0375
   26SAPC   H6R 3442   4.232   6.163   7.256 -0.6180 -0.7899 -0.2790
   26SAPC   C27 3443   4.049   6.226   7.146 -0.4130  0.1907  0.3633
   26SAPC   H7R 3444   4.030   6.268   7.045  3.9045 -0.4547 -0.8135
   26SAPC   H7S 3445   4.017   6.306   7.216 -1.0294  2.4073 -2.3756
   26SAPC   C28 3446   3.956   6.111   7.160 -0.3409 -0.4373 -0.4408
   26SAPC   H8R 3447   3.924   6.069   7.063  0.2807 -0.7704 -0.5013
   26SAPC   C29 3448   3.910   6.067   7.281 -0.4283 -1.1065 -0.0305
   26SAPC   H9R 3449   3.845   5.978   7.280  1.0033 -2.1756  1.0070
   26SAPC  C210 3450   3.945   6.118   7.420 -0.0644  0.3254  0.2865
   26SAPC  H10R 3451   3.997   6.215   7.409 -0.9197  0.9507  1.6148
   26SAPC  H10S 3452   4.020   6.064   7.481  2.3201  1.7034 -1.3233
   26SAPC  C211 3453   3.814   6.144   7.495  0.2429  0.6008 -0.0465
   26SAPC  H11R 3454   3.734   6.199   7.444  0.1291  0.5141  0.0385
   26SAPC  C212 3455   3.786   6.099   7.617  0.1825 -0.0445  0.2436
   26SAPC  H12R 3456   3.692   6.140   7.658  0.9255  0.2565  1.7071
   26SAPC  C213 3457   3.860   6.016   7.710 -0.2132 -0.0015 -0.1500
   26SAPC  H13R 3458   3.932   5.957   7.649 -1.9292 -1.9848 -0.3027
   26SAPC  H13S 3459   3.792   5.936   7.744 -0.0367  0.0519  0.3310
   26SAPC  C214 3460   3.932   6.076   7.831 -0.5459  0.0256  0.3369
   26SAPC  H14R 3461   4.003   6.153   7.797  0.3082 -0.8071  0.2100
   26SAPC  C215 3462   3.925   6.052   7.962  0.9907 -0.5392  0.4725
   26SAPC  H15R 3463   4.005   6.105   8.017  0.1675  1.1030  0.1364
   26SAPC  C216 3464   3.839   5.959   8.038  0.5714  0.0477 -0.5769
   26SAPC  H16R 3465   3.784   5.892   7.969 -1.4200 -1.2154  2.1165
   26SAPC  H16S 3466   3.758   6.022   8.083  1.1578 -0.3882  1.1430
   26SAPC  C217 3467   3.913   5.872   8.141 -0.3936  0.8843 -0.3078
   26SAPC  H17R 3468   3.989   5.929   8.199  2.5218 -0.8501 -2.2642
   26SAPC  H17S 3469   3.962   5.792   8.081 -2.1362  2.4533 -4.0039
   26SAPC  C218 3470   3.822   5.806   8.242 -0.3839  0.1310 -0.1668
   26SAPC  H18R 3471   3.735   5.759   8.192  0.5693 -0.4537 -1.2899
   26SAPC  H18S 3472   3.792   5.887   8.312 -0.3680  1.4409 -1.6618
   26SAPC  C219 3473   3.888   5.694   8.325 -1.0691  0.0806  0.4026
   26SAPC  H19R 3474   3.906   5.606   8.260 -2.4557  0.4257 -0.4512
   26SAPC  H19S 3475   3.817   5.660   8.403 -1.3998 -1.4425 -0.5468
   26SAPC  C220 3476   4.014   5.737   8.388 -0.3687 -0.4315  0.7188
   26SAPC  H20R 3477   4.001   5.824   8.456 -0.4266  0.3555 -0.2708
   26SAPC  H20S 3478   4.091   5.773   8.316 -0.0369 -0.4361  1.0751
   26SAPC  H20T 3479   4.058   5.651   8.441 -0.1474 -0.5202  0.3975
   26SAPC   C33 3480   4.337   6.717   7.135  0.7114  0.2662  0.3854
   26SAPC   H3X 3481   4.269   6.629   7.136  1.1317 -0.0629  0.0668
   26SAPC   H3Y 3482   4.271   6.802   7.163 -0.5082 -0.5510  0.0209
   26SAPC   C34 3483   4.435   6.688   7.251 -0.2080  0.7749  1.1856
   26SAPC   H4X 3484   4.465   6.790   7.285  1.7583 -0.4286  3.2108
   26SAPC   H4Y 3485   4.518   6.634   7.201 -1.8589 -1.1575  0.4705
   26SAPC   C35 3486   4.373   6.614   7.367 -0.7463 -0.0829  0.3742
   26SAPC   H5X 3487   4.336   6.520   7.321  1.9669 -0.7927 -0.4364
   26SAPC   H5Y 3488   4.294   6.674   7.418 -3.7497 -1.7678 -2.1297
   26SAPC   C36 3489   4.487   6.562   7.455  0.2415  0.4217  0.1539
   26SAPC   H6X 3490   4.545   6.655   7.474  1.6092 -0.3704 -0.0750
   26SAPC   H6Y 3491   4.562   6.499   7.403  0.2340  3.1255 -3.2561
   26SAPC   C37 3492   4.432   6.485   7.582 -0.1408 -0.1855 -0.3902
   26SAPC   H7X 3493   4.350   6.543   7.630  0.4284 -0.1818  0.5934
   26SAPC   H7Y 3494   4.517   6.473   7.653  0.8926  0.8611 -1.4489
   26SAPC   C38 3495   4.378   6.345   7.546  0.0608  0.3567 -0.0433
   26SAPC   H8X 3496   4.460   6.289   7.497 -1.3303 -1.9780  0.1978
   26SAPC   H8Y 3497   4.303   6.370   7.468  0.5037 -0.9786 -0.9116
   26SAPC   C39 3498   4.332   6.267   7.663 -0.1653 -0.8302  0.3357
   26SAPC   H9X 3499   4.298   6.170   7.621 -1.7174 -0.3086  0.3340
   26SAPC   H9Y 3500   4.250   6.306   7.727  2.3684  0.4246  2.9519
   26SAPC  C310 3501   4.454   6.237   7.761  0.6188 -0.7444 -0.7227
   26SAPC  H10X 3502   4.482   6.316   7.834 -0.6161 -0.6594 -0.3435
   26SAPC  H10Y 3503   4.545   6.214   7.701  1.1305 -0.6805  0.0242
   26SAPC  C311 3504   4.422   6.114   7.850  0.0327 -0.2124 -0.0506
   26SAPC  H11X 3505   4.512   6.052   7.870 -1.0856 -2.2985 -1.3698
   26SAPC  H11Y 3506   4.350   6.044   7.804 -0.9061  0.4607  0.3890
   26SAPC  C312 3507   4.360   6.145   7.988 -0.1524  0.0211 -0.1360
   26SAPC  H12X 3508   4.293   6.234   7.986  2.2909  1.9253  0.5583
   26SAPC  H12Y 3509   4.437   6.181   8.060 -0.2422 -0.9518  0.4506
   26SAPC  C313 3510   4.295   6.021   8.049  0.1686 -0.2032 -0.2644
   26SAPC  H13X 3511   4.221   5.994   7.971 -0.9924  1.4907  0.2193
   26SAPC  H13Y 3512   4.238   6.052   8.139 -0.0896  0.0358 -0.5081
   26SAPC  C314 3513   4.389   5.896   8.069  0.5046  0.7363 -0.3651
   26SAPC  H14X 3514   4.472   5.941   8.128  1.5441 -2.2198  0.5211
   26SAPC  H14Y 3515   4.438   5.852   7.980  2.2306 -1.2999  1.5524
   26SAPC  C315 3516   4.331   5.784   8.154 -0.1231 -0.1755 -0.0542
   26SAPC  H15X 3517   4.232   5.760   8.111  0.6292  0.1081 -1.9753
   26SAPC  H15Y 3518   4.306   5.829   8.253  0.7216  0.5112 -0.1442
   26SAPC  C316 3519   4.419   5.659   8.173  0.1383  0.0950  0.0885
   26SAPC  H16X 3520   4.512   5.686   8.227 -0.2245 -1.7577  1.7027
   26SAPC  H16Y 3521   4.436   5.619   8.071 -0.7285  0.7028 -0.2983
   26SAPC  C317 3522   4.345   5.535   8.241  0.4080  0.1747  0.6536
   26SAPC  H17X 3523   4.316   5.561   8.345 -1.2570  1.5843 -0.1351
   26SAPC  H17Y 3524   4.419   5.453   8.251  1.8298  1.6475  2.8127
   26SAPC  C318 3525   4.218   5.476   8.180  0.4411  0.3266 -0.1825
   26SAPC  H18X 3526   4.186   5.393   8.247 -1.1249  0.8602 -0.2590
   26SAPC  H18Y 3527   4.226   5.432   8.079 -0.8217 -2.1811  0.7730
   26SAPC  H18Z 3528   4.138   5.549   8.156 -0.4690 -1.1417 -1.6918
   27SAPC     N 3529   1.619   0.075   6.822 -0.4543  0.3980 -0.5788
   27SAPC   C12 3530   1.709   0.051   6.944  0.7440  0.3696 -0.1630
   27SAPC  H12A 3531   1.736  -0.053   6.931 -1.3641 -0.0126 -1.8543
   27SAPC  H12B 3532   1.643   0.049   7.029 -1.1028 -2.5451 -1.5954
   27SAPC   C13 3533   1.511  -0.031   6.812  0.9422 -0.8039 -0.3149
   27SAPC  H13A 3534   1.466  -0.026   6.714  0.6762  1.7927 -0.1125
   27SAPC  H13B 3535   1.547  -0.129   6.838 -0.8465 -1.6940 -1.0972
   27SAPC  H13C 3536   1.441  -0.002   6.889  1.2448 -0.2843 -0.2284
   27SAPC   C14 3537   1.562   0.211   6.839 -0.6648 -0.6351 -0.3287
   27SAPC  H14A 3538   1.637   0.289   6.831 -1.7315  0.4802  0.4743
   27SAPC  H14B 3539   1.489   0.235   6.763 -1.2103  1.5600  0.8455
   27SAPC  H14C 3540   1.523   0.228   6.938  2.0607 -2.3220  1.1193
   27SAPC   C15 3541   1.692   0.059   6.696  0.8780 -0.1829  0.2797
   27SAPC  H15A 3542   1.697  -0.043   6.663  0.2475 -0.5429  1.2659
   27SAPC  H15B 3543   1.646   0.125   6.625  0.0535  0.2891  1.2258
   27SAPC  H15C 3544   1.787   0.107   6.715  0.1473  0.7909  1.5553
   27SAPC   C11 3545   1.841   0.120   6.971 -0.4893 -0.2071  0.5333
   27SAPC  H11A 3546   1.880   0.093   7.072 -2.0552  1.4563  1.6018
   27SAPC  H11B 3547   1.832   0.229   6.985 -0.2408 -0.5099  3.5042
   27SAPC     P 3548   2.039  -0.025   6.881  0.4982  0.2309 -0.3588
   27SAPC   O13 3549   2.070  -0.083   6.747  0.1229  0.8543  0.0097
   27SAPC   O14 3550   2.148   0.028   6.966 -0.2844 -0.0489 -0.3563
   27SAPC   O12 3551   1.936   0.094   6.863  0.3602  0.2215  0.6308
   27SAPC   O11 3552   1.947  -0.128   6.964  0.4154 -0.6363 -0.1034
   27SAPC    C1 3553   2.002  -0.258   7.001  0.2510  0.4285 -0.2287
   27SAPC    HA 3554   1.933  -0.340   6.973  1.3415 -0.1372 -1.3291
   27SAPC    HB 3555   2.100  -0.280   6.952 -0.3553 -1.1195 -0.7590
   27SAPC    C2 3556   2.022  -0.273   7.156 -0.1996 -0.6070 -0.1518
   27SAPC    HS 3557   2.019  -0.383   7.175  0.8387 -0.2944  1.9935
   27SAPC   O21 3558   1.918  -0.196   7.219 -0.6568 -0.2115  0.2346
   27SAPC   C21 3559   1.801  -0.236   7.213  0.1178 -0.0103 -0.6143
   27SAPC   O22 3560   1.764  -0.340   7.159  0.3221 -0.3348  0.0931
   27SAPC   C22 3561   1.716  -0.155   7.305  0.7685  0.5005  0.3588
   27SAPC   H2R 3562   1.770  -0.072   7.356 -2.2673  1.6291  1.8914
   27SAPC   H2S 3563   1.629  -0.120   7.244  1.1357  0.7521 -0.0207
   27SAPC    C3 3564   2.168  -0.238   7.206  0.3388 -0.5105 -0.6381
   27SAPC    HX 3565   2.187  -0.136   7.167  0.7274 -0.1509  0.4509
   27SAPC    HY 3566   2.232  -0.318   7.163 -1.2709 -1.6264 -1.0038
   27SAPC   O31 3567   2.181  -0.228   7.353 -0.1608  0.5569  0.1310
   27SAPC   C31 3568   2.228  -0.335   7.419 -0.5283 -0.2383  0.3353
   27SAPC   O32 3569   2.254  -0.442   7.367  0.7554 -0.3347  0.1030
   27SAPC   C32 3570   2.246  -0.295   7.561 -0.3529 -0.4996 -0.4325
   27SAPC   H2X 3571   2.178  -0.213   7.591  1.9532  1.3633 -0.1763
   27SAPC   H2Y 3572   2.353  -0.270   7.578  0.1142 -2.7022  0.0164
   27SAPC   C23 3573   1.669  -0.235   7.430  0.8161 -0.1226  0.6274
   27SAPC   H3R 3574   1.607  -0.320   7.394 -0.0014 -0.0751  1.8600
   27SAPC   H3S 3575   1.599  -0.180   7.498  0.7561  1.6304 -0.8082
   27SAPC   C24 3576   1.788  -0.292   7.504  0.5220 -1.0339 -0.3600
   27SAPC   H4R 3577   1.830  -0.387   7.464 -3.4989 -2.9143 -0.4342
   27SAPC   H4S 3578   1.747  -0.353   7.588  1.0787 -0.5514  0.2593
   27SAPC   C25 3579   1.889  -0.189   7.554  0.8755  0.5398  0.4277
   27SAPC   H5R 3580   1.963  -0.158   7.479 -2.4499  1.8043 -2.4370
   27SAPC   C26 3581   1.883  -0.127   7.670  0.2640 -0.4741  0.0125
   27SAPC   H6R 3582   1.953  -0.045   7.691 -1.7178  1.6129 -1.3609
   27SAPC   C27 3583   1.772  -0.150   7.771 -0.5802 -0.0221 -0.7735
   27SAPC   H7R 3584   1.676  -0.173   7.720 -2.0790  1.7303  1.2275
   27SAPC   H7S 3585   1.761  -0.056   7.828  3.5186  1.6762 -2.5696
   27SAPC   C28 3586   1.824  -0.271   7.846 -0.8260  0.4394 -0.2563
   27SAPC   H8R 3587   1.847  -0.351   7.774 -0.6899 -1.2095  1.5775
   27SAPC   C29 3588   1.864  -0.276   7.973 -0.6808  0.1831  0.9466
   27SAPC   H9R 3589   1.882  -0.374   8.021 -1.5829  0.0372  0.9870
   27SAPC  C210 3590   1.855  -0.158   8.069 -0.2708  0.2066 -0.0501
   27SAPC  H10R 3591   1.783  -0.078   8.040 -0.9823  0.1310  1.4903
   27SAPC  H10S 3592   1.955  -0.109   8.073  0.0074 -0.2968 -0.6411
   27SAPC  C211 3593   1.824  -0.201   8.211 -0.0898  0.7822  0.4045
   27SAPC  H11R 3594   1.733  -0.260   8.228 -0.9296  2.2911  1.2092
   27SAPC  C212 3595   1.894  -0.182   8.323  0.6747  0.2614  0.3656
   27SAPC  H12R 3596   1.843  -0.221   8.412  0.5231  1.9775  1.0329
   27SAPC  C213 3597   2.019  -0.098   8.340  0.0576 -0.0950  0.0422
   27SAPC  H13R 3598   2.014  -0.015   8.266  0.1366 -0.7367 -0.6917
   27SAPC  H13S 3599   2.115  -0.151   8.325 -0.7646 -2.0888  1.5296
   27SAPC  C214 3600   2.033  -0.043   8.479 -0.4024 -0.1044 -0.3201
   27SAPC  H14R 3601   2.003   0.063   8.477  1.5968  0.5006  0.7359
   27SAPC  C215 3602   2.088  -0.099   8.586 -0.4696  1.0545 -0.5657
   27SAPC  H15R 3603   2.094  -0.041   8.679 -1.8464 -0.0560  0.2382
   27SAPC  C216 3604   2.151  -0.243   8.602  0.2081  0.3926  1.2062
   27SAPC  H16R 3605   2.255  -0.233   8.564  0.6841  0.9891  2.6073
   27SAPC  H16S 3606   2.101  -0.321   8.542  1.9573  2.2735 -2.8580
   27SAPC  C217 3607   2.171  -0.301   8.741  0.0617  0.0163  0.4130
   27SAPC  H17R 3608   2.070  -0.318   8.785  0.2127  0.3523  0.8892
   27SAPC  H17S 3609   2.224  -0.227   8.805 -0.3619  1.9767 -1.4291
   27SAPC  C218 3610   2.245  -0.441   8.739  0.4835 -1.1465  0.7609
   27SAPC  H18R 3611   2.350  -0.433   8.703  0.5596  0.1209  1.2352
   27SAPC  H18S 3612   2.192  -0.513   8.673  2.3627 -0.4058 -1.6278
   27SAPC  C219 3613   2.256  -0.507   8.878  0.4631 -0.2006  0.5026
   27SAPC  H19R 3614   2.302  -0.608   8.868  0.2993 -0.3360  1.1105
   27SAPC  H19S 3615   2.153  -0.530   8.912  0.1262  0.1246 -0.2787
   27SAPC  C220 3616   2.323  -0.423   8.992  0.1294 -0.0576 -0.1520
   27SAPC  H20R 3617   2.318  -0.490   9.080  1.2321 -1.4078 -1.0892
   27SAPC  H20S 3618   2.284  -0.321   9.010  0.8208  0.0911  0.5606
   27SAPC  H20T 3619   2.433  -0.425   8.973  0.2601  0.9351  0.4403
   27SAPC   C33 3620   2.212  -0.402   7.670  0.2316 -0.4224 -0.7037
   27SAPC   H3X 3621   2.283  -0.488   7.665 -0.2204 -0.8602  0.2649
   27SAPC   H3Y 3622   2.108  -0.440   7.664  0.0072 -0.0182  0.5022
   27SAPC   C34 3623   2.227  -0.340   7.809 -0.2829 -0.1627 -0.2233
   27SAPC   H4X 3624   2.156  -0.256   7.819 -0.7332 -0.7958  2.1394
   27SAPC   H4Y 3625   2.328  -0.294   7.806 -0.5109  0.3979  0.5315
   27SAPC   C35 3626   2.198  -0.447   7.916  0.3953 -0.6849  0.3219
   27SAPC   H5X 3627   2.266  -0.533   7.900  2.3254  1.1704 -1.6697
   27SAPC   H5Y 3628   2.095  -0.489   7.912 -0.2601  0.9435 -0.2793
   27SAPC   C36 3629   2.194  -0.375   8.047 -0.4450  0.6133  0.2997
   27SAPC   H6X 3630   2.124  -0.290   8.041 -2.4898 -1.0127  0.4139
   27SAPC   H6Y 3631   2.296  -0.349   8.083  0.3796 -1.4732 -0.4317
   27SAPC   C37 3632   2.134  -0.448   8.172 -0.4489  0.2428  0.2982
   27SAPC   H7X 3633   2.035  -0.485   8.140  0.6143 -0.0052 -2.8860
   27SAPC   H7Y 3634   2.128  -0.383   8.262  0.4780 -0.1626  0.6708
   27SAPC   C38 3635   2.236  -0.560   8.207  0.3600 -0.6523 -0.3682
   27SAPC   H8X 3636   2.277  -0.601   8.112  1.2477 -3.5036  1.1999
   27SAPC   H8Y 3637   2.176  -0.639   8.258  0.9366 -0.1409  1.1238
   27SAPC   C39 3638   2.339  -0.520   8.311 -1.2364  0.2001  0.2546
   27SAPC   H9X 3639   2.302  -0.476   8.406  0.9503  0.6911  0.8980
   27SAPC   H9Y 3640   2.404  -0.445   8.262  1.3362 -1.4201  1.0967
   27SAPC  C310 3641   2.428  -0.643   8.348 -0.2130 -0.3722  0.1295
   27SAPC  H10X 3642   2.460  -0.678   8.248 -0.3349 -1.1979  0.3704
   27SAPC  H10Y 3643   2.365  -0.725   8.390 -0.9056 -0.2800 -0.7162
   27SAPC  C311 3644   2.553  -0.612   8.435 -0.3851  0.0477 -0.3920
   27SAPC  H11X 3645   2.517  -0.521   8.487  1.3407 -0.1005  1.1270
   27SAPC  H11Y 3646   2.643  -0.587   8.375 -0.4198  1.2303  0.0360
   27SAPC  C312 3647   2.585  -0.715   8.544  0.4224  0.8571 -0.4709
   27SAPC  H12X 3648   2.494  -0.769   8.578  2.2141 -0.2512  2.7336
   27SAPC  H12Y 3649   2.599  -0.654   8.637 -1.7923  0.1879  0.3242
   27SAPC  C313 3650   2.697  -0.813   8.519 -0.5834 -0.4749 -0.0798
   27SAPC  H13X 3651   2.700  -0.871   8.613 -1.8809  0.9016  0.8403
   27SAPC  H13Y 3652   2.792  -0.756   8.503 -0.1452 -1.7944 -2.4809
   27SAPC  C314 3653   2.666  -0.905   8.400 -0.4677  0.0753 -0.2903
   27SAPC  H14X 3654   2.764  -0.958   8.394 -0.6165 -0.8052  3.6464
   27SAPC  H14Y 3655   2.657  -0.853   8.303 -4.3627  0.6562  0.3159
   27SAPC  C315 3656   2.552  -1.008   8.424  0.3205 -0.0814  0.4136
   27SAPC  H15X 3657   2.451  -0.964   8.412 -0.8407 -3.0809 -1.4008
   27SAPC  H15Y 3658   2.556  -1.037   8.531 -0.0597  0.1448  0.4854
   27SAPC  C316 3659   2.561  -1.132   8.341  0.3527 -0.4485  0.5454
   27SAPC  H16X 3660   2.650  -1.194   8.365  0.8714  0.6854  1.5816
   27SAPC  H16Y 3661   2.569  -1.096   8.237 -0.2303 -0.1310  0.6090
   27SAPC  C317 3662   2.439  -1.223   8.353 -0.2841 -0.0221  0.5726
   27SAPC  H17X 3663   2.350  -1.192   8.295  1.5462  4.6932  0.0527
   27SAPC  H17Y 3664   2.409  -1.213   8.460 -3.2276  1.8946 -0.3826
   27SAPC  C318 3665   2.468  -1.375   8.328  0.7049 -0.6276 -0.1600
   27SAPC  H18X 3666   2.559  -1.395   8.388 -0.0159 -1.3271  0.7259
   27SAPC  H18Y 3667   2.498  -1.400   8.225  1.7191  1.0883 -0.3013
   27SAPC  H18Z 3668   2.387  -1.442   8.364  0.5598 -0.5341 -0.3137
   28SAPC     N 3669   1.799   3.862   6.036  0.3977  0.9143  0.0105
   28SAPC   C12 3670   1.828   3.750   6.134 -0.6234  0.5915  0.1151
   28SAPC  H12A 3671   1.928   3.713   6.115 -0.1780  1.1191  1.3725
   28SAPC  H12B 3672   1.766   3.666   6.106 -0.0270  1.1077 -2.8447
   28SAPC   C13 3673   1.857   3.986   6.087 -0.0407 -0.9256  0.1926
   28SAPC  H13A 3674   1.956   3.998   6.046 -0.5307 -1.3559 -1.1139
   28SAPC  H13B 3675   1.796   4.065   6.046  0.3550 -0.9343 -0.4221
   28SAPC  H13C 3676   1.862   3.996   6.195 -1.9400 -0.7066  0.2648
   28SAPC   C14 3677   1.852   3.834   5.901  0.0131 -0.1808 -0.0722
   28SAPC  H14A 3678   1.855   3.730   5.873 -1.2765 -0.3781  0.4982
   28SAPC  H14B 3679   1.798   3.878   5.818 -0.0708 -1.1000 -0.5038
   28SAPC  H14C 3680   1.951   3.879   5.898  0.3471 -0.6941  2.1776
   28SAPC   C15 3681   1.648   3.885   6.023  0.3183 -0.7155 -0.2111
   28SAPC  H15A 3682   1.624   3.949   6.107 -1.3432 -1.3965 -0.1476
   28SAPC  H15B 3683   1.615   3.936   5.934 -1.9988  0.0784  1.0656
   28SAPC  H15C 3684   1.596   3.791   6.037 -0.2880 -0.4726 -0.8009
   28SAPC   C11 3685   1.819   3.772   6.283 -0.1106  0.5250 -0.0598
   28SAPC  H11A 3686   1.901   3.842   6.309  1.5310 -1.2264 -0.4599
   28SAPC  H11B 3687   1.843   3.681   6.342 -0.8380 -0.3548 -1.0930
   28SAPC     P 3688   1.646   3.938   6.391 -0.1193 -0.2429 -0.1846
   28SAPC   O13 3689   1.745   4.040   6.367 -0.3536  0.3778 -0.5902
   28SAPC   O14 3690   1.514   3.980   6.345  0.2528  0.3377 -0.3733
   28SAPC   O12 3691   1.686   3.807   6.319 -0.1679  0.0962  0.0151
   28SAPC   O11 3692   1.626   3.910   6.545 -0.6946 -0.2802 -0.2300
   28SAPC    C1 3693   1.728   3.821   6.601  0.3801  0.4671 -0.0539
   28SAPC    HA 3694   1.809   3.795   6.530  1.6615  2.7581  0.5368
   28SAPC    HB 3695   1.766   3.867   6.695  1.8797 -2.6722  0.9517
   28SAPC    C2 3696   1.666   3.684   6.650  0.1129 -0.1973  0.3435
   28SAPC    HS 3697   1.638   3.630   6.557 -0.2196 -0.2382  0.4691
   28SAPC   O21 3698   1.547   3.699   6.730  0.0902 -0.4979  0.5214
   28SAPC   C21 3699   1.493   3.586   6.758  0.1214  0.3502  0.4513
   28SAPC   O22 3700   1.522   3.476   6.719 -0.3086  0.5507  0.2631
   28SAPC   C22 3701   1.381   3.620   6.865 -0.1570  0.7650 -0.3565
   28SAPC   H2R 3702   1.418   3.708   6.923 -1.8447  1.5080 -0.3966
   28SAPC   H2S 3703   1.300   3.660   6.801 -1.3285 -0.9435  0.0193
   28SAPC    C3 3704   1.780   3.602   6.719  0.3214  0.2203  0.3462
   28SAPC    HX 3705   1.866   3.605   6.649 -0.5512  2.0217 -0.6730
   28SAPC    HY 3706   1.747   3.496   6.718 -1.2477  0.7043 -0.6558
   28SAPC   O31 3707   1.829   3.644   6.848 -0.2479 -0.0430 -0.4567
   28SAPC   C31 3708   1.803   3.568   6.955 -0.1889 -0.2960  0.4299
   28SAPC   O32 3709   1.729   3.473   6.962 -0.0753  0.0564 -0.4156
   28SAPC   C32 3710   1.851   3.634   7.087 -0.3705 -0.2440  0.4632
   28SAPC   H2X 3711   1.832   3.744   7.081  2.5856  0.2017 -1.3797
   28SAPC   H2Y 3712   1.960   3.612   7.090 -0.4010 -0.2882  2.3762
   28SAPC   C23 3713   1.345   3.498   6.952  0.6157 -0.3104  0.4466
   28SAPC   H3R 3714   1.431   3.434   6.980  0.1004  0.0042  2.8272
   28SAPC   H3S 3715   1.275   3.441   6.887  0.6730 -0.0490  0.1522
   28SAPC   C24 3716   1.279   3.536   7.086 -0.6334 -0.2774  0.3322
   28SAPC   H4R 3717   1.353   3.605   7.132  1.0078 -1.8609  0.1297
   28SAPC   H4S 3718   1.182   3.585   7.063 -0.9563 -0.4921  1.2132
   28SAPC   C25 3719   1.266   3.418   7.170 -0.2895  0.4271  0.0127
   28SAPC   H5R 3720   1.326   3.332   7.136 -1.5129 -0.4534  0.0690
   28SAPC   C26 3721   1.211   3.417   7.291 -0.2205  0.4715  1.0020
   28SAPC   H6R 3722   1.208   3.321   7.344 -0.1294  0.8265  1.6580
   28SAPC   C27 3723   1.129   3.532   7.358 -0.3492  0.1213 -0.0953
   28SAPC   H7R 3724   1.115   3.621   7.293 -0.0240  1.0376  1.0714
   28SAPC   H7S 3725   1.187   3.577   7.442  0.5772  0.0029 -0.6648
   28SAPC   C28 3726   0.989   3.476   7.405  0.5333  0.1737  0.6559
   28SAPC   H8R 3727   0.917   3.446   7.328  2.2669 -0.3319 -0.8008
   28SAPC   C29 3728   0.943   3.491   7.528  0.3287 -0.4913  0.2411
   28SAPC   H9R 3729   0.850   3.446   7.564 -0.2244 -0.0969 -0.6894
   28SAPC  C210 3730   1.027   3.555   7.641  0.0394 -0.2261  0.5554
   28SAPC  H10R 3731   0.948   3.585   7.712 -0.1611  1.3731 -0.3243
   28SAPC  H10S 3732   1.075   3.648   7.605 -1.0234  1.5900  3.6933
   28SAPC  C211 3733   1.136   3.470   7.706 -0.3988 -0.0496 -0.3473
   28SAPC  H11R 3734   1.229   3.464   7.648 -0.1397 -4.2356  0.4063
   28SAPC  C212 3735   1.138   3.388   7.814 -0.4473 -0.2182  0.7105
   28SAPC  H12R 3736   1.238   3.349   7.838  0.9022  0.5727 -3.2335
   28SAPC  C213 3737   1.025   3.357   7.909  0.2020 -0.3478  0.7781
   28SAPC  H13R 3738   0.929   3.407   7.882  0.5663  2.3531  4.2217
   28SAPC  H13S 3739   1.056   3.399   8.007  2.3465  0.1089 -0.0713
   28SAPC  C214 3740   0.985   3.208   7.936 -0.0646 -0.4268 -0.2664
   28SAPC  H14R 3741   0.950   3.152   7.849 -1.3794 -1.3741  0.8451
   28SAPC  C215 3742   0.981   3.139   8.047  0.5454  0.6553  0.1335
   28SAPC  H15R 3743   0.925   3.044   8.046  0.7072  0.5419  1.5067
   28SAPC  C216 3744   1.018   3.187   8.182  0.9633 -0.7063 -0.0994
   28SAPC  H16R 3745   1.108   3.251   8.175  1.3015 -1.1442  0.2176
   28SAPC  H16S 3746   1.032   3.100   8.251 -3.1019 -0.3822  1.2971
   28SAPC  C217 3747   0.902   3.262   8.246  0.4284 -0.1434 -0.7161
   28SAPC  H17R 3748   0.811   3.199   8.256  0.2147 -0.0398 -1.9233
   28SAPC  H17S 3749   0.877   3.338   8.169  1.7018  2.0876  1.0022
   28SAPC  C218 3750   0.924   3.326   8.386 -0.2055 -0.2547 -0.0126
   28SAPC  H18R 3751   0.823   3.353   8.424 -0.8223 -0.1908 -1.6432
   28SAPC  H18S 3752   0.980   3.422   8.387  0.4624 -0.6580  2.1076
   28SAPC  C219 3753   0.998   3.248   8.487 -0.2480  0.0553 -0.6671
   28SAPC  H19R 3754   0.998   3.304   8.583  0.8810 -0.1456 -0.5435
   28SAPC  H19S 3755   1.106   3.234   8.463  0.4770  1.4824  1.5594
   28SAPC  C220 3756   0.930   3.115   8.520 -0.0744 -1.2124 -0.9785
   28SAPC  H20R 3757   0.990   3.068   8.601  0.6239 -0.0783 -0.8316
   28SAPC  H20S 3758   0.916   3.045   8.435 -0.4650  1.5298 -3.2608
   28SAPC  H20T 3759   0.829   3.135   8.564  0.6259  0.2833  0.0122
   28SAPC   C33 3760   1.805   3.574   7.223 -0.5016  0.2636  0.2070
   28SAPC   H3X 3761   1.869   3.605   7.308 -1.0492 -0.7037  0.9697
   28SAPC   H3Y 3762   1.812   3.465   7.208  1.8370  0.5107 -0.7210
   28SAPC   C34 3763   1.667   3.635   7.260  0.1475  0.7930  0.2057
   28SAPC   H4X 3764   1.615   3.641   7.162  0.5862  0.5933 -0.0420
   28SAPC   H4Y 3765   1.685   3.737   7.299  1.0427  1.0685 -0.8956
   28SAPC   C35 3766   1.578   3.560   7.358 -1.1638 -0.6911 -0.2304
   28SAPC   H5X 3767   1.557   3.458   7.318  0.2003 -1.9092  2.0683
   28SAPC   H5Y 3768   1.484   3.616   7.376  0.6584  2.5654 -0.5252
   28SAPC   C36 3769   1.647   3.547   7.498  0.8894  0.0829  0.2404
   28SAPC   H6X 3770   1.687   3.644   7.533 -0.1859  1.0654 -1.1885
   28SAPC   H6Y 3771   1.732   3.478   7.480 -0.1735 -1.3450  0.4901
   28SAPC   C37 3772   1.549   3.491   7.605 -0.0177 -0.4178  0.3277
   28SAPC   H7X 3773   1.483   3.413   7.562  0.1794  0.7268 -2.1549
   28SAPC   H7Y 3774   1.480   3.572   7.635 -2.1916 -1.5535 -1.4020
   28SAPC   C38 3775   1.616   3.444   7.738  0.0962 -0.2548 -0.5316
   28SAPC   H8X 3776   1.690   3.520   7.768  3.1324 -3.7060  1.0777
   28SAPC   H8Y 3777   1.676   3.351   7.726 -2.9013 -2.3539  0.1370
   28SAPC   C39 3778   1.505   3.412   7.837 -0.0640 -0.0593  0.6294
   28SAPC   H9X 3779   1.456   3.314   7.819  0.2792 -0.4615  1.8198
   28SAPC   H9Y 3780   1.433   3.496   7.838  1.5133  1.4203 -2.5781
   28SAPC  C310 3781   1.568   3.388   7.974 -0.0298  0.3668 -0.7320
   28SAPC  H10X 3782   1.619   3.480   8.009 -1.4703  0.9272 -0.0601
   28SAPC  H10Y 3783   1.648   3.312   7.970  1.2064  1.5512  0.9096
   28SAPC  C311 3784   1.473   3.331   8.084  0.7400  0.3155 -0.3450
   28SAPC  H11X 3785   1.439   3.229   8.055 -1.0338  1.3240 -1.9452
   28SAPC  H11Y 3786   1.385   3.397   8.092  0.4191  0.1662 -2.3893
   28SAPC  C312 3787   1.561   3.306   8.214  0.0804 -0.8086  0.2342
   28SAPC  H12X 3788   1.622   3.395   8.240 -0.1004  0.3919 -3.1932
   28SAPC  H12Y 3789   1.634   3.229   8.180 -0.4946 -0.9315 -0.7398
   28SAPC  C313 3790   1.490   3.238   8.331  0.2280  0.3566  0.4282
   28SAPC  H13X 3791   1.466   3.132   8.308 -0.6918  0.4866  0.7645
   28SAPC  H13Y 3792   1.395   3.291   8.354  0.9690  1.3112  1.3215
   28SAPC  C314 3793   1.582   3.240   8.457 -0.5234 -0.4906  0.0177
   28SAPC  H14X 3794   1.645   3.331   8.464 -0.0154 -0.9545  1.5939
   28SAPC  H14Y 3795   1.653   3.154   8.458  1.8968  1.4672  2.1597
   28SAPC  C315 3796   1.506   3.236   8.583  1.1178  0.6334  0.1348
   28SAPC  H15X 3797   1.456   3.137   8.589  1.8199  0.3379  1.2247
   28SAPC  H15Y 3798   1.432   3.318   8.591  0.7399  0.4168 -1.0658
   28SAPC  C316 3799   1.603   3.243   8.701 -0.3322 -0.7790  0.0970
   28SAPC  H16X 3800   1.659   3.335   8.673 -0.8460 -0.7659 -0.9217
   28SAPC  H16Y 3801   1.677   3.162   8.688  0.2064 -0.2433 -0.2298
   28SAPC  C317 3802   1.543   3.251   8.839  0.5052 -0.2112  0.0583
   28SAPC  H17X 3803   1.471   3.168   8.855 -0.3114  0.3635 -0.5773
   28SAPC  H17Y 3804   1.486   3.341   8.868  1.6321  0.7141 -0.5037
   28SAPC  C318 3805   1.663   3.214   8.937  0.2256 -0.5735  0.7249
   28SAPC  H18X 3806   1.657   3.107   8.965 -0.6540 -0.5961  0.4658
   28SAPC  H18Y 3807   1.660   3.285   9.023  0.5919 -1.0512  1.1334
   28SAPC  H18Z 3808   1.750   3.239   8.873  0.1351 -4.3599 -1.0174
   29SAPC     N 3809   3.315   6.640   6.093 -0.6532 -0.2417  0.2803
   29SAPC   C12 3810   3.283   6.709   6.228 -0.1943  0.0817  0.3096
   29SAPC  H12A 3811   3.380   6.739   6.264  0.0810  0.2331 -0.5510
   29SAPC  H12B 3812   3.249   6.638   6.302  0.8769 -0.0420  0.6962
   29SAPC   C13 3813   3.414   6.532   6.115 -0.3152  0.1804  0.3153
   29SAPC  H13A 3814   3.424   6.475   6.024  1.9877 -0.5432  0.9755
   29SAPC  H13B 3815   3.510   6.578   6.137 -0.9786  1.9655 -0.4434
   29SAPC  H13C 3816   3.382   6.478   6.203 -1.3029  1.0944  0.5233
   29SAPC   C14 3817   3.191   6.590   6.031  0.7405 -0.2624 -0.4375
   29SAPC  H14A 3818   3.126   6.549   6.107  1.5599 -1.4180 -0.3414
   29SAPC  H14B 3819   3.132   6.670   5.991 -2.3586 -1.5624  1.3047
   29SAPC  H14C 3820   3.211   6.518   5.953  0.4527 -1.4720  0.5893
   29SAPC   C15 3821   3.374   6.727   5.991 -0.5811  0.2709  0.4238
   29SAPC  H15A 3822   3.416   6.673   5.908 -0.3558 -1.2127  1.4765
   29SAPC  H15B 3823   3.309   6.807   5.959  0.3012  1.2253  0.9811
   29SAPC  H15C 3824   3.452   6.786   6.038  0.5090 -0.3666 -0.5716
   29SAPC   C11 3825   3.204   6.838   6.217 -0.4308  0.5160 -0.5528
   29SAPC  H11A 3826   3.168   6.865   6.319 -0.5846 -0.3685 -0.3749
   29SAPC  H11B 3827   3.118   6.821   6.150  0.6029  2.3067 -2.3867
   29SAPC     P 3828   3.381   7.033   6.245  0.2168  0.2505  0.6703
   29SAPC   O13 3829   3.506   7.057   6.167 -0.0941 -0.7590 -0.0048
   29SAPC   O14 3830   3.323   7.154   6.301 -0.3135  0.9473  0.3672
   29SAPC   O12 3831   3.274   6.952   6.161  0.5004 -0.3523 -0.5631
   29SAPC   O11 3832   3.423   6.931   6.364 -0.0982 -0.1163 -0.2778
   29SAPC    C1 3833   3.437   6.973   6.495 -0.0694 -0.9003  0.1293
   29SAPC    HA 3834   3.359   7.047   6.522  0.4893  0.9405 -3.0745
   29SAPC    HB 3835   3.431   6.885   6.562  2.0573 -0.3068  1.1380
   29SAPC    C2 3836   3.575   7.042   6.527  0.0611  0.7554 -0.6859
   29SAPC    HS 3837   3.566   7.141   6.477  0.2568 -0.4804 -3.2350
   29SAPC   O21 3838   3.683   6.972   6.468  0.3092 -0.3853 -0.0395
   29SAPC   C21 3839   3.790   7.042   6.440 -0.4626 -0.1349  0.0915
   29SAPC   O22 3840   3.815   7.158   6.474 -0.2321  0.8218 -0.1552
   29SAPC   C22 3841   3.899   6.941   6.393  0.1598  0.5354  0.1827
   29SAPC   H2R 3842   3.858   6.840   6.416  0.2354  0.6863  0.9760
   29SAPC   H2S 3843   3.900   6.942   6.282 -2.9456 -0.4471  0.0813
   29SAPC    C3 3844   3.608   7.057   6.684 -0.7308  0.7699  0.3033
   29SAPC    HX 3845   3.710   7.102   6.687 -0.5230  0.2382  1.4773
   29SAPC    HY 3846   3.619   6.956   6.728  1.6147  0.6859 -0.4325
   29SAPC   O31 3847   3.509   7.132   6.749  0.1914 -0.6366  0.3101
   29SAPC   C31 3848   3.437   7.075   6.842  0.0623  0.3444  0.0417
   29SAPC   O32 3849   3.439   6.964   6.894  0.2977 -0.3989  0.3916
   29SAPC   C32 3850   3.325   7.183   6.875 -0.0173  0.0373 -0.6439
   29SAPC   H2X 3851   3.254   7.172   6.791  0.1354  1.2291 -0.9424
   29SAPC   H2Y 3852   3.367   7.286   6.870  1.4519 -0.5025  0.1888
   29SAPC   C23 3853   4.029   6.957   6.468 -0.1878  0.2607 -0.1831
   29SAPC   H3R 3854   4.089   6.864   6.461 -3.0046 -1.6754  0.4886
   29SAPC   H3S 3855   4.005   6.978   6.575  0.1096  1.9678 -0.4295
   29SAPC   C24 3856   4.124   7.067   6.413 -0.3240  0.2309 -0.3057
   29SAPC   H4R 3857   4.061   7.157   6.396 -1.2847  0.0465  2.0625
   29SAPC   H4S 3858   4.142   7.044   6.306 -0.7704 -1.2067 -0.0786
   29SAPC   C25 3859   4.250   7.105   6.489 -0.2425  0.0789 -0.3918
   29SAPC   H5R 3860   4.340   7.086   6.429 -0.2565 -0.5708 -0.2159
   29SAPC   C26 3861   4.264   7.148   6.616 -0.9765  0.4424  0.3876
   29SAPC   H6R 3862   4.366   7.160   6.654 -0.7316  2.2971 -0.8492
   29SAPC   C27 3863   4.143   7.172   6.703  0.0253  0.4409  1.0094
   29SAPC   H7R 3864   4.117   7.074   6.748 -1.7995  0.1151 -0.7024
   29SAPC   H7S 3865   4.054   7.202   6.643 -0.1229 -1.4001  0.2974
   29SAPC   C28 3866   4.175   7.264   6.816  1.1399 -0.4087  0.6538
   29SAPC   H8R 3867   4.164   7.372   6.794 -0.7154 -0.7917 -0.4183
   29SAPC   C29 3868   4.207   7.236   6.939  0.5668  0.6278  0.0326
   29SAPC   H9R 3869   4.202   7.320   7.011  0.2658  1.7636 -1.2915
   29SAPC  C210 3870   4.219   7.106   7.012  0.1099  0.1954  0.0400
   29SAPC  H10R 3871   4.326   7.104   7.042 -0.3198  1.1654  1.6838
   29SAPC  H10S 3872   4.202   7.022   6.942 -1.3906 -0.1619  0.8237
   29SAPC  C211 3873   4.136   7.101   7.140  0.0746 -0.4545 -0.2002
   29SAPC  H11R 3874   4.028   7.114   7.126  0.2975  2.9251  0.7136
   29SAPC  C212 3875   4.179   7.105   7.274 -0.3995 -1.0218 -0.0726
   29SAPC  H12R 3876   4.107   7.114   7.356 -1.7408 -0.6387 -1.2653
   29SAPC  C213 3877   4.320   7.096   7.326  0.2226  0.3440  0.3579
   29SAPC  H13R 3878   4.390   7.128   7.246 -0.6064  0.0634 -0.4880
   29SAPC  H13S 3879   4.343   6.989   7.343  0.5441  0.0853 -1.5728
   29SAPC  C214 3880   4.339   7.183   7.446  0.0778 -0.3626  0.1808
   29SAPC  H14R 3881   4.315   7.289   7.431 -3.2339 -1.0862  0.1063
   29SAPC  C215 3882   4.398   7.147   7.561 -0.6820 -0.2869  0.2745
   29SAPC  H15R 3883   4.418   7.225   7.637  3.3321 -1.2905  0.3368
   29SAPC  C216 3884   4.440   7.010   7.607  0.0007 -0.3341 -1.3912
   29SAPC  H16R 3885   4.500   6.969   7.523 -0.9064 -2.7132 -0.8989
   29SAPC  H16S 3886   4.345   6.955   7.621 -1.4046  2.0744 -1.2088
   29SAPC  C217 3887   4.534   7.026   7.723  0.4690 -0.5102  0.1065
   29SAPC  H17R 3888   4.484   7.086   7.802 -1.8949  0.0529 -1.7398
   29SAPC  H17S 3889   4.622   7.086   7.693 -0.0390 -0.5837 -1.5923
   29SAPC  C218 3890   4.581   6.896   7.787  0.0594  0.4757  0.0742
   29SAPC  H18R 3891   4.643   6.909   7.878  2.4770  0.9733 -1.5869
   29SAPC  H18S 3892   4.658   6.852   7.720 -0.7932 -2.2555  0.8609
   29SAPC  C219 3893   4.478   6.795   7.843  0.0557 -0.2062 -0.4144
   29SAPC  H19R 3894   4.421   6.753   7.757 -0.1930 -0.5338 -0.0909
   29SAPC  H19S 3895   4.407   6.848   7.910  0.3349  0.1591 -0.4071
   29SAPC  C220 3896   4.536   6.668   7.907  0.6731 -0.0078 -0.3626
   29SAPC  H20R 3897   4.447   6.614   7.947  1.3236 -2.5693 -2.2881
   29SAPC  H20S 3898   4.607   6.685   7.991  0.8778 -1.3264 -0.2548
   29SAPC  H20T 3899   4.578   6.597   7.833 -1.0602 -0.5855 -0.8108
   29SAPC   C33 3900   3.267   7.150   7.014 -0.2476  0.3922 -0.0243
   29SAPC   H3X 3901   3.237   7.042   7.010  0.9164  0.1190 -2.4173
   29SAPC   H3Y 3902   3.179   7.213   7.037 -1.2454 -1.0487  0.2036
   29SAPC   C34 3903   3.369   7.176   7.118  0.3159  0.4341  0.0801
   29SAPC   H4X 3904   3.409   7.280   7.112  0.7280  0.5324  3.5046
   29SAPC   H4Y 3905   3.461   7.116   7.099  0.8863  1.5909 -0.8723
   29SAPC   C35 3906   3.309   7.175   7.260  0.2340 -0.3669  0.2571
   29SAPC   H5X 3907   3.269   7.073   7.273  2.2616 -0.8210  3.4951
   29SAPC   H5Y 3908   3.223   7.246   7.258  2.1860  2.0053 -2.2748
   29SAPC   C36 3909   3.409   7.232   7.364  0.2221  1.1573 -0.8049
   29SAPC   H6X 3910   3.438   7.332   7.326  0.3408  1.4499  0.0548
   29SAPC   H6Y 3911   3.501   7.171   7.354  0.9557  1.9845  0.7203
   29SAPC   C37 3912   3.359   7.242   7.504  0.1797 -0.3837 -0.8596
   29SAPC   H7X 3913   3.324   7.138   7.523  3.0824 -1.3386 -0.4798
   29SAPC   H7Y 3914   3.267   7.302   7.519  0.1419 -0.7509  0.4297
   29SAPC   C38 3915   3.472   7.273   7.592 -0.4764 -0.2444 -0.1651
   29SAPC   H8X 3916   3.488   7.383   7.604  1.7061 -0.5379 -0.2563
   29SAPC   H8Y 3917   3.571   7.235   7.559  0.2245  1.4580 -0.1229
   29SAPC   C39 3918   3.448   7.207   7.734 -0.5047 -0.4529 -0.1940
   29SAPC   H9X 3919   3.454   7.097   7.719  2.2111 -0.5384  1.1982
   29SAPC   H9Y 3920   3.347   7.228   7.775  0.5290  0.1245  2.1197
   29SAPC  C310 3921   3.545   7.256   7.842 -0.5441  0.2589  0.8401
   29SAPC  H10X 3922   3.521   7.363   7.864 -2.0050  0.0208  0.4760
   29SAPC  H10Y 3923   3.647   7.257   7.799 -0.8862 -1.6430 -0.0670
   29SAPC  C311 3924   3.542   7.166   7.971 -0.2425 -0.6946 -0.4109
   29SAPC  H11X 3925   3.526   7.058   7.949 -1.0406 -0.8051  0.6480
   29SAPC  H11Y 3926   3.468   7.200   8.047 -0.5552 -0.3222 -0.8767
   29SAPC  C312 3927   3.678   7.188   8.044  0.4587  0.3247  0.0071
   29SAPC  H12X 3928   3.697   7.295   8.066  0.7242  1.0574 -3.6022
   29SAPC  H12Y 3929   3.769   7.153   7.991  1.4513  0.9611  1.2482
   29SAPC  C313 3930   3.683   7.143   8.188  0.1919 -0.1374 -0.1718
   29SAPC  H13X 3931   3.677   7.033   8.197  2.3610 -0.2592  0.1311
   29SAPC  H13Y 3932   3.596   7.189   8.240 -0.2424 -1.4683  0.2835
   29SAPC  C314 3933   3.814   7.172   8.265 -0.5600 -0.0930  0.2302
   29SAPC  H14X 3934   3.813   7.280   8.289  1.2297  0.2271 -1.0527
   29SAPC  H14Y 3935   3.906   7.149   8.207 -1.5081 -0.4872 -1.1295
   29SAPC  C315 3936   3.817   7.095   8.402 -0.4068 -0.0410 -0.4199
   29SAPC  H15X 3937   3.829   6.986   8.385 -0.1056  0.0128 -0.5577
   29SAPC  H15Y 3938   3.719   7.108   8.454 -1.0200  1.0513 -1.8246
   29SAPC  C316 3939   3.932   7.139   8.497 -0.1184 -0.3526 -0.2466
   29SAPC  H16X 3940   3.910   7.241   8.534 -2.7011 -0.8131 -0.4346
   29SAPC  H16Y 3941   4.018   7.169   8.434 -0.8078 -0.1120 -1.0915
   29SAPC  C317 3942   3.966   7.033   8.600 -0.1641  0.3866 -0.0384
   29SAPC  H17X 3943   4.039   7.065   8.677  1.5316  2.3271 -2.3720
   29SAPC  H17Y 3944   4.018   6.946   8.553 -0.6913  1.1942 -2.1692
   29SAPC  C318 3945   3.842   6.982   8.678  0.0244  0.0125  0.2075
   29SAPC  H18X 3946   3.761   7.059   8.680  2.0136  2.1696 -0.3145
   29SAPC  H18Y 3947   3.864   6.956   8.784 -0.6865  1.7564  0.8045
   29SAPC  H18Z 3948   3.805   6.891   8.626  1.1437 -0.1819 -0.2621
   30SAPC     N 3949   4.933   0.562   6.167  0.0166  0.1749  0.0010
   30SAPC   C12 3950   5.039   0.544   6.275 -1.2782  0.4011 -0.2605
   30SAPC  H12A 3951   5.136   0.544   6.227 -0.3791 -0.9183  1.5002
   30SAPC  H12B 3952   5.041   0.447   6.321 -1.7893  1.0564  1.1518
   30SAPC   C13 3953   4.931   0.436   6.091  0.5354  0.2921  0.5841
   30SAPC  H13A 3954   4.897   0.349   6.146 -0.2909 -0.0313 -0.4295
   30SAPC  H13B 3955   4.867   0.444   6.004 -1.2530  2.1831  2.0235
   30SAPC  H13C 3956   5.028   0.411   6.051 -0.3646  0.6152 -1.9105
   30SAPC   C14 3957   4.794   0.589   6.215 -0.7292  0.1228  1.3319
   30SAPC  H14A 3958   4.757   0.512   6.281 -1.1172  1.4516  2.7013
   30SAPC  H14B 3959   4.799   0.669   6.287 -1.0965 -0.7007  2.2925
   30SAPC  H14C 3960   4.725   0.611   6.136  1.8704  1.7285 -0.5549
   30SAPC   C15 3961   4.962   0.668   6.070  0.0608  0.7059 -0.0367
   30SAPC  H15A 3962   5.060   0.654   6.026  0.1922  1.1890  0.1058
   30SAPC  H15B 3963   4.881   0.662   5.998 -1.1598  2.6846  1.1417
   30SAPC  H15C 3964   4.962   0.762   6.123  0.4872  0.3133  0.6665
   30SAPC   C11 3965   5.053   0.653   6.378 -0.4720  1.1112 -0.7664
   30SAPC  H11A 3966   5.141   0.631   6.442 -0.2435  3.5649 -0.1812
   30SAPC  H11B 3967   4.961   0.667   6.438  0.2168  2.2483  0.0635
   30SAPC     P 3968   5.227   0.815   6.280  0.1139 -0.2058 -0.5629
   30SAPC   O13 3969   5.305   0.689   6.258  0.1106 -0.0853 -0.2646
   30SAPC   O14 3970   5.213   0.917   6.176 -0.3138 -0.2066 -1.0065
   30SAPC   O12 3971   5.077   0.775   6.314  0.0962  0.4124 -0.2456
   30SAPC   O11 3972   5.275   0.886   6.409 -0.0471 -0.2636  0.0256
   30SAPC    C1 3973   5.182   0.968   6.481 -0.6678  0.4836 -0.3802
   30SAPC    HA 3974   5.166   1.064   6.427 -2.3731  1.0541  1.1005
   30SAPC    HB 3975   5.084   0.917   6.490  0.5225 -2.5209 -3.2375
   30SAPC    C2 3976   5.233   0.998   6.625 -0.3708  0.3306  0.5779
   30SAPC    HS 3977   5.334   1.045   6.620 -0.6374  0.9275  0.7644
   30SAPC   O21 3978   5.223   0.884   6.710 -0.3454 -0.0785  0.4478
   30SAPC   C21 3979   5.338   0.829   6.738 -0.8166  0.3469 -0.2996
   30SAPC   O22 3980   5.447   0.865   6.699 -0.7092 -0.1355 -0.3340
   30SAPC   C22 3981   5.309   0.708   6.828  0.1974 -0.4834  0.4601
   30SAPC   H2R 3982   5.228   0.744   6.895 -0.1661  2.5460 -1.5396
   30SAPC   H2S 3983   5.269   0.632   6.757  1.9952  0.9453 -2.1805
   30SAPC    C3 3984   5.141   1.102   6.685 -0.1703  0.1920  0.3036
   30SAPC    HX 3985   5.040   1.056   6.685  1.0415 -2.5591 -0.8383
   30SAPC    HY 3986   5.134   1.181   6.607 -0.0030 -0.7768 -0.6953
   30SAPC   O31 3987   5.175   1.159   6.810 -0.0296 -0.2539  0.2695
   30SAPC   C31 3988   5.069   1.184   6.894 -0.3294 -0.4023 -0.1383
   30SAPC   O32 3989   4.952   1.179   6.864 -0.3283  0.4203  0.5430
   30SAPC   C32 3990   5.113   1.234   7.032  0.6348 -0.0226 -0.3595
   30SAPC   H2X 3991   5.093   1.342   7.044 -1.1860 -0.5568  1.7215
   30SAPC   H2Y 3992   5.223   1.220   7.047  0.9005 -0.5167 -2.4778
   30SAPC   C23 3993   5.430   0.658   6.911  0.1207  0.0113  0.3520
   30SAPC   H3R 3994   5.474   0.739   6.972 -0.4771 -1.1557  2.3803
   30SAPC   H3S 3995   5.503   0.624   6.834  0.7535  0.7067  0.6438
   30SAPC   C24 3996   5.387   0.542   6.999 -0.6028 -0.2584 -0.0062
   30SAPC   H4R 3997   5.322   0.478   6.935  2.2278 -3.1039 -0.1497
   30SAPC   H4S 3998   5.325   0.594   7.075  1.2534  0.5805  0.9653
   30SAPC   C25 3999   5.503   0.475   7.056  0.2818 -0.4563 -0.2664
   30SAPC   H5R 4000   5.572   0.438   6.979  0.4856 -0.9498  0.1469
   30SAPC   C26 4001   5.528   0.453   7.185  0.2227  0.0721 -0.1575
   30SAPC   H6R 4002   5.612   0.388   7.211  0.3131 -0.7965 -2.5396
   30SAPC   C27 4003   5.434   0.487   7.296  0.3811  0.3315 -0.4535
   30SAPC   H7R 4004   5.393   0.389   7.327  1.8201 -0.5181 -1.1829
   30SAPC   H7S 4005   5.341   0.543   7.274 -2.0669 -2.5698  2.1337
   30SAPC   C28 4006   5.506   0.551   7.409  0.0628  0.2631 -0.0327
   30SAPC   H8R 4007   5.522   0.659   7.399  2.5312 -0.0239  0.3823
   30SAPC   C29 4008   5.552   0.489   7.524 -0.0490 -0.9892  0.0799
   30SAPC   H9R 4009   5.595   0.553   7.603 -1.9342 -1.6279  1.6580
   30SAPC  C210 4010   5.555   0.340   7.555  0.3862 -0.3001 -0.3299
   30SAPC  H10R 4011   5.650   0.312   7.605 -0.9768 -4.3845  0.1436
   30SAPC  H10S 4012   5.559   0.288   7.457  0.4393 -0.3209 -0.3157
   30SAPC  C211 4013   5.439   0.287   7.632 -0.3178  0.2433  0.2377
   30SAPC  H11R 4014   5.340   0.300   7.586  0.5355  0.6621 -1.5622
   30SAPC  C212 4015   5.435   0.244   7.759 -0.7512  0.1725 -0.1408
   30SAPC  H12R 4016   5.340   0.201   7.793 -0.1526 -1.8056 -0.8918
   30SAPC  C213 4017   5.550   0.244   7.864  0.0229 -0.6485  0.0842
   30SAPC  H13R 4018   5.509   0.301   7.949  1.5466  0.1231  0.3199
   30SAPC  H13S 4019   5.635   0.304   7.824  0.4199 -1.9445 -1.0767
   30SAPC  C214 4020   5.589   0.105   7.896  0.2688  0.2407 -0.3229
   30SAPC  H14R 4021   5.598   0.032   7.814  0.2923 -0.2867  0.1431
   30SAPC  C215 4022   5.619   0.061   8.018 -0.2984  0.2749  0.0397
   30SAPC  H15R 4023   5.657  -0.042   8.025  0.0751  0.5230  1.9431
   30SAPC  C216 4024   5.615   0.140   8.147  0.0398 -0.4196  0.4118
   30SAPC  H16R 4025   5.634   0.246   8.120  0.7395 -0.6409  0.0122
   30SAPC  H16S 4026   5.700   0.108   8.210 -0.6114 -0.2340  1.3807
   30SAPC  C217 4027   5.487   0.143   8.230 -0.4120  0.3830  0.6614
   30SAPC  H17R 4028   5.417   0.203   8.168  2.3902  2.5780 -0.4438
   30SAPC  H17S 4029   5.510   0.204   8.320  0.0485 -0.6015  1.2273
   30SAPC  C218 4030   5.439   0.007   8.283 -0.1360  0.2399 -0.0109
   30SAPC  H18R 4031   5.534  -0.043   8.315  0.2868  1.3620  0.5222
   30SAPC  H18S 4032   5.399  -0.051   8.197  0.5280 -1.2669  0.6630
   30SAPC  C219 4033   5.339   0.011   8.400  0.2039  0.1499 -0.6781
   30SAPC  H19R 4034   5.396   0.046   8.489 -1.1878  1.6266 -0.3524
   30SAPC  H19S 4035   5.300  -0.093   8.402 -1.2415  0.6836 -0.8443
   30SAPC  C220 4036   5.220   0.103   8.376  0.0959  0.7777  0.0487
   30SAPC  H20R 4037   5.252   0.207   8.395  2.3987  0.0672  0.2463
   30SAPC  H20S 4038   5.138   0.078   8.447  1.4974 -0.3030  1.3162
   30SAPC  H20T 4039   5.193   0.100   8.268  0.9965 -2.3424 -0.1387
   30SAPC   C33 4040   5.037   1.156   7.141 -0.6074  0.6449 -0.1699
   30SAPC   H3X 4041   5.083   1.056   7.159  0.5154  0.8779 -1.6170
   30SAPC   H3Y 4042   4.926   1.152   7.128 -0.8452  2.7029  1.0105
   30SAPC   C34 4043   5.041   1.221   7.286 -0.0672 -0.2117 -0.0102
   30SAPC   H4X 4044   4.948   1.282   7.294 -0.6949 -1.0357 -0.8652
   30SAPC   H4Y 4045   5.126   1.291   7.297 -0.1426 -0.4496  2.2390
   30SAPC   C35 4046   5.024   1.116   7.397 -0.6069 -0.8748 -0.0428
   30SAPC   H5X 4047   5.116   1.053   7.407 -0.0986 -0.0429  0.5751
   30SAPC   H5Y 4048   4.932   1.055   7.388 -1.2954  0.2265 -0.5937
   30SAPC   C36 4049   5.019   1.185   7.531  0.0999 -0.2764 -0.1950
   30SAPC   H6X 4050   4.937   1.259   7.527 -0.0627 -0.4972 -1.1090
   30SAPC   H6Y 4051   5.111   1.242   7.555 -1.4004  2.9100 -1.7287
   30SAPC   C37 4052   4.978   1.098   7.654  0.6642 -0.2586  0.2827
   30SAPC   H7X 4053   5.059   1.025   7.673  0.0949 -0.8880  0.2863
   30SAPC   H7Y 4054   4.882   1.043   7.657  0.0265  0.8261  0.0377
   30SAPC   C38 4055   4.964   1.190   7.782  0.3914 -0.0930 -0.0428
   30SAPC   H8X 4056   4.922   1.134   7.869  0.2417 -1.2608 -0.8552
   30SAPC   H8Y 4057   4.893   1.273   7.766 -1.4058 -1.8130 -1.3328
   30SAPC   C39 4058   5.094   1.261   7.827  0.6897 -0.0832  0.8453
   30SAPC   H9X 4059   5.055   1.345   7.887 -0.7170  0.2136 -0.4682
   30SAPC   H9Y 4060   5.128   1.318   7.738  0.0075  0.4580  0.9307
   30SAPC  C310 4061   5.206   1.172   7.890 -0.7249  0.1412 -0.4020
   30SAPC  H10X 4062   5.304   1.225   7.892 -0.2276 -0.8366  1.7774
   30SAPC  H10Y 4063   5.220   1.087   7.820  0.3890  1.2305 -1.5447
   30SAPC  C311 4064   5.168   1.123   8.033  0.3302  0.2669 -0.8398
   30SAPC  H11X 4065   5.088   1.047   8.035 -1.3492  1.9642 -1.7720
   30SAPC  H11Y 4066   5.132   1.216   8.083 -2.1714 -0.8214 -0.5692
   30SAPC  C312 4067   5.292   1.064   8.100 -0.3044  0.4896  0.0931
   30SAPC  H12X 4068   5.375   1.137   8.091  0.2501 -0.2637 -1.0717
   30SAPC  H12Y 4069   5.316   0.973   8.041  1.4014  1.4201 -0.6638
   30SAPC  C313 4070   5.248   1.036   8.245 -0.5875  0.5643  0.2294
   30SAPC  H13X 4071   5.156   0.977   8.265 -2.2570  2.7802 -0.7422
   30SAPC  H13Y 4072   5.239   1.134   8.296 -0.8305 -0.9701  3.2101
   30SAPC  C314 4073   5.360   0.963   8.323  0.2790 -0.2653  0.0106
   30SAPC  H14X 4074   5.447   1.030   8.309 -0.8479  0.9944 -1.2612
   30SAPC  H14Y 4075   5.399   0.869   8.280  2.6115 -0.0501  1.6042
   30SAPC  C315 4076   5.321   0.946   8.474  0.0591 -0.2688 -1.0557
   30SAPC  H15X 4077   5.272   0.848   8.491  0.0584 -0.4826 -2.2701
   30SAPC  H15Y 4078   5.246   1.023   8.502 -0.3481 -1.8512  2.4587
   30SAPC  C316 4079   5.458   0.958   8.560  0.9306 -0.6259 -0.3261
   30SAPC  H16X 4080   5.525   0.881   8.517  1.6367  0.1184 -0.5894
   30SAPC  H16Y 4081   5.426   0.925   8.661 -0.1240  0.2491 -0.3592
   30SAPC  C317 4082   5.513   1.099   8.575 -0.5912  0.6282 -0.1785
   30SAPC  H17X 4083   5.429   1.160   8.616 -0.4110  0.2143  0.8034
   30SAPC  H17Y 4084   5.537   1.125   8.470 -0.0184 -1.3120 -0.5544
   30SAPC  C318 4085   5.640   1.101   8.665 -0.1023  0.1462  0.1081
   30SAPC  H18X 4086   5.624   1.041   8.757 -4.0246 -1.7919 -1.6989
   30SAPC  H18Y 4087   5.704   1.190   8.680  0.6287 -0.5448  1.1255
   30SAPC  H18Z 4088   5.698   1.032   8.601 -1.1564  0.3361 -1.0758
   31SAPC     N 4089   5.844   1.643   6.035  0.4605 -0.0937  0.2000
   31SAPC   C12 4090   5.725   1.712   6.105 -0.4894 -0.1511 -0.2953
   31SAPC  H12A 4091   5.640   1.666   6.058 -0.2758 -0.0916 -0.7468
   31SAPC  H12B 4092   5.718   1.812   6.065  0.8386 -0.5516 -1.5797
   31SAPC   C13 4093   5.855   1.673   5.891 -0.0624 -0.8272  0.2028
   31SAPC  H13A 4094   5.858   1.777   5.862  3.0590 -0.8389  0.2991
   31SAPC  H13B 4095   5.949   1.638   5.851  0.6671  1.8695 -0.5022
   31SAPC  H13C 4096   5.778   1.626   5.832  0.9138 -0.2042 -1.6073
   31SAPC   C14 4097   5.975   1.689   6.095  0.4442 -0.3016 -0.2353
   31SAPC  H14A 4098   5.989   1.665   6.199  2.3922  1.3977 -0.0863
   31SAPC  H14B 4099   6.051   1.655   6.026 -0.5174 -1.8438 -0.5491
   31SAPC  H14C 4100   5.970   1.797   6.089  0.5136 -0.2772  0.1343
   31SAPC   C15 4101   5.843   1.497   6.070  0.4660  0.2491 -0.1488
   31SAPC  H15A 4102   5.753   1.444   6.042  0.5254 -1.1967  2.2593
   31SAPC  H15B 4103   5.926   1.459   6.011 -0.5181 -0.1086 -1.3249
   31SAPC  H15C 4104   5.856   1.477   6.175 -1.9641 -1.2895 -0.1173
   31SAPC   C11 4105   5.737   1.702   6.264 -0.0120  0.6693 -0.0376
   31SAPC  H11A 4106   5.670   1.775   6.313 -0.6881 -0.5545  0.9036
   31SAPC  H11B 4107   5.827   1.755   6.302 -0.5864  0.7965  1.1517
   31SAPC     P 4108   5.611   1.515   6.400  0.0383  0.1205  0.3949
   31SAPC   O13 4109   5.500   1.612   6.381  1.0230 -0.2547  0.1740
   31SAPC   O14 4110   5.580   1.375   6.354  0.5311 -0.1048  0.1443
   31SAPC   O12 4111   5.733   1.575   6.326 -0.2248 -0.0084 -0.3125
   31SAPC   O11 4112   5.647   1.517   6.562 -0.3000  0.7923  0.2923
   31SAPC    C1 4113   5.773   1.566   6.610  0.0680  0.1727  0.4624
   31SAPC    HA 4114   5.810   1.663   6.571 -0.5799  0.0152 -0.5714
   31SAPC    HB 4115   5.760   1.575   6.720  0.0080  1.8697  0.3193
   31SAPC    C2 4116   5.897   1.476   6.584 -0.4202 -0.3595 -0.7348
   31SAPC    HS 4117   5.904   1.449   6.476  3.4465 -2.7425 -0.0011
   31SAPC   O21 4118   5.875   1.351   6.643  0.5290 -1.0291  0.1519
   31SAPC   C21 4119   5.962   1.249   6.605  0.5599  0.1334 -0.2792
   31SAPC   O22 4120   6.043   1.256   6.513  0.2001 -0.7273  0.0995
   31SAPC   C22 4121   5.922   1.125   6.678 -0.0014  0.4186 -0.1390
   31SAPC   H2R 4122   5.944   1.148   6.784 -0.7218 -1.1404  0.3627
   31SAPC   H2S 4123   5.812   1.112   6.668 -0.0639 -1.7405  2.8965
   31SAPC    C3 4124   6.023   1.549   6.635 -0.3355 -0.0164  0.4000
   31SAPC    HX 4125   6.030   1.643   6.576  1.0697 -0.7237 -0.5928
   31SAPC    HY 4126   6.112   1.489   6.608 -0.4245  0.5750 -1.2474
   31SAPC   O31 4127   6.020   1.574   6.770 -0.1913 -0.3651 -0.0939
   31SAPC   C31 4128   6.076   1.477   6.848 -0.4341  0.0691  0.2144
   31SAPC   O32 4129   6.128   1.373   6.813 -0.4254  0.1853  0.1291
   31SAPC   C32 4130   6.054   1.525   6.990  0.2188  1.0129 -0.0249
   31SAPC   H2X 4131   5.944   1.517   7.004 -0.0102 -1.8047 -2.8711
   31SAPC   H2Y 4132   6.089   1.628   7.012  1.3170 -0.0140  3.4182
   31SAPC   C23 4133   5.991   0.994   6.627  0.4132  0.1671 -0.1592
   31SAPC   H3R 4134   5.970   0.991   6.518  2.5638  1.8120 -0.6688
   31SAPC   H3S 4135   5.929   0.914   6.671  0.3758 -0.2882 -1.0441
   31SAPC   C24 4136   6.142   0.981   6.660 -0.5812 -0.2797 -0.3016
   31SAPC   H4R 4137   6.192   1.048   6.587  0.2518 -0.5576  0.0113
   31SAPC   H4S 4138   6.183   0.884   6.627 -1.7435  0.0864 -3.0127
   31SAPC   C25 4139   6.191   1.022   6.790 -0.0857  0.0554 -0.2324
   31SAPC   H5R 4140   6.246   1.117   6.792  0.3065 -0.1840  0.3279
   31SAPC   C26 4141   6.173   0.967   6.911 -0.8902  0.3386 -0.3594
   31SAPC   H6R 4142   6.222   1.005   7.002  1.5455 -0.5646 -1.2403
   31SAPC   C27 4143   6.107   0.830   6.931  0.9496  0.5068  0.1686
   31SAPC   H7R 4144   6.171   0.763   6.994 -0.4547  0.1911  1.2938
   31SAPC   H7S 4145   6.109   0.773   6.836 -0.6165  1.4862 -0.4557
   31SAPC   C28 4146   5.967   0.834   6.982 -0.1735  0.4831  0.3075
   31SAPC   H8R 4147   5.908   0.926   6.966  0.0581  0.5683 -0.0608
   31SAPC   C29 4148   5.911   0.729   7.052  0.0484  0.9478 -0.1404
   31SAPC   H9R 4149   5.803   0.732   7.071 -0.2182  3.2952 -1.7760
   31SAPC  C210 4150   5.973   0.592   7.086  0.0581  0.0884 -0.1565
   31SAPC  H10R 4151   6.003   0.586   7.193 -1.0491  0.5821  0.1813
   31SAPC  H10S 4152   6.073   0.576   7.040 -0.3084 -2.0278 -0.2754
   31SAPC  C211 4153   5.889   0.479   7.041 -0.0544  0.1045 -0.6924
   31SAPC  H11R 4154   5.838   0.495   6.945 -0.5595 -0.8019 -0.5764
   31SAPC  C212 4155   5.886   0.362   7.104 -0.2075 -0.0260  0.2413
   31SAPC  H12R 4156   5.815   0.289   7.060 -0.8818  0.8990 -0.2292
   31SAPC  C213 4157   5.965   0.313   7.226  0.8458 -0.3007  0.3663
   31SAPC  H13R 4158   5.965   0.379   7.315  0.3417  0.1349  0.0523
   31SAPC  H13S 4159   6.073   0.302   7.204  1.1812  0.8282  1.3956
   31SAPC  C214 4160   5.900   0.190   7.281  0.5526  0.1246  0.2482
   31SAPC  H14R 4161   5.828   0.211   7.361  0.1419  1.0618 -0.3591
   31SAPC  C215 4162   5.907   0.062   7.243  0.2825  0.1752 -0.1125
   31SAPC  H15R 4163   5.857  -0.016   7.303 -1.9694  0.3086 -1.7615
   31SAPC  C216 4164   5.986  -0.005   7.140 -0.5588 -0.4369  0.0692
   31SAPC  H16R 4165   6.055  -0.078   7.189  2.7033  3.0404  0.9108
   31SAPC  H16S 4166   6.050   0.069   7.088  1.0462 -1.0451  1.0990
   31SAPC  C217 4167   5.890  -0.084   7.034 -0.3972  0.4180 -0.5212
   31SAPC  H17R 4168   5.816  -0.151   7.083 -1.4741 -1.0288 -3.9662
   31SAPC  H17S 4169   5.957  -0.151   6.976  1.8172  0.4616  1.8606
   31SAPC  C218 4170   5.823   0.012   6.936  0.5372  0.3532  0.1647
   31SAPC  H18R 4171   5.887   0.101   6.918  1.5407  0.2868  3.1337
   31SAPC  H18S 4172   5.738   0.055   6.994 -1.0485 -1.3621 -0.8646
   31SAPC  C219 4173   5.785  -0.048   6.797  0.5095 -0.5838  0.0340
   31SAPC  H19R 4174   5.876  -0.094   6.751  0.2050 -0.6793 -0.4840
   31SAPC  H19S 4175   5.743   0.031   6.731 -1.2601 -0.3337  1.4451
   31SAPC  C220 4176   5.681  -0.158   6.808  0.2908  0.1948  0.0031
   31SAPC  H20R 4177   5.728  -0.257   6.824  0.4244  0.4084  0.9859
   31SAPC  H20S 4178   5.614  -0.155   6.719 -2.0772 -0.8396  1.7167
   31SAPC  H20T 4179   5.623  -0.131   6.899 -0.1052 -0.5673 -0.0244
   31SAPC   C33 4180   6.127   1.432   7.092  0.4214 -0.3971 -0.3454
   31SAPC   H3X 4181   6.237   1.437   7.105  0.4489  1.5991 -1.1146
   31SAPC   H3Y 4182   6.102   1.327   7.064 -0.6054 -0.3987  0.5553
   31SAPC   C34 4183   6.068   1.429   7.239 -0.1848 -0.1070  0.1286
   31SAPC   H4X 4184   5.959   1.412   7.231  0.1533 -1.8814 -1.0640
   31SAPC   H4Y 4185   6.086   1.527   7.287 -0.5743 -0.3613  0.7902
   31SAPC   C35 4186   6.127   1.313   7.322 -0.0121  0.0906  0.2156
   31SAPC   H5X 4187   6.235   1.298   7.307 -0.0455  1.6403 -1.7016
   31SAPC   H5Y 4188   6.076   1.218   7.295 -1.1225  0.9948 -0.9758
   31SAPC   C36 4189   6.108   1.332   7.473  0.0148  0.4259  0.3593
   31SAPC   H6X 4190   6.007   1.356   7.512  0.7151  0.5570  2.1398
   31SAPC   H6Y 4191   6.176   1.417   7.495  2.8582 -1.6739  0.0630
   31SAPC   C37 4192   6.155   1.206   7.557  1.0151 -0.2030  0.0226
   31SAPC   H7X 4193   6.261   1.193   7.524  0.6189  2.2472 -2.3438
   31SAPC   H7Y 4194   6.109   1.113   7.518 -0.3085  1.2963 -2.0677
   31SAPC   C38 4195   6.135   1.219   7.708 -0.9489  0.1457  0.2916
   31SAPC   H8X 4196   6.029   1.243   7.728 -0.8649  2.0498 -1.3394
   31SAPC   H8Y 4197   6.211   1.293   7.742 -1.2224 -1.0417  3.6359
   31SAPC   C39 4198   6.171   1.086   7.770 -0.6651 -0.2796  0.0897
   31SAPC   H9X 4199   6.270   1.056   7.730 -1.4639 -2.5040 -0.2917
   31SAPC   H9Y 4200   6.096   1.014   7.730 -1.7076  0.6598  0.3367
   31SAPC  C310 4201   6.170   1.080   7.928  0.2408 -0.1272 -0.6285
   31SAPC  H10X 4202   6.063   1.103   7.950  0.1680 -0.6994 -0.3558
   31SAPC  H10Y 4203   6.231   1.159   7.977 -0.7787  0.4054 -0.1832
   31SAPC  C311 4204   6.193   0.941   7.993 -0.2563  0.1238 -0.5267
   31SAPC  H11X 4205   6.274   0.901   7.928 -2.0331 -2.2867 -1.3116
   31SAPC  H11Y 4206   6.110   0.870   7.976  0.4227 -0.8143  0.0019
   31SAPC  C312 4207   6.241   0.950   8.138 -0.0647 -0.0563  0.8569
   31SAPC  H12X 4208   6.158   0.997   8.197 -0.2120 -0.9842  1.3934
   31SAPC  H12Y 4209   6.322   1.024   8.156  1.2674 -1.0613 -0.8828
   31SAPC  C313 4210   6.283   0.828   8.200  0.7528  0.4681 -0.0137
   31SAPC  H13X 4211   6.352   0.763   8.143  0.7739 -1.6031  2.2389
   31SAPC  H13Y 4212   6.194   0.762   8.210  2.2977 -1.7624 -0.5830
   31SAPC  C314 4213   6.322   0.844   8.350 -0.0251  0.7079 -0.5078
   31SAPC  H14X 4214   6.256   0.915   8.405  0.2744  1.0624 -0.6036
   31SAPC  H14Y 4215   6.418   0.900   8.345 -0.0115  0.8530  0.9767
   31SAPC  C315 4216   6.345   0.710   8.421 -0.3993  0.2017  0.3801
   31SAPC  H15X 4217   6.438   0.676   8.371 -1.0936  2.2451 -2.4178
   31SAPC  H15Y 4218   6.262   0.644   8.387  0.2552  0.3357 -1.5160
   31SAPC  C316 4219   6.345   0.706   8.576 -0.1126 -0.2060  0.5542
   31SAPC  H16X 4220   6.381   0.803   8.617  0.7200 -1.2627  2.4202
   31SAPC  H16Y 4221   6.427   0.633   8.594  0.1065  0.0507  0.5935
   31SAPC  C317 4222   6.213   0.673   8.648 -0.5805 -0.3739 -0.0133
   31SAPC  H17X 4223   6.196   0.569   8.612  3.3515 -0.2111 -2.6445
   31SAPC  H17Y 4224   6.134   0.742   8.613 -0.7243 -0.0482  0.9345
   31SAPC  C318 4225   6.230   0.671   8.802 -0.3458 -0.4513 -0.8319
   31SAPC  H18X 4226   6.205   0.770   8.844  1.6749 -0.5314  0.6196
   31SAPC  H18Y 4227   6.339   0.676   8.821 -0.7193  1.1117  0.9934
   31SAPC  H18Z 4228   6.178   0.585   8.850 -1.3527  1.3133  1.3250
   32SAPC     N 4229   0.968   1.936   6.098 -0.3431 -0.3735  0.3630
   32SAPC   C12 4230   0.844   1.981   6.168 -0.4426  0.5690  0.4319
   32SAPC  H12A 4231   0.776   1.898   6.168 -1.5565  1.4604 -1.4672
   32SAPC  H12B 4232   0.794   2.060   6.115 -0.1622 -0.1478 -0.9215
   32SAPC   C13 4233   1.065   2.044   6.108 -0.5569 -0.3015  1.1995
   32SAPC  H13A 4234   1.020   2.137   6.075  0.4436 -1.0676 -2.4557
   32SAPC  H13B 4235   1.093   2.063   6.211  2.5856 -1.2739  0.5710
   32SAPC  H13C 4236   1.153   2.023   6.050 -1.6081 -2.0874  0.2083
   32SAPC   C14 4237   1.041   1.820   6.159  0.0462 -0.3853  0.3508
   32SAPC  H14A 4238   1.141   1.812   6.120  0.5710  2.3225  1.0273
   32SAPC  H14B 4239   1.050   1.838   6.265  0.2130 -0.8823  0.4237
   32SAPC  H14C 4240   0.980   1.732   6.144 -0.3422 -0.0821  0.1195
   32SAPC   C15 4241   0.938   1.911   5.954  0.4002  0.4890 -0.6656
   32SAPC  H15A 4242   1.024   1.869   5.904 -0.8431 -1.6173 -1.0846
   32SAPC  H15B 4243   0.857   1.841   5.945  0.5936  0.0367  0.9458
   32SAPC  H15C 4244   0.924   2.003   5.899  4.2751  2.2498  1.1179
   32SAPC   C11 4245   0.844   2.028   6.317  0.3530  0.2248 -0.1054
   32SAPC  H11A 4246   0.899   1.956   6.381  1.8166  1.2850 -0.1538
   32SAPC  H11B 4247   0.741   2.029   6.359 -0.5843 -0.9030 -2.3078
   32SAPC     P 4248   0.814   2.280   6.272 -0.0403  0.0205 -0.2445
   32SAPC   O13 4249   0.916   2.372   6.217  0.1344 -0.4097  0.9219
   32SAPC   O14 4250   0.707   2.243   6.178  0.0917 -0.4442  0.5811
   32SAPC   O12 4251   0.894   2.157   6.325 -0.4469 -0.3559  0.0698
   32SAPC   O11 4252   0.750   2.342   6.407  0.3198  0.2384  0.3589
   32SAPC    C1 4253   0.804   2.317   6.535  0.0865  0.6095 -0.3059
   32SAPC    HA 4254   0.835   2.211   6.543 -2.5771 -0.1912 -0.0234
   32SAPC    HB 4255   0.878   2.390   6.573  0.4362 -0.7273  1.6629
   32SAPC    C2 4256   0.678   2.325   6.627 -0.8041 -0.4225  0.0291
   32SAPC    HS 4257   0.654   2.432   6.647  1.2771 -0.2271  1.6528
   32SAPC   O21 4258   0.696   2.249   6.751  0.7791  0.2926  0.3415
   32SAPC   C21 4259   0.797   2.289   6.834 -0.4961  0.6829  0.1960
   32SAPC   O22 4260   0.857   2.396   6.814  0.1993  0.5663  0.0584
   32SAPC   C22 4261   0.821   2.186   6.947 -0.6345  0.8494  0.9230
   32SAPC   H2R 4262   0.784   2.231   7.041  2.5985 -0.8530  3.0633
   32SAPC   H2S 4263   0.760   2.095   6.930 -0.6839  0.9179  0.7210
   32SAPC    C3 4264   0.557   2.260   6.550  0.1032  0.1637  0.7210
   32SAPC    HX 4265   0.599   2.160   6.527  0.8625  0.7752 -0.6128
   32SAPC    HY 4266   0.535   2.295   6.447  0.7710  0.1773  0.5784
   32SAPC   O31 4267   0.437   2.234   6.622 -0.2172 -0.5361  0.0141
   32SAPC   C31 4268   0.347   2.330   6.638 -0.1410 -0.5684 -0.1824
   32SAPC   O32 4269   0.366   2.445   6.598 -0.6337  0.1993  0.2326
   32SAPC   C32 4270   0.231   2.272   6.712 -0.2476 -0.2132  0.4987
   32SAPC   H2X 4271   0.191   2.183   6.658 -3.5055 -0.0736  2.5512
   32SAPC   H2Y 4272   0.142   2.339   6.708  0.1604  0.2383 -1.3949
   32SAPC   C23 4273   0.970   2.158   6.965 -0.5066 -0.3365  0.4913
   32SAPC   H3R 4274   1.023   2.149   6.867  0.1367 -1.1951  0.9133
   32SAPC   H3S 4275   0.992   2.069   7.027  3.9633 -0.1069 -0.5878
   32SAPC   C24 4276   1.036   2.269   7.041  0.6132  1.1584 -0.5488
   32SAPC   H4R 4277   0.985   2.276   7.140 -2.2588 -0.3288 -1.8663
   32SAPC   H4S 4278   1.021   2.371   7.001 -0.4299  1.2315  0.0048
   32SAPC   C25 4279   1.185   2.255   7.045  0.0742  0.1149  0.1379
   32SAPC   H5R 4280   1.232   2.273   6.947  0.8851 -4.1013 -0.3778
   32SAPC   C26 4281   1.272   2.220   7.141 -0.4392  0.1522 -0.1831
   32SAPC   H6R 4282   1.377   2.217   7.110 -0.8817 -0.5535 -1.6323
   32SAPC   C27 4283   1.250   2.205   7.289 -0.1135  0.2608 -0.3217
   32SAPC   H7R 4284   1.258   2.098   7.317  2.5397  0.0309 -1.7944
   32SAPC   H7S 4285   1.149   2.245   7.314 -0.5363 -0.9071 -0.1333
   32SAPC   C28 4286   1.352   2.292   7.362 -0.2422 -0.4089  0.6692
   32SAPC   H8R 4287   1.384   2.376   7.298 -0.6376 -0.2384  0.6917
   32SAPC   C29 4288   1.401   2.265   7.484 -0.0443 -0.3262  0.2157
   32SAPC   H9R 4289   1.487   2.325   7.517 -0.0445 -0.1219 -0.1455
   32SAPC  C210 4290   1.363   2.143   7.571  0.1317  0.1271 -0.2261
   32SAPC  H10R 4291   1.456   2.089   7.599  1.2681  2.4709  0.6449
   32SAPC  H10S 4292   1.300   2.077   7.508 -1.0166 -1.6030  2.6222
   32SAPC  C211 4293   1.281   2.172   7.700 -0.1460  0.6565  0.5849
   32SAPC  H11R 4294   1.221   2.265   7.701  0.7717  1.2546  0.5301
   32SAPC  C212 4295   1.278   2.098   7.808  0.4649 -0.0047 -0.2451
   32SAPC  H12R 4296   1.205   2.121   7.887  1.5460  0.7731  0.5514
   32SAPC  C213 4297   1.348   1.970   7.834  0.0603 -0.4554  0.9625
   32SAPC  H13R 4298   1.363   1.919   7.737  1.0731  0.9643  0.3570
   32SAPC  H13S 4299   1.286   1.888   7.878  1.2809 -0.7983  2.0900
   32SAPC  C214 4300   1.478   1.999   7.902 -0.1985  0.1758 -0.1957
   32SAPC  H14R 4301   1.532   2.086   7.863 -2.3320  0.9587 -1.4604
   32SAPC  C215 4302   1.525   1.932   8.008  0.4874  0.3044  0.5467
   32SAPC  H15R 4303   1.617   1.964   8.060  1.4241 -1.3087 -0.0747
   32SAPC  C216 4304   1.463   1.810   8.062  0.4905  0.1327  0.0481
   32SAPC  H16R 4305   1.528   1.725   8.091 -2.8816 -3.0662 -1.3404
   32SAPC  H16S 4306   1.395   1.765   7.986  1.5941 -2.2256  0.3903
   32SAPC  C217 4307   1.375   1.834   8.188 -0.1227  0.1506 -0.2309
   32SAPC  H17R 4308   1.311   1.922   8.165 -0.3995  0.4905  1.7212
   32SAPC  H17S 4309   1.448   1.873   8.262  2.5216 -0.8643 -2.1830
   32SAPC  C218 4310   1.309   1.704   8.246  0.4390 -0.8175 -0.3033
   32SAPC  H18R 4311   1.377   1.618   8.227  2.5093  0.1891  2.2663
   32SAPC  H18S 4312   1.220   1.700   8.179  0.4153  1.1766 -0.4030
   32SAPC  C219 4313   1.253   1.714   8.388  0.5100 -0.3921  0.4730
   32SAPC  H19R 4314   1.199   1.811   8.384 -2.6693 -2.0322  1.6063
   32SAPC  H19S 4315   1.346   1.713   8.449  0.4888 -0.6776  0.5016
   32SAPC  C220 4316   1.144   1.616   8.423 -0.5195 -0.2521  1.2014
   32SAPC  H20R 4317   1.065   1.610   8.346 -0.3752  1.3303  0.9137
   32SAPC  H20S 4318   1.102   1.672   8.509 -1.1992  2.4832 -0.8794
   32SAPC  H20T 4319   1.178   1.511   8.441  0.5322  0.0301  0.9248
   32SAPC   C33 4320   0.272   2.242   6.857 -0.1138 -0.2781  0.1195
   32SAPC   H3X 4321   0.364   2.181   6.846 -0.2633 -0.4428 -0.2690
   32SAPC   H3Y 4322   0.194   2.177   6.902 -0.5824 -0.4489 -0.9232
   32SAPC   C34 4323   0.296   2.362   6.933 -0.3831  0.3559 -0.1915
   32SAPC   H4X 4324   0.197   2.406   6.959  0.7693  1.3803  2.7207
   32SAPC   H4Y 4325   0.359   2.433   6.875 -0.6768 -0.2970 -1.3085
   32SAPC   C35 4326   0.374   2.330   7.068  0.7715 -0.0712 -0.2556
   32SAPC   H5X 4327   0.470   2.287   7.032  0.2855  1.1441 -3.1190
   32SAPC   H5Y 4328   0.317   2.246   7.113  0.2975  0.3645 -0.0293
   32SAPC   C36 4329   0.386   2.460   7.150  0.7453 -0.5663  0.8105
   32SAPC   H6X 4330   0.288   2.500   7.182  1.3668 -0.4430  2.6269
   32SAPC   H6Y 4331   0.427   2.535   7.079 -0.6204  0.2002  0.8104
   32SAPC   C37 4332   0.463   2.437   7.278  0.2743  0.8372 -0.2477
   32SAPC   H7X 4333   0.567   2.417   7.244  0.3191 -1.9036  1.3439
   32SAPC   H7Y 4334   0.417   2.344   7.318  0.9219 -0.6115 -2.7535
   32SAPC   C38 4335   0.468   2.555   7.373 -0.1304  0.4440 -0.5126
   32SAPC   H8X 4336   0.363   2.574   7.405  0.6007  0.6700  1.8788
   32SAPC   H8Y 4337   0.509   2.650   7.334 -0.2547  0.7712  0.1530
   32SAPC   C39 4338   0.550   2.510   7.494  0.4752 -0.2843  0.1748
   32SAPC   H9X 4339   0.656   2.494   7.469  1.0171 -0.1907  2.2671
   32SAPC   H9Y 4340   0.502   2.420   7.539  0.5269 -0.7269 -0.6532
   32SAPC  C310 4341   0.543   2.620   7.604  0.1959 -0.4101 -1.0689
   32SAPC  H10X 4342   0.435   2.637   7.623  0.2559 -1.5326  0.3717
   32SAPC  H10Y 4343   0.586   2.712   7.558  3.2311 -0.6596  1.1152
   32SAPC  C311 4344   0.617   2.583   7.732 -0.4232  0.1458 -0.3096
   32SAPC  H11X 4345   0.687   2.661   7.769 -0.9125  0.5748 -0.2888
   32SAPC  H11Y 4346   0.673   2.489   7.716  1.6852  1.0831  1.3910
   32SAPC  C312 4347   0.525   2.556   7.851  0.1724 -0.1383  0.9905
   32SAPC  H12X 4348   0.451   2.479   7.821  2.2913 -1.3359 -1.4445
   32SAPC  H12Y 4349   0.461   2.645   7.868 -1.1097 -0.6937 -0.7624
   32SAPC  C313 4350   0.600   2.503   7.979  0.3242  0.3549  0.2636
   32SAPC  H13X 4351   0.548   2.552   8.064 -0.8227  0.8271 -0.6943
   32SAPC  H13Y 4352   0.709   2.522   7.978  0.3884 -0.0063  0.5934
   32SAPC  C314 4353   0.573   2.353   7.986  1.1647 -0.4957 -0.3070
   32SAPC  H14X 4354   0.576   2.301   7.887  0.0982 -2.5279  0.7003
   32SAPC  H14Y 4355   0.470   2.344   8.026  0.1286 -0.1150 -2.7472
   32SAPC  C315 4356   0.668   2.272   8.082 -0.7975  0.8918  0.0135
   32SAPC  H15X 4357   0.764   2.264   8.026 -1.5968 -0.1661 -1.2310
   32SAPC  H15Y 4358   0.626   2.172   8.105  3.9003 -0.9250  1.3002
   32SAPC  C316 4359   0.694   2.337   8.217  1.2218  0.4566  0.6012
   32SAPC  H16X 4360   0.721   2.443   8.198 -2.1171  1.1567 -0.7169
   32SAPC  H16Y 4361   0.784   2.289   8.261  0.4456  0.3390  2.1012
   32SAPC  C317 4362   0.579   2.337   8.314  0.0717  0.1491 -0.3235
   32SAPC  H17X 4363   0.523   2.433   8.312 -1.1301 -0.5226  0.2613
   32SAPC  H17Y 4364   0.629   2.326   8.413 -1.1231 -1.8611  0.1072
   32SAPC  C318 4365   0.476   2.221   8.308  0.0164  0.3145 -0.0726
   32SAPC  H18X 4366   0.521   2.127   8.345  0.8219  1.2816  1.4585
   32SAPC  H18Y 4367   0.448   2.210   8.201 -1.1516  0.1964  0.2399
   32SAPC  H18Z 4368   0.383   2.243   8.366  1.8049 -0.7333  3.2826
   33POPC     N 4369   5.167   2.557  10.788 -0.0963  0.7005 -0.8719
   33POPC   C12 4370   5.060   2.537  10.681 -0.7255  0.1383  0.2824
   33POPC  H12A 4371   4.969   2.524  10.737 -0.2533 -0.9200  0.8099
   33POPC  H12B 4372   5.076   2.445  10.627 -0.0418  1.1890 -1.3614
   33POPC   C13 4373   5.308   2.589  10.740  0.0027 -0.0224  1.3296
   33POPC  H13A 4374   5.373   2.613  10.824  0.6335  0.4501  0.7131
   33POPC  H13B 4375   5.355   2.509  10.684 -1.0757 -0.7213  1.4299
   33POPC  H13C 4376   5.304   2.670  10.669  0.7438 -0.7647  0.4230
   33POPC   C14 4377   5.139   2.663  10.884 -0.0449 -0.9754  0.0742
   33POPC  H14A 4378   5.121   2.758  10.836  1.8753 -1.4509 -1.6548
   33POPC  H14B 4379   5.047   2.646  10.936  0.1978 -0.4309  0.6985
   33POPC  H14C 4380   5.220   2.667  10.956  1.7914 -1.5838 -1.8931
   33POPC   C15 4381   5.168   2.429  10.875 -0.2773  0.0711 -0.1874
   33POPC  H15A 4382   5.173   2.338  10.816 -1.2579 -2.3401  3.2890
   33POPC  H15B 4383   5.071   2.422  10.920 -1.0903  1.7707 -1.6111
   33POPC  H15C 4384   5.247   2.430  10.948 -0.6360 -0.3574  0.2087
   33POPC   C11 4385   5.040   2.664  10.586 -0.4892 -0.5283  0.4933
   33POPC  H11A 4386   4.987   2.641  10.491 -0.7597  2.0179 -0.0008
   33POPC  H11B 4387   5.138   2.697  10.544  0.1569 -0.3797  2.0631
   33POPC     P 4388   4.831   2.764  10.681 -0.2669 -0.0521  0.1385
   33POPC   O13 4389   4.783   2.897  10.721  0.4005  0.0645 -0.4935
   33POPC   O14 4390   4.797   2.654  10.765  0.6901  0.4449  0.6375
   33POPC   O12 4391   4.981   2.770  10.660 -0.0810  0.5245 -0.6517
   33POPC   O11 4392   4.783   2.738  10.536  0.2819  0.4208 -0.2780
   33POPC    C1 4393   4.818   2.837  10.437  0.0055 -0.2996  0.0489
   33POPC    HA 4394   4.756   2.928  10.454  0.5325  0.2248 -0.8015
   33POPC    HB 4395   4.925   2.867  10.446 -0.4733  1.0908  1.2767
   33POPC    C2 4396   4.775   2.797  10.297 -0.0190  0.9319  0.5694
   33POPC    HS 4397   4.670   2.764  10.300  0.7474 -1.5733  0.5521
   33POPC   O21 4398   4.858   2.683  10.259 -0.0567 -0.1063 -0.6475
   33POPC   C21 4399   4.811   2.588  10.184  0.3881  0.1304 -0.8758
   33POPC   O22 4400   4.708   2.576  10.130  0.1227 -0.2626 -0.6106
   33POPC   C22 4401   4.933   2.486  10.169  0.5569 -0.2485 -0.4874
   33POPC   H2R 4402   4.891   2.387  10.139 -1.4370  0.0910  1.1484
   33POPC   H2S 4403   4.969   2.463  10.271 -1.8168  0.8938  0.6386
   33POPC    C3 4404   4.798   2.918  10.199  0.2903 -0.6582 -0.5980
   33POPC    HX 4405   4.898   2.962  10.222 -0.1434 -0.2157  0.4461
   33POPC    HY 4406   4.722   2.994  10.226  2.1287  0.7707  0.7080
   33POPC   O31 4407   4.782   2.884  10.062 -0.1941  0.0400  0.1157
   33POPC   C31 4408   4.775   2.977   9.970  0.0118  0.1012  0.1694
   33POPC   O32 4409   4.773   3.094   9.993  0.5467  0.4265 -0.3974
   33POPC   C32 4410   4.738   2.925   9.832  0.1618 -0.0388 -0.1113
   33POPC   H2X 4411   4.645   2.976   9.799  0.2622 -0.7112 -1.4593
   33POPC   H2Y 4412   4.705   2.819   9.840 -0.4579  0.0078 -1.8717
   33POPC   C23 4413   5.032   2.540  10.062 -0.2997  0.2655 -0.3804
   33POPC   H3R 4414   5.129   2.489  10.079 -0.1083  0.4616 -0.8797
   33POPC   H3S 4415   5.058   2.648  10.065  1.5271 -0.1426 -0.9232
   33POPC   C24 4416   4.985   2.493   9.919  0.0702 -0.9230 -0.1809
   33POPC   H4R 4417   4.880   2.529   9.908  0.7798  0.9603 -0.9977
   33POPC   H4S 4418   4.976   2.382   9.915 -0.5929 -0.9041  0.5067
   33POPC   C25 4419   5.054   2.564   9.807 -0.8304  0.1135  0.5113
   33POPC   H5R 4420   5.053   2.673   9.829 -1.7937  0.5406 -1.5997
   33POPC   H5S 4421   4.989   2.547   9.719  0.2572 -0.9496 -0.1024
   33POPC   C26 4422   5.203   2.529   9.774  0.0179  0.5748 -0.2064
   33POPC   H6R 4423   5.226   2.421   9.777 -0.7138  0.4179 -0.3286
   33POPC   H6S 4424   5.267   2.563   9.859  0.3864 -0.2045 -0.1679
   33POPC   C27 4425   5.254   2.599   9.643  0.1294  0.2592  0.6390
   33POPC   H7R 4426   5.215   2.703   9.648  1.7420  0.9734 -1.0473
   33POPC   H7S 4427   5.208   2.553   9.553 -0.3201  1.2559  0.3434
   33POPC   C28 4428   5.407   2.618   9.641  0.2559 -0.2181  0.4021
   33POPC   H8R 4429   5.454   2.520   9.662  1.1487  0.3228  1.0070
   33POPC   H8S 4430   5.432   2.687   9.724 -0.0132 -0.7866  0.9534
   33POPC   C29 4431   5.466   2.673   9.513 -0.4364  0.0176 -0.0151
   33POPC   H91 4432   5.428   2.771   9.482 -0.5292  0.5573  1.7362
   33POPC  C210 4433   5.574   2.643   9.447 -0.5239  0.5244 -0.5879
   33POPC  H101 4434   5.603   2.705   9.361  0.1590  1.0606  0.0228
   33POPC  C211 4435   5.679   2.532   9.479 -0.2664  0.0654  0.4067
   33POPC  H11R 4436   5.630   2.438   9.511 -0.1474 -0.1367 -0.0094
   33POPC  H11S 4437   5.730   2.573   9.569 -2.2041  0.8419  1.1771
   33POPC  C212 4438   5.777   2.522   9.365  0.1858  0.2005 -0.1206
   33POPC  H12R 4439   5.850   2.439   9.369 -0.3302 -0.2571 -0.1654
   33POPC  H12S 4440   5.839   2.613   9.347 -0.3681  0.5629 -0.2359
   33POPC  C213 4441   5.710   2.489   9.229 -0.5044 -0.1919  0.5753
   33POPC  H13R 4442   5.687   2.583   9.174 -1.0615  0.0382  1.1776
   33POPC  H13S 4443   5.619   2.429   9.251 -1.3850  0.2852 -1.6377
   33POPC  C214 4444   5.788   2.403   9.137  0.5248  0.5593  0.5439
   33POPC  H14R 4445   5.811   2.307   9.187  1.8620  0.2126 -0.7044
   33POPC  H14S 4446   5.882   2.454   9.108  1.5615 -1.9335 -0.5586
   33POPC  C215 4447   5.710   2.374   9.007  0.2514  0.0536 -0.1687
   33POPC  H15R 4448   5.696   2.471   8.955 -0.8439  0.3570  0.6624
   33POPC  H15S 4449   5.604   2.344   9.022  0.5157 -1.0039 -0.3723
   33POPC  C216 4450   5.777   2.277   8.905 -0.9632  0.4502  1.3227
   33POPC  H16R 4451   5.785   2.177   8.953 -3.5356 -1.1949 -1.5255
   33POPC  H16S 4452   5.877   2.315   8.876 -1.0608 -0.8709 -0.9312
   33POPC  C217 4453   5.689   2.266   8.784 -0.2417 -0.6147  0.1389
   33POPC  H17R 4454   5.674   2.370   8.748 -1.1937  0.3517  3.1972
   33POPC  H17S 4455   5.594   2.232   8.831  0.2155  1.8220  3.0259
   33POPC  C218 4456   5.730   2.178   8.672  0.1228 -0.5483  0.5109
   33POPC  H18R 4457   5.812   2.232   8.621 -0.0460 -0.9912 -0.2345
   33POPC  H18S 4458   5.641   2.161   8.608 -1.3186 -0.2116  2.3657
   33POPC  H18T 4459   5.760   2.076   8.705 -0.9136 -0.7182  0.9677
   33POPC   C33 4460   4.852   2.964   9.735 -0.7747 -0.3603 -0.4561
   33POPC   H3X 4461   4.950   2.946   9.784 -1.7701 -1.8150  1.0668
   33POPC   H3Y 4462   4.842   3.073   9.716 -1.1202 -0.3554 -0.2563
   33POPC   C34 4463   4.855   2.881   9.613  0.3255 -0.0638  0.1485
   33POPC   H4X 4464   4.770   2.904   9.545  0.2473 -0.7537  0.0022
   33POPC   H4Y 4465   4.841   2.772   9.630 -3.9393  0.8004  2.8924
   33POPC   C35 4466   4.984   2.912   9.539 -0.5907  0.1740  0.4063
   33POPC   H5X 4467   5.073   2.886   9.601 -1.1960  1.3192  1.7952
   33POPC   H5Y 4468   4.994   3.022   9.524  2.1793 -0.2667 -1.3108
   33POPC   C36 4469   4.999   2.834   9.407 -0.8527  0.6453  0.2723
   33POPC   H6X 4470   4.911   2.861   9.346  0.1745  0.4245 -1.3403
   33POPC   H6Y 4471   4.988   2.725   9.427  1.8220  0.4388  0.8720
   33POPC   C37 4472   5.124   2.855   9.323  0.3280  0.0959  0.1963
   33POPC   H7X 4473   5.210   2.816   9.383  0.7432  0.1346 -0.3681
   33POPC   H7Y 4474   5.135   2.964   9.305 -0.4205  0.0169 -0.7348
   33POPC   C38 4475   5.114   2.792   9.190 -0.0713 -0.0930  0.0553
   33POPC   H8X 4476   5.015   2.819   9.149 -1.0558  0.1403  2.5187
   33POPC   H8Y 4477   5.121   2.682   9.202 -2.1760 -0.2113  0.3004
   33POPC   C39 4478   5.222   2.838   9.100 -0.2910  0.0106 -0.4827
   33POPC   H9X 4479   5.321   2.796   9.126  0.0857  1.4989  0.5282
   33POPC   H9Y 4480   5.238   2.946   9.123 -0.3763  0.2668 -1.6031
   33POPC  C310 4481   5.186   2.822   8.945 -0.7198 -0.3366  0.3264
   33POPC  H10X 4482   5.283   2.835   8.891 -0.8957 -0.7359 -0.0886
   33POPC  H10Y 4483   5.124   2.905   8.905  2.8601  1.2903 -2.1960
   33POPC  C311 4484   5.111   2.696   8.914  0.2591 -0.5348  0.3542
   33POPC  H11X 4485   5.034   2.673   8.991  1.2652 -1.2379  1.1630
   33POPC  H11Y 4486   5.193   2.622   8.907  0.3804 -0.2988 -0.6690
   33POPC  C312 4487   5.036   2.700   8.782  0.2797 -0.1784  0.4568
   33POPC  H12X 4488   5.110   2.734   8.707 -0.4230 -1.6267 -0.9266
   33POPC  H12Y 4489   4.961   2.782   8.791  1.6487  1.2924 -1.3402
   33POPC  C313 4490   4.965   2.568   8.752  0.0896  0.2090  0.1433
   33POPC  H13X 4491   5.040   2.492   8.720  1.9470  1.0174  2.4536
   33POPC  H13Y 4492   4.904   2.580   8.659 -1.1869  0.1862  0.9662
   33POPC  C314 4493   4.878   2.523   8.870 -0.3285  0.7674 -0.2728
   33POPC  H14X 4494   4.815   2.608   8.906 -0.3774 -0.0156  1.5879
   33POPC  H14Y 4495   4.945   2.496   8.954 -1.9663 -2.6384  0.0422
   33POPC  C315 4496   4.789   2.402   8.848  0.1625  0.2028  0.8526
   33POPC  H15X 4497   4.774   2.402   8.738 -0.7381  0.1847  0.9678
   33POPC  H15Y 4498   4.694   2.422   8.901 -0.7235  0.2204 -0.6978
   33POPC  C316 4499   4.847   2.280   8.900 -0.6722  0.2228 -0.1307
   33POPC  H16X 4500   4.870   2.293   9.008  1.3287  1.4866 -0.6832
   33POPC  H16Y 4501   4.936   2.249   8.841 -1.2809  1.1123 -1.5389
   33POPC  H16Z 4502   4.774   2.197   8.887  1.1680 -1.2737 -1.0876
   34POPC     N 4503   4.089   4.758  11.004 -0.4827  0.1655 -0.2433
   34POPC   C12 4504   4.091   4.683  10.873 -1.0153  0.3817 -0.0217
   34POPC  H12A 4505   4.146   4.593  10.898  0.0913  1.2348  0.6096
   34POPC  H12B 4506   4.153   4.732  10.799 -0.3888 -1.2426 -0.6195
   34POPC   C13 4507   3.980   4.859  10.996  0.4789 -0.1903 -0.1189
   34POPC  H13A 4508   4.018   4.940  10.936 -1.9312 -0.1218 -1.6311
   34POPC  H13B 4509   3.897   4.820  10.938 -0.6263  0.5429  0.9360
   34POPC  H13C 4510   3.950   4.889  11.096  0.2539  1.5790 -0.6917
   34POPC   C14 4511   4.051   4.666  11.111  0.6516  0.3607 -0.1657
   34POPC  H14A 4512   4.134   4.598  11.125  1.2552  1.6313  2.9320
   34POPC  H14B 4513   4.014   4.707  11.204  0.8653  0.1123  0.0266
   34POPC  H14C 4514   3.966   4.612  11.073 -0.0971 -0.0965  2.0374
   34POPC   C15 4515   4.226   4.806  11.032 -0.3945 -0.4227  0.0052
   34POPC  H15A 4516   4.295   4.723  11.043  2.8487  2.1323 -0.3535
   34POPC  H15B 4517   4.238   4.856  11.127  0.8809 -1.0264  0.1701
   34POPC  H15C 4518   4.267   4.887  10.975 -0.0004  1.9738  3.5183
   34POPC   C11 4519   3.955   4.634  10.804 -0.6283  0.3670 -0.1871
   34POPC  H11A 4520   3.976   4.598  10.701 -0.3710 -0.4741  0.1582
   34POPC  H11B 4521   3.875   4.709  10.784  1.3144  2.6343  0.3572
   34POPC     P 4522   3.955   4.389  10.866 -0.2495 -0.1911 -0.1623
   34POPC   O13 4523   3.879   4.304  10.952  0.6056 -0.2355  0.9947
   34POPC   O14 4524   4.104   4.390  10.887 -0.3976 -0.3148  0.7041
   34POPC   O12 4525   3.900   4.534  10.892 -0.1001 -0.2443 -0.3285
   34POPC   O11 4526   3.929   4.360  10.713 -0.0628 -0.9570  0.2270
   34POPC    C1 4527   3.794   4.316  10.694  0.2895  0.5395 -0.5927
   34POPC    HA 4528   3.718   4.376  10.748 -0.4821 -0.9163 -0.0018
   34POPC    HB 4529   3.782   4.213  10.735  0.8935  0.1008 -1.5216
   34POPC    C2 4530   3.761   4.319  10.547  0.2397  0.3030  0.0255
   34POPC    HS 4531   3.655   4.287  10.536  0.6855 -0.6325 -1.8377
   34POPC   O21 4532   3.849   4.242  10.466  0.0078 -0.3976 -0.0686
   34POPC   C21 4533   3.807   4.116  10.440  0.3800 -0.4168 -0.4043
   34POPC   O22 4534   3.702   4.076  10.481  0.3461 -0.2032  0.1898
   34POPC   C22 4535   3.899   4.040  10.345 -0.6312 -0.4978  0.9950
   34POPC   H2R 4536   3.881   3.933  10.370  0.5289 -1.0874 -0.5716
   34POPC   H2S 4537   4.007   4.060  10.361  0.1732 -3.6039 -0.1573
   34POPC    C3 4538   3.768   4.467  10.500 -0.0252  0.0804  0.4040
   34POPC    HX 4539   3.876   4.492  10.496 -0.0771  0.0437 -2.1538
   34POPC    HY 4540   3.720   4.549  10.558 -0.7835  0.0224 -0.1289
   34POPC   O31 4541   3.715   4.488  10.365 -0.4286 -0.7473  0.3001
   34POPC   C31 4542   3.582   4.497  10.356  0.3882  0.1337  0.8358
   34POPC   O32 4543   3.504   4.475  10.445 -0.9002 -0.1669 -0.3855
   34POPC   C32 4544   3.551   4.571  10.228  0.4214  0.2333 -0.0858
   34POPC   H2X 4545   3.597   4.525  10.138 -1.0256 -1.4658  0.0195
   34POPC   H2Y 4546   3.603   4.669  10.235  2.0508 -0.4551 -2.0581
   34POPC   C23 4547   3.853   4.067  10.200  0.1674 -0.1144 -0.1732
   34POPC   H3R 4548   3.744   4.055  10.187 -0.0569  0.6403  0.9690
   34POPC   H3S 4549   3.901   3.990  10.135 -1.5525 -0.8742 -0.5632
   34POPC   C24 4550   3.872   4.212  10.151 -0.3062  0.3232  0.0003
   34POPC   H4R 4551   3.977   4.247  10.160  0.8531 -3.1304  0.4352
   34POPC   H4S 4552   3.821   4.290  10.212  0.6193 -0.6211  2.0525
   34POPC   C25 4553   3.816   4.239  10.009  0.3839  0.5088  0.5409
   34POPC   H5R 4554   3.825   4.347   9.986 -3.0157  0.8642  0.7234
   34POPC   H5S 4555   3.710   4.206   9.998  0.2550  1.2711 -0.5820
   34POPC   C26 4556   3.900   4.166   9.899  0.2441 -0.4474 -0.0255
   34POPC   H6R 4557   3.881   4.058   9.918  0.3616 -0.1692  1.7186
   34POPC   H6S 4558   4.006   4.188   9.924  0.1046 -1.6835  1.7647
   34POPC   C27 4559   3.875   4.213   9.760 -0.4014  0.3708  1.0531
   34POPC   H7R 4560   3.913   4.318   9.751  2.1746 -0.5567  0.7399
   34POPC   H7S 4561   3.766   4.222   9.745 -0.1292  0.3070 -1.1475
   34POPC   C28 4562   3.932   4.124   9.648  0.4292 -0.3885  0.4724
   34POPC   H8R 4563   3.883   4.150   9.552 -2.2344 -1.0091  1.6133
   34POPC   H8S 4564   3.888   4.022   9.661 -1.4192  0.1723 -1.2487
   34POPC   C29 4565   4.081   4.129   9.640 -0.2257  0.2945 -0.5700
   34POPC   H91 4566   4.127   4.061   9.713 -1.5924 -2.3370 -2.0959
   34POPC  C210 4567   4.153   4.203   9.554 -0.0717 -0.1260  0.6151
   34POPC  H101 4568   4.262   4.193   9.567 -0.2524  0.6823  2.8263
   34POPC  C211 4569   4.103   4.309   9.455 -0.2260 -0.1705  0.5556
   34POPC  H11R 4570   4.044   4.393   9.498  0.8380  0.9514 -0.1357
   34POPC  H11S 4571   4.031   4.268   9.381  0.5690 -1.9574  0.7528
   34POPC  C212 4572   4.228   4.386   9.404 -0.1199  0.5611  0.5847
   34POPC  H12R 4573   4.292   4.322   9.338 -0.8375  2.6223 -2.2131
   34POPC  H12S 4574   4.285   4.414   9.495 -1.6891 -2.1871  2.4946
   34POPC  C213 4575   4.207   4.513   9.320 -0.6989 -0.5073 -0.6310
   34POPC  H13R 4576   4.294   4.583   9.321  0.3608 -1.8265  0.2953
   34POPC  H13S 4577   4.127   4.573   9.369  0.2943  0.0426  0.3413
   34POPC  C214 4578   4.166   4.480   9.176 -0.0340  0.1226  0.0291
   34POPC  H14R 4579   4.059   4.451   9.171 -0.0486  0.4061 -1.3785
   34POPC  H14S 4580   4.229   4.395   9.142 -0.0689  0.0430  0.1611
   34POPC  C215 4581   4.189   4.604   9.094  0.8586 -0.7419 -0.2812
   34POPC  H15R 4582   4.139   4.696   9.134  0.4294 -0.4699 -1.4446
   34POPC  H15S 4583   4.140   4.571   9.000 -1.0787 -2.2410  1.1931
   34POPC  C216 4584   4.325   4.647   9.050 -0.1601  0.0735 -0.3357
   34POPC  H16R 4585   4.399   4.566   9.033  0.0757 -0.4345  2.6843
   34POPC  H16S 4586   4.375   4.695   9.137  1.0653 -0.5410 -0.6864
   34POPC  C217 4587   4.324   4.757   8.943  1.0854  0.6514 -0.4582
   34POPC  H17R 4588   4.265   4.709   8.862  0.0958 -1.3650  1.3981
   34POPC  H17S 4589   4.422   4.782   8.897  1.4685 -1.5353 -0.9146
   34POPC  C218 4590   4.256   4.890   8.974 -0.2200 -0.3015 -0.5767
   34POPC  H18R 4591   4.268   4.950   8.881  0.7647  1.9758  0.9663
   34POPC  H18S 4592   4.319   4.950   9.044 -0.0977  0.9936 -1.7854
   34POPC  H18T 4593   4.149   4.888   9.005  0.1292  1.0372  0.8286
   34POPC   C33 4594   3.401   4.594  10.205  0.1333 -0.8535 -0.1902
   34POPC   H3X 4595   3.358   4.624  10.302 -0.7936  3.0748 -1.7141
   34POPC   H3Y 4596   3.351   4.498  10.179  2.0115 -2.0252  0.4776
   34POPC   C34 4597   3.359   4.695  10.094 -0.6017 -0.6435  0.2804
   34POPC   H4X 4598   3.385   4.797  10.131  0.1451 -1.4921  2.1943
   34POPC   H4Y 4599   3.249   4.695  10.084 -0.2845 -0.6725 -4.0397
   34POPC   C35 4600   3.421   4.658   9.958 -0.1664  0.5957  0.4980
   34POPC   H5X 4601   3.530   4.648   9.971 -0.2060  0.9760  1.1495
   34POPC   H5Y 4602   3.408   4.732   9.876  0.9391  1.2125  0.8648
   34POPC   C36 4603   3.363   4.534   9.899  0.3072  0.7459  0.5835
   34POPC   H6X 4604   3.254   4.549   9.882  0.4173  1.4534  0.4629
   34POPC   H6Y 4605   3.380   4.447   9.966 -2.1955 -0.1457  0.1199
   34POPC   C37 4606   3.424   4.489   9.762  0.3920 -0.6229 -0.0166
   34POPC   H7X 4607   3.529   4.458   9.778  0.0221 -0.2372  3.3678
   34POPC   H7Y 4608   3.440   4.584   9.706  2.0712 -0.7220  0.2817
   34POPC   C38 4609   3.334   4.404   9.680  0.0811 -0.3706  0.2311
   34POPC   H8X 4610   3.226   4.426   9.691  0.2180 -0.6239  2.1310
   34POPC   H8Y 4611   3.351   4.298   9.711  0.1056  0.0105  1.5237
   34POPC   C39 4612   3.352   4.418   9.524  0.1863  0.6219  0.6130
   34POPC   H9X 4613   3.453   4.378   9.498 -1.4239 -2.5198 -1.1768
   34POPC   H9Y 4614   3.355   4.528   9.509  1.4468  0.6823  1.2523
   34POPC  C310 4615   3.256   4.345   9.433 -0.1481 -0.5499  0.2338
   34POPC  H10X 4616   3.159   4.393   9.458 -1.5935 -2.4763 -1.5286
   34POPC  H10Y 4617   3.267   4.238   9.458 -1.9526 -0.4073  1.7391
   34POPC  C311 4618   3.298   4.368   9.281 -1.2911 -0.6202  0.2928
   34POPC  H11X 4619   3.237   4.302   9.215 -0.6312 -0.5490 -0.3908
   34POPC  H11Y 4620   3.403   4.335   9.270 -0.6507  1.7955 -0.9148
   34POPC  C312 4621   3.267   4.517   9.237  0.3075 -0.8998  0.1279
   34POPC  H12X 4622   3.357   4.553   9.182  1.9478 -1.1740  2.5048
   34POPC  H12Y 4623   3.251   4.584   9.325 -2.3367 -0.0548 -0.9490
   34POPC  C313 4624   3.146   4.529   9.137 -0.6734 -0.4639 -0.8271
   34POPC  H13X 4625   3.131   4.639   9.132 -2.1078 -0.5347  1.0581
   34POPC  H13Y 4626   3.073   4.467   9.194 -0.1546 -0.1394  0.1905
   34POPC  C314 4627   3.181   4.470   9.000  0.8246 -0.4148 -0.2466
   34POPC  H14X 4628   3.184   4.359   9.009 -0.7852 -0.3893  0.8315
   34POPC  H14Y 4629   3.284   4.494   8.964  0.5937  2.0376  0.5913
   34POPC  C315 4630   3.080   4.504   8.899 -0.2204 -0.1451  0.0432
   34POPC  H15X 4631   3.070   4.612   8.877  0.2474  0.0321  0.7041
   34POPC  H15Y 4632   2.981   4.464   8.932 -1.0285  0.1021 -1.9839
   34POPC  C316 4633   3.105   4.432   8.763  1.0695  0.0993 -0.7296
   34POPC  H16X 4634   3.010   4.432   8.706  1.3709 -0.5404 -1.2495
   34POPC  H16Y 4635   3.137   4.328   8.787  1.9108  0.2640 -1.0979
   34POPC  H16Z 4636   3.179   4.497   8.711  0.5383  2.0901  0.9953
   35POPC     N 4637   4.172   1.067  10.853  0.3828  0.1222  0.7479
   35POPC   C12 4638   4.092   0.987  10.961  0.0697 -0.4166  0.1611
   35POPC  H12A 4639   4.121   0.884  10.948 -0.3959 -0.4435 -0.7035
   35POPC  H12B 4640   3.986   0.993  10.939  0.0520 -0.1449  0.3132
   35POPC   C13 4641   4.186   1.210  10.887 -0.3323  0.1568 -0.6127
   35POPC  H13A 4642   4.244   1.260  10.811 -0.2476 -0.1950 -0.7834
   35POPC  H13B 4643   4.087   1.253  10.884 -0.3180  0.2127 -0.3124
   35POPC  H13C 4644   4.231   1.235  10.982 -0.5716  3.0236 -1.2089
   35POPC   C14 4645   4.317   1.022  10.849  0.4931  0.2327  0.2769
   35POPC  H14A 4646   4.363   1.079  10.769 -0.2464 -0.5534 -0.7162
   35POPC  H14B 4647   4.367   1.038  10.944 -0.2163 -2.6661  1.1851
   35POPC  H14C 4648   4.319   0.918  10.820 -0.9136  0.3948 -0.4375
   35POPC   C15 4649   4.107   1.046  10.723 -0.5387  0.3403  0.2482
   35POPC  H15A 4650   4.114   0.942  10.694 -2.2449  0.7353 -1.6792
   35POPC  H15B 4651   4.159   1.098  10.645 -0.5692 -1.0954 -0.7528
   35POPC  H15C 4652   4.006   1.084  10.711 -0.6410 -0.1890 -0.5930
   35POPC   C11 4653   4.101   1.037  11.109 -0.2062 -0.3026  0.0310
   35POPC  H11A 4654   4.207   1.052  11.141 -0.5783 -1.6475  1.9682
   35POPC  H11B 4655   4.063   0.968  11.187 -1.1618  0.3837  0.1797
   35POPC     P 4656   3.902   1.197  11.197  0.0478 -0.4836  0.1469
   35POPC   O13 4657   3.905   1.340  11.215 -0.0910  0.0946  0.4315
   35POPC   O14 4658   3.877   1.117  11.323  0.5107 -0.0151 -0.1680
   35POPC   O12 4659   4.035   1.161  11.121 -0.0468 -0.0732 -0.2276
   35POPC   O11 4660   3.808   1.155  11.081  0.0863 -0.0923  0.0454
   35POPC    C1 4661   3.808   1.202  10.949  0.4086  0.0867 -0.5142
   35POPC    HA 4662   3.913   1.206  10.911  0.2462  0.0634 -0.9701
   35POPC    HB 4663   3.758   1.301  10.946  1.8650  0.8545 -0.3162
   35POPC    C2 4664   3.722   1.100  10.861 -0.7771  0.0546  0.1153
   35POPC    HS 4665   3.620   1.102  10.906 -1.1471  0.8925 -0.7523
   35POPC   O21 4666   3.786   0.967  10.866 -0.7497 -0.0057 -0.3235
   35POPC   C21 4667   3.707   0.869  10.812 -0.7295 -0.0923 -0.1393
   35POPC   O22 4668   3.590   0.879  10.801  0.4409  0.4167  0.0889
   35POPC   C22 4669   3.793   0.749  10.780  0.1166  0.6349  0.0742
   35POPC   H2R 4670   3.810   0.704  10.880  2.4473  0.0342 -0.5484
   35POPC   H2S 4671   3.887   0.794  10.742 -1.4397  3.3127 -0.6712
   35POPC    C3 4672   3.700   1.148  10.714  0.8109 -0.0660 -0.6586
   35POPC    HX 4673   3.651   1.248  10.709 -0.2115 -0.4539  1.3409
   35POPC    HY 4674   3.632   1.072  10.672  1.1947 -1.1322  0.6240
   35POPC   O31 4675   3.816   1.152  10.637  0.4302 -0.4145  0.2610
   35POPC   C31 4676   3.817   1.222  10.517  0.0251  0.1673 -0.0503
   35POPC   O32 4677   3.725   1.301  10.490 -0.3099  0.1645 -0.2334
   35POPC   C32 4678   3.932   1.184  10.432  0.2688 -0.3659  0.6695
   35POPC   H2X 4679   4.024   1.184  10.495  2.4273  1.2981 -2.3791
   35POPC   H2Y 4680   3.947   1.267  10.361 -1.1315  0.9779  1.9022
   35POPC   C23 4681   3.715   0.647  10.693  0.2256  0.2820 -0.0600
   35POPC   H3R 4682   3.622   0.621  10.748  0.8360  0.0799  0.8927
   35POPC   H3S 4683   3.770   0.552  10.675 -0.3213 -0.3589  1.6027
   35POPC   C24 4684   3.680   0.687  10.547  0.2102 -0.1712  0.5576
   35POPC   H4R 4685   3.779   0.718  10.506 -0.8318  0.9673 -1.1773
   35POPC   H4S 4686   3.618   0.779  10.557  0.7080  0.1109  1.1018
   35POPC   C25 4687   3.610   0.584  10.467 -0.5487 -0.0787 -0.6614
   35POPC   H5R 4688   3.526   0.550  10.530 -0.6867  2.6196  0.6847
   35POPC   H5S 4689   3.672   0.492  10.452 -2.4681 -1.5013  0.0344
   35POPC   C26 4690   3.564   0.640  10.332  0.8857 -0.5381  0.1002
   35POPC   H6R 4691   3.654   0.678  10.280 -0.7422  2.0501 -0.9256
   35POPC   H6S 4692   3.484   0.715  10.345 -0.9698 -2.4500 -0.0356
   35POPC   C27 4693   3.493   0.548  10.230  0.1544  0.1037  0.1790
   35POPC   H7R 4694   3.408   0.501  10.284 -1.2600  2.6639  0.2658
   35POPC   H7S 4695   3.573   0.472  10.216  1.0465  0.9001  0.8519
   35POPC   C28 4696   3.456   0.610  10.096 -0.1496  0.5387 -0.8268
   35POPC   H8R 4697   3.538   0.675  10.058 -1.4618  3.4236  1.1717
   35POPC   H8S 4698   3.365   0.666  10.123  0.0734  0.4743  0.0560
   35POPC   C29 4699   3.428   0.500   9.998  0.7556  0.1099  0.9770
   35POPC   H91 4700   3.416   0.399  10.041  0.1876 -0.6042 -0.7872
   35POPC  C210 4701   3.463   0.508   9.867 -0.3818  0.6743  0.1037
   35POPC  H101 4702   3.449   0.418   9.807 -0.6945  0.6977  0.1419
   35POPC  C211 4703   3.527   0.626   9.789  0.5706  0.4810 -0.7004
   35POPC  H11R 4704   3.591   0.682   9.861 -0.0188 -0.1188  0.3033
   35POPC  H11S 4705   3.448   0.698   9.760  1.4710  1.3705 -0.9681
   35POPC  C212 4706   3.617   0.578   9.668 -0.2376 -0.9319 -0.7396
   35POPC  H12R 4707   3.693   0.504   9.699  0.9402  0.3840 -0.4232
   35POPC  H12S 4708   3.679   0.664   9.635  1.4324 -1.8005  0.0782
   35POPC  C213 4709   3.542   0.515   9.544  0.4581 -0.2093 -0.8465
   35POPC  H13R 4710   3.461   0.582   9.507  0.3419  0.3817  0.4311
   35POPC  H13S 4711   3.506   0.415   9.577  0.3734  0.0107 -0.2572
   35POPC  C214 4712   3.633   0.483   9.420 -0.0445 -0.0315  0.0596
   35POPC  H14R 4713   3.713   0.412   9.451  0.1916  1.0439  1.9956
   35POPC  H14S 4714   3.689   0.577   9.397 -1.6962  1.3168  1.3754
   35POPC  C215 4715   3.560   0.409   9.310 -0.0422  0.2586  0.4776
   35POPC  H15R 4716   3.496   0.479   9.252 -2.8663 -1.7015  1.1408
   35POPC  H15S 4717   3.484   0.344   9.358  0.2315  1.3336  2.3689
   35POPC  C216 4718   3.653   0.343   9.201  0.2200  0.2283  0.6609
   35POPC  H16R 4719   3.726   0.275   9.250 -1.8462 -0.9170  2.2342
   35POPC  H16S 4720   3.702   0.430   9.152 -0.6935  0.7589  0.6845
   35POPC  C217 4721   3.565   0.260   9.104 -0.6559  0.6930  0.2702
   35POPC  H17R 4722   3.490   0.331   9.065 -0.3752  0.9996  0.2842
   35POPC  H17S 4723   3.532   0.173   9.165  0.1915 -1.0145 -1.6324
   35POPC  C218 4724   3.655   0.207   8.992 -0.8089 -0.7153 -0.1258
   35POPC  H18R 4725   3.598   0.144   8.920 -2.8930 -0.8306  1.5685
   35POPC  H18S 4726   3.739   0.140   9.022  0.2184  0.1663 -1.0176
   35POPC  H18T 4727   3.698   0.296   8.941  2.1298 -1.3488  1.1615
   35POPC   C33 4728   3.921   1.052  10.358 -0.4423 -0.2640  0.0893
   35POPC   H3X 4729   3.893   0.972  10.429 -1.4464 -0.1664 -0.1964
   35POPC   H3Y 4730   4.024   1.034  10.319  0.1972  0.9152  1.2053
   35POPC   C34 4731   3.825   1.054  10.241  0.2406  0.4642  0.1581
   35POPC   H4X 4732   3.840   1.155  10.197  1.1866 -0.2978 -1.3260
   35POPC   H4Y 4733   3.718   1.045  10.269  0.0354  0.8451 -0.4800
   35POPC   C35 4734   3.848   0.943  10.139  0.0912 -0.3452 -0.4419
   35POPC   H5X 4735   3.751   0.911  10.095 -1.2195 -0.5953  2.4989
   35POPC   H5Y 4736   3.896   0.853  10.183  1.7140 -0.5626 -2.6103
   35POPC   C36 4737   3.930   0.991  10.017  0.0152 -0.1745  0.2343
   35POPC   H6X 4738   4.018   1.053  10.044  0.8069 -1.6815  1.1515
   35POPC   H6Y 4739   3.857   1.064   9.976  0.3760 -1.3215 -2.5120
   35POPC   C37 4740   3.968   0.886   9.915 -0.3574 -0.5036  0.1664
   35POPC   H7X 4741   3.904   0.797   9.934 -0.8814 -0.2337 -0.3270
   35POPC   H7Y 4742   4.075   0.869   9.940  0.1288  0.3053 -1.3158
   35POPC   C38 4743   3.955   0.949   9.773 -0.2338  0.4595 -0.2190
   35POPC   H8X 4744   4.025   1.035   9.768 -0.5657  0.6835 -1.1068
   35POPC   H8Y 4745   3.853   0.993   9.775  0.1295  1.4126 -1.7026
   35POPC   C39 4746   3.972   0.856   9.658 -0.8202 -0.2515 -0.4033
   35POPC   H9X 4747   3.910   0.769   9.688  2.3655 -1.9595  1.5295
   35POPC   H9Y 4748   4.077   0.819   9.657 -0.6277  0.3068 -0.6341
   35POPC  C310 4749   3.945   0.915   9.519 -0.5550 -0.4290  0.3564
   35POPC  H10X 4750   3.996   1.014   9.510  0.0058 -0.5083  2.3593
   35POPC  H10Y 4751   3.839   0.939   9.499 -0.4613 -0.9303 -0.7924
   35POPC  C311 4752   3.988   0.818   9.402 -0.4379  0.6023  0.9278
   35POPC  H11X 4753   3.923   0.732   9.428  1.6682 -1.4672 -0.5154
   35POPC  H11Y 4754   4.090   0.777   9.413 -1.2078 -2.3439 -1.9776
   35POPC  C312 4755   3.948   0.860   9.262 -0.0199 -0.0595  0.0002
   35POPC  H12X 4756   3.844   0.899   9.268  1.2897  3.4184  1.3831
   35POPC  H12Y 4757   3.943   0.777   9.189 -0.0212  0.7284 -0.9064
   35POPC  C313 4758   4.049   0.962   9.207  0.2666  0.1516  0.5042
   35POPC  H13X 4759   4.145   0.907   9.197  0.9236  1.3642 -0.0591
   35POPC  H13Y 4760   4.057   1.032   9.293  0.1485  0.0099  0.6296
   35POPC  C314 4761   4.004   1.038   9.084 -0.4463 -0.5084 -0.1140
   35POPC  H14X 4762   4.075   1.118   9.052  0.1884 -0.3486  1.6089
   35POPC  H14Y 4763   3.905   1.083   9.103 -1.1880  0.0443 -4.8368
   35POPC  C315 4764   3.992   0.949   8.965  0.1078 -0.0262  0.6558
   35POPC  H15X 4765   3.910   0.876   8.982  0.2086 -0.3614 -0.2760
   35POPC  H15Y 4766   4.085   0.889   8.960 -0.3864 -0.6197 -2.2671
   35POPC  C316 4767   3.969   1.027   8.831 -0.5308 -0.6555  0.7365
   35POPC  H16X 4768   3.865   1.066   8.823  0.5548  2.4255  1.0811
   35POPC  H16Y 4769   3.995   0.970   8.740 -1.2441  1.9868 -1.1885
   35POPC  H16Z 4770   4.032   1.119   8.826  0.5209 -1.5100 -4.6958
   36POPC     N 4771   3.298   6.199  11.328  0.0085  0.4313 -0.2793
   36POPC   C12 4772   3.180   6.205  11.244  0.0397 -0.3972  0.2585
   36POPC  H12A 4773   3.097   6.252  11.294 -1.1033 -1.8493 -0.2360
   36POPC  H12B 4774   3.140   6.107  11.220 -2.1507  0.2246  1.2352
   36POPC   C13 4775   3.389   6.321  11.320  0.1747 -0.5343 -0.3562
   36POPC  H13A 4776   3.467   6.320  11.395  1.3939  1.9788 -1.5255
   36POPC  H13B 4777   3.432   6.328  11.221  1.3521 -0.2288  0.1763
   36POPC  H13C 4778   3.339   6.416  11.331 -2.9456 -2.4206  2.6944
   36POPC   C14 4779   3.243   6.191  11.476 -0.3556 -0.0136  0.6557
   36POPC  H14A 4780   3.231   6.288  11.521  4.6758 -0.1630  2.6260
   36POPC  H14B 4781   3.149   6.138  11.466 -0.9948  1.0925  0.6697
   36POPC  H14C 4782   3.303   6.129  11.541  4.4857  1.3164 -2.2866
   36POPC   C15 4783   3.390   6.080  11.300 -0.1603  0.4124 -0.2117
   36POPC  H15A 4784   3.349   5.980  11.299  1.7400 -0.3819 -0.4294
   36POPC  H15B 4785   3.479   6.077  11.361 -0.8939  0.7110  0.8896
   36POPC  H15C 4786   3.427   6.096  11.200  1.7823  0.5382  0.5172
   36POPC   C11 4787   3.202   6.254  11.097 -1.1309 -0.1433  0.0348
   36POPC  H11A 4788   3.243   6.356  11.114 -0.0722 -0.6654  0.6885
   36POPC  H11B 4789   3.111   6.257  11.033  0.2046 -2.2442 -2.0421
   36POPC     P 4790   3.417   6.216  10.961  0.5293 -0.3942  0.0767
   36POPC   O13 4791   3.489   6.095  10.928 -0.1890  0.1124  0.3488
   36POPC   O14 4792   3.486   6.331  11.036  0.2419 -0.3316 -0.5640
   36POPC   O12 4793   3.284   6.163  11.026 -0.6817 -0.4139  0.4790
   36POPC   O11 4794   3.358   6.285  10.830 -0.5021  0.0511 -0.3158
   36POPC    C1 4795   3.264   6.221  10.745  0.1844 -0.3109 -0.7951
   36POPC    HA 4796   3.162   6.249  10.778  0.3742  1.3154 -1.5329
   36POPC    HB 4797   3.271   6.111  10.752  0.4423 -0.1936  0.9786
   36POPC    C2 4798   3.294   6.274  10.599  0.4930  0.0948 -0.8019
   36POPC    HS 4799   3.210   6.241  10.533 -1.0025 -0.1356  1.1539
   36POPC   O21 4800   3.420   6.226  10.544 -0.2142  0.0729  0.1103
   36POPC   C21 4801   3.419   6.095  10.510 -0.3579  0.3394  0.1489
   36POPC   O22 4802   3.324   6.020  10.516  0.4345 -0.2221 -0.3037
   36POPC   C22 4803   3.552   6.059  10.461  0.1666  0.9012 -0.4026
   36POPC   H2R 4804   3.549   5.952  10.431  0.0907  0.4374  1.2027
   36POPC   H2S 4805   3.614   6.053  10.553 -0.7579  0.9284  0.2336
   36POPC    C3 4806   3.302   6.426  10.601  0.6940  0.5842  0.5127
   36POPC    HX 4807   3.401   6.459  10.639  1.7951 -1.3447 -0.5970
   36POPC    HY 4808   3.227   6.454  10.678  1.9646  0.7842  1.6979
   36POPC   O31 4809   3.265   6.488  10.474 -0.8258 -0.4299 -0.6874
   36POPC   C31 4810   3.131   6.489  10.456  0.3295  0.3299 -0.7486
   36POPC   O32 4811   3.053   6.452  10.541  0.0294 -0.5177 -0.3501
   36POPC   C32 4812   3.093   6.560  10.325  0.2064  0.1271  0.0101
   36POPC   H2X 4813   3.144   6.658  10.320  0.5366 -0.0127  0.6115
   36POPC   H2Y 4814   2.985   6.581  10.338 -0.0719  0.1790 -2.1873
   36POPC   C23 4815   3.634   6.155  10.364 -0.2088 -0.6934  0.1728
   36POPC   H3R 4816   3.738   6.126  10.338  0.9103  1.0842  2.4488
   36POPC   H3S 4817   3.646   6.254  10.413  0.9271  0.0448 -1.5859
   36POPC   C24 4818   3.552   6.169  10.224  0.6414 -0.7814  0.2683
   36POPC   H4R 4819   3.454   6.211  10.254  0.9893 -0.5385  1.0828
   36POPC   H4S 4820   3.547   6.071  10.171 -3.3127 -0.9005  0.6745
   36POPC   C25 4821   3.633   6.274  10.139  0.5050 -0.1101  0.1187
   36POPC   H5R 4822   3.724   6.216  10.113  0.5311 -0.3156  0.6670
   36POPC   H5S 4823   3.657   6.357  10.209 -0.8932  0.3386  0.0881
   36POPC   C26 4824   3.570   6.321  10.012 -0.6380  0.2393  0.6627
   36POPC   H6R 4825   3.640   6.387   9.957  0.4678 -0.8672  0.6951
   36POPC   H6S 4826   3.478   6.376  10.039 -1.6492 -1.6522  1.1647
   36POPC   C27 4827   3.529   6.204   9.930 -0.1086  0.6472 -0.0472
   36POPC   H7R 4828   3.443   6.167   9.990 -0.5015 -1.0034 -1.5550
   36POPC   H7S 4829   3.614   6.133   9.930 -1.7753 -1.3838  1.2039
   36POPC   C28 4830   3.484   6.233   9.781 -0.0689 -0.0187  0.1136
   36POPC   H8R 4831   3.569   6.283   9.729 -0.1023  0.6094  0.6657
   36POPC   H8S 4832   3.402   6.307   9.789  1.1076  1.3054  0.1170
   36POPC   C29 4833   3.448   6.110   9.712  0.4569  0.0320  0.9638
   36POPC   H91 4834   3.378   6.046   9.769  1.0348 -1.9113 -0.4655
   36POPC  C210 4835   3.486   6.075   9.589 -0.2924  0.2969  0.2458
   36POPC  H101 4836   3.448   5.985   9.537 -3.2774  1.7630 -0.2372
   36POPC  C211 4837   3.570   6.159   9.497 -0.3564  0.0309  0.1921
   36POPC  H11R 4838   3.677   6.131   9.505 -0.7129 -1.3870  0.1430
   36POPC  H11S 4839   3.552   6.267   9.518 -1.1705 -0.0380 -0.1434
   36POPC  C212 4840   3.541   6.152   9.346  0.0335 -0.0253  0.0795
   36POPC  H12R 4841   3.553   6.051   9.299 -1.3410 -1.2465  2.2750
   36POPC  H12S 4842   3.601   6.233   9.300  1.7242 -1.6402 -0.6654
   36POPC  C213 4843   3.393   6.194   9.303 -0.4337  0.0658 -0.1672
   36POPC  H13R 4844   3.362   6.289   9.352 -3.5916 -0.7344 -0.4831
   36POPC  H13S 4845   3.314   6.127   9.345  0.2289 -0.7192 -0.1472
   36POPC  C214 4846   3.373   6.215   9.154 -0.1968 -0.2701  0.1650
   36POPC  H14R 4847   3.394   6.122   9.097  0.2145 -0.0090 -0.1142
   36POPC  H14S 4848   3.449   6.290   9.123 -0.1104 -0.1835  0.5820
   36POPC  C215 4849   3.241   6.266   9.110 -0.0866  0.2817  0.7624
   36POPC  H15R 4850   3.237   6.376   9.123  0.4719  0.2110  1.6338
   36POPC  H15S 4851   3.160   6.217   9.168 -1.4992  0.3591 -1.1093
   36POPC  C216 4852   3.218   6.237   8.953  0.3359 -0.0460 -0.3197
   36POPC  H16R 4853   3.119   6.278   8.923  1.4531  0.2578 -3.7385
   36POPC  H16S 4854   3.203   6.127   8.947 -0.5411  0.0079  0.6738
   36POPC  C217 4855   3.328   6.297   8.872  0.0040  0.0584 -0.3611
   36POPC  H17R 4856   3.430   6.263   8.897 -0.0762 -1.0089 -1.4562
   36POPC  H17S 4857   3.324   6.407   8.891 -1.7481 -0.0688  0.1516
   36POPC  C218 4858   3.308   6.274   8.719 -0.0786 -0.0398  0.1552
   36POPC  H18R 4859   3.202   6.280   8.688  0.1461 -0.8604 -0.8018
   36POPC  H18S 4860   3.327   6.168   8.692  1.1642 -0.1704  1.4340
   36POPC  H18T 4861   3.369   6.340   8.654 -0.2104 -0.1177 -0.0441
   36POPC   C33 4862   3.123   6.491  10.184 -0.0820 -0.5731  0.0233
   36POPC   H3X 4863   3.052   6.413  10.152 -0.7060  0.7337 -1.9096
   36POPC   H3Y 4864   3.226   6.451  10.194  0.2349  0.3733  0.6062
   36POPC   C34 4865   3.111   6.590  10.063  0.2022 -0.7078 -0.8284
   36POPC   H4X 4866   3.179   6.676  10.079  0.0052 -0.0952 -3.1208
   36POPC   H4Y 4867   3.011   6.636  10.080  0.1446 -0.5390 -1.6446
   36POPC   C35 4868   3.136   6.514   9.938  0.5846  0.0673  0.2501
   36POPC   H5X 4869   3.040   6.462   9.923  0.7068 -0.1703  0.2960
   36POPC   H5Y 4870   3.223   6.448   9.958 -0.0105 -1.4252 -1.9327
   36POPC   C36 4871   3.152   6.588   9.803  0.4384  0.9187  0.0226
   36POPC   H6X 4872   3.255   6.628   9.794  0.5676  0.2662 -1.5918
   36POPC   H6Y 4873   3.096   6.684   9.798  0.8643  1.2352  1.3177
   36POPC   C37 4874   3.112   6.511   9.677  0.5052  0.1543  0.0115
   36POPC   H7X 4875   3.002   6.504   9.666  0.6723 -1.9082 -0.5831
   36POPC   H7Y 4876   3.136   6.403   9.690  2.5527  0.7324  1.2605
   36POPC   C38 4877   3.178   6.567   9.548 -0.1749  0.2188  0.7972
   36POPC   H8X 4878   3.288   6.553   9.556 -0.2537 -1.3763 -0.5082
   36POPC   H8Y 4879   3.153   6.675   9.557 -0.1151  0.5984 -3.0306
   36POPC   C39 4880   3.129   6.498   9.421  0.4279 -0.1666  0.5917
   36POPC   H9X 4881   3.136   6.387   9.418 -1.7160 -0.3147 -0.3667
   36POPC   H9Y 4882   3.197   6.524   9.337 -0.9053  0.9930 -0.1618
   36POPC  C310 4883   2.999   6.561   9.359  0.0330  0.7874  0.3477
   36POPC  H10X 4884   3.020   6.667   9.385  2.2250  0.4772 -0.1015
   36POPC  H10Y 4885   2.915   6.516   9.416  1.7711 -2.9046  0.1354
   36POPC  C311 4886   2.964   6.552   9.209  0.5076 -0.3407  0.4587
   36POPC  H11X 4887   3.051   6.563   9.140 -1.0039  0.2484 -1.4215
   36POPC  H11Y 4888   2.900   6.642   9.200  1.2500  0.0673 -0.9355
   36POPC  C312 4889   2.879   6.427   9.185 -0.4228 -0.8055  0.1426
   36POPC  H12X 4890   2.952   6.344   9.183  0.9805  0.3824  1.5771
   36POPC  H12Y 4891   2.838   6.451   9.084 -2.0152  2.2994  1.4486
   36POPC  C313 4892   2.759   6.388   9.274  0.5689  0.0070 -0.0371
   36POPC  H13X 4893   2.695   6.478   9.288  0.8411  0.3811 -1.1443
   36POPC  H13Y 4894   2.791   6.355   9.375 -2.1017  0.8566  1.1378
   36POPC  C314 4895   2.667   6.285   9.205  0.0862  0.2928  0.4582
   36POPC  H14X 4896   2.635   6.334   9.111  3.8560  1.2511 -0.4045
   36POPC  H14Y 4897   2.581   6.266   9.273 -1.2769  0.4662 -1.1986
   36POPC  C315 4898   2.732   6.144   9.185  0.3622  0.0963  0.7958
   36POPC  H15X 4899   2.815   6.140   9.110 -1.5665  0.0561 -1.3976
   36POPC  H15Y 4900   2.646   6.086   9.145  0.8514 -0.0876 -0.0310
   36POPC  C316 4901   2.778   6.072   9.313 -0.0756 -0.2180  0.5983
   36POPC  H16X 4902   2.698   6.087   9.388 -0.4039  0.1771  0.1734
   36POPC  H16Y 4903   2.868   6.124   9.352  0.7569  1.1457 -2.8821
   36POPC  H16Z 4904   2.804   5.967   9.288 -1.5341  0.3738 -3.8370
   37POPC     N 4905   2.178   2.006   6.417 -0.2430 -0.1824  0.5023
   37POPC   C12 4906   2.043   2.052   6.461 -0.9490  0.1934  0.4888
   37POPC  H12A 4907   2.050   2.099   6.558  2.3901  1.1198 -0.1499
   37POPC  H12B 4908   1.972   1.971   6.469  0.8039 -1.2344  1.9938
   37POPC   C13 4909   2.171   1.972   6.269 -0.3044  0.2977 -0.5026
   37POPC  H13A 4910   2.124   2.052   6.214 -0.7472  1.0263  0.8996
   37POPC  H13B 4911   2.265   1.946   6.224 -0.4612 -1.6218  0.2301
   37POPC  H13C 4912   2.102   1.891   6.253 -0.9257  1.1560 -2.3279
   37POPC   C14 4913   2.280   2.117   6.441 -0.1811 -1.4107  0.2722
   37POPC  H14A 4914   2.262   2.206   6.383  2.7675 -0.2156  1.1273
   37POPC  H14B 4915   2.288   2.143   6.545 -1.8484  0.9840 -0.1685
   37POPC  H14C 4916   2.374   2.076   6.406  0.3450  1.7207 -2.1639
   37POPC   C15 4917   2.216   1.888   6.489  0.1088 -0.3327 -0.4921
   37POPC  H15A 4918   2.321   1.864   6.485  0.3258  0.2076  1.6166
   37POPC  H15B 4919   2.158   1.804   6.455 -1.7476  1.4869 -1.9644
   37POPC  H15C 4920   2.186   1.896   6.592 -2.0018  0.4681 -1.1347
   37POPC   C11 4921   1.964   2.164   6.382  0.1781  0.2617  0.3641
   37POPC  H11A 4922   1.870   2.167   6.441  0.9917  1.7585  1.6291
   37POPC  H11B 4923   1.941   2.122   6.282  2.5045 -0.0183 -0.0784
   37POPC     P 4924   2.017   2.391   6.498 -0.5858  0.6218  0.4996
   37POPC   O13 4925   1.882   2.440   6.492 -0.1937 -0.5950  0.6053
   37POPC   O14 4926   2.126   2.491   6.508  0.0695  0.2361 -0.3118
   37POPC   O12 4927   2.033   2.288   6.374  0.1851  0.4402  0.2230
   37POPC   O11 4928   2.042   2.297   6.625  0.3104 -0.7229 -0.2766
   37POPC    C1 4929   1.945   2.285   6.727  0.6249 -0.2533 -0.0823
   37POPC    HA 4930   1.951   2.184   6.772  1.8052  0.5506  1.6215
   37POPC    HB 4931   1.839   2.294   6.695  1.3396  2.2532 -1.8811
   37POPC    C2 4932   1.982   2.385   6.839  0.1069  0.8035  0.2772
   37POPC    HS 4933   2.015   2.474   6.781 -2.5454  0.9543 -1.0786
   37POPC   O21 4934   2.068   2.323   6.929  0.4529  0.6993 -0.1765
   37POPC   C21 4935   2.169   2.403   6.971 -0.7036  0.5400  0.2182
   37POPC   O22 4936   2.207   2.506   6.922  0.0257 -0.0889 -0.8851
   37POPC   C22 4937   2.226   2.355   7.105 -0.0251  0.4147 -0.1047
   37POPC   H2R 4938   2.267   2.252   7.110  0.3200  0.5104 -0.8016
   37POPC   H2S 4939   2.139   2.347   7.173  0.6212 -1.6591  0.4967
   37POPC    C3 4940   1.853   2.427   6.909 -0.1117 -0.0130 -0.7162
   37POPC    HX 4941   1.822   2.324   6.939 -0.4758  0.2857 -0.0468
   37POPC    HY 4942   1.768   2.456   6.844 -1.2937 -0.3596  0.6559
   37POPC   O31 4943   1.885   2.509   7.018  0.3547  0.2131  0.0721
   37POPC   C31 4944   1.889   2.637   6.990 -0.6488  0.6482  0.0439
   37POPC   O32 4945   1.872   2.686   6.882  0.6665 -0.6522  0.4707
   37POPC   C32 4946   1.930   2.706   7.121  0.2200 -0.0603  0.1040
   37POPC   H2X 4947   2.036   2.678   7.133 -0.5234 -2.8831  0.5218
   37POPC   H2Y 4948   1.880   2.650   7.203  2.5318  1.5161  2.6710
   37POPC   C23 4949   2.322   2.450   7.168  0.8403 -0.4219 -0.4313
   37POPC   H3R 4950   2.334   2.438   7.278 -0.7644  1.2893 -0.0288
   37POPC   H3S 4951   2.280   2.552   7.160  2.2683  0.5251  3.1740
   37POPC   C24 4952   2.463   2.449   7.114 -0.5015  0.5129  0.3371
   37POPC   H4R 4953   2.460   2.490   7.011  0.4286 -0.4353 -0.0814
   37POPC   H4S 4954   2.499   2.345   7.100 -1.0005  0.2041  1.3539
   37POPC   C25 4955   2.554   2.534   7.198  0.4015 -0.0674 -0.7039
   37POPC   H5R 4956   2.562   2.486   7.297 -0.4539  0.1251 -0.5445
   37POPC   H5S 4957   2.505   2.631   7.221 -3.1081 -1.8298 -0.4952
   37POPC   C26 4958   2.698   2.571   7.147 -0.4980 -0.1314 -0.1566
   37POPC   H6R 4959   2.686   2.636   7.058 -1.6022 -0.8851 -0.5571
   37POPC   H6S 4960   2.745   2.475   7.118  1.4792  1.0308 -0.9393
   37POPC   C27 4961   2.790   2.641   7.246 -0.0240  0.1374  0.2191
   37POPC   H7R 4962   2.883   2.642   7.185  0.3082 -2.2318  0.6355
   37POPC   H7S 4963   2.812   2.590   7.343  1.4937  1.6685  0.7102
   37POPC   C28 4964   2.749   2.785   7.263  0.4138  0.2382  0.7201
   37POPC   H8R 4965   2.653   2.782   7.319  0.0341 -1.0062  0.0313
   37POPC   H8S 4966   2.722   2.819   7.161 -2.2148  0.3936  1.4273
   37POPC   C29 4967   2.856   2.865   7.331 -1.6410 -0.2906  0.5117
   37POPC   H91 4968   2.912   2.926   7.258 -3.9433  0.8506 -0.3724
   37POPC  C210 4969   2.888   2.878   7.461 -0.4296 -0.1368 -0.5746
   37POPC  H101 4970   2.970   2.945   7.491 -0.2695 -0.0248 -1.2445
   37POPC  C211 4971   2.820   2.812   7.578  0.5897 -0.1341  0.2007
   37POPC  H11R 4972   2.814   2.702   7.566  0.3496 -0.0684 -0.2860
   37POPC  H11S 4973   2.714   2.842   7.598  0.4608 -0.4086 -0.0607
   37POPC  C212 4974   2.889   2.841   7.711 -0.1305  0.5630  0.6151
   37POPC  H12R 4975   2.893   2.950   7.731  3.7595  0.7036 -0.5293
   37POPC  H12S 4976   2.991   2.798   7.709 -0.7951 -1.0096 -1.4754
   37POPC  C213 4977   2.830   2.771   7.833  0.3170 -0.3378 -0.5355
   37POPC  H13R 4978   2.812   2.667   7.798  1.1196 -0.6763  0.0421
   37POPC  H13S 4979   2.729   2.813   7.853  0.0183 -1.0431 -0.5135
   37POPC  C214 4980   2.913   2.784   7.958  0.6177 -0.8781  0.4227
   37POPC  H14R 4981   2.920   2.894   7.971 -1.6554 -0.4865 -1.4145
   37POPC  H14S 4982   3.018   2.748   7.961  0.9010 -0.0743  0.1154
   37POPC  C215 4983   2.837   2.724   8.075 -0.6096 -0.5068  0.3489
   37POPC  H15R 4984   2.830   2.613   8.070 -1.7041 -0.4182 -0.1225
   37POPC  H15S 4985   2.731   2.753   8.085 -0.8671 -1.7448  1.3245
   37POPC  C216 4986   2.903   2.759   8.212 -1.0039 -0.5233 -0.4685
   37POPC  H16R 4987   2.911   2.869   8.218 -1.9837 -0.5057  0.8018
   37POPC  H16S 4988   3.009   2.724   8.212 -0.2713  1.5555  1.5328
   37POPC  C217 4989   2.818   2.717   8.329  0.0581  0.0256  0.1370
   37POPC  H17R 4990   2.882   2.667   8.406  1.9162  0.9882 -0.7503
   37POPC  H17S 4991   2.738   2.645   8.301  0.6743 -0.6132  0.0015
   37POPC  C218 4992   2.754   2.840   8.404  0.4958 -0.1352  0.1564
   37POPC  H18R 4993   2.695   2.809   8.493 -1.7980  1.4825 -0.7553
   37POPC  H18S 4994   2.679   2.882   8.333 -0.5760  0.4402  1.5848
   37POPC  H18T 4995   2.812   2.929   8.435  0.2008  0.6509 -1.5205
   37POPC   C33 4996   1.929   2.861   7.121 -0.0893  0.1364  0.4591
   37POPC   H3X 4997   1.950   2.894   7.017  0.4407  1.0047  0.8278
   37POPC   H3Y 4998   1.998   2.909   7.194 -0.6890  4.3900 -1.6218
   37POPC   C34 4999   1.793   2.910   7.161  0.2925  0.1527 -0.7723
   37POPC   H4X 5000   1.773   2.880   7.266  0.3002 -1.1719 -1.1343
   37POPC   H4Y 5001   1.715   2.863   7.096 -0.1107  0.1097 -0.2637
   37POPC   C35 5002   1.767   3.059   7.136 -0.0542 -0.7834 -0.1265
   37POPC   H5X 5003   1.764   3.071   7.026  1.2066 -0.7097 -0.1651
   37POPC   H5Y 5004   1.851   3.121   7.175  0.1930 -0.2806 -1.4102
   37POPC   C36 5005   1.631   3.110   7.171  0.0111 -0.6214  0.0760
   37POPC   H6X 5006   1.563   3.052   7.105  0.0180 -0.6165  0.0657
   37POPC   H6Y 5007   1.611   3.218   7.154 -0.7845 -0.6362  0.8460
   37POPC   C37 5008   1.596   3.099   7.318  0.0596 -0.0953  0.0203
   37POPC   H7X 5009   1.648   3.174   7.381 -0.5747  0.0020  0.4313
   37POPC   H7Y 5010   1.627   2.999   7.354 -1.4476 -1.0990 -1.3760
   37POPC   C38 5011   1.447   3.115   7.355 -0.2852  0.4303 -0.2083
   37POPC   H8X 5012   1.381   3.042   7.303 -1.7775  1.3799  0.3316
   37POPC   H8Y 5013   1.411   3.215   7.322 -0.7379  0.7262  1.1591
   37POPC   C39 5014   1.419   3.087   7.511 -0.2896 -0.3945  0.3324
   37POPC   H9X 5015   1.475   3.153   7.581 -0.8199 -0.8275  1.1690
   37POPC   H9Y 5016   1.472   2.989   7.519  0.1838 -0.1405  0.3102
   37POPC  C310 5017   1.276   3.078   7.551  0.9658 -0.1461  0.2217
   37POPC  H10X 5018   1.221   2.988   7.517 -1.1901  0.8104  1.0284
   37POPC  H10Y 5019   1.219   3.166   7.514 -1.3971 -1.9561 -0.5668
   37POPC  C311 5020   1.250   3.076   7.701  0.1951  0.4010 -0.2679
   37POPC  H11X 5021   1.141   3.079   7.722  0.2568  0.5811  0.0258
   37POPC  H11Y 5022   1.304   3.164   7.743  0.2469  1.0605 -1.6793
   37POPC  C312 5023   1.323   2.960   7.782 -0.3232  0.3408  0.1986
   37POPC  H12X 5024   1.434   2.960   7.773 -0.2550  0.5454  0.9795
   37POPC  H12Y 5025   1.284   2.861   7.749 -1.1357  0.5715  0.4618
   37POPC  C313 5026   1.294   2.967   7.937 -0.3751  0.1269 -0.3799
   37POPC  H13X 5027   1.186   2.967   7.962 -0.1794 -3.2623  0.7372
   37POPC  H13Y 5028   1.338   3.062   7.975  0.6793 -0.4187 -0.2210
   37POPC  C314 5029   1.359   2.858   8.030 -0.5459 -0.2882  0.0084
   37POPC  H14X 5030   1.452   2.829   7.976 -1.6786 -0.2752 -2.0233
   37POPC  H14Y 5031   1.289   2.773   8.038  2.0676 -2.5146  0.1307
   37POPC  C315 5032   1.396   2.901   8.172  0.1874  0.3777 -0.6047
   37POPC  H15X 5033   1.309   2.939   8.230  0.7735 -0.9765  1.2204
   37POPC  H15Y 5034   1.476   2.978   8.167  1.3325 -0.7487  0.2407
   37POPC  C316 5035   1.470   2.780   8.246  0.2952  0.4664  1.3831
   37POPC  H16X 5036   1.408   2.694   8.280 -0.6302  0.1850 -0.9298
   37POPC  H16Y 5037   1.520   2.823   8.336 -0.8727 -1.6418  3.0908
   37POPC  H16Z 5038   1.541   2.740   8.170  1.1117  1.3716  1.6501
   38POPC     N 5039   3.954   6.360   6.172  0.0181  0.0289 -0.4234
   38POPC   C12 5040   4.037   6.433   6.283 -0.0431  0.6663 -0.2678
   38POPC  H12A 5041   4.082   6.522   6.242  0.2919 -0.8818 -3.3446
   38POPC  H12B 5042   4.117   6.373   6.324 -0.7464  0.9807  1.6574
   38POPC   C13 5043   3.835   6.437   6.146 -0.1925  0.5336  0.0245
   38POPC  H13A 5044   3.788   6.444   6.243  2.2954  0.8386  1.2335
   38POPC  H13B 5045   3.847   6.539   6.113  2.6695 -0.0266 -0.7427
   38POPC  H13C 5046   3.763   6.391   6.080 -1.6022 -2.0624  3.1737
   38POPC   C14 5047   4.026   6.351   6.040  0.1352 -0.1569  1.1734
   38POPC  H14A 5048   4.088   6.262   6.041 -0.2675 -0.4989 -0.8783
   38POPC  H14B 5049   3.956   6.344   5.958  0.1563  0.4184  1.1093
   38POPC  H14C 5050   4.086   6.441   6.036  0.1422 -0.1583  1.2651
   38POPC   C15 5051   3.913   6.224   6.210  0.7946  0.3416  0.1909
   38POPC  H15A 5052   3.866   6.168   6.131  0.3174 -0.6404  1.1589
   38POPC  H15B 5053   3.863   6.222   6.306  2.0844  1.5275  0.9039
   38POPC  H15C 5054   3.998   6.162   6.237  0.6764 -0.2206 -0.7063
   38POPC   C11 5055   3.967   6.456   6.413  0.8078 -0.4873 -0.4707
   38POPC  H11A 5056   3.877   6.521   6.398 -0.6381 -2.6379 -1.4199
   38POPC  H11B 5057   4.043   6.520   6.462  1.3139 -0.7854 -0.8640
   38POPC     P 5058   3.808   6.293   6.564 -0.2721  0.1655  0.1281
   38POPC   O13 5059   3.753   6.172   6.499 -0.3564  0.4357  0.0236
   38POPC   O14 5060   3.722   6.412   6.583  0.0173  0.6709  0.8374
   38POPC   O12 5061   3.944   6.330   6.493  0.6448 -0.1296  0.2433
   38POPC   O11 5062   3.868   6.243   6.696 -0.5114 -0.4161  0.1749
   38POPC    C1 5063   3.906   6.105   6.718 -0.4337 -0.2543  0.2116
   38POPC    HA 5064   3.982   6.107   6.799  0.2697  0.7384 -0.4674
   38POPC    HB 5065   3.973   6.074   6.635 -0.8096 -0.2632 -0.0894
   38POPC    C2 5066   3.796   5.997   6.757 -0.5639  0.0948  0.1136
   38POPC    HS 5067   3.732   5.990   6.667 -1.4676  1.2864  0.6507
   38POPC   O21 5068   3.726   6.030   6.880 -0.4414  0.3610 -0.0534
   38POPC   C21 5069   3.630   6.112   6.875 -0.2400 -0.4316  0.1072
   38POPC   O22 5070   3.565   6.136   6.775  0.1836  0.2939  0.1951
   38POPC   C22 5071   3.619   6.184   7.008  0.3356 -0.6457  0.4502
   38POPC   H2R 5072   3.717   6.230   7.032 -0.0066  0.8253 -0.9016
   38POPC   H2S 5073   3.600   6.100   7.078  0.4073 -1.8155 -0.9236
   38POPC    C3 5074   3.860   5.858   6.786 -0.7611 -0.4088 -0.1945
   38POPC    HX 5075   3.907   5.828   6.690 -1.4817  0.5244 -0.8533
   38POPC    HY 5076   3.784   5.784   6.818  1.6583 -2.4478  1.0099
   38POPC   O31 5077   3.959   5.872   6.895  0.2650 -0.0736 -0.0578
   38POPC   C31 5078   4.085   5.827   6.867 -0.5264  0.3022  0.1314
   38POPC   O32 5079   4.110   5.757   6.771  0.2894  0.3100 -0.5391
   38POPC   C32 5080   4.178   5.896   6.969 -0.9908  0.2153  0.3798
   38POPC   H2X 5081   4.144   5.855   7.067  1.8644 -2.0061  0.5066
   38POPC   H2Y 5082   4.158   6.005   6.956  1.0065  0.6817  0.9835
   38POPC   C23 5083   3.511   6.291   7.021 -0.2946 -0.4328 -0.1370
   38POPC   H3R 5084   3.434   6.274   6.943 -2.0207  2.4531  0.8721
   38POPC   H3S 5085   3.559   6.387   6.992 -2.4387 -0.0188 -2.5065
   38POPC   C24 5086   3.445   6.296   7.158 -0.4369 -0.1430 -0.4215
   38POPC   H4R 5087   3.429   6.189   7.183 -0.0792  0.0305  0.5689
   38POPC   H4S 5088   3.341   6.333   7.145 -0.7481 -0.8266  0.0904
   38POPC   C25 5089   3.515   6.365   7.281  0.0901 -0.3802 -0.6577
   38POPC   H5R 5090   3.493   6.472   7.260  1.0899  0.2329  1.3915
   38POPC   H5S 5091   3.624   6.351   7.266  0.4444  2.4692 -1.0423
   38POPC   C26 5092   3.459   6.316   7.419  0.2779  0.5294  0.3276
   38POPC   H6R 5093   3.483   6.209   7.435 -0.1788  0.4939  0.7745
   38POPC   H6S 5094   3.348   6.316   7.414  0.2761  2.4411 -0.3819
   38POPC   C27 5095   3.518   6.399   7.532 -0.2399  0.0219 -0.1881
   38POPC   H7R 5096   3.493   6.506   7.516 -1.4789 -0.4259 -1.3670
   38POPC   H7S 5097   3.628   6.400   7.514 -0.1847  0.6113  0.1910
   38POPC   C28 5098   3.486   6.356   7.676  0.1906 -0.1976  0.0250
   38POPC   H8R 5099   3.515   6.249   7.680 -1.7984 -0.8339 -1.4611
   38POPC   H8S 5100   3.378   6.368   7.702  0.1341 -0.1199 -0.2443
   38POPC   C29 5101   3.566   6.445   7.773 -0.5956  0.4722 -0.4427
   38POPC   H91 5102   3.562   6.553   7.758 -1.0318  0.5265  0.0550
   38POPC  C210 5103   3.617   6.402   7.891 -0.1679  0.5430 -0.3900
   38POPC  H101 5104   3.665   6.477   7.955  1.5471  0.1473 -1.1867
   38POPC  C211 5105   3.612   6.260   7.946 -0.4963 -0.1318  0.2118
   38POPC  H11R 5106   3.711   6.220   7.974 -0.9022 -1.8280 -0.7278
   38POPC  H11S 5107   3.583   6.188   7.867 -0.4989 -1.1416  1.1292
   38POPC  C212 5108   3.514   6.252   8.061 -0.6833  0.4713  0.1411
   38POPC  H12R 5109   3.410   6.275   8.032 -0.7378  0.4808  0.3423
   38POPC  H12S 5110   3.542   6.336   8.127  0.1756  0.0246  0.3538
   38POPC  C213 5111   3.508   6.113   8.131  0.1720  0.8233 -0.4745
   38POPC  H13R 5112   3.605   6.099   8.183 -0.9357 -0.1988  1.3784
   38POPC  H13S 5113   3.508   6.040   8.047 -0.7609  1.4634 -1.0411
   38POPC  C214 5114   3.398   6.092   8.234 -0.4545  0.3099 -0.0582
   38POPC  H14R 5115   3.303   6.125   8.187 -2.2853 -1.1444  2.4910
   38POPC  H14S 5116   3.425   6.156   8.321 -1.8418 -0.8138  1.2304
   38POPC  C215 5117   3.390   5.945   8.281 -0.1519  0.4047 -0.0933
   38POPC  H15R 5118   3.485   5.924   8.334  1.5299  3.2842 -1.8277
   38POPC  H15S 5119   3.388   5.874   8.196 -0.7741 -1.5124  1.4990
   38POPC  C216 5120   3.266   5.913   8.355  0.4755  0.4179  0.3407
   38POPC  H16R 5121   3.183   5.923   8.282  0.8553  2.4127  0.1469
   38POPC  H16S 5122   3.246   5.992   8.430  1.7251 -2.3977  3.7773
   38POPC  C217 5123   3.254   5.788   8.434 -0.2223  0.1205 -0.3713
   38POPC  H17R 5124   3.354   5.779   8.481 -0.0622 -1.6467 -0.9913
   38POPC  H17S 5125   3.227   5.705   8.365 -1.6239 -0.2230  0.5655
   38POPC  C218 5126   3.132   5.791   8.525  0.1401 -0.0951 -0.1169
   38POPC  H18R 5127   3.132   5.707   8.598  2.5145  1.6406  1.9398
   38POPC  H18S 5128   3.044   5.775   8.459 -0.6887  2.9008  0.1947
   38POPC  H18T 5129   3.117   5.886   8.580  0.4497 -0.6271  0.8912
   38POPC   C33 5130   4.335   5.857   6.946  0.6206 -0.0830  0.4793
   38POPC   H3X 5131   4.372   5.891   6.847  1.7713 -0.7293  0.6728
   38POPC   H3Y 5132   4.325   5.747   6.940  0.8734 -0.0901  0.1778
   38POPC   C34 5133   4.441   5.893   7.056 -0.2457 -0.4507  0.6635
   38POPC   H4X 5134   4.450   6.004   7.058  1.1349 -0.5362 -0.1835
   38POPC   H4Y 5135   4.546   5.863   7.035  0.4254  1.4670  1.1756
   38POPC   C35 5136   4.396   5.853   7.193  0.2175 -0.8892  0.1540
   38POPC   H5X 5137   4.392   5.743   7.209 -2.5568 -0.7717  0.5215
   38POPC   H5Y 5138   4.294   5.893   7.208  1.0291  1.0748  0.6013
   38POPC   C36 5139   4.480   5.915   7.306 -0.3174 -0.1634 -0.0853
   38POPC   H6X 5140   4.438   5.910   7.409 -2.5661 -0.4189 -0.9992
   38POPC   H6Y 5141   4.480   6.024   7.283 -1.7839 -0.3560 -1.0231
   38POPC   C37 5142   4.628   5.867   7.308 -1.0232 -0.2559  0.1380
   38POPC   H7X 5143   4.683   5.905   7.220 -2.6596 -1.7201 -1.5694
   38POPC   H7Y 5144   4.627   5.756   7.294 -0.8683 -0.3683  0.9836
   38POPC   C38 5145   4.707   5.896   7.437  0.2344  0.6923 -0.7251
   38POPC   H8X 5146   4.726   6.006   7.442 -0.5323  0.7679  0.8182
   38POPC   H8Y 5147   4.808   5.852   7.419 -0.1764 -0.1670 -0.9148
   38POPC   C39 5148   4.660   5.837   7.571 -0.4204 -0.2786  0.7868
   38POPC   H9X 5149   4.634   5.729   7.560 -1.8201  0.4415 -3.5745
   38POPC   H9Y 5150   4.563   5.882   7.599 -0.6785  0.1331 -0.7727
   38POPC  C310 5151   4.766   5.860   7.684  0.4645 -0.3125  0.4208
   38POPC  H10X 5152   4.766   5.965   7.721  0.6840  0.2809 -1.1968
   38POPC  H10Y 5153   4.868   5.836   7.647  0.4911  0.4605 -0.0446
   38POPC  C311 5154   4.738   5.774   7.807  0.4911  0.4773 -0.1737
   38POPC  H11X 5155   4.737   5.664   7.795 -0.1743  0.5427 -0.7506
   38POPC  H11Y 5156   4.643   5.814   7.848  0.1437  0.6019 -1.0882
   38POPC  C312 5157   4.844   5.792   7.924  0.7717  0.1692 -0.1855
   38POPC  H12X 5158   4.934   5.745   7.878  0.6402 -1.3175  1.0394
   38POPC  H12Y 5159   4.801   5.734   8.008 -3.4488  3.4461  0.0418
   38POPC  C313 5160   4.891   5.937   7.953  0.1080 -0.7673 -0.2481
   38POPC  H13X 5161   4.802   5.995   7.984  0.6915 -0.1859  0.3654
   38POPC  H13Y 5162   4.946   5.986   7.871 -1.9400  2.8559  0.4424
   38POPC  C314 5163   4.979   5.934   8.077  0.0825 -0.2797  0.9355
   38POPC  H14X 5164   5.076   5.889   8.047 -0.1803 -1.6642  2.1091
   38POPC  H14Y 5165   4.941   5.867   8.157  2.1006 -0.0473  2.1286
   38POPC  C315 5166   5.004   6.070   8.138  0.3670 -0.9397 -0.3415
   38POPC  H15X 5167   4.910   6.115   8.178  0.5132 -0.3917 -0.6113
   38POPC  H15Y 5168   5.034   6.131   8.050  0.7595  0.1072  0.5090
   38POPC  C316 5169   5.111   6.077   8.245 -0.4584  0.2506  0.3652
   38POPC  H16X 5170   5.069   6.031   8.337 -2.7155 -1.7840 -1.6239
   38POPC  H16Y 5171   5.152   6.177   8.272  0.2337 -0.5532  2.3522
   38POPC  H16Z 5172   5.204   6.021   8.223  0.6393  2.5042 -0.9364
   39POPC     N 5173   1.220   3.460   6.313  0.0979 -0.2048 -0.2145
   39POPC   C12 5174   1.079   3.445   6.364 -0.3961  0.9138 -0.3761
   39POPC  H12A 5175   1.053   3.510   6.446  0.5672 -0.6704  1.2234
   39POPC  H12B 5176   1.056   3.348   6.405  1.2820 -1.6623 -5.1619
   39POPC   C13 5177   1.316   3.426   6.423 -0.2711  0.2389 -0.2546
   39POPC  H13A 5178   1.418   3.432   6.387  0.9519  1.4156  3.1844
   39POPC  H13B 5179   1.318   3.493   6.508  0.5998 -0.9137  0.6563
   39POPC  H13C 5180   1.305   3.322   6.453  1.9394 -0.4220 -1.5635
   39POPC   C14 5181   1.255   3.369   6.198  0.3689  0.1488  0.2284
   39POPC  H14A 5182   1.173   3.378   6.128  1.6056 -2.1274 -1.5958
   39POPC  H14B 5183   1.345   3.406   6.152  2.0150 -0.5903  2.7441
   39POPC  H14C 5184   1.261   3.268   6.237 -1.5096  0.4819  1.4552
   39POPC   C15 5185   1.249   3.596   6.260  0.9394 -0.1139  0.2149
   39POPC  H15A 5186   1.353   3.600   6.229  1.3570 -0.7112  1.4944
   39POPC  H15B 5187   1.247   3.670   6.338  3.1152  0.1469  0.0575
   39POPC  H15C 5188   1.180   3.621   6.180 -0.0191 -1.2386  0.6820
   39POPC   C11 5189   0.964   3.461   6.262  0.5678 -0.0536  0.3280
   39POPC  H11A 5190   0.982   3.558   6.211  1.1077 -1.0515 -1.4281
   39POPC  H11B 5191   0.865   3.473   6.311  0.1642 -0.5155 -0.3641
   39POPC     P 5192   0.900   3.228   6.189 -0.2682  0.2149 -0.2555
   39POPC   O13 5193   0.956   3.119   6.105  0.0282 -0.2452  0.1428
   39POPC   O14 5194   0.752   3.255   6.180  0.4299  0.3780 -0.0605
   39POPC   O12 5195   0.978   3.362   6.162  0.3269 -0.3606  0.2691
   39POPC   O11 5196   0.932   3.206   6.341  0.1944 -0.4139  0.7582
   39POPC    C1 5197   0.833   3.177   6.444 -0.1749  0.7005  0.9850
   39POPC    HA 5198   0.801   3.075   6.414  1.9417  0.6024 -1.0560
   39POPC    HB 5199   0.753   3.254   6.450 -1.1522 -0.3080  0.8623
   39POPC    C2 5200   0.900   3.140   6.580 -0.0193 -0.1498 -0.1855
   39POPC    HS 5201   0.828   3.078   6.636 -1.0466  1.1067 -0.1035
   39POPC   O21 5202   0.927   3.260   6.656 -0.0978 -0.0380  0.5633
   39POPC   C21 5203   0.830   3.329   6.711  0.1460 -0.5601 -0.0110
   39POPC   O22 5204   0.711   3.318   6.685  0.7358 -0.0495 -0.2415
   39POPC   C22 5205   0.889   3.436   6.810 -0.2556 -0.4831  0.0378
   39POPC   H2R 5206   0.828   3.526   6.787 -0.6482 -0.6145  0.5447
   39POPC   H2S 5207   0.999   3.446   6.796 -0.2964  0.1207  0.1595
   39POPC    C3 5208   1.036   3.066   6.556 -0.8177 -0.2260 -0.0677
   39POPC    HX 5209   1.103   3.136   6.501 -1.6264 -0.4317 -1.3085
   39POPC    HY 5210   0.999   2.989   6.485 -1.0947 -0.7175  0.6076
   39POPC   O31 5211   1.095   3.024   6.679  0.0203 -0.4483  0.2878
   39POPC   C31 5212   1.199   3.097   6.720 -0.0948  0.0859 -0.3779
   39POPC   O32 5213   1.251   3.189   6.668 -0.0229  0.2302  0.8223
   39POPC   C32 5214   1.235   3.034   6.849  0.2106  0.4640  0.7089
   39POPC   H2X 5215   1.257   2.927   6.834  0.1583  0.9560 -3.2450
   39POPC   H2Y 5216   1.336   3.070   6.879  0.3457  1.4913 -0.9063
   39POPC   C23 5217   0.863   3.400   6.954 -0.3037 -0.3882  0.2544
   39POPC   H3R 5218   0.904   3.484   7.013  1.3472  1.3588 -3.1981
   39POPC   H3S 5219   0.919   3.313   6.994 -0.7707 -0.4561  0.7560
   39POPC   C24 5220   0.717   3.380   6.996  0.0931 -0.6289  0.0132
   39POPC   H4R 5221   0.671   3.282   6.973 -0.3644 -0.6565  1.0594
   39POPC   H4S 5222   0.662   3.455   6.935 -1.6580 -2.2027 -0.4072
   39POPC   C25 5223   0.693   3.407   7.147 -0.1575  0.3628 -0.2811
   39POPC   H5R 5224   0.707   3.515   7.166 -0.2501  0.0752  1.4456
   39POPC   H5S 5225   0.768   3.343   7.197  0.0769 -0.9804 -2.2744
   39POPC   C26 5226   0.554   3.376   7.186 -0.5112  0.8597 -0.9214
   39POPC   H6R 5227   0.562   3.271   7.222 -2.4153  0.6788 -0.9784
   39POPC   H6S 5228   0.489   3.384   7.096 -1.3128 -1.1010 -0.5486
   39POPC   C27 5229   0.482   3.464   7.301 -1.0933 -0.5150 -0.4327
   39POPC   H7R 5230   0.374   3.439   7.300 -0.5759 -2.7967 -0.6777
   39POPC   H7S 5231   0.491   3.570   7.269  1.5058  0.1995  2.4783
   39POPC   C28 5232   0.524   3.442   7.444 -0.2189  0.1069 -0.2454
   39POPC   H8R 5233   0.635   3.446   7.445 -0.2647  3.3412 -1.4326
   39POPC   H8S 5234   0.498   3.337   7.466  0.0743 -0.2393 -1.5113
   39POPC   C29 5235   0.463   3.554   7.526  0.1932  0.2555 -0.4164
   39POPC   H91 5236   0.388   3.619   7.480  0.0885 -1.4851 -2.7708
   39POPC  C210 5237   0.508   3.578   7.654 -0.3250  0.0128  0.4336
   39POPC  H101 5238   0.456   3.657   7.710 -0.5057  0.3127 -0.1491
   39POPC  C211 5239   0.620   3.512   7.729  0.4174  0.0554  0.5527
   39POPC  H11R 5240   0.718   3.559   7.705 -0.9726  1.5997 -2.4114
   39POPC  H11S 5241   0.627   3.404   7.706  0.8365  0.7120 -2.5672
   39POPC  C212 5242   0.598   3.529   7.886  0.1402  0.5493 -0.4724
   39POPC  H12R 5243   0.580   3.637   7.902 -0.1899 -0.0470  3.5230
   39POPC  H12S 5244   0.691   3.499   7.940 -0.3285  0.4713  0.2944
   39POPC  C213 5245   0.478   3.448   7.933 -0.0846  0.0520  0.5193
   39POPC  H13R 5246   0.518   3.345   7.929  2.4590  1.0498 -0.3445
   39POPC  H13S 5247   0.383   3.465   7.877  0.4950  0.5744 -0.3110
   39POPC  C214 5248   0.427   3.484   8.071 -0.0368  0.4158 -0.3564
   39POPC  H14R 5249   0.319   3.463   8.086 -0.6471  2.2574 -1.8356
   39POPC  H14S 5250   0.449   3.593   8.081 -0.9879  0.7941 -2.0692
   39POPC  C215 5251   0.503   3.415   8.185 -0.0657  0.6883 -0.4292
   39POPC  H15R 5252   0.611   3.412   8.162  0.0388 -2.4177  0.1792
   39POPC  H15S 5253   0.464   3.312   8.170 -0.2475  0.8016 -0.7373
   39POPC  C216 5254   0.477   3.477   8.319 -0.0261  0.0533 -0.4146
   39POPC  H16R 5255   0.379   3.528   8.323  0.2873  0.6488 -0.3191
   39POPC  H16S 5256   0.559   3.548   8.345 -0.0291  0.1106 -0.5618
   39POPC  C217 5257   0.463   3.367   8.423 -0.2470  0.6071 -0.2924
   39POPC  H17R 5258   0.560   3.325   8.456 -0.5164  0.3649  0.2020
   39POPC  H17S 5259   0.413   3.280   8.375  1.5605  0.3945 -1.8435
   39POPC  C218 5260   0.371   3.412   8.543  0.1951  0.6353 -0.2716
   39POPC  H18R 5261   0.381   3.521   8.561  1.4540  0.4249  0.3234
   39POPC  H18S 5262   0.380   3.348   8.633  1.1487  2.1756  0.7353
   39POPC  H18T 5263   0.265   3.404   8.510 -0.3131  2.5867  0.8399
   39POPC   C33 5264   1.136   3.075   6.965  0.2899 -0.4084  0.2129
   39POPC   H3X 5265   1.036   3.048   6.925  0.1107 -1.8987  1.6319
   39POPC   H3Y 5266   1.140   3.181   6.998 -1.0831 -0.1737 -0.3100
   39POPC   C34 5267   1.171   2.996   7.097 -0.4019 -0.2793  0.4247
   39POPC   H4X 5268   1.281   2.991   7.109 -0.4466 -2.5056  0.0606
   39POPC   H4Y 5269   1.146   2.889   7.089 -2.7404  0.2557  0.2279
   39POPC   C35 5270   1.104   3.049   7.224  0.0137  0.2528  0.1332
   39POPC   H5X 5271   1.160   3.138   7.260 -1.8967  1.5706 -0.0685
   39POPC   H5Y 5272   1.119   2.970   7.300 -1.4400 -0.8160 -0.6689
   39POPC   C36 5273   0.951   3.077   7.230 -0.4764  0.3155 -0.5256
   39POPC   H6X 5274   0.891   2.990   7.195  0.5465 -1.7035  2.5879
   39POPC   H6Y 5275   0.938   3.151   7.148 -1.9734 -2.5104 -2.9139
   39POPC   C37 5276   0.912   3.123   7.365 -0.4110 -0.3307  0.1208
   39POPC   H7X 5277   0.843   3.208   7.347 -0.6610 -0.4069  0.7121
   39POPC   H7Y 5278   0.998   3.152   7.429 -2.7711  0.9732  2.7931
   39POPC   C38 5279   0.844   3.020   7.459  0.8703  0.6635  0.5019
   39POPC   H8X 5280   0.922   2.943   7.478  1.6501  1.4238  0.4322
   39POPC   H8Y 5281   0.751   2.975   7.418  1.6262  1.1117 -1.8049
   39POPC   C39 5282   0.814   3.091   7.588  0.5152  0.0366 -0.4792
   39POPC   H9X 5283   0.739   3.163   7.548  0.8254  0.6322  0.0039
   39POPC   H9Y 5284   0.895   3.146   7.640  0.4493 -0.9532  0.7039
   39POPC  C310 5285   0.756   2.986   7.685 -0.1527 -0.4568  0.2774
   39POPC  H10X 5286   0.836   2.915   7.716 -2.5541 -1.8796  3.4870
   39POPC  H10Y 5287   0.696   2.912   7.627  3.0907 -2.7338 -0.3188
   39POPC  C311 5288   0.677   3.041   7.797 -0.1124 -0.5728 -0.1542
   39POPC  H11X 5289   0.590   3.093   7.752 -0.6258 -2.4238 -1.3421
   39POPC  H11Y 5290   0.742   3.105   7.861 -0.0962 -1.5064  0.7719
   39POPC  C312 5291   0.615   2.938   7.888  0.3965 -0.4761 -0.0845
   39POPC  H12X 5292   0.700   2.878   7.926  0.8446 -1.1538 -2.0781
   39POPC  H12Y 5293   0.547   2.875   7.827 -1.1103  1.8474 -0.8966
   39POPC  C313 5294   0.542   3.001   8.006  0.0476 -0.0875 -0.3589
   39POPC  H13X 5295   0.458   3.054   7.959  0.8787  0.2677 -1.4632
   39POPC  H13Y 5296   0.600   3.073   8.068 -1.6496  0.1620  0.9669
   39POPC  C314 5297   0.491   2.891   8.103 -0.5153  0.2617  0.2483
   39POPC  H14X 5298   0.564   2.809   8.121  0.1284  0.6631 -0.4971
   39POPC  H14Y 5299   0.398   2.845   8.064  0.1744 -1.6156  0.7477
   39POPC  C315 5300   0.463   2.945   8.245  0.0433  0.0447 -0.3928
   39POPC  H15X 5301   0.386   3.024   8.236  1.0262  0.8090 -2.5420
   39POPC  H15Y 5302   0.556   2.993   8.281  0.4841 -1.1772  0.1437
   39POPC  C316 5303   0.417   2.827   8.343 -0.0808 -0.6097  0.1542
   39POPC  H16X 5304   0.344   2.760   8.293  1.3303 -0.1464 -2.6256
   39POPC  H16Y 5305   0.370   2.867   8.436  0.3118 -0.2002  0.1760
   39POPC  H16Z 5306   0.501   2.773   8.391 -0.6288 -1.6059  0.0180
   40POPC     N 5307   6.258   6.780   6.106 -0.8806  0.0409  0.3673
   40POPC   C12 5308   6.162   6.895   6.096  0.6632  0.1481 -0.6032
   40POPC  H12A 5309   6.065   6.864   6.060 -0.2947  1.5453  0.7504
   40POPC  H12B 5310   6.198   6.969   6.026  1.2356  0.5431  0.1106
   40POPC   C13 5311   6.263   6.715   5.969 -0.3824  0.0867  0.6004
   40POPC  H13A 5312   6.165   6.716   5.924 -0.6915  0.2298  1.2746
   40POPC  H13B 5313   6.339   6.755   5.903  1.1826 -1.0741  1.6383
   40POPC  H13C 5314   6.287   6.611   5.986 -1.9520 -0.4171 -0.2309
   40POPC   C14 5315   6.397   6.819   6.147  0.5245 -0.2994  0.0505
   40POPC  H14A 5316   6.455   6.729   6.159 -3.6362 -3.0095  0.5833
   40POPC  H14B 5317   6.441   6.883   6.071  1.2000 -0.1717  0.5412
   40POPC  H14C 5318   6.380   6.860   6.246  1.3384 -0.5491  0.2970
   40POPC   C15 5319   6.213   6.671   6.202 -0.5470  0.0365  0.3000
   40POPC  H15A 5320   6.224   6.697   6.306  1.2822  0.0330  0.1268
   40POPC  H15B 5321   6.253   6.573   6.179  0.1971  0.8268 -1.9224
   40POPC  H15C 5322   6.106   6.663   6.192 -1.0695  3.5337  2.5012
   40POPC   C11 5323   6.133   6.967   6.232 -0.4470  0.1213 -0.2732
   40POPC  H11A 5324   6.090   6.888   6.298  1.8472 -0.6391  0.3630
   40POPC  H11B 5325   6.057   7.048   6.227 -0.5542 -0.0171 -0.8285
   40POPC     P 5326   6.261   7.091   6.416  0.0535  0.7677  0.0680
   40POPC   O13 5327   6.209   7.223   6.390  0.3297 -0.1966 -0.2478
   40POPC   O14 5328   6.402   7.086   6.462  0.4289  0.1787 -0.9745
   40POPC   O12 5329   6.257   7.026   6.277  0.2692  0.0086 -0.9978
   40POPC   O11 5330   6.164   6.986   6.499  1.1213  0.2797  0.2820
   40POPC    C1 5331   6.108   7.030   6.624 -0.0940 -0.4720 -0.1524
   40POPC    HA 5332   6.037   6.949   6.651  1.6920 -1.5090  1.4903
   40POPC    HB 5333   6.049   7.124   6.616 -0.5199 -0.7868 -0.7379
   40POPC    C2 5334   6.217   7.055   6.744  0.1315 -0.4559  0.3402
   40POPC    HS 5335   6.289   7.128   6.701  2.5640 -2.1257  1.4732
   40POPC   O21 5336   6.273   6.927   6.763  0.4604  0.5963  0.4423
   40POPC   C21 5337   6.405   6.923   6.794  0.2458 -0.5449 -0.5692
   40POPC   O22 5338   6.479   7.022   6.794 -0.6032 -0.3910 -0.9143
   40POPC   C22 5339   6.445   6.791   6.848 -0.2825 -0.0703 -0.3520
   40POPC   H2R 5340   6.554   6.804   6.864 -0.1492 -0.4280 -0.9767
   40POPC   H2S 5341   6.419   6.719   6.768 -0.3493  1.5679 -1.8369
   40POPC    C3 5342   6.143   7.100   6.874  0.5394 -0.0340 -0.0156
   40POPC    HX 5343   6.076   7.017   6.906 -2.3706  1.6846 -1.4446
   40POPC    HY 5344   6.075   7.185   6.853 -0.5632 -1.3511 -1.8908
   40POPC   O31 5345   6.229   7.140   6.983 -0.0393  0.2772 -0.5899
   40POPC   C31 5346   6.301   7.249   6.952 -0.1016 -0.1200 -0.3955
   40POPC   O32 5347   6.301   7.307   6.844 -0.1842  0.0672  0.3410
   40POPC   C32 5348   6.371   7.299   7.080  0.4286  0.1038 -0.5256
   40POPC   H2X 5349   6.449   7.227   7.113  0.8613  1.7039  2.1386
   40POPC   H2Y 5350   6.302   7.290   7.166  0.6500  2.4499 -0.0801
   40POPC   C23 5351   6.368   6.751   6.980  0.2783 -0.1512  0.2286
   40POPC   H3R 5352   6.394   6.644   6.994 -0.7726 -0.1844  2.1400
   40POPC   H3S 5353   6.257   6.753   6.979  0.2197 -2.1745  0.1796
   40POPC   C24 5354   6.419   6.845   7.094 -0.1032  0.2197  0.0951
   40POPC   H4R 5355   6.379   6.948   7.084 -0.7982  0.0681  1.2673
   40POPC   H4S 5356   6.527   6.870   7.082  0.1295 -1.1451 -0.8318
   40POPC   C25 5357   6.375   6.786   7.232  0.2350 -0.3480 -0.3130
   40POPC   H5R 5358   6.460   6.729   7.274  0.3480 -0.9925 -1.3776
   40POPC   H5S 5359   6.298   6.710   7.209 -1.3839  1.2605 -0.3289
   40POPC   C26 5360   6.332   6.883   7.336 -0.8362 -0.1165  0.8480
   40POPC   H6R 5361   6.256   6.956   7.301  0.6193  0.5768 -0.9258
   40POPC   H6S 5362   6.418   6.948   7.362 -1.2091  0.7473 -0.0490
   40POPC   C27 5363   6.300   6.828   7.477 -0.0438  0.1456  0.2050
   40POPC   H7R 5364   6.267   6.917   7.534  1.8902  1.2095 -0.2813
   40POPC   H7S 5365   6.389   6.786   7.529 -0.6813 -2.7470 -0.9110
   40POPC   C28 5366   6.188   6.721   7.489 -0.6026 -0.4412  0.4125
   40POPC   H8R 5367   6.203   6.627   7.433  2.8176  1.4385 -2.0275
   40POPC   H8S 5368   6.100   6.764   7.436  0.5836 -0.2105 -1.4326
   40POPC   C29 5369   6.174   6.691   7.632  0.8069 -0.0101  0.1052
   40POPC   H91 5370   6.250   6.621   7.670 -0.7341 -0.8349  1.7054
   40POPC  C210 5371   6.080   6.729   7.723  0.0130 -0.7566 -0.0584
   40POPC  H101 5372   6.073   6.679   7.821 -0.9666 -1.0608 -0.2767
   40POPC  C211 5373   5.970   6.823   7.697  0.3580  0.2445 -0.1847
   40POPC  H11R 5374   5.875   6.788   7.742  0.9081  1.3683  1.9363
   40POPC  H11S 5375   5.948   6.833   7.589 -2.1041  0.0810  0.2786
   40POPC  C212 5376   6.003   6.956   7.759  0.2419  0.6513  0.2109
   40POPC  H12R 5377   6.099   7.004   7.729  0.6444  0.3473  0.9858
   40POPC  H12S 5378   6.012   6.966   7.870  1.6497  2.3144 -0.0252
   40POPC  C213 5379   5.907   7.065   7.722  0.5352 -0.1205  0.0889
   40POPC  H13R 5380   5.800   7.052   7.752  0.7389  1.1336  1.4476
   40POPC  H13S 5381   5.917   7.060   7.611  1.6212 -1.3520  0.2438
   40POPC  C214 5382   5.942   7.207   7.772  0.0965 -0.6848  0.1834
   40POPC  H14R 5383   6.050   7.229   7.757  0.0280 -0.0834  0.5417
   40POPC  H14S 5384   5.926   7.225   7.880 -0.0161 -1.7481  0.3466
   40POPC  C215 5385   5.864   7.318   7.697 -0.6358 -0.2400  0.3500
   40POPC  H15R 5386   5.759   7.328   7.731 -0.3759  2.4728  0.4933
   40POPC  H15S 5387   5.862   7.291   7.589  0.5801 -1.8721  0.7084
   40POPC  C216 5388   5.946   7.456   7.697  0.3201 -0.1448  0.5327
   40POPC  H16R 5389   6.050   7.443   7.660  0.0731 -1.7417  0.3692
   40POPC  H16S 5390   5.955   7.489   7.803  2.3349 -0.2035  0.4025
   40POPC  C217 5391   5.865   7.559   7.614  0.1543  0.0615 -0.1079
   40POPC  H17R 5392   5.909   7.659   7.636 -0.2654  0.3814 -0.7255
   40POPC  H17S 5393   5.763   7.554   7.659  1.3064 -1.4982  2.4783
   40POPC  C218 5394   5.871   7.530   7.464  0.5640 -0.0916  0.4446
   40POPC  H18R 5395   5.969   7.549   7.415 -0.8263  0.2023 -2.3515
   40POPC  H18S 5396   5.797   7.599   7.417 -0.5247 -0.3586  1.7150
   40POPC  H18T 5397   5.845   7.423   7.447  0.9977 -0.1438  0.1097
   40POPC   C33 5398   6.441   7.432   7.057  0.8388 -0.5698 -0.1108
   40POPC   H3X 5399   6.360   7.496   7.014 -1.1487 -1.1046  2.7094
   40POPC   H3Y 5400   6.517   7.430   6.976 -0.3999  0.4979 -1.3174
   40POPC   C34 5401   6.498   7.493   7.192 -0.3441 -0.4018  0.2088
   40POPC   H4X 5402   6.598   7.539   7.180 -1.0042  0.5507 -1.9125
   40POPC   H4Y 5403   6.503   7.409   7.265 -0.5403  0.8670  1.6963
   40POPC   C35 5404   6.407   7.608   7.249  0.3798 -0.4424  0.2239
   40POPC   H5X 5405   6.300   7.582   7.235  1.0072 -2.6410 -0.7063
   40POPC   H5Y 5406   6.430   7.702   7.194  2.1764 -1.1373 -0.2397
   40POPC   C36 5407   6.410   7.641   7.401  0.1634  0.2813  0.6314
   40POPC   H6X 5408   6.335   7.719   7.424 -1.5303 -1.3815  0.8044
   40POPC   H6Y 5409   6.512   7.680   7.425 -0.3408  1.2307  1.2473
   40POPC   C37 5410   6.377   7.539   7.501  0.1302 -0.0369  0.2824
   40POPC   H7X 5411   6.325   7.451   7.457 -0.6283  0.1826  0.7206
   40POPC   H7Y 5412   6.313   7.576   7.584  0.9598  0.8515  0.5427
   40POPC   C38 5413   6.500   7.477   7.569  0.1171  0.9077 -0.0740
   40POPC   H8X 5414   6.568   7.552   7.615 -1.6418  1.9774  0.8369
   40POPC   H8Y 5415   6.562   7.422   7.495 -1.2799  1.1099 -1.4227
   40POPC   C39 5416   6.471   7.379   7.694  0.3248  0.1605  0.2703
   40POPC   H9X 5417   6.569   7.350   7.738 -0.4420 -0.0495  1.8457
   40POPC   H9Y 5418   6.412   7.296   7.651 -0.2127  0.9667 -0.5868
   40POPC  C310 5419   6.398   7.453   7.810  0.0412  0.1713 -0.1302
   40POPC  H10X 5420   6.297   7.486   7.777  0.8914  0.9715 -1.9774
   40POPC  H10Y 5421   6.463   7.540   7.830 -1.6434  1.7182 -1.1940
   40POPC  C311 5422   6.397   7.372   7.942  0.4629  0.7506 -0.2996
   40POPC  H11X 5423   6.413   7.430   8.035 -1.3538  1.0338 -0.1453
   40POPC  H11Y 5424   6.482   7.301   7.946 -0.5620 -0.3550  4.4336
   40POPC  C312 5425   6.268   7.297   7.976 -0.1649 -0.3571 -0.1861
   40POPC  H12X 5426   6.239   7.228   7.894 -3.1369  0.9484 -0.2999
   40POPC  H12Y 5427   6.184   7.370   7.972  0.7708  0.7706  0.3043
   40POPC  C313 5428   6.280   7.223   8.114 -0.6033  0.3831  0.9032
   40POPC  H13X 5429   6.271   7.304   8.189  1.1536 -0.1506  1.7091
   40POPC  H13Y 5430   6.384   7.191   8.137 -1.2265 -2.3587  0.0877
   40POPC  C314 5431   6.186   7.109   8.154 -0.1974  0.4731 -0.3789
   40POPC  H14X 5432   6.204   7.076   8.259  0.0248  0.3586 -0.4537
   40POPC  H14Y 5433   6.209   7.028   8.082 -0.0812 -0.8631  1.1296
   40POPC  C315 5434   6.035   7.143   8.132  0.7669 -0.5811  0.2509
   40POPC  H15X 5435   5.985   7.049   8.102 -0.3316 -0.2860  1.1265
   40POPC  H15Y 5436   6.021   7.212   8.046 -1.0963  0.1837  1.1638
   40POPC  C316 5437   5.975   7.198   8.263  0.2224  0.5341 -0.5967
   40POPC  H16X 5438   5.973   7.122   8.344  0.9279  2.6774  1.4821
   40POPC  H16Y 5439   5.874   7.230   8.228  0.1585  0.0944 -0.8196
   40POPC  H16Z 5440   6.031   7.291   8.289  0.0045  0.8600 -1.2731
   41CHL1    C3 5441   5.853   3.808  10.087  0.7006 -0.2805  0.6235
   41CHL1    H3 5442   5.952   3.842  10.047  0.8324 -3.2893 -1.8828
   41CHL1    O3 5443   5.862   3.800  10.229  0.1586  0.6648 -0.5067
   41CHL1   H3' 5444   5.787   3.850  10.262  2.1269  2.9710  0.6681
   41CHL1    C4 5445   5.749   3.914  10.042  0.9398 -0.0208 -0.2037
   41CHL1   H4A 5446   5.650   3.893  10.090  0.3067 -0.9871 -1.8745
   41CHL1   H4B 5447   5.784   4.012  10.080 -1.4179  1.0659 -0.7724
   41CHL1    C5 5448   5.722   3.923   9.893  0.2845 -0.2529 -0.0102
   41CHL1    C6 5449   5.718   4.040   9.833  0.5955  1.3278  0.2939
   41CHL1    H6 5450   5.742   4.133   9.888  1.2971  0.6701  1.1079
   41CHL1    C7 5451   5.691   4.041   9.684 -0.5396  0.0110 -0.1480
   41CHL1   H7A 5452   5.640   4.136   9.655 -1.2723 -0.8160 -1.6115
   41CHL1   H7B 5453   5.790   4.071   9.644 -1.0424  2.3581  0.2792
   41CHL1    C8 5454   5.633   3.907   9.624  0.1067  0.1528  0.4495
   41CHL1    H8 5455   5.529   3.912   9.665 -0.6689 -1.0534 -1.3103
   41CHL1   C14 5456   5.639   3.907   9.471 -0.8994 -0.0731  0.6298
   41CHL1   H14 5457   5.749   3.919   9.466 -1.3421  3.9770 -1.2813
   41CHL1   C15 5458   5.590   4.033   9.404 -0.0437  0.3657 -0.2722
   41CHL1  H15A 5459   5.503   4.078   9.456  0.3658  0.1994  0.5723
   41CHL1  H15B 5460   5.672   4.108   9.396  1.4114 -1.1989 -0.2067
   41CHL1   C16 5461   5.553   3.986   9.266  0.4075 -0.0199  0.1210
   41CHL1  H16A 5462   5.444   3.986   9.242  0.7208 -0.5967 -1.4223
   41CHL1  H16B 5463   5.602   4.039   9.181  0.9048  0.6205  0.8084
   41CHL1   C17 5464   5.602   3.832   9.258 -0.5099  0.4148  0.6646
   41CHL1   H17 5465   5.710   3.844   9.234 -0.2613 -0.8513  1.0915
   41CHL1   C13 5466   5.584   3.788   9.406 -0.0811  0.6477  0.0225
   41CHL1   C18 5467   5.428   3.758   9.434  0.9619 -0.2921 -0.2234
   41CHL1  H18A 5468   5.392   3.671   9.376 -0.7630  0.2342  0.0167
   41CHL1  H18B 5469   5.417   3.732   9.541  1.1757  1.4671  0.2524
   41CHL1  H18C 5470   5.367   3.850   9.417  2.9514  1.1800  0.3935
   41CHL1   C12 5471   5.668   3.665   9.454  0.0819  0.6410  0.4014
   41CHL1  H12A 5472   5.617   3.573   9.418 -0.5403  0.6846  1.1579
   41CHL1  H12B 5473   5.769   3.671   9.407 -0.8268  0.6577 -1.5784
   41CHL1   C11 5474   5.662   3.651   9.613  0.8816 -0.9707  1.2691
   41CHL1  H11A 5475   5.555   3.638   9.638  0.2998 -2.0113 -1.6070
   41CHL1  H11B 5476   5.722   3.561   9.636  2.5187 -0.0699  0.6123
   41CHL1    C9 5477   5.710   3.788   9.675  0.1713 -0.1929 -0.1743
   41CHL1    H9 5478   5.814   3.808   9.644 -0.3160  1.3661 -0.8786
   41CHL1   C10 5479   5.704   3.781   9.833 -0.1454  0.1173 -0.7205
   41CHL1   C19 5480   5.567   3.724   9.881  0.2014  0.5385  0.1386
   41CHL1  H19A 5481   5.571   3.722   9.992  0.8170  2.7416  0.1860
   41CHL1  H19B 5482   5.481   3.789   9.853  0.4208  0.3887 -0.9119
   41CHL1  H19C 5483   5.549   3.622   9.843  1.6730  1.2945 -2.7170
   41CHL1    C1 5484   5.825   3.691   9.872 -0.1837  0.4321  0.1912
   41CHL1   H1A 5485   5.822   3.593   9.821  0.1975  0.1224  0.7648
   41CHL1   H1B 5486   5.917   3.742   9.837 -0.3174  0.1362 -0.6004
   41CHL1    C2 5487   5.838   3.671  10.022  0.5390  0.4381  0.3965
   41CHL1   H2A 5488   5.917   3.595  10.039 -0.7868 -1.1391 -0.3631
   41CHL1   H2B 5489   5.742   3.629  10.059  1.5869  0.4699  3.2676
   41CHL1   C20 5490   5.538   3.758   9.137  1.0706 -0.2480  0.3516
   41CHL1   H20 5491   5.427   3.752   9.143  1.0443 -0.0080  0.1261
   41CHL1   C21 5492   5.599   3.617   9.115  0.0278  0.1921 -0.4807
   41CHL1  H21A 5493   5.704   3.624   9.079 -0.6231 -0.6829 -2.5973
   41CHL1  H21B 5494   5.561   3.563   9.026  0.0362 -2.3409  0.9915
   41CHL1  H21C 5495   5.580   3.538   9.192  1.4709 -0.6826 -0.9977
   41CHL1   C22 5496   5.559   3.837   9.006  1.1571  0.0229  0.2316
   41CHL1  H22A 5497   5.531   3.944   9.015  2.3345  0.4826 -1.3728
   41CHL1  H22B 5498   5.669   3.838   8.988  1.6492 -1.0659  2.9029
   41CHL1   C23 5499   5.475   3.775   8.887 -0.1154 -0.2929  0.0447
   41CHL1  H23A 5500   5.489   3.666   8.870 -1.6049 -0.2654 -1.4544
   41CHL1  H23B 5501   5.371   3.788   8.921 -0.4971 -2.3200 -0.2995
   41CHL1   C24 5502   5.507   3.849   8.753 -0.1801 -0.0940  0.5042
   41CHL1  H24A 5503   5.485   3.956   8.770  0.8015  0.4835 -1.7264
   41CHL1  H24B 5504   5.613   3.836   8.724  0.5379 -0.8695  3.3520
   41CHL1   C25 5505   5.418   3.812   8.630 -0.1001 -0.0577  0.1682
   41CHL1   H25 5506   5.313   3.816   8.668  0.2126  0.2436  0.9974
   41CHL1   C26 5507   5.427   3.912   8.509  0.1178 -0.0639 -0.8351
   41CHL1  H26A 5508   5.534   3.934   8.489 -0.0922  2.3708  0.4569
   41CHL1  H26B 5509   5.360   3.904   8.421 -2.0857 -2.3486  0.9904
   41CHL1  H26C 5510   5.383   4.003   8.557  0.5220 -1.3698  2.1042
   41CHL1   C27 5511   5.448   3.668   8.595  0.0539 -0.2856 -0.3245
   41CHL1  H27A 5512   5.432   3.606   8.687  2.3062  1.7410  1.5044
   41CHL1  H27B 5513   5.370   3.642   8.521 -1.9876 -1.0951  2.0308
   41CHL1  H27C 5514   5.547   3.655   8.546 -0.6277  0.3389 -1.8843
   42CHL1    C3 5515   5.242   3.347   9.813  1.2927 -0.2271  0.6517
   42CHL1    H3 5516   5.217   3.455   9.806  2.0573 -0.1005 -0.3362
   42CHL1    O3 5517   5.255   3.295   9.942 -0.1034  0.6511 -0.2526
   42CHL1   H3' 5518   5.167   3.296   9.980  0.2559 -0.4564  0.6311
   42CHL1    C4 5519   5.131   3.254   9.748  0.3410  0.1716  0.1104
   42CHL1   H4A 5520   5.159   3.147   9.737  0.3791  0.2001 -0.0646
   42CHL1   H4B 5521   5.036   3.271   9.802  0.2367  0.7807 -0.2545
   42CHL1    C5 5522   5.110   3.313   9.606 -0.4343  0.1807  0.1548
   42CHL1    C6 5523   4.995   3.361   9.560  0.1325 -0.0271 -0.6434
   42CHL1    H6 5524   4.904   3.372   9.620 -0.8784 -1.2391 -1.9051
   42CHL1    C7 5525   4.966   3.407   9.418 -0.0665  0.7019  0.1393
   42CHL1   H7A 5526   4.871   3.367   9.378  1.1650 -1.8564 -0.3001
   42CHL1   H7B 5527   4.957   3.518   9.419  0.9823  0.8217 -1.2550
   42CHL1    C8 5528   5.075   3.362   9.322 -0.0774  0.3170  0.5217
   42CHL1    H8 5529   5.062   3.252   9.312  3.3837  0.0120 -1.5466
   42CHL1   C14 5530   5.061   3.418   9.181  0.1598 -0.2062  0.1389
   42CHL1   H14 5531   5.081   3.527   9.192  3.0939 -0.6210 -0.6407
   42CHL1   C15 5532   4.916   3.417   9.108  0.0504  0.1459  0.1231
   42CHL1  H15A 5533   4.870   3.316   9.104  1.0629 -0.3187  0.3147
   42CHL1  H15B 5534   4.844   3.487   9.156 -2.0370 -0.5026 -1.9430
   42CHL1   C16 5535   4.956   3.460   8.961 -0.2731  0.1751 -0.1070
   42CHL1  H16A 5536   4.909   3.393   8.886 -1.5640 -1.1372  1.8080
   42CHL1  H16B 5537   4.936   3.569   8.950  1.5821  0.5204 -0.1642
   42CHL1   C17 5538   5.112   3.455   8.954 -0.1750 -0.4147  0.2783
   42CHL1   H17 5539   5.149   3.555   8.983 -1.0851  0.7324 -2.3472
   42CHL1   C13 5540   5.157   3.368   9.074 -0.4783 -0.4838 -0.6830
   42CHL1   C18 5541   5.143   3.218   9.048 -0.2992 -0.0930  0.1165
   42CHL1  H18A 5542   5.143   3.154   9.139  3.0336 -2.2927 -1.3600
   42CHL1  H18B 5543   5.054   3.193   8.986  0.0828 -2.4540  0.4831
   42CHL1  H18C 5544   5.230   3.186   8.988  0.9338  1.9067  0.7950
   42CHL1   C12 5545   5.300   3.400   9.128 -0.5213 -0.0339  0.5404
   42CHL1  H12A 5546   5.384   3.373   9.061  0.4872  0.3025  1.6576
   42CHL1  H12B 5547   5.306   3.510   9.144  0.7386 -0.2731  1.8890
   42CHL1   C11 5548   5.317   3.329   9.262 -0.3271  0.4453  0.2185
   42CHL1  H11A 5549   5.309   3.219   9.243  0.2900  0.6935 -1.5831
   42CHL1  H11B 5550   5.413   3.347   9.316 -0.1905 -1.3319  0.6130
   42CHL1    C9 5551   5.219   3.380   9.375  0.6316  0.3892 -0.0186
   42CHL1    H9 5552   5.234   3.489   9.394 -1.0979  0.4895  0.8578
   42CHL1   C10 5553   5.240   3.313   9.516  0.3689 -0.0892  0.0949
   42CHL1   C19 5554   5.287   3.161   9.497  0.1838 -0.8308 -0.8465
   42CHL1  H19A 5555   5.387   3.161   9.449  0.4262 -1.1736 -0.3437
   42CHL1  H19B 5556   5.302   3.104   9.591  0.3413 -1.2074 -1.0997
   42CHL1  H19C 5557   5.211   3.111   9.433 -1.3371  0.5075 -0.1299
   42CHL1    C1 5558   5.355   3.381   9.595  0.2154 -0.3284  0.1998
   42CHL1   H1A 5559   5.450   3.388   9.538 -1.3918 -2.3574 -2.8752
   42CHL1   H1B 5560   5.344   3.492   9.596 -0.3987 -0.3843 -0.2824
   42CHL1    C2 5561   5.374   3.330   9.739  0.3815 -0.3406  1.0079
   42CHL1   H2A 5562   5.439   3.405   9.787 -0.5251  2.0654 -1.3863
   42CHL1   H2B 5563   5.414   3.227   9.743  0.3623 -0.2855  3.7433
   42CHL1   C20 5564   5.173   3.438   8.812  0.5516  0.4971 -0.1690
   42CHL1   H20 5565   5.281   3.460   8.820  0.8058 -0.4048 -1.1241
   42CHL1   C21 5566   5.113   3.553   8.725  0.2538  0.4756 -0.0032
   42CHL1  H21A 5567   5.008   3.537   8.693 -0.0642 -1.7919  2.0423
   42CHL1  H21B 5568   5.173   3.563   8.632 -0.3301 -0.1993 -0.4555
   42CHL1  H21C 5569   5.123   3.646   8.786 -0.1177 -0.0402  0.8571
   42CHL1   C22 5570   5.152   3.306   8.745 -0.0503  0.5232  0.4151
   42CHL1  H22A 5571   5.187   3.218   8.804  0.2127  0.7858  0.6505
   42CHL1  H22B 5572   5.042   3.296   8.733 -0.0476  0.1177  0.6844
   42CHL1   C23 5573   5.216   3.274   8.606 -0.4534 -0.7169  0.0771
   42CHL1  H23A 5574   5.174   3.344   8.531 -1.6050 -2.6989 -1.1634
   42CHL1  H23B 5575   5.327   3.285   8.611 -0.7312  2.5849  0.0535
   42CHL1   C24 5576   5.192   3.133   8.546 -0.0218  0.4585 -0.0115
   42CHL1  H24A 5577   5.206   3.052   8.621  0.3463  1.2732  0.8055
   42CHL1  H24B 5578   5.084   3.123   8.519 -0.3573  0.0476  1.4458
   42CHL1   C25 5579   5.281   3.102   8.426 -0.3194  0.3042  0.5055
   42CHL1   H25 5580   5.228   3.016   8.381  0.7139  1.5629 -3.3286
   42CHL1   C26 5581   5.287   3.211   8.315 -0.3718  0.0411  0.9616
   42CHL1  H26A 5582   5.295   3.310   8.364  2.3424 -0.1781  1.0611
   42CHL1  H26B 5583   5.369   3.183   8.245 -1.4567 -2.6504  0.6912
   42CHL1  H26C 5584   5.196   3.215   8.252 -0.1170 -1.7830  0.4494
   42CHL1   C27 5585   5.424   3.067   8.470 -0.5670 -0.1698 -0.7352
   42CHL1  H27A 5586   5.428   2.984   8.544  1.4840 -1.0081 -1.7203
   42CHL1  H27B 5587   5.489   3.023   8.390  0.2371 -0.6505  0.1715
   42CHL1  H27C 5588   5.486   3.151   8.507 -1.3862 -0.2475  0.8346
   43CHL1    C3 5589   6.254   3.249   9.996 -0.4686 -0.4595  0.1282
   43CHL1    H3 5590   6.349   3.250   9.938  0.2318  0.0216  1.2675
   43CHL1    O3 5591   6.280   3.221  10.129 -0.1845 -0.2888 -0.0453
   43CHL1   H3' 5592   6.331   3.299  10.153 -0.3854  0.3311 -1.5835
   43CHL1    C4 5593   6.167   3.372   9.986 -0.9090 -0.6929 -0.2563
   43CHL1   H4A 5594   6.075   3.351  10.044 -0.6220  1.5080  1.0673
   43CHL1   H4B 5595   6.209   3.460  10.040 -1.5639  0.2454 -1.2484
   43CHL1    C5 5596   6.146   3.401   9.836  0.2874  0.3673 -0.4150
   43CHL1    C6 5597   6.183   3.518   9.779  0.2574  0.3053  0.2797
   43CHL1    H6 5598   6.237   3.595   9.837 -0.2349  0.9654 -0.1398
   43CHL1    C7 5599   6.146   3.558   9.637 -0.3914  0.0416  0.2835
   43CHL1   H7A 5600   6.099   3.657   9.651  2.2579  0.9152  3.4668
   43CHL1   H7B 5601   6.233   3.580   9.572 -1.9047  0.5843 -1.6012
   43CHL1    C8 5602   6.055   3.457   9.554 -0.3954  0.4732  0.0117
   43CHL1    H8 5603   5.949   3.486   9.567 -0.8146 -1.0345  0.0777
   43CHL1   C14 5604   6.084   3.458   9.400 -0.1859 -0.2635 -0.1112
   43CHL1   H14 5605   6.192   3.432   9.400  0.4869  2.3293  1.7378
   43CHL1   C15 5606   6.074   3.592   9.323  0.0520 -0.0188 -0.2895
   43CHL1  H15A 5607   5.987   3.653   9.355  1.8794  1.3302  2.2445
   43CHL1  H15B 5608   6.170   3.646   9.337  0.4175 -1.1347  1.6903
   43CHL1   C16 5609   6.068   3.539   9.177 -0.3046 -0.4017 -0.1119
   43CHL1  H16A 5610   5.965   3.567   9.148 -0.3286 -1.7750 -1.4688
   43CHL1  H16B 5611   6.144   3.599   9.122 -0.5363  0.7443  0.7973
   43CHL1   C17 5612   6.065   3.385   9.176  0.7026  0.2268 -0.4520
   43CHL1   H17 5613   6.174   3.364   9.188  0.1133 -1.5658  2.1867
   43CHL1   C13 5614   6.010   3.350   9.315 -0.3507 -0.1773 -0.3525
   43CHL1   C18 5615   5.859   3.380   9.328 -1.3127 -0.5468 -0.0603
   43CHL1  H18A 5616   5.824   3.469   9.272 -0.7134 -0.8469 -0.9090
   43CHL1  H18B 5617   5.806   3.289   9.292 -1.1668  0.4548 -2.8840
   43CHL1  H18C 5618   5.824   3.397   9.432 -0.5950  5.7523 -0.6822
   43CHL1   C12 5619   6.050   3.209   9.371 -0.5958 -0.4357  0.2382
   43CHL1  H12A 5620   6.006   3.127   9.311 -1.9919 -0.3909  1.1719
   43CHL1  H12B 5621   6.161   3.202   9.364 -0.4051  1.4441  0.9891
   43CHL1   C11 5622   6.025   3.200   9.520  0.1267  0.1095  0.3736
   43CHL1  H11A 5623   5.915   3.199   9.538  0.3364 -0.9294  1.6575
   43CHL1  H11B 5624   6.050   3.097   9.553  1.2196 -0.5093 -2.2345
   43CHL1    C9 5625   6.084   3.316   9.603  0.0520 -0.3367  0.0237
   43CHL1    H9 5626   6.187   3.287   9.574  0.0341 -1.3788  1.0046
   43CHL1   C10 5627   6.071   3.295   9.757  0.5550  0.5815 -0.5398
   43CHL1   C19 5628   5.924   3.290   9.799  0.4827 -0.3867 -0.0088
   43CHL1  H19A 5629   5.909   3.256   9.904  0.9095  0.6914  0.3979
   43CHL1  H19B 5630   5.876   3.389   9.788 -1.9230 -1.5015  0.0367
   43CHL1  H19C 5631   5.864   3.219   9.738 -0.5755 -0.2887  0.8942
   43CHL1    C1 5632   6.146   3.158   9.792  0.0249  0.1019  0.1310
   43CHL1   H1A 5633   6.087   3.081   9.738  1.0865 -0.0430 -0.8397
   43CHL1   H1B 5634   6.249   3.137   9.757 -0.7931 -2.1214 -1.0391
   43CHL1    C2 5635   6.177   3.131   9.940 -0.0517 -0.0740  0.5342
   43CHL1   H2A 5636   6.230   3.037   9.966  1.3244  0.5730  0.1003
   43CHL1   H2B 5637   6.075   3.117   9.983 -0.9902  2.7792 -0.6470
   43CHL1   C20 5638   6.003   3.323   9.045 -0.1625  0.0845 -0.0895
   43CHL1   H20 5639   5.895   3.352   9.046  0.2519  1.7070 -1.3145
   43CHL1   C21 5640   6.010   3.169   9.043  0.3576  0.2833 -0.2924
   43CHL1  H21A 5641   5.966   3.139   8.945 -0.0133 -0.9583  0.2395
   43CHL1  H21B 5642   5.963   3.113   9.127 -0.0137  0.3586 -0.4476
   43CHL1  H21C 5643   6.117   3.140   9.035 -0.0323 -1.6622  0.9916
   43CHL1   C22 5644   6.048   3.390   8.909 -0.1548 -0.6660  0.1775
   43CHL1  H22A 5645   5.982   3.360   8.825  1.0562 -1.3798 -0.5456
   43CHL1  H22B 5646   6.035   3.500   8.918  0.7663 -0.5202 -0.2149
   43CHL1   C23 5647   6.198   3.366   8.869 -0.1407 -0.2198  0.5300
   43CHL1  H23A 5648   6.270   3.394   8.950  0.5927  0.5269 -0.3538
   43CHL1  H23B 5649   6.212   3.258   8.846  3.1455 -0.4088  3.0336
   43CHL1   C24 5650   6.238   3.442   8.738 -0.8211 -0.7339  0.0428
   43CHL1  H24A 5651   6.176   3.388   8.663  0.4827  0.7687 -2.2117
   43CHL1  H24B 5652   6.200   3.547   8.744  2.0339  0.3185  0.4567
   43CHL1   C25 5653   6.392   3.447   8.708  0.1446 -0.4695 -0.1640
   43CHL1   H25 5654   6.394   3.491   8.606 -2.1160  0.6625  0.2458
   43CHL1   C26 5655   6.469   3.541   8.807 -0.0996  0.5271  0.0527
   43CHL1  H26A 5656   6.579   3.547   8.791 -0.2242 -1.0774 -1.4946
   43CHL1  H26B 5657   6.424   3.642   8.798  0.5266  0.6385 -2.0368
   43CHL1  H26C 5658   6.450   3.502   8.910 -2.9346  1.5992 -0.0327
   43CHL1   C27 5659   6.456   3.307   8.709  0.2766  0.4009 -0.0133
   43CHL1  H27A 5660   6.444   3.253   8.806 -0.6271 -0.7078 -0.7271
   43CHL1  H27B 5661   6.416   3.235   8.634 -1.1268 -1.3206  2.2790
   43CHL1  H27C 5662   6.567   3.306   8.702  0.4350  1.4254  1.9749
   44CHL1    C3 5663   6.132   4.126  10.172 -0.1137 -0.0496  0.1215
   44CHL1    H3 5664   6.039   4.065  10.175 -0.2212  0.0825 -0.5636
   44CHL1    O3 5665   6.167   4.141  10.310 -0.1203  0.5612  0.1851
   44CHL1   H3' 5666   6.240   4.203  10.309 -0.7873  1.3627  0.5465
   44CHL1    C4 5667   6.243   4.058  10.088  0.2895 -0.7596 -0.0970
   44CHL1   H4A 5668   6.338   4.113  10.107 -0.6310  0.6909  0.3764
   44CHL1   H4B 5669   6.255   3.960  10.139  1.0613 -0.0319  1.1414
   44CHL1    C5 5670   6.200   4.053   9.945 -0.4412  0.3903 -0.5599
   44CHL1    C6 5671   6.197   3.938   9.877 -0.0724 -0.0105  0.3238
   44CHL1    H6 5672   6.235   3.854   9.937  0.6843 -0.1608 -0.3470
   44CHL1    C7 5673   6.170   3.929   9.733 -0.3565 -0.5181 -0.5621
   44CHL1   H7A 5674   6.251   3.863   9.694  1.8594  0.8292  1.6363
   44CHL1   H7B 5675   6.070   3.882   9.727  0.0212 -1.3189 -0.6359
   44CHL1    C8 5676   6.159   4.064   9.657  0.1617 -0.0213 -0.2060
   44CHL1    H8 5677   6.261   4.103   9.636 -0.0827  1.2012  0.7557
   44CHL1   C14 5678   6.073   4.048   9.529 -0.0612 -0.4847 -0.1219
   44CHL1   H14 5679   5.969   4.026   9.560  0.4194 -0.9253  1.2226
   44CHL1   C15 5680   6.114   3.934   9.428  0.3721 -0.0656 -0.2727
   44CHL1  H15A 5681   6.225   3.933   9.431  0.3229 -1.1759  2.4900
   44CHL1  H15B 5682   6.078   3.832   9.454  0.9614 -0.4426 -0.9407
   44CHL1   C16 5683   6.063   3.980   9.293 -0.9608  0.9287  0.8637
   44CHL1  H16A 5684   6.145   3.993   9.220 -2.0495 -0.1759 -0.5855
   44CHL1  H16B 5685   6.004   3.911   9.229  0.3969 -1.4814  2.1628
   44CHL1   C17 5686   6.003   4.122   9.313  0.5992  0.0728  0.2991
   44CHL1   H17 5687   5.898   4.098   9.340  0.4152  0.2561 -0.2507
   44CHL1   C13 5688   6.070   4.179   9.440  0.4433 -0.1172 -0.9523
   44CHL1   C18 5689   6.207   4.236   9.403  0.9410  0.4443  0.0949
   44CHL1  H18A 5690   6.273   4.151   9.374 -0.3784 -0.7265  0.4732
   44CHL1  H18B 5691   6.213   4.313   9.323  0.1004  0.1114 -0.3006
   44CHL1  H18C 5692   6.255   4.279   9.494  1.0843 -0.6169  0.5239
   44CHL1   C12 5693   5.986   4.275   9.536  0.1892 -0.0175 -0.4621
   44CHL1  H12A 5694   5.969   4.373   9.487  0.8195  0.5581  0.4577
   44CHL1  H12B 5695   5.887   4.228   9.554  1.5114 -2.4089  0.8083
   44CHL1   C11 5696   6.054   4.296   9.667 -0.0067  0.0109 -0.2828
   44CHL1  H11A 5697   6.156   4.340   9.655  0.2152  0.0350  1.5703
   44CHL1  H11B 5698   5.997   4.367   9.730  1.8030  0.4061  0.9534
   44CHL1    C9 5699   6.089   4.168   9.743  0.5755 -0.2394  0.0502
   44CHL1    H9 5700   5.995   4.121   9.777  1.0987 -0.7871  0.7630
   44CHL1   C10 5701   6.165   4.189   9.879  0.0633  0.1120  0.6829
   44CHL1   C19 5702   6.294   4.273   9.864 -0.6872 -0.9140  0.7037
   44CHL1  H19A 5703   6.347   4.297   9.959 -1.3755  1.1201  0.5850
   44CHL1  H19B 5704   6.368   4.215   9.805  1.7569  1.7503  1.0190
   44CHL1  H19C 5705   6.288   4.360   9.795 -0.7815 -1.5215 -0.0599
   44CHL1    C1 5706   6.060   4.256   9.978  0.2844  0.1041  0.5013
   44CHL1   H1A 5707   6.039   4.362   9.950 -2.1122 -0.4943 -0.0517
   44CHL1   H1B 5708   5.967   4.196   9.973  0.8178 -0.8284  1.5437
   44CHL1    C2 5709   6.097   4.263  10.122 -0.6419  0.4095  0.4004
   44CHL1   H2A 5710   6.009   4.299  10.180  0.5773 -0.1156  2.6049
   44CHL1   H2B 5711   6.167   4.349  10.132 -0.9420  0.9810 -1.9485
   44CHL1   C20 5712   6.011   4.211   9.188  0.2208  0.0951 -0.4730
   44CHL1   H20 5713   6.118   4.215   9.159  0.0302  2.9838 -0.8947
   44CHL1   C21 5714   5.964   4.357   9.215  0.3651  0.0150 -0.1350
   44CHL1  H21A 5715   6.041   4.403   9.281 -0.0897  0.5561  0.0250
   44CHL1  H21B 5716   5.869   4.364   9.273  1.6324 -3.3810  2.4841
   44CHL1  H21C 5717   5.936   4.416   9.125 -1.4184 -2.4285 -1.2141
   44CHL1   C22 5718   5.925   4.153   9.073 -0.3274  0.3870 -0.1406
   44CHL1  H22A 5719   5.942   4.044   9.058 -1.7164  0.1234  0.0974
   44CHL1  H22B 5720   5.820   4.171   9.105 -0.6413 -1.8988  0.2016
   44CHL1   C23 5721   5.945   4.219   8.938 -0.1661 -0.5518  0.2696
   44CHL1  H23A 5722   5.907   4.322   8.954 -0.3749 -0.8945  2.0344
   44CHL1  H23B 5723   6.055   4.215   8.918 -0.2162  0.4677 -0.2060
   44CHL1   C24 5724   5.870   4.140   8.831 -0.4553 -0.1740  0.2245
   44CHL1  H24A 5725   5.893   4.032   8.845 -0.1748 -0.0689  0.5850
   44CHL1  H24B 5726   5.763   4.142   8.860 -0.5403 -0.8521 -0.0249
   44CHL1   C25 5727   5.891   4.190   8.681 -0.4520 -0.8521 -0.2431
   44CHL1   H25 5728   5.862   4.296   8.660  2.8493  0.0028 -0.8070
   44CHL1   C26 5729   6.035   4.184   8.637 -0.6210 -0.0242 -0.6302
   44CHL1  H26A 5730   6.100   4.252   8.698 -0.1948 -1.1062  0.1278
   44CHL1  H26B 5731   6.073   4.084   8.667  1.2017  0.6025 -0.7282
   44CHL1  H26C 5732   6.056   4.208   8.531 -1.7448  1.9282 -0.4416
   44CHL1   C27 5733   5.811   4.107   8.589 -0.0943 -0.2493 -0.2013
   44CHL1  H27A 5734   5.846   4.002   8.596 -1.5491 -0.7932 -0.7490
   44CHL1  H27B 5735   5.705   4.124   8.618 -0.3495 -2.1994  0.0818
   44CHL1  H27C 5736   5.825   4.130   8.481  1.2265  1.4004  0.2964
   45CHL1    C3 5737   2.902   2.224  10.266  0.1946 -0.7716  0.2018
   45CHL1    H3 5738   2.822   2.148  10.253 -0.4608  0.1646 -1.3729
   45CHL1    O3 5739   2.918   2.247  10.407 -0.0786 -0.0358  0.7104
   45CHL1   H3' 5740   2.859   2.318  10.430  1.3824  1.5588 -0.3646
   45CHL1    C4 5741   3.032   2.194  10.201 -0.3972 -0.4125 -0.4892
   45CHL1   H4A 5742   3.094   2.279  10.239  1.4580 -2.5659  1.4134
   45CHL1   H4B 5743   3.069   2.103  10.252 -0.0843  2.4195  4.6731
   45CHL1    C5 5744   3.021   2.190  10.049  0.7660 -1.0458  0.4216
   45CHL1    C6 5745   3.079   2.089   9.979 -0.0818 -1.2108 -0.5946
   45CHL1    H6 5746   3.136   2.023  10.044 -1.2088 -0.1986  1.4716
   45CHL1    C7 5747   3.082   2.088   9.823 -0.3656 -0.2787 -0.4749
   45CHL1   H7A 5748   3.186   2.105   9.788  0.0739  0.2809  1.0899
   45CHL1   H7B 5749   3.056   1.981   9.802  0.2219 -0.3573 -0.7990
   45CHL1    C8 5750   2.980   2.174   9.750  0.0157 -0.5295  0.0050
   45CHL1    H8 5751   2.929   2.092   9.695  0.1960 -0.8180  0.2643
   45CHL1   C14 5752   3.038   2.259   9.634  1.2581 -0.3386  0.6198
   45CHL1   H14 5753   3.109   2.338   9.665  1.1549  0.1738 -0.4443
   45CHL1   C15 5754   3.118   2.172   9.535 -0.1864 -0.1195  0.4847
   45CHL1  H15A 5755   3.227   2.179   9.554  0.2620 -2.6714 -0.8188
   45CHL1  H15B 5756   3.100   2.062   9.534 -0.3305 -0.0969 -0.9386
   45CHL1   C16 5757   3.090   2.228   9.397 -0.0607 -0.2303  0.1746
   45CHL1  H16A 5758   3.164   2.310   9.380  0.7761 -1.0129  0.0284
   45CHL1  H16B 5759   3.111   2.167   9.306 -0.0512  0.2311 -0.1369
   45CHL1   C17 5760   2.942   2.286   9.398 -0.4813 -0.4417  0.2394
   45CHL1   H17 5761   2.874   2.198   9.400 -0.2859 -0.5720  2.1001
   45CHL1   C13 5762   2.923   2.329   9.550  0.0166  0.3645 -0.6078
   45CHL1   C18 5763   2.956   2.481   9.565 -0.0223  0.6191 -0.2469
   45CHL1  H18A 5764   3.057   2.507   9.527 -0.7381 -1.2024 -3.6661
   45CHL1  H18B 5765   2.884   2.545   9.509  0.9851  2.3076  0.3720
   45CHL1  H18C 5766   2.961   2.491   9.675 -0.7751 -0.9755 -0.0532
   45CHL1   C12 5767   2.781   2.310   9.612 -0.1798  0.2022 -0.2175
   45CHL1  H12A 5768   2.716   2.380   9.555 -0.5213  0.4982  0.5291
   45CHL1  H12B 5769   2.753   2.208   9.578 -0.9670 -0.1071  1.3304
   45CHL1   C11 5770   2.786   2.335   9.762  0.4047  0.0169 -0.0595
   45CHL1  H11A 5771   2.796   2.441   9.792  0.9462 -0.0456 -0.0268
   45CHL1  H11B 5772   2.684   2.319   9.803  0.3014 -2.8999 -1.3279
   45CHL1    C9 5773   2.881   2.240   9.840 -0.2843 -0.4863  0.6355
   45CHL1    H9 5774   2.814   2.155   9.864  2.1457 -2.4397  0.6640
   45CHL1   C10 5775   2.931   2.295   9.977 -0.0149  0.2106 -0.7547
   45CHL1   C19 5776   3.019   2.422   9.951 -0.2367  0.0736  0.1112
   45CHL1  H19A 5777   3.077   2.415   9.857 -1.4290  0.3277 -0.6467
   45CHL1  H19B 5778   2.954   2.511   9.933  0.7730  0.5579 -1.1981
   45CHL1  H19C 5779   3.086   2.460  10.031 -1.9550  0.7571  1.2457
   45CHL1    C1 5780   2.819   2.336  10.067  0.1581  0.4475  0.2620
   45CHL1   H1A 5781   2.783   2.436  10.034  0.0209  0.3889  0.2338
   45CHL1   H1B 5782   2.733   2.268  10.049  0.2992 -0.0676  1.4640
   45CHL1    C2 5783   2.854   2.356  10.216  0.1226 -0.2334 -0.9783
   45CHL1   H2A 5784   2.769   2.396  10.275  1.0388  1.8440 -1.0379
   45CHL1   H2B 5785   2.936   2.430  10.215 -0.2410  0.2661  2.0656
   45CHL1   C20 5786   2.903   2.377   9.278  0.0413 -1.0449  0.1274
   45CHL1   H20 5787   2.963   2.469   9.295 -2.9214  0.8662  0.6409
   45CHL1   C21 5788   2.760   2.409   9.304  0.6106  0.4735  0.2300
   45CHL1  H21A 5789   2.699   2.319   9.325 -0.4396  0.9139 -0.7917
   45CHL1  H21B 5790   2.716   2.458   9.213  0.1512  0.6168  0.5279
   45CHL1  H21C 5791   2.749   2.478   9.391  2.6544 -2.0029  2.4986
   45CHL1   C22 5792   2.921   2.308   9.139 -0.3617 -0.5465  0.4861
   45CHL1  H22A 5793   3.025   2.271   9.136  0.2606  1.2467 -1.5804
   45CHL1  H22B 5794   2.868   2.210   9.141  1.4352 -1.5401 -0.1382
   45CHL1   C23 5795   2.906   2.411   9.026 -0.2099  0.1633 -0.1427
   45CHL1  H23A 5796   2.798   2.432   9.007 -0.3602  1.5825  2.0737
   45CHL1  H23B 5797   2.949   2.509   9.055 -1.5298  0.3772  1.1762
   45CHL1   C24 5798   2.968   2.367   8.885 -0.5662 -0.0560 -0.3984
   45CHL1  H24A 5799   3.072   2.333   8.905 -0.2642  0.6264 -0.7951
   45CHL1  H24B 5800   2.905   2.287   8.841  0.7158 -0.1088 -2.1765
   45CHL1   C25 5801   2.992   2.489   8.791  0.2178 -0.6830  0.3063
   45CHL1   H25 5802   2.907   2.560   8.800  0.9897  0.1827  0.9090
   45CHL1   C26 5803   3.116   2.568   8.829  0.8214 -0.5256 -0.6213
   45CHL1  H26A 5804   3.115   2.604   8.934  0.0417 -1.1884 -0.3968
   45CHL1  H26B 5805   3.202   2.500   8.810 -1.8350 -4.4466  0.8391
   45CHL1  H26C 5806   3.121   2.653   8.757  1.3794 -0.0291  0.0019
   45CHL1   C27 5807   3.002   2.445   8.648  0.3363  0.4367 -0.3291
   45CHL1  H27A 5808   3.084   2.372   8.632  1.6781  1.7638  0.3321
   45CHL1  H27B 5809   2.915   2.381   8.622 -0.1638  1.3047 -0.8349
   45CHL1  H27C 5810   3.013   2.534   8.582  1.4529  2.1474  2.1014
   46CHL1    C3 5811   5.811   0.197  10.101 -0.2791  0.2313  0.1664
   46CHL1    H3 5812   5.861   0.296  10.094  0.9415 -0.4480 -0.8920
   46CHL1    O3 5813   5.812   0.168  10.236  0.1503  0.2852 -0.4694
   46CHL1   H3' 5814   5.853   0.083  10.249 -1.0586  0.0359  2.0226
   46CHL1    C4 5815   5.661   0.202  10.037 -0.1789  0.7484 -0.4289
   46CHL1   H4A 5816   5.613   0.103  10.052  2.5172 -0.5321  0.2356
   46CHL1   H4B 5817   5.612   0.290  10.085 -2.6348  0.4526 -2.3293
   46CHL1    C5 5818   5.675   0.226   9.888  0.3860  0.7387  0.1501
   46CHL1    C6 5819   5.605   0.327   9.832 -0.4262  0.2564  0.2062
   46CHL1    H6 5820   5.539   0.397   9.884 -2.6659 -0.9282 -0.9615
   46CHL1    C7 5821   5.607   0.353   9.686 -0.2051  1.4127 -0.0330
   46CHL1   H7A 5822   5.505   0.376   9.648 -0.9429 -1.9486 -0.2285
   46CHL1   H7B 5823   5.663   0.445   9.660  1.5872  0.9434  2.0165
   46CHL1    C8 5824   5.659   0.232   9.601  0.7048  0.1447  0.7517
   46CHL1    H8 5825   5.580   0.153   9.608 -0.6336  1.2547 -1.2710
   46CHL1   C14 5826   5.677   0.271   9.448  0.5416  0.1096 -0.0764
   46CHL1   H14 5827   5.750   0.354   9.454  0.1984  0.4661 -0.8967
   46CHL1   C15 5828   5.564   0.323   9.367  0.7363  0.8554 -0.2332
   46CHL1  H15A 5829   5.468   0.273   9.391 -0.0097  2.8286  1.0425
   46CHL1  H15B 5830   5.547   0.432   9.381  1.2781  0.9142 -0.0199
   46CHL1   C16 5831   5.608   0.308   9.222  0.0313 -0.3601  0.6474
   46CHL1  H16A 5832   5.539   0.237   9.171  2.7775 -1.4901 -1.6288
   46CHL1  H16B 5833   5.602   0.404   9.165  2.5376  0.9164  2.4638
   46CHL1   C17 5834   5.749   0.234   9.223  0.3684 -0.2825 -0.5831
   46CHL1   H17 5835   5.826   0.314   9.229  0.9690 -0.7705 -1.7652
   46CHL1   C13 5836   5.755   0.169   9.365 -0.2960  0.4291 -0.0458
   46CHL1   C18 5837   5.664   0.037   9.352 -0.3900 -0.4767  0.5956
   46CHL1  H18A 5838   5.665  -0.010   9.453  1.0467 -0.0236  0.8031
   46CHL1  H18B 5839   5.559   0.070   9.338  0.4577  1.8295 -0.7431
   46CHL1  H18C 5840   5.695  -0.031   9.270  0.3426  0.7750 -0.1795
   46CHL1   C12 5841   5.886   0.135   9.422  0.3512 -0.1572 -0.0693
   46CHL1  H12A 5842   5.931   0.050   9.365  0.1420  0.4366 -1.1342
   46CHL1  H12B 5843   5.966   0.212   9.421 -1.5768  1.9356  1.7485
   46CHL1   C11 5844   5.876   0.083   9.571 -0.2425 -0.4051 -0.5415
   46CHL1  H11A 5845   5.841  -0.022   9.562  0.1782 -0.5989  0.0372
   46CHL1  H11B 5846   5.978   0.095   9.614 -0.8339  0.8257  0.5300
   46CHL1    C9 5847   5.789   0.180   9.663  0.7126  0.0034  0.8662
   46CHL1    H9 5848   5.856   0.268   9.677  1.9719 -1.1133  2.0527
   46CHL1   C10 5849   5.773   0.133   9.810 -0.2783  0.0120 -0.6224
   46CHL1   C19 5850   5.723  -0.008   9.800  0.2920 -0.3656 -0.4778
   46CHL1  H19A 5851   5.805  -0.073   9.762  0.1349 -0.3376 -0.8762
   46CHL1  H19B 5852   5.686  -0.059   9.892  0.2214  2.1144  0.9019
   46CHL1  H19C 5853   5.651  -0.012   9.715  0.9923  0.0725 -1.0908
   46CHL1    C1 5854   5.911   0.138   9.886 -0.0610  0.0899  0.7213
   46CHL1   H1A 5855   5.977   0.069   9.829 -0.0730  1.2680 -0.7595
   46CHL1   H1B 5856   5.970   0.231   9.868 -0.0714 -0.5496 -3.1379
   46CHL1    C2 5857   5.905   0.099  10.031 -0.4630  0.2914 -0.0467
   46CHL1   H2A 5858   6.008   0.095  10.073 -1.3500  0.6635  2.2657
   46CHL1   H2B 5859   5.867  -0.005  10.047  1.7124 -0.3022  1.5405
   46CHL1   C20 5860   5.769   0.155   9.090  0.3913 -0.2026 -0.2491
   46CHL1   H20 5861   5.687   0.082   9.078  1.1487 -1.3768  1.4938
   46CHL1   C21 5862   5.904   0.074   9.104  0.0165 -0.9588  0.0031
   46CHL1  H21A 5863   5.979   0.145   9.144  0.5189 -1.6430  0.2928
   46CHL1  H21B 5864   5.931   0.039   9.002  0.4444 -0.9546  0.1168
   46CHL1  H21C 5865   5.902  -0.013   9.172 -2.1249  0.5564  1.9620
   46CHL1   C22 5866   5.765   0.247   8.967 -0.8715  0.9818  0.6632
   46CHL1  H22A 5867   5.672   0.308   8.970 -1.5421  0.2397 -2.8964
   46CHL1  H22B 5868   5.843   0.322   8.990 -0.1260  0.6275 -0.6659
   46CHL1   C23 5869   5.780   0.176   8.829 -0.3222 -0.0791 -0.7192
   46CHL1  H23A 5870   5.764   0.258   8.756 -0.6103  0.7429  0.2502
   46CHL1  H23B 5871   5.886   0.144   8.828 -0.2692 -0.2444  3.3628
   46CHL1   C24 5872   5.683   0.072   8.795 -0.4153  0.8971  0.0781
   46CHL1  H24A 5873   5.681  -0.005   8.875 -1.9620 -0.2985 -1.0837
   46CHL1  H24B 5874   5.584   0.122   8.793 -1.1429 -0.5497 -0.2546
   46CHL1   C25 5875   5.715   0.003   8.666 -0.1703  0.3436  0.1981
   46CHL1   H25 5876   5.635  -0.066   8.632  0.6250 -0.6769  0.3565
   46CHL1   C26 5877   5.713   0.106   8.553 -0.6015  0.0571 -0.7923
   46CHL1  H26A 5878   5.782   0.193   8.567  2.4542 -1.8837 -3.0875
   46CHL1  H26B 5879   5.756   0.061   8.461  1.8332 -0.2234  0.4522
   46CHL1  H26C 5880   5.606   0.135   8.552 -0.9396 -0.5610  4.9107
   46CHL1   C27 5881   5.844  -0.068   8.675  0.5881 -0.5561 -0.0356
   46CHL1  H27A 5882   5.875  -0.114   8.579  2.2086  2.1046 -0.8463
   46CHL1  H27B 5883   5.929  -0.002   8.705  0.6036 -1.0451  1.0310
   46CHL1  H27C 5884   5.822  -0.154   8.741 -3.1483  0.5856  0.3326
   47CHL1    C3 5885   6.668   3.710  10.144  0.2728  0.3685  0.3824
   47CHL1    H3 5886   6.745   3.787  10.160  2.3206 -1.7230  0.8279
   47CHL1    O3 5887   6.635   3.660  10.274  0.0118 -0.1340  0.0722
   47CHL1   H3' 5888   6.715   3.614  10.300 -0.6414 -0.8478  0.8408
   47CHL1    C4 5889   6.543   3.768  10.073  0.1649  0.2480  0.3273
   47CHL1   H4A 5890   6.457   3.698  10.071  0.5843 -0.2344 -1.6277
   47CHL1   H4B 5891   6.519   3.859  10.132  2.4134  0.6002  0.7167
   47CHL1    C5 5892   6.574   3.814   9.930  0.3538  0.1192  0.7539
   47CHL1    C6 5893   6.552   3.940   9.882 -0.3741  0.7496 -0.0849
   47CHL1    H6 5894   6.506   4.022   9.939 -1.7978  0.8987 -1.4153
   47CHL1    C7 5895   6.576   3.982   9.738 -0.4603 -0.0532  1.0090
   47CHL1   H7A 5896   6.485   4.040   9.710  0.1801 -0.3163 -1.7422
   47CHL1   H7B 5897   6.663   4.051   9.735  0.3821 -1.1062  0.6177
   47CHL1    C8 5898   6.605   3.862   9.646  0.1828  0.6861 -0.7401
   47CHL1    H8 5899   6.508   3.811   9.626  1.5445 -1.6859 -1.5808
   47CHL1   C14 5900   6.666   3.904   9.515  0.0990 -0.0723 -0.0567
   47CHL1   H14 5901   6.768   3.941   9.540  0.5285 -0.2794 -1.4405
   47CHL1   C15 5902   6.589   4.018   9.440  0.8905  0.1031  0.0154
   47CHL1  H15A 5903   6.479   4.006   9.430  0.5381  2.2335  0.9229
   47CHL1  H15B 5904   6.609   4.117   9.487 -0.2868 -0.2004  1.1705
   47CHL1   C16 5905   6.657   4.005   9.302  0.3432  0.2843 -0.0429
   47CHL1  H16A 5906   6.580   4.013   9.222  2.0205  0.8277 -1.6448
   47CHL1  H16B 5907   6.715   4.095   9.270  1.6388 -1.0012 -1.4106
   47CHL1   C17 5908   6.732   3.869   9.291  0.0282  0.6405 -0.0418
   47CHL1   H17 5909   6.837   3.897   9.314  0.8967 -1.3990 -1.3337
   47CHL1   C13 5910   6.686   3.791   9.414  0.1317 -0.2140  0.0045
   47CHL1   C18 5911   6.549   3.724   9.383  0.1154  0.0096 -0.3068
   47CHL1  H18A 5912   6.502   3.676   9.472  2.0996  1.3021  1.5001
   47CHL1  H18B 5913   6.472   3.800   9.357 -0.0770 -0.2744 -0.5694
   47CHL1  H18C 5914   6.552   3.647   9.304 -1.3327  0.5887 -0.9544
   47CHL1   C12 5915   6.779   3.685   9.466  0.5971 -0.3012  0.0339
   47CHL1  H12A 5916   6.771   3.590   9.410  0.5787 -0.5584  0.4689
   47CHL1  H12B 5917   6.886   3.712   9.459  0.4054  0.4135 -0.1782
   47CHL1   C11 5918   6.734   3.637   9.612  0.3338 -0.6744 -0.0214
   47CHL1  H11A 5919   6.644   3.574   9.592  0.4541  0.4087 -4.3407
   47CHL1  H11B 5920   6.820   3.574   9.645 -0.6692 -2.8532 -1.4538
   47CHL1    C9 5921   6.697   3.752   9.706  0.5785 -0.3048 -0.4221
   47CHL1    H9 5922   6.791   3.809   9.725 -0.4850  2.1916 -2.4694
   47CHL1   C10 5923   6.645   3.707   9.848  0.4217 -0.1715 -0.2774
   47CHL1   C19 5924   6.542   3.595   9.829 -0.6614  0.1552 -0.1965
   47CHL1  H19A 5925   6.464   3.622   9.755  1.0691  0.4197 -1.9574
   47CHL1  H19B 5926   6.610   3.513   9.797  1.0087  1.8928 -1.2127
   47CHL1  H19C 5927   6.503   3.558   9.927 -1.4902  0.6848 -0.3258
   47CHL1    C1 5928   6.774   3.652   9.925  0.0274  0.3031 -0.3959
   47CHL1   H1A 5929   6.821   3.575   9.861 -0.0185 -0.2159  0.1884
   47CHL1   H1B 5930   6.844   3.738   9.924 -0.5095  0.7702  0.6259
   47CHL1    C2 5931   6.736   3.599  10.064  0.2188 -0.5940 -1.3153
   47CHL1   H2A 5932   6.826   3.568  10.120 -0.7164  0.1611  0.6605
   47CHL1   H2B 5933   6.667   3.512  10.058 -0.2943 -0.2968  0.1319
   47CHL1   C20 5934   6.728   3.805   9.151 -0.3075 -0.8112  0.0853
   47CHL1   H20 5935   6.624   3.783   9.119 -0.0780 -0.1227 -1.1625
   47CHL1   C21 5936   6.808   3.674   9.151 -0.6270  0.4630  0.0347
   47CHL1  H21A 5937   6.847   3.649   9.050 -0.4101 -2.1826  0.7242
   47CHL1  H21B 5938   6.752   3.587   9.191  1.0763 -1.2448 -1.2113
   47CHL1  H21C 5939   6.902   3.684   9.210 -0.1161  1.8605 -1.0031
   47CHL1   C22 5940   6.794   3.899   9.041 -0.3399  0.2257 -0.7464
   47CHL1  H22A 5941   6.755   4.002   9.053 -0.0879  0.5717 -2.7582
   47CHL1  H22B 5942   6.902   3.910   9.060 -0.3826  1.8537 -1.3939
   47CHL1   C23 5943   6.793   3.865   8.897 -0.4511  0.1394 -0.3645
   47CHL1  H23A 5944   6.850   3.773   8.872 -1.0765 -0.8908  1.9383
   47CHL1  H23B 5945   6.691   3.839   8.859 -0.2866 -0.4010 -0.4365
   47CHL1   C24 5946   6.850   3.969   8.797 -0.1908 -0.3498  0.5905
   47CHL1  H24A 5947   6.771   4.045   8.786  1.3965  1.0855 -1.2122
   47CHL1  H24B 5948   6.949   4.003   8.835 -0.0687 -0.9441  0.8173
   47CHL1   C25 5949   6.881   3.898   8.654  0.2061 -0.4245 -0.1848
   47CHL1   H25 5950   6.952   3.814   8.665  1.2158  0.3938 -0.3768
   47CHL1   C26 5951   6.759   3.826   8.596 -0.0055  0.2908 -0.1986
   47CHL1  H26A 5952   6.677   3.901   8.587 -1.1658 -0.7489  1.3622
   47CHL1  H26B 5953   6.718   3.754   8.670 -0.4002  1.3748  0.6532
   47CHL1  H26C 5954   6.791   3.772   8.505 -0.7782 -1.9090  0.7964
   47CHL1   C27 5955   6.949   3.992   8.550  0.2365  0.7591  0.4130
   47CHL1  H27A 5956   7.044   4.028   8.595  0.6574 -0.8582  0.8494
   47CHL1  H27B 5957   6.972   3.936   8.458  1.6036 -0.6619  1.5951
   47CHL1  H27C 5958   6.877   4.074   8.525  0.3235  0.6343 -0.2370
   48CHL1    C3 5959   0.266   3.821  10.205  0.4714 -0.8099 -0.0098
   48CHL1    H3 5960   0.186   3.752  10.171 -0.1934 -0.4600  0.8092
   48CHL1    O3 5961   0.292   3.783  10.337  0.0785  0.1947 -0.1358
   48CHL1   H3' 5962   0.341   3.859  10.370 -1.7395  2.1402 -1.8502
   48CHL1    C4 5963   0.389   3.796  10.114 -0.5497  0.0540 -0.9352
   48CHL1   H4A 5964   0.483   3.842  10.151 -1.5697  1.8793 -0.5793
   48CHL1   H4B 5965   0.418   3.690  10.133 -0.0234 -0.0962 -2.5354
   48CHL1    C5 5966   0.366   3.837   9.975 -0.6520 -0.2596 -0.8842
   48CHL1    C6 5967   0.374   3.755   9.872  0.4044  0.3187 -0.4752
   48CHL1    H6 5968   0.401   3.649   9.885 -1.0895 -0.0572 -0.3209
   48CHL1    C7 5969   0.339   3.783   9.731 -0.9520  1.1496  0.7024
   48CHL1   H7A 5970   0.406   3.734   9.657 -2.7691  0.2760 -0.4057
   48CHL1   H7B 5971   0.241   3.732   9.721  0.0693 -0.6307 -0.7325
   48CHL1    C8 5972   0.347   3.939   9.704  0.5258  0.3691  0.1027
   48CHL1    H8 5973   0.451   3.977   9.699  0.2308  1.0952 -0.5723
   48CHL1   C14 5974   0.282   3.977   9.567 -0.2253  0.3365 -0.0635
   48CHL1   H14 5975   0.178   3.939   9.562 -0.4015  1.0559 -2.3139
   48CHL1   C15 5976   0.348   3.912   9.445  0.3145  0.0746 -0.1773
   48CHL1  H15A 5977   0.458   3.911   9.457  0.6042  2.2252 -2.1682
   48CHL1  H15B 5978   0.304   3.810   9.440  0.3367  0.0283  0.6246
   48CHL1   C16 5979   0.308   4.007   9.328 -0.5496 -0.3034  0.0766
   48CHL1  H16A 5980   0.407   4.043   9.292 -1.8587 -0.1880 -3.6195
   48CHL1  H16B 5981   0.258   3.963   9.239  0.1857 -0.5056 -0.2402
   48CHL1   C17 5982   0.242   4.133   9.383 -0.1592 -0.1011 -0.4635
   48CHL1   H17 5983   0.132   4.114   9.379 -0.2410  0.5149 -1.2833
   48CHL1   C13 5984   0.277   4.129   9.537  0.5896 -0.3049  0.4476
   48CHL1   C18 5985   0.413   4.194   9.554  0.4329 -0.6222  0.3214
   48CHL1  H18A 5986   0.407   4.303   9.535 -2.0408 -0.9518 -0.8463
   48CHL1  H18B 5987   0.432   4.186   9.664 -0.0556  2.1738  0.6292
   48CHL1  H18C 5988   0.502   4.150   9.503 -1.2425 -2.4260 -1.0957
   48CHL1   C12 5989   0.179   4.194   9.635  0.0418  0.6854 -0.3498
   48CHL1  H12A 5990   0.174   4.304   9.624 -1.0893  0.5532 -1.1583
   48CHL1  H12B 5991   0.076   4.156   9.624 -0.2317  1.0624  0.8815
   48CHL1   C11 5992   0.218   4.163   9.780  0.3118  0.0151 -0.2265
   48CHL1  H11A 5993   0.297   4.234   9.810  0.4730 -0.1216 -0.3278
   48CHL1  H11B 5994   0.126   4.177   9.841 -0.5377 -0.8715 -1.2904
   48CHL1    C9 5995   0.258   4.008   9.814 -0.1393 -0.2965 -0.0406
   48CHL1    H9 5996   0.160   3.955   9.815 -0.9390  1.1173 -1.5031
   48CHL1   C10 5997   0.313   3.982   9.954 -0.6255 -0.0276  0.0817
   48CHL1   C19 5998   0.431   4.077   9.978 -0.2935 -0.0711  0.3460
   48CHL1  H19A 5999   0.494   4.087   9.887 -0.0993  0.9303  0.5863
   48CHL1  H19B 6000   0.403   4.184   9.992  0.1569  0.2804 -1.3397
   48CHL1  H19C 6001   0.503   4.037  10.052  0.2651  0.0874 -0.1109
   48CHL1    C1 6002   0.192   4.014  10.054  0.2340  0.4692 -0.4657
   48CHL1   H1A 6003   0.156   4.118  10.042 -0.8966  0.3558  1.6717
   48CHL1   H1B 6004   0.099   3.962  10.021  1.0003 -0.3510 -1.3646
   48CHL1    C2 6005   0.214   3.967  10.202  0.2300 -0.2727  0.1461
   48CHL1   H2A 6006   0.124   3.984  10.264  0.0457 -3.3956  0.8399
   48CHL1   H2B 6007   0.285   4.042  10.243  1.5455 -1.5222  0.2236
   48CHL1   C20 6008   0.268   4.251   9.296  0.5023 -0.0604 -0.3154
   48CHL1   H20 6009   0.376   4.277   9.296  0.7181 -0.9298  0.1072
   48CHL1   C21 6010   0.179   4.369   9.359  0.3166 -0.6470  0.3437
   48CHL1  H21A 6011   0.199   4.398   9.464  1.5338  0.2997 -0.1440
   48CHL1  H21B 6012   0.073   4.334   9.357  0.2728 -0.4647 -1.2844
   48CHL1  H21C 6013   0.171   4.465   9.303  1.4773 -0.4111  0.5800
   48CHL1   C22 6014   0.234   4.230   9.145  0.5977 -1.2032 -0.7405
   48CHL1  H22A 6015   0.280   4.138   9.103  0.9802 -0.3792 -2.1334
   48CHL1  H22B 6016   0.123   4.224   9.152  0.6735 -0.4904  1.4726
   48CHL1   C23 6017   0.266   4.352   9.056 -0.2475 -0.4893  0.4276
   48CHL1  H23A 6018   0.219   4.443   9.098  1.7070  0.0579  1.4780
   48CHL1  H23B 6019   0.376   4.363   9.053 -0.2118 -0.5966  1.2086
   48CHL1   C24 6020   0.223   4.345   8.915  0.1813  0.1297 -0.6524
   48CHL1  H24A 6021   0.301   4.276   8.878 -1.0160 -1.8736  0.4471
   48CHL1  H24B 6022   0.119   4.307   8.901  0.6199 -1.8004  1.0456
   48CHL1   C25 6023   0.218   4.480   8.836 -0.0600 -0.1785 -0.0039
   48CHL1   H25 6024   0.321   4.520   8.847  0.1044 -0.2269 -1.2560
   48CHL1   C26 6025   0.192   4.437   8.690 -0.2690 -0.2910 -0.6520
   48CHL1  H26A 6026   0.199   4.521   8.618 -0.3874  0.0084 -0.3176
   48CHL1  H26B 6027   0.261   4.360   8.650 -0.5817 -0.1827 -1.4136
   48CHL1  H26C 6028   0.086   4.406   8.685 -0.4960  0.5125 -0.9003
   48CHL1   C27 6029   0.099   4.574   8.884 -0.2249 -0.0313 -0.6346
   48CHL1  H27A 6030   0.002   4.521   8.878 -0.8190  0.9723 -0.0596
   48CHL1  H27B 6031   0.112   4.611   8.989 -0.3595 -0.7539 -0.3591
   48CHL1  H27C 6032   0.086   4.666   8.823  0.3035  0.5330  0.0780
   49CHL1    C3 6033   5.301   6.589  10.090 -1.2045  0.1799  0.5046
   49CHL1    H3 6034   5.244   6.684  10.078 -0.7829  0.5382  1.3435
   49CHL1    O3 6035   5.319   6.553  10.224 -0.1929 -0.1272 -0.6864
   49CHL1   H3' 6036   5.291   6.461  10.232  0.4444 -0.3921 -1.4199
   49CHL1    C4 6037   5.221   6.475  10.027 -0.7756  0.1908  0.4130
   49CHL1   H4A 6038   5.270   6.376  10.039  2.9774  1.6125 -2.1894
   49CHL1   H4B 6039   5.122   6.463  10.076 -1.9009  0.7816 -1.6382
   49CHL1    C5 6040   5.195   6.483   9.881  0.1602 -0.8568  0.5001
   49CHL1    C6 6041   5.077   6.480   9.832  0.7930  0.0145 -0.1320
   49CHL1    H6 6042   4.990   6.484   9.899  2.2283  1.2497  1.6871
   49CHL1    C7 6043   5.050   6.497   9.688 -0.5420 -0.3639 -0.2377
   49CHL1   H7A 6044   4.972   6.425   9.653 -0.8409 -0.7423  1.1986
   49CHL1   H7B 6045   5.013   6.601   9.674 -1.9430 -0.8362 -0.1599
   49CHL1    C8 6046   5.177   6.485   9.593  0.5499  0.4239  0.0570
   49CHL1    H8 6047   5.213   6.380   9.598 -0.7522  0.0734  2.4456
   49CHL1   C14 6048   5.145   6.531   9.453 -0.7314  0.7472 -0.2383
   49CHL1   H14 6049   5.124   6.640   9.451  0.4759  1.0278  1.2774
   49CHL1   C15 6050   5.020   6.476   9.375 -0.6993  0.5088  0.1868
   49CHL1  H15A 6051   5.024   6.365   9.380 -0.4125  0.5201  0.2773
   49CHL1  H15B 6052   4.936   6.518   9.434 -0.1818 -1.1828  2.1828
   49CHL1   C16 6053   5.046   6.510   9.230  0.6209 -0.5179  0.2958
   49CHL1  H16A 6054   5.044   6.412   9.177  1.7426 -0.5328  0.2772
   49CHL1  H16B 6055   4.978   6.584   9.183  0.2816 -0.1693  1.3147
   49CHL1   C17 6056   5.194   6.559   9.229 -0.8118 -0.4504 -0.2554
   49CHL1   H17 6057   5.184   6.670   9.231 -0.9704 -0.4340 -1.6234
   49CHL1   C13 6058   5.263   6.516   9.360 -0.4066  0.2097  0.0039
   49CHL1   C18 6059   5.306   6.367   9.351  0.8238 -0.2460  0.2585
   49CHL1  H18A 6060   5.220   6.300   9.329 -0.3642  0.9075  1.3405
   49CHL1  H18B 6061   5.386   6.344   9.277 -1.0357  0.7315 -2.1209
   49CHL1  H18C 6062   5.361   6.341   9.444 -0.4113  1.3573  1.4598
   49CHL1   C12 6063   5.373   6.612   9.409  0.2663  0.4490  0.2960
   49CHL1  H12A 6064   5.458   6.602   9.339  0.8657 -0.5134  1.1449
   49CHL1  H12B 6065   5.360   6.722   9.396  0.7395  0.5269  0.4816
   49CHL1   C11 6066   5.412   6.585   9.557 -0.0810 -0.2012  0.7258
   49CHL1  H11A 6067   5.477   6.494   9.559  0.0094 -0.1227  3.3144
   49CHL1  H11B 6068   5.480   6.668   9.589 -1.6901  1.8812 -1.0995
   49CHL1    C9 6069   5.290   6.563   9.654 -0.1529  0.2723  0.2030
   49CHL1    H9 6070   5.246   6.665   9.658 -3.1215 -0.9834  1.6671
   49CHL1   C10 6071   5.324   6.513   9.802  0.3789 -0.0993  0.3869
   49CHL1   C19 6072   5.412   6.388   9.797 -0.4416  0.2990  0.6249
   49CHL1  H19A 6073   5.506   6.405   9.739 -1.4029 -3.2481 -2.1490
   49CHL1  H19B 6074   5.458   6.360   9.894  0.7787 -1.5243 -0.4529
   49CHL1  H19C 6075   5.362   6.306   9.742 -1.5376  1.6021 -0.3670
   49CHL1    C1 6076   5.398   6.630   9.872 -0.2149  0.3122 -0.3974
   49CHL1   H1A 6077   5.496   6.636   9.820 -0.6061 -1.1968 -1.3266
   49CHL1   H1B 6078   5.350   6.728   9.850  1.1653  1.7707  2.7838
   49CHL1    C2 6079   5.426   6.608  10.013 -0.0099 -0.1078  0.3661
   49CHL1   H2A 6080   5.481   6.699  10.047 -1.2147  0.8272 -0.1263
   49CHL1   H2B 6081   5.493   6.520  10.023 -1.2521 -1.0853  0.0923
   49CHL1   C20 6082   5.265   6.525   9.095 -0.1118  0.0429 -0.6061
   49CHL1   H20 6083   5.294   6.418   9.092 -0.2404 -0.0568  1.0546
   49CHL1   C21 6084   5.410   6.594   9.075  0.1180  0.3556 -0.1080
   49CHL1  H21A 6085   5.486   6.545   9.139  2.2009 -1.3440 -3.7419
   49CHL1  H21B 6086   5.399   6.702   9.100 -1.7116 -0.2799  2.0524
   49CHL1  H21C 6087   5.451   6.579   8.973  0.3583 -0.4019  0.0953
   49CHL1   C22 6088   5.181   6.537   8.971 -0.7035 -0.2670 -0.0781
   49CHL1  H22A 6089   5.244   6.510   8.884 -2.7054  0.0187 -1.6553
   49CHL1  H22B 6090   5.090   6.473   8.971 -1.8552  1.3531  1.2492
   49CHL1   C23 6091   5.148   6.681   8.932 -0.0583 -1.1418 -0.7405
   49CHL1  H23A 6092   5.114   6.737   9.022  0.2966 -0.5273 -0.9849
   49CHL1  H23B 6093   5.234   6.740   8.895 -0.0261  0.6952  2.1044
   49CHL1   C24 6094   5.045   6.688   8.821 -0.0405 -0.2980 -0.4396
   49CHL1  H24A 6095   5.093   6.654   8.727 -0.9853  0.3739 -1.1657
   49CHL1  H24B 6096   4.957   6.626   8.846  1.2681 -2.0133  0.0721
   49CHL1   C25 6097   5.006   6.827   8.772 -0.1590 -0.9528 -0.2055
   49CHL1   H25 6098   5.099   6.885   8.751 -1.7608  1.2348 -1.4328
   49CHL1   C26 6099   4.927   6.806   8.637 -0.2972  0.1865 -0.9032
   49CHL1  H26A 6100   4.839   6.745   8.666  0.6102 -1.1418 -0.8976
   49CHL1  H26B 6101   4.909   6.905   8.589 -1.5064  0.7364  0.6302
   49CHL1  H26C 6102   4.988   6.737   8.576 -0.0724  0.7491 -1.3285
   49CHL1   C27 6103   4.920   6.903   8.871 -0.1527 -0.0807  0.8529
   49CHL1  H27A 6104   4.890   7.005   8.840 -0.1962 -0.7110 -1.2046
   49CHL1  H27B 6105   4.821   6.854   8.879  0.5010 -1.4409  0.6796
   49CHL1  H27C 6106   4.975   6.918   8.967 -0.9328 -1.0339  1.4509
   50CHL1    C3 6107   2.297   1.360  10.105 -0.7426 -0.5649  0.4145
   50CHL1    H3 6108   2.265   1.256  10.081 -0.8847 -0.7454  1.3742
   50CHL1    O3 6109   2.295   1.382  10.244  0.0232 -0.1412  0.0477
   50CHL1   H3' 6110   2.365   1.446  10.260 -0.3586  0.0017  1.2627
   50CHL1    C4 6111   2.434   1.406  10.045 -0.0417 -0.5707 -0.3162
   50CHL1   H4A 6112   2.468   1.506  10.080 -0.2103  0.4252 -2.9108
   50CHL1   H4B 6113   2.511   1.346  10.099 -0.4369  0.2259  1.1829
   50CHL1    C5 6114   2.435   1.394   9.893 -0.5689 -0.1890 -0.1062
   50CHL1    C6 6115   2.524   1.302   9.841  0.4776 -0.5150  0.1382
   50CHL1    H6 6116   2.586   1.241   9.909 -0.9038 -2.7566 -0.5686
   50CHL1    C7 6117   2.542   1.275   9.696  0.1421 -0.1174  0.4562
   50CHL1   H7A 6118   2.648   1.284   9.666 -0.1291  2.5848  0.1189
   50CHL1   H7B 6119   2.509   1.173   9.667  1.5115 -0.5438  0.3903
   50CHL1    C8 6120   2.470   1.384   9.614 -0.5350 -0.0537  0.3246
   50CHL1    H8 6121   2.537   1.472   9.620 -0.2595 -0.4007  2.7492
   50CHL1   C14 6122   2.459   1.344   9.468  0.2438 -0.2464  0.0315
   50CHL1   H14 6123   2.389   1.258   9.464 -0.8805  0.7073 -1.2635
   50CHL1   C15 6124   2.580   1.302   9.388 -0.9589 -0.8162  0.0346
   50CHL1  H15A 6125   2.666   1.367   9.415  0.1490 -1.1635 -2.4596
   50CHL1  H15B 6126   2.613   1.197   9.407  0.3602 -0.2136  1.2101
   50CHL1   C16 6127   2.549   1.312   9.239 -0.6441  0.1097 -1.0185
   50CHL1  H16A 6128   2.623   1.382   9.193 -1.4844  1.6008 -0.1065
   50CHL1  H16B 6129   2.551   1.215   9.184 -0.1430 -0.5316  0.1098
   50CHL1   C17 6130   2.409   1.379   9.237 -1.3108  0.1310 -0.1633
   50CHL1   H17 6131   2.346   1.288   9.244 -1.1058 -0.0276 -0.3715
   50CHL1   C13 6132   2.391   1.449   9.371  0.0028  0.3373  0.2598
   50CHL1   C18 6133   2.464   1.586   9.368  0.3265 -0.1988 -0.3504
   50CHL1  H18A 6134   2.479   1.627   9.469  1.0913  0.6173 -0.7888
   50CHL1  H18B 6135   2.570   1.580   9.334  0.2647 -0.7779 -0.4501
   50CHL1  H18C 6136   2.415   1.663   9.304  1.4423 -0.5780 -1.6972
   50CHL1   C12 6137   2.255   1.476   9.427  0.4151 -0.6987 -0.2615
   50CHL1  H12A 6138   2.208   1.551   9.359 -1.2549 -2.2825 -0.9179
   50CHL1  H12B 6139   2.190   1.386   9.424 -1.0097  0.3507 -1.6148
   50CHL1   C11 6140   2.256   1.525   9.576  0.3861  0.1700 -0.0407
   50CHL1  H11A 6141   2.308   1.623   9.579 -0.1878  0.4358  3.8818
   50CHL1  H11B 6142   2.150   1.548   9.602  0.4490  2.5579 -1.6588
   50CHL1    C9 6143   2.333   1.427   9.673 -0.0283 -0.7869 -0.1709
   50CHL1    H9 6144   2.273   1.333   9.675 -0.6611 -0.3705  0.3868
   50CHL1   C10 6145   2.332   1.479   9.820  0.4330 -0.3797 -0.0156
   50CHL1   C19 6146   2.380   1.632   9.830  0.3641 -0.1740  0.0160
   50CHL1  H19A 6147   2.476   1.649   9.776 -0.1241 -3.1202 -1.9308
   50CHL1  H19B 6148   2.311   1.702   9.780  0.6152 -0.0139 -0.1045
   50CHL1  H19C 6149   2.374   1.671   9.934  0.1144  2.5489 -1.0045
   50CHL1    C1 6150   2.197   1.454   9.884  0.4890 -0.2264 -0.0584
   50CHL1   H1A 6151   2.124   1.529   9.845 -0.0900 -0.8759 -0.2281
   50CHL1   H1B 6152   2.159   1.353   9.860 -2.1623  0.5157  0.9139
   50CHL1    C2 6153   2.197   1.447  10.042  0.8700 -0.2251 -0.2691
   50CHL1   H2A 6154   2.096   1.411  10.071  0.7976  1.7636  2.0902
   50CHL1   H2B 6155   2.205   1.554  10.069 -0.3517  0.2105 -1.5937
   50CHL1   C20 6156   2.380   1.443   9.108 -0.0317 -0.3153  1.4657
   50CHL1   H20 6157   2.412   1.549   9.100  3.6254 -1.3257  1.6843
   50CHL1   C21 6158   2.222   1.427   9.089 -0.6864  1.2602 -0.1414
   50CHL1  H21A 6159   2.169   1.495   9.160 -0.4209 -0.0120  1.2891
   50CHL1  H21B 6160   2.178   1.327   9.111  0.4502  0.8936  0.4953
   50CHL1  H21C 6161   2.192   1.449   8.984 -0.2012 -0.3899 -0.6350
   50CHL1   C22 6162   2.438   1.375   8.985  0.3482  0.2954 -0.2170
   50CHL1  H22A 6163   2.549   1.370   8.993  0.2886  1.5155  1.5620
   50CHL1  H22B 6164   2.395   1.273   8.983  0.6887  0.1444  0.0347
   50CHL1   C23 6165   2.422   1.452   8.850  0.3857  0.3242 -0.2089
   50CHL1  H23A 6166   2.323   1.500   8.834 -0.0229 -0.7126 -0.7867
   50CHL1  H23B 6167   2.485   1.544   8.854  0.5749  0.2371 -1.0824
   50CHL1   C24 6168   2.465   1.374   8.723 -0.6265  0.1983  0.7231
   50CHL1  H24A 6169   2.407   1.280   8.732  1.1539 -1.0008 -0.1158
   50CHL1  H24B 6170   2.439   1.424   8.627 -0.0245 -3.1529 -1.2414
   50CHL1   C25 6171   2.612   1.329   8.725 -0.4737  0.4366  0.3783
   50CHL1   H25 6172   2.627   1.261   8.812  1.6514  1.1213  0.5865
   50CHL1   C26 6173   2.647   1.260   8.587  0.0242 -0.3738  0.4867
   50CHL1  H26A 6174   2.639   1.334   8.505  2.2334 -1.7897 -1.0502
   50CHL1  H26B 6175   2.755   1.234   8.588  0.2108  0.3357 -1.0645
   50CHL1  H26C 6176   2.577   1.174   8.574 -0.3881  0.0094  0.1699
   50CHL1   C27 6177   2.707   1.450   8.745  0.2482  0.0758 -0.0930
   50CHL1  H27A 6178   2.810   1.409   8.733 -0.2530 -1.3164  0.3103
   50CHL1  H27B 6179   2.698   1.529   8.667  0.5166  1.4453  1.2324
   50CHL1  H27C 6180   2.702   1.501   8.844  0.7302  2.5285 -1.2945
   51CHL1    C3 6181   3.336   3.878  10.383  0.2683  0.7440  0.1049
   51CHL1    H3 6182   3.325   3.768  10.369 -1.3123  0.9587 -0.4109
   51CHL1    O3 6183   3.334   3.905  10.519 -0.2069  0.8073 -0.7805
   51CHL1   H3' 6184   3.368   3.994  10.528  2.5338 -0.3460  1.1210
   51CHL1    C4 6185   3.467   3.926  10.321  0.5014 -1.2994  0.8437
   51CHL1   H4A 6186   3.484   4.034  10.342  0.1744 -1.3573  1.4169
   51CHL1   H4B 6187   3.550   3.877  10.378  2.4794 -1.3946 -2.0199
   51CHL1    C5 6188   3.482   3.900  10.175 -0.1356 -0.2687  0.0818
   51CHL1    C6 6189   3.580   3.827  10.128 -0.2158  0.1603  0.2955
   51CHL1    H6 6190   3.645   3.775  10.201 -0.2041  1.9303  1.5725
   51CHL1    C7 6191   3.606   3.817   9.978 -0.6052 -0.6137 -0.3119
   51CHL1   H7A 6192   3.708   3.859   9.963 -0.6513 -0.1459  0.6068
   51CHL1   H7B 6193   3.603   3.710   9.949 -0.6975 -0.1012 -2.2183
   51CHL1    C8 6194   3.517   3.909   9.886 -0.2253  0.0139 -0.6092
   51CHL1    H8 6195   3.568   4.007   9.892 -0.5193  0.1511 -0.3827
   51CHL1   C14 6196   3.513   3.853   9.740  0.0637  0.0428 -0.7473
   51CHL1   H14 6197   3.459   3.756   9.753  2.1169 -0.9612  0.4811
   51CHL1   C15 6198   3.645   3.800   9.675  0.2076 -0.0395  0.0840
   51CHL1  H15A 6199   3.722   3.876   9.700  1.4514 -0.9956 -0.7882
   51CHL1  H15B 6200   3.676   3.698   9.707  0.9821  0.5717  1.2999
   51CHL1   C16 6201   3.607   3.795   9.523  0.0192 -0.9904 -0.3675
   51CHL1  H16A 6202   3.663   3.871   9.465  0.5392 -0.9168  0.2232
   51CHL1  H16B 6203   3.628   3.699   9.472  1.8321 -0.4430 -0.6707
   51CHL1   C17 6204   3.453   3.842   9.515  0.7253  0.0635 -0.0313
   51CHL1   H17 6205   3.396   3.750   9.537  1.2193 -0.4903 -1.0424
   51CHL1   C13 6206   3.435   3.928   9.640 -0.1329 -0.3738  0.2987
   51CHL1   C18 6207   3.503   4.071   9.614  0.4407 -0.1609 -0.1962
   51CHL1  H18A 6208   3.605   4.057   9.571 -0.0048 -2.1412 -0.6337
   51CHL1  H18B 6209   3.449   4.123   9.533  0.4709  0.0945 -0.0558
   51CHL1  H18C 6210   3.516   4.132   9.707  0.4786 -1.2213  0.5008
   51CHL1   C12 6211   3.294   3.954   9.701 -0.5604  0.6365 -0.1156
   51CHL1  H12A 6212   3.259   4.040   9.640 -0.3622  1.4613  0.9187
   51CHL1  H12B 6213   3.228   3.865   9.705  2.1616 -1.4406  0.4896
   51CHL1   C11 6214   3.299   4.011   9.844 -0.2102  0.3647 -0.3848
   51CHL1  H11A 6215   3.344   4.112   9.836 -1.1121  0.7725 -0.3880
   51CHL1  H11B 6216   3.200   4.033   9.889 -0.1668 -0.6939  0.2406
   51CHL1    C9 6217   3.376   3.924   9.947  0.2328  0.2822 -0.0567
   51CHL1    H9 6218   3.332   3.822   9.939  1.4412 -0.3750  1.3326
   51CHL1   C10 6219   3.382   3.976  10.093  0.4328  0.0818  0.2844
   51CHL1   C19 6220   3.400   4.130  10.092 -0.1728  0.4988 -0.0388
   51CHL1  H19A 6221   3.311   4.173  10.043  0.4778  0.7016 -1.0538
   51CHL1  H19B 6222   3.399   4.169  10.196 -0.6719  0.5725 -0.0711
   51CHL1  H19C 6223   3.502   4.155  10.057  0.8729 -2.9061  0.3319
   51CHL1    C1 6224   3.243   3.947  10.158  0.0625 -0.2354 -0.6949
   51CHL1   H1A 6225   3.168   4.013  10.110 -0.6070 -0.8817 -0.5619
   51CHL1   H1B 6226   3.198   3.850  10.128 -2.0012  1.1144 -2.1155
   51CHL1    C2 6227   3.230   3.963  10.312  0.4374  0.5178 -0.1168
   51CHL1   H2A 6228   3.132   3.931  10.355 -0.0219  1.2633 -0.5985
   51CHL1   H2B 6229   3.231   4.073  10.330  0.5251  0.4239  0.4739
   51CHL1   C20 6230   3.407   3.897   9.374 -0.5482 -0.0989 -0.3153
   51CHL1   H20 6231   3.460   3.992   9.350  2.5372 -1.7174 -0.1418
   51CHL1   C21 6232   3.260   3.921   9.372 -0.2095  0.2487  0.0483
   51CHL1  H21A 6233   3.242   3.960   9.269  2.2896 -0.7670 -0.8006
   51CHL1  H21B 6234   3.219   3.998   9.441 -1.9620 -0.4469 -0.1821
   51CHL1  H21C 6235   3.212   3.822   9.389 -2.7364  1.0038 -2.1652
   51CHL1   C22 6236   3.452   3.807   9.255 -0.1815 -0.5609  0.2932
   51CHL1  H22A 6237   3.401   3.847   9.165  1.6809 -0.2407 -0.6386
   51CHL1  H22B 6238   3.561   3.803   9.237 -0.4472  0.1562 -1.5331
   51CHL1   C23 6239   3.409   3.661   9.259  0.0263  0.1741 -0.3431
   51CHL1  H23A 6240   3.448   3.613   9.351 -0.8255  1.2021  0.5816
   51CHL1  H23B 6241   3.299   3.658   9.277  0.5673 -0.7686  3.1696
   51CHL1   C24 6242   3.451   3.586   9.134  0.3027  0.5481 -0.2954
   51CHL1  H24A 6243   3.403   3.647   9.054 -1.5902 -0.1698  0.2723
   51CHL1  H24B 6244   3.559   3.587   9.108 -0.1090 -2.0816 -2.2520
   51CHL1   C25 6245   3.396   3.439   9.134  0.5473  0.0128 -0.0418
   51CHL1   H25 6246   3.286   3.437   9.154  0.4000  0.9321 -0.7255
   51CHL1   C26 6247   3.406   3.377   8.999  0.4422 -0.2877 -0.4371
   51CHL1  H26A 6248   3.344   3.434   8.926 -1.6962 -2.2756 -0.2411
   51CHL1  H26B 6249   3.510   3.359   8.964  0.3099  0.7012 -1.3738
   51CHL1  H26C 6250   3.359   3.276   8.992  0.5575 -0.2383 -2.1022
   51CHL1   C27 6251   3.466   3.342   9.229 -0.2254  0.0690 -0.6608
   51CHL1  H27A 6252   3.438   3.237   9.204  0.8320 -0.7275  1.3218
   51CHL1  H27B 6253   3.577   3.345   9.219  0.2916 -2.2115  3.2858
   51CHL1  H27C 6254   3.452   3.367   9.336  2.4965  0.4077 -0.3438
   52CHL1    C3 6255   6.698   2.790  10.132  0.1835 -0.2557  0.7665
   52CHL1    H3 6256   6.805   2.819  10.126  0.2669 -0.5205  0.9451
   52CHL1    O3 6257   6.671   2.728  10.256  0.1373 -0.5234 -0.5761
   52CHL1   H3' 6258   6.586   2.690  10.234  0.6731 -0.9510 -1.9540
   52CHL1    C4 6259   6.610   2.915  10.118  0.6375  0.5292  0.5301
   52CHL1   H4A 6260   6.506   2.901  10.152  1.1695 -2.2373  1.1595
   52CHL1   H4B 6261   6.660   2.984  10.189  1.1983  0.3173  0.3516
   52CHL1    C5 6262   6.611   2.972   9.975  0.3349 -0.6024  0.1912
   52CHL1    C6 6263   6.637   3.101   9.959 -0.2448 -0.7355  0.9085
   52CHL1    H6 6264   6.640   3.160  10.052  0.6409 -1.1413  1.1418
   52CHL1    C7 6265   6.637   3.173   9.823 -0.2363  0.2866  0.0609
   52CHL1   H7A 6266   6.584   3.269   9.836 -1.6333 -0.4772  0.1472
   52CHL1   H7B 6267   6.746   3.189   9.806 -0.3241 -0.1260 -0.9109
   52CHL1    C8 6268   6.569   3.079   9.725 -0.5099  0.0172  0.4272
   52CHL1    H8 6269   6.463   3.070   9.755 -1.1577  0.8383 -1.5343
   52CHL1   C14 6270   6.583   3.144   9.582 -0.9305  0.8162 -0.6965
   52CHL1   H14 6271   6.693   3.151   9.569 -0.6270 -1.0014  0.7607
   52CHL1   C15 6272   6.533   3.289   9.565 -0.7463 -0.4725  0.0585
   52CHL1  H15A 6273   6.430   3.298   9.608 -1.5391  0.3991 -1.9454
   52CHL1  H15B 6274   6.593   3.362   9.624 -1.7406  0.7561 -0.4053
   52CHL1   C16 6275   6.515   3.304   9.412  0.5506  0.2079 -0.5061
   52CHL1  H16A 6276   6.414   3.342   9.387  0.6441  0.0370 -1.1642
   52CHL1  H16B 6277   6.589   3.378   9.375  0.4952 -0.0978 -1.2409
   52CHL1   C17 6278   6.552   3.165   9.345  0.4474  0.3074  0.5958
   52CHL1   H17 6279   6.659   3.187   9.326 -0.2642  1.7880 -1.9007
   52CHL1   C13 6280   6.525   3.069   9.458 -0.0084 -0.3742 -0.1655
   52CHL1   C18 6281   6.381   3.057   9.474  0.3618  0.1295  0.8753
   52CHL1  H18A 6282   6.334   3.004   9.389  1.0802 -2.1136  1.8230
   52CHL1  H18B 6283   6.354   3.004   9.568 -2.4013  1.7711  1.0631
   52CHL1  H18C 6284   6.338   3.158   9.490  1.4197  0.7448 -0.0968
   52CHL1   C12 6285   6.608   2.937   9.462 -0.5552  0.0349  0.1737
   52CHL1  H12A 6286   6.570   2.871   9.381 -1.7055 -1.3483  1.8093
   52CHL1  H12B 6287   6.715   2.963   9.444 -1.3284  2.7302 -0.6736
   52CHL1   C11 6288   6.590   2.852   9.593  0.2946 -0.3298 -0.1349
   52CHL1  H11A 6289   6.487   2.810   9.586  0.7812 -1.2962 -1.8188
   52CHL1  H11B 6290   6.655   2.763   9.579 -1.5130 -1.9935  1.6740
   52CHL1    C9 6291   6.623   2.937   9.724 -0.0997  0.1529  0.2158
   52CHL1    H9 6292   6.733   2.949   9.733 -0.0397 -1.5168  2.0535
   52CHL1   C10 6293   6.595   2.867   9.863 -0.2370  0.1273 -0.3124
   52CHL1   C19 6294   6.452   2.815   9.857 -0.1687 -0.4133  0.8142
   52CHL1  H19A 6295   6.419   2.781   9.957  0.8442 -0.9637  0.9714
   52CHL1  H19B 6296   6.377   2.882   9.810  0.9452  1.1172  1.1953
   52CHL1  H19C 6297   6.456   2.723   9.794 -0.4892 -0.8616  1.4349
   52CHL1    C1 6298   6.696   2.748   9.884 -0.6373  0.0591  0.7220
   52CHL1   H1A 6299   6.677   2.671   9.806  0.4749  0.5486 -0.0474
   52CHL1   H1B 6300   6.804   2.769   9.866 -0.5643  0.1538  1.2608
   52CHL1    C2 6301   6.662   2.685  10.023 -0.2124 -0.5472 -0.2096
   52CHL1   H2A 6302   6.735   2.601  10.036  0.7876  0.5199  1.1801
   52CHL1   H2B 6303   6.558   2.649  10.034 -0.1856 -0.1833  1.4557
   52CHL1   C20 6304   6.495   3.143   9.209  0.1694  1.0489 -0.4797
   52CHL1   H20 6305   6.384   3.141   9.220  0.2211 -0.1419  0.0100
   52CHL1   C21 6306   6.535   3.009   9.147  0.4724 -0.5216 -0.2071
   52CHL1  H21A 6307   6.501   2.924   9.210 -1.2958  0.0999 -0.2956
   52CHL1  H21B 6308   6.646   3.007   9.150  0.5731 -1.4194 -3.1716
   52CHL1  H21C 6309   6.485   2.999   9.048 -0.2923 -0.0013  0.1171
   52CHL1   C22 6310   6.533   3.260   9.111  0.4722  0.5318  0.2665
   52CHL1  H22A 6311   6.493   3.242   9.009  0.0636  1.1861  0.3096
   52CHL1  H22B 6312   6.475   3.352   9.133  0.0458  0.5519 -0.9053
   52CHL1   C23 6313   6.688   3.274   9.093  0.2144 -0.2917 -0.4627
   52CHL1  H23A 6314   6.722   3.331   9.182 -0.0181 -1.0437  0.1202
   52CHL1  H23B 6315   6.745   3.179   9.100  2.0228  0.7634 -0.7904
   52CHL1   C24 6316   6.736   3.349   8.960  0.2169 -0.5893 -0.4646
   52CHL1  H24A 6317   6.653   3.376   8.892  2.3710  1.0198 -2.5092
   52CHL1  H24B 6318   6.782   3.442   8.999  2.2135 -0.6635 -2.5776
   52CHL1   C25 6319   6.848   3.273   8.904 -0.2744 -0.2488 -0.3936
   52CHL1   H25 6320   6.934   3.278   8.974 -0.4559  0.9828 -0.2489
   52CHL1   C26 6321   6.811   3.127   8.867  0.2892 -0.8880 -0.6690
   52CHL1  H26A 6322   6.724   3.125   8.798  0.2297  1.9616 -0.7344
   52CHL1  H26B 6323   6.897   3.090   8.807  0.5656 -1.3748  0.0156
   52CHL1  H26C 6324   6.792   3.065   8.957  0.3609  0.6105  0.4016
   52CHL1   C27 6325   6.894   3.344   8.779 -0.2711  0.0836 -0.2230
   52CHL1  H27A 6326   6.835   3.298   8.697 -1.4512 -0.0836  0.7133
   52CHL1  H27B 6327   6.869   3.452   8.784  1.6003  0.4851  1.1276
   52CHL1  H27C 6328   7.003   3.320   8.771  0.1798  2.2681 -1.1176
   53CHL1    C3 6329   0.667   2.288  10.046 -0.1550  0.0473  0.7100
   53CHL1    H3 6330   0.572   2.232  10.063  0.1678 -0.2764  1.4795
   53CHL1    O3 6331   0.692   2.337  10.169 -0.1369  0.0520 -0.1410
   53CHL1   H3' 6332   0.787   2.340  10.182  0.2648 -0.9421 -2.7255
   53CHL1    C4 6333   0.778   2.202   9.988 -0.7244 -0.0647  0.4992
   53CHL1   H4A 6334   0.876   2.249  10.013 -1.3356  0.4007  2.0492
   53CHL1   H4B 6335   0.789   2.110  10.049  1.6740 -0.1648 -0.0108
   53CHL1    C5 6336   0.754   2.166   9.845 -0.2791  0.1176  0.5498
   53CHL1    C6 6337   0.751   2.037   9.802 -0.1834  0.4328  1.3419
   53CHL1    H6 6338   0.772   1.955   9.872 -2.5865  0.9926  2.7913
   53CHL1    C7 6339   0.716   2.001   9.655 -0.2466 -0.1137 -0.2541
   53CHL1   H7A 6340   0.776   1.910   9.631  0.5682  0.6925 -1.3016
   53CHL1   H7B 6341   0.612   1.964   9.642 -0.1472  0.2206 -2.1518
   53CHL1    C8 6342   0.743   2.115   9.560 -0.2107 -0.9471  0.4150
   53CHL1    H8 6343   0.853   2.128   9.561 -0.2399 -0.6354 -0.1432
   53CHL1   C14 6344   0.697   2.090   9.422  0.7842  0.3228 -0.0053
   53CHL1   H14 6345   0.586   2.080   9.427  0.5413  2.6299 -0.4819
   53CHL1   C15 6346   0.748   1.959   9.355 -0.4468 -0.2379  0.3553
   53CHL1  H15A 6347   0.851   1.938   9.390  0.5008  2.8276 -0.4731
   53CHL1  H15B 6348   0.686   1.874   9.392  1.3197 -2.7250 -2.2427
   53CHL1   C16 6349   0.732   1.983   9.200  0.2726 -0.7160 -0.0397
   53CHL1  H16A 6350   0.825   1.954   9.146  0.5177 -1.8818  0.9621
   53CHL1  H16B 6351   0.647   1.918   9.172 -0.3090  0.4438 -0.9827
   53CHL1   C17 6352   0.693   2.133   9.186 -0.3241 -0.4560  0.1267
   53CHL1   H17 6353   0.583   2.136   9.177 -0.1475  0.4311 -2.1392
   53CHL1   C13 6354   0.722   2.205   9.325  0.2827 -0.0479  0.5190
   53CHL1   C18 6355   0.874   2.242   9.326 -0.0356  0.5990 -0.0781
   53CHL1  H18A 6356   0.910   2.301   9.413  0.9657 -0.4660  0.2442
   53CHL1  H18B 6357   0.935   2.149   9.323 -0.4181  0.2899  1.4520
   53CHL1  H18C 6358   0.912   2.308   9.246  0.0966  0.9040  0.2368
   53CHL1   C12 6359   0.628   2.316   9.367  0.3792  0.1000 -0.6607
   53CHL1  H12A 6360   0.612   2.405   9.302  2.5905  1.1760  0.2336
   53CHL1  H12B 6361   0.524   2.282   9.388  0.2465  1.4838  1.0038
   53CHL1   C11 6362   0.658   2.363   9.508  0.1886  0.0688  0.7504
   53CHL1  H11A 6363   0.750   2.426   9.498 -1.5986  2.9006  1.6306
   53CHL1  H11B 6364   0.590   2.443   9.545  0.9231  1.6724 -1.2472
   53CHL1    C9 6365   0.673   2.243   9.612  0.3270 -0.0774 -0.0904
   53CHL1    H9 6366   0.565   2.222   9.627 -0.7251  4.9666  0.3816
   53CHL1   C10 6367   0.722   2.283   9.752  0.5444 -0.1832  0.3172
   53CHL1   C19 6368   0.856   2.362   9.740  0.6405  0.4241  0.8618
   53CHL1  H19A 6369   0.826   2.456   9.689  0.8337 -0.2864 -0.5902
   53CHL1  H19B 6370   0.885   2.391   9.843 -0.3749 -0.1849  1.3298
   53CHL1  H19C 6371   0.935   2.308   9.684 -0.5724 -0.5134  0.0274
   53CHL1    C1 6372   0.603   2.365   9.819  0.2166  0.2797  0.6195
   53CHL1   H1A 6373   0.599   2.461   9.764 -0.4054 -0.4137 -0.5642
   53CHL1   H1B 6374   0.508   2.308   9.821  1.3899 -1.8125 -1.0263
   53CHL1    C2 6375   0.635   2.402   9.962 -0.2726  0.2846 -0.7397
   53CHL1   H2A 6376   0.550   2.465   9.997  0.5730  0.1085  1.7466
   53CHL1   H2B 6377   0.721   2.473   9.967 -1.7910  2.0638  0.6441
   53CHL1   C20 6378   0.742   2.208   9.058  0.5153 -0.1767 -0.4426
   53CHL1   H20 6379   0.853   2.199   9.056  0.5195 -0.2329  0.0159
   53CHL1   C21 6380   0.693   2.358   9.059  0.1270 -0.0534  0.5165
   53CHL1  H21A 6381   0.583   2.375   9.057 -0.2718 -2.5520  0.4595
   53CHL1  H21B 6382   0.727   2.396   8.961  1.8048 -0.2928  0.9985
   53CHL1  H21C 6383   0.738   2.415   9.143  0.0313 -0.4867  0.8614
   53CHL1   C22 6384   0.701   2.144   8.929 -0.6314 -0.4261  0.5809
   53CHL1  H22A 6385   0.665   2.040   8.945  1.7349 -1.0372  2.2617
   53CHL1  H22B 6386   0.609   2.194   8.890 -1.1656 -0.7011  1.4689
   53CHL1   C23 6387   0.819   2.154   8.821  0.0465 -0.9974  0.1739
   53CHL1  H23A 6388   0.773   2.132   8.722 -1.0096 -0.7932  0.6203
   53CHL1  H23B 6389   0.868   2.253   8.826  1.7353 -1.8024  0.0838
   53CHL1   C24 6390   0.937   2.056   8.843  0.9773  0.8193  0.4640
   53CHL1  H24A 6391   0.974   2.070   8.946  0.1062 -0.0484  0.8973
   53CHL1  H24B 6392   0.897   1.953   8.834  0.1834  1.3113 -2.3794
   53CHL1   C25 6393   1.059   2.076   8.747 -0.5719  0.0215 -0.0141
   53CHL1   H25 6394   1.027   2.108   8.646 -0.4490  3.2618  0.9183
   53CHL1   C26 6395   1.144   2.190   8.812 -0.5761  0.0015 -0.2109
   53CHL1  H26A 6396   1.098   2.287   8.785  1.9243  1.6649  1.3460
   53CHL1  H26B 6397   1.149   2.184   8.923  0.6719  3.4884 -0.0239
   53CHL1  H26C 6398   1.247   2.198   8.770  0.2358 -2.2607  1.2062
   53CHL1   C27 6399   1.136   1.941   8.746  0.0957 -0.0748  0.0994
   53CHL1  H27A 6400   1.225   1.953   8.680 -0.9615 -1.9168 -1.7215
   53CHL1  H27B 6401   1.166   1.917   8.850 -1.5742  1.8388  1.0626
   53CHL1  H27C 6402   1.074   1.859   8.705  0.0331  1.2618 -2.5796
   54CHL1    C3 6403   0.977   3.277  10.341  0.3643  0.0809  1.0284
   54CHL1    H3 6404   1.049   3.358  10.313 -2.4865  2.4633  0.2832
   54CHL1    O3 6405   0.996   3.260  10.480  0.2611  0.2577  0.7075
   54CHL1   H3' 6406   1.005   3.349  10.514 -2.6022  1.1098 -0.5679
   54CHL1    C4 6407   0.839   3.343  10.310  0.4246 -0.3670 -0.5746
   54CHL1   H4A 6408   0.751   3.282  10.338 -1.1676  2.3551  0.5404
   54CHL1   H4B 6409   0.824   3.440  10.362  1.1364 -0.7971  0.4521
   54CHL1    C5 6410   0.816   3.358  10.158  0.2602  0.7793 -0.0890
   54CHL1    C6 6411   0.775   3.474  10.103  0.1662  0.2529 -0.0731
   54CHL1    H6 6412   0.763   3.566  10.162 -0.3836 -0.3896  0.8267
   54CHL1    C7 6413   0.753   3.487   9.955  0.6082 -0.8437 -0.0084
   54CHL1   H7A 6414   0.666   3.554   9.943  1.4748  0.6456  1.8608
   54CHL1   H7B 6415   0.842   3.538   9.913  0.5605 -0.0203  0.8718
   54CHL1    C8 6416   0.732   3.353   9.879  0.1717 -0.2054  0.6069
   54CHL1    H8 6417   0.627   3.318   9.890 -0.6961  2.1512  0.0399
   54CHL1   C14 6418   0.751   3.383   9.725 -0.4902  0.6283  0.5355
   54CHL1   H14 6419   0.858   3.415   9.724 -0.6047  1.0366 -1.3620
   54CHL1   C15 6420   0.677   3.491   9.651 -0.4893 -0.6871  0.2992
   54CHL1  H15A 6421   0.570   3.472   9.676 -1.3535  5.0228  1.6604
   54CHL1  H15B 6422   0.697   3.591   9.693  0.7772 -0.3511 -1.0699
   54CHL1   C16 6423   0.702   3.473   9.504 -0.2985 -0.3405 -0.1584
   54CHL1  H16A 6424   0.603   3.474   9.454 -1.2575  1.1456  1.7102
   54CHL1  H16B 6425   0.775   3.545   9.463 -0.6368  0.5492  0.7974
   54CHL1   C17 6426   0.773   3.325   9.493 -0.6190  0.3768  0.3469
   54CHL1   H17 6427   0.884   3.335   9.492 -0.8029  2.9555 -1.1165
   54CHL1   C13 6428   0.746   3.257   9.635  0.3213 -0.4928  0.3848
   54CHL1   C18 6429   0.607   3.193   9.622  0.0042  0.1614 -0.3324
   54CHL1  H18A 6430   0.532   3.264   9.582  0.9353  1.7323  0.6879
   54CHL1  H18B 6431   0.627   3.103   9.560 -2.3655  0.5204 -1.7251
   54CHL1  H18C 6432   0.574   3.161   9.723 -0.8656  0.4257 -0.5236
   54CHL1   C12 6433   0.847   3.155   9.682  0.2877  0.3738  0.3213
   54CHL1  H12A 6434   0.845   3.063   9.620  2.5040  0.0441  0.6897
   54CHL1  H12B 6435   0.952   3.186   9.664 -0.2519  0.7248 -2.4152
   54CHL1   C11 6436   0.837   3.130   9.835 -0.7929  0.4633  0.2020
   54CHL1  H11A 6437   0.741   3.077   9.848  0.3992 -1.9494 -0.4301
   54CHL1  H11B 6438   0.919   3.065   9.872 -0.5640  0.3361 -0.5144
   54CHL1    C9 6439   0.836   3.250   9.926  0.0661 -0.0606  0.2938
   54CHL1    H9 6440   0.929   3.303   9.898 -0.4553  0.8148  0.1979
   54CHL1   C10 6441   0.842   3.228  10.080 -0.0599 -0.2614  0.5973
   54CHL1   C19 6442   0.743   3.113  10.113  0.6787 -0.0818 -0.3763
   54CHL1  H19A 6443   0.636   3.140  10.101  1.2020  2.0283 -0.4414
   54CHL1  H19B 6444   0.771   3.029  10.046 -0.2919  0.9115 -2.0515
   54CHL1  H19C 6445   0.750   3.082  10.220  0.1967  2.5525  0.4478
   54CHL1    C1 6446   0.989   3.168  10.113 -0.6681  0.1651  0.4336
   54CHL1   H1A 6447   0.995   3.065  10.072  1.8350  0.4472  0.0032
   54CHL1   H1B 6448   1.065   3.230  10.061 -1.2033  0.4875  0.0344
   54CHL1    C2 6449   1.006   3.154  10.265  0.0743 -0.4690 -0.1183
   54CHL1   H2A 6450   1.113   3.125  10.277  0.6284  0.6588 -2.0634
   54CHL1   H2B 6451   0.948   3.067  10.302 -1.7492  1.5866  2.0090
   54CHL1   C20 6452   0.743   3.249   9.361 -0.3354  0.1782 -0.3951
   54CHL1   H20 6453   0.635   3.225   9.358 -0.6366  1.4629  0.0856
   54CHL1   C21 6454   0.829   3.126   9.335  0.0974 -0.1034  0.2276
   54CHL1  H21A 6455   0.937   3.145   9.313  0.5311 -2.3836  0.2279
   54CHL1  H21B 6456   0.806   3.065   9.245  0.2580 -0.1572  0.2229
   54CHL1  H21C 6457   0.821   3.060   9.423  1.0363  1.1690  1.2914
   54CHL1   C22 6458   0.754   3.340   9.235  0.4693 -0.1556 -0.0283
   54CHL1  H22A 6459   0.700   3.296   9.148 -1.2090  1.6520  0.0644
   54CHL1  H22B 6460   0.690   3.427   9.259  1.5622  0.6795 -0.0945
   54CHL1   C23 6461   0.897   3.396   9.205 -0.6687 -0.0103  0.2907
   54CHL1  H23A 6462   0.899   3.476   9.282  0.0828  0.1494  0.1046
   54CHL1  H23B 6463   0.974   3.321   9.231 -0.4821 -0.4880 -1.5411
   54CHL1   C24 6464   0.919   3.452   9.069 -0.2217  0.4902  0.2050
   54CHL1  H24A 6465   0.910   3.366   8.999  3.0684  0.8907 -0.7945
   54CHL1  H24B 6466   0.830   3.516   9.055  0.5336  2.3901  3.3986
   54CHL1   C25 6467   1.043   3.537   9.039  0.0551 -0.8868 -0.2755
   54CHL1   H25 6468   1.062   3.602   9.126 -0.0541  2.1977 -2.4859
   54CHL1   C26 6469   1.174   3.454   9.030 -0.1927  0.0624 -0.5264
   54CHL1  H26A 6470   1.172   3.375   8.952  0.2818 -0.5324  0.0640
   54CHL1  H26B 6471   1.265   3.517   9.015  0.0746 -0.0219  0.6800
   54CHL1  H26C 6472   1.192   3.409   9.130 -0.1283  2.6959  0.6988
   54CHL1   C27 6473   1.026   3.625   8.913 -0.4038  0.2605 -0.0469
   54CHL1  H27A 6474   0.935   3.688   8.922 -0.9545 -0.4661 -0.5078
   54CHL1  H27B 6475   1.122   3.680   8.901 -0.7802  0.9121 -0.0743
   54CHL1  H27C 6476   1.021   3.553   8.829  0.1108  0.5138 -0.2939
   55CHL1    C3 6477   1.521   1.490  10.173 -0.0977  0.1879 -0.5703
   55CHL1    H3 6478   1.419   1.465  10.138  0.0551 -0.9090 -0.2442
   55CHL1    O3 6479   1.510   1.515  10.313 -0.1682 -0.2627  0.4470
   55CHL1   H3' 6480   1.591   1.563  10.332 -0.4289  1.0437 -1.6216
   55CHL1    C4 6481   1.620   1.371  10.151  0.8859 -0.0679 -0.2054
   55CHL1   H4A 6482   1.716   1.401  10.198  0.6249  1.3115 -0.5187
   55CHL1   H4B 6483   1.573   1.285  10.204 -1.4336  0.5470 -1.2041
   55CHL1    C5 6484   1.639   1.352  10.009  0.2676  0.1091 -1.0320
   55CHL1    C6 6485   1.597   1.234   9.954 -0.1528 -0.8804  0.0484
   55CHL1    H6 6486   1.568   1.165  10.034  1.6123  0.4732  1.9086
   55CHL1    C7 6487   1.632   1.196   9.813 -0.4273 -0.1414  0.9045
   55CHL1   H7A 6488   1.699   1.107   9.813 -0.2878 -0.0959 -2.2059
   55CHL1   H7B 6489   1.537   1.171   9.761 -0.4720 -0.6117  1.2081
   55CHL1    C8 6490   1.719   1.305   9.739 -0.3328  0.0382 -0.0040
   55CHL1    H8 6491   1.828   1.295   9.758  0.2124  0.9865 -2.4816
   55CHL1   C14 6492   1.707   1.287   9.592 -0.4018 -0.7309  0.8241
   55CHL1   H14 6493   1.604   1.315   9.562  0.0742  0.6590  0.4116
   55CHL1   C15 6494   1.735   1.145   9.532 -0.2672 -0.5657  0.3603
   55CHL1  H15A 6495   1.828   1.114   9.585  1.1747  0.9017 -1.2718
   55CHL1  H15B 6496   1.659   1.064   9.538  0.3260 -1.2167 -0.7708
   55CHL1   C16 6497   1.777   1.169   9.385 -0.4512 -0.4523 -0.9813
   55CHL1  H16A 6498   1.886   1.146   9.387  0.0067  1.6423  0.9113
   55CHL1  H16B 6499   1.714   1.106   9.319 -0.1625 -0.7385 -0.9896
   55CHL1   C17 6500   1.757   1.321   9.370  0.4329 -0.1553  0.3361
   55CHL1   H17 6501   1.649   1.333   9.348  0.9434  1.8657 -1.2498
   55CHL1   C13 6502   1.782   1.384   9.509 -0.5797  0.1818 -0.3198
   55CHL1   C18 6503   1.936   1.380   9.532 -0.3355 -0.1978  0.3066
   55CHL1  H18A 6504   1.989   1.438   9.454 -0.3457 -1.5787 -0.7395
   55CHL1  H18B 6505   1.969   1.416   9.632 -1.5294 -0.1025  0.6700
   55CHL1  H18C 6506   1.967   1.273   9.524 -0.1082 -0.0672 -0.5738
   55CHL1   C12 6507   1.728   1.523   9.534  0.2636 -0.9250  0.2808
   55CHL1  H12A 6508   1.789   1.605   9.489 -1.4939  0.6786  0.7827
   55CHL1  H12B 6509   1.622   1.524   9.501  0.2142 -0.3056  0.4629
   55CHL1   C11 6510   1.736   1.559   9.686 -0.2318 -0.2804 -0.0928
   55CHL1  H11A 6511   1.846   1.572   9.695 -0.2027 -0.2501 -0.4599
   55CHL1  H11B 6512   1.679   1.654   9.691 -1.0382 -0.8258  1.4752
   55CHL1    C9 6513   1.681   1.449   9.771 -0.0174  0.5224  0.2190
   55CHL1    H9 6514   1.571   1.444   9.760  0.0034 -0.9617  0.5194
   55CHL1   C10 6515   1.695   1.469   9.927  0.6845  0.1172  0.2700
   55CHL1   C19 6516   1.845   1.483   9.967 -0.2831 -0.4569  0.6516
   55CHL1  H19A 6517   1.899   1.393   9.931 -1.3415 -0.7495 -0.2415
   55CHL1  H19B 6518   1.892   1.573   9.922  3.1552 -2.1190  0.7781
   55CHL1  H19C 6519   1.850   1.496  10.078 -0.4283 -0.2210  0.6330
   55CHL1    C1 6520   1.605   1.603   9.962 -0.1236  0.4482 -0.5424
   55CHL1   H1A 6521   1.657   1.690   9.916 -0.5012  0.2922 -1.2697
   55CHL1   H1B 6522   1.506   1.579   9.918 -1.9041  1.3983  2.7543
   55CHL1    C2 6523   1.578   1.616  10.108 -0.1014 -0.4308  0.0424
   55CHL1   H2A 6524   1.501   1.692  10.130  2.4153  1.8300  1.3972
   55CHL1   H2B 6525   1.670   1.656  10.156  0.5456 -0.1120 -1.4388
   55CHL1   C20 6526   1.835   1.372   9.242  0.2777  0.3373  0.4167
   55CHL1   H20 6527   1.944   1.360   9.264  0.7405  1.2594 -1.2829
   55CHL1   C21 6528   1.792   1.517   9.224  0.2310  0.1690 -0.6103
   55CHL1  H21A 6529   1.821   1.586   9.306  0.7812  2.6645 -2.8220
   55CHL1  H21B 6530   1.681   1.515   9.220  0.2395 -0.4821 -0.4896
   55CHL1  H21C 6531   1.827   1.570   9.132 -0.4028  1.6149 -0.0486
   55CHL1   C22 6532   1.798   1.285   9.113  0.1473 -0.2005 -0.7414
   55CHL1  H22A 6533   1.825   1.179   9.130  0.7965 -0.2785 -2.2006
   55CHL1  H22B 6534   1.689   1.292   9.094 -0.0497  1.4563  0.8108
   55CHL1   C23 6535   1.862   1.337   8.987 -0.0226 -0.0310 -0.1593
   55CHL1  H23A 6536   1.793   1.421   8.963 -0.2036 -0.3790 -0.8532
   55CHL1  H23B 6537   1.965   1.375   9.004  0.1414 -0.4669 -0.1969
   55CHL1   C24 6538   1.870   1.242   8.874  0.2814 -0.0951 -0.5424
   55CHL1  H24A 6539   1.905   1.144   8.913  0.5049 -0.4189 -1.5325
   55CHL1  H24B 6540   1.769   1.211   8.842  0.0981 -0.9926  0.8606
   55CHL1   C25 6541   1.959   1.281   8.757 -0.5825 -0.0851  0.1725
   55CHL1   H25 6542   2.068   1.270   8.776 -0.5621 -1.1322 -0.4830
   55CHL1   C26 6543   1.947   1.181   8.639 -0.2577 -0.1784 -0.5640
   55CHL1  H26A 6544   1.844   1.178   8.598 -1.1581  0.3502  1.6155
   55CHL1  H26B 6545   2.025   1.193   8.560 -0.4105 -0.0998 -0.7017
   55CHL1  H26C 6546   1.962   1.076   8.674 -3.1828 -0.4290  0.0933
   55CHL1   C27 6547   1.924   1.422   8.714 -0.0042  0.2663 -0.0176
   55CHL1  H27A 6548   1.814   1.415   8.702 -0.2521 -2.3404  3.2405
   55CHL1  H27B 6549   1.948   1.495   8.794 -0.8360  1.2504 -0.6559
   55CHL1  H27C 6550   1.965   1.465   8.620  0.2842  0.3158  0.1285
   56CHL1    C3 6551   5.879   6.329  10.187 -0.5311 -0.2769  0.2094
   56CHL1    H3 6552   5.795   6.256  10.196  0.4977 -1.2584  1.9921
   56CHL1    O3 6553   5.932   6.363  10.313  0.2694 -0.3234 -0.0044
   56CHL1   H3' 6554   5.864   6.417  10.354 -0.4881 -0.7548 -0.6670
   56CHL1    C4 6555   5.987   6.259  10.103  0.4925  0.7832 -0.8889
   56CHL1   H4A 6556   6.083   6.306  10.134  1.0976 -0.8782 -0.1609
   56CHL1   H4B 6557   5.991   6.161  10.155  1.1374  0.8871 -0.7385
   56CHL1    C5 6558   5.961   6.243   9.956  0.8437  0.1586 -0.2611
   56CHL1    C6 6559   5.968   6.126   9.879  0.2028 -0.4183 -0.4348
   56CHL1    H6 6560   6.006   6.039   9.934  0.2424 -1.3729 -1.9586
   56CHL1    C7 6561   5.947   6.110   9.731 -0.6088  0.7999 -0.1884
   56CHL1   H7A 6562   6.040   6.058   9.700 -0.8309 -0.9015  1.8618
   56CHL1   H7B 6563   5.861   6.045   9.702 -0.2861  0.5372 -0.5647
   56CHL1    C8 6564   5.939   6.247   9.661  0.0261 -0.1211  0.5360
   56CHL1    H8 6565   6.045   6.280   9.655  0.7760 -2.1570  1.8567
   56CHL1   C14 6566   5.895   6.223   9.520 -0.2819  0.8432  0.0102
   56CHL1   H14 6567   5.791   6.184   9.523  0.3735 -0.8427  2.0315
   56CHL1   C15 6568   5.989   6.135   9.429 -0.1177 -0.5410  0.7729
   56CHL1  H15A 6569   6.096   6.165   9.434  0.1747 -1.3645 -0.2674
   56CHL1  H15B 6570   5.968   6.028   9.453  1.4610 -1.1829 -0.6210
   56CHL1   C16 6571   5.929   6.161   9.284  0.4315  0.5264 -0.3210
   56CHL1  H16A 6572   6.009   6.186   9.212 -0.0703 -0.4407 -1.2172
   56CHL1  H16B 6573   5.864   6.080   9.245  1.6421 -0.3640 -0.5341
   56CHL1   C17 6574   5.849   6.297   9.292 -0.1179  0.0564  0.9543
   56CHL1   H17 6575   5.740   6.276   9.289 -0.0555 -0.1290 -1.3014
   56CHL1   C13 6576   5.872   6.350   9.440  0.6401 -0.8428 -0.0053
   56CHL1   C18 6577   5.992   6.438   9.431  0.1575 -0.6784 -0.2799
   56CHL1  H18A 6578   5.972   6.540   9.392  1.4116 -0.5895 -0.7227
   56CHL1  H18B 6579   6.041   6.454   9.529 -3.8731  0.4557  1.6456
   56CHL1  H18C 6580   6.074   6.406   9.363  1.4906  4.0690 -1.1243
   56CHL1   C12 6581   5.762   6.428   9.508 -0.5044  0.3403 -0.4018
   56CHL1  H12A 6582   5.731   6.510   9.440  0.6099 -0.4768 -1.9237
   56CHL1  H12B 6583   5.669   6.368   9.507 -0.5177  0.2749  1.6895
   56CHL1   C11 6584   5.798   6.471   9.655 -0.0566  0.0233  0.4121
   56CHL1  H11A 6585   5.882   6.544   9.650 -0.8657  0.9901  0.6860
   56CHL1  H11B 6586   5.723   6.529   9.713  0.8896 -0.1163  1.8153
   56CHL1    C9 6587   5.843   6.342   9.734  0.4156  0.3694  0.2538
   56CHL1    H9 6588   5.749   6.288   9.759  0.9334 -0.1858  0.9951
   56CHL1   C10 6589   5.900   6.369   9.880 -0.3499  0.2271  0.4845
   56CHL1   C19 6590   6.017   6.465   9.869 -0.1347 -0.6425  0.8336
   56CHL1  H19A 6591   6.065   6.465   9.969  2.8940 -0.5393 -0.5652
   56CHL1  H19B 6592   6.097   6.435   9.798 -2.2758  0.7507 -2.2676
   56CHL1  H19C 6593   5.993   6.572   9.849 -0.6396 -1.2543 -2.1274
   56CHL1    C1 6594   5.782   6.427   9.970 -0.2843  0.3511 -0.0798
   56CHL1   H1A 6595   5.731   6.514   9.925  1.5221  0.8274 -1.2305
   56CHL1   H1B 6596   5.697   6.355   9.976 -1.0972  1.0536 -2.7471
   56CHL1    C2 6597   5.825   6.457  10.121 -0.2310 -0.0574 -0.6411
   56CHL1   H2A 6598   5.732   6.497  10.167  0.0792  0.6609 -0.6384
   56CHL1   H2B 6599   5.910   6.528  10.113  1.1784 -1.9652 -3.7422
   56CHL1   C20 6600   5.868   6.394   9.172  0.0859  0.7380 -0.1332
   56CHL1   H20 6601   5.973   6.428   9.158 -0.3602  1.7034 -1.2588
   56CHL1   C21 6602   5.791   6.530   9.180 -0.2732  0.5975 -0.3214
   56CHL1  H21A 6603   5.836   6.589   9.262  0.7298 -0.5715 -0.0127
   56CHL1  H21B 6604   5.682   6.512   9.195 -0.6958  3.7882  0.8630
   56CHL1  H21C 6605   5.798   6.588   9.085  0.4368 -0.5697 -0.9968
   56CHL1   C22 6606   5.836   6.314   9.039 -0.0192 -0.5542 -0.6107
   56CHL1  H22A 6607   5.883   6.213   9.039 -1.3092 -1.1688 -0.3116
   56CHL1  H22B 6608   5.730   6.283   9.039  0.1120 -1.0138 -0.7034
   56CHL1   C23 6609   5.869   6.377   8.899  0.3062  0.5056 -0.2549
   56CHL1  H23A 6610   5.836   6.483   8.891  2.7719  1.2550 -1.0636
   56CHL1  H23B 6611   5.979   6.381   8.883 -0.1599  0.3393 -3.7193
   56CHL1   C24 6612   5.815   6.291   8.783 -0.0028 -0.0354 -0.1171
   56CHL1  H24A 6613   5.841   6.340   8.687  1.9640 -1.5758 -0.4148
   56CHL1  H24B 6614   5.870   6.194   8.784  0.4223  0.1908 -1.2989
   56CHL1   C25 6615   5.662   6.263   8.771  0.6413  0.4423  0.3932
   56CHL1   H25 6616   5.632   6.203   8.860  0.9459  1.1949  1.0076
   56CHL1   C26 6617   5.593   6.398   8.782  0.0449  0.8686 -0.3417
   56CHL1  H26A 6618   5.483   6.382   8.782  0.2191 -0.4280 -0.2168
   56CHL1  H26B 6619   5.613   6.462   8.871  1.4132 -1.2159  0.9064
   56CHL1  H26C 6620   5.622   6.463   8.697 -0.0189  0.5919 -0.5744
   56CHL1   C27 6621   5.623   6.189   8.644  1.5302 -0.0412  0.2733
   56CHL1  H27A 6622   5.647   6.082   8.658  0.6809 -0.8552 -3.8192
   56CHL1  H27B 6623   5.513   6.186   8.630  1.8677  1.6987 -3.5855
   56CHL1  H27C 6624   5.677   6.221   8.552 -1.8722  1.9538 -1.1472
   57CHL1    C3 6625   1.668   1.981  10.259 -0.5276  0.2472 -0.2336
   57CHL1    H3 6626   1.624   1.882  10.233 -1.5003  0.4795  0.4967
   57CHL1    O3 6627   1.639   2.006  10.390 -0.4233  0.1650  0.6011
   57CHL1   H3' 6628   1.724   2.021  10.432 -0.1245  1.4694 -0.4151
   57CHL1    C4 6629   1.821   1.968  10.224 -0.4050 -0.0801 -0.0366
   57CHL1   H4A 6630   1.859   2.065  10.261 -0.5095 -0.1961  0.3816
   57CHL1   H4B 6631   1.873   1.889  10.282 -0.0986  0.1651  0.0178
   57CHL1    C5 6632   1.855   1.961  10.081 -0.3985  1.0026  0.4908
   57CHL1    C6 6633   1.932   1.862  10.029  0.4284 -0.5856 -0.1544
   57CHL1    H6 6634   1.971   1.779  10.090  0.3542 -0.0012  0.6944
   57CHL1    C7 6635   1.960   1.846   9.883 -0.3597  0.1163 -0.1860
   57CHL1   H7A 6636   2.069   1.827   9.872 -0.0983  1.7846 -0.5750
   57CHL1   H7B 6637   1.902   1.762   9.842 -3.1819 -0.1751  4.0591
   57CHL1    C8 6638   1.926   1.962   9.788 -0.7412 -0.2737  0.9910
   57CHL1    H8 6639   2.010   2.035   9.786 -2.5754  1.8875  0.5466
   57CHL1   C14 6640   1.907   1.921   9.637 -0.3105  0.1046  0.1160
   57CHL1   H14 6641   1.811   1.867   9.645 -0.8490  0.8773 -1.1032
   57CHL1   C15 6642   2.022   1.843   9.568  0.7070 -0.7730 -0.3389
   57CHL1  H15A 6643   2.119   1.896   9.571 -0.0962  0.7242 -0.7287
   57CHL1  H15B 6644   2.031   1.735   9.595  0.3626 -0.6327  0.3435
   57CHL1   C16 6645   1.986   1.851   9.422  0.0367  0.1681  0.6410
   57CHL1  H16A 6646   2.080   1.872   9.366  0.3604 -1.7966  0.4077
   57CHL1  H16B 6647   1.952   1.752   9.385  3.2988 -1.7648  2.5864
   57CHL1   C17 6648   1.878   1.968   9.409 -0.1526  0.1455  0.0287
   57CHL1   H17 6649   1.778   1.919   9.404 -0.4896  0.5818  1.9524
   57CHL1   C13 6650   1.880   2.043   9.545 -0.2384 -0.2230 -0.7654
   57CHL1   C18 6651   2.010   2.138   9.540  0.0136  0.2627  0.5077
   57CHL1  H18A 6652   2.007   2.213   9.458  1.0665 -2.2766 -1.9728
   57CHL1  H18B 6653   2.034   2.189   9.635  2.8100  1.4808 -0.7927
   57CHL1  H18C 6654   2.100   2.083   9.505 -1.4669 -0.8723 -1.6966
   57CHL1   C12 6655   1.753   2.112   9.595 -0.0277  0.5130 -0.1104
   57CHL1  H12A 6656   1.728   2.204   9.538  0.2348  1.0582  0.6556
   57CHL1  H12B 6657   1.676   2.032   9.585  0.7966 -0.4145  0.9224
   57CHL1   C11 6658   1.780   2.150   9.742  0.5106  0.9227 -0.4746
   57CHL1  H11A 6659   1.871   2.212   9.757  1.7629 -0.8198 -0.7287
   57CHL1  H11B 6660   1.689   2.199   9.783  0.5663  0.7874 -0.1897
   57CHL1    C9 6661   1.799   2.032   9.838 -0.2016 -1.1679  0.0536
   57CHL1    H9 6662   1.713   1.967   9.809  0.6637 -1.3146 -2.2424
   57CHL1   C10 6663   1.792   2.071   9.988  0.2998 -0.2327  0.3465
   57CHL1   C19 6664   1.871   2.201  10.007 -0.3824  0.0813 -0.2119
   57CHL1  H19A 6665   1.826   2.282   9.947 -1.0414 -2.3395 -3.0609
   57CHL1  H19B 6666   1.862   2.238  10.112 -2.2735  0.6894 -0.5865
   57CHL1  H19C 6667   1.977   2.183   9.978  0.1021  0.8873  0.9947
   57CHL1    C1 6668   1.639   2.093  10.029  0.3979 -0.0065 -0.3592
   57CHL1   H1A 6669   1.602   2.187   9.982 -1.5201 -0.9343 -0.7284
   57CHL1   H1B 6670   1.575   2.016   9.982  2.2908 -0.4357 -2.3442
   57CHL1    C2 6671   1.614   2.100  10.179  0.8513  0.7547 -0.2538
   57CHL1   H2A 6672   1.504   2.095  10.198  0.8015  1.3337 -0.3830
   57CHL1   H2B 6673   1.654   2.193  10.223  0.7217  1.5159 -1.7198
   57CHL1   C20 6674   1.907   2.039   9.276 -0.0636  0.2393 -0.4539
   57CHL1   H20 6675   2.010   2.080   9.291 -0.3848  0.2226  1.9655
   57CHL1   C21 6676   1.812   2.155   9.262 -0.2529 -0.6453 -0.3091
   57CHL1  H21A 6677   1.818   2.231   9.342  1.1447  1.4170 -2.3050
   57CHL1  H21B 6678   1.711   2.109   9.262 -0.5983  0.0942 -1.3301
   57CHL1  H21C 6679   1.831   2.209   9.166  1.2215  0.1471  0.4027
   57CHL1   C22 6680   1.881   1.958   9.153 -0.6402  0.0175 -0.7759
   57CHL1  H22A 6681   1.886   1.850   9.180 -0.0290 -0.2290 -1.8584
   57CHL1  H22B 6682   1.786   1.983   9.103 -1.6940  0.0708  1.1933
   57CHL1   C23 6683   1.984   1.979   9.037 -0.1566  0.6262  0.2079
   57CHL1  H23A 6684   1.991   2.085   9.006  0.1787  0.9163  1.2404
   57CHL1  H23B 6685   2.081   1.944   9.077 -0.9325  0.7755  2.3058
   57CHL1   C24 6686   1.949   1.907   8.905  0.6525 -0.2546 -0.6850
   57CHL1  H24A 6687   1.872   1.831   8.926  0.1367  0.7848  1.2878
   57CHL1  H24B 6688   1.914   1.973   8.823  0.5842  1.0778  0.3973
   57CHL1   C25 6689   2.061   1.829   8.828 -0.0706 -0.3396 -0.1536
   57CHL1   H25 6690   2.143   1.900   8.806 -1.0638  0.8535 -0.0127
   57CHL1   C26 6691   2.122   1.708   8.912 -0.0247 -0.2046 -0.1977
   57CHL1  H26A 6692   2.037   1.642   8.942 -0.7861  0.3695 -1.0527
   57CHL1  H26B 6693   2.186   1.642   8.851  0.0280  0.5286 -0.9447
   57CHL1  H26C 6694   2.179   1.745   9.000 -0.0955  1.0079 -0.6435
   57CHL1   C27 6695   2.006   1.778   8.690 -0.6613  0.6136  0.5473
   57CHL1  H27A 6696   1.923   1.707   8.713  0.1008 -0.2273  0.7486
   57CHL1  H27B 6697   1.972   1.867   8.633  1.3980 -0.5334 -2.5611
   57CHL1  H27C 6698   2.086   1.723   8.637 -0.4674  1.1037  0.3361
   58CHL1    C3 6699   4.370   0.784  10.010  0.2075 -0.3258 -0.1863
   58CHL1    H3 6700   4.269   0.741   9.989  0.8956 -1.6681 -0.8468
   58CHL1    O3 6701   4.406   0.777  10.147 -0.3993 -0.2024  0.2787
   58CHL1   H3' 6702   4.502   0.774  10.140 -0.1315  2.5187  1.9692
   58CHL1    C4 6703   4.463   0.684   9.944  0.2567 -0.5101 -0.2895
   58CHL1   H4A 6704   4.564   0.715   9.980 -0.0013 -1.1208  1.0074
   58CHL1   H4B 6705   4.452   0.579   9.980  0.1028  0.4077  2.4833
   58CHL1    C5 6706   4.460   0.691   9.794 -0.2141  0.2521  0.0944
   58CHL1    C6 6707   4.436   0.579   9.717 -0.2929 -0.0923 -0.2956
   58CHL1    H6 6708   4.425   0.480   9.762 -1.3129 -0.5827 -1.5836
   58CHL1    C7 6709   4.451   0.568   9.570 -0.3166 -1.3600 -0.1550
   58CHL1   H7A 6710   4.519   0.482   9.548  1.4180  0.6204 -2.7712
   58CHL1   H7B 6711   4.355   0.529   9.530 -2.6637  2.4818  1.4841
   58CHL1    C8 6712   4.500   0.701   9.502  0.1810  1.0677  0.1885
   58CHL1    H8 6713   4.611   0.692   9.501  0.0876 -0.2609  0.0789
   58CHL1   C14 6714   4.454   0.700   9.357  0.1505 -0.9940  0.6314
   58CHL1   H14 6715   4.343   0.708   9.354  0.2165 -0.3844 -0.5028
   58CHL1   C15 6716   4.492   0.579   9.271  0.5066 -0.0253  0.3580
   58CHL1  H15A 6717   4.601   0.564   9.291  1.1577  2.1821 -1.4004
   58CHL1  H15B 6718   4.430   0.487   9.280  1.0574 -0.1557  3.3779
   58CHL1   C16 6719   4.485   0.641   9.131 -0.3114 -0.1665 -0.4184
   58CHL1  H16A 6720   4.577   0.622   9.071  0.0475  0.1047  0.0487
   58CHL1  H16B 6721   4.410   0.587   9.069 -0.2951  0.6918 -1.2022
   58CHL1   C17 6722   4.446   0.787   9.135  0.5886  0.7427 -0.3130
   58CHL1   H17 6723   4.336   0.774   9.130  0.5326  1.0206  0.1746
   58CHL1   C13 6724   4.498   0.828   9.277 -1.0882  0.2927  0.6736
   58CHL1   C18 6725   4.650   0.839   9.272 -1.1135  0.6870 -0.4836
   58CHL1  H18A 6726   4.686   0.758   9.205 -0.1251 -0.1204  0.9884
   58CHL1  H18B 6727   4.690   0.938   9.243 -1.6419  0.9369 -0.3805
   58CHL1  H18C 6728   4.689   0.818   9.374 -1.9874 -3.6963 -0.9467
   58CHL1   C12 6729   4.430   0.947   9.346  0.0560 -0.6396  0.3900
   58CHL1  H12A 6730   4.462   1.039   9.294 -0.0963 -0.1566  1.1522
   58CHL1  H12B 6731   4.319   0.937   9.335 -0.2335  2.5648  0.0058
   58CHL1   C11 6732   4.473   0.955   9.497  0.0374 -0.4118  0.3320
   58CHL1  H11A 6733   4.578   0.991   9.495 -0.2230  0.3473 -0.1425
   58CHL1  H11B 6734   4.413   1.035   9.545 -2.2256 -2.1473  0.5012
   58CHL1    C9 6735   4.450   0.827   9.577 -0.3100 -0.7496  0.1056
   58CHL1    H9 6736   4.340   0.810   9.572 -0.1969 -2.0584  1.3959
   58CHL1   C10 6737   4.480   0.832   9.728 -0.4690 -0.4939 -0.5503
   58CHL1   C19 6738   4.629   0.877   9.746 -0.1349  0.5619 -0.1944
   58CHL1  H19A 6739   4.705   0.830   9.680  2.7253  1.9229  2.0169
   58CHL1  H19B 6740   4.628   0.987   9.732 -0.8830  0.6215  0.2910
   58CHL1  H19C 6741   4.667   0.857   9.849  1.2406  2.5265 -0.2982
   58CHL1    C1 6742   4.379   0.927   9.792  0.3796  0.7260 -0.1550
   58CHL1   H1A 6743   4.399   1.029   9.753 -0.7164  1.7756  1.9168
   58CHL1   H1B 6744   4.273   0.906   9.769  0.4392  0.2627  0.0010
   58CHL1    C2 6745   4.390   0.928   9.951  0.6647 -0.0795  0.2117
   58CHL1   H2A 6746   4.323   1.004   9.997 -1.3749 -1.0867 -1.0121
   58CHL1   H2B 6747   4.497   0.952   9.968  0.7267  0.3038 -0.7244
   58CHL1   C20 6748   4.494   0.863   9.015  0.0339  0.1442 -0.0172
   58CHL1   H20 6749   4.605   0.865   9.020 -0.0694  0.2271  3.4049
   58CHL1   C21 6750   4.446   1.010   9.021  0.1893 -0.4496 -0.3198
   58CHL1  H21A 6751   4.470   1.063   8.926 -0.4237  1.0720  0.3554
   58CHL1  H21B 6752   4.500   1.062   9.102  0.3359 -3.1118  1.3319
   58CHL1  H21C 6753   4.335   1.017   9.032  0.3082  0.5821  0.2774
   58CHL1   C22 6754   4.457   0.795   8.877  0.1091  0.2731 -0.8480
   58CHL1  H22A 6755   4.444   0.686   8.894 -4.1921  0.4914 -2.1723
   58CHL1  H22B 6756   4.358   0.840   8.855 -1.3464 -2.9482 -1.1763
   58CHL1   C23 6757   4.559   0.824   8.761  0.8063  0.0996  0.2243
   58CHL1  H23A 6758   4.579   0.933   8.757 -2.8114  0.7900 -0.1739
   58CHL1  H23B 6759   4.653   0.772   8.789  0.8343 -0.3812 -0.7430
   58CHL1   C24 6760   4.494   0.802   8.621 -1.0338  0.3483  0.7645
   58CHL1  H24A 6761   4.417   0.722   8.628 -0.7254  0.0143  0.3529
   58CHL1  H24B 6762   4.435   0.894   8.602 -2.3365 -0.8433 -1.1201
   58CHL1   C25 6763   4.593   0.768   8.503  0.2498  0.2504 -0.4808
   58CHL1   H25 6764   4.685   0.830   8.508  0.4508 -0.1384  0.7970
   58CHL1   C26 6765   4.632   0.626   8.526  1.2688  0.6105 -0.0476
   58CHL1  H26A 6766   4.542   0.562   8.521  2.7152 -1.8037  2.9529
   58CHL1  H26B 6767   4.703   0.587   8.449 -0.1282  1.9088 -2.0528
   58CHL1  H26C 6768   4.679   0.601   8.624  0.7229 -0.0708  0.0450
   58CHL1   C27 6769   4.523   0.789   8.367  0.1621 -0.7856 -0.2926
   58CHL1  H27A 6770   4.587   0.770   8.278  1.7501  3.2436 -0.0897
   58CHL1  H27B 6771   4.437   0.718   8.361 -0.4708 -0.0401 -0.1490
   58CHL1  H27C 6772   4.497   0.896   8.352 -2.0860 -1.2644 -0.0992
   59CHL1    C3 6773   3.662   0.050  10.339 -0.0041  0.1080  0.4121
   59CHL1    H3 6774   3.772   0.053  10.320 -0.1335  1.9172 -0.1010
   59CHL1    O3 6775   3.633   0.079  10.472 -1.1012  0.6824  0.3366
   59CHL1   H3' 6776   3.543   0.049  10.486 -1.2188 -0.3072 -2.1885
   59CHL1    C4 6777   3.609   0.169  10.254 -0.4466 -0.2107 -0.8484
   59CHL1   H4A 6778   3.500   0.177  10.273 -0.5967 -1.1045 -1.3193
   59CHL1   H4B 6779   3.667   0.255  10.293  1.3982 -2.1247  0.7815
   59CHL1    C5 6780   3.626   0.149  10.108 -0.8092 -0.6281 -0.0638
   59CHL1    C6 6781   3.693   0.237  10.024  0.2576 -0.1116  0.3958
   59CHL1    H6 6782   3.734   0.330  10.066 -1.4762  0.3333  1.1253
   59CHL1    C7 6783   3.725   0.203   9.880 -0.5157 -0.4337 -0.0477
   59CHL1   H7A 6784   3.724   0.292   9.814 -0.0352 -0.0265  0.4842
   59CHL1   H7B 6785   3.824   0.154   9.871 -0.2512 -0.1721  1.2545
   59CHL1    C8 6786   3.634   0.095   9.823 -0.0340  0.0068  0.1002
   59CHL1    H8 6787   3.527   0.122   9.810 -0.5505 -1.3562  1.3484
   59CHL1   C14 6788   3.681   0.049   9.688  0.5359  0.2559  0.7339
   59CHL1   H14 6789   3.782   0.002   9.689 -0.5038 -2.0131  1.2994
   59CHL1   C15 6790   3.702   0.167   9.584 -0.0198  0.0212 -0.7069
   59CHL1  H15A 6791   3.611   0.230   9.584  1.1865  1.8291  0.8439
   59CHL1  H15B 6792   3.796   0.224   9.601 -0.3901  0.8237 -1.3031
   59CHL1   C16 6793   3.711   0.089   9.455 -0.5413  0.1931  0.2848
   59CHL1  H16A 6794   3.634   0.132   9.386 -1.2956  0.0803  1.0566
   59CHL1  H16B 6795   3.815   0.093   9.414 -1.1102 -0.6808 -1.2953
   59CHL1   C17 6796   3.675  -0.058   9.479  0.2560 -0.4426  0.1068
   59CHL1   H17 6797   3.770  -0.112   9.495  0.2496  0.1626  2.2834
   59CHL1   C13 6798   3.603  -0.063   9.617 -0.3514  0.3166  0.1660
   59CHL1   C18 6799   3.455  -0.018   9.600 -0.7577 -0.1606  0.4651
   59CHL1  H18A 6800   3.405  -0.021   9.699 -0.0003  0.0015  0.8615
   59CHL1  H18B 6801   3.462   0.088   9.567 -0.9748  0.9608  3.8736
   59CHL1  H18C 6802   3.395  -0.073   9.525 -0.6985  0.7293 -0.2430
   59CHL1   C12 6803   3.609  -0.187   9.710 -0.7311 -0.0472 -0.1040
   59CHL1  H12A 6804   3.556  -0.281   9.683 -0.3509  0.7562 -3.9723
   59CHL1  H12B 6805   3.716  -0.218   9.710  0.2053  2.8860  2.3310
   59CHL1   C11 6806   3.567  -0.147   9.855  0.5385  0.7143 -0.6512
   59CHL1  H11A 6807   3.456  -0.151   9.866  0.7019  1.2967  1.5482
   59CHL1  H11B 6808   3.609  -0.229   9.917 -0.8695  0.7560  0.4033
   59CHL1    C9 6809   3.641  -0.023   9.915 -0.4185 -0.0415 -1.6214
   59CHL1    H9 6810   3.747  -0.052   9.927  0.4278  3.4066  0.1177
   59CHL1   C10 6811   3.579   0.013  10.060 -0.0673  0.7251  0.8386
   59CHL1   C19 6812   3.422   0.016  10.060 -0.0218  0.1790  0.0547
   59CHL1  H19A 6813   3.385   0.027  10.164 -2.5810 -1.9284 -0.5680
   59CHL1  H19B 6814   3.374   0.092   9.995 -1.3589 -0.5612  0.1464
   59CHL1  H19C 6815   3.383  -0.082  10.024  0.7876 -0.5247  1.0719
   59CHL1    C1 6816   3.625  -0.105  10.154 -0.2321 -0.5493  0.0409
   59CHL1   H1A 6817   3.584  -0.206  10.132 -0.5101 -0.1121 -1.5156
   59CHL1   H1B 6818   3.735  -0.117  10.141 -0.1778  0.0145 -0.0551
   59CHL1    C2 6819   3.607  -0.087  10.306  0.0698 -0.3084  0.6655
   59CHL1   H2A 6820   3.658  -0.171  10.357  0.3917 -1.0680 -0.8665
   59CHL1   H2B 6821   3.499  -0.088  10.329 -0.4437 -0.3752 -1.5885
   59CHL1   C20 6822   3.606  -0.125   9.360 -0.1105  0.5493  0.3335
   59CHL1   H20 6823   3.514  -0.070   9.330  0.1924  0.2696 -1.1539
   59CHL1   C21 6824   3.573  -0.268   9.401 -0.6240 -0.2565 -0.2103
   59CHL1  H21A 6825   3.542  -0.333   9.316  0.2422 -0.0966 -0.6621
   59CHL1  H21B 6826   3.502  -0.272   9.486 -0.4417 -0.6752 -0.0799
   59CHL1  H21C 6827   3.665  -0.318   9.436 -1.4934 -1.6764  0.0658
   59CHL1   C22 6828   3.708  -0.107   9.241 -0.3528  0.0272 -0.7879
   59CHL1  H22A 6829   3.742  -0.002   9.229 -3.4523  1.4205  1.8889
   59CHL1  H22B 6830   3.800  -0.162   9.269  0.4553  2.3312  1.3395
   59CHL1   C23 6831   3.665  -0.176   9.108  0.2375  0.0601  0.7032
   59CHL1  H23A 6832   3.630  -0.279   9.131 -0.1759  0.7361  3.3303
   59CHL1  H23B 6833   3.579  -0.124   9.061  1.9462  1.6758 -0.7124
   59CHL1   C24 6834   3.786  -0.176   9.016 -0.2883  0.2148  0.1852
   59CHL1  H24A 6835   3.831  -0.074   9.016  1.2287 -0.4207  1.4796
   59CHL1  H24B 6836   3.864  -0.233   9.071  0.1034  2.0144  1.5681
   59CHL1   C25 6837   3.769  -0.247   8.878  0.5426  0.2619 -0.0085
   59CHL1   H25 6838   3.841  -0.207   8.803  1.5475 -0.6824  0.4486
   59CHL1   C26 6839   3.775  -0.397   8.898 -0.4777 -0.7947  0.4014
   59CHL1  H26A 6840   3.869  -0.425   8.951  0.6002  1.9609  0.0316
   59CHL1  H26B 6841   3.694  -0.430   8.967  0.1493 -1.0202  1.0365
   59CHL1  H26C 6842   3.759  -0.450   8.802  3.3902  0.4671 -1.0705
   59CHL1   C27 6843   3.620  -0.224   8.828 -0.8397  0.7038 -0.0306
   59CHL1  H27A 6844   3.615  -0.258   8.722 -2.2084 -0.0889  0.2673
   59CHL1  H27B 6845   3.549  -0.285   8.889  0.6572 -0.3614  0.6624
   59CHL1  H27C 6846   3.590  -0.117   8.830  1.2459  1.3008  0.7735
   60CHL1    C3 6847   3.586   5.759  10.222  0.6821 -0.4202 -0.2024
   60CHL1    H3 6848   3.514   5.842  10.232  1.1554 -0.1642  1.1852
   60CHL1    O3 6849   3.603   5.727  10.359 -0.7885 -0.4606 -0.0781
   60CHL1   H3' 6850   3.640   5.638  10.360 -2.5134 -1.1877  0.9718
   60CHL1    C4 6851   3.537   5.638  10.138 -0.1892  0.4474 -0.3470
   60CHL1   H4A 6852   3.608   5.558  10.167 -2.0755  0.0262  3.3843
   60CHL1   H4B 6853   3.440   5.602  10.180 -0.1545  0.3906 -0.3143
   60CHL1    C5 6854   3.539   5.653   9.987 -0.5332  0.3378  0.2411
   60CHL1    C6 6855   3.438   5.635   9.901  0.7398 -0.0848  1.3374
   60CHL1    H6 6856   3.345   5.594   9.943  0.2382 -1.2358 -0.8413
   60CHL1    C7 6857   3.449   5.664   9.754  0.8226 -0.5302 -0.4713
   60CHL1   H7A 6858   3.390   5.584   9.704 -0.0158 -0.2839  0.1190
   60CHL1   H7B 6859   3.410   5.767   9.740 -0.1623 -0.7822  0.3458
   60CHL1    C8 6860   3.592   5.657   9.704  0.1528 -0.2480  0.8089
   60CHL1    H8 6861   3.616   5.549   9.704 -0.1155 -0.3136  1.6990
   60CHL1   C14 6862   3.610   5.696   9.559  0.6951 -0.4387  0.0027
   60CHL1   H14 6863   3.592   5.806   9.560 -0.7612 -0.6526 -0.4981
   60CHL1   C15 6864   3.507   5.643   9.456  0.4109  0.5410  0.3450
   60CHL1  H15A 6865   3.494   5.534   9.476 -0.4262 -0.1610 -3.6134
   60CHL1  H15B 6866   3.414   5.702   9.468  0.5738  0.6088  1.3160
   60CHL1   C16 6867   3.575   5.674   9.322  0.1494  0.3328  0.2074
   60CHL1  H16A 6868   3.565   5.589   9.251 -1.8805 -0.0774  0.9542
   60CHL1  H16B 6869   3.517   5.761   9.284 -0.6620 -0.0227  0.6210
   60CHL1   C17 6870   3.721   5.730   9.358  0.5615 -0.0286  0.1509
   60CHL1   H17 6871   3.709   5.841   9.361 -0.2995 -0.1083 -0.1161
   60CHL1   C13 6872   3.748   5.689   9.506 -0.3758  0.2358 -0.5703
   60CHL1   C18 6873   3.796   5.542   9.499  0.5718  0.2246  0.7760
   60CHL1  H18A 6874   3.725   5.472   9.450  1.3882 -0.5787  0.7018
   60CHL1  H18B 6875   3.890   5.534   9.440  1.3814 -0.0930  2.0984
   60CHL1  H18C 6876   3.818   5.501   9.600 -1.3748 -0.7827  0.8092
   60CHL1   C12 6877   3.834   5.789   9.583 -0.3078  0.1118 -0.5493
   60CHL1  H12A 6878   3.941   5.788   9.555  0.2659  0.5368  1.5072
   60CHL1  H12B 6879   3.789   5.888   9.561  0.3354  0.8345  1.3160
   60CHL1   C11 6880   3.824   5.748   9.729 -0.0852  0.0387 -0.7718
   60CHL1  H11A 6881   3.868   5.646   9.730 -1.1523 -0.4235  0.0288
   60CHL1  H11B 6882   3.893   5.814   9.785 -0.5106 -1.3392  1.4879
   60CHL1    C9 6883   3.682   5.738   9.793 -0.0430  0.2159 -0.1722
   60CHL1    H9 6884   3.644   5.841   9.779 -1.0706 -0.2456 -0.8993
   60CHL1   C10 6885   3.678   5.697   9.943  0.3975  0.9934 -0.4397
   60CHL1   C19 6886   3.770   5.573   9.964 -0.5480  0.0940 -0.4917
   60CHL1  H19A 6887   3.732   5.493   9.898  0.6809 -0.7131 -0.2207
   60CHL1  H19B 6888   3.873   5.592   9.927  0.5620  1.6563  3.2039
   60CHL1  H19C 6889   3.776   5.530  10.066 -0.2809 -1.4862 -1.1640
   60CHL1    C1 6890   3.724   5.821  10.021  0.1971 -0.2130  0.1302
   60CHL1   H1A 6891   3.826   5.855   9.997 -0.0928  1.6031  1.4013
   60CHL1   H1B 6892   3.661   5.911  10.002 -0.8779 -0.7332  1.1025
   60CHL1    C2 6893   3.721   5.808  10.170 -0.9518  0.1373 -0.7733
   60CHL1   H2A 6894   3.762   5.907  10.199 -2.0076  0.3477  0.0313
   60CHL1   H2B 6895   3.802   5.737  10.198 -0.5463  2.1404  3.4642
   60CHL1   C20 6896   3.814   5.690   9.243 -0.4421 -0.2711  0.0022
   60CHL1   H20 6897   3.832   5.580   9.244 -0.8649 -0.3386  3.2476
   60CHL1   C21 6898   3.954   5.761   9.254 -0.2257  0.2934  0.8027
   60CHL1  H21A 6899   4.020   5.716   9.176 -3.4494  1.0997 -2.5456
   60CHL1  H21B 6900   4.000   5.753   9.354  1.3306 -2.4608 -0.0856
   60CHL1  H21C 6901   3.949   5.869   9.229 -0.1435 -0.1383 -1.1781
   60CHL1   C22 6902   3.753   5.700   9.098  0.0395  0.5569  0.6276
   60CHL1  H22A 6903   3.838   5.671   9.032 -1.7156 -1.5476 -0.8037
   60CHL1  H22B 6904   3.676   5.620   9.090  0.2851  0.2990  0.8623
   60CHL1   C23 6905   3.691   5.832   9.054 -0.1983  0.4698 -0.0166
   60CHL1  H23A 6906   3.600   5.850   9.116 -0.2917  1.4195 -0.4198
   60CHL1  H23B 6907   3.769   5.907   9.082  0.9731 -0.2254 -1.3413
   60CHL1   C24 6908   3.657   5.841   8.902  0.3819 -0.0583  0.0399
   60CHL1  H24A 6909   3.753   5.847   8.847  1.1060 -0.7618  1.2050
   60CHL1  H24B 6910   3.609   5.750   8.860 -0.4830  0.1339  0.5837
   60CHL1   C25 6911   3.567   5.962   8.864 -0.4305  0.3474 -0.0041
   60CHL1   H25 6912   3.599   6.054   8.918  0.4432  1.2160 -1.9347
   60CHL1   C26 6913   3.601   5.999   8.715 -1.0738  0.0753  0.1407
   60CHL1  H26A 6914   3.553   6.097   8.693  0.0032  0.6315  0.2533
   60CHL1  H26B 6915   3.709   6.016   8.700 -1.2283  1.9748  1.0720
   60CHL1  H26C 6916   3.569   5.919   8.645 -1.9578  0.4237  0.1365
   60CHL1   C27 6917   3.422   5.933   8.886 -0.0783 -0.2835 -0.7975
   60CHL1  H27A 6918   3.379   6.035   8.875  1.9079  0.6463 -0.1401
   60CHL1  H27B 6919   3.367   5.875   8.809 -1.6054  1.7612 -1.2847
   60CHL1  H27C 6920   3.398   5.894   8.987 -0.3662  2.0687  0.0923
   61CHL1    C3 6921   0.890   5.482  10.422  0.0527 -0.3858 -0.0209
   61CHL1    H3 6922   0.924   5.587  10.435 -2.1320  0.7794 -3.0329
   61CHL1    O3 6923   0.857   5.431  10.549 -0.2288 -0.6337  0.6179
   61CHL1   H3' 6924   0.926   5.455  10.611 -0.3119  2.5610 -0.4488
   61CHL1    C4 6925   0.770   5.455  10.325  0.2414  0.2901 -0.8005
   61CHL1   H4A 6926   0.740   5.348  10.327 -3.9531  1.4026  1.2775
   61CHL1   H4B 6927   0.679   5.506  10.364  0.9409  1.3000 -0.4752
   61CHL1    C5 6928   0.795   5.486  10.179 -0.0757 -0.4411 -0.1344
   61CHL1    C6 6929   0.724   5.560  10.095  0.3280 -0.6760  0.0433
   61CHL1    H6 6930   0.634   5.610  10.135  0.1283 -1.5783  0.7564
   61CHL1    C7 6931   0.742   5.581   9.951 -0.5916  0.1479  0.1627
   61CHL1   H7A 6932   0.643   5.565   9.902 -1.2175  1.5933  0.9052
   61CHL1   H7B 6933   0.767   5.685   9.920 -0.1094 -0.4554 -1.5095
   61CHL1    C8 6934   0.846   5.490   9.889 -0.1019  0.6091  1.0555
   61CHL1    H8 6935   0.776   5.404   9.876 -0.1320  0.8567 -0.6034
   61CHL1   C14 6936   0.889   5.538   9.752 -0.4528 -0.7958 -0.3079
   61CHL1   H14 6937   0.943   5.633   9.772  0.5633 -1.2619 -0.7888
   61CHL1   C15 6938   0.777   5.571   9.651 -0.7440 -0.1941  1.5430
   61CHL1  H15A 6939   0.699   5.493   9.635 -0.7564  0.2256 -0.5641
   61CHL1  H15B 6940   0.713   5.660   9.666  0.9809  1.4912 -0.6191
   61CHL1   C16 6941   0.854   5.569   9.516 -0.6833 -0.3396  0.6730
   61CHL1  H16A 6942   0.803   5.491   9.456  0.1659 -0.1437 -0.3120
   61CHL1  H16B 6943   0.863   5.663   9.458 -1.4876 -0.4231  0.4113
   61CHL1   C17 6944   1.001   5.518   9.541 -0.3372 -0.0377 -1.0283
   61CHL1   H17 6945   1.065   5.606   9.564 -0.4515 -0.0631 -0.6034
   61CHL1   C13 6946   0.987   5.440   9.676 -0.6396  0.3578 -0.4814
   61CHL1   C18 6947   0.930   5.301   9.638  0.4381 -0.0259 -0.3978
   61CHL1  H18A 6948   1.017   5.242   9.602 -0.8968 -2.3978  0.2162
   61CHL1  H18B 6949   0.893   5.247   9.727  0.2787  4.4474  2.4308
   61CHL1  H18C 6950   0.852   5.300   9.558 -0.8242  0.0195  0.8111
   61CHL1   C12 6951   1.119   5.434   9.766  0.4836  0.4364 -0.1943
   61CHL1  H12A 6952   1.196   5.365   9.727  0.1124 -0.0106 -0.1450
   61CHL1  H12B 6953   1.160   5.534   9.793 -1.6329  1.0281  0.9797
   61CHL1   C11 6954   1.079   5.387   9.912 -0.0468  0.7863 -0.6217
   61CHL1  H11A 6955   1.054   5.282   9.887 -0.7289  0.7676  0.1237
   61CHL1  H11B 6956   1.174   5.381   9.969 -0.8387 -3.4469  0.4211
   61CHL1    C9 6957   0.959   5.470   9.979  0.0897  0.4910 -0.0726
   61CHL1    H9 6958   0.996   5.574   9.991  2.1746 -0.2125 -0.1809
   61CHL1   C10 6959   0.916   5.417  10.124 -0.0802 -0.4974  0.1132
   61CHL1   C19 6960   0.885   5.261  10.102  0.3663 -0.2574 -0.2067
   61CHL1  H19A 6961   0.833   5.218  10.190  1.2501 -0.1936  0.3467
   61CHL1  H19B 6962   0.818   5.234  10.017 -1.5787  0.1818  1.1421
   61CHL1  H19C 6963   0.980   5.204  10.103  0.5992  0.1392  2.8733
   61CHL1    C1 6964   1.036   5.451  10.219  0.1520 -0.1108 -0.3553
   61CHL1   H1A 6965   1.120   5.392  10.177  0.1860 -0.4975  0.2557
   61CHL1   H1B 6966   1.063   5.558  10.210 -2.8864  0.4751 -3.9988
   61CHL1    C2 6967   1.017   5.403  10.365 -0.1792 -0.1432  0.7717
   61CHL1   H2A 6968   1.105   5.436  10.424 -0.2495  2.5162 -0.5449
   61CHL1   H2B 6969   0.998   5.294  10.358 -0.4695 -0.1546  1.7610
   61CHL1   C20 6970   1.057   5.453   9.418 -0.1895 -0.1927  0.1010
   61CHL1   H20 6971   0.991   5.368   9.392  0.5703 -0.4480 -0.9959
   61CHL1   C21 6972   1.200   5.396   9.439 -0.6028  0.1794 -0.3428
   61CHL1  H21A 6973   1.212   5.313   9.512 -2.3405  1.4660  1.4270
   61CHL1  H21B 6974   1.250   5.489   9.473 -1.9414 -0.2978  3.0952
   61CHL1  H21C 6975   1.252   5.365   9.346  0.6050  1.7844 -0.2319
   61CHL1   C22 6976   1.048   5.556   9.296  0.0140 -0.6837  0.5175
   61CHL1  H22A 6977   0.978   5.643   9.304 -0.1278 -0.9761  2.7403
   61CHL1  H22B 6978   1.150   5.599   9.290  0.5604 -1.8473  1.3015
   61CHL1   C23 6979   1.018   5.489   9.160 -0.0319 -0.1258 -0.3465
   61CHL1  H23A 6980   1.041   5.383   9.180 -3.8491 -0.7159  1.3800
   61CHL1  H23B 6981   0.909   5.486   9.140 -0.3296 -1.0227  1.3042
   61CHL1   C24 6982   1.090   5.543   9.042 -0.4633 -0.2641 -0.2351
   61CHL1  H24A 6983   1.084   5.654   9.036  1.5797 -0.1483 -0.7135
   61CHL1  H24B 6984   1.196   5.511   9.051 -0.5727 -1.3543 -2.3802
   61CHL1   C25 6985   1.055   5.489   8.902 -0.0038 -0.0057  0.8508
   61CHL1   H25 6986   1.066   5.379   8.911 -0.7673 -0.2655 -1.1186
   61CHL1   C26 6987   0.904   5.517   8.859  0.0023 -0.6619  0.2058
   61CHL1  H26A 6988   0.879   5.624   8.849  1.3588 -0.3039  0.4915
   61CHL1  H26B 6989   0.882   5.467   8.762 -0.0481  1.4261 -0.8848
   61CHL1  H26C 6990   0.833   5.463   8.925  0.4575 -1.6206 -0.0683
   61CHL1   C27 6991   1.141   5.538   8.782  0.6934 -0.2847  0.8565
   61CHL1  H27A 6992   1.105   5.494   8.687 -1.3809  0.7757  1.1255
   61CHL1  H27B 6993   1.141   5.649   8.776  0.8253 -0.1916  2.3722
   61CHL1  H27C 6994   1.250   5.516   8.788  0.5981 -0.5296  1.7716
   62CHL1    C3 6995   1.085   1.766  10.284  0.7304 -0.4013  0.1723
   62CHL1    H3 6996   1.003   1.691  10.289  1.2450 -0.9504  0.4708
   62CHL1    O3 6997   1.123   1.799  10.421  0.3291 -0.8334  0.0824
   62CHL1   H3' 6998   1.201   1.854  10.416 -0.4918  0.1425 -3.0796
   62CHL1    C4 6999   1.210   1.707  10.222  0.2409  0.2621 -0.3309
   62CHL1   H4A 7000   1.304   1.761  10.249  0.1179  0.6094 -0.5857
   62CHL1   H4B 7001   1.221   1.612  10.278 -0.4208  0.4255  0.0713
   62CHL1    C5 7002   1.194   1.683  10.071  0.1709  0.2227  0.2040
   62CHL1    C6 7003   1.193   1.560  10.012 -0.0244 -0.9539  0.1570
   62CHL1    H6 7004   1.190   1.471  10.077 -1.3473 -2.7823 -2.3280
   62CHL1    C7 7005   1.196   1.537   9.855  0.0028 -0.1544  0.3193
   62CHL1   H7A 7006   1.272   1.460   9.829 -1.1750 -1.5317  0.8773
   62CHL1   H7B 7007   1.097   1.503   9.817 -1.0970  1.7882  1.4145
   62CHL1    C8 7008   1.238   1.673   9.797 -0.1381 -0.8383 -0.2466
   62CHL1    H8 7009   1.344   1.703   9.811  0.2221 -1.5397 -1.4700
   62CHL1   C14 7010   1.216   1.658   9.647 -0.0296 -0.0694  0.2445
   62CHL1   H14 7011   1.107   1.641   9.639  0.0490 -0.7240  0.5049
   62CHL1   C15 7012   1.274   1.538   9.574 -0.4292 -0.6952 -0.6116
   62CHL1  H15A 7013   1.375   1.507   9.609 -0.3498  0.3673  0.1132
   62CHL1  H15B 7014   1.203   1.452   9.566 -1.9990  0.6521 -1.5512
   62CHL1   C16 7015   1.273   1.581   9.425 -0.7877 -0.1759  0.3092
   62CHL1  H16A 7016   1.382   1.582   9.403 -0.7224  1.2631  0.6144
   62CHL1  H16B 7017   1.227   1.507   9.357  1.2858 -1.6098  0.4031
   62CHL1   C17 7018   1.204   1.719   9.418 -0.1341 -0.1719 -0.0823
   62CHL1   H17 7019   1.095   1.694   9.417 -0.0253 -0.6915  0.3695
   62CHL1   C13 7020   1.232   1.783   9.555  0.4522  0.7088  0.3600
   62CHL1   C18 7021   1.382   1.835   9.555 -0.0293 -0.2986  0.1252
   62CHL1  H18A 7022   1.415   1.861   9.658 -1.5712  2.7581 -0.0753
   62CHL1  H18B 7023   1.451   1.779   9.489  0.3739  1.4162 -0.9600
   62CHL1  H18C 7024   1.376   1.938   9.511 -1.6011 -0.2799  0.3362
   62CHL1   C12 7025   1.136   1.896   9.608  0.3795  0.2982 -0.3594
   62CHL1  H12A 7026   1.152   1.997   9.565 -0.3884  2.0107  3.2370
   62CHL1  H12B 7027   1.034   1.861   9.582 -0.8222  3.3404  0.0924
   62CHL1   C11 7028   1.149   1.917   9.762  0.5424 -0.2977  0.2686
   62CHL1  H11A 7029   1.251   1.959   9.772 -0.2388  1.1452  2.4531
   62CHL1  H11B 7030   1.087   1.996   9.809  1.8753  0.3253  0.9979
   62CHL1    C9 7031   1.145   1.784   9.847 -0.0540  0.0214 -0.0094
   62CHL1    H9 7032   1.040   1.746   9.848 -0.7245  1.7713 -1.6886
   62CHL1   C10 7033   1.166   1.815   9.996  0.6535  0.1650 -0.6799
   62CHL1   C19 7034   1.293   1.900  10.004 -0.0036 -0.0955 -0.4287
   62CHL1  H19A 7035   1.373   1.867   9.934  0.4081  0.5938 -0.2801
   62CHL1  H19B 7036   1.266   2.006   9.981 -0.8939 -0.2008  0.1034
   62CHL1  H19C 7037   1.325   1.901  10.110  0.7276 -0.4133 -0.6447
   62CHL1    C1 7038   1.043   1.885  10.062  0.2473 -0.2887  0.1496
   62CHL1   H1A 7039   1.030   1.990  10.029 -1.4674 -0.4852  0.1656
   62CHL1   H1B 7040   0.952   1.828  10.031  0.8574 -2.0932  1.5903
   62CHL1    C2 7041   1.051   1.897  10.213 -0.3279 -0.0013  0.4098
   62CHL1   H2A 7042   0.957   1.944  10.248  0.3473 -0.2189  2.5510
   62CHL1   H2B 7043   1.128   1.976  10.220 -0.0158 -0.0998 -1.4200
   62CHL1   C20 7044   1.232   1.806   9.295  0.0361 -0.2586  0.0950
   62CHL1   H20 7045   1.319   1.873   9.309 -1.9294  2.4854 -0.4045
   62CHL1   C21 7046   1.121   1.906   9.273 -0.3793 -0.3411 -0.6202
   62CHL1  H21A 7047   1.120   1.969   9.365 -0.9562 -1.1264 -0.0806
   62CHL1  H21B 7048   1.019   1.864   9.264 -1.0363  1.5182 -2.1670
   62CHL1  H21C 7049   1.131   1.968   9.181 -2.2329 -2.3538 -2.2132
   62CHL1   C22 7050   1.249   1.725   9.164  1.3103  0.1862  0.0679
   62CHL1  H22A 7051   1.249   1.616   9.182 -0.6623  0.0693 -0.5177
   62CHL1  H22B 7052   1.166   1.747   9.093  0.5090 -0.1079  0.9147
   62CHL1   C23 7053   1.383   1.758   9.105  0.5169 -0.3613 -0.2264
   62CHL1  H23A 7054   1.379   1.862   9.066 -0.3248  0.1725  1.2387
   62CHL1  H23B 7055   1.461   1.753   9.184  2.0925 -0.4521 -1.7685
   62CHL1   C24 7056   1.421   1.680   8.972  0.0618  0.2443 -0.6018
   62CHL1  H24A 7057   1.434   1.571   8.987  0.8304  0.5654  1.2066
   62CHL1  H24B 7058   1.341   1.690   8.896 -1.3404 -3.8957  0.1728
   62CHL1   C25 7059   1.546   1.744   8.903  1.1700 -0.3280  0.1994
   62CHL1   H25 7060   1.620   1.774   8.980 -0.3633  1.1327  1.1539
   62CHL1   C26 7061   1.606   1.657   8.795  0.0141  0.6175  0.5086
   62CHL1  H26A 7062   1.706   1.693   8.762  0.1305 -0.0131  0.1561
   62CHL1  H26B 7063   1.621   1.552   8.827  1.4841  0.1301 -1.6470
   62CHL1  H26C 7064   1.538   1.651   8.707 -0.1326 -1.4394  0.7458
   62CHL1   C27 7065   1.500   1.875   8.834 -0.4445  0.1912 -0.1240
   62CHL1  H27A 7066   1.475   1.949   8.913 -0.3958 -0.2540  0.3049
   62CHL1  H27B 7067   1.590   1.916   8.784 -0.2107 -3.7424 -3.1683
   62CHL1  H27C 7068   1.409   1.861   8.771 -0.6023 -0.1657  0.1817
   63CHL1    C3 7069   2.869   3.527  10.275  0.1915 -0.0551 -0.3054
   63CHL1    H3 7070   2.763   3.506  10.251 -0.2067  1.2957  0.1942
   63CHL1    O3 7071   2.890   3.534  10.414 -0.0481  0.0055  0.4788
   63CHL1   H3' 7072   2.970   3.582  10.437 -0.2345  0.1584  0.8049
   63CHL1    C4 7073   2.970   3.426  10.219  0.7158  0.2844  0.0333
   63CHL1   H4A 7074   3.072   3.458  10.250  0.2351  0.3503  1.5773
   63CHL1   H4B 7075   2.951   3.334  10.278  1.3872  0.3006  0.2816
   63CHL1    C5 7076   2.962   3.415  10.070  0.1463 -0.0416  0.3818
   63CHL1    C6 7077   2.927   3.300  10.006  0.0388  0.2416 -0.0573
   63CHL1    H6 7078   2.920   3.208  10.067 -2.8089  0.9683  0.7952
   63CHL1    C7 7079   2.920   3.292   9.857 -0.2843 -0.2559  0.5677
   63CHL1   H7A 7080   2.962   3.196   9.821  1.4035 -0.0297  1.8822
   63CHL1   H7B 7081   2.813   3.309   9.834 -0.0459  0.0224 -0.3585
   63CHL1    C8 7082   2.992   3.409   9.787 -0.2857  0.2406  0.4220
   63CHL1    H8 7083   3.100   3.389   9.804 -0.4714 -0.2611  1.0256
   63CHL1   C14 7084   2.967   3.417   9.634  0.3913  0.4761 -0.7165
   63CHL1   H14 7085   2.856   3.410   9.627  0.5139 -2.3338 -0.3230
   63CHL1   C15 7086   3.011   3.293   9.550  0.2816 -0.2180 -0.3918
   63CHL1  H15A 7087   3.119   3.273   9.570 -0.4504 -2.5596  1.4527
   63CHL1  H15B 7088   2.956   3.206   9.592  0.2567  0.2419  0.5371
   63CHL1   C16 7089   2.996   3.341   9.412 -0.4411  0.9090 -0.5319
   63CHL1  H16A 7090   3.088   3.345   9.350  1.1430  1.7378  1.7952
   63CHL1  H16B 7091   2.917   3.289   9.355 -0.4312  0.4174 -0.1028
   63CHL1   C17 7092   2.954   3.489   9.424 -0.2129 -0.9811  0.0842
   63CHL1   H17 7093   2.843   3.487   9.435 -0.4383 -1.6827 -2.0245
   63CHL1   C13 7094   3.008   3.536   9.562  0.1603  0.3017  0.3244
   63CHL1   C18 7095   3.169   3.557   9.556  0.2945  0.2876 -0.2262
   63CHL1  H18A 7096   3.222   3.469   9.515  0.0549  0.1243 -0.1874
   63CHL1  H18B 7097   3.191   3.642   9.487  2.2548 -1.2257 -1.5204
   63CHL1  H18C 7098   3.212   3.592   9.652 -0.0963 -1.0111  0.4315
   63CHL1   C12 7099   2.937   3.653   9.624  0.1547  0.8670 -0.1907
   63CHL1  H12A 7100   2.974   3.748   9.581 -1.3951  1.5495 -0.0503
   63CHL1  H12B 7101   2.830   3.644   9.598  0.1232  1.1994 -0.1730
   63CHL1   C11 7102   2.969   3.665   9.772  0.5250 -0.2196 -0.4116
   63CHL1  H11A 7103   3.066   3.719   9.783 -0.8175  1.8798  1.4786
   63CHL1  H11B 7104   2.892   3.738   9.805  1.2200  0.6771 -0.7553
   63CHL1    C9 7105   2.941   3.537   9.847 -0.1596 -0.0909  0.3293
   63CHL1    H9 7106   2.830   3.526   9.839 -0.2258  1.3476 -1.0929
   63CHL1   C10 7107   2.979   3.552  10.002 -0.0575  0.7474 -0.3006
   63CHL1   C19 7108   3.128   3.594  10.024  0.1713  0.4628  0.1417
   63CHL1  H19A 7109   3.184   3.518   9.966 -1.4466  0.4766 -1.4798
   63CHL1  H19B 7110   3.153   3.698   9.994  1.2786 -0.0251 -0.6491
   63CHL1  H19C 7111   3.154   3.583  10.131 -3.0119  0.0712  0.9432
   63CHL1    C1 7112   2.888   3.656  10.064  0.5877 -0.2977 -0.8321
   63CHL1   H1A 7113   2.918   3.758  10.034  0.7576  0.8631  2.9558
   63CHL1   H1B 7114   2.781   3.631  10.045  0.0266  0.2542  1.4596
   63CHL1    C2 7115   2.892   3.661  10.218  0.1052 -0.1919  0.5037
   63CHL1   H2A 7116   2.816   3.734  10.252 -2.7818 -3.1555  0.6532
   63CHL1   H2B 7117   2.994   3.701  10.239  0.8429 -1.1304 -1.1679
   63CHL1   C20 7118   2.979   3.568   9.299  0.4303  0.0693 -0.6127
   63CHL1   H20 7119   3.083   3.604   9.311  0.3333 -0.3374  1.7017
   63CHL1   C21 7120   2.884   3.688   9.297  0.0660 -0.1442 -0.3458
   63CHL1  H21A 7121   2.884   3.739   9.396 -2.8611  0.3243 -0.5277
   63CHL1  H21B 7122   2.781   3.660   9.266 -0.3740  0.2604  0.6993
   63CHL1  H21C 7123   2.920   3.767   9.229  2.2180 -1.1209 -0.3661
   63CHL1   C22 7124   2.985   3.490   9.160 -0.0409  0.6943  0.2873
   63CHL1  H22A 7125   3.063   3.411   9.156 -1.8258 -1.0878 -0.1092
   63CHL1  H22B 7126   2.882   3.451   9.144  0.4314 -1.7633  2.8388
   63CHL1   C23 7127   3.009   3.582   9.034 -0.0437  0.0193 -0.2166
   63CHL1  H23A 7128   2.912   3.637   9.036 -0.1008  0.0288 -2.3579
   63CHL1  H23B 7129   3.089   3.658   9.042  0.5050 -0.0343 -4.1241
   63CHL1   C24 7130   3.028   3.493   8.904 -0.6586  0.0907 -0.7167
   63CHL1  H24A 7131   3.123   3.441   8.927 -0.7606 -0.3192 -1.2135
   63CHL1  H24B 7132   2.941   3.426   8.887  0.5852 -1.2999 -1.7265
   63CHL1   C25 7133   3.065   3.581   8.783 -0.3220  0.2307 -0.1278
   63CHL1   H25 7134   3.157   3.631   8.818 -0.7748 -0.2037  1.7280
   63CHL1   C26 7135   3.114   3.484   8.671  0.7639  0.0117  0.1506
   63CHL1  H26A 7136   3.039   3.404   8.651 -1.6696  2.2825 -0.0397
   63CHL1  H26B 7137   3.125   3.532   8.572  0.0954 -0.1261  0.0082
   63CHL1  H26C 7138   3.216   3.446   8.693  0.9150  0.3188 -0.0165
   63CHL1   C27 7139   2.947   3.670   8.727 -0.0806 -0.4693 -0.3923
   63CHL1  H27A 7140   2.979   3.713   8.630  0.7034 -3.5128 -1.5192
   63CHL1  H27B 7141   2.854   3.612   8.709 -1.4638  1.6666 -0.3886
   63CHL1  H27C 7142   2.936   3.752   8.801  3.3157 -0.0654 -0.2447
   64CHL1    C3 7143   1.888   2.690   9.984 -0.2036 -0.2714  0.9858
   64CHL1    H3 7144   1.873   2.800   9.989  0.5679 -0.1155 -0.2126
   64CHL1    O3 7145   1.918   2.638  10.115  0.2157  0.0058  0.4595
   64CHL1   H3' 7146   1.870   2.555  10.124  0.3675 -0.0711  0.5885
   64CHL1    C4 7147   1.769   2.618   9.924  1.0322  0.3016 -0.2512
   64CHL1   H4A 7148   1.787   2.510   9.939  0.0992  0.2956  0.8380
   64CHL1   H4B 7149   1.681   2.636   9.990  1.3433 -0.2571  0.3245
   64CHL1    C5 7150   1.751   2.652   9.776 -0.1752  0.0374 -0.4309
   64CHL1    C6 7151   1.640   2.697   9.723  0.1665  0.3685  0.2383
   64CHL1    H6 7152   1.550   2.698   9.786 -0.6666  1.2582 -0.9559
   64CHL1    C7 7153   1.624   2.737   9.581  0.3087 -0.9394 -0.5376
   64CHL1   H7A 7154   1.530   2.691   9.543  0.0318  0.7595 -2.0153
   64CHL1   H7B 7155   1.615   2.847   9.565  0.7573 -0.4571  2.3631
   64CHL1    C8 7156   1.739   2.690   9.483 -0.2807 -0.4337  0.2356
   64CHL1    H8 7157   1.724   2.581   9.471 -0.0109 -0.7445  2.5621
   64CHL1   C14 7158   1.739   2.745   9.342  0.5680  0.3676  0.3025
   64CHL1   H14 7159   1.751   2.855   9.341 -1.6888  0.6724  2.1534
   64CHL1   C15 7160   1.612   2.731   9.262 -0.2891 -1.1852 -0.4720
   64CHL1  H15A 7161   1.569   2.629   9.269  0.1504 -1.2211  2.2461
   64CHL1  H15B 7162   1.535   2.810   9.279  0.5048 -0.3918 -0.5568
   64CHL1   C16 7163   1.665   2.764   9.120 -0.3849  0.0628 -0.3209
   64CHL1  H16A 7164   1.638   2.681   9.052  2.0487 -0.1410 -1.0856
   64CHL1  H16B 7165   1.622   2.854   9.070  1.0499  1.6703  1.2863
   64CHL1   C17 7166   1.829   2.768   9.123  0.5000 -0.2340  0.3538
   64CHL1   H17 7167   1.854   2.875   9.136  2.9684 -0.7758  0.2890
   64CHL1   C13 7168   1.860   2.700   9.256  0.1480 -0.1019  0.4351
   64CHL1   C18 7169   1.864   2.550   9.223 -0.6503  0.3698 -0.3053
   64CHL1  H18A 7170   1.768   2.533   9.168 -0.6183  1.1947 -0.6129
   64CHL1  H18B 7171   1.953   2.518   9.165 -1.0230  0.5449 -0.9922
   64CHL1  H18C 7172   1.850   2.488   9.314 -2.0293  2.4113  0.9325
   64CHL1   C12 7173   1.984   2.743   9.320 -0.2296  0.2821 -0.4054
   64CHL1  H12A 7174   2.076   2.722   9.261 -0.2849  1.9677 -1.1357
   64CHL1  H12B 7175   1.982   2.854   9.333 -0.6527 -0.1501  3.8237
   64CHL1   C11 7176   1.990   2.669   9.447  0.0072  0.7284  0.1426
   64CHL1  H11A 7177   1.991   2.558   9.441  1.0799  0.8016 -1.5261
   64CHL1  H11B 7178   2.081   2.694   9.506 -0.1350 -2.2728  1.7661
   64CHL1    C9 7179   1.875   2.707   9.546  0.1053 -0.4139  0.0567
   64CHL1    H9 7180   1.883   2.814   9.573  0.8475 -0.5193  0.2820
   64CHL1   C10 7181   1.884   2.641   9.688  0.0206 -0.1169  0.3563
   64CHL1   C19 7182   1.885   2.490   9.671  0.6924 -0.2040 -0.2014
   64CHL1  H19A 7183   1.795   2.447   9.622  0.3418 -0.0311  0.2751
   64CHL1  H19B 7184   1.974   2.450   9.619 -0.5422 -0.6318 -2.0430
   64CHL1  H19C 7185   1.891   2.446   9.773  0.3427 -0.5220 -0.3146
   64CHL1    C1 7186   2.003   2.698   9.761 -0.0567  0.1707 -0.3023
   64CHL1   H1A 7187   2.099   2.674   9.711  0.4299 -0.2886  0.8225
   64CHL1   H1B 7188   1.997   2.807   9.745  1.0049  0.3508  0.4535
   64CHL1    C2 7189   2.020   2.673   9.908  0.4516  0.2691 -0.8625
   64CHL1   H2A 7190   2.100   2.742   9.941  0.4220  0.7443 -1.7617
   64CHL1   H2B 7191   2.055   2.569   9.924  2.1606  1.3851  3.3246
   64CHL1   C20 7192   1.899   2.736   8.993  0.4860 -0.2158 -0.2531
   64CHL1   H20 7193   1.892   2.629   8.962  0.0433  0.2381 -1.7633
   64CHL1   C21 7194   2.054   2.780   8.999  0.6991 -0.0681 -0.4146
   64CHL1  H21A 7195   2.095   2.702   9.067 -1.2802  0.2438  1.1683
   64CHL1  H21B 7196   2.067   2.878   9.047  0.0595  0.5641 -1.5008
   64CHL1  H21C 7197   2.097   2.768   8.897  2.1910 -0.0216  0.2039
   64CHL1   C22 7198   1.834   2.815   8.877 -0.5362 -0.0739  0.1405
   64CHL1  H22A 7199   1.723   2.814   8.881 -0.5431 -1.1838 -0.2819
   64CHL1  H22B 7200   1.855   2.925   8.876  0.4088 -0.2257  1.1835
   64CHL1   C23 7201   1.882   2.773   8.740  0.1139  0.4076  0.5629
   64CHL1  H23A 7202   1.992   2.763   8.728 -0.2138 -1.4339 -1.2377
   64CHL1  H23B 7203   1.837   2.672   8.725  0.6726  0.1525  0.5989
   64CHL1   C24 7204   1.825   2.864   8.630 -0.1539  0.2244 -0.0954
   64CHL1  H24A 7205   1.718   2.847   8.604 -0.1482  1.3769 -0.9051
   64CHL1  H24B 7206   1.838   2.968   8.665 -0.5988  0.6960 -1.3106
   64CHL1   C25 7207   1.893   2.844   8.489  0.6398  0.1471  0.2170
   64CHL1   H25 7208   1.885   2.734   8.471 -1.8039  0.7076 -2.3721
   64CHL1   C26 7209   1.828   2.923   8.378 -0.3923  0.0795 -1.0270
   64CHL1  H26A 7210   1.719   2.902   8.372 -0.5213  0.7360 -1.0799
   64CHL1  H26B 7211   1.842   3.032   8.395  0.6002 -0.0687 -0.8460
   64CHL1  H26C 7212   1.873   2.912   8.277  0.6723  0.1026 -0.5645
   64CHL1   C27 7213   2.050   2.873   8.494  0.1776  0.1355 -0.3025
   64CHL1  H27A 7214   2.090   2.904   8.395  0.8120 -1.3401 -0.5206
   64CHL1  H27B 7215   2.052   2.960   8.563 -0.2612  0.7177 -1.0064
   64CHL1  H27C 7216   2.107   2.786   8.532 -1.1826 -0.6520 -0.0304
   65CHL1    C3 7217   4.237   0.041  10.262  1.1494 -0.1786 -0.7707
   65CHL1    H3 7218   4.175  -0.052  10.267 -0.5668  0.9022 -1.4237
   65CHL1    O3 7219   4.262   0.092  10.393 -0.0114 -0.2914  0.3021
   65CHL1   H3' 7220   4.176   0.129  10.418  0.3341  0.1248  0.8813
   65CHL1    C4 7221   4.370   0.016  10.182 -0.1812 -0.0207  0.2864
   65CHL1   H4A 7222   4.418   0.116  10.181  0.1023 -0.1572  0.0074
   65CHL1   H4B 7223   4.433  -0.057  10.238 -0.9917  0.4955  1.9221
   65CHL1    C5 7224   4.341  -0.028  10.040  0.2308  0.3083  0.1366
   65CHL1    C6 7225   4.378  -0.153   9.996  0.9376  0.7122 -0.3663
   65CHL1    H6 7226   4.426  -0.229  10.060  1.7377  1.1667 -0.4229
   65CHL1    C7 7227   4.371  -0.198   9.854 -0.3653 -0.3025 -0.0419
   65CHL1   H7A 7228   4.465  -0.244   9.818 -0.1794 -0.1509  0.2399
   65CHL1   H7B 7229   4.289  -0.272   9.852 -1.8509  1.3192 -0.3456
   65CHL1    C8 7230   4.335  -0.082   9.763 -0.2142  0.2968  0.4851
   65CHL1    H8 7231   4.432  -0.033   9.740 -0.5641  0.0682 -1.5679
   65CHL1   C14 7232   4.277  -0.141   9.633  0.1811  0.7666  0.0440
   65CHL1   H14 7233   4.189  -0.200   9.666  0.3505  0.7328  0.4372
   65CHL1   C15 7234   4.371  -0.241   9.560 -0.1955 -0.0929  0.3334
   65CHL1  H15A 7235   4.474  -0.200   9.560 -0.1695 -0.1641 -0.0561
   65CHL1  H15B 7236   4.368  -0.343   9.603  2.1028 -0.1974  0.3223
   65CHL1   C16 7237   4.315  -0.248   9.421 -0.0586  0.2008  0.0719
   65CHL1  H16A 7238   4.405  -0.233   9.357  0.2063  0.1850  0.4412
   65CHL1  H16B 7239   4.277  -0.352   9.410  1.3678 -0.4086  0.7328
   65CHL1   C17 7240   4.209  -0.143   9.414 -0.5414 -0.4157  0.3120
   65CHL1   H17 7241   4.113  -0.196   9.434 -1.0471  1.0577  1.9408
   65CHL1   C13 7242   4.229  -0.048   9.531 -0.0842 -0.7223  0.3251
   65CHL1   C18 7243   4.348   0.050   9.492 -0.1399  0.5177 -0.7168
   65CHL1  H18A 7244   4.411   0.097   9.570  0.0606  0.5656 -0.9072
   65CHL1  H18B 7245   4.421  -0.011   9.435 -0.5730 -0.9690  0.2889
   65CHL1  H18C 7246   4.304   0.136   9.437  0.7982  1.0035 -0.7043
   65CHL1   C12 7247   4.117   0.039   9.587 -0.0688  0.5722  0.0751
   65CHL1  H12A 7248   4.085   0.120   9.518  1.7837  1.4519  0.2232
   65CHL1  H12B 7249   4.031  -0.030   9.604  0.8097 -1.2622 -2.6615
   65CHL1   C11 7250   4.162   0.109   9.716 -0.2782 -0.6213 -0.0007
   65CHL1  H11A 7251   4.236   0.190   9.702 -0.2321 -0.3928  1.4562
   65CHL1  H11B 7252   4.069   0.148   9.762  0.5431 -0.0039  1.1555
   65CHL1    C9 7253   4.225   0.014   9.822 -0.5146 -0.2810  0.0927
   65CHL1    H9 7254   4.140  -0.055   9.840 -1.5321  0.7015 -0.8944
   65CHL1   C10 7255   4.265   0.074   9.955  0.2874 -0.2518  0.0833
   65CHL1   C19 7256   4.360   0.189   9.924  0.7101  0.1506  0.0877
   65CHL1  H19A 7257   4.441   0.147   9.860  0.2713 -1.4174  0.5366
   65CHL1  H19B 7258   4.309   0.270   9.867  0.0430 -0.9708 -0.9474
   65CHL1  H19C 7259   4.413   0.219  10.017 -0.4927  0.7854  0.5758
   65CHL1    C1 7260   4.135   0.116  10.038 -0.7591  0.0275 -0.1859
   65CHL1   H1A 7261   4.091   0.207   9.991 -0.9576  0.8587  1.5675
   65CHL1   H1B 7262   4.072   0.025  10.037  0.1320 -0.6299  1.7258
   65CHL1    C2 7263   4.160   0.147  10.187  0.0065  0.8963  0.4144
   65CHL1   H2A 7264   4.068   0.174  10.242 -0.2866  0.4875  0.1312
   65CHL1   H2B 7265   4.221   0.239  10.185  0.9984  0.2243 -1.4398
   65CHL1   C20 7266   4.192  -0.086   9.268  0.1511 -0.5570 -0.3044
   65CHL1   H20 7267   4.276  -0.017   9.244  1.5888 -1.1024  2.9113
   65CHL1   C21 7268   4.068   0.011   9.276 -0.0754  0.0896  0.0378
   65CHL1  H21A 7269   4.092   0.116   9.303  1.1332  0.2090 -1.4480
   65CHL1  H21B 7270   4.002  -0.030   9.355  0.3408 -0.5313  0.0648
   65CHL1  H21C 7271   4.004   0.011   9.186 -0.3662  2.9190  0.2123
   65CHL1   C22 7272   4.189  -0.195   9.155 -0.1658 -0.3580  0.0076
   65CHL1  H22A 7273   4.269  -0.270   9.171 -0.2544 -0.2391  1.0127
   65CHL1  H22B 7274   4.091  -0.242   9.176  0.2871 -1.2219  0.2044
   65CHL1   C23 7275   4.189  -0.142   9.016  0.1933 -0.2375 -0.2424
   65CHL1  H23A 7276   4.101  -0.074   9.013  1.0867  1.0981  2.5424
   65CHL1  H23B 7277   4.274  -0.077   8.988  0.3521 -0.6584 -0.7470
   65CHL1   C24 7278   4.172  -0.255   8.910 -0.3688  0.1063  0.6187
   65CHL1  H24A 7279   4.239  -0.342   8.924 -3.7636 -2.5683  0.9193
   65CHL1  H24B 7280   4.071  -0.296   8.929  0.5719 -1.1551  3.0303
   65CHL1   C25 7281   4.175  -0.212   8.761 -0.9478  0.1412  0.3209
   65CHL1   H25 7282   4.285  -0.195   8.750 -0.7221 -1.0268  0.7163
   65CHL1   C26 7283   4.127  -0.331   8.672 -0.2187  0.3148 -0.5641
   65CHL1  H26A 7284   4.144  -0.318   8.563 -1.4620 -1.5221 -0.9975
   65CHL1  H26B 7285   4.162  -0.432   8.702  4.1591  1.1971 -2.2962
   65CHL1  H26C 7286   4.017  -0.338   8.684 -0.1487 -2.6693 -1.1201
   65CHL1   C27 7287   4.096  -0.087   8.715  0.1294 -0.6614  0.2329
   65CHL1  H27A 7288   3.987  -0.107   8.709 -1.1933  4.7073  3.0029
   65CHL1  H27B 7289   4.131   0.012   8.753 -1.3122  0.4320 -1.2041
   65CHL1  H27C 7290   4.113  -0.073   8.606  1.9091  1.0935  0.7138
   66CHL1    C3 7291   2.358   4.347  10.633  0.2554  0.3983 -0.0328
   66CHL1    H3 7292   2.453   4.292  10.651  0.6996  1.2820  0.3180
   66CHL1    O3 7293   2.307   4.374  10.765 -0.5667 -0.3614  0.7627
   66CHL1   H3' 7294   2.232   4.313  10.767 -1.2687  0.4727  0.2092
   66CHL1    C4 7295   2.401   4.474  10.559  0.0207  0.9084 -0.1933
   66CHL1   H4A 7296   2.327   4.556  10.562 -0.0364  0.9580 -2.3572
   66CHL1   H4B 7297   2.494   4.513  10.606 -0.7628  3.1909 -0.5030
   66CHL1    C5 7298   2.425   4.450  10.407  0.3812  0.5256 -0.4935
   66CHL1    C6 7299   2.545   4.477  10.359 -0.0000  0.3038  0.1568
   66CHL1    H6 7300   2.628   4.510  10.423  0.6218 -1.3489  0.2247
   66CHL1    C7 7301   2.557   4.485  10.207  0.0883 -0.0211 -0.5266
   66CHL1   H7A 7302   2.622   4.573  10.188  0.2236 -0.1606 -0.7044
   66CHL1   H7B 7303   2.615   4.400  10.167  0.2947  0.3491 -1.0086
   66CHL1    C8 7304   2.426   4.485  10.125  0.1086  0.2431  0.3329
   66CHL1    H8 7305   2.388   4.588  10.146  0.1844  0.7775 -1.9568
   66CHL1   C14 7306   2.441   4.473   9.978 -1.2535 -0.0986  0.1072
   66CHL1   H14 7307   2.498   4.381   9.953  0.4868  0.8714  0.4226
   66CHL1   C15 7308   2.520   4.583   9.909  0.3774 -0.6409  0.0717
   66CHL1  H15A 7309   2.485   4.684   9.940  0.3968 -0.5267 -0.2677
   66CHL1  H15B 7310   2.629   4.572   9.927  0.7455 -0.5103 -1.9550
   66CHL1   C16 7311   2.496   4.570   9.760  0.1328  0.3986  0.5421
   66CHL1  H16A 7312   2.493   4.672   9.717  1.1850  0.7064  1.1880
   66CHL1  H16B 7313   2.586   4.520   9.717 -1.1013 -0.1553 -1.4624
   66CHL1   C17 7314   2.372   4.472   9.751  0.0878  0.2254 -0.4631
   66CHL1   H17 7315   2.408   4.375   9.711  0.4329  0.5549 -0.9614
   66CHL1   C13 7316   2.314   4.459   9.897 -0.0794  0.3813  0.9309
   66CHL1   C18 7317   2.221   4.581   9.930 -0.5362 -0.6200  0.0403
   66CHL1  H18A 7318   2.264   4.677   9.892 -0.7688 -0.2990  0.5841
   66CHL1  H18B 7319   2.122   4.563   9.884 -1.2047 -0.9606  1.5982
   66CHL1  H18C 7320   2.202   4.591  10.039 -0.3460 -0.3094  0.0446
   66CHL1   C12 7321   2.255   4.323   9.943  0.3853  0.5042 -0.7240
   66CHL1  H12A 7322   2.160   4.299   9.891 -0.8028  3.3493  0.0471
   66CHL1  H12B 7323   2.321   4.236   9.921 -2.7878 -2.4204  0.8083
   66CHL1   C11 7324   2.224   4.312  10.093  0.5804 -0.2682  0.0547
   66CHL1  H11A 7325   2.134   4.369  10.123  1.6042  0.8228  1.1426
   66CHL1  H11B 7326   2.217   4.203  10.117  1.5932 -0.4568 -0.4750
   66CHL1    C9 7327   2.338   4.369  10.179  0.3311  0.0213  0.2802
   66CHL1    H9 7328   2.408   4.283  10.178 -0.3750 -0.5921  1.6206
   66CHL1   C10 7329   2.305   4.398  10.331  0.4002  0.0856  1.1569
   66CHL1   C19 7330   2.190   4.499  10.332  0.0252  0.0845 -0.1477
   66CHL1  H19A 7331   2.205   4.561  10.242  0.9165  1.8078  1.1618
   66CHL1  H19B 7332   2.097   4.438  10.332 -1.7283  2.6708 -2.3999
   66CHL1  H19C 7333   2.179   4.562  10.423 -2.7174 -0.4749 -0.0614
   66CHL1    C1 7334   2.260   4.264  10.396 -0.3062 -0.0022  0.5216
   66CHL1   H1A 7335   2.161   4.246  10.348  0.2467  0.0858 -0.6583
   66CHL1   H1B 7336   2.329   4.178  10.382 -1.9961 -1.7356  2.4661
   66CHL1    C2 7337   2.244   4.276  10.552 -0.6282  0.0058 -0.0525
   66CHL1   H2A 7338   2.245   4.171  10.586  0.9298  0.3202  0.9269
   66CHL1   H2B 7339   2.142   4.317  10.565 -0.6109  0.2205 -0.5794
   66CHL1   C20 7340   2.277   4.493   9.641 -0.5279 -0.1673  0.1303
   66CHL1   H20 7341   2.213   4.581   9.666 -0.1924  0.2347 -0.4189
   66CHL1   C21 7342   2.164   4.385   9.625  0.0400  0.4917  0.5455
   66CHL1  H21A 7343   2.099   4.375   9.714 -1.4805 -0.4008 -0.6462
   66CHL1  H21B 7344   2.209   4.287   9.598 -0.3982 -0.5325  3.3813
   66CHL1  H21C 7345   2.098   4.423   9.545  1.5576  1.5091 -0.2417
   66CHL1   C22 7346   2.339   4.523   9.501  0.1017 -0.0056  0.1622
   66CHL1  H22A 7347   2.252   4.532   9.434  1.1798  1.5561 -1.0848
   66CHL1  H22B 7348   2.388   4.623   9.501 -3.3632  1.7680 -0.5112
   66CHL1   C23 7349   2.426   4.412   9.442 -0.1588  0.0406  0.4931
   66CHL1  H23A 7350   2.528   4.417   9.487 -1.0594  0.2871  2.5431
   66CHL1  H23B 7351   2.390   4.310   9.465 -0.7244 -0.7444 -3.4697
   66CHL1   C24 7352   2.439   4.418   9.284 -0.6720  0.1788 -0.4850
   66CHL1  H24A 7353   2.504   4.331   9.265 -0.7155  0.4138 -1.7894
   66CHL1  H24B 7354   2.339   4.402   9.237 -1.3203  0.7322  0.6805
   66CHL1   C25 7355   2.516   4.548   9.228  0.5216  0.0094 -0.2167
   66CHL1   H25 7356   2.471   4.635   9.279  2.2676  1.5180 -1.2004
   66CHL1   C26 7357   2.662   4.557   9.277  0.4535  0.3712  0.6132
   66CHL1  H26A 7358   2.707   4.468   9.228  0.2203  0.0576  0.9649
   66CHL1  H26B 7359   2.705   4.657   9.257  1.0626  0.4897  2.4009
   66CHL1  H26C 7360   2.671   4.559   9.388 -0.6771  1.0780  0.6956
   66CHL1   C27 7361   2.515   4.555   9.076  0.5878  0.4439 -0.5054
   66CHL1  H27A 7362   2.572   4.483   9.014 -0.2704 -1.6726  1.1242
   66CHL1  H27B 7363   2.408   4.545   9.045  0.7940 -0.8656 -0.7976
   66CHL1  H27C 7364   2.546   4.657   9.043 -0.0574  0.1504 -2.0671
   67CHL1    C3 7365   6.461   5.679  10.253 -0.8749  0.4821 -1.0352
   67CHL1    H3 7366   6.438   5.784  10.281 -2.5006 -0.2577  0.4927
   67CHL1    O3 7367   6.457   5.610  10.376  0.7030 -0.6298 -0.0130
   67CHL1   H3' 7368   6.524   5.661  10.422  0.0908  0.0753  0.0921
   67CHL1    C4 7369   6.348   5.626  10.164 -0.1909 -0.1899  0.2768
   67CHL1   H4A 7370   6.358   5.515  10.171 -1.5040 -0.2328  1.9181
   67CHL1   H4B 7371   6.254   5.651  10.219  0.2710  0.7671  0.6282
   67CHL1    C5 7372   6.347   5.673  10.020 -0.1516 -0.3434  0.1415
   67CHL1    C6 7373   6.238   5.720   9.954 -0.6812 -0.2206 -1.1079
   67CHL1    H6 7374   6.144   5.714  10.009 -0.1937 -0.3486 -0.2765
   67CHL1    C7 7375   6.239   5.752   9.811 -0.4546  0.3229 -0.1306
   67CHL1   H7A 7376   6.145   5.728   9.758 -0.7698 -0.8249  0.9263
   67CHL1   H7B 7377   6.256   5.861   9.801 -1.8078  0.3017 -3.5270
   67CHL1    C8 7378   6.359   5.698   9.732 -0.6152 -0.3009  0.4357
   67CHL1    H8 7379   6.348   5.588   9.716 -3.1531 -0.3779  2.4055
   67CHL1   C14 7380   6.372   5.759   9.596 -0.9789 -0.9281  0.2540
   67CHL1   H14 7381   6.375   5.869   9.613 -0.4983 -1.0904  1.3200
   67CHL1   C15 7382   6.244   5.743   9.512  0.4630 -0.1317 -0.5767
   67CHL1  H15A 7383   6.198   5.642   9.519  0.9077 -0.2443  0.9494
   67CHL1  H15B 7384   6.166   5.816   9.543 -0.1012 -0.3604 -1.4367
   67CHL1   C16 7385   6.302   5.771   9.372 -0.3799 -0.5976  0.5146
   67CHL1  H16A 7386   6.280   5.686   9.304  1.7822 -1.1929  0.4974
   67CHL1  H16B 7387   6.263   5.863   9.323  2.5111  1.3186  1.6924
   67CHL1   C17 7388   6.461   5.786   9.385 -0.6050  0.1341  0.0755
   67CHL1   H17 7389   6.484   5.894   9.389  0.3101 -0.0839  0.6393
   67CHL1   C13 7390   6.497   5.724   9.522  0.0019 -0.6908  0.4021
   67CHL1   C18 7391   6.525   5.574   9.500  0.4060  0.1999  0.3598
   67CHL1  H18A 7392   6.619   5.545   9.449  0.1027 -1.6978  0.8167
   67CHL1  H18B 7393   6.528   5.533   9.604  0.2582 -0.5822  0.0610
   67CHL1  H18C 7394   6.440   5.532   9.442  0.4401 -0.2712  0.6414
   67CHL1   C12 7395   6.610   5.787   9.603  0.1718  0.5308 -0.0153
   67CHL1  H12A 7396   6.711   5.764   9.562 -0.6025 -1.2782 -0.9663
   67CHL1  H12B 7397   6.596   5.896   9.613  1.2204  0.4961  1.9926
   67CHL1   C11 7398   6.617   5.723   9.742  0.5646 -0.4131 -0.2943
   67CHL1  H11A 7399   6.668   5.626   9.727 -0.7098 -0.8909 -1.6488
   67CHL1  H11B 7400   6.696   5.781   9.795  1.7409 -1.6413 -0.6812
   67CHL1    C9 7401   6.482   5.732   9.816 -0.2633 -0.0913 -0.1105
   67CHL1    H9 7402   6.475   5.842   9.830  1.4772  0.0644 -0.4032
   67CHL1   C10 7403   6.483   5.662   9.948 -0.2424  0.1714 -0.7092
   67CHL1   C19 7404   6.512   5.508   9.926  0.2990 -0.0773 -0.0108
   67CHL1  H19A 7405   6.506   5.438  10.012 -2.5715 -1.2757 -1.1257
   67CHL1  H19B 7406   6.447   5.461   9.848  0.1852  1.1595 -0.6793
   67CHL1  H19C 7407   6.611   5.495   9.876 -0.2327 -0.8471 -0.9029
   67CHL1    C1 7408   6.589   5.731  10.050 -0.2917  0.0845 -0.6001
   67CHL1   H1A 7409   6.695   5.723  10.017 -0.0724 -1.1192  0.3783
   67CHL1   H1B 7410   6.563   5.838  10.063  1.4269  0.2854  1.3949
   67CHL1    C2 7411   6.596   5.668  10.191 -0.1680 -0.2760  0.1764
   67CHL1   H2A 7412   6.679   5.713  10.249  0.4204  0.4136 -1.1801
   67CHL1   H2B 7413   6.617   5.560  10.172 -2.3736 -0.3668 -2.1894
   67CHL1   C20 7414   6.537   5.730   9.264  0.4270 -0.3211 -0.9983
   67CHL1   H20 7415   6.532   5.619   9.264  0.4913 -0.3233 -0.8182
   67CHL1   C21 7416   6.687   5.765   9.271  0.3654 -0.1747  0.3683
   67CHL1  H21A 7417   6.729   5.686   9.337 -1.7301 -1.7321 -0.1090
   67CHL1  H21B 7418   6.693   5.862   9.325 -1.7121  0.7334 -1.0074
   67CHL1  H21C 7419   6.739   5.751   9.174  0.0753 -1.1945  0.3510
   67CHL1   C22 7420   6.475   5.771   9.137 -0.0142 -0.1427  0.2017
   67CHL1  H22A 7421   6.364   5.773   9.128  0.0526 -0.1983 -0.7175
   67CHL1  H22B 7422   6.497   5.878   9.117 -0.1524 -0.4262 -1.5757
   67CHL1   C23 7423   6.535   5.692   9.014 -0.1334  0.2092 -0.6264
   67CHL1  H23A 7424   6.484   5.753   8.936 -0.3501 -0.3424 -0.9208
   67CHL1  H23B 7425   6.646   5.691   9.008 -0.1871 -0.0393 -1.7605
   67CHL1   C24 7426   6.506   5.541   9.017  0.4628 -0.5938 -0.0887
   67CHL1  H24A 7427   6.573   5.493   9.092 -0.0868 -0.1877  0.6672
   67CHL1  H24B 7428   6.399   5.525   9.039  0.2224  2.6629  1.2700
   67CHL1   C25 7429   6.547   5.472   8.887  0.1738  0.2315 -0.9467
   67CHL1   H25 7430   6.658   5.479   8.875  0.2863 -0.3789 -0.2430
   67CHL1   C26 7431   6.523   5.320   8.917  0.8130  0.3075  0.4545
   67CHL1  H26A 7432   6.414   5.301   8.920  0.8145 -0.1221 -1.3913
   67CHL1  H26B 7433   6.581   5.263   8.841  0.8778 -0.5708  1.1569
   67CHL1  H26C 7434   6.565   5.300   9.018  0.4721  0.5841  0.6508
   67CHL1   C27 7435   6.482   5.524   8.759  0.0954 -0.0455 -0.0980
   67CHL1  H27A 7436   6.498   5.461   8.669 -1.2945 -0.0737 -0.3394
   67CHL1  H27B 7437   6.373   5.529   8.778  0.4140  1.3180  1.4397
   67CHL1  H27C 7438   6.512   5.626   8.727  0.2700 -0.2397 -0.5512
   68CHL1    C3 7439   4.219   6.472  10.370 -0.0617  0.5859  0.3413
   68CHL1    H3 7440   4.266   6.540  10.295 -0.6058 -0.4586 -0.9796
   68CHL1    O3 7441   4.242   6.518  10.502  0.0834  0.1698 -0.0653
   68CHL1   H3' 7442   4.195   6.457  10.560  1.0474 -0.0603  0.4749
   68CHL1    C4 7443   4.072   6.477  10.334 -0.4145  0.3282  0.3154
   68CHL1   H4A 7444   4.016   6.408  10.401 -0.2569 -1.7435 -1.6330
   68CHL1   H4B 7445   4.036   6.579  10.358  1.9574  1.7101 -1.8029
   68CHL1    C5 7446   4.049   6.427  10.190 -0.2121  0.4456 -0.1484
   68CHL1    C6 7447   3.991   6.509  10.100 -0.4243  0.2021 -0.5893
   68CHL1    H6 7448   3.950   6.602  10.142 -0.9398 -0.6501  0.8641
   68CHL1    C7 7449   3.959   6.472   9.955  0.2002  0.3942  0.1543
   68CHL1   H7A 7450   3.853   6.491   9.928  0.1366  1.1048  0.8777
   68CHL1   H7B 7451   4.011   6.545   9.889 -0.7489  0.4625 -0.5129
   68CHL1    C8 7452   3.995   6.324   9.914  0.5921  0.1550  0.6048
   68CHL1    H8 7453   3.920   6.249   9.948  0.2180  0.2265 -0.0508
   68CHL1   C14 7454   4.028   6.331   9.764  0.7883 -0.0098  0.4368
   68CHL1   H14 7455   4.112   6.401   9.748 -0.7026  1.5232 -0.8956
   68CHL1   C15 7456   3.921   6.395   9.671  0.6268 -0.6064  0.1086
   68CHL1  H15A 7457   3.825   6.343   9.694  1.3129 -1.3272  1.4108
   68CHL1  H15B 7458   3.912   6.504   9.686 -0.3561 -0.5086 -1.1701
   68CHL1   C16 7459   3.975   6.351   9.534 -0.3933 -0.5678  0.2132
   68CHL1  H16A 7460   3.891   6.304   9.480  0.8916 -0.6462 -1.7545
   68CHL1  H16B 7461   4.019   6.437   9.479  1.1802 -1.2050  0.4452
   68CHL1   C17 7462   4.088   6.243   9.553 -0.1395 -0.2296 -1.2071
   68CHL1   H17 7463   4.181   6.303   9.564 -0.7891  0.9583 -2.0128
   68CHL1   C13 7464   4.071   6.200   9.704 -0.5613  0.1400  0.0108
   68CHL1   C18 7465   3.961   6.094   9.721  0.0292  1.1099  0.5858
   68CHL1  H18A 7466   3.870   6.133   9.669  0.1223  0.9353  0.2928
   68CHL1  H18B 7467   3.987   6.000   9.667 -1.8032 -0.3223  2.1133
   68CHL1  H18C 7468   3.936   6.056   9.822  0.7956  4.8380  2.2634
   68CHL1   C12 7469   4.200   6.163   9.776 -0.1971  0.2991 -0.5659
   68CHL1  H12A 7470   4.240   6.068   9.736 -1.0156 -0.6706  0.8702
   68CHL1  H12B 7471   4.276   6.244   9.762 -0.0710  0.3539  0.3900
   68CHL1   C11 7472   4.182   6.160   9.926  0.7033  0.2778  0.0205
   68CHL1  H11A 7473   4.131   6.066   9.956  0.7954  1.0461  2.7218
   68CHL1  H11B 7474   4.288   6.157   9.960  0.1483 -0.8662  1.7157
   68CHL1    C9 7475   4.125   6.296   9.983 -0.2734 -0.0458  0.3705
   68CHL1    H9 7476   4.194   6.378   9.953 -1.5077  0.1697 -2.0152
   68CHL1   C10 7477   4.122   6.296  10.139  0.6579 -0.0720 -0.3869
   68CHL1   C19 7478   4.042   6.182  10.201 -0.0431 -1.2578  0.6554
   68CHL1  H19A 7479   4.091   6.084  10.181  2.6985 -0.1977  2.0850
   68CHL1  H19B 7480   4.020   6.190  10.310 -1.2086  0.5353  0.3186
   68CHL1  H19C 7481   3.939   6.169  10.159  0.9653 -0.4563 -2.2014
   68CHL1    C1 7482   4.265   6.295  10.198  0.2629 -0.1615  0.6527
   68CHL1   H1A 7483   4.306   6.193  10.182  0.1703  0.1911 -2.0769
   68CHL1   H1B 7484   4.330   6.369  10.147 -0.9347  0.4732  0.0026
   68CHL1    C2 7485   4.279   6.330  10.337 -0.1678 -0.7238 -0.6931
   68CHL1   H2A 7486   4.386   6.334  10.364 -0.1816 -1.2112 -0.5676
   68CHL1   H2B 7487   4.228   6.264  10.411 -0.0687  1.0375  0.9823
   68CHL1   C20 7488   4.101   6.144   9.437  0.6332  0.1711  0.5723
   68CHL1   H20 7489   4.004   6.090   9.434 -1.2272  3.4497 -1.9630
   68CHL1   C21 7490   4.211   6.043   9.479  0.4259 -0.2115  0.0330
   68CHL1  H21A 7491   4.236   5.968   9.401 -0.9705 -1.4373  0.7334
   68CHL1  H21B 7492   4.156   5.993   9.562 -2.7389  1.2230 -1.1058
   68CHL1  H21C 7493   4.301   6.103   9.504  1.3412 -1.5949  0.1004
   68CHL1   C22 7494   4.126   6.217   9.298  0.6853 -0.6811  0.4665
   68CHL1  H22A 7495   4.062   6.307   9.290 -1.7476 -2.4752 -1.1747
   68CHL1  H22B 7496   4.230   6.257   9.300 -0.1616  1.6146 -0.6264
   68CHL1   C23 7497   4.127   6.146   9.167  0.7260  0.2971  0.2244
   68CHL1  H23A 7498   4.219   6.083   9.163  1.1999  0.9636  0.3815
   68CHL1  H23B 7499   4.032   6.090   9.162  0.5577  0.5874  0.1841
   68CHL1   C24 7500   4.125   6.245   9.049 -0.1060 -0.1492  0.2682
   68CHL1  H24A 7501   4.040   6.317   9.045 -0.1310 -0.1780  0.2884
   68CHL1  H24B 7502   4.221   6.300   9.043  2.1605 -3.7282  2.1720
   68CHL1   C25 7503   4.117   6.170   8.917 -0.0383  0.1381  0.2365
   68CHL1   H25 7504   4.106   6.248   8.839  2.5131 -1.1296 -1.4518
   68CHL1   C26 7505   4.255   6.086   8.903 -0.2095 -0.7959  0.2633
   68CHL1  H26A 7506   4.258   6.049   8.798  4.5303 -0.1236  0.0697
   68CHL1  H26B 7507   4.336   6.155   8.934 -0.6742 -0.5056  0.8364
   68CHL1  H26C 7508   4.266   6.006   8.978 -1.8408  0.7752  2.2214
   68CHL1   C27 7509   3.990   6.090   8.899 -0.1945 -0.1275 -0.4072
   68CHL1  H27A 7510   3.993   6.018   8.815  0.5226 -0.0571 -0.4451
   68CHL1  H27B 7511   3.967   6.030   8.990 -0.0863 -0.4007 -0.5574
   68CHL1  H27C 7512   3.899   6.148   8.876 -1.4995 -2.4508 -1.3321
   69CHL1    C3 7513   3.507   5.155   6.835  0.2752  0.3969  0.2874
   69CHL1    H3 7514   3.545   5.051   6.845  2.2786  0.9340 -1.3078
   69CHL1    O3 7515   3.547   5.205   6.703  0.0019 -0.0423 -0.0304
   69CHL1   H3' 7516   3.611   5.138   6.677  0.3554 -0.2125  1.2476
   69CHL1    C4 7517   3.352   5.148   6.861 -0.7400 -0.0003  0.5270
   69CHL1   H4A 7518   3.318   5.252   6.839  1.5168  0.6697  0.0197
   69CHL1   H4B 7519   3.305   5.083   6.784  1.0134 -0.5789 -0.0703
   69CHL1    C5 7520   3.314   5.099   6.999  0.0374  0.0854  0.4435
   69CHL1    C6 7521   3.225   4.995   7.023  0.2276 -0.2141 -0.0986
   69CHL1    H6 7522   3.188   4.942   6.934  4.6476  0.8985 -2.7618
   69CHL1    C7 7523   3.180   4.950   7.165 -0.1794  0.5756 -0.0404
   69CHL1   H7A 7524   3.069   4.936   7.165  0.0806 -1.9002  1.5053
   69CHL1   H7B 7525   3.246   4.866   7.196  1.5014  1.9249  0.0538
   69CHL1    C8 7526   3.211   5.056   7.272  0.6817  0.1996 -0.1956
   69CHL1    H8 7527   3.135   5.136   7.260 -1.3940 -1.5026  1.3326
   69CHL1   C14 7528   3.205   4.988   7.408  0.0100  0.6423  0.2843
   69CHL1   H14 7529   3.268   4.897   7.415 -1.3337 -0.3798 -0.5231
   69CHL1   C15 7530   3.070   4.924   7.448  0.0723 -0.3223  0.0442
   69CHL1  H15A 7531   2.988   4.992   7.417  1.0261  1.2346  0.8623
   69CHL1  H15B 7532   3.055   4.822   7.407 -1.7970  0.4383 -1.2391
   69CHL1   C16 7533   3.072   4.905   7.599  0.0909  0.7180 -0.2881
   69CHL1  H16A 7534   2.976   4.936   7.645  0.3103  0.6743  0.2009
   69CHL1  H16B 7535   3.095   4.800   7.627  0.3897  1.2163  1.4121
   69CHL1   C17 7536   3.196   4.993   7.644  0.4695  0.3278  0.8414
   69CHL1   H17 7537   3.272   4.912   7.653  0.1192 -0.0127  0.7437
   69CHL1   C13 7538   3.235   5.081   7.519 -0.3472 -0.5628 -0.4941
   69CHL1   C18 7539   3.147   5.208   7.512  0.3213  0.3764  0.2431
   69CHL1  H18A 7540   3.136   5.264   7.416  0.4621 -1.0792 -0.6363
   69CHL1  H18B 7541   3.044   5.182   7.546  0.4565  0.7566  0.9454
   69CHL1  H18C 7542   3.192   5.291   7.570 -2.1187  2.2840 -0.4826
   69CHL1   C12 7543   3.387   5.131   7.507  0.2651 -0.0309 -0.0628
   69CHL1  H12A 7544   3.419   5.203   7.585  2.7961 -0.2537 -0.8611
   69CHL1  H12B 7545   3.448   5.038   7.509 -1.6369 -1.3552 -1.4569
   69CHL1   C11 7546   3.404   5.195   7.364  0.5395 -0.9276  0.6662
   69CHL1  H11A 7547   3.342   5.287   7.366  0.3706 -1.0293  0.1069
   69CHL1  H11B 7548   3.511   5.223   7.360 -0.6877  4.1522  0.3290
   69CHL1    C9 7549   3.356   5.101   7.249 -0.3006 -0.8052 -0.2218
   69CHL1    H9 7550   3.423   5.014   7.264  0.8210  0.0019 -0.5403
   69CHL1   C10 7551   3.384   5.175   7.109 -0.6400  0.0129 -0.0553
   69CHL1   C19 7552   3.346   5.323   7.122  0.1735  0.2813  0.3703
   69CHL1  H19A 7553   3.245   5.348   7.162 -0.0304 -0.7443  0.5059
   69CHL1  H19B 7554   3.415   5.384   7.184 -0.9247  2.1366 -0.1860
   69CHL1  H19C 7555   3.369   5.369   7.023 -0.5868 -2.0650 -0.9332
   69CHL1    C1 7556   3.543   5.171   7.092 -0.2579 -0.4414 -0.6422
   69CHL1   H1A 7557   3.593   5.229   7.173  0.6493 -1.8416 -0.1909
   69CHL1   H1B 7558   3.590   5.072   7.109  0.4637  0.0726  0.4452
   69CHL1    C2 7559   3.589   5.227   6.954 -0.0464 -0.0561  0.1362
   69CHL1   H2A 7560   3.699   5.221   6.943  0.0844  1.0725  0.8440
   69CHL1   H2B 7561   3.566   5.335   6.944  2.3776  0.5604  1.1320
   69CHL1   C20 7562   3.180   5.062   7.783 -0.4344  0.0440 -0.0268
   69CHL1   H20 7563   3.099   5.138   7.777 -0.0057  0.3787 -1.8836
   69CHL1   C21 7564   3.309   5.126   7.838  0.3307 -0.4174 -0.2857
   69CHL1  H21A 7565   3.397   5.059   7.826  0.8924  0.6398 -2.2077
   69CHL1  H21B 7566   3.297   5.156   7.945 -0.5830  0.9049 -0.7502
   69CHL1  H21C 7567   3.343   5.214   7.780  1.8090  1.7016  3.5689
   69CHL1   C22 7568   3.136   4.965   7.898  0.7783  0.0220  0.3984
   69CHL1  H22A 7569   3.130   5.030   7.988 -0.5818 -0.3570  0.5769
   69CHL1  H22B 7570   3.035   4.933   7.865  0.6242  0.2528  0.6469
   69CHL1   C23 7571   3.225   4.844   7.915 -0.0373 -0.3343  0.0025
   69CHL1  H23A 7572   3.226   4.796   7.815 -0.1349  1.0064 -0.6630
   69CHL1  H23B 7573   3.326   4.875   7.950 -0.3646 -0.3608  0.9829
   69CHL1   C24 7574   3.153   4.749   8.012 -0.6074 -0.3637 -0.3887
   69CHL1  H24A 7575   3.093   4.809   8.084 -1.4252 -0.9483 -0.5629
   69CHL1  H24B 7576   3.079   4.699   7.946 -1.4219 -0.0015  0.2324
   69CHL1   C25 7577   3.232   4.634   8.081 -0.4878 -0.5485 -0.3746
   69CHL1   H25 7578   3.317   4.687   8.130  0.9849 -3.2117  0.0488
   69CHL1   C26 7579   3.151   4.565   8.191  0.1613  0.1605  0.0905
   69CHL1  H26A 7580   3.190   4.466   8.222  0.5056  0.0874 -0.5494
   69CHL1  H26B 7581   3.125   4.629   8.277 -0.3057 -2.9500  2.3285
   69CHL1  H26C 7582   3.052   4.529   8.155 -0.2564  0.1682  1.2309
   69CHL1   C27 7583   3.299   4.531   7.989  0.1587 -0.3753  0.4368
   69CHL1  H27A 7584   3.361   4.454   8.040 -0.3268 -1.7616 -1.0459
   69CHL1  H27B 7585   3.220   4.470   7.941 -0.3752 -0.2633  1.1495
   69CHL1  H27C 7586   3.363   4.573   7.909  2.1545 -1.3773  1.4703
   70CHL1    C3 7587   2.811   1.656   7.120 -0.1902 -0.2019 -0.1304
   70CHL1    H3 7588   2.882   1.740   7.101 -0.5832  0.7655  2.5403
   70CHL1    O3 7589   2.761   1.620   6.991 -0.0656 -0.3208 -0.5629
   70CHL1   H3' 7590   2.691   1.556   7.008  0.6914 -0.5065  2.0102
   70CHL1    C4 7591   2.893   1.542   7.177  0.5203 -0.0774 -0.1484
   70CHL1   H4A 7592   2.832   1.450   7.172  0.3991 -0.2560  3.4410
   70CHL1   H4B 7593   2.974   1.530   7.101 -2.6459 -0.6462 -3.5675
   70CHL1    C5 7594   2.953   1.572   7.313 -0.2128  0.2363 -0.0691
   70CHL1    C6 7595   3.083   1.569   7.335  0.6646 -0.7158 -0.0018
   70CHL1    H6 7596   3.152   1.542   7.254 -0.6097 -2.7683 -0.4355
   70CHL1    C7 7597   3.154   1.601   7.459  0.0384 -0.0477  0.1452
   70CHL1   H7A 7598   3.234   1.527   7.483 -1.4467 -1.0337  2.2298
   70CHL1   H7B 7599   3.191   1.704   7.441  0.5705 -0.4582 -1.1932
   70CHL1    C8 7600   3.053   1.608   7.574  0.4775  0.2542 -0.0172
   70CHL1    H8 7601   3.025   1.502   7.594  1.5149 -0.1908 -0.8879
   70CHL1   C14 7602   3.117   1.676   7.691  0.4550  0.2025 -0.3869
   70CHL1   H14 7603   3.144   1.779   7.659  2.5439 -0.3238 -0.4095
   70CHL1   C15 7604   3.253   1.624   7.743 -0.5034 -0.1866 -0.5306
   70CHL1  H15A 7605   3.251   1.513   7.757  4.5645 -0.4638 -1.3096
   70CHL1  H15B 7606   3.333   1.646   7.670 -2.8732 -2.1776 -3.9459
   70CHL1   C16 7607   3.261   1.695   7.883 -0.7799  0.7529 -0.1565
   70CHL1  H16A 7608   3.298   1.619   7.955 -0.9148 -0.1604 -1.0543
   70CHL1  H16B 7609   3.337   1.774   7.866 -1.2121  1.5376  1.4672
   70CHL1   C17 7610   3.121   1.753   7.917 -0.7322  0.2495  0.7341
   70CHL1   H17 7611   3.135   1.854   7.875 -0.2362  1.0494  2.8017
   70CHL1   C13 7612   3.026   1.691   7.817 -0.3257 -1.1276 -0.2313
   70CHL1   C18 7613   2.991   1.547   7.878  0.1379 -0.2226  0.7498
   70CHL1  H18A 7614   3.086   1.508   7.921  1.3508  0.6839 -1.0448
   70CHL1  H18B 7615   2.898   1.558   7.937 -0.8570 -0.8251 -0.6888
   70CHL1  H18C 7616   2.951   1.474   7.804  1.6720  1.4257 -1.7827
   70CHL1   C12 7617   2.901   1.767   7.781  0.2989  0.3637  0.4917
   70CHL1  H12A 7618   2.831   1.774   7.867 -2.0855  1.5002 -1.4737
   70CHL1  H12B 7619   2.929   1.870   7.750 -1.1007  1.0690  1.5001
   70CHL1   C11 7620   2.831   1.695   7.658  0.7153 -0.3184  0.0944
   70CHL1  H11A 7621   2.801   1.590   7.679  0.7846 -0.2460  0.5381
   70CHL1  H11B 7622   2.741   1.754   7.628  0.3046  0.7092  3.1963
   70CHL1    C9 7623   2.926   1.680   7.534 -0.1693 -1.3320 -1.1342
   70CHL1    H9 7624   2.956   1.787   7.528  2.0733 -1.8624  0.0350
   70CHL1   C10 7625   2.852   1.617   7.415 -0.2322 -0.2465  0.0896
   70CHL1   C19 7626   2.757   1.500   7.453  0.6454 -0.1618  0.4384
   70CHL1  H19A 7627   2.822   1.424   7.500  2.0491  0.5814 -0.2801
   70CHL1  H19B 7628   2.677   1.538   7.521 -1.6390  1.1809 -2.8582
   70CHL1  H19C 7629   2.698   1.461   7.367 -1.1641  1.7608  0.7483
   70CHL1    C1 7630   2.759   1.731   7.350  0.5095  0.5247 -0.3132
   70CHL1   H1A 7631   2.680   1.758   7.423 -1.6505 -1.4208 -1.8578
   70CHL1   H1B 7632   2.813   1.828   7.343  1.0040  0.3291  0.6049
   70CHL1    C2 7633   2.695   1.695   7.217  0.1467  0.1945  0.5525
   70CHL1   H2A 7634   2.649   1.779   7.162  1.8917  0.4093 -0.6427
   70CHL1   H2B 7635   2.620   1.614   7.226  0.2174  0.1588  0.8494
   70CHL1   C20 7636   3.085   1.768   8.069 -0.0010 -0.7688 -0.4324
   70CHL1   H20 7637   3.012   1.690   8.100 -1.2038  0.6202  0.2912
   70CHL1   C21 7638   3.010   1.900   8.090 -0.4660 -0.7620  0.0092
   70CHL1  H21A 7639   3.074   1.990   8.077 -0.4149 -0.7140  0.5754
   70CHL1  H21B 7640   2.974   1.912   8.194  0.1357 -0.7840  0.2206
   70CHL1  H21C 7641   2.920   1.896   8.024  0.0074 -0.1847 -0.6823
   70CHL1   C22 7642   3.212   1.748   8.160 -0.3895  0.7580  0.6944
   70CHL1  H22A 7643   3.242   1.641   8.158  1.1764  1.1999 -1.0664
   70CHL1  H22B 7644   3.285   1.807   8.101 -0.5711 -2.6071 -3.1162
   70CHL1   C23 7645   3.200   1.776   8.314  0.3005 -0.0632 -0.0236
   70CHL1  H23A 7646   3.160   1.879   8.321 -3.7745 -1.6510  1.4418
   70CHL1  H23B 7647   3.120   1.714   8.360  1.0695 -0.9415  0.1608
   70CHL1   C24 7648   3.334   1.763   8.379 -0.5782 -0.1822 -0.0988
   70CHL1  H24A 7649   3.390   1.673   8.347 -0.2321  0.0758 -0.2203
   70CHL1  H24B 7650   3.389   1.846   8.332 -1.8253  2.2635  2.5917
   70CHL1   C25 7651   3.344   1.784   8.529  0.6010  0.4085  0.1369
   70CHL1   H25 7652   3.276   1.868   8.557 -1.7355 -1.2647 -0.3470
   70CHL1   C26 7653   3.294   1.665   8.616 -0.3867  0.0403 -0.1859
   70CHL1  H26A 7654   3.343   1.576   8.572  0.3027 -0.0081  0.6518
   70CHL1  H26B 7655   3.314   1.669   8.726  1.3495 -2.3922 -0.3726
   70CHL1  H26C 7656   3.188   1.645   8.588 -0.6355  0.6906  0.2663
   70CHL1   C27 7657   3.486   1.828   8.562 -0.2535  0.1101  0.4724
   70CHL1  H27A 7658   3.505   1.934   8.532  1.9425 -0.2923  0.3676
   70CHL1  H27B 7659   3.494   1.821   8.672  3.2275  0.6989  0.3145
   70CHL1  H27C 7660   3.571   1.774   8.515  0.1193  1.2310 -0.1835
   71CHL1    C3 7661   2.807   3.661   6.934 -0.4318  0.1529  0.0908
   71CHL1    H3 7662   2.916   3.673   6.953 -0.1962  0.4240 -1.3324
   71CHL1    O3 7663   2.788   3.680   6.794  0.1635 -0.1627 -0.1810
   71CHL1   H3' 7664   2.782   3.776   6.796 -0.3716 -0.2225  1.3166
   71CHL1    C4 7665   2.784   3.509   6.969  0.4833 -0.0645 -0.8201
   71CHL1   H4A 7666   2.689   3.488   6.917 -2.0051  1.5781  2.8748
   71CHL1   H4B 7667   2.863   3.452   6.915  0.7742 -0.9952  0.5523
   71CHL1    C5 7668   2.775   3.473   7.114  0.3974 -0.2443  0.3116
   71CHL1    C6 7669   2.843   3.370   7.167 -0.3776 -0.7127 -0.3115
   71CHL1    H6 7670   2.907   3.305   7.104 -0.8311 -1.2571 -0.2131
   71CHL1    C7 7671   2.825   3.322   7.311 -0.5949  0.3065 -0.1718
   71CHL1   H7A 7672   2.806   3.213   7.318  0.0526  0.0810 -1.5582
   71CHL1   H7B 7673   2.918   3.349   7.365 -0.0527 -1.3167 -0.2384
   71CHL1    C8 7674   2.704   3.392   7.378  1.1081 -1.0949 -0.7762
   71CHL1    H8 7675   2.616   3.341   7.333 -1.1017  1.0501  0.9037
   71CHL1   C14 7676   2.705   3.365   7.532  0.8325  0.5809  0.1876
   71CHL1   H14 7677   2.801   3.413   7.564 -0.0192  2.3390  0.1570
   71CHL1   C15 7678   2.695   3.216   7.582 -0.3440 -0.3879  0.5675
   71CHL1  H15A 7679   2.617   3.173   7.515 -1.4155  0.6423  1.1374
   71CHL1  H15B 7680   2.787   3.153   7.577 -1.0853 -1.2895 -2.9474
   71CHL1   C16 7681   2.652   3.226   7.726  0.4429 -0.0386 -0.3719
   71CHL1  H16A 7682   2.569   3.154   7.747 -1.1130  0.9786 -2.8006
   71CHL1  H16B 7683   2.729   3.197   7.801  2.2091  0.2302 -2.0586
   71CHL1   C17 7684   2.608   3.375   7.749 -0.1000  1.0176  0.2859
   71CHL1   H17 7685   2.698   3.432   7.780  0.5271  0.2491 -0.0821
   71CHL1   C13 7686   2.591   3.436   7.604  0.2432  0.3450 -0.3077
   71CHL1   C18 7687   2.454   3.391   7.559 -0.1527  0.6473 -0.5953
   71CHL1  H18A 7688   2.426   3.418   7.455  0.6440  0.1111 -0.9577
   71CHL1  H18B 7689   2.443   3.281   7.550  1.5190  0.4500 -0.3720
   71CHL1  H18C 7690   2.379   3.443   7.622 -1.2685 -0.6257 -0.8580
   71CHL1   C12 7691   2.605   3.589   7.594  0.0404  0.1720 -0.2792
   71CHL1  H12A 7692   2.518   3.639   7.641  0.2020 -0.4493  0.6939
   71CHL1  H12B 7693   2.694   3.633   7.645  0.8107  1.2111 -2.4462
   71CHL1   C11 7694   2.611   3.632   7.447 -0.9163  0.5349  0.5511
   71CHL1  H11A 7695   2.504   3.627   7.416 -1.7167  0.7898  3.1647
   71CHL1  H11B 7696   2.634   3.741   7.442  0.9189  0.2629  2.3088
   71CHL1    C9 7697   2.705   3.545   7.352  0.4825 -0.1337  0.0015
   71CHL1    H9 7698   2.807   3.578   7.382  1.0144 -0.3697 -1.5284
   71CHL1   C10 7699   2.697   3.567   7.198  0.1753 -0.2119 -0.0928
   71CHL1   C19 7700   2.549   3.561   7.164  0.3419  0.8468  0.6625
   71CHL1  H19A 7701   2.504   3.463   7.190 -1.3296  1.5060  0.3380
   71CHL1  H19B 7702   2.483   3.636   7.212  0.9855  0.4813  2.1236
   71CHL1  H19C 7703   2.526   3.580   7.057  0.7502 -0.3784  0.3442
   71CHL1    C1 7704   2.755   3.714   7.171 -0.1188  0.1500 -0.5314
   71CHL1   H1A 7705   2.697   3.783   7.236 -0.3192 -0.3973 -0.1341
   71CHL1   H1B 7706   2.864   3.721   7.191 -0.1670 -0.7079  0.0141
   71CHL1    C2 7707   2.736   3.757   7.025 -0.1806  0.1939 -0.4770
   71CHL1   H2A 7708   2.783   3.855   7.004 -0.5636  0.0523 -2.0927
   71CHL1   H2B 7709   2.627   3.760   7.005 -0.1838 -1.2644 -0.7611
   71CHL1   C20 7710   2.499   3.403   7.855 -0.8319 -0.2071  0.4192
   71CHL1   H20 7711   2.444   3.498   7.844 -1.6159 -0.6972  0.0065
   71CHL1   C21 7712   2.587   3.410   7.984 -0.3511  0.5043 -0.6474
   71CHL1  H21A 7713   2.647   3.316   7.992 -2.3078 -0.6875  0.6174
   71CHL1  H21B 7714   2.526   3.432   8.074 -0.6559 -0.8590 -0.4985
   71CHL1  H21C 7715   2.656   3.496   7.977  0.3650 -0.0799 -0.8456
   71CHL1   C22 7716   2.394   3.290   7.871 -0.0597  0.3553 -0.3714
   71CHL1  H22A 7717   2.347   3.253   7.777 -1.6197 -0.1904  0.6118
   71CHL1  H22B 7718   2.447   3.204   7.915 -0.3860  0.8270  0.9619
   71CHL1   C23 7719   2.271   3.335   7.953  0.1851  0.1117  0.6500
   71CHL1  H23A 7720   2.305   3.372   8.052 -0.5233  1.3911  0.4293
   71CHL1  H23B 7721   2.226   3.415   7.890  2.7951  1.3777  0.3453
   71CHL1   C24 7722   2.167   3.220   7.966  0.0511  0.3354 -0.4196
   71CHL1  H24A 7723   2.133   3.189   7.865 -2.2009 -0.9477  0.6768
   71CHL1  H24B 7724   2.222   3.134   8.010 -0.8900 -0.8084 -1.4434
   71CHL1   C25 7725   2.033   3.247   8.047 -0.0498  0.1979 -0.3892
   71CHL1   H25 7726   1.976   3.152   8.050  3.2850 -1.9478 -1.4090
   71CHL1   C26 7727   2.070   3.274   8.197 -0.6872  0.0273  0.0314
   71CHL1  H26A 7728   2.136   3.362   8.215  1.3492 -1.5244  0.2950
   71CHL1  H26B 7729   1.981   3.305   8.255  0.7005  1.9687  1.2240
   71CHL1  H26C 7730   2.117   3.181   8.237 -0.3284 -0.4661 -1.5113
   71CHL1   C27 7731   1.947   3.366   7.995 -0.0687  0.2725  0.0877
   71CHL1  H27A 7732   1.852   3.372   8.051  0.0398 -0.4534  0.3476
   71CHL1  H27B 7733   2.003   3.460   8.016  1.3745 -0.5100 -0.1389
   71CHL1  H27C 7734   1.924   3.351   7.887 -0.8744  0.0823  0.2838
   72CHL1    C3 7735   2.862   2.181   7.174 -0.2350  0.6145 -0.0308
   72CHL1    H3 7736   2.780   2.257   7.171 -1.5973 -0.8580 -0.9866
   72CHL1    O3 7737   2.869   2.129   7.043 -0.3281 -0.2579 -0.8995
   72CHL1   H3' 7738   2.945   2.071   7.041 -1.3448 -1.6453  0.1118
   72CHL1    C4 7739   2.999   2.251   7.207 -0.2597 -0.5730  0.7026
   72CHL1   H4A 7740   3.074   2.171   7.191 -1.3786 -1.9947  2.4346
   72CHL1   H4B 7741   3.008   2.335   7.134  1.5764  0.3930  1.9924
   72CHL1    C5 7742   3.004   2.299   7.355 -0.2806 -0.8130 -0.3541
   72CHL1    C6 7743   3.045   2.426   7.389  0.6096 -0.5503  0.4530
   72CHL1    H6 7744   3.071   2.490   7.304  0.4834 -2.2696 -0.9006
   72CHL1    C7 7745   3.062   2.472   7.528 -0.3589 -0.0141 -0.2454
   72CHL1   H7A 7746   3.153   2.536   7.532 -1.4026  1.3767  2.3149
   72CHL1   H7B 7747   2.975   2.533   7.561  0.0753  0.5653 -0.1477
   72CHL1    C8 7748   3.074   2.352   7.625 -0.5471  0.0335 -0.6581
   72CHL1    H8 7749   3.172   2.303   7.604 -0.7942 -1.0236  0.5857
   72CHL1   C14 7750   3.072   2.404   7.768  0.5660 -0.2347  0.3940
   72CHL1   H14 7751   2.976   2.456   7.787 -0.7679 -2.6269  0.3451
   72CHL1   C15 7752   3.172   2.512   7.803 -0.4309 -0.0638  0.1790
   72CHL1  H15A 7753   3.260   2.509   7.735 -0.6394  2.4318 -0.2348
   72CHL1  H15B 7754   3.120   2.608   7.783  1.2214  0.3881 -2.1429
   72CHL1   C16 7755   3.204   2.502   7.950 -0.1130  0.4550  0.0981
   72CHL1  H16A 7756   3.304   2.458   7.969  1.1052  2.4635 -1.4325
   72CHL1  H16B 7757   3.181   2.592   8.011  0.0389 -0.1672  1.0821
   72CHL1   C17 7758   3.107   2.390   7.995  0.2198 -0.1110 -0.1146
   72CHL1   H17 7759   3.003   2.419   8.021 -0.0980  0.1933 -1.6926
   72CHL1   C13 7760   3.086   2.300   7.875 -0.5734  1.0210 -0.2427
   72CHL1   C18 7761   3.217   2.222   7.857  0.0741 -0.0603  0.0317
   72CHL1  H18A 7762   3.301   2.293   7.849 -0.1463  0.0000 -2.2321
   72CHL1  H18B 7763   3.245   2.156   7.942  1.1296  1.2614  0.7107
   72CHL1  H18C 7764   3.218   2.158   7.766 -2.5133  1.8138 -1.3837
   72CHL1   C12 7765   2.955   2.219   7.872 -0.4420  0.4335 -0.0682
   72CHL1  H12A 7766   2.963   2.128   7.935 -0.0718  1.2352  1.0675
   72CHL1  H12B 7767   2.876   2.293   7.894  2.2788  3.8216 -1.2861
   72CHL1   C11 7768   2.942   2.157   7.732  0.4547 -0.0420  0.1060
   72CHL1  H11A 7769   3.017   2.076   7.727  1.9814  1.4277 -1.4792
   72CHL1  H11B 7770   2.842   2.110   7.742  0.7522 -0.1419  2.9891
   72CHL1    C9 7771   2.961   2.251   7.612 -0.0696 -0.5240  0.0198
   72CHL1    H9 7772   2.875   2.321   7.608  0.5395  0.3142  1.0795
   72CHL1   C10 7773   2.968   2.183   7.462  0.2249  0.1776 -0.0348
   72CHL1   C19 7774   3.082   2.077   7.463  0.0811  0.5141 -0.7583
   72CHL1  H19A 7775   3.044   2.001   7.534  0.4081  1.1518  0.1073
   72CHL1  H19B 7776   3.101   2.030   7.364  1.1171  1.7104 -1.1489
   72CHL1  H19C 7777   3.182   2.105   7.504 -0.3478  0.3963  0.3778
   72CHL1    C1 7778   2.832   2.116   7.423  0.0345  0.2476 -0.0700
   72CHL1   H1A 7779   2.814   2.029   7.489 -3.1388 -0.3923 -1.6942
   72CHL1   H1B 7780   2.752   2.190   7.440  0.4512  0.3860  1.3060
   72CHL1    C2 7781   2.826   2.066   7.276 -0.8630 -0.1564  0.1157
   72CHL1   H2A 7782   2.728   2.021   7.250 -0.3266 -1.5219  0.4119
   72CHL1   H2B 7783   2.899   1.987   7.247 -0.1249  0.3501  0.5689
   72CHL1   C20 7784   3.138   2.329   8.133  0.3185  0.2197 -0.4747
   72CHL1   H20 7785   3.209   2.244   8.119 -0.1870 -0.5602  1.6057
   72CHL1   C21 7786   3.001   2.283   8.203 -0.0439  0.1174  0.7638
   72CHL1  H21A 7787   2.925   2.365   8.207 -0.5792 -0.4053  1.4926
   72CHL1  H21B 7788   3.018   2.243   8.305  1.1280 -0.5692  0.2964
   72CHL1  H21C 7789   2.962   2.209   8.131  0.3398 -1.8860  2.5708
   72CHL1   C22 7790   3.212   2.414   8.240  0.2476  0.4143 -0.2692
   72CHL1  H22A 7791   3.303   2.456   8.193  0.7236 -0.5655 -0.2294
   72CHL1  H22B 7792   3.143   2.496   8.270  0.6401  0.4816  0.4629
   72CHL1   C23 7793   3.272   2.332   8.355 -0.4961  0.0116 -0.1101
   72CHL1  H23A 7794   3.184   2.288   8.408 -1.2809  2.5072  0.7361
   72CHL1  H23B 7795   3.325   2.250   8.302 -1.8620 -0.9096 -0.0991
   72CHL1   C24 7796   3.367   2.411   8.450 -0.3814 -0.2019 -0.2431
   72CHL1  H24A 7797   3.457   2.437   8.391 -1.4875  0.4747 -1.6659
   72CHL1  H24B 7798   3.321   2.509   8.478 -0.0168 -0.2740  0.6178
   72CHL1   C25 7799   3.404   2.347   8.589 -0.0926  0.2143  0.3347
   72CHL1   H25 7800   3.308   2.324   8.640  0.2479 -2.7171 -0.2777
   72CHL1   C26 7801   3.465   2.210   8.556 -0.3595 -0.4593  0.4630
   72CHL1  H26A 7802   3.455   2.137   8.640 -0.6259 -2.7570 -1.5214
   72CHL1  H26B 7803   3.412   2.165   8.469 -1.2362  1.7917 -0.1905
   72CHL1  H26C 7804   3.574   2.220   8.539 -0.7300  1.4874 -0.8254
   72CHL1   C27 7805   3.485   2.444   8.681 -0.4055 -0.3099 -0.1453
   72CHL1  H27A 7806   3.514   2.390   8.773 -0.0429 -0.2972 -0.2511
   72CHL1  H27B 7807   3.577   2.487   8.635 -0.4313  0.6658  0.7186
   72CHL1  H27C 7808   3.419   2.530   8.705  2.1586  1.6019  0.2127
   73CHL1    C3 7809   2.521   5.253   6.959  0.3029  0.3899  0.2422
   73CHL1    H3 7810   2.414   5.243   6.986  0.4235  2.4432  1.6112
   73CHL1    O3 7811   2.532   5.262   6.817  0.5012  0.3080  0.1645
   73CHL1   H3' 7812   2.490   5.179   6.790 -1.5568  1.2990  0.2291
   73CHL1    C4 7813   2.586   5.367   7.040 -0.1782  0.4793 -0.2942
   73CHL1   H4A 7814   2.694   5.376   7.014 -0.3420  3.9905 -0.0467
   73CHL1   H4B 7815   2.542   5.466   7.016 -0.1286  1.2642  2.5851
   73CHL1    C5 7816   2.568   5.340   7.187  0.2901 -0.2169 -0.3155
   73CHL1    C6 7817   2.498   5.429   7.265  0.2561 -1.1160 -0.3317
   73CHL1    H6 7818   2.446   5.513   7.217 -0.4891 -0.6586  1.2406
   73CHL1    C7 7819   2.484   5.421   7.413 -0.2829 -0.6381 -0.6437
   73CHL1   H7A 7820   2.507   5.516   7.467  0.0230  0.7631 -3.1199
   73CHL1   H7B 7821   2.379   5.408   7.447 -0.2615 -2.8277 -1.3720
   73CHL1    C8 7822   2.579   5.312   7.472 -0.5944 -0.0476 -0.3904
   73CHL1    H8 7823   2.675   5.368   7.473  0.4298 -1.7619  0.5215
   73CHL1   C14 7824   2.545   5.278   7.617  0.2069 -0.4010 -0.0041
   73CHL1   H14 7825   2.446   5.227   7.612  0.2478 -0.6689  1.8639
   73CHL1   C15 7826   2.521   5.392   7.715  0.0588 -0.3510  0.5645
   73CHL1  H15A 7827   2.602   5.466   7.702  1.8551 -2.2257  0.8332
   73CHL1  H15B 7828   2.437   5.462   7.694  1.0141  0.3699 -0.9542
   73CHL1   C16 7829   2.537   5.331   7.854  0.1509  1.1107 -0.1146
   73CHL1  H16A 7830   2.611   5.379   7.922 -2.2527  1.3356  2.4672
   73CHL1  H16B 7831   2.445   5.326   7.915  0.6159 -2.1374  0.4231
   73CHL1   C17 7832   2.589   5.178   7.827 -0.1546  0.5010 -0.2954
   73CHL1   H17 7833   2.491   5.128   7.810 -0.1647  0.9606 -1.6561
   73CHL1   C13 7834   2.641   5.178   7.688 -0.2055 -0.4790  0.3524
   73CHL1   C18 7835   2.780   5.242   7.692 -1.2035  0.6551 -0.0086
   73CHL1  H18A 7836   2.808   5.264   7.587 -0.6255 -0.2497 -0.0564
   73CHL1  H18B 7837   2.788   5.324   7.765  4.2532 -0.4716  0.8660
   73CHL1  H18C 7838   2.847   5.159   7.724 -0.2584  1.1339 -0.7249
   73CHL1   C12 7839   2.638   5.043   7.609 -0.6176 -0.5466  0.5510
   73CHL1  H12A 7840   2.717   4.981   7.658  3.1080  2.6734 -1.1089
   73CHL1  H12B 7841   2.537   4.996   7.614 -0.0990 -1.6460  0.9366
   73CHL1   C11 7842   2.678   5.070   7.459  0.4477 -0.0531  0.6217
   73CHL1  H11A 7843   2.787   5.092   7.454  0.0152  1.6713 -2.7412
   73CHL1  H11B 7844   2.680   4.976   7.400  0.3516 -0.0327  0.5864
   73CHL1    C9 7845   2.594   5.180   7.388 -0.6237 -0.1936 -0.5493
   73CHL1    H9 7846   2.490   5.140   7.390 -0.7506  0.1483  0.1301
   73CHL1   C10 7847   2.627   5.209   7.239  0.2186  0.2578 -0.4490
   73CHL1   C19 7848   2.779   5.230   7.222  0.1970  1.2762 -0.1298
   73CHL1  H19A 7849   2.812   5.317   7.283  2.7432  1.2412 -1.4153
   73CHL1  H19B 7850   2.848   5.149   7.253  0.0731  1.3065  0.2316
   73CHL1  H19C 7851   2.809   5.246   7.117 -1.5080  1.9546 -0.5384
   73CHL1    C1 7852   2.566   5.102   7.154  0.6753 -0.6503  0.7396
   73CHL1   H1A 7853   2.599   4.999   7.179  1.1090 -0.3323  1.4888
   73CHL1   H1B 7854   2.458   5.104   7.178  0.3428  1.8135 -0.8948
   73CHL1    C2 7855   2.582   5.118   6.997  0.1494 -0.3327  0.1182
   73CHL1   H2A 7856   2.528   5.030   6.955  1.7223 -0.6825 -1.2171
   73CHL1   H2B 7857   2.689   5.105   6.969  0.1651 -1.8912  0.8964
   73CHL1   C20 7858   2.651   5.098   7.945 -0.5217 -0.1643 -1.0416
   73CHL1   H20 7859   2.687   5.002   7.902 -2.6170 -1.5670  0.2197
   73CHL1   C21 7860   2.536   5.075   8.052 -0.2740 -0.1678 -0.7035
   73CHL1  H21A 7861   2.514   5.167   8.110 -2.4273 -0.2985 -1.2556
   73CHL1  H21B 7862   2.561   4.992   8.121  1.9360  0.0330 -1.2171
   73CHL1  H21C 7863   2.439   5.051   8.003 -3.0133 -0.4908  4.5579
   73CHL1   C22 7864   2.784   5.162   8.012 -0.1608  0.5984 -0.4532
   73CHL1  H22A 7865   2.861   5.188   7.937 -1.0034  3.2691 -0.4770
   73CHL1  H22B 7866   2.751   5.259   8.058 -0.9586  0.0062  0.2427
   73CHL1   C23 7867   2.847   5.069   8.116  0.4881 -0.1404 -0.3294
   73CHL1  H23A 7868   2.777   5.039   8.197  1.1612  0.6707  0.5508
   73CHL1  H23B 7869   2.860   4.981   8.048  1.8473 -0.0618 -0.1791
   73CHL1   C24 7870   2.973   5.128   8.187 -0.4411  0.2537 -0.3847
   73CHL1  H24A 7871   3.049   5.156   8.111 -0.7067  2.0815  0.0094
   73CHL1  H24B 7872   2.943   5.218   8.244  0.1868  1.2341 -1.5772
   73CHL1   C25 7873   3.041   5.034   8.291  0.3619  0.1660 -0.0740
   73CHL1   H25 7874   3.059   4.938   8.240 -1.2527 -1.0521  1.5820
   73CHL1   C26 7875   3.178   5.083   8.338  0.5383 -0.1316 -0.3700
   73CHL1  H26A 7876   3.168   5.180   8.392 -2.1570  0.1042 -1.2259
   73CHL1  H26B 7877   3.228   5.009   8.404 -1.2557 -2.2921 -1.3901
   73CHL1  H26C 7878   3.233   5.105   8.243 -0.3653 -0.5532 -0.9912
   73CHL1   C27 7879   2.960   5.010   8.416  0.7514 -0.0938  0.5227
   73CHL1  H27A 7880   2.868   4.950   8.405  1.8482 -1.2744 -2.8877
   73CHL1  H27B 7881   3.017   4.949   8.490  1.0025  0.5048  0.8334
   73CHL1  H27C 7882   2.947   5.106   8.471  0.9584  0.2607 -0.0399
   74CHL1    C3 7883   2.149   3.843   6.790 -0.5287  0.3944 -0.4215
   74CHL1    H3 7884   2.052   3.789   6.794  0.0998 -0.9995 -3.1679
   74CHL1    O3 7885   2.174   3.856   6.651 -0.0708 -0.0189 -0.3533
   74CHL1   H3' 7886   2.265   3.887   6.650  1.0085 -2.9716 -1.0035
   74CHL1    C4 7887   2.156   3.985   6.850  0.2537 -0.0242  0.5302
   74CHL1   H4A 7888   2.257   4.029   6.836  0.1105 -0.1473 -1.0469
   74CHL1   H4B 7889   2.086   4.055   6.799  1.6623 -0.7806 -2.5532
   74CHL1    C5 7890   2.133   3.983   6.999  0.6605 -0.7312  0.8156
   74CHL1    C6 7891   2.038   4.058   7.054  0.3077 -0.1233 -0.1378
   74CHL1    H6 7892   1.972   4.125   6.997 -1.4891 -0.6972  1.2134
   74CHL1    C7 7893   2.006   4.058   7.202 -0.0425 -0.0634  0.1545
   74CHL1   H7A 7894   1.979   4.160   7.237  2.3445  0.4531  0.6395
   74CHL1   H7B 7895   1.912   4.001   7.212 -1.2958  2.2877  2.2595
   74CHL1    C8 7896   2.109   3.980   7.291  0.0393  0.7184  0.4012
   74CHL1    H8 7897   2.194   4.050   7.300 -0.2826  0.7316  4.0685
   74CHL1   C14 7898   2.051   3.938   7.424  0.9030 -0.0112 -0.0588
   74CHL1   H14 7899   1.962   3.880   7.392  0.2822  0.6896  0.3770
   74CHL1   C15 7900   1.997   4.051   7.514  0.4594 -0.5508  1.1553
   74CHL1  H15A 7901   2.064   4.139   7.511  1.4291 -1.3258 -0.4329
   74CHL1  H15B 7902   1.891   4.079   7.496  0.5507 -0.9007  0.0351
   74CHL1   C16 7903   1.989   3.983   7.651  0.7628 -0.6741 -0.5463
   74CHL1  H16A 7904   2.054   4.050   7.712  3.8065 -3.1668 -0.9333
   74CHL1  H16B 7905   1.886   3.972   7.692  1.8438 -0.6600  2.3192
   74CHL1   C17 7906   2.053   3.844   7.643 -0.0276  0.4279  0.4627
   74CHL1   H17 7907   1.967   3.776   7.626  1.3986 -0.8616 -1.8651
   74CHL1   C13 7908   2.134   3.849   7.516 -0.1329  0.9452 -0.0253
   74CHL1   C18 7909   2.270   3.922   7.546 -0.4819  0.0743 -0.0549
   74CHL1  H18A 7910   2.249   4.017   7.598 -0.1395  0.2585 -0.2513
   74CHL1  H18B 7911   2.331   3.867   7.621  0.5740 -0.8516 -1.5587
   74CHL1  H18C 7912   2.323   3.945   7.451  0.8143  0.3039  0.7128
   74CHL1   C12 7913   2.154   3.706   7.433  0.1914  0.5026 -0.5328
   74CHL1  H12A 7914   2.216   3.634   7.491  0.6653 -0.7799 -2.6120
   74CHL1  H12B 7915   2.055   3.667   7.404  0.0121  1.5797 -1.4211
   74CHL1   C11 7916   2.232   3.741   7.299 -0.7271 -0.1523  0.0590
   74CHL1  H11A 7917   2.337   3.760   7.330 -0.8082 -2.9452  2.2080
   74CHL1  H11B 7918   2.234   3.641   7.251  0.2130  0.6444 -1.6136
   74CHL1    C9 7919   2.155   3.846   7.215  0.2887 -0.2978 -1.1569
   74CHL1    H9 7920   2.057   3.795   7.201  0.4431 -0.6069 -1.1338
   74CHL1   C10 7921   2.218   3.876   7.076  0.6153  0.1905 -0.7465
   74CHL1   C19 7922   2.356   3.942   7.106  0.0685 -0.2222 -0.6247
   74CHL1  H19A 7923   2.361   4.026   7.178 -0.1443 -1.3452  0.7267
   74CHL1  H19B 7924   2.434   3.874   7.147  0.0261 -2.2816 -3.7389
   74CHL1  H19C 7925   2.397   3.974   7.007  0.6708 -4.0784 -1.7091
   74CHL1    C1 7926   2.241   3.744   7.000 -0.4437  0.4732  0.6543
   74CHL1   H1A 7927   2.331   3.699   7.047 -0.2048 -1.9810 -2.0259
   74CHL1   H1B 7928   2.156   3.674   7.013 -0.4520  0.3030 -0.2693
   74CHL1    C2 7929   2.257   3.760   6.850 -0.0562  0.4778  0.2649
   74CHL1   H2A 7930   2.265   3.661   6.801 -1.5663 -0.2498  1.4567
   74CHL1   H2B 7931   2.357   3.798   6.820  0.9500 -3.6502 -1.9705
   74CHL1   C20 7932   2.120   3.801   7.777  0.0314 -0.5260 -0.4039
   74CHL1   H20 7933   2.207   3.865   7.805 -1.8720  1.8363  0.2342
   74CHL1   C21 7934   2.160   3.655   7.770 -0.8063  0.0198  0.8701
   74CHL1  H21A 7935   2.191   3.619   7.871  1.1851 -0.2776  0.1722
   74CHL1  H21B 7936   2.254   3.648   7.710 -1.1898 -1.4592  0.4076
   74CHL1  H21C 7937   2.082   3.594   7.719  0.0141 -1.3268  1.1966
   74CHL1   C22 7938   2.016   3.819   7.895  0.1944 -0.1529 -0.3993
   74CHL1  H22A 7939   1.961   3.916   7.889  0.8686  0.1440 -2.2450
   74CHL1  H22B 7940   1.942   3.736   7.902 -0.0512  0.2964  3.8610
   74CHL1   C23 7941   2.075   3.826   8.037  0.0422 -0.2037 -0.5589
   74CHL1  H23A 7942   2.150   3.745   8.043 -0.0902 -0.2460  0.5773
   74CHL1  H23B 7943   2.131   3.922   8.032 -1.2822  0.5757 -0.6869
   74CHL1   C24 7944   1.974   3.835   8.155  0.7382  0.0835 -0.0080
   74CHL1  H24A 7945   1.922   3.934   8.150 -0.5219 -0.5617  0.2083
   74CHL1  H24B 7946   1.905   3.748   8.160 -0.4737  1.0954  1.6432
   74CHL1   C25 7947   2.038   3.833   8.293 -0.6148 -0.3817 -0.5882
   74CHL1   H25 7948   2.114   3.913   8.302 -0.3876 -0.2716 -3.3162
   74CHL1   C26 7949   1.942   3.865   8.405  1.0568  0.4854  0.5349
   74CHL1  H26A 7950   2.006   3.872   8.496 -1.3902 -0.7007  2.4026
   74CHL1  H26B 7951   1.892   3.964   8.398  2.2920  0.9895 -1.4024
   74CHL1  H26C 7952   1.865   3.787   8.420  1.5872 -0.0612  0.4537
   74CHL1   C27 7953   2.111   3.701   8.324  0.0748 -0.0939  0.4132
   74CHL1  H27A 7954   2.128   3.689   8.433  0.8057 -0.4626  0.2593
   74CHL1  H27B 7955   2.033   3.622   8.313 -1.8664  1.4369  2.6961
   74CHL1  H27C 7956   2.203   3.680   8.266 -1.3630 -2.0445 -1.2683
   75CHL1    C3 7957   5.025   5.269   6.765 -0.3906 -0.7870 -0.9872
   75CHL1    H3 7958   5.039   5.369   6.812 -3.9098 -1.3487  1.4438
   75CHL1    O3 7959   5.074   5.269   6.632 -0.0466 -0.1906 -0.9221
   75CHL1   H3' 7960   5.064   5.177   6.607 -1.0015 -0.0555 -1.0464
   75CHL1    C4 7961   5.118   5.168   6.843 -0.0431 -0.0124 -0.2679
   75CHL1   H4A 7962   5.117   5.066   6.800  2.5958  1.2383 -3.4787
   75CHL1   H4B 7963   5.219   5.212   6.831 -0.8954  2.7034  1.9618
   75CHL1    C5 7964   5.082   5.143   6.987 -0.0172 -0.3766 -0.0855
   75CHL1    C6 7965   5.171   5.165   7.081 -0.2133  0.4081  0.1017
   75CHL1    H6 7966   5.272   5.189   7.045 -0.8324  0.9825 -1.2849
   75CHL1    C7 7967   5.151   5.132   7.229  0.1044  0.4275  0.0762
   75CHL1   H7A 7968   5.245   5.082   7.259  0.2730  0.9448  0.4307
   75CHL1   H7B 7969   5.132   5.225   7.287 -2.3635  0.4321 -0.6502
   75CHL1    C8 7970   5.023   5.047   7.250  0.0474 -0.0965  0.1385
   75CHL1    H8 7971   5.039   4.945   7.208  2.5645  0.1204  0.5188
   75CHL1   C14 7972   4.974   5.032   7.403  0.0645  0.6984 -0.2037
   75CHL1   H14 7973   4.961   5.141   7.423  1.3091  0.7495  0.3806
   75CHL1   C15 7974   5.070   4.987   7.509 -0.2431 -0.0759  0.2226
   75CHL1  H15A 7975   5.113   4.886   7.491 -2.3489 -0.8989 -0.2531
   75CHL1  H15B 7976   5.159   5.053   7.520  0.1643 -0.0601 -2.7814
   75CHL1   C16 7977   4.973   4.978   7.629 -0.4701 -0.7786 -0.0002
   75CHL1  H16A 7978   4.988   4.876   7.670  0.6542 -0.4967  0.3085
   75CHL1  H16B 7979   4.996   5.060   7.701  0.2845  0.2490 -1.3767
   75CHL1   C17 7980   4.828   5.013   7.580 -0.5565 -0.3546 -0.3095
   75CHL1   H17 7981   4.823   5.124   7.582 -2.0077 -0.3899 -0.9605
   75CHL1   C13 7982   4.835   4.972   7.431 -0.4744  0.0920  0.7397
   75CHL1   C18 7983   4.855   4.823   7.428 -0.4054  0.3789 -0.2695
   75CHL1  H18A 7984   4.889   4.792   7.326  0.1967  0.7499 -0.1862
   75CHL1  H18B 7985   4.930   4.780   7.498 -0.5229  1.8753  0.7870
   75CHL1  H18C 7986   4.760   4.770   7.449 -1.1137  2.7600  2.7232
   75CHL1   C12 7987   4.726   5.019   7.336 -0.5390 -0.0839 -0.2845
   75CHL1  H12A 7988   4.632   4.961   7.331 -0.5676 -0.1634  1.0079
   75CHL1  H12B 7989   4.693   5.119   7.373 -0.4681  0.9082 -2.7701
   75CHL1   C11 7990   4.778   5.028   7.189  0.4909 -0.3057 -0.1081
   75CHL1  H11A 7991   4.809   4.925   7.164  2.5873  0.2082  0.2498
   75CHL1  H11B 7992   4.694   5.048   7.119  0.9091  2.4573  0.1023
   75CHL1    C9 7993   4.902   5.109   7.161  0.3427 -0.0383  0.4318
   75CHL1    H9 7994   4.884   5.212   7.199  2.8837 -0.2464  2.2844
   75CHL1   C10 7995   4.929   5.116   7.002 -0.4876 -0.3593  0.3402
   75CHL1   C19 7996   4.891   4.980   6.936  0.4312  0.0960 -0.1825
   75CHL1  H19A 7997   4.915   4.989   6.828  0.3992 -0.4019 -0.2338
   75CHL1  H19B 7998   4.943   4.890   6.977 -1.0748 -1.5695 -1.8333
   75CHL1  H19C 7999   4.783   4.955   6.935  0.6376 -0.8203 -1.9413
   75CHL1    C1 8000   4.849   5.225   6.920  0.1492  0.0357  0.0277
   75CHL1   H1A 8001   4.741   5.199   6.928 -0.1942  1.5774  0.5955
   75CHL1   H1B 8002   4.857   5.319   6.979  1.3188 -0.5972  0.9062
   75CHL1    C2 8003   4.878   5.231   6.774  0.3301 -0.3883 -0.7609
   75CHL1   H2A 8004   4.811   5.306   6.726  0.9148  0.9942  0.5297
   75CHL1   H2B 8005   4.856   5.136   6.721  1.3278 -0.1563 -1.6136
   75CHL1   C20 8006   4.718   4.947   7.672  0.7974 -0.7628  0.7639
   75CHL1   H20 8007   4.744   4.841   7.690 -1.0964 -1.3820  0.0246
   75CHL1   C21 8008   4.573   4.949   7.609 -0.2061  0.1857  0.0094
   75CHL1  H21A 8009   4.492   4.921   7.680  0.5817  0.5041  1.0402
   75CHL1  H21B 8010   4.565   4.879   7.523 -0.8670 -3.0522  2.5718
   75CHL1  H21C 8011   4.565   5.054   7.574 -0.6361  0.2373  0.2584
   75CHL1   C22 8012   4.732   5.022   7.806  0.0731  0.0186 -0.8083
   75CHL1  H22A 8013   4.829   4.993   7.851  0.0071  0.2282 -0.5334
   75CHL1  H22B 8014   4.757   5.127   7.781  1.7810 -0.5957 -1.7269
   75CHL1   C23 8015   4.612   5.000   7.904 -0.4696  0.4088 -0.0478
   75CHL1  H23A 8016   4.519   5.047   7.864 -0.8086  0.4290  0.7460
   75CHL1  H23B 8017   4.587   4.892   7.897  3.2995 -0.8081  3.1099
   75CHL1   C24 8018   4.650   5.033   8.050  0.6150  0.2469 -0.6006
   75CHL1  H24A 8019   4.744   4.975   8.064  1.5935  1.9498  0.0606
   75CHL1  H24B 8020   4.680   5.138   8.069  1.1569 -0.3297  1.8395
   75CHL1   C25 8021   4.539   4.999   8.153  0.1393  0.6291  0.2086
   75CHL1   H25 8022   4.446   5.031   8.102 -0.3540  0.2103  0.8355
   75CHL1   C26 8023   4.537   4.849   8.182  0.5903  0.4315 -0.1924
   75CHL1  H26A 8024   4.444   4.822   8.238  1.3136 -2.4682 -0.3312
   75CHL1  H26B 8025   4.565   4.787   8.094 -2.5609 -1.1552 -0.1778
   75CHL1  H26C 8026   4.618   4.825   8.254 -0.4596  1.3172  1.3218
   75CHL1   C27 8027   4.545   5.083   8.281  0.4193  0.8128  0.3322
   75CHL1  H27A 8028   4.642   5.059   8.330  0.3658 -0.0372  0.0338
   75CHL1  H27B 8029   4.556   5.189   8.251  3.6945  0.0172 -1.4337
   75CHL1  H27C 8030   4.459   5.078   8.352 -0.8525  1.6076 -1.1393
   76CHL1    C3 8031   1.536   0.201   7.283 -0.5758 -0.3100 -0.2383
   76CHL1    H3 8032   1.633   0.247   7.311  0.3925  0.0787 -3.9700
   76CHL1    O3 8033   1.550   0.117   7.176 -0.7705  0.4695 -0.1008
   76CHL1   H3' 8034   1.460   0.105   7.145 -0.3859  2.9537 -2.3472
   76CHL1    C4 8035   1.484   0.122   7.399  0.0442  0.7111  0.1345
   76CHL1   H4A 8036   1.385   0.089   7.363 -1.0096  1.0839  2.5765
   76CHL1   H4B 8037   1.555   0.039   7.420 -1.0019 -0.1525  0.3022
   76CHL1    C5 8038   1.463   0.215   7.518  0.0548  0.0967 -0.3341
   76CHL1    C6 8039   1.523   0.182   7.634  0.2438 -0.3900  0.0126
   76CHL1    H6 8040   1.574   0.084   7.639  0.5344 -0.2275  0.2045
   76CHL1    C7 8041   1.515   0.270   7.751  0.2652 -0.2393  0.4914
   76CHL1   H7A 8042   1.500   0.221   7.850 -1.1251  0.3234  0.5719
   76CHL1   H7B 8043   1.617   0.314   7.756 -0.2116  0.9706 -0.2445
   76CHL1    C8 8044   1.403   0.375   7.744  0.5985  0.7593  0.6179
   76CHL1    H8 8045   1.304   0.326   7.758 -0.1233  1.9956 -0.0670
   76CHL1   C14 8046   1.408   0.471   7.864 -0.9711 -0.1934  0.1260
   76CHL1   H14 8047   1.505   0.524   7.852 -1.0352  0.1616  1.1641
   76CHL1   C15 8048   1.414   0.407   8.006 -0.9130  0.3096 -0.7897
   76CHL1  H15A 8049   1.330   0.340   8.034  0.3836 -1.5289 -1.1572
   76CHL1  H15B 8050   1.514   0.363   8.028 -1.4878 -0.6639 -0.0861
   76CHL1   C16 8051   1.396   0.528   8.103 -0.4288  0.1633  0.2960
   76CHL1  H16A 8052   1.312   0.504   8.171  0.3850 -2.2294  0.5047
   76CHL1  H16B 8053   1.480   0.556   8.170 -0.5198 -2.9088  1.7917
   76CHL1   C17 8054   1.362   0.649   8.011 -0.0922  0.3063  0.0765
   76CHL1   H17 8055   1.461   0.692   7.985 -0.4068  1.5423  0.8993
   76CHL1   C13 8056   1.313   0.588   7.874  0.5047  0.9705 -0.8286
   76CHL1   C18 8057   1.166   0.540   7.896 -0.3287  0.2348  0.5483
   76CHL1  H18A 8058   1.140   0.466   7.818 -3.4383  1.3013  0.5248
   76CHL1  H18B 8059   1.157   0.491   7.996 -1.8503 -0.4243  0.0890
   76CHL1  H18C 8060   1.086   0.617   7.896 -0.4508  0.1394 -2.2466
   76CHL1   C12 8061   1.330   0.673   7.739 -0.1369  0.0653  0.1537
   76CHL1  H12A 8062   1.254   0.753   7.740  1.6158  1.7865 -0.5257
   76CHL1  H12B 8063   1.434   0.713   7.746 -0.3605  0.6913 -0.0809
   76CHL1   C11 8064   1.317   0.579   7.613  0.7896 -0.0137 -0.2802
   76CHL1  H11A 8065   1.216   0.534   7.619  0.9569 -0.3220  0.2700
   76CHL1  H11B 8066   1.330   0.632   7.516 -2.2312 -0.5831 -1.0465
   76CHL1    C9 8067   1.405   0.450   7.613  0.0280 -0.3638 -0.5936
   76CHL1    H9 8068   1.507   0.492   7.606  0.3021 -1.3352 -2.7880
   76CHL1   C10 8069   1.390   0.348   7.500 -1.0090  0.5117  0.2625
   76CHL1   C19 8070   1.241   0.316   7.474  0.8671 -0.3876 -0.1725
   76CHL1  H19A 8071   1.220   0.254   7.385 -0.1807  2.0339 -1.6481
   76CHL1  H19B 8072   1.193   0.263   7.559  2.5169  0.9243  1.6405
   76CHL1  H19C 8073   1.183   0.408   7.450  0.6426 -1.2041 -2.8707
   76CHL1    C1 8074   1.429   0.410   7.360 -0.1742 -0.2985 -0.1076
   76CHL1   H1A 8075   1.354   0.487   7.333 -0.5532 -0.7340 -0.2934
   76CHL1   H1B 8076   1.525   0.461   7.386  0.5292 -1.1725 -0.9465
   76CHL1    C2 8077   1.448   0.314   7.245 -1.1979  0.3683 -0.3532
   76CHL1   H2A 8078   1.502   0.366   7.163 -2.9273 -1.8503 -2.9490
   76CHL1   H2B 8079   1.348   0.286   7.207 -1.8735  1.8981  0.2232
   76CHL1   C20 8080   1.276   0.761   8.075 -0.2019  0.2712 -0.6413
   76CHL1   H20 8081   1.166   0.748   8.060  0.0037 -1.8551 -0.3602
   76CHL1   C21 8082   1.332   0.895   8.022  0.6057 -0.0541 -0.1468
   76CHL1  H21A 8083   1.267   0.978   8.057  1.0335  0.0022  0.5232
   76CHL1  H21B 8084   1.330   0.898   7.911  3.8194 -3.9758 -0.4271
   76CHL1  H21C 8085   1.433   0.921   8.061  0.9389  0.5541 -1.3668
   76CHL1   C22 8086   1.281   0.760   8.230 -0.5626 -0.4273  0.0916
   76CHL1  H22A 8087   1.273   0.659   8.276  0.1748 -1.5112 -2.1009
   76CHL1  H22B 8088   1.383   0.791   8.263 -1.2897  1.9944  0.1569
   76CHL1   C23 8089   1.162   0.839   8.288  0.3552 -0.4726 -0.0230
   76CHL1  H23A 8090   1.147   0.938   8.240  0.0141  0.0180  1.0778
   76CHL1  H23B 8091   1.074   0.775   8.264  1.1716 -1.0305 -1.5665
   76CHL1   C24 8092   1.173   0.870   8.437 -0.7438 -0.0135 -0.0859
   76CHL1  H24A 8093   1.164   0.773   8.489  1.3954  0.2173  0.7538
   76CHL1  H24B 8094   1.270   0.921   8.457 -1.1231  0.5940  0.2245
   76CHL1   C25 8095   1.064   0.951   8.496  0.0661  0.8598 -0.3117
   76CHL1   H25 8096   0.970   0.941   8.438  0.1063  0.3114 -0.2860
   76CHL1   C26 8097   1.021   0.898   8.632  0.1011  0.0720 -0.7546
   76CHL1  H26A 8098   0.970   0.800   8.632  0.6578 -0.2443  1.8307
   76CHL1  H26B 8099   1.108   0.894   8.700 -1.2749 -0.3187  1.0145
   76CHL1  H26C 8100   0.958   0.977   8.678 -1.0254 -0.0671 -2.0129
   76CHL1   C27 8101   1.104   1.102   8.501  0.3586  0.0919 -0.4529
   76CHL1  H27A 8102   1.152   1.139   8.409  0.0368 -0.1137 -0.7041
   76CHL1  H27B 8103   1.012   1.163   8.516  1.0814  1.2314 -0.6269
   76CHL1  H27C 8104   1.172   1.119   8.587 -1.0970  0.3614  0.6663
   77CHL1    C3 8105   2.531   5.990   6.788  0.5353  0.6591  1.0165
   77CHL1    H3 8106   2.619   6.054   6.809  1.0778 -0.1829  1.2987
   77CHL1    O3 8107   2.513   5.972   6.653 -0.5852  0.0897 -0.1079
   77CHL1   H3' 8108   2.418   5.987   6.648 -1.0326 -2.2847  0.5616
   77CHL1    C4 8109   2.549   5.853   6.853  0.5444 -0.2948 -0.8808
   77CHL1   H4A 8110   2.462   5.791   6.823 -0.4155  1.7584 -2.4956
   77CHL1   H4B 8111   2.632   5.805   6.797 -0.0239 -2.6563  0.2729
   77CHL1    C5 8112   2.564   5.861   7.002  0.1690  0.3154 -0.1468
   77CHL1    C6 8113   2.679   5.810   7.052  0.4845  0.7993 -0.1718
   77CHL1    H6 8114   2.742   5.747   6.989 -0.0779 -0.7223  0.7431
   77CHL1    C7 8115   2.706   5.801   7.204 -0.5771 -0.5187  0.0070
   77CHL1   H7A 8116   2.731   5.696   7.228 -0.0619 -0.3473  0.2275
   77CHL1   H7B 8117   2.794   5.865   7.227 -0.0896 -1.5154  0.9551
   77CHL1    C8 8118   2.583   5.850   7.292 -0.2410  0.1016  0.2290
   77CHL1    H8 8119   2.507   5.769   7.304  0.6560 -1.0019 -1.3890
   77CHL1   C14 8120   2.628   5.894   7.431  0.4933  0.6820  0.2303
   77CHL1   H14 8121   2.689   5.986   7.422  0.4372  0.5347 -1.8077
   77CHL1   C15 8122   2.712   5.798   7.517 -0.1117  0.1513  0.5576
   77CHL1  H15A 8123   2.686   5.692   7.536 -0.6577  0.3230  0.7824
   77CHL1  H15B 8124   2.799   5.788   7.449 -0.1252  2.2753  0.1890
   77CHL1   C16 8125   2.718   5.865   7.650  0.0575  0.8910  0.8045
   77CHL1  H16A 8126   2.683   5.792   7.727 -2.4205  0.9919 -0.1641
   77CHL1  H16B 8127   2.821   5.901   7.667  1.0613 -1.3963 -0.2179
   77CHL1   C17 8128   2.605   5.973   7.642  0.0727 -0.6227  0.2686
   77CHL1   H17 8129   2.643   6.076   7.624 -1.2900 -0.3036 -0.8497
   77CHL1   C13 8130   2.517   5.943   7.523 -0.6686  0.0882 -0.0188
   77CHL1   C18 8131   2.425   5.828   7.563 -0.0258  0.3821  0.0026
   77CHL1  H18A 8132   2.331   5.860   7.614  1.6690  2.5523  1.8686
   77CHL1  H18B 8133   2.403   5.778   7.466  1.6269 -0.0157 -0.1753
   77CHL1  H18C 8134   2.471   5.753   7.630  1.5762  0.1655 -1.3253
   77CHL1   C12 8135   2.452   6.066   7.455 -0.3216 -0.1054 -0.5667
   77CHL1  H12A 8136   2.369   6.116   7.510  0.2797 -0.0734  0.3252
   77CHL1  H12B 8137   2.537   6.138   7.453  0.7308 -1.3274 -0.8574
   77CHL1   C11 8138   2.405   6.033   7.314 -0.7401  0.3394 -0.0739
   77CHL1  H11A 8139   2.317   5.967   7.327 -0.5733  0.2994  0.8978
   77CHL1  H11B 8140   2.367   6.128   7.271 -1.7067  0.1132  0.2691
   77CHL1    C9 8141   2.515   5.968   7.225  0.4598 -0.2034 -0.3658
   77CHL1    H9 8142   2.596   6.042   7.213  1.8367 -1.3197  1.7339
   77CHL1   C10 8143   2.464   5.943   7.081  0.7578  0.0512 -0.2158
   77CHL1   C19 8144   2.331   5.863   7.092 -0.2231  0.2616 -0.1166
   77CHL1  H19A 8145   2.341   5.776   7.160  2.2154  0.9515  0.4628
   77CHL1  H19B 8146   2.248   5.932   7.116 -3.1504 -2.8377 -1.0429
   77CHL1  H19C 8147   2.316   5.812   6.994  0.2139 -0.5437  0.2329
   77CHL1    C1 8148   2.441   6.076   7.000 -0.3602  0.8876 -0.0540
   77CHL1   H1A 8149   2.360   6.134   7.049  0.8528  2.5054  0.0885
   77CHL1   H1B 8150   2.533   6.139   7.000 -0.6156  1.2932  1.6372
   77CHL1    C2 8151   2.401   6.043   6.847  0.6170 -0.3929 -0.0186
   77CHL1   H2A 8152   2.374   6.142   6.804  3.4439  0.2117 -0.5191
   77CHL1   H2B 8153   2.321   5.967   6.833  1.0147 -0.8139 -0.0300
   77CHL1   C20 8154   2.530   5.986   7.782  0.2293  0.0966 -0.2840
   77CHL1   H20 8155   2.464   5.899   7.801 -0.6957  0.2046 -2.7740
   77CHL1   C21 8156   2.453   6.113   7.790  0.3641 -0.4950 -0.0260
   77CHL1  H21A 8157   2.366   6.104   7.721  0.2772 -0.6202  0.1003
   77CHL1  H21B 8158   2.508   6.208   7.770  0.0497 -0.8699 -2.8737
   77CHL1  H21C 8159   2.409   6.118   7.892 -2.6332  2.9033 -1.3722
   77CHL1   C22 8160   2.629   6.000   7.898 -0.9678  0.0021 -0.3362
   77CHL1  H22A 8161   2.578   6.004   7.997  0.4529 -1.3624  0.4653
   77CHL1  H22B 8162   2.688   5.907   7.905  0.2479  0.8887  1.7330
   77CHL1   C23 8163   2.724   6.120   7.902  0.2935 -1.1463 -0.0110
   77CHL1  H23A 8164   2.774   6.133   7.804  0.7606  3.2591  0.6876
   77CHL1  H23B 8165   2.690   6.225   7.913  0.3188 -1.1383 -0.0022
   77CHL1   C24 8166   2.825   6.095   8.014  0.9289 -0.1137 -0.4085
   77CHL1  H24A 8167   2.768   6.044   8.095  0.3095  0.0174 -0.7581
   77CHL1  H24B 8168   2.892   6.014   7.978 -0.4465 -1.4754  0.0545
   77CHL1   C25 8169   2.915   6.210   8.062 -0.1047 -0.0947 -0.5930
   77CHL1   H25 8170   2.964   6.259   7.975  1.6960 -1.2275 -0.2549
   77CHL1   C26 8171   2.834   6.319   8.139  0.5307  0.2390  0.2113
   77CHL1  H26A 8172   2.809   6.267   8.235  1.2473  0.3522  0.4574
   77CHL1  H26B 8173   2.905   6.398   8.169  0.5401  1.2321 -2.2914
   77CHL1  H26C 8174   2.749   6.352   8.076  1.6935  0.5608 -1.2067
   77CHL1   C27 8175   3.032   6.159   8.151 -0.4864 -0.3160  0.1921
   77CHL1  H27A 8176   3.100   6.094   8.091  1.2182  0.5199  1.1690
   77CHL1  H27B 8177   3.085   6.248   8.191 -0.8413 -0.6508  1.4066
   77CHL1  H27C 8178   2.999   6.091   8.232  2.0386 -0.6569  0.9837
   78CHL1    C3 8179   4.748   0.678   6.605  0.6455 -0.6482 -0.5932
   78CHL1    H3 8180   4.788   0.575   6.616 -0.2355 -0.9256  0.1521
   78CHL1    O3 8181   4.699   0.690   6.478  0.2954  0.8930  0.0007
   78CHL1   H3' 8182   4.633   0.760   6.488  0.4585  1.0263  0.1536
   78CHL1    C4 8183   4.621   0.676   6.704 -0.0081 -0.1377  0.8732
   78CHL1   H4A 8184   4.576   0.778   6.698 -3.7307 -1.6186  2.5529
   78CHL1   H4B 8185   4.539   0.609   6.671 -0.4013  0.3097  0.9378
   78CHL1    C5 8186   4.674   0.658   6.848  0.0349  0.2030 -0.1169
   78CHL1    C6 8187   4.627   0.549   6.914 -0.0551 -0.3122  0.5281
   78CHL1    H6 8188   4.546   0.487   6.871  0.3118 -2.4928  2.8671
   78CHL1    C7 8189   4.667   0.518   7.053 -0.9316 -0.5455  0.0854
   78CHL1   H7A 8190   4.572   0.492   7.105  0.4230 -0.6777  2.6084
   78CHL1   H7B 8191   4.731   0.427   7.050  1.0386  0.7776  1.1519
   78CHL1    C8 8192   4.749   0.631   7.124 -0.0989  0.3030 -0.1650
   78CHL1    H8 8193   4.683   0.712   7.161 -0.8773 -0.2714 -0.2737
   78CHL1   C14 8194   4.816   0.569   7.243 -0.4569  0.1857 -0.0404
   78CHL1   H14 8195   4.889   0.501   7.194  0.4774  0.5296  0.8620
   78CHL1   C15 8196   4.727   0.489   7.343  0.5762 -0.0975 -0.1792
   78CHL1  H15A 8197   4.636   0.537   7.384  1.2361 -0.1485  1.3897
   78CHL1  H15B 8198   4.702   0.388   7.305 -0.6864  0.7897 -1.7560
   78CHL1   C16 8199   4.804   0.483   7.478  0.0839  0.6457  0.3850
   78CHL1  H16A 8200   4.742   0.535   7.554 -0.1620 -1.4740  1.6708
   78CHL1  H16B 8201   4.840   0.383   7.509 -2.1483  0.1769  1.6174
   78CHL1   C17 8202   4.939   0.567   7.447  0.2297  0.2674 -0.0157
   78CHL1   H17 8203   5.012   0.493   7.407  1.8679  0.0398  3.2466
   78CHL1   C13 8204   4.899   0.661   7.327 -0.1643 -0.6209 -0.4154
   78CHL1   C18 8205   4.817   0.772   7.385  0.2046  0.7434  0.0282
   78CHL1  H18A 8206   4.885   0.835   7.447 -1.6754  4.9213 -1.9721
   78CHL1  H18B 8207   4.787   0.838   7.301 -0.5398 -0.3670 -0.5816
   78CHL1  H18C 8208   4.728   0.747   7.446 -0.0148  0.7855 -0.2727
   78CHL1   C12 8209   5.018   0.711   7.230 -0.2083 -0.1101  0.4801
   78CHL1  H12A 8210   5.096   0.777   7.274  1.2849 -0.3551 -1.6933
   78CHL1  H12B 8211   5.081   0.632   7.184 -1.7531 -0.9891 -0.1447
   78CHL1   C11 8212   4.961   0.782   7.100 -0.4176  0.2269  0.2524
   78CHL1  H11A 8213   4.911   0.878   7.124  1.8192  1.6308 -0.4867
   78CHL1  H11B 8214   5.049   0.808   7.037 -0.8214 -1.0236 -0.8406
   78CHL1    C9 8215   4.853   0.689   7.027 -0.3820  0.3714  0.3816
   78CHL1    H9 8216   4.919   0.605   6.995  0.2678  1.2483 -0.5810
   78CHL1   C10 8217   4.786   0.750   6.905 -0.2859 -0.7517 -0.1110
   78CHL1   C19 8218   4.723   0.880   6.942 -0.5104  0.2649 -0.4253
   78CHL1  H19A 8219   4.792   0.955   6.986 -0.2809 -0.0126 -0.3103
   78CHL1  H19B 8220   4.703   0.943   6.852  1.9966  2.4743  0.4699
   78CHL1  H19C 8221   4.635   0.859   7.006  0.1081 -3.3647 -0.6476
   78CHL1    C1 8222   4.894   0.770   6.787  0.2576  0.0875 -0.0887
   78CHL1   H1A 8223   4.965   0.849   6.817  0.7736 -0.4338  0.0840
   78CHL1   H1B 8224   4.954   0.676   6.784  0.3339  0.1913 -1.9053
   78CHL1    C2 8225   4.846   0.796   6.646  0.7177 -0.0906 -0.0370
   78CHL1   H2A 8226   4.939   0.802   6.587  2.0314 -1.5798  1.8173
   78CHL1   H2B 8227   4.783   0.888   6.637 -0.1414 -0.8668 -2.2784
   78CHL1   C20 8228   5.008   0.627   7.571  0.2343  0.0136  0.2896
   78CHL1   H20 8229   4.934   0.697   7.616 -0.5602 -1.0416  0.6497
   78CHL1   C21 8230   5.136   0.701   7.533 -0.1045  0.2086  0.8333
   78CHL1  H21A 8231   5.107   0.800   7.492  0.7041 -0.2600 -0.9112
   78CHL1  H21B 8232   5.189   0.645   7.453 -1.0459  3.1110 -1.9401
   78CHL1  H21C 8233   5.212   0.719   7.612  0.0615  1.2633  0.4353
   78CHL1   C22 8234   5.042   0.531   7.689 -0.3167 -0.1943  0.4930
   78CHL1  H22A 8235   4.969   0.450   7.710  0.8942 -1.3628  0.2754
   78CHL1  H22B 8236   5.136   0.477   7.663  1.1717  3.8467 -3.1906
   78CHL1   C23 8237   5.076   0.605   7.826 -0.1764 -0.4603  0.2069
   78CHL1  H23A 8238   5.167   0.669   7.819  0.6923 -1.6260  0.6219
   78CHL1  H23B 8239   4.984   0.666   7.838 -0.4661 -1.2621  2.2221
   78CHL1   C24 8240   5.086   0.507   7.938 -0.0402 -0.1886 -0.6547
   78CHL1  H24A 8241   4.985   0.477   7.974  0.7577 -2.1297  0.0658
   78CHL1  H24B 8242   5.140   0.415   7.904 -1.5881 -1.6649  0.7802
   78CHL1   C25 8243   5.163   0.563   8.063 -0.1903 -0.7198  0.4783
   78CHL1   H25 8244   5.270   0.579   8.037 -0.2057 -0.9537  0.2647
   78CHL1   C26 8245   5.124   0.709   8.100  0.7254 -0.1718 -0.0806
   78CHL1  H26A 8246   5.026   0.696   8.149 -0.0304 -0.6201 -1.6853
   78CHL1  H26B 8247   5.203   0.746   8.168 -0.2763 -0.3844  1.2088
   78CHL1  H26C 8248   5.113   0.779   8.014 -0.1051 -0.7640 -0.4631
   78CHL1   C27 8249   5.148   0.454   8.174 -0.1071  0.0109  0.2645
   78CHL1  H27A 8250   5.040   0.445   8.198  0.0378 -0.4927  0.7532
   78CHL1  H27B 8251   5.189   0.355   8.143 -1.3198 -0.3246 -0.3037
   78CHL1  H27C 8252   5.204   0.506   8.254 -1.7878  1.9478  0.2304
   79CHL1    C3 8253   2.918   0.600   7.169  0.3228 -0.1518  0.2113
   79CHL1    H3 8254   3.027   0.585   7.151  0.0003 -3.0417  0.4175
   79CHL1    O3 8255   2.853   0.601   7.046  0.0205 -0.6710  0.7531
   79CHL1   H3' 8256   2.876   0.519   7.001  1.2204 -0.6534  1.3038
   79CHL1    C4 8257   2.864   0.480   7.258 -0.1898 -0.3757 -0.0376
   79CHL1   H4A 8258   2.754   0.495   7.247  0.1160  2.5676  0.3571
   79CHL1   H4B 8259   2.898   0.385   7.211 -0.6320  0.0849 -1.3174
   79CHL1    C5 8260   2.899   0.483   7.406  0.5859 -0.0559 -0.2206
   79CHL1    C6 8261   2.949   0.367   7.462 -0.2834 -0.2771 -0.1289
   79CHL1    H6 8262   2.952   0.275   7.403 -0.3713 -2.1433  2.6847
   79CHL1    C7 8263   3.005   0.365   7.606  0.3998 -0.6283 -0.1309
   79CHL1   H7A 8264   2.949   0.277   7.647  1.1388  0.1224  2.5972
   79CHL1   H7B 8265   3.115   0.350   7.612  0.3735 -0.7967 -0.0458
   79CHL1    C8 8266   2.965   0.485   7.691  0.8242 -0.4242 -0.2051
   79CHL1    H8 8267   2.861   0.469   7.727  0.1383  1.5064 -1.2918
   79CHL1   C14 8268   3.056   0.491   7.817  0.0852 -0.5264 -0.6019
   79CHL1   H14 8269   3.162   0.496   7.785  0.4520 -0.4332  0.5918
   79CHL1   C15 8270   3.061   0.373   7.915  0.3405 -0.3363  0.4822
   79CHL1  H15A 8271   2.957   0.339   7.935 -1.3251  2.8521 -2.3017
   79CHL1  H15B 8272   3.122   0.290   7.875  1.9942  0.0328  2.1871
   79CHL1   C16 8273   3.133   0.436   8.039 -0.3019  0.2842  1.1109
   79CHL1  H16A 8274   3.080   0.401   8.130 -0.4677 -1.4630  0.3762
   79CHL1  H16B 8275   3.236   0.394   8.042 -0.4112 -0.1641 -0.6638
   79CHL1   C17 8276   3.144   0.590   8.013 -0.1640  1.3999  0.6117
   79CHL1   H17 8277   3.243   0.620   7.974  0.5750 -1.8333 -0.1337
   79CHL1   C13 8278   3.029   0.618   7.908  0.4830 -0.1054 -0.7389
   79CHL1   C18 8279   2.881   0.617   7.977 -0.5671 -0.1237 -0.3732
   79CHL1  H18A 8280   2.859   0.694   8.054  0.8362 -0.0917  0.0242
   79CHL1  H18B 8281   2.804   0.632   7.899 -0.2087  4.4600  0.0446
   79CHL1  H18C 8282   2.879   0.518   8.027  0.3782 -0.4936 -1.0522
   79CHL1   C12 8283   3.044   0.744   7.822  0.3268  0.0101  0.4349
   79CHL1  H12A 8284   3.011   0.841   7.865 -1.0944  0.5148 -1.7232
   79CHL1  H12B 8285   3.145   0.755   7.777 -0.3841 -1.1352 -1.5078
   79CHL1   C11 8286   2.955   0.742   7.701 -0.0306 -0.5415  0.3945
   79CHL1  H11A 8287   2.849   0.762   7.729 -0.6229 -0.5354 -1.7124
   79CHL1  H11B 8288   2.985   0.832   7.643 -1.5606  0.3416  0.9455
   79CHL1    C9 8289   2.971   0.616   7.614 -0.6689  0.3283  0.6951
   79CHL1    H9 8290   3.078   0.610   7.588 -1.1775  1.1397 -1.6644
   79CHL1   C10 8291   2.895   0.617   7.480  0.0124  0.1409  0.8636
   79CHL1   C19 8292   2.738   0.623   7.500 -0.6053 -0.1423  0.4462
   79CHL1  H19A 8293   2.722   0.690   7.587 -0.4205  0.2644  0.1739
   79CHL1  H19B 8294   2.695   0.671   7.409  2.6954  0.4186 -0.9005
   79CHL1  H19C 8295   2.693   0.524   7.524  0.2136 -0.0355  2.4910
   79CHL1    C1 8296   2.944   0.731   7.389  0.8783  0.0082 -0.1201
   79CHL1   H1A 8297   2.906   0.826   7.433  0.2094 -0.6769  0.8134
   79CHL1   H1B 8298   3.054   0.738   7.395  0.7620  2.0632 -0.0559
   79CHL1    C2 8299   2.882   0.730   7.248 -0.5333 -0.0780 -1.1232
   79CHL1   H2A 8300   2.915   0.823   7.198  0.6479  0.5720  0.8156
   79CHL1   H2B 8301   2.772   0.742   7.248 -0.6540 -0.9317  0.8830
   79CHL1   C20 8302   3.128   0.671   8.145 -0.1614 -0.4246 -0.1919
   79CHL1   H20 8303   3.034   0.642   8.196  0.7908  0.6325  2.2627
   79CHL1   C21 8304   3.124   0.824   8.122  0.0418  0.5200  0.3583
   79CHL1  H21A 8305   3.026   0.855   8.080  1.0454  2.1396 -0.8354
   79CHL1  H21B 8306   3.213   0.861   8.067 -1.3133  3.4137  0.0525
   79CHL1  H21C 8307   3.128   0.877   8.219  1.1832  1.9689 -0.4768
   79CHL1   C22 8308   3.241   0.639   8.254 -0.0268  0.6902 -0.2863
   79CHL1  H22A 8309   3.228   0.692   8.351  3.1967 -0.5877  0.9234
   79CHL1  H22B 8310   3.239   0.529   8.266 -0.0460  0.7665  0.4335
   79CHL1   C23 8311   3.379   0.664   8.203 -1.0136 -0.2147 -0.4352
   79CHL1  H23A 8312   3.409   0.606   8.114  0.3884 -0.4233  0.1514
   79CHL1  H23B 8313   3.396   0.764   8.156  3.3066 -0.5685  0.1391
   79CHL1   C24 8314   3.492   0.641   8.298  0.3064  0.1807 -0.0423
   79CHL1  H24A 8315   3.468   0.538   8.332 -1.8918  0.3083 -1.1458
   79CHL1  H24B 8316   3.593   0.650   8.253  0.7839  0.3467  1.0249
   79CHL1   C25 8317   3.490   0.734   8.420 -0.5056 -0.4161 -0.5581
   79CHL1   H25 8318   3.391   0.719   8.469 -0.2882  1.4372  0.4863
   79CHL1   C26 8319   3.602   0.681   8.517  0.0802 -0.5400  0.3657
   79CHL1  H26A 8320   3.699   0.673   8.464 -1.2816  1.5471 -2.5623
   79CHL1  H26B 8321   3.607   0.734   8.615  0.1969  1.6177 -0.7859
   79CHL1  H26C 8322   3.577   0.578   8.551 -0.5829 -0.4040  0.2978
   79CHL1   C27 8323   3.509   0.881   8.401 -0.4490 -0.4894 -0.7919
   79CHL1  H27A 8324   3.593   0.899   8.329  1.0645 -1.0233  0.8169
   79CHL1  H27B 8325   3.413   0.920   8.362  0.2144  0.3379 -1.6453
   79CHL1  H27C 8326   3.538   0.934   8.494 -1.0109  0.2676 -1.0368
   80CHL1    C3 8327   1.747   4.509   7.101  0.1038  0.2417 -0.3296
   80CHL1    H3 8328   1.690   4.417   7.076 -2.3368  2.0305 -1.4746
   80CHL1    O3 8329   1.767   4.576   6.980  0.6941 -0.7168  0.1112
   80CHL1   H3' 8330   1.861   4.588   6.961  0.1706  1.7232 -1.1476
   80CHL1    C4 8331   1.669   4.597   7.195  0.8554 -0.2910  0.0222
   80CHL1   H4A 8332   1.721   4.695   7.194 -0.0910  0.2748  2.2066
   80CHL1   H4B 8333   1.575   4.625   7.143  0.9661  1.4526  0.7438
   80CHL1    C5 8334   1.666   4.561   7.344  0.8149 -0.2314  0.1677
   80CHL1    C6 8335   1.552   4.556   7.413  0.3462  0.0636  0.2700
   80CHL1    H6 8336   1.458   4.592   7.368  0.0300 -0.0831  0.8096
   80CHL1    C7 8337   1.546   4.505   7.556 -0.4122 -0.3858  0.6627
   80CHL1   H7A 8338   1.480   4.568   7.619  1.4550  2.5628 -0.2546
   80CHL1   H7B 8339   1.504   4.403   7.547 -0.4521 -0.3727  0.6985
   80CHL1    C8 8340   1.688   4.486   7.623  0.2301  0.4690 -0.1283
   80CHL1    H8 8341   1.712   4.589   7.659 -2.5888  1.5857 -1.3137
   80CHL1   C14 8342   1.674   4.399   7.753  1.2009 -0.2410  0.8803
   80CHL1   H14 8343   1.661   4.298   7.709  1.7834  0.8983 -2.0752
   80CHL1   C15 8344   1.556   4.423   7.849 -0.5727  0.0592  0.0089
   80CHL1  H15A 8345   1.529   4.530   7.854  1.4072  0.6361 -1.0729
   80CHL1  H15B 8346   1.465   4.367   7.816 -0.8404  1.2779 -1.3657
   80CHL1   C16 8347   1.605   4.380   7.987 -0.2641  0.0692 -0.6637
   80CHL1  H16A 8348   1.619   4.467   8.055  1.6640 -0.7905  0.0928
   80CHL1  H16B 8349   1.537   4.305   8.031 -0.2108  0.8433  0.7637
   80CHL1   C17 8350   1.748   4.324   7.964 -0.0182 -0.2611  0.9159
   80CHL1   H17 8351   1.730   4.217   7.937 -1.1782  0.8927 -3.2164
   80CHL1   C13 8352   1.799   4.401   7.839  0.6664  0.0583  0.3259
   80CHL1   C18 8353   1.837   4.550   7.873  0.6933 -0.6954  0.3756
   80CHL1  H18A 8354   1.928   4.554   7.937  2.3293 -1.5800 -1.8318
   80CHL1  H18B 8355   1.857   4.616   7.786  0.0529 -2.2567 -0.9688
   80CHL1  H18C 8356   1.748   4.582   7.932  1.3106  0.3007  0.7890
   80CHL1   C12 8357   1.912   4.337   7.754  0.3855 -0.0479 -0.1140
   80CHL1  H12A 8358   2.010   4.349   7.804  0.2626  0.2296  0.0624
   80CHL1  H12B 8359   1.904   4.226   7.745  2.1862 -0.1862 -0.0437
   80CHL1   C11 8360   1.926   4.399   7.621  0.2408  0.0026  0.0370
   80CHL1  H11A 8361   1.969   4.500   7.633 -0.3289  0.3616 -0.8834
   80CHL1  H11B 8362   2.002   4.336   7.569  0.6871  2.2040 -2.0532
   80CHL1    C9 8363   1.796   4.428   7.532  0.2200  0.0079  0.6432
   80CHL1    H9 8364   1.772   4.326   7.494  1.8887 -0.4457  0.7468
   80CHL1   C10 8365   1.803   4.510   7.398  0.6511  0.1500 -0.0717
   80CHL1   C19 8366   1.890   4.640   7.425  0.5943 -0.1419  0.6594
   80CHL1  H19A 8367   1.997   4.610   7.429  0.9351  1.0223  0.5721
   80CHL1  H19B 8368   1.873   4.710   7.340  1.9890  0.3313  0.7545
   80CHL1  H19C 8369   1.860   4.680   7.524 -2.4160 -0.0193 -0.2789
   80CHL1    C1 8370   1.868   4.414   7.290  0.5458  0.4678 -0.9031
   80CHL1   H1A 8371   1.973   4.397   7.322 -0.9203 -3.1375  2.4685
   80CHL1   H1B 8372   1.813   4.317   7.296  0.4910  0.6127  1.5790
   80CHL1    C2 8373   1.881   4.487   7.157  0.0725 -0.7567  0.0355
   80CHL1   H2A 8374   1.936   4.418   7.089 -0.4464 -2.6100  1.4614
   80CHL1   H2B 8375   1.944   4.577   7.169 -1.9078  0.4132  1.9254
   80CHL1   C20 8376   1.832   4.329   8.093 -0.3767  0.7996 -0.6415
   80CHL1   H20 8377   1.841   4.434   8.128  1.5099  0.1163  1.0188
   80CHL1   C21 8378   1.970   4.263   8.070  0.6999 -0.9338  0.2616
   80CHL1  H21A 8379   1.963   4.173   8.005  0.3157  0.7272 -2.0365
   80CHL1  H21B 8380   2.025   4.239   8.164 -2.0444 -2.3100  1.5623
   80CHL1  H21C 8381   2.032   4.338   8.016 -0.5808  0.1630  0.3104
   80CHL1   C22 8382   1.763   4.245   8.200  0.0598 -0.1683  0.0754
   80CHL1  H22A 8383   1.655   4.256   8.222  0.6744  1.1890  2.6102
   80CHL1  H22B 8384   1.781   4.142   8.161  0.0750  0.0126 -0.3964
   80CHL1   C23 8385   1.820   4.255   8.345 -0.0798 -0.6037 -0.2074
   80CHL1  H23A 8386   1.788   4.161   8.393  1.1862 -1.7353 -1.5527
   80CHL1  H23B 8387   1.930   4.237   8.346 -0.0487 -0.3901  0.9424
   80CHL1   C24 8388   1.780   4.388   8.413  0.9219  0.2646 -0.6521
   80CHL1  H24A 8389   1.797   4.475   8.346 -1.0687 -0.3270 -1.9402
   80CHL1  H24B 8390   1.672   4.399   8.435  1.2659  0.4824  0.9825
   80CHL1   C25 8391   1.872   4.414   8.536 -0.8737  0.3710 -0.2757
   80CHL1   H25 8392   1.970   4.435   8.488  0.1253  1.9057  2.3458
   80CHL1   C26 8393   1.825   4.536   8.614 -0.1961  0.7038  0.1253
   80CHL1  H26A 8394   1.772   4.506   8.707  1.8960 -0.2446  1.0380
   80CHL1  H26B 8395   1.912   4.597   8.649 -0.7263  0.6386  1.5665
   80CHL1  H26C 8396   1.748   4.592   8.558  1.4075  1.3448 -1.5020
   80CHL1   C27 8397   1.880   4.286   8.619 -0.7317  0.0124 -0.1995
   80CHL1  H27A 8398   1.774   4.263   8.641 -1.0051  1.0791 -0.3724
   80CHL1  H27B 8399   1.933   4.196   8.581 -1.8650  0.2759 -2.5291
   80CHL1  H27C 8400   1.933   4.308   8.713  2.2618  1.3779 -2.1253
   81CHL1    C3 8401   6.666   4.149   7.054 -0.1776  0.2808 -0.3942
   81CHL1    H3 8402   6.582   4.077   7.065  0.4596 -0.3227  0.6190
   81CHL1    O3 8403   6.694   4.159   6.916  0.1870 -0.5537 -0.7274
   81CHL1   H3' 8404   6.615   4.179   6.865  0.2780 -1.7317 -1.3502
   81CHL1    C4 8405   6.623   4.282   7.118 -0.1540  0.4035  0.4297
   81CHL1   H4A 8406   6.701   4.360   7.105 -1.0526  0.9827 -1.8210
   81CHL1   H4B 8407   6.530   4.316   7.067 -0.4496  1.4185  1.6318
   81CHL1    C5 8408   6.604   4.259   7.267  0.4273  0.0718  0.3973
   81CHL1    C6 8409   6.486   4.299   7.317 -0.1418 -0.0753 -1.0206
   81CHL1    H6 8410   6.410   4.351   7.256 -2.9527 -1.8693  0.7902
   81CHL1    C7 8411   6.452   4.294   7.466 -0.4880  0.3873  0.5112
   81CHL1   H7A 8412   6.413   4.393   7.497  0.2468  1.0414 -0.6099
   81CHL1   H7B 8413   6.376   4.216   7.485 -1.2248  0.8659 -0.3762
   81CHL1    C8 8414   6.577   4.259   7.552  0.1333 -0.1883  0.6083
   81CHL1    H8 8415   6.632   4.356   7.554 -0.9534  0.4345  0.4469
   81CHL1   C14 8416   6.549   4.200   7.687  0.1482  0.3536 -0.2911
   81CHL1   H14 8417   6.519   4.095   7.671  0.5756  0.1860 -0.0018
   81CHL1   C15 8418   6.450   4.269   7.773  0.5730  0.2331 -0.2082
   81CHL1  H15A 8419   6.447   4.378   7.750 -2.1412  0.3536  0.4837
   81CHL1  H15B 8420   6.350   4.225   7.752  1.1450 -1.2358  0.0894
   81CHL1   C16 8421   6.485   4.241   7.921  0.7524  0.9269  0.0285
   81CHL1  H16A 8422   6.521   4.331   7.974 -1.5992  0.4311  2.5869
   81CHL1  H16B 8423   6.398   4.199   7.975 -0.1360 -0.9940 -2.7856
   81CHL1   C17 8424   6.593   4.133   7.915  0.5620  0.6941  0.1652
   81CHL1   H17 8425   6.537   4.040   7.892  1.9712  0.1804 -1.2879
   81CHL1   C13 8426   6.666   4.174   7.785 -0.2667 -0.6450 -0.0195
   81CHL1   C18 8427   6.751   4.305   7.801 -0.6841  0.3119  0.2268
   81CHL1  H18A 8428   6.681   4.386   7.834 -1.8983 -0.3194 -0.7544
   81CHL1  H18B 8429   6.831   4.288   7.876  0.2333 -0.5141 -0.9196
   81CHL1  H18C 8430   6.797   4.332   7.703  0.5067  1.5161  1.0950
   81CHL1   C12 8431   6.749   4.062   7.714 -0.0465 -0.3913  0.3268
   81CHL1  H12A 8432   6.843   4.052   7.773  0.5575  1.0291 -0.4015
   81CHL1  H12B 8433   6.702   3.961   7.716 -0.8870  0.0009  3.3977
   81CHL1   C11 8434   6.786   4.102   7.570 -0.0146  0.0324 -0.3645
   81CHL1  H11A 8435   6.860   4.185   7.574 -2.0307  1.9518 -1.6632
   81CHL1  H11B 8436   6.840   4.023   7.514  1.0260 -0.3203  1.1157
   81CHL1    C9 8437   6.671   4.155   7.481 -0.2705 -0.1792  0.1977
   81CHL1    H9 8438   6.599   4.073   7.462  0.7667 -0.7626 -1.2522
   81CHL1   C10 8439   6.716   4.197   7.340  0.2261  0.0041 -0.1466
   81CHL1   C19 8440   6.833   4.292   7.350  0.1474  0.4909  0.0365
   81CHL1  H19A 8441   6.927   4.245   7.386 -0.0030  1.2307  1.4169
   81CHL1  H19B 8442   6.856   4.329   7.249 -0.5434  0.4102 -0.1570
   81CHL1  H19C 8443   6.816   4.376   7.421  1.6458  0.8181  0.0192
   81CHL1    C1 8444   6.771   4.071   7.270 -0.5065 -0.0427 -0.3230
   81CHL1   H1A 8445   6.869   4.055   7.322  0.9678  0.8218 -2.7686
   81CHL1   H1B 8446   6.706   3.982   7.283 -0.3489 -0.1172 -0.0223
   81CHL1    C2 8447   6.796   4.090   7.121 -0.0460 -0.2543 -0.3300
   81CHL1   H2A 8448   6.818   3.991   7.074 -1.3259 -0.0381 -1.4226
   81CHL1   H2B 8449   6.882   4.158   7.104 -0.3159 -0.7590 -4.1369
   81CHL1   C20 8450   6.670   4.122   8.053 -0.5273 -0.1171  0.1313
   81CHL1   H20 8451   6.720   4.218   8.077  2.6183 -1.1065 -2.0920
   81CHL1   C21 8452   6.772   4.014   8.035 -0.6446 -0.1284 -0.3290
   81CHL1  H21A 8453   6.815   3.981   8.132  0.1641  0.3646 -0.5148
   81CHL1  H21B 8454   6.855   4.056   7.975 -2.1512 -0.0379 -2.4391
   81CHL1  H21C 8455   6.734   3.921   7.988  0.1621 -0.7444  0.2350
   81CHL1   C22 8456   6.577   4.091   8.170 -0.5582 -0.1875  0.3925
   81CHL1  H22A 8457   6.626   4.093   8.269 -0.2155 -1.7714  0.2666
   81CHL1  H22B 8458   6.504   4.173   8.188 -0.8795 -0.3319 -0.2296
   81CHL1   C23 8459   6.478   3.972   8.159  0.0281  0.5556  0.1984
   81CHL1  H23A 8460   6.424   3.989   8.064  2.0542  1.1892 -0.8852
   81CHL1  H23B 8461   6.538   3.878   8.159 -3.4434 -1.7367 -0.6247
   81CHL1   C24 8462   6.375   3.957   8.268 -0.3200 -0.6874  0.2565
   81CHL1  H24A 8463   6.337   4.060   8.282  1.2166 -0.2871  1.7296
   81CHL1  H24B 8464   6.294   3.887   8.240 -0.0128 -0.5558 -0.9692
   81CHL1   C25 8465   6.430   3.929   8.411 -0.3852 -0.5478  0.9881
   81CHL1   H25 8466   6.525   3.986   8.419 -0.5180 -0.2635  0.5020
   81CHL1   C26 8467   6.327   3.972   8.524 -0.0087  0.1712  0.5204
   81CHL1  H26A 8468   6.230   3.917   8.519  0.4780 -0.5458 -2.0035
   81CHL1  H26B 8469   6.378   3.959   8.622  0.3718 -2.1425  0.0581
   81CHL1  H26C 8470   6.309   4.081   8.514  0.4148  0.0602 -1.8034
   81CHL1   C27 8471   6.475   3.784   8.426 -0.7638 -0.0704 -0.0258
   81CHL1  H27A 8472   6.565   3.768   8.363 -0.4361 -0.8605  0.6355
   81CHL1  H27B 8473   6.495   3.766   8.533  0.1820 -0.5966 -0.2880
   81CHL1  H27C 8474   6.392   3.716   8.394  0.7807 -1.9307 -0.1577
   82CHL1    C3 8475   0.747   5.354   6.983 -0.4548 -0.8705  0.1508
   82CHL1    H3 8476   0.838   5.418   6.977 -1.3505  0.6020  1.8959
   82CHL1    O3 8477   0.714   5.297   6.860  0.2171 -0.3425  0.0542
   82CHL1   H3' 8478   0.652   5.360   6.823 -0.8102 -0.7929  0.9786
   82CHL1    C4 8479   0.775   5.230   7.069 -1.0827 -0.9919  0.3356
   82CHL1   H4A 8480   0.686   5.166   7.053 -2.0043  0.6214 -1.1883
   82CHL1   H4B 8481   0.864   5.184   7.020 -0.0078 -0.4987  1.7804
   82CHL1    C5 8482   0.809   5.269   7.209 -0.5632 -0.2235 -0.1657
   82CHL1    C6 8483   0.928   5.260   7.275 -0.1622  0.0294 -0.1761
   82CHL1    H6 8484   1.015   5.220   7.221 -1.0867 -0.6182 -1.2118
   82CHL1    C7 8485   0.942   5.309   7.412  0.0833  0.4523  0.1568
   82CHL1   H7A 8486   1.015   5.235   7.452 -0.6481 -0.5448 -0.3205
   82CHL1   H7B 8487   0.980   5.413   7.412 -1.2387  0.9489 -0.4502
   82CHL1    C8 8488   0.811   5.307   7.502  0.2181 -0.3168  0.2453
   82CHL1    H8 8489   0.773   5.203   7.512  0.1344 -0.2369  0.7846
   82CHL1   C14 8490   0.833   5.374   7.638  0.5805  0.5730  0.0821
   82CHL1   H14 8491   0.863   5.478   7.612 -0.7624  0.4508 -2.0461
   82CHL1   C15 8492   0.953   5.331   7.725  0.0943  0.3495  1.0258
   82CHL1  H15A 8493   0.966   5.222   7.737  2.8290  0.2490 -2.1584
   82CHL1  H15B 8494   1.048   5.360   7.674  0.4291 -1.5910  0.5074
   82CHL1   C16 8495   0.910   5.392   7.861  0.2028 -0.8978 -0.3103
   82CHL1  H16A 8496   0.893   5.316   7.940  1.7071  1.4349  2.3410
   82CHL1  H16B 8497   0.996   5.453   7.897  2.0734 -3.4724 -0.2638
   82CHL1   C17 8498   0.778   5.479   7.842 -0.2783  0.0040  0.1502
   82CHL1   H17 8499   0.818   5.572   7.797  1.8707 -1.2143 -0.5088
   82CHL1   C13 8500   0.711   5.389   7.729 -0.1553  0.1065 -0.1957
   82CHL1   C18 8501   0.666   5.253   7.781 -0.9533 -0.2662  0.2133
   82CHL1  H18A 8502   0.574   5.274   7.839 -0.8249 -1.1550  0.7343
   82CHL1  H18B 8503   0.633   5.188   7.697 -1.1290  0.5892 -0.4006
   82CHL1  H18C 8504   0.734   5.192   7.843 -3.0333 -1.0231  1.7963
   82CHL1   C12 8505   0.597   5.465   7.654 -0.3586 -0.1782  0.2640
   82CHL1  H12A 8506   0.497   5.462   7.703 -0.1633 -0.1203  0.6759
   82CHL1  H12B 8507   0.632   5.570   7.646 -1.2502  0.0324 -1.0245
   82CHL1   C11 8508   0.573   5.414   7.508  0.4452  0.6436  0.1261
   82CHL1  H11A 8509   0.516   5.320   7.528 -0.7427  1.1753 -0.6901
   82CHL1  H11B 8510   0.507   5.487   7.457 -0.6824 -1.2899 -1.2401
   82CHL1    C9 8511   0.703   5.387   7.425 -0.6530  0.0008  0.3982
   82CHL1    H9 8512   0.757   5.484   7.416  1.4696 -1.0142  1.5972
   82CHL1   C10 8513   0.679   5.329   7.276 -0.0220 -0.0978 -0.0390
   82CHL1   C19 8514   0.561   5.226   7.289  0.6871 -0.3072 -0.1246
   82CHL1  H19A 8515   0.591   5.148   7.362  1.3905 -0.3588 -0.4625
   82CHL1  H19B 8516   0.465   5.275   7.316 -0.4106 -0.5329 -3.3484
   82CHL1  H19C 8517   0.535   5.182   7.190 -1.9066  2.9731 -0.9830
   82CHL1    C1 8518   0.626   5.452   7.189 -0.2308  0.4647  0.0092
   82CHL1   H1A 8519   0.522   5.481   7.213 -0.1042  1.2444 -0.3802
   82CHL1   H1B 8520   0.701   5.534   7.202 -1.9410  2.3462 -1.7126
   82CHL1    C2 8521   0.631   5.428   7.037  0.2463  0.2684 -0.4014
   82CHL1   H2A 8522   0.613   5.519   6.976 -1.3580  0.0277 -0.3117
   82CHL1   H2B 8523   0.543   5.363   7.022  0.3087  0.1717 -0.3469
   82CHL1   C20 8524   0.687   5.504   7.962 -0.1489  0.0769 -0.3521
   82CHL1   H20 8525   0.585   5.472   7.932  1.0214 -4.4184  0.1623
   82CHL1   C21 8526   0.670   5.660   7.972  0.1611  0.1085 -0.2715
   82CHL1  H21A 8527   0.605   5.691   8.056  3.2936 -0.4573  2.4693
   82CHL1  H21B 8528   0.634   5.701   7.875 -1.7221 -0.6548  0.0910
   82CHL1  H21C 8529   0.774   5.698   7.986  1.6702 -3.2172 -2.0206
   82CHL1   C22 8530   0.717   5.442   8.102  0.0028 -0.0230  0.6028
   82CHL1  H22A 8531   0.623   5.464   8.157 -1.3485  0.8884 -1.9457
   82CHL1  H22B 8532   0.728   5.332   8.103 -2.3591 -0.3504 -2.2741
   82CHL1   C23 8533   0.828   5.501   8.181 -1.0642  0.0317 -0.6947
   82CHL1  H23A 8534   0.919   5.482   8.119 -0.4962  3.3579 -0.9792
   82CHL1  H23B 8535   0.819   5.612   8.190 -0.2324  0.1684 -1.4031
   82CHL1   C24 8536   0.854   5.438   8.314 -0.1070  0.5908 -0.3565
   82CHL1  H24A 8537   0.751   5.419   8.353  0.3623 -2.8938 -0.6476
   82CHL1  H24B 8538   0.906   5.340   8.308 -0.8552  0.2595 -1.6351
   82CHL1   C25 8539   0.947   5.519   8.413  0.8500 -0.1223 -0.1816
   82CHL1   H25 8540   0.972   5.448   8.495 -0.1053  1.7050  1.7135
   82CHL1   C26 8541   1.080   5.571   8.353  0.3580 -0.3423 -0.0070
   82CHL1  H26A 8542   1.136   5.507   8.281  0.7061  1.2512 -1.1742
   82CHL1  H26B 8543   1.057   5.669   8.306  1.8954  0.5907  1.1372
   82CHL1  H26C 8544   1.154   5.602   8.430 -0.5213  1.7973  0.0342
   82CHL1   C27 8545   0.867   5.628   8.491  0.0005  0.9110  0.4529
   82CHL1  H27A 8546   0.849   5.709   8.417 -0.9863  0.5809  0.3247
   82CHL1  H27B 8547   0.773   5.573   8.513  0.8891 -0.2216  1.4865
   82CHL1  H27C 8548   0.916   5.658   8.586  2.0848 -1.2630  0.1107
   83CHL1    C3 8549   3.048   6.816   7.111  0.4441 -0.2334 -0.9107
   83CHL1    H3 8550   3.058   6.927   7.120  0.6987 -0.2804 -0.5861
   83CHL1    O3 8551   3.022   6.804   6.972 -0.4089 -0.2220  0.0688
   83CHL1   H3' 8552   2.943   6.853   6.947  0.2049 -0.6314 -2.8386
   83CHL1    C4 8553   3.180   6.749   7.161  0.2158  0.3433  0.5126
   83CHL1   H4A 8554   3.187   6.643   7.128  0.9220 -0.1033  2.0235
   83CHL1   H4B 8555   3.269   6.798   7.116 -0.4103  1.5081  0.5141
   83CHL1    C5 8556   3.208   6.759   7.306 -0.2745  0.5370 -0.8280
   83CHL1    C6 8557   3.329   6.801   7.353 -0.2593 -0.1354  0.5221
   83CHL1    H6 8558   3.407   6.807   7.276 -2.1516 -0.0430 -1.4062
   83CHL1    C7 8559   3.357   6.818   7.503 -0.0806 -0.3265  0.6140
   83CHL1   H7A 8560   3.451   6.767   7.531  0.9632  0.5001 -1.2666
   83CHL1   H7B 8561   3.365   6.926   7.526  1.1843 -0.3715  0.4052
   83CHL1    C8 8562   3.247   6.753   7.602 -0.0461 -0.3754  0.4148
   83CHL1    H8 8563   3.269   6.644   7.601 -0.2612 -0.4252  0.9056
   83CHL1   C14 8564   3.253   6.801   7.750 -0.4495 -0.0700 -0.2843
   83CHL1   H14 8565   3.239   6.910   7.733 -0.9808  0.0066  0.6134
   83CHL1   C15 8566   3.382   6.765   7.819  0.2182  0.6264 -0.9135
   83CHL1  H15A 8567   3.409   6.658   7.808  1.2601  0.8809 -0.8746
   83CHL1  H15B 8568   3.466   6.828   7.783  1.0402  0.7432  1.1617
   83CHL1   C16 8569   3.342   6.797   7.966 -0.2632  0.2222  0.2119
   83CHL1  H16A 8570   3.385   6.715   8.027  0.2388  0.7738  0.6005
   83CHL1  H16B 8571   3.397   6.885   8.005  0.7084 -0.2153 -0.1424
   83CHL1   C17 8572   3.190   6.800   7.979 -0.0986 -0.0806  0.4467
   83CHL1   H17 8573   3.163   6.907   7.991 -0.2387 -0.1138  0.4256
   83CHL1   C13 8574   3.143   6.743   7.848  0.0736 -0.0273  0.4639
   83CHL1   C18 8575   3.152   6.588   7.855 -0.0667 -0.3554 -0.3402
   83CHL1  H18A 8576   3.065   6.537   7.901 -0.9818  1.6353  0.1551
   83CHL1  H18B 8577   3.153   6.551   7.750 -0.3227 -3.7345  0.7879
   83CHL1  H18C 8578   3.248   6.551   7.896  0.0006  1.9210  1.6242
   83CHL1   C12 8579   3.012   6.790   7.789  0.1905 -0.0733  0.4382
   83CHL1  H12A 8580   2.928   6.757   7.853 -1.7799  1.6027 -1.1936
   83CHL1  H12B 8581   3.014   6.901   7.792  1.5995 -0.0961  0.5325
   83CHL1   C11 8582   2.985   6.748   7.644  0.1245 -0.7304  1.3613
   83CHL1  H11A 8583   2.953   6.642   7.648  1.7791 -1.2838  0.1191
   83CHL1  H11B 8584   2.896   6.802   7.605  1.3381 -1.3722 -2.4484
   83CHL1    C9 8585   3.104   6.779   7.549 -0.0584  0.1102  0.2023
   83CHL1    H9 8586   3.108   6.890   7.541 -1.5088  0.0087 -2.5347
   83CHL1   C10 8587   3.083   6.732   7.398 -0.0661 -0.8354 -0.2438
   83CHL1   C19 8588   3.075   6.574   7.406 -0.2097  0.0471 -0.0832
   83CHL1  H19A 8589   3.170   6.521   7.429 -1.9120 -2.4508  1.4405
   83CHL1  H19B 8590   2.995   6.540   7.476 -0.4946  0.2497 -0.3074
   83CHL1  H19C 8591   3.049   6.541   7.303  1.4139 -0.4225 -0.3495
   83CHL1    C1 8592   2.961   6.795   7.341  0.3978  0.3088 -0.3450
   83CHL1   H1A 8593   2.871   6.747   7.383  1.0885 -0.2198  0.5333
   83CHL1   H1B 8594   2.957   6.902   7.372 -1.6189 -0.2156  1.2684
   83CHL1    C2 8595   2.933   6.766   7.192 -0.4549  0.2126 -0.1544
   83CHL1   H2A 8596   2.840   6.821   7.164 -1.4702 -0.4092  1.9197
   83CHL1   H2B 8597   2.915   6.657   7.174  1.2623  0.2604 -2.3132
   83CHL1   C20 8598   3.133   6.737   8.107 -0.1150 -0.3375 -0.1820
   83CHL1   H20 8599   3.157   6.629   8.114 -0.6566 -0.4995 -0.7862
   83CHL1   C21 8600   2.981   6.753   8.100  0.1657 -0.6870 -0.0651
   83CHL1  H21A 8601   2.940   6.670   8.038 -1.7625 -1.3776  2.0360
   83CHL1  H21B 8602   2.949   6.852   8.061 -0.2168  0.1255  2.2346
   83CHL1  H21C 8603   2.943   6.746   8.205 -1.8711  1.1917 -0.6334
   83CHL1   C22 8604   3.192   6.821   8.225  0.0641 -0.0104 -0.1634
   83CHL1  H22A 8605   3.301   6.802   8.235 -0.0229  0.4367  1.9591
   83CHL1  H22B 8606   3.166   6.928   8.205 -1.1867 -0.4778 -1.1246
   83CHL1   C23 8607   3.136   6.792   8.365  0.0742 -0.3542 -0.0761
   83CHL1  H23A 8608   3.040   6.841   8.391 -0.0053 -1.9362  2.7831
   83CHL1  H23B 8609   3.118   6.682   8.373 -0.5628 -0.3313 -1.1097
   83CHL1   C24 8610   3.231   6.846   8.476 -0.2579  0.0744 -0.0720
   83CHL1  H24A 8611   3.241   6.955   8.462 -1.5104  0.4012  1.3540
   83CHL1  H24B 8612   3.187   6.823   8.576  2.1113 -0.5664  0.8545
   83CHL1   C25 8613   3.365   6.783   8.485 -0.8005 -0.0370  0.7447
   83CHL1   H25 8614   3.420   6.779   8.389  0.1739 -1.7797  1.3533
   83CHL1   C26 8615   3.447   6.868   8.587  0.7315 -0.0209  0.2196
   83CHL1  H26A 8616   3.377   6.892   8.670 -0.5266 -0.6889 -0.6196
   83CHL1  H26B 8617   3.526   6.800   8.626  1.5809  1.6095  1.4024
   83CHL1  H26C 8618   3.486   6.966   8.552  1.5046 -0.1838  0.6170
   83CHL1   C27 8619   3.346   6.630   8.531 -0.0753  0.1403 -0.1557
   83CHL1  H27A 8620   3.443   6.582   8.505 -0.3108 -1.5049  1.8767
   83CHL1  H27B 8621   3.338   6.631   8.642  0.6528  1.2082 -0.1030
   83CHL1  H27C 8622   3.267   6.568   8.485 -0.6486 -0.9164  2.2034
   84CHL1    C3 8623   5.191   2.883   6.868  0.0643 -0.4909  0.5677
   84CHL1    H3 8624   5.205   2.780   6.830  1.6283 -0.0852 -0.0053
   84CHL1    O3 8625   5.214   2.961   6.751  0.1635 -0.2488  0.5997
   84CHL1   H3' 8626   5.154   2.921   6.688 -0.8465 -0.0442  1.4107
   84CHL1    C4 8627   5.051   2.904   6.925  0.6099 -0.4417 -0.2536
   84CHL1   H4A 8628   5.036   3.013   6.936 -1.7296 -0.8225  0.6947
   84CHL1   H4B 8629   4.978   2.864   6.852 -2.0155 -0.0190  2.0337
   84CHL1    C5 8630   5.033   2.844   7.063  0.1652  0.1105 -0.0663
   84CHL1    C6 8631   4.935   2.757   7.088 -0.2043  0.3847  0.2371
   84CHL1    H6 8632   4.858   2.750   7.009 -0.9397 -0.5636  1.0315
   84CHL1    C7 8633   4.907   2.695   7.227 -0.1131  0.1645  0.8282
   84CHL1   H7A 8634   4.799   2.700   7.253 -0.3934  1.7078 -0.5383
   84CHL1   H7B 8635   4.936   2.588   7.225  0.0720  0.2269 -1.3037
   84CHL1    C8 8636   4.988   2.769   7.339  0.2977  0.1414 -0.0668
   84CHL1    H8 8637   4.933   2.859   7.371 -0.4389 -0.3503  0.0713
   84CHL1   C14 8638   4.997   2.675   7.461 -0.2498 -0.3710  0.0876
   84CHL1   H14 8639   5.069   2.604   7.415  1.6305  2.2451 -1.0995
   84CHL1   C15 8640   4.875   2.606   7.513  0.2939 -0.2424 -0.6019
   84CHL1  H15A 8641   4.795   2.681   7.531 -1.6187 -2.3697  0.0461
   84CHL1  H15B 8642   4.825   2.544   7.436 -1.4092 -0.6296  0.7947
   84CHL1   C16 8643   4.917   2.546   7.647 -0.3439  0.0067 -0.1341
   84CHL1  H16A 8644   4.842   2.571   7.725 -1.4292 -1.5491 -0.6566
   84CHL1  H16B 8645   4.926   2.436   7.635 -1.7577  0.0647 -1.9143
   84CHL1   C17 8646   5.056   2.608   7.682  0.0406  0.3622 -0.8135
   84CHL1   H17 8647   5.126   2.529   7.648 -1.1596 -1.6399  1.2494
   84CHL1   C13 8648   5.072   2.730   7.582  0.3329 -0.0468 -0.5174
   84CHL1   C18 8649   5.003   2.849   7.655 -0.0365 -0.3056 -0.3108
   84CHL1  H18A 8650   5.064   2.886   7.740  0.5907 -0.3148 -0.7516
   84CHL1  H18B 8651   4.995   2.937   7.588 -1.1805 -0.9077 -0.9757
   84CHL1  H18C 8652   4.902   2.821   7.692  0.4786  0.5182  1.7779
   84CHL1   C12 8653   5.211   2.756   7.529 -0.0035 -0.5662  0.0260
   84CHL1  H12A 8654   5.271   2.803   7.611  0.6760  0.5473 -1.0891
   84CHL1  H12B 8655   5.267   2.668   7.490  0.6231  0.2362 -0.8874
   84CHL1   C11 8656   5.209   2.856   7.409 -0.7045  0.0922 -0.1000
   84CHL1  H11A 8657   5.169   2.948   7.458  0.8215  1.2510 -0.9703
   84CHL1  H11B 8658   5.317   2.862   7.381 -1.0059  1.2405 -1.0811
   84CHL1    C9 8659   5.132   2.802   7.295 -0.2465 -0.4254 -0.8127
   84CHL1    H9 8660   5.178   2.706   7.262  1.8193 -0.0095  0.7735
   84CHL1   C10 8661   5.141   2.882   7.165  0.2255 -0.4648  0.3038
   84CHL1   C19 8662   5.124   3.025   7.204 -0.1269 -0.6737  1.4196
   84CHL1  H19A 8663   5.133   3.096   7.120 -1.6981 -1.7189  0.3256
   84CHL1  H19B 8664   5.025   3.051   7.248 -0.5210 -0.3720  0.3800
   84CHL1  H19C 8665   5.194   3.051   7.285  0.0367 -1.2049  1.4533
   84CHL1    C1 8666   5.283   2.861   7.103  0.1223 -0.1070 -0.1824
   84CHL1   H1A 8667   5.355   2.902   7.177  2.2269 -0.3888 -2.0300
   84CHL1   H1B 8668   5.295   2.751   7.096  0.0050 -0.1242 -0.1228
   84CHL1    C2 8669   5.302   2.925   6.965  0.3825 -0.1610  0.3347
   84CHL1   H2A 8670   5.401   2.897   6.923  0.6258  2.0614 -0.6183
   84CHL1   H2B 8671   5.304   3.036   6.971  0.6645 -0.0892 -0.8446
   84CHL1   C20 8672   5.083   2.625   7.835  0.3437  1.2321  0.4114
   84CHL1   H20 8673   5.017   2.708   7.870 -4.4909 -1.3688 -2.0303
   84CHL1   C21 8674   5.227   2.653   7.866  0.3599  0.7843  0.4300
   84CHL1  H21A 8675   5.245   2.622   7.971 -1.6364 -2.5644 -0.1448
   84CHL1  H21B 8676   5.240   2.763   7.865  0.3983  0.7723 -0.3139
   84CHL1  H21C 8677   5.284   2.578   7.807 -0.4854  0.1361  0.4364
   84CHL1   C22 8678   5.044   2.497   7.919  0.0475  0.7322  0.0584
   84CHL1  H22A 8679   5.067   2.525   8.024  1.7638  0.5759 -0.2554
   84CHL1  H22B 8680   4.936   2.471   7.924  0.5078 -1.6666 -1.5553
   84CHL1   C23 8681   5.120   2.372   7.875 -0.3871 -0.1069  0.6570
   84CHL1  H23A 8682   5.096   2.339   7.772 -2.2869  0.7499  0.8141
   84CHL1  H23B 8683   5.230   2.387   7.884 -0.3725  0.3019 -0.1170
   84CHL1   C24 8684   5.102   2.240   7.957 -0.2488  0.6984 -1.3796
   84CHL1  H24A 8685   5.000   2.199   7.947  0.1880 -0.7352 -0.1360
   84CHL1  H24B 8686   5.174   2.161   7.926  0.1491 -0.8910  3.1171
   84CHL1   C25 8687   5.143   2.254   8.111  0.4823 -0.7546 -0.0167
   84CHL1   H25 8688   5.094   2.338   8.165 -0.7878 -1.2071 -0.4233
   84CHL1   C26 8689   5.089   2.118   8.175 -0.3989  0.9550 -0.1449
   84CHL1  H26A 8690   5.135   2.111   8.276 -1.6069 -0.2652  0.3381
   84CHL1  H26B 8691   4.980   2.125   8.194 -0.5434 -0.4777 -0.3519
   84CHL1  H26C 8692   5.114   2.025   8.119 -0.1310  0.3914  0.8971
   84CHL1   C27 8693   5.295   2.272   8.134 -0.2017  0.1149 -0.4258
   84CHL1  H27A 8694   5.322   2.265   8.241 -1.5845  0.6445 -0.0311
   84CHL1  H27B 8695   5.342   2.188   8.077 -0.5401  0.3313 -1.0239
   84CHL1  H27C 8696   5.336   2.370   8.101  0.0878  0.5618  1.2508
   85CHL1    C3 8697   4.779   0.253   6.544 -0.4577 -0.3612 -0.4954
   85CHL1    H3 8698   4.771   0.360   6.573 -1.1442 -0.1659 -1.3490
   85CHL1    O3 8699   4.744   0.249   6.405  0.6178 -0.8377  0.4846
   85CHL1   H3' 8700   4.664   0.302   6.402 -0.1783 -2.0038  0.9131
   85CHL1    C4 8701   4.915   0.194   6.575  0.0603 -0.6916 -0.2194
   85CHL1   H4A 8702   4.917   0.087   6.545 -1.6323 -1.2763  1.6735
   85CHL1   H4B 8703   4.987   0.250   6.511 -2.1395  0.6657 -1.5939
   85CHL1    C5 8704   4.953   0.202   6.725  0.3837  0.8992  0.0432
   85CHL1    C6 8705   5.059   0.265   6.775  0.3673 -0.1975 -0.1807
   85CHL1    H6 8706   5.130   0.315   6.708  1.5786 -0.2581  1.0096
   85CHL1    C7 8707   5.077   0.279   6.922 -0.5044 -0.0151  0.4625
   85CHL1   H7A 8708   5.186   0.279   6.943 -0.1124 -0.0472 -1.5377
   85CHL1   H7B 8709   5.036   0.375   6.959  1.2865  0.9302  0.0278
   85CHL1    C8 8710   5.016   0.167   7.009 -0.4571 -0.7977  0.7124
   85CHL1    H8 8711   5.074   0.075   6.983 -1.8928 -0.9400 -2.2321
   85CHL1   C14 8712   5.033   0.185   7.159 -0.0234 -0.1191 -0.6363
   85CHL1   H14 8713   4.975   0.279   7.173  0.8583  0.3574 -0.1233
   85CHL1   C15 8714   5.170   0.217   7.209  0.4384 -1.0661 -0.1029
   85CHL1  H15A 8715   5.247   0.147   7.170  0.7537 -1.3323  0.9942
   85CHL1  H15B 8716   5.192   0.320   7.175 -2.2890 -0.9357 -1.6386
   85CHL1   C16 8717   5.146   0.187   7.356 -0.5159  0.7964 -0.0749
   85CHL1  H16A 8718   5.223   0.111   7.382 -1.9967 -1.1780 -1.3014
   85CHL1  H16B 8719   5.161   0.282   7.412 -0.4369 -0.1518  1.5272
   85CHL1   C17 8720   4.999   0.139   7.378  0.1692 -0.0120  0.3381
   85CHL1   H17 8721   4.939   0.231   7.391  0.6965  0.2118  1.2687
   85CHL1   C13 8722   4.961   0.086   7.244 -0.9844 -0.3128  0.1889
   85CHL1   C18 8723   5.019  -0.056   7.216 -0.3440 -0.1674  0.3788
   85CHL1  H18A 8724   5.122  -0.066   7.257 -0.2407 -0.7916 -0.0281
   85CHL1  H18B 8725   4.958  -0.129   7.275 -2.8230  3.0710  1.9737
   85CHL1  H18C 8726   5.015  -0.092   7.111 -2.8740  1.7008 -0.2085
   85CHL1   C12 8727   4.805   0.082   7.206  1.1670 -0.3102  0.5338
   85CHL1  H12A 8728   4.752   0.002   7.260 -1.9501  3.7396  3.8202
   85CHL1  H12B 8729   4.765   0.181   7.239  4.2951  0.6107  1.7438
   85CHL1   C11 8730   4.786   0.051   7.058  1.0471  0.2976  0.0426
   85CHL1  H11A 8731   4.823  -0.051   7.033 -0.6719  0.0100 -1.4725
   85CHL1  H11B 8732   4.679   0.052   7.028  0.6133 -1.0455  1.4384
   85CHL1    C9 8733   4.859   0.152   6.968  0.4504 -0.0928 -0.0884
   85CHL1    H9 8734   4.827   0.254   6.998 -0.3675  0.0940 -1.5649
   85CHL1   C10 8735   4.843   0.132   6.817 -0.4138 -0.2460 -0.3129
   85CHL1   C19 8736   4.848  -0.024   6.791 -0.0128  0.7917 -0.2465
   85CHL1  H19A 8737   4.758  -0.068   6.838  0.2444  0.7423  0.1988
   85CHL1  H19B 8738   4.842  -0.064   6.687 -0.8167 -0.5060  0.2771
   85CHL1  H19C 8739   4.940  -0.068   6.835  0.2935  0.6876 -0.9728
   85CHL1    C1 8740   4.699   0.194   6.778 -0.1389  0.6227  0.5712
   85CHL1   H1A 8741   4.622   0.154   6.848 -0.8633  4.4493  2.0397
   85CHL1   H1B 8742   4.716   0.301   6.799 -0.8285  0.8768 -0.1314
   85CHL1    C2 8743   4.672   0.178   6.628 -0.4520  0.3547  0.4280
   85CHL1   H2A 8744   4.575   0.230   6.617  0.5188  2.3790  1.0558
   85CHL1   H2B 8745   4.659   0.070   6.606 -4.8986  0.6186  1.3137
   85CHL1   C20 8746   4.983   0.055   7.500 -0.7665  0.8069  0.7052
   85CHL1   H20 8747   5.061  -0.024   7.492  0.8082  2.3852  0.0602
   85CHL1   C21 8748   4.838  -0.002   7.503  0.0954  0.3991 -0.6695
   85CHL1  H21A 8749   4.812  -0.058   7.595  1.5225 -1.6051 -1.4357
   85CHL1  H21B 8750   4.836  -0.077   7.421 -1.0133  0.5726 -0.7982
   85CHL1  H21C 8751   4.769   0.083   7.487 -0.2358  0.3605  0.5248
   85CHL1   C22 8752   5.013   0.126   7.634  0.0823 -0.0946  0.2021
   85CHL1  H22A 8753   5.114   0.170   7.628 -0.0302  0.3783  1.5158
   85CHL1  H22B 8754   4.944   0.211   7.651  0.3342  0.7832 -2.8896
   85CHL1   C23 8755   5.017   0.036   7.756  0.0005 -0.2848  0.1099
   85CHL1  H23A 8756   4.924  -0.023   7.774 -0.5061  0.3388 -0.4610
   85CHL1  H23B 8757   5.097  -0.033   7.724 -1.7279 -2.5391  0.5052
   85CHL1   C24 8758   5.072   0.109   7.873 -0.5173  0.4112  0.2075
   85CHL1  H24A 8759   5.156   0.178   7.852  0.6418 -1.5917 -1.9195
   85CHL1  H24B 8760   4.993   0.178   7.910 -2.0801 -0.6569 -1.0814
   85CHL1   C25 8761   5.122   0.026   7.992 -0.8908 -0.0328 -0.1032
   85CHL1   H25 8762   5.190   0.088   8.055 -1.2513  2.1298 -1.7678
   85CHL1   C26 8763   5.004  -0.022   8.077  0.1001  0.4933  0.1923
   85CHL1  H26A 8764   4.931  -0.081   8.016  0.3710  1.2352 -0.8590
   85CHL1  H26B 8765   5.028  -0.086   8.164  0.4352 -1.1935 -1.0980
   85CHL1  H26C 8766   4.949   0.066   8.116  0.6164  1.5405 -1.3912
   85CHL1   C27 8767   5.202  -0.109   7.951 -0.1725  0.9982 -0.4164
   85CHL1  H27A 8768   5.139  -0.179   7.893 -0.3818  0.2247  0.7205
   85CHL1  H27B 8769   5.293  -0.077   7.897 -0.0169  1.1172 -0.0888
   85CHL1  H27C 8770   5.226  -0.165   8.045  0.8144  1.8423 -0.1564
   86CHL1    C3 8771   0.561   4.431   6.853  0.0183  0.2269 -0.6595
   86CHL1    H3 8772   0.669   4.454   6.864  0.0007  0.2243 -0.4884
   86CHL1    O3 8773   0.554   4.381   6.725  0.1132 -0.1281  0.2886
   86CHL1   H3' 8774   0.460   4.360   6.720 -0.4578  1.9440  1.5141
   86CHL1    C4 8775   0.534   4.312   6.949 -0.0038  0.4455 -0.5922
   86CHL1   H4A 8776   0.436   4.268   6.921  1.2269 -0.7996 -3.1690
   86CHL1   H4B 8777   0.615   4.238   6.932  0.3399  0.6740  0.0193
   86CHL1    C5 8778   0.533   4.352   7.096  0.0877 -0.0385 -0.2082
   86CHL1    C6 8779   0.623   4.306   7.186  1.0669  0.7098  0.2817
   86CHL1    H6 8780   0.693   4.227   7.156 -2.5809 -1.8736 -1.7663
   86CHL1    C7 8781   0.605   4.334   7.331  0.3252  0.5206 -0.3755
   86CHL1   H7A 8782   0.613   4.243   7.395 -2.8815 -1.4177 -2.5599
   86CHL1   H7B 8783   0.686   4.404   7.359  1.8867 -1.3472 -0.1280
   86CHL1    C8 8784   0.466   4.401   7.365  0.4263 -0.4308 -0.1265
   86CHL1    H8 8785   0.396   4.315   7.378 -0.9126  0.5255 -0.8476
   86CHL1   C14 8786   0.483   4.469   7.505  0.1402 -0.1313  0.0927
   86CHL1   H14 8787   0.558   4.550   7.497 -1.0777  1.1772  1.4022
   86CHL1   C15 8788   0.545   4.384   7.618  0.0008 -1.0811 -0.9662
   86CHL1  H15A 8789   0.493   4.286   7.615  0.7776 -1.5709  0.8473
   86CHL1  H15B 8790   0.655   4.377   7.603  0.4494 -0.3516  1.6957
   86CHL1   C16 8791   0.505   4.464   7.749  0.0525 -0.2070  0.7098
   86CHL1  H16A 8792   0.450   4.396   7.818 -1.0049 -1.4604 -1.3303
   86CHL1  H16B 8793   0.591   4.494   7.813  0.5171  0.7474 -0.3590
   86CHL1   C17 8794   0.415   4.581   7.698  0.4618 -0.1351 -0.1092
   86CHL1   H17 8795   0.482   4.662   7.662  0.2898 -0.4973 -1.2793
   86CHL1   C13 8796   0.352   4.533   7.564 -0.6919  0.6525 -0.0047
   86CHL1   C18 8797   0.245   4.423   7.583 -0.3174  0.3438 -0.8662
   86CHL1  H18A 8798   0.273   4.355   7.666  0.0838  0.2584 -1.0692
   86CHL1  H18B 8799   0.146   4.455   7.619 -1.1245 -0.2904 -2.4466
   86CHL1  H18C 8800   0.228   4.364   7.490  0.2368  2.9144 -2.6514
   86CHL1   C12 8801   0.316   4.637   7.457 -0.1534 -0.3503 -0.1289
   86CHL1  H12A 8802   0.218   4.681   7.486  0.1068  0.2853 -0.2086
   86CHL1  H12B 8803   0.389   4.719   7.445 -0.9360  0.0162 -2.7442
   86CHL1   C11 8804   0.298   4.575   7.312 -0.4011 -0.5306  0.1248
   86CHL1  H11A 8805   0.228   4.490   7.324  2.1458 -3.1212 -2.5573
   86CHL1  H11B 8806   0.264   4.652   7.239  1.5675  2.1129  1.9126
   86CHL1    C9 8807   0.427   4.505   7.263 -0.1665 -0.0369 -1.1858
   86CHL1    H9 8808   0.504   4.584   7.276 -0.1051 -0.1043 -1.1415
   86CHL1   C10 8809   0.425   4.455   7.120  0.1506 -0.5750  0.9505
   86CHL1   C19 8810   0.279   4.390   7.092 -0.3203 -0.5496 -0.2103
   86CHL1  H19A 8811   0.207   4.474   7.101  0.9494  0.3236  2.2914
   86CHL1  H19B 8812   0.258   4.350   6.991 -2.3318  1.8099 -0.7735
   86CHL1  H19C 8813   0.249   4.318   7.171 -1.3201 -0.8383 -0.8418
   86CHL1    C1 8814   0.442   4.577   7.020  0.5837 -0.3171  0.4776
   86CHL1   H1A 8815   0.351   4.640   7.024  0.1738 -0.6843 -2.2955
   86CHL1   H1B 8816   0.524   4.641   7.061 -1.6118  2.9027  0.0784
   86CHL1    C2 8817   0.455   4.540   6.876 -0.0360 -0.5650  0.2739
   86CHL1   H2A 8818   0.485   4.618   6.803 -0.2487 -0.5561  0.1971
   86CHL1   H2B 8819   0.355   4.508   6.840  0.4556  0.4582 -2.0890
   86CHL1   C20 8820   0.316   4.631   7.799  0.4611  0.6642 -0.1296
   86CHL1   H20 8821   0.250   4.547   7.832  0.2190  1.0686  0.4171
   86CHL1   C21 8822   0.231   4.751   7.738 -0.3779 -0.2538  0.2224
   86CHL1  H21A 8823   0.181   4.802   7.823 -1.0646 -0.4020 -0.0848
   86CHL1  H21B 8824   0.155   4.705   7.670 -0.1726 -1.1021  0.5573
   86CHL1  H21C 8825   0.302   4.819   7.688  0.6975  0.5172  2.7310
   86CHL1   C22 8826   0.372   4.676   7.936  0.3587  0.1206 -0.0727
   86CHL1  H22A 8827   0.441   4.594   7.966 -0.4143 -0.5081 -0.0046
   86CHL1  H22B 8828   0.428   4.772   7.929  3.0663 -1.2608  1.5648
   86CHL1   C23 8829   0.271   4.693   8.056 -0.1574 -0.2909 -0.3947
   86CHL1  H23A 8830   0.324   4.749   8.136 -3.0488 -0.3557  1.6601
   86CHL1  H23B 8831   0.189   4.763   8.028  1.0775  0.0901 -3.2199
   86CHL1   C24 8832   0.199   4.569   8.113 -0.0111 -0.2935 -0.2369
   86CHL1  H24A 8833   0.102   4.600   8.158 -0.1637 -1.1994  0.0800
   86CHL1  H24B 8834   0.146   4.513   8.032 -1.4856  0.5107  0.1503
   86CHL1   C25 8835   0.277   4.479   8.212  0.1516 -0.5611  0.8395
   86CHL1   H25 8836   0.379   4.472   8.168  0.2575  3.1575  0.3618
   86CHL1   C26 8837   0.301   4.538   8.354  0.1866  0.0322  0.3026
   86CHL1  H26A 8838   0.374   4.477   8.410  0.9373  0.6859  0.0456
   86CHL1  H26B 8839   0.343   4.640   8.344  2.0269 -0.6515  0.9560
   86CHL1  H26C 8840   0.202   4.545   8.403 -0.3958  1.7413 -1.0368
   86CHL1   C27 8841   0.218   4.338   8.225 -0.4566  0.2550 -0.5882
   86CHL1  H27A 8842   0.122   4.347   8.281  1.3461 -1.1396  2.8707
   86CHL1  H27B 8843   0.203   4.275   8.135  2.3546 -0.5725 -0.5135
   86CHL1  H27C 8844   0.287   4.287   8.296 -1.6714 -1.4558 -0.6033
   87CHL1    C3 8845   0.352   2.900   6.855 -0.9917  0.0678  0.3668
   87CHL1    H3 8846   0.243   2.904   6.834 -0.4840  2.6487 -2.1305
   87CHL1    O3 8847   0.426   2.866   6.734 -0.1598  0.3184 -0.3106
   87CHL1   H3' 8848   0.512   2.830   6.757 -0.0340 -0.0481 -1.3166
   87CHL1    C4 8849   0.400   3.030   6.918  0.2261  0.4724  0.4616
   87CHL1   H4A 8850   0.510   3.031   6.935  0.5072 -1.4639 -1.1594
   87CHL1   H4B 8851   0.389   3.111   6.844 -0.6283  2.9672  3.2038
   87CHL1    C5 8852   0.329   3.056   7.046  0.6121  0.4107  0.3480
   87CHL1    C6 8853   0.246   3.162   7.076  0.4447 -1.3784 -0.4306
   87CHL1    H6 8854   0.241   3.245   7.003  0.9690  1.0199  2.1655
   87CHL1    C7 8855   0.191   3.195   7.215 -0.9640 -0.0987  0.0974
   87CHL1   H7A 8856   0.199   3.305   7.227  0.1637 -0.1115 -0.4337
   87CHL1   H7B 8857   0.082   3.174   7.218 -1.3303  1.3874 -1.8216
   87CHL1    C8 8858   0.254   3.110   7.325  0.7846 -0.3051  0.4988
   87CHL1    H8 8859   0.359   3.139   7.346  0.1184  1.5386  1.4931
   87CHL1   C14 8860   0.173   3.126   7.452  0.4208  0.0425 -0.4114
   87CHL1   H14 8861   0.066   3.100   7.438 -0.2775  0.5683  3.4382
   87CHL1   C15 8862   0.168   3.265   7.520 -0.0473  0.4891 -0.2955
   87CHL1  H15A 8863   0.269   3.311   7.525 -0.1414  0.6958 -0.2840
   87CHL1  H15B 8864   0.103   3.338   7.466 -1.6460  0.2916  1.3149
   87CHL1   C16 8865   0.108   3.229   7.656  0.0300 -0.1042 -0.0855
   87CHL1  H16A 8866   0.170   3.280   7.733  0.3317 -1.0113  0.2819
   87CHL1  H16B 8867   0.000   3.250   7.672  0.5661  2.3117  0.5588
   87CHL1   C17 8868   0.127   3.074   7.685 -0.2019  0.2524 -0.2775
   87CHL1   H17 8869   0.030   3.023   7.666 -1.6272  2.6284  0.4691
   87CHL1   C13 8870   0.219   3.030   7.575  0.0178 -0.4197 -0.4689
   87CHL1   C18 8871   0.362   3.052   7.613 -0.4953  0.0529 -0.0339
   87CHL1  H18A 8872   0.393   2.991   7.700  0.4001  0.8588  0.2230
   87CHL1  H18B 8873   0.425   3.040   7.522  0.0032 -1.2559  0.4701
   87CHL1  H18C 8874   0.376   3.157   7.647  0.0523  0.6591 -2.0207
   87CHL1   C12 8875   0.186   2.892   7.520  0.0622 -0.6334 -0.3961
   87CHL1  H12A 8876   0.205   2.814   7.597 -1.3725  1.4514  2.1278
   87CHL1  H12B 8877   0.080   2.878   7.492  0.3990 -1.2275 -1.4101
   87CHL1   C11 8878   0.265   2.856   7.394  0.1671 -0.2826 -0.7191
   87CHL1  H11A 8879   0.370   2.835   7.424 -0.4503 -0.3754  1.4707
   87CHL1  H11B 8880   0.226   2.757   7.361  2.6205 -1.7806  0.6552
   87CHL1    C9 8881   0.250   2.963   7.282 -0.5535 -0.4907 -0.4247
   87CHL1    H9 8882   0.149   2.936   7.246 -0.8142 -0.2813  0.1436
   87CHL1   C10 8883   0.345   2.938   7.156 -0.5727  0.1844 -0.1067
   87CHL1   C19 8884   0.500   2.938   7.196 -0.5921 -0.5288  0.0286
   87CHL1  H19A 8885   0.560   2.959   7.105  0.4152 -1.2922  0.5086
   87CHL1  H19B 8886   0.525   3.010   7.277 -0.5999 -0.9308  0.3885
   87CHL1  H19C 8887   0.548   2.838   7.207  3.0518  0.9615 -1.4897
   87CHL1    C1 8888   0.296   2.807   7.086 -0.8253 -0.0359  0.0722
   87CHL1   H1A 8889   0.330   2.726   7.154  0.0248  0.5681  0.3718
   87CHL1   H1B 8890   0.185   2.802   7.078 -0.8443  3.9274 -4.8530
   87CHL1    C2 8891   0.364   2.780   6.951  0.1055  0.6687 -0.0368
   87CHL1   H2A 8892   0.322   2.684   6.912  0.5044 -0.3345  1.9623
   87CHL1   H2B 8893   0.471   2.753   6.960 -0.0379  0.6092  1.5796
   87CHL1   C20 8894   0.157   3.029   7.834 -0.2530 -0.3832  0.5811
   87CHL1   H20 8895   0.262   3.060   7.853 -0.5152  0.4176  0.7546
   87CHL1   C21 8896   0.146   2.872   7.845  0.7543 -0.1746 -0.7160
   87CHL1  H21A 8897   0.157   2.849   7.953  3.5779  2.5079 -0.3575
   87CHL1  H21B 8898   0.229   2.816   7.798  2.2350  0.8282  0.6430
   87CHL1  H21C 8899   0.042   2.847   7.816  0.0346  1.0018  0.7704
   87CHL1   C22 8900   0.060   3.096   7.934  0.8294  0.4556  0.6780
   87CHL1  H22A 8901   0.058   3.207   7.926 -0.9011  0.5011  1.5066
   87CHL1  H22B 8902  -0.042   3.054   7.917  0.7629  0.9211 -0.1089
   87CHL1   C23 8903   0.113   3.089   8.073  0.1912 -0.6011 -0.6808
   87CHL1  H23A 8904   0.154   2.990   8.101  0.9842  0.3541  1.6852
   87CHL1  H23B 8905   0.189   3.170   8.074 -1.7690  1.3053 -1.7583
   87CHL1   C24 8906   0.002   3.130   8.165 -0.0287  0.6394 -0.3299
   87CHL1  H24A 8907  -0.082   3.172   8.106 -0.9251 -0.7848 -0.0973
   87CHL1  H24B 8908  -0.034   3.030   8.196  0.1492  0.2520 -1.3352
   87CHL1   C25 8909   0.027   3.210   8.300 -0.0548  0.7676 -0.7583
   87CHL1   H25 8910   0.093   3.297   8.279  1.7980 -0.4112  0.0260
   87CHL1   C26 8911  -0.115   3.244   8.366 -0.9243  0.5374 -0.1340
   87CHL1  H26A 8912  -0.172   3.155   8.401  0.6345 -0.6983 -0.6552
   87CHL1  H26B 8913  -0.113   3.312   8.454 -1.2985 -0.8600  0.9666
   87CHL1  H26C 8914  -0.180   3.305   8.301  1.2400  2.2740 -0.7397
   87CHL1   C27 8915   0.105   3.130   8.410 -0.6100  0.9628 -0.7491
   87CHL1  H27A 8916   0.203   3.095   8.372  0.0844  1.6096  0.4371
   87CHL1  H27B 8917   0.125   3.184   8.504 -2.0011 -1.3740  0.9522
   87CHL1  H27C 8918   0.051   3.033   8.422 -1.0285  1.5387  2.3136
   88CHL1    C3 8919   4.527   1.403   6.907 -0.0558  0.6348 -0.2358
   88CHL1    H3 8920   4.492   1.507   6.924 -0.1920  0.3917  1.0155
   88CHL1    O3 8921   4.531   1.372   6.770 -0.5632  0.4897  0.3099
   88CHL1   H3' 8922   4.595   1.301   6.772  0.3979  1.3547  1.1657
   88CHL1    C4 8923   4.661   1.370   6.964 -0.5441  0.5581  0.4106
   88CHL1   H4A 8924   4.681   1.265   6.932 -1.9651  0.7080 -1.0432
   88CHL1   H4B 8925   4.732   1.442   6.917 -0.5448  0.3184  0.0342
   88CHL1    C5 8926   4.662   1.383   7.119 -0.1844  0.0216  0.2068
   88CHL1    C6 8927   4.756   1.457   7.177  0.1637  0.0837  0.3343
   88CHL1    H6 8928   4.835   1.498   7.113  1.2376 -2.8571 -0.2898
   88CHL1    C7 8929   4.757   1.492   7.323 -0.5981 -0.3001  0.5944
   88CHL1   H7A 8930   4.861   1.492   7.362  0.8406  1.9322 -2.9394
   88CHL1   H7B 8931   4.727   1.599   7.331 -2.0435 -0.3751 -2.9493
   88CHL1    C8 8932   4.655   1.411   7.404 -0.3538  0.0169 -0.0677
   88CHL1    H8 8933   4.709   1.315   7.423  1.0285  0.6958 -0.4897
   88CHL1   C14 8934   4.633   1.480   7.536 -0.8046  0.7256  0.1812
   88CHL1   H14 8935   4.582   1.577   7.518 -2.1716 -0.4413 -2.5460
   88CHL1   C15 8936   4.753   1.514   7.626  0.0857  0.0132 -0.0497
   88CHL1  H15A 8937   4.833   1.437   7.625 -0.9562 -1.1022  1.3186
   88CHL1  H15B 8938   4.795   1.609   7.586 -0.9769  0.5061  0.0022
   88CHL1   C16 8939   4.689   1.528   7.771 -0.2048 -0.0697 -0.3199
   88CHL1  H16A 8940   4.758   1.470   7.836  3.0078  1.3962 -2.3010
   88CHL1  H16B 8941   4.688   1.634   7.806  0.6476 -0.1596 -0.0105
   88CHL1   C17 8942   4.545   1.463   7.761 -0.4934 -0.1658  0.2381
   88CHL1   H17 8943   4.482   1.548   7.729 -0.6667 -0.2085  0.4635
   88CHL1   C13 8944   4.538   1.391   7.627  0.1065 -0.5943  0.1808
   88CHL1   C18 8945   4.593   1.247   7.640 -0.0830 -0.0026  0.2619
   88CHL1  H18A 8946   4.514   1.194   7.696 -0.6600 -0.5561 -1.0651
   88CHL1  H18B 8947   4.611   1.191   7.546  1.9015 -0.5159  0.9198
   88CHL1  H18C 8948   4.692   1.257   7.690 -0.2258  2.8869  0.1066
   88CHL1   C12 8949   4.405   1.392   7.555 -0.6399 -0.4208 -0.2619
   88CHL1  H12A 8950   4.341   1.319   7.609 -1.1182 -0.6784 -1.1675
   88CHL1  H12B 8951   4.360   1.493   7.552  1.9867  0.8589  1.3566
   88CHL1   C11 8952   4.406   1.335   7.412  0.7100  0.8096 -0.0867
   88CHL1  H11A 8953   4.401   1.224   7.422  0.7623  0.7730 -0.4493
   88CHL1  H11B 8954   4.310   1.358   7.360  0.1712 -3.1102 -1.0325
   88CHL1    C9 8955   4.526   1.389   7.329  0.7774 -0.1400  0.8238
   88CHL1    H9 8956   4.491   1.491   7.302  0.4826 -0.1968  0.9913
   88CHL1   C10 8957   4.541   1.324   7.191  0.4376  0.7139  0.9794
   88CHL1   C19 8958   4.578   1.176   7.215  0.0380 -0.4707 -0.6671
   88CHL1  H19A 8959   4.674   1.155   7.266 -0.0346  1.0847  0.1530
   88CHL1  H19B 8960   4.499   1.125   7.274  2.9765  0.6527  4.5869
   88CHL1  H19C 8961   4.590   1.127   7.116  0.9619 -0.0878 -0.7504
   88CHL1    C1 8962   4.403   1.332   7.115  0.5086 -0.6556 -0.4223
   88CHL1   H1A 8963   4.332   1.262   7.164  0.3226  0.0029  0.2639
   88CHL1   H1B 8964   4.354   1.431   7.129  0.5647 -0.4607 -1.5660
   88CHL1    C2 8965   4.407   1.321   6.959 -0.2577 -0.1175  0.3561
   88CHL1   H2A 8966   4.314   1.367   6.920 -0.1160  1.4842  1.8296
   88CHL1   H2B 8967   4.410   1.214   6.928  0.6698  0.9699 -3.5306
   88CHL1   C20 8968   4.491   1.388   7.880  0.9279 -0.1743 -0.0616
   88CHL1   H20 8969   4.409   1.328   7.835  1.1773 -0.8257  0.3350
   88CHL1   C21 8970   4.427   1.490   7.977 -0.1291 -1.4138 -0.9318
   88CHL1  H21A 8971   4.507   1.553   8.022  1.6994 -0.3917 -5.2923
   88CHL1  H21B 8972   4.365   1.436   8.052 -0.8812 -0.2544 -0.6908
   88CHL1  H21C 8973   4.368   1.568   7.923 -0.0883 -1.0472 -0.4498
   88CHL1   C22 8974   4.595   1.308   7.956 -0.0732 -0.2456  0.2599
   88CHL1  H22A 8975   4.653   1.250   7.881 -1.1784  1.9841 -2.3925
   88CHL1  H22B 8976   4.663   1.370   8.018 -0.3005  1.8343 -1.4920
   88CHL1   C23 8977   4.539   1.204   8.059 -0.4876 -0.2491 -0.5745
   88CHL1  H23A 8978   4.464   1.247   8.130  0.2033  0.0270 -0.0096
   88CHL1  H23B 8979   4.477   1.137   7.995  0.8582 -2.0249 -0.0499
   88CHL1   C24 8980   4.642   1.112   8.128 -0.0770 -0.2024  0.1287
   88CHL1  H24A 8981   4.586   1.032   8.181  0.5917 -1.3347 -0.8422
   88CHL1  H24B 8982   4.711   1.068   8.053 -0.6768  0.5144 -0.8617
   88CHL1   C25 8983   4.740   1.172   8.237 -0.3778  0.5610  0.0583
   88CHL1   H25 8984   4.796   1.256   8.191 -1.0689  0.8124 -0.3406
   88CHL1   C26 8985   4.663   1.216   8.359 -0.2326  0.1254  0.4956
   88CHL1  H26A 8986   4.629   1.124   8.412 -0.5320  0.9565  1.7451
   88CHL1  H26B 8987   4.732   1.271   8.427 -1.3840  0.6113  1.2699
   88CHL1  H26C 8988   4.588   1.293   8.333 -1.4635 -1.2224 -0.0202
   88CHL1   C27 8989   4.843   1.060   8.267 -0.2834  0.1302  0.8456
   88CHL1  H27A 8990   4.907   1.093   8.352  2.2682 -1.0552 -0.5676
   88CHL1  H27B 8991   4.781   0.968   8.269  3.3865 -2.6791 -3.7602
   88CHL1  H27C 8992   4.905   1.044   8.177 -0.6071 -0.1902  0.6805
   89CHL1    C3 8993   1.515   4.030   6.833  0.1821  0.4225  0.3460
   89CHL1    H3 8994   1.490   3.926   6.805  0.5353  0.5906 -0.6135
   89CHL1    O3 8995   1.531   4.089   6.706  0.2798  0.1389  0.5192
   89CHL1   H3' 8996   1.588   4.027   6.659 -1.2198  0.6770 -2.0936
   89CHL1    C4 8997   1.396   4.096   6.908 -0.2004 -1.1253  0.0045
   89CHL1   H4A 8998   1.409   4.206   6.914 -0.7132 -1.0882  0.4868
   89CHL1   H4B 8999   1.296   4.085   6.859  0.6300 -2.2990 -1.4752
   89CHL1    C5 9000   1.380   4.038   7.055 -0.2092  1.0028  0.2864
   89CHL1    C6 9001   1.263   3.982   7.099  0.5033 -0.0705  0.3439
   89CHL1    H6 9002   1.168   3.981   7.044  0.7149  2.2703 -0.0977
   89CHL1    C7 9003   1.251   3.948   7.247 -0.2963 -0.1738  0.9471
   89CHL1   H7A 9004   1.152   3.983   7.283 -0.8386  0.5892 -1.1560
   89CHL1   H7B 9005   1.260   3.838   7.261  1.2972 -0.3481 -1.0553
   89CHL1    C8 9006   1.361   4.009   7.344 -0.3333 -0.4895 -0.4332
   89CHL1    H8 9007   1.342   4.118   7.352  0.4486 -0.1904 -2.3334
   89CHL1   C14 9008   1.365   3.938   7.478 -0.7886  0.3257  0.0157
   89CHL1   H14 9009   1.399   3.835   7.452 -2.2816 -0.6289  1.7348
   89CHL1   C15 9010   1.236   3.914   7.548 -0.1901  0.5284 -0.1853
   89CHL1  H15A 9011   1.177   4.008   7.552 -0.4338  0.4288 -1.2892
   89CHL1  H15B 9012   1.172   3.843   7.492  0.0295  0.7749 -0.7565
   89CHL1   C16 9013   1.281   3.867   7.688  0.2087  0.5682  0.7872
   89CHL1  H16A 9014   1.247   3.927   7.775 -0.2836  1.5980 -0.1010
   89CHL1  H16B 9015   1.238   3.768   7.715 -2.5631  1.2880 -0.9304
   89CHL1   C17 9016   1.439   3.885   7.692 -0.1815 -0.2252 -0.2362
   89CHL1   H17 9017   1.480   3.785   7.667 -0.9184 -0.9974  1.5602
   89CHL1   C13 9018   1.471   3.982   7.574  0.4260 -0.4191 -0.1127
   89CHL1   C18 9019   1.439   4.122   7.614 -0.1647 -0.4338 -0.1052
   89CHL1  H18A 9020   1.450   4.197   7.534  0.0712 -0.5790 -0.2110
   89CHL1  H18B 9021   1.334   4.135   7.648  0.2063  0.4277  0.7144
   89CHL1  H18C 9022   1.494   4.152   7.706  0.6262 -1.3322 -0.2666
   89CHL1   C12 9023   1.614   3.969   7.502  0.0373 -0.4860  0.2590
   89CHL1  H12A 9024   1.697   4.009   7.564  0.2915  0.4746 -0.6881
   89CHL1  H12B 9025   1.637   3.862   7.483  0.9023 -0.0613 -1.1340
   89CHL1   C11 9026   1.616   4.038   7.368  0.6022 -0.0401 -0.1726
   89CHL1  H11A 9027   1.612   4.146   7.392  1.3603 -0.1568  0.4787
   89CHL1  H11B 9028   1.708   4.022   7.309  0.1788 -0.0841 -0.8220
   89CHL1    C9 9029   1.501   3.997   7.279  0.3507  0.2942 -0.0559
   89CHL1    H9 9030   1.513   3.888   7.263  1.0994  0.3792 -0.0944
   89CHL1   C10 9031   1.506   4.055   7.133 -0.2448  0.3143  0.0127
   89CHL1   C19 9032   1.532   4.204   7.155  0.2729  0.0212  0.5413
   89CHL1  H19A 9033   1.639   4.219   7.182  0.1164  1.3265  0.4709
   89CHL1  H19B 9034   1.517   4.266   7.064 -1.9567 -1.1953  0.0339
   89CHL1  H19C 9035   1.467   4.260   7.226 -0.0441  0.8587 -0.4075
   89CHL1    C1 9036   1.625   3.986   7.057  0.0990  0.2763  0.7812
   89CHL1   H1A 9037   1.715   3.987   7.123 -0.7574  0.4941  1.9574
   89CHL1   H1B 9038   1.603   3.879   7.036 -2.7465  0.9916 -0.0967
   89CHL1    C2 9039   1.642   4.047   6.918 -0.1825 -0.2567  0.0812
   89CHL1   H2A 9040   1.731   3.992   6.880 -0.1046 -0.3852  0.4450
   89CHL1   H2B 9041   1.672   4.154   6.922  1.3774 -0.6888  0.5081
   89CHL1   C20 9042   1.484   3.915   7.832  0.0640  0.1730 -0.0451
   89CHL1   H20 9043   1.444   4.013   7.866  1.3409  0.4493  0.6700
   89CHL1   C21 9044   1.633   3.935   7.841 -0.3312 -0.6986 -0.4390
   89CHL1  H21A 9045   1.667   4.013   7.769  0.8172  1.3782  2.2551
   89CHL1  H21B 9046   1.689   3.839   7.830 -0.1948 -0.7386  0.5570
   89CHL1  H21C 9047   1.657   3.981   7.940  2.2025 -1.2357 -0.7558
   89CHL1   C22 9048   1.451   3.805   7.944  0.1049  0.7256  0.1755
   89CHL1  H22A 9049   1.341   3.788   7.937  0.2851 -0.1228 -0.7546
   89CHL1  H22B 9050   1.502   3.709   7.925 -0.4656  0.4385  0.0663
   89CHL1   C23 9051   1.478   3.844   8.100  0.5750  0.3266 -0.0563
   89CHL1  H23A 9052   1.587   3.861   8.101  0.3450  1.9415 -0.1107
   89CHL1  H23B 9053   1.422   3.931   8.141  0.7790  0.4227  0.0172
   89CHL1   C24 9054   1.445   3.727   8.194  0.2790 -0.6946  0.0620
   89CHL1  H24A 9055   1.359   3.668   8.156 -1.3007  0.8649  1.1588
   89CHL1  H24B 9056   1.528   3.656   8.216  0.6114 -0.2675  0.1811
   89CHL1   C25 9057   1.403   3.766   8.335 -0.2929 -0.2824  0.1038
   89CHL1   H25 9058   1.484   3.825   8.385  1.9304 -1.6448 -1.7954
   89CHL1   C26 9059   1.275   3.854   8.342  0.3627  0.5301  0.0668
   89CHL1  H26A 9060   1.207   3.854   8.254  1.1787  3.1654 -0.5917
   89CHL1  H26B 9061   1.222   3.823   8.434 -0.4795  1.3105 -0.1482
   89CHL1  H26C 9062   1.306   3.960   8.343 -1.0896  0.9629  3.4432
   89CHL1   C27 9063   1.379   3.645   8.426 -0.1120  0.8671 -0.2118
   89CHL1  H27A 9064   1.467   3.578   8.422  0.9566  2.2805 -0.9920
   89CHL1  H27B 9065   1.359   3.690   8.526  0.8260 -0.3229  0.5202
   89CHL1  H27C 9066   1.286   3.587   8.407 -0.7700  1.1097  2.1145
   90CHL1    C3 9067   0.866   5.921   6.993 -0.0416 -0.5373  0.1645
   90CHL1    H3 9068   0.774   5.966   7.036  0.6826  0.0898  1.1033
   90CHL1    O3 9069   0.847   5.921   6.851 -0.4562 -0.3952  0.1141
   90CHL1   H3' 9070   0.891   5.850   6.805 -0.8488 -1.5327  1.4733
   90CHL1    C4 9071   0.996   5.997   7.030 -1.0016  0.5596 -0.2677
   90CHL1   H4A 9072   1.086   5.962   6.976 -0.2380 -1.7136  2.4166
   90CHL1   H4B 9073   0.981   6.103   6.997 -0.2789  1.8678  3.4270
   90CHL1    C5 9074   1.019   6.008   7.171 -0.0221 -0.2137 -0.4073
   90CHL1    C6 9075   1.042   6.123   7.236 -0.1881 -1.0886 -0.5275
   90CHL1    H6 9076   1.040   6.219   7.182  0.4816  0.4385  2.0600
   90CHL1    C7 9077   1.085   6.154   7.381 -0.9621 -0.7456 -0.9007
   90CHL1   H7A 9078   1.170   6.225   7.377 -1.5147 -0.0521 -0.7003
   90CHL1   H7B 9079   1.004   6.218   7.423 -0.4433  0.5615 -1.8616
   90CHL1    C8 9080   1.118   6.021   7.448  0.0942 -0.1683  0.1841
   90CHL1    H8 9081   1.220   5.989   7.419  0.5541 -0.4070  2.0351
   90CHL1   C14 9082   1.106   6.035   7.604  0.1188  0.0119  1.5607
   90CHL1   H14 9083   0.995   6.043   7.606 -0.0251 -0.8768 -0.9512
   90CHL1   C15 9084   1.156   6.154   7.672 -0.0622  0.3162  0.0780
   90CHL1  H15A 9085   1.257   6.190   7.644  0.7643 -0.2860  2.2046
   90CHL1  H15B 9086   1.092   6.240   7.641 -3.6524 -2.1407  0.2905
   90CHL1   C16 9087   1.145   6.126   7.820 -0.4093 -0.1478  0.0738
   90CHL1  H16A 9088   1.239   6.148   7.875  0.8597 -0.9306 -1.7537
   90CHL1  H16B 9089   1.060   6.182   7.865 -0.3841  0.7889 -1.0471
   90CHL1   C17 9090   1.112   5.970   7.833  0.0909  0.6195  0.0618
   90CHL1   H17 9091   1.001   5.966   7.842  0.1590 -0.2837  0.6013
   90CHL1   C13 9092   1.139   5.914   7.690 -0.0639 -0.5471 -0.2769
   90CHL1   C18 9093   1.283   5.885   7.680 -0.3733  0.3345 -0.0966
   90CHL1  H18A 9094   1.316   5.879   7.574 -0.4356 -1.2598 -0.0360
   90CHL1  H18B 9095   1.339   5.970   7.724 -0.4308  0.4309 -0.2097
   90CHL1  H18C 9096   1.320   5.794   7.732 -0.7343  1.5512  2.3127
   90CHL1   C12 9097   1.049   5.794   7.642  0.1564  0.1012  0.7047
   90CHL1  H12A 9098   1.091   5.699   7.682 -0.6599  0.2475  1.9307
   90CHL1  H12B 9099   0.946   5.818   7.675  0.0180 -0.6561  0.8412
   90CHL1   C11 9100   1.059   5.772   7.486 -0.1200 -0.9656 -1.0509
   90CHL1  H11A 9101   1.162   5.740   7.458 -0.2931 -3.2927  0.8581
   90CHL1  H11B 9102   0.997   5.686   7.453  1.4832 -2.3276 -0.6048
   90CHL1    C9 9103   1.024   5.898   7.402  0.0224 -0.2046 -1.2001
   90CHL1    H9 9104   0.923   5.931   7.432  0.1061  0.8537 -2.0176
   90CHL1   C10 9105   1.024   5.872   7.244 -0.2565  0.7893 -0.3643
   90CHL1   C19 9106   1.148   5.804   7.196 -0.4691  0.0583  0.3864
   90CHL1  H19A 9107   1.154   5.703   7.241  2.0855  0.3263  0.7151
   90CHL1  H19B 9108   1.162   5.784   7.088  2.1255 -2.3042  1.1130
   90CHL1  H19C 9109   1.235   5.868   7.223 -2.4399  2.3048  1.6346
   90CHL1    C1 9110   0.902   5.790   7.203 -0.5513  0.5924  0.2932
   90CHL1   H1A 9111   0.910   5.693   7.256 -0.4196  0.3797 -0.1049
   90CHL1   H1B 9112   0.814   5.840   7.247  0.7434  0.9476  2.5436
   90CHL1    C2 9113   0.875   5.781   7.050 -0.5468  0.2481 -0.2065
   90CHL1   H2A 9114   0.779   5.731   7.027  0.0462 -0.4125 -1.3228
   90CHL1   H2B 9115   0.956   5.723   6.999 -0.5357  0.3187 -0.2705
   90CHL1   C20 9116   1.168   5.907   7.958 -0.6779  0.7368 -0.0721
   90CHL1   H20 9117   1.279   5.917   7.949 -0.5495  1.8033  2.4516
   90CHL1   C21 9118   1.144   5.749   7.957 -0.1334 -0.0168 -0.2768
   90CHL1  H21A 9119   1.175   5.698   8.051  0.9590 -0.7964 -1.0580
   90CHL1  H21B 9120   1.205   5.693   7.884  1.5185  0.8047  0.4458
   90CHL1  H21C 9121   1.036   5.723   7.953  0.0462 -0.5918 -1.5977
   90CHL1   C22 9122   1.106   5.964   8.091  0.3567 -0.0926  0.1398
   90CHL1  H22A 9123   1.156   5.911   8.175 -0.1297 -2.4760 -1.0425
   90CHL1  H22B 9124   1.122   6.073   8.103 -0.3533 -0.2484  3.0331
   90CHL1   C23 9125   0.950   5.955   8.109  0.1469 -0.4859  0.3187
   90CHL1  H23A 9126   0.906   6.042   8.054  0.8439  1.1022  2.2157
   90CHL1  H23B 9127   0.910   5.857   8.076  0.3295 -0.6720  0.6499
   90CHL1   C24 9128   0.922   5.991   8.258  0.0189  0.1126 -0.3613
   90CHL1  H24A 9129   0.980   5.921   8.322  0.5686  2.5320  1.8908
   90CHL1  H24B 9130   0.967   6.092   8.273  1.4661 -0.4359 -1.0234
   90CHL1   C25 9131   0.769   5.997   8.290 -0.7008  0.6162 -0.3921
   90CHL1   H25 9132   0.729   5.903   8.245  1.3378 -1.0653  1.1943
   90CHL1   C26 9133   0.752   6.000   8.451  0.2838  0.3072 -0.1824
   90CHL1  H26A 9134   0.651   5.991   8.495 -0.1322  2.0507 -0.7398
   90CHL1  H26B 9135   0.814   5.923   8.502  0.7653  3.0617  3.5807
   90CHL1  H26C 9136   0.789   6.096   8.492 -3.5385  1.1315  1.5101
   90CHL1   C27 9137   0.698   6.112   8.223  0.2875 -0.2942 -0.3514
   90CHL1  H27A 9138   0.698   6.209   8.276 -1.4078  0.8542 -2.3526
   90CHL1  H27B 9139   0.737   6.143   8.124 -0.5306 -1.0949 -0.9379
   90CHL1  H27C 9140   0.590   6.089   8.211  0.3757 -1.8324  1.5953
   91CHL1    C3 9141   2.128   0.291   7.229 -0.3269 -0.3987 -0.3497
   91CHL1    H3 9142   2.234   0.311   7.252  0.2763 -0.8839 -2.5503
   91CHL1    O3 9143   2.103   0.275   7.095 -0.4456 -0.1468  0.3960
   91CHL1   H3' 9144   2.114   0.181   7.081  1.3033 -0.0995  1.3663
   91CHL1    C4 9145   2.086   0.170   7.308  0.2048  0.0881 -0.3249
   91CHL1   H4A 9146   1.987   0.148   7.263 -0.8839 -1.0586  2.4773
   91CHL1   H4B 9147   2.161   0.094   7.277 -0.4790 -0.7180 -0.0231
   91CHL1    C5 9148   2.096   0.187   7.456  0.2054 -0.0336  0.3328
   91CHL1    C6 9149   2.182   0.124   7.535  0.5371  0.1651 -0.3346
   91CHL1    H6 9150   2.252   0.050   7.493  1.4612 -0.1054  1.6018
   91CHL1    C7 9151   2.197   0.145   7.686  0.3307  0.4129 -0.4463
   91CHL1   H7A 9152   2.214   0.043   7.726 -0.9780 -0.6009 -2.3837
   91CHL1   H7B 9153   2.283   0.211   7.711  0.6671  0.8425 -2.6233
   91CHL1    C8 9154   2.068   0.220   7.738  0.5532  0.2391  0.4550
   91CHL1    H8 9155   1.979   0.153   7.739  0.1427  0.7920  2.0250
   91CHL1   C14 9156   2.089   0.269   7.877  0.0816  0.7185  0.1397
   91CHL1   H14 9157   2.163   0.351   7.867  1.2323 -0.5499 -2.1443
   91CHL1   C15 9158   2.160   0.170   7.976 -0.1589 -0.0087 -0.9965
   91CHL1  H15A 9159   2.112   0.071   7.957 -1.5452  0.7939 -1.7521
   91CHL1  H15B 9160   2.267   0.169   7.948 -0.6164  0.3084 -2.8529
   91CHL1   C16 9161   2.134   0.228   8.113  0.4406  0.0458  0.2950
   91CHL1  H16A 9162   2.072   0.157   8.172  1.6153 -0.3095  1.1447
   91CHL1  H16B 9163   2.228   0.252   8.168  1.4218 -1.3102 -0.7528
   91CHL1   C17 9164   2.054   0.366   8.085  0.4849  0.1621  0.5039
   91CHL1   H17 9165   2.127   0.443   8.056 -0.1650  1.5519  2.5004
   91CHL1   C13 9166   1.976   0.338   7.951  0.3115  0.5439 -0.7768
   91CHL1   C18 9167   1.863   0.232   7.966  0.2140 -0.0957  0.1847
   91CHL1  H18A 9168   1.908   0.138   8.006 -1.6976 -0.6345  1.1506
   91CHL1  H18B 9169   1.785   0.270   8.036 -0.3755  2.8480 -2.0030
   91CHL1  H18C 9170   1.806   0.218   7.872 -0.2889  0.7437  0.3658
   91CHL1   C12 9171   1.948   0.464   7.868  0.7038 -0.4891  0.2482
   91CHL1  H12A 9172   1.860   0.515   7.913  1.6187  0.4741  0.9720
   91CHL1  H12B 9173   2.031   0.537   7.873  0.5162 -0.4300  4.1405
   91CHL1   C11 9174   1.926   0.424   7.723  0.2977  0.3189  0.1277
   91CHL1  H11A 9175   1.830   0.368   7.724  1.0841 -1.0614  2.8833
   91CHL1  H11B 9176   1.906   0.519   7.670 -0.4220  1.2894  2.0823
   91CHL1    C9 9177   2.038   0.338   7.654 -0.5616  0.2212  0.2593
   91CHL1    H9 9178   2.126   0.405   7.659 -0.5142  0.1073  1.0791
   91CHL1   C10 9179   2.020   0.314   7.505 -0.0168  0.2000 -0.0524
   91CHL1   C19 9180   1.866   0.282   7.485 -0.6306  0.0472  1.1514
   91CHL1  H19A 9181   1.806   0.375   7.474  2.2983  1.8207 -0.2645
   91CHL1  H19B 9182   1.850   0.224   7.391 -0.3734  0.5768  0.7821
   91CHL1  H19C 9183   1.830   0.221   7.571 -1.4607 -1.5003 -0.2700
   91CHL1    C1 9184   2.064   0.438   7.422 -0.0353  0.6285 -0.3041
   91CHL1   H1A 9185   1.994   0.521   7.447 -0.8290 -0.3086  0.6554
   91CHL1   H1B 9186   2.173   0.454   7.434 -0.2422  1.6251  0.2867
   91CHL1    C2 9187   2.045   0.408   7.277  0.9789 -0.3666  0.3354
   91CHL1   H2A 9188   2.074   0.500   7.221 -1.3841  0.4811  0.4427
   91CHL1   H2B 9189   1.940   0.390   7.243  1.2848  0.0292 -0.8358
   91CHL1   C20 9190   1.980   0.433   8.203  0.0163  0.2935  0.1943
   91CHL1   H20 9191   1.909   0.503   8.154  0.5860  0.3157 -0.6171
   91CHL1   C21 9192   2.087   0.517   8.278  1.1454 -0.4942 -0.3342
   91CHL1  H21A 9193   2.050   0.585   8.358 -0.3707 -1.2875 -0.3425
   91CHL1  H21B 9194   2.147   0.579   8.208  1.5995  0.4357  0.8645
   91CHL1  H21C 9195   2.156   0.453   8.336 -0.5659 -0.8889  1.3294
   91CHL1   C22 9196   1.904   0.343   8.299  0.4678  0.2926 -0.5211
   91CHL1  H22A 9197   1.866   0.252   8.249  2.9998 -1.4242  0.5886
   91CHL1  H22B 9198   1.965   0.307   8.384 -0.3672  0.9838  0.3858
   91CHL1   C23 9199   1.789   0.408   8.382 -0.1957 -0.0762  0.0741
   91CHL1  H23A 9200   1.826   0.470   8.466 -1.4364  0.6826  0.0901
   91CHL1  H23B 9201   1.737   0.477   8.311 -1.8556 -0.2117  1.1322
   91CHL1   C24 9202   1.693   0.296   8.422 -0.3397  0.1549  0.3746
   91CHL1  H24A 9203   1.656   0.258   8.324  2.8965  1.5568 -1.4772
   91CHL1  H24B 9204   1.740   0.219   8.486 -1.3918  0.2070  1.2112
   91CHL1   C25 9205   1.561   0.345   8.494 -0.8907  0.0375  0.0878
   91CHL1   H25 9206   1.536   0.443   8.446  3.0419  2.2221  2.2228
   91CHL1   C26 9207   1.452   0.242   8.478 -0.0919  0.2608  0.5447
   91CHL1  H26A 9208   1.362   0.282   8.530 -0.2326  2.6536 -1.4382
   91CHL1  H26B 9209   1.426   0.238   8.370  1.8472  2.1895 -0.0368
   91CHL1  H26C 9210   1.491   0.143   8.511 -0.7348 -0.7677 -1.6439
   91CHL1   C27 9211   1.581   0.364   8.645 -0.3748  0.4250  0.0670
   91CHL1  H27A 9212   1.498   0.426   8.683  0.7834  0.2756  2.9806
   91CHL1  H27B 9213   1.586   0.266   8.698 -0.6659  1.5903  2.2939
   91CHL1  H27C 9214   1.676   0.418   8.668  0.3602  0.0236 -1.8843
   92CHL1    C3 9215   5.390   2.402   6.686  0.5428 -0.5681 -0.3574
   92CHL1    H3 9216   5.491   2.356   6.677  0.3157 -1.3196  0.9020
   92CHL1    O3 9217   5.352   2.439   6.557  0.5241  0.7559 -0.8824
   92CHL1   H3' 9218   5.387   2.374   6.496 -0.5574  1.1318 -1.9280
   92CHL1    C4 9219   5.292   2.303   6.746  0.2963 -1.2850 -0.5024
   92CHL1   H4A 9220   5.188   2.341   6.751  0.3018 -1.5333  2.3665
   92CHL1   H4B 9221   5.293   2.222   6.669 -3.8840 -2.7511  0.8717
   92CHL1    C5 9222   5.342   2.258   6.880 -0.0105 -0.5199 -0.2912
   92CHL1    C6 9223   5.357   2.123   6.909  0.3389  0.0967 -0.2985
   92CHL1    H6 9224   5.337   2.042   6.836  2.1699  0.2663 -1.0140
   92CHL1    C7 9225   5.407   2.079   7.048  0.0971 -0.3133 -0.5147
   92CHL1   H7A 9226   5.343   1.994   7.082 -1.9222  1.6253  0.7119
   92CHL1   H7B 9227   5.514   2.050   7.051  0.1154 -0.5858 -2.9666
   92CHL1    C8 9228   5.379   2.196   7.155 -0.7911  0.0957 -0.0502
   92CHL1    H8 9229   5.268   2.199   7.163 -0.6283  0.5002  2.2738
   92CHL1   C14 9230   5.447   2.155   7.285  0.7702  0.6514  0.6613
   92CHL1   H14 9231   5.553   2.146   7.251  0.2162  2.1685 -1.5983
   92CHL1   C15 9232   5.398   2.024   7.350 -0.2564 -0.2526  0.1759
   92CHL1  H15A 9233   5.288   2.022   7.337 -0.3903 -2.0235  1.3718
   92CHL1  H15B 9234   5.440   1.933   7.300 -3.1622 -0.1396 -2.6201
   92CHL1   C16 9235   5.445   2.042   7.497 -0.2025 -0.1732 -0.0031
   92CHL1  H16A 9236   5.362   2.024   7.568  0.9502  2.6329  2.1958
   92CHL1  H16B 9237   5.527   1.969   7.517 -1.6976 -2.5429 -2.3356
   92CHL1   C17 9238   5.495   2.190   7.522  0.4791  0.6039  0.1218
   92CHL1   H17 9239   5.606   2.194   7.508  0.4677  0.7594  0.0787
   92CHL1   C13 9240   5.435   2.263   7.399  0.7276 -0.3568 -0.4078
   92CHL1   C18 9241   5.286   2.303   7.425  0.4024  0.2453 -0.1653
   92CHL1  H18A 9242   5.289   2.379   7.507  2.1671  1.3174 -1.1831
   92CHL1  H18B 9243   5.240   2.347   7.334 -2.6627 -0.9521  0.7616
   92CHL1  H18C 9244   5.210   2.225   7.449 -0.6058  0.7196 -1.7576
   92CHL1   C12 9245   5.515   2.383   7.350  0.1225 -0.1415 -0.0066
   92CHL1  H12A 9246   5.513   2.465   7.425 -1.4940  1.3453 -1.6213
   92CHL1  H12B 9247   5.619   2.345   7.344 -0.0044 -0.4419 -0.3581
   92CHL1   C11 9248   5.464   2.435   7.213 -0.1253 -0.8054 -0.0608
   92CHL1  H11A 9249   5.370   2.495   7.219  1.2373  1.7677 -2.8846
   92CHL1  H11B 9250   5.544   2.499   7.169 -0.2789  0.8771  1.9968
   92CHL1    C9 9251   5.443   2.324   7.110  0.0474 -0.0649  0.1942
   92CHL1    H9 9252   5.548   2.304   7.079 -0.4349 -2.0394 -0.2739
   92CHL1   C10 9253   5.367   2.367   6.984  0.2996 -0.4763  0.1254
   92CHL1   C19 9254   5.224   2.422   7.023 -1.2134  0.1001  0.1353
   92CHL1  H19A 9255   5.163   2.435   6.931 -0.2774  0.7797 -0.4029
   92CHL1  H19B 9256   5.179   2.366   7.107 -0.1640 -0.1147  0.5609
   92CHL1  H19C 9257   5.240   2.526   7.061  0.2198 -0.9605  2.5374
   92CHL1    C1 9258   5.444   2.492   6.922  0.2149  0.4521  0.1649
   92CHL1   H1A 9259   5.425   2.578   6.989 -0.3890 -0.4701  1.2179
   92CHL1   H1B 9260   5.553   2.475   6.923  0.6837  3.3968  1.0966
   92CHL1    C2 9261   5.403   2.528   6.777 -0.2850  0.2327  0.1676
   92CHL1   H2A 9262   5.482   2.598   6.743 -0.6747 -0.1647 -1.6444
   92CHL1   H2B 9263   5.300   2.571   6.777  0.0665  1.1056 -0.9967
   92CHL1   C20 9264   5.467   2.242   7.665  0.6908  0.1803 -0.6610
   92CHL1   H20 9265   5.357   2.245   7.680  1.1155  0.6174  2.8817
   92CHL1   C21 9266   5.536   2.385   7.685  0.7840 -0.3142  0.1217
   92CHL1  H21A 9267   5.478   2.465   7.633  1.8164  1.0372  1.0294
   92CHL1  H21B 9268   5.637   2.380   7.639  0.3227  0.1889 -0.9650
   92CHL1  H21C 9269   5.552   2.403   7.793  0.5821 -0.1670  0.1297
   92CHL1   C22 9270   5.515   2.147   7.786  0.6833 -0.3373 -0.0562
   92CHL1  H22A 9271   5.471   2.179   7.882 -0.3934 -1.1498 -0.2686
   92CHL1  H22B 9272   5.496   2.041   7.759 -0.3970 -0.2546  0.3575
   92CHL1   C23 9273   5.666   2.151   7.821  0.2564 -0.4887  0.1310
   92CHL1  H23A 9274   5.720   2.155   7.724  2.1305 -0.5722  1.1423
   92CHL1  H23B 9275   5.697   2.247   7.870 -0.1545  0.6516 -1.7863
   92CHL1   C24 9276   5.704   2.024   7.901 -1.0072 -0.2889 -0.9689
   92CHL1  H24A 9277   5.674   1.932   7.847  0.9691  0.0125 -2.6357
   92CHL1  H24B 9278   5.814   2.009   7.908 -0.9182  0.4117 -0.8214
   92CHL1   C25 9279   5.653   2.014   8.047 -0.2228  0.1493 -0.9252
   92CHL1   H25 9280   5.543   2.031   8.054 -0.3856 -1.1460 -0.1143
   92CHL1   C26 9281   5.700   1.878   8.106 -1.1792 -0.8662 -0.3075
   92CHL1  H26A 9282   5.665   1.796   8.039 -1.1055 -0.8121 -0.4119
   92CHL1  H26B 9283   5.811   1.871   8.111 -1.3442 -3.1417  0.8059
   92CHL1  H26C 9284   5.656   1.853   8.205 -0.8215  1.2180  0.3984
   92CHL1   C27 9285   5.716   2.123   8.134 -0.5552  0.3246  0.5632
   92CHL1  H27A 9286   5.681   2.120   8.239 -0.4105 -1.6317  0.5721
   92CHL1  H27B 9287   5.827   2.132   8.134 -0.6144  1.9189 -3.0573
   92CHL1  H27C 9288   5.679   2.218   8.091 -1.2587  0.4751  1.4833
   93CHL1    C3 9289   3.713   6.810   7.066  0.3346  0.1494 -0.0261
   93CHL1    H3 9290   3.608   6.791   7.096 -0.1108  2.3932 -0.0568
   93CHL1    O3 9291   3.715   6.851   6.930  0.3476 -0.2127  0.2708
   93CHL1   H3' 9292   3.805   6.841   6.899  1.1206  1.0129  2.0424
   93CHL1    C4 9293   3.771   6.922   7.156 -0.2775  0.0063  0.4444
   93CHL1   H4A 9294   3.859   6.968   7.105 -0.8298 -1.9260 -2.3500
   93CHL1   H4B 9295   3.693   7.001   7.159  0.5829  0.9462 -1.0236
   93CHL1    C5 9296   3.801   6.882   7.298  0.4194  0.0347  0.3074
   93CHL1    C6 9297   3.751   6.962   7.396  0.7413 -0.2033  0.6687
   93CHL1    H6 9298   3.690   7.049   7.368  0.0933 -0.2973  1.7953
   93CHL1    C7 9299   3.770   6.928   7.544  0.0443  0.3144 -0.0751
   93CHL1   H7A 9300   3.785   7.017   7.609  0.6744  0.8549 -0.9353
   93CHL1   H7B 9301   3.679   6.871   7.571  0.3059 -1.2188 -2.2654
   93CHL1    C8 9302   3.886   6.822   7.573  0.0950  0.5502 -0.1535
   93CHL1    H8 9303   3.983   6.876   7.564  0.6970 -0.3961  0.6241
   93CHL1   C14 9304   3.871   6.772   7.710 -0.5051 -0.1536  1.3735
   93CHL1   H14 9305   3.782   6.706   7.719  0.2283 -1.9048 -2.7271
   93CHL1   C15 9306   3.867   6.870   7.826  0.0482  0.5818  0.7104
   93CHL1  H15A 9307   3.965   6.919   7.810  0.1485 -0.1519 -1.1083
   93CHL1  H15B 9308   3.790   6.950   7.832 -0.9163 -0.1624 -1.2264
   93CHL1   C16 9309   3.872   6.776   7.952  0.1679  0.2239  0.0628
   93CHL1  H16A 9310   3.916   6.825   8.041  0.6147 -1.1368  0.6022
   93CHL1  H16B 9311   3.770   6.754   7.990 -0.1575  0.1587 -0.8233
   93CHL1   C17 9312   3.939   6.647   7.896  0.6886  0.0925  0.2903
   93CHL1   H17 9313   3.861   6.569   7.886 -0.5578  1.4790 -1.1235
   93CHL1   C13 9314   3.978   6.668   7.752 -0.1829 -0.6069  0.1119
   93CHL1   C18 9315   4.126   6.721   7.749  0.0822 -0.5966 -0.1381
   93CHL1  H18A 9316   4.163   6.753   7.650  0.6630  1.5553  0.7399
   93CHL1  H18B 9317   4.136   6.800   7.826 -0.4924  0.1313 -0.8038
   93CHL1  H18C 9318   4.184   6.634   7.786 -0.5050 -0.3681  1.3571
   93CHL1   C12 9319   3.958   6.548   7.654  0.4057  0.1368  0.6220
   93CHL1  H12A 9320   4.032   6.466   7.669  1.0206  0.1198 -2.2616
   93CHL1  H12B 9321   3.858   6.502   7.671  0.0644 -0.2262 -2.2323
   93CHL1   C11 9322   3.974   6.590   7.505  0.3806  0.1317  0.0073
   93CHL1  H11A 9323   4.075   6.634   7.490  1.4351 -2.5685 -1.1024
   93CHL1  H11B 9324   3.948   6.509   7.434 -0.5507 -0.1131  0.6141
   93CHL1    C9 9325   3.873   6.702   7.478 -0.1543  0.1671 -0.2040
   93CHL1    H9 9326   3.775   6.653   7.496  0.1283 -0.3095  0.0410
   93CHL1   C10 9327   3.877   6.751   7.325  0.0387  0.0152  0.1060
   93CHL1   C19 9328   4.023   6.782   7.293 -0.6683  0.3136 -0.1170
   93CHL1  H19A 9329   4.069   6.847   7.371 -1.0479 -0.7065  0.9742
   93CHL1  H19B 9330   4.074   6.684   7.282 -0.1005  0.6177 -0.1600
   93CHL1  H19C 9331   4.034   6.835   7.196  2.3936  1.5712  0.8794
   93CHL1    C1 9332   3.817   6.635   7.230 -0.1569  0.0469  0.4873
   93CHL1   H1A 9333   3.884   6.546   7.227  0.3509  0.4752 -1.2286
   93CHL1   H1B 9334   3.719   6.610   7.277 -0.5843  1.9325  0.6272
   93CHL1    C2 9335   3.796   6.683   7.086 -0.0581 -0.4933  0.2667
   93CHL1   H2A 9336   3.757   6.597   7.028 -0.5241 -0.1311  0.0422
   93CHL1   H2B 9337   3.898   6.701   7.045 -0.2357 -1.2206 -0.5055
   93CHL1   C20 9338   4.040   6.582   7.992  0.1666  0.4211 -0.0737
   93CHL1   H20 9339   4.131   6.646   7.993  1.2140 -1.0577  1.5846
   93CHL1   C21 9340   4.089   6.444   7.945  0.4939  0.9372 -0.4513
   93CHL1  H21A 9341   4.013   6.363   7.938 -1.4281  2.5229  1.5538
   93CHL1  H21B 9342   4.180   6.411   8.000 -0.3135 -0.9018 -0.1630
   93CHL1  H21C 9343   4.120   6.458   7.839  1.6371 -0.8568 -0.3729
   93CHL1   C22 9344   3.992   6.563   8.147 -0.0067 -0.4176  0.1179
   93CHL1  H22A 9345   4.080   6.553   8.214  1.1675  0.0721 -1.3141
   93CHL1  H22B 9346   3.954   6.661   8.182  1.5767  0.4821 -0.6307
   93CHL1   C23 9347   3.887   6.453   8.172 -0.1209  0.0863  0.3744
   93CHL1  H23A 9348   3.801   6.471   8.103  0.7183 -2.4492 -1.3986
   93CHL1  H23B 9349   3.927   6.352   8.148  1.9977  0.7603  0.9959
   93CHL1   C24 9350   3.828   6.464   8.311 -0.0294  0.4009  0.6155
   93CHL1  H24A 9351   3.909   6.465   8.387  2.2241  0.3763 -1.6870
   93CHL1  H24B 9352   3.759   6.551   8.312 -2.3540 -1.4024  2.9876
   93CHL1   C25 9353   3.752   6.330   8.353  0.0854 -0.3226 -0.0680
   93CHL1   H25 9354   3.692   6.290   8.269  0.2793  0.2891 -0.5036
   93CHL1   C26 9355   3.856   6.221   8.388  0.5041 -0.6727 -0.6347
   93CHL1  H26A 9356   3.900   6.191   8.291 -0.0123  0.3542 -1.1952
   93CHL1  H26B 9357   3.942   6.258   8.448  0.9693 -2.5791 -0.1077
   93CHL1  H26C 9358   3.816   6.134   8.444 -0.0846 -0.0782 -0.1038
   93CHL1   C27 9359   3.654   6.340   8.464 -0.3753 -0.1263  0.0499
   93CHL1  H27A 9360   3.562   6.402   8.455  0.3185  0.9118 -0.0089
   93CHL1  H27B 9361   3.607   6.242   8.488 -2.6852  0.4251 -2.0101
   93CHL1  H27C 9362   3.702   6.375   8.558 -0.4289 -0.3581  0.1653
   94CHL1    C3 9363   6.199   2.988   6.931  0.6205 -0.1684  0.9976
   94CHL1    H3 9364   6.249   3.082   6.962  2.0648 -0.8519  0.7668
   94CHL1    O3 9365   6.158   2.990   6.793 -0.9009 -0.0343  0.8583
   94CHL1   H3' 9366   6.090   2.922   6.787 -0.9425  0.1675 -1.2588
   94CHL1    C4 9367   6.294   2.873   6.944  0.0475 -0.7774  0.0824
   94CHL1   H4A 9368   6.244   2.778   6.916  3.3582 -2.3894 -0.5339
   94CHL1   H4B 9369   6.382   2.886   6.877 -0.0071  0.6225  0.2666
   94CHL1    C5 9370   6.342   2.865   7.087 -0.2085  0.4190  0.3517
   94CHL1    C6 9371   6.474   2.885   7.117 -0.0634  0.2858 -0.8034
   94CHL1    H6 9372   6.540   2.880   7.029  0.3636 -2.1236 -0.3779
   94CHL1    C7 9373   6.527   2.894   7.256  0.6143 -0.2403 -0.0347
   94CHL1   H7A 9374   6.628   2.849   7.256  1.1956  0.9887  1.6237
   94CHL1   H7B 9375   6.545   3.001   7.281 -1.3828 -0.1920  1.3672
   94CHL1    C8 9376   6.427   2.816   7.357 -0.1647  0.4660  0.5137
   94CHL1    H8 9377   6.450   2.710   7.333  2.3597  0.9354  0.7101
   94CHL1   C14 9378   6.464   2.839   7.505 -0.2153 -0.1337 -0.1077
   94CHL1   H14 9379   6.450   2.948   7.516 -0.2866 -0.1259 -0.2786
   94CHL1   C15 9380   6.612   2.822   7.552 -0.8210 -0.9699 -0.0204
   94CHL1  H15A 9381   6.661   2.727   7.522  0.4479 -0.3444  0.0356
   94CHL1  H15B 9382   6.681   2.901   7.514 -1.7465 -1.0783 -2.0059
   94CHL1   C16 9383   6.598   2.820   7.704  0.0620 -0.0113 -1.0427
   94CHL1  H16A 9384   6.647   2.729   7.744 -0.2758 -0.9078 -2.6107
   94CHL1  H16B 9385   6.642   2.908   7.755 -1.7624  0.6856 -0.6120
   94CHL1   C17 9386   6.442   2.821   7.734 -0.3171 -0.1364  0.5406
   94CHL1   H17 9387   6.404   2.925   7.736 -1.1595 -0.4620  1.8462
   94CHL1   C13 9388   6.374   2.766   7.610 -0.2838 -0.3053  0.0473
   94CHL1   C18 9389   6.390   2.613   7.600 -0.1300  0.0216  1.1920
   94CHL1  H18A 9390   6.374   2.582   7.495 -2.3137  1.3588  1.0882
   94CHL1  H18B 9391   6.493   2.580   7.624  0.7031  1.4551 -0.3418
   94CHL1  H18C 9392   6.328   2.550   7.668  0.2940 -1.1777  0.4733
   94CHL1   C12 9393   6.230   2.821   7.589 -0.0472  0.2630 -0.4766
   94CHL1  H12A 9394   6.173   2.751   7.654 -0.1878  0.2366 -0.6309
   94CHL1  H12B 9395   6.213   2.927   7.618  1.1914 -0.1869  2.0496
   94CHL1   C11 9396   6.185   2.795   7.447  0.4435 -0.1565 -0.2408
   94CHL1  H11A 9397   6.183   2.684   7.445 -0.5449 -0.2123  2.0712
   94CHL1  H11B 9398   6.080   2.825   7.430  0.2999 -1.6687 -2.1307
   94CHL1    C9 9399   6.282   2.858   7.335  0.3090  0.1667  0.1427
   94CHL1    H9 9400   6.295   2.966   7.355  1.1595 -0.1289  1.2642
   94CHL1   C10 9401   6.227   2.851   7.196  0.1229 -0.2693 -0.1594
   94CHL1   C19 9402   6.176   2.716   7.160 -0.5275 -0.1189  0.3566
   94CHL1  H19A 9403   6.117   2.709   7.066  0.2867  0.5085 -0.2025
   94CHL1  H19B 9404   6.257   2.640   7.167 -0.9056 -0.7220 -1.4510
   94CHL1  H19C 9405   6.098   2.682   7.232 -0.5136  1.2710  1.0513
   94CHL1    C1 9406   6.117   2.959   7.173 -0.4672 -0.5303  0.3203
   94CHL1   H1A 9407   6.037   2.932   7.245 -0.7494 -1.9001 -0.5024
   94CHL1   H1B 9408   6.169   3.054   7.201 -1.3314 -0.8947  3.3315
   94CHL1    C2 9409   6.078   2.968   7.027 -0.6563 -0.1372  0.0647
   94CHL1   H2A 9410   6.011   3.056   7.031 -1.1010 -0.4610 -0.2860
   94CHL1   H2B 9411   6.005   2.892   6.994 -0.0656 -0.2710 -0.9725
   94CHL1   C20 9412   6.387   2.757   7.863  0.0924  0.1814 -0.1423
   94CHL1   H20 9413   6.288   2.710   7.847  0.2616 -0.3324  0.3109
   94CHL1   C21 9414   6.390   2.876   7.967 -0.7648  0.2112  0.8341
   94CHL1  H21A 9415   6.314   2.949   7.932 -1.1890 -0.0907  1.1244
   94CHL1  H21B 9416   6.486   2.932   7.970 -0.2852 -0.4624 -1.0416
   94CHL1  H21C 9417   6.369   2.842   8.071 -0.4229  3.0419  1.8822
   94CHL1   C22 9418   6.477   2.644   7.931  0.0178 -0.6022 -0.1060
   94CHL1  H22A 9419   6.517   2.584   7.847 -0.0688 -1.0409  0.1633
   94CHL1  H22B 9420   6.563   2.702   7.970  0.1210  1.6277 -3.4461
   94CHL1   C23 9421   6.408   2.567   8.048 -0.4076  0.0100 -0.4002
   94CHL1  H23A 9422   6.401   2.639   8.132 -1.9898  1.8264 -2.0512
   94CHL1  H23B 9423   6.307   2.528   8.023 -0.4830 -1.5432  2.1697
   94CHL1   C24 9424   6.499   2.449   8.101 -0.0076 -0.5539  0.1668
   94CHL1  H24A 9425   6.500   2.376   8.018  0.2078 -0.0332 -0.2935
   94CHL1  H24B 9426   6.604   2.482   8.117 -0.1218  0.2250 -0.6136
   94CHL1   C25 9427   6.440   2.388   8.226  0.1189  0.0024 -1.0191
   94CHL1   H25 9428   6.413   2.479   8.283  0.1572 -0.2543 -0.5883
   94CHL1   C26 9429   6.311   2.304   8.197  0.4178  0.2154 -0.2748
   94CHL1  H26A 9430   6.260   2.258   8.285 -2.0136 -1.8467 -2.6657
   94CHL1  H26B 9431   6.237   2.374   8.154 -0.4941  0.6754  1.9993
   94CHL1  H26C 9432   6.353   2.230   8.125  1.6106  1.5100 -0.9255
   94CHL1   C27 9433   6.539   2.287   8.293  0.4203  0.0615  0.7695
   94CHL1  H27A 9434   6.560   2.203   8.223 -1.4679 -0.2856  0.5981
   94CHL1  H27B 9435   6.640   2.328   8.312  1.2956 -1.0517 -1.3670
   94CHL1  H27C 9436   6.484   2.250   8.382 -2.1482 -0.2130 -0.8832
   95CHL1    C3 9437   5.858   1.891   6.738 -0.4444  0.7519 -0.0399
   95CHL1    H3 9438   5.905   1.791   6.755 -0.7477  0.2235 -2.1418
   95CHL1    O3 9439   5.846   1.931   6.604  0.2437 -0.1778  0.0447
   95CHL1   H3' 9440   5.769   1.890   6.563 -0.0959 -0.1696  0.6806
   95CHL1    C4 9441   5.727   1.890   6.819  0.1622  0.5007 -0.8136
   95CHL1   H4A 9442   5.698   1.997   6.825  0.0640  0.4023  0.4043
   95CHL1   H4B 9443   5.641   1.839   6.770  0.9211 -1.5325 -0.0774
   95CHL1    C5 9444   5.750   1.860   6.964  0.1259 -0.8203 -0.3509
   95CHL1    C6 9445   5.682   1.764   7.020  0.3301  0.4323 -0.0003
   95CHL1    H6 9446   5.614   1.713   6.950  0.5069  0.4292 -0.1708
   95CHL1    C7 9447   5.678   1.723   7.160 -0.1083 -0.0487 -0.4470
   95CHL1   H7A 9448   5.580   1.709   7.210  1.0512 -3.0424  1.1046
   95CHL1   H7B 9449   5.721   1.620   7.161  1.0270  0.4148 -0.3254
   95CHL1    C8 9450   5.773   1.818   7.243  0.0758 -0.7009 -0.2544
   95CHL1    H8 9451   5.716   1.907   7.279 -0.5331 -0.7372 -1.1037
   95CHL1   C14 9452   5.810   1.742   7.365  0.0712 -0.0592  0.0418
   95CHL1   H14 9453   5.873   1.661   7.323  0.3687 -0.3086  0.9727
   95CHL1   C15 9454   5.702   1.673   7.451  0.6979  0.2570 -0.1093
   95CHL1  H15A 9455   5.616   1.741   7.469 -0.0940 -0.4149 -1.2605
   95CHL1  H15B 9456   5.654   1.585   7.403  2.5112  0.6648 -2.8235
   95CHL1   C16 9457   5.780   1.627   7.583 -0.7540 -0.0130 -0.3319
   95CHL1  H16A 9458   5.723   1.658   7.673 -0.5892 -0.1428 -0.1817
   95CHL1  H16B 9459   5.786   1.516   7.581  0.1658 -0.1337  4.0871
   95CHL1   C17 9460   5.923   1.691   7.562  0.4934 -0.0898 -0.1272
   95CHL1   H17 9461   5.978   1.610   7.509  0.0030  1.0949 -2.4748
   95CHL1   C13 9462   5.907   1.810   7.464 -0.0322  0.8470  0.2647
   95CHL1   C18 9463   5.833   1.916   7.546  0.4485  0.2054 -0.0623
   95CHL1  H18A 9464   5.742   1.878   7.598  1.0067 -1.7079 -0.4605
   95CHL1  H18B 9465   5.894   1.959   7.628  0.4301 -0.9961  0.5988
   95CHL1  H18C 9466   5.799   1.999   7.481  0.3614 -0.4737 -0.9006
   95CHL1   C12 9467   6.029   1.866   7.397 -0.7730  0.1069 -0.0948
   95CHL1  H12A 9468   6.083   1.933   7.467 -0.5567  2.0606 -2.0867
   95CHL1  H12B 9469   6.097   1.785   7.364 -1.1070 -0.5419  0.7918
   95CHL1   C11 9470   5.997   1.946   7.265 -0.3328  0.3067  0.3932
   95CHL1  H11A 9471   5.966   2.045   7.304  0.8654  0.5798  0.6886
   95CHL1  H11B 9472   6.095   1.957   7.213 -1.2871  1.4721 -1.1760
   95CHL1    C9 9473   5.897   1.872   7.173 -0.1708  0.3235  0.1294
   95CHL1    H9 9474   5.955   1.779   7.155 -1.2863 -0.6475  1.4761
   95CHL1   C10 9475   5.860   1.942   7.036 -0.0868 -0.8399 -1.0479
   95CHL1   C19 9476   5.805   2.084   7.061  0.8875 -0.5611  0.0941
   95CHL1  H19A 9477   5.886   2.125   7.124  1.1755 -0.4520 -0.3489
   95CHL1  H19B 9478   5.791   2.143   6.968 -0.3967  1.7355  1.6736
   95CHL1  H19C 9479   5.718   2.082   7.130  1.3745  0.0736  0.7292
   95CHL1    C1 9480   5.984   1.950   6.952  0.8356  0.3340  0.1187
   95CHL1   H1A 9481   6.048   2.027   6.999 -1.5017  1.7608  1.0604
   95CHL1   H1B 9482   6.031   1.850   6.940 -0.4892 -0.3202  0.2400
   95CHL1    C2 9483   5.955   1.989   6.804  0.0991  0.0310  0.6031
   95CHL1   H2A 9484   6.049   1.991   6.745  0.2052 -0.6172  0.7445
   95CHL1   H2B 9485   5.906   2.089   6.802  0.8109  0.3970  1.4201
   95CHL1   C20 9486   6.009   1.700   7.689  0.1654  0.3395 -0.1882
   95CHL1   H20 9487   6.004   1.798   7.741 -0.9885 -0.4108  1.1526
   95CHL1   C21 9488   6.155   1.702   7.654  0.4904 -0.3432  0.5021
   95CHL1  H21A 9489   6.225   1.712   7.740  0.9193 -1.7857  0.3223
   95CHL1  H21B 9490   6.184   1.779   7.578  0.5102 -2.0301 -1.2419
   95CHL1  H21C 9491   6.187   1.605   7.612  0.3006  0.0987 -0.6863
   95CHL1   C22 9492   5.965   1.591   7.791 -0.0348  0.1796  0.2119
   95CHL1  H22A 9493   5.867   1.621   7.835 -0.8980 -1.5210 -0.5344
   95CHL1  H22B 9494   5.958   1.486   7.757 -0.0985  0.4955 -0.7694
   95CHL1   C23 9495   6.057   1.583   7.913 -0.5097  0.5844 -0.3078
   95CHL1  H23A 9496   6.157   1.539   7.891 -0.7860 -0.7403  0.9772
   95CHL1  H23B 9497   6.086   1.683   7.950  0.5459  0.1242  0.1308
   95CHL1   C24 9498   5.991   1.493   8.022 -0.5791 -0.0909 -0.5398
   95CHL1  H24A 9499   5.904   1.549   8.062 -0.7685 -1.4270  0.9749
   95CHL1  H24B 9500   5.946   1.405   7.969 -0.0907 -1.7264  1.7018
   95CHL1   C25 9501   6.092   1.452   8.128 -0.4793 -0.3465 -0.2691
   95CHL1   H25 9502   6.168   1.394   8.072 -1.5597  0.8494 -3.0879
   95CHL1   C26 9503   6.156   1.570   8.199 -0.2289 -0.5978 -0.0647
   95CHL1  H26A 9504   6.207   1.635   8.125 -2.3604  1.6217  0.3683
   95CHL1  H26B 9505   6.079   1.632   8.249 -0.4714 -1.8540  1.1472
   95CHL1  H26C 9506   6.227   1.536   8.278 -1.6197 -0.1381  1.4097
   95CHL1   C27 9507   6.042   1.356   8.241  1.1668  0.7351 -0.0531
   95CHL1  H27A 9508   6.121   1.344   8.319 -0.6369  2.2244  2.0662
   95CHL1  H27B 9509   5.952   1.403   8.287  1.5960  0.7549  0.7859
   95CHL1  H27C 9510   6.009   1.255   8.210  0.7690  0.1280  2.2320
   96CHL1    C3 9511   5.614   1.225   6.843  0.2645  0.1332 -0.0049
   96CHL1    H3 9512   5.690   1.145   6.837  1.7255  1.4593  0.3757
   96CHL1    O3 9513   5.595   1.264   6.705  0.3782 -0.0998  0.2007
   96CHL1   H3' 9514   5.619   1.356   6.696 -0.4693 -0.0067 -1.1193
   96CHL1    C4 9515   5.481   1.194   6.903  0.2099  0.4294  0.9607
   96CHL1   H4A 9516   5.420   1.286   6.899  1.8923  1.5744  1.1099
   96CHL1   H4B 9517   5.417   1.124   6.845 -1.4158  1.7679  1.1174
   96CHL1    C5 9518   5.506   1.149   7.050 -0.4900  0.2752  0.0256
   96CHL1    C6 9519   5.443   1.034   7.090 -0.3621 -0.3535  0.3747
   96CHL1    H6 9520   5.386   0.971   7.020  0.8621 -0.4672 -0.5458
   96CHL1    C7 9521   5.444   0.975   7.233  0.3591  0.1828  0.9784
   96CHL1   H7A 9522   5.348   0.943   7.278 -0.9045  0.9534 -1.1101
   96CHL1   H7B 9523   5.512   0.887   7.237 -0.0417 -0.2225 -0.7358
   96CHL1    C8 9524   5.499   1.082   7.337  0.0988  0.6548 -0.2625
   96CHL1    H8 9525   5.411   1.149   7.351 -0.1213  0.6707 -1.6145
   96CHL1   C14 9526   5.528   1.018   7.476 -0.8083 -0.2418 -0.4390
   96CHL1   H14 9527   5.616   0.956   7.446 -1.2149  0.5775 -3.4787
   96CHL1   C15 9528   5.419   0.932   7.538 -0.3393 -0.9606  0.4809
   96CHL1  H15A 9529   5.316   0.973   7.531 -0.3664 -1.4557 -3.0280
   96CHL1  H15B 9530   5.396   0.839   7.481 -1.6145 -0.8057  0.7294
   96CHL1   C16 9531   5.457   0.921   7.690 -0.3029  0.6088  0.3940
   96CHL1  H16A 9532   5.367   0.953   7.745  0.3423  1.7350  0.8098
   96CHL1  H16B 9533   5.484   0.814   7.707  0.1847  0.9746  1.9702
   96CHL1   C17 9534   5.578   1.020   7.707  0.2093  0.1897  0.4564
   96CHL1   H17 9535   5.675   0.967   7.699  0.6708  0.7933  1.9461
   96CHL1   C13 9536   5.565   1.111   7.588 -0.3639 -0.5521 -0.2154
   96CHL1   C18 9537   5.451   1.224   7.607 -0.2293 -0.3242  0.6097
   96CHL1  H18A 9538   5.469   1.285   7.698 -2.6286 -0.5915  1.2904
   96CHL1  H18B 9539   5.444   1.285   7.515 -2.6092 -2.2879 -0.5581
   96CHL1  H18C 9540   5.350   1.179   7.610 -1.4401  2.2131 -1.0134
   96CHL1   C12 9541   5.690   1.187   7.539 -0.1849 -0.2657  0.1302
   96CHL1  H12A 9542   5.724   1.262   7.614  1.5343 -0.7184 -0.1793
   96CHL1  H12B 9543   5.774   1.115   7.528  1.4994  1.9150 -2.0015
   96CHL1   C11 9544   5.677   1.258   7.400 -0.0244 -0.1952 -1.0265
   96CHL1  H11A 9545   5.607   1.343   7.411 -0.2809 -0.3795 -1.2419
   96CHL1  H11B 9546   5.775   1.291   7.361  0.1524  0.6284  0.0881
   96CHL1    C9 9547   5.616   1.164   7.288  0.1104  0.9101 -0.2090
   96CHL1    H9 9548   5.691   1.089   7.253  1.9745  2.6264  0.0703
   96CHL1   C10 9549   5.582   1.239   7.152 -0.0036  0.0410  0.4005
   96CHL1   C19 9550   5.493   1.354   7.181 -0.0279 -0.0058  0.5236
   96CHL1  H19A 9551   5.405   1.316   7.237  0.3768 -3.2170 -0.9204
   96CHL1  H19B 9552   5.536   1.440   7.238  1.1138 -0.3356  0.1757
   96CHL1  H19C 9553   5.454   1.395   7.086  0.5896 -1.2049 -0.2488
   96CHL1    C1 9554   5.713   1.293   7.082 -0.1427 -0.5465  0.0361
   96CHL1   H1A 9555   5.746   1.380   7.141 -2.3434  0.6883 -0.4828
   96CHL1   H1B 9556   5.790   1.214   7.072 -1.1307 -1.3908 -1.2032
   96CHL1    C2 9557   5.684   1.337   6.935 -0.4619 -0.4795 -0.3809
   96CHL1   H2A 9558   5.785   1.365   6.899 -0.6974  0.0308 -0.6433
   96CHL1   H2B 9559   5.622   1.429   6.937  1.5794  0.9569 -1.6684
   96CHL1   C20 9560   5.594   1.073   7.849 -0.2099  0.7708 -0.3282
   96CHL1   H20 9561   5.499   1.129   7.861 -0.6038  0.0885 -0.2347
   96CHL1   C21 9562   5.709   1.175   7.879 -0.6906  0.3294 -0.7074
   96CHL1  H21A 9563   5.732   1.180   7.988  0.2336 -0.6713 -0.8529
   96CHL1  H21B 9564   5.682   1.280   7.855  1.2671  0.9150 -0.4478
   96CHL1  H21C 9565   5.803   1.152   7.825 -1.0942 -0.1869 -1.1877
   96CHL1   C22 9566   5.591   0.966   7.965  0.1869  0.6360 -0.6320
   96CHL1  H22A 9567   5.590   1.024   8.060 -0.3994 -0.4876  0.0562
   96CHL1  H22B 9568   5.495   0.910   7.967 -0.0284  1.0214  0.7052
   96CHL1   C23 9569   5.712   0.882   7.964  0.2049  0.5981  0.0210
   96CHL1  H23A 9570   5.687   0.821   7.874 -1.0917  0.9794  0.1152
   96CHL1  H23B 9571   5.793   0.953   7.938 -1.2978  2.4710  0.3651
   96CHL1   C24 9572   5.742   0.800   8.090 -0.4893 -0.4768  0.0222
   96CHL1  H24A 9573   5.683   0.706   8.081 -2.3497  0.8041 -1.3675
   96CHL1  H24B 9574   5.847   0.764   8.084 -0.1394  0.1454  1.9793
   96CHL1   C25 9575   5.736   0.880   8.225  0.3466  0.3118 -1.1207
   96CHL1   H25 9576   5.631   0.911   8.241  0.1292 -0.5307 -0.8876
   96CHL1   C26 9577   5.773   0.782   8.340 -0.6878 -0.4697  0.1228
   96CHL1  H26A 9578   5.774   0.839   8.435 -2.6391 -0.4084  0.1333
   96CHL1  H26B 9579   5.694   0.706   8.358 -0.4138 -0.4106  1.7233
   96CHL1  H26C 9580   5.870   0.731   8.319 -0.7012 -0.6847  0.5686
   96CHL1   C27 9581   5.826   1.009   8.240  0.3829 -0.7560  0.2162
   96CHL1  H27A 9582   5.802   1.089   8.166 -0.0386  0.5146  1.6948
   96CHL1  H27B 9583   5.809   1.046   8.344  0.3084 -0.3925  0.0774
   96CHL1  H27C 9584   5.933   0.986   8.227  0.7485  1.5594 -1.1487
   97OSM      N 9585   3.278   1.120  11.238  0.3407 -0.8581  0.1521
   97OSM    C15 9586   3.165   1.097  11.333 -0.1938  0.3042  0.3414
   97OSM   H15A 9587   3.191   1.026  11.411  1.1692  1.3851  0.8918
   97OSM   H15B 9588   3.078   1.061  11.280 -1.1380  0.4956  1.6994
   97OSM   H15C 9589   3.131   1.183  11.389  0.4994 -0.8952  2.7115
   97OSM    C14 9590   3.346   0.991  11.199 -0.3476 -0.1461 -0.3989
   97OSM   H14A 9591   3.278   0.921  11.154  0.7544 -2.1474  0.9473
   97OSM   H14B 9592   3.388   0.948  11.289 -1.8890 -2.4183 -0.7196
   97OSM   H14C 9593   3.433   1.024  11.143  0.2618 -0.9691  0.0404
   97OSM    C13 9594   3.219   1.190  11.117 -0.3413  0.5519 -0.6453
   97OSM   H13A 9595   3.154   1.267  11.155  0.8431 -0.6103  4.0419
   97OSM   H13B 9596   3.170   1.123  11.049 -4.5145 -1.0701  3.6849
   97OSM   H13C 9597   3.298   1.232  11.055 -0.9790  3.0342  0.1532
   97OSM    C12 9598   3.375   1.211  11.301  0.3453  0.4789 -0.0758
   97OSM   H12A 9599   3.406   1.166  11.395 -2.4514 -0.3250  0.5071
   97OSM   H12B 9600   3.314   1.299  11.319 -0.9440 -0.3992 -0.1027
   97OSM    C11 9601   3.502   1.261  11.238 -0.0182  0.1719  0.0959
   97OSM   H11A 9602   3.568   1.172  11.227  1.0536  1.0496 -0.6795
   97OSM   H11B 9603   3.558   1.322  11.312  0.4126 -0.0628 -0.0380
   97OSM      P 9604   3.450   1.478  11.112  0.0278  0.2975 -0.4617
   97OSM    O13 9605   3.317   1.500  11.174  0.1014  0.0941 -0.5517
   97OSM    O14 9606   3.565   1.551  11.164  0.4379 -0.2367 -0.3597
   97OSM    O11 9607   3.418   1.518  10.960  0.6940  0.5538 -0.2820
   97OSM    O12 9608   3.489   1.326  11.114  0.0535 -0.2748 -0.3690
   97OSM    C1S 9609   3.433   1.425  10.855 -0.1308  0.8257  0.0006
   97OSM    H1S 9610   3.333   1.389  10.823 -0.4896 -0.0592  2.0508
   97OSM    H1T 9611   3.499   1.341  10.885 -1.7541 -0.5548 -0.2606
   97OSM     NF 9612   3.499   1.428  10.617  0.0437  0.1758 -0.3424
   97OSM    HNF 9613   3.589   1.414  10.576  0.2343  0.8876 -0.1805
   97OSM    C2S 9614   3.484   1.505  10.734  0.2072 -0.6273  0.7678
   97OSM    H2S 9615   3.413   1.585  10.704 -1.5551 -1.6801  2.0995
   97OSM    C3S 9616   3.619   1.576  10.774 -0.5449 -0.4220  0.9918
   97OSM    H3S 9617   3.690   1.499  10.811  1.0793  1.0379  0.9625
   97OSM     O3 9618   3.603   1.680  10.868 -0.0842  0.3208  0.0372
   97OSM    HO3 9619   3.524   1.650  10.914 -0.1313  1.2689  0.5952
   97OSM    C4S 9620   3.690   1.646  10.659  0.2284  0.1475  0.2960
   97OSM    H4S 9621   3.636   1.732  10.616  0.9824  0.4954  0.0302
   97OSM    C5S 9622   3.803   1.599  10.600  0.2177 -0.1617 -0.1668
   97OSM    H5S 9623   3.853   1.508  10.635  0.0160 -0.0662  0.3765
   97OSM    C6S 9624   3.854   1.656  10.470 -0.2749 -0.0399  0.5047
   97OSM    H6S 9625   3.957   1.616  10.465 -0.4561 -0.5914  1.2129
   97OSM    H6T 9626   3.875   1.765  10.466  2.7580 -0.5698  0.5287
   97OSM    C7S 9627   3.762   1.627  10.349  0.2610 -0.0192  0.5497
   97OSM    H7S 9628   3.663   1.677  10.363  0.4791  0.2289  1.1785
   97OSM    H7T 9629   3.752   1.518  10.336  1.4064  0.1821 -2.4784
   97OSM    C8S 9630   3.833   1.676  10.219  0.0034 -0.0767  0.3110
   97OSM    H8S 9631   3.926   1.618  10.205 -1.6572 -2.1058 -2.9911
   97OSM    H8T 9632   3.865   1.782  10.228 -0.8603  0.2081  0.1610
   97OSM    C9S 9633   3.735   1.664  10.105 -0.0257 -0.0129 -0.3194
   97OSM    H9S 9634   3.652   1.735  10.125  0.9346  0.3377  2.5726
   97OSM    H9T 9635   3.698   1.561  10.083 -1.5112  0.0243  1.7860
   97OSM   C10S 9636   3.800   1.701   9.971  0.7151 -0.6794 -0.2944
   97OSM   H10S 9637   3.887   1.633   9.955  0.8782 -0.3216 -0.9437
   97OSM   H10T 9638   3.845   1.801   9.987 -1.4840  0.4768 -1.0556
   97OSM   C11S 9639   3.707   1.691   9.846  0.0159 -0.4698  0.0280
   97OSM   H11S 9640   3.612   1.747   9.859 -0.2936 -1.0214  0.2006
   97OSM   H11T 9641   3.688   1.583   9.827  0.5425 -0.3482 -1.2413
   97OSM   C12S 9642   3.774   1.751   9.716 -0.8490 -0.4677 -0.5720
   97OSM   H12S 9643   3.713   1.725   9.627 -1.0958 -0.8637 -0.2915
   97OSM   H12T 9644   3.864   1.689   9.700  1.2437  2.5494 -0.9433
   97OSM   C13S 9645   3.809   1.899   9.716  0.5047  0.3739 -0.6185
   97OSM   H13S 9646   3.913   1.907   9.755  0.5521 -2.9373  0.1256
   97OSM   H13T 9647   3.751   1.953   9.794  0.8659  0.9531 -0.7510
   97OSM   C14S 9648   3.815   1.953   9.576  0.4491  0.2720 -0.1154
   97OSM   H14S 9649   3.825   2.062   9.598  4.2080 -0.0544  0.1075
   97OSM   H14T 9650   3.723   1.932   9.518 -0.4356  1.4660  0.8237
   97OSM   C15S 9651   3.937   1.898   9.499  0.3204  0.4665  1.3161
   97OSM   H15S 9652   3.920   1.790   9.476 -0.7177  1.1779 -1.3817
   97OSM   H15T 9653   4.029   1.913   9.560  2.2462  1.7491 -1.7995
   97OSM   C16S 9654   3.950   1.969   9.353 -0.4182  0.1517 -0.3405
   97OSM   H16S 9655   3.966   2.079   9.365 -0.2591 -0.0180  1.0915
   97OSM   H16T 9656   3.851   1.948   9.306 -2.3843 -1.4611  4.2418
   97OSM   C17S 9657   4.052   1.889   9.268 -0.3260  0.2073  0.0589
   97OSM   H17S 9658   4.155   1.901   9.310 -0.1502 -0.5154 -0.1565
   97OSM   H17T 9659   4.055   1.938   9.169  0.5340  1.8490  0.8752
   97OSM   C18S 9660   4.035   1.736   9.252 -0.3243 -0.3301  0.1677
   97OSM   H18S 9661   4.118   1.705   9.186  0.9581 -0.1816  1.6802
   97OSM   H18T 9662   3.935   1.721   9.206 -0.1142 -1.4990  0.0880
   97OSM   H18U 9663   4.050   1.679   9.346 -0.5049 -0.2190  0.2644
   97OSM    C1F 9664   3.389   1.381  10.555  0.5969 -0.5047  0.9562
   97OSM     OF 9665   3.277   1.415  10.581 -0.1496  0.1680  0.3518
   97OSM    C2F 9666   3.402   1.263  10.464  0.3037  0.1380 -0.1306
   97OSM    H2F 9667   3.394   1.169  10.523 -1.0379  1.4979  1.9293
   97OSM    H2G 9668   3.494   1.287  10.407 -1.4650 -0.3142 -3.2907
   97OSM    C3F 9669   3.286   1.252  10.360  0.7817 -0.4168  0.1789
   97OSM    H3F 9670   3.256   1.356  10.334 -0.3503 -0.7816  0.0118
   97OSM    H3G 9671   3.202   1.193  10.403 -0.9355  2.1690  0.5051
   97OSM    C4F 9672   3.349   1.193  10.233 -0.7658  0.6704 -0.3606
   97OSM    H4F 9673   3.444   1.246  10.208  1.8188 -3.1600  0.9229
   97OSM    H4G 9674   3.270   1.205  10.156 -0.1674 -0.1109 -1.1091
   97OSM    C5F 9675   3.389   1.042  10.244  0.1952 -0.1997 -0.2743
   97OSM    H5F 9676   3.307   0.975  10.276  1.3771 -1.8124 -0.5280
   97OSM    H5G 9677   3.473   1.042  10.317  1.6734  0.0471 -1.9277
   97OSM    C6F 9678   3.416   0.979  10.103 -0.4750 -0.2618 -0.0216
   97OSM    H6F 9679   3.315   0.972  10.058 -1.8929  1.0941  2.7665
   97OSM    H6G 9680   3.469   0.882  10.111  0.3908  0.1285 -1.0311
   97OSM    C7F 9681   3.497   1.072  10.015 -0.5013  0.5310 -0.7302
   97OSM    H7F 9682   3.589   1.097  10.071  0.6036 -0.9607 -1.8612
   97OSM    H7G 9683   3.435   1.158   9.982 -0.7192  0.1826 -1.2236
   97OSM    C8F 9684   3.538   1.008   9.885 -0.7071  0.1390 -1.0284
   97OSM    H8F 9685   3.595   0.914   9.905  0.4577  1.1143  0.3506
   97OSM    H8G 9686   3.611   1.078   9.839  0.1375 -0.0190  0.0528
   97OSM    C9F 9687   3.431   0.974   9.783 -0.1638 -0.8669 -0.1565
   97OSM    H9F 9688   3.357   0.901   9.819 -0.6492  0.0118  0.6321
   97OSM   C10F 9689   3.398   1.010   9.659  0.2347  0.5018 -0.4596
   97OSM   H10F 9690   3.310   0.965   9.610 -0.5060  1.4696 -0.0390
   97OSM   C11F 9691   3.470   1.106   9.575 -0.1268 -0.3628 -0.0274
   97OSM   H11F 9692   3.548   1.146   9.644 -0.0052  1.9423 -1.4313
   97OSM   H11G 9693   3.407   1.191   9.539  2.1497  2.4939  2.4697
   97OSM   C12F 9694   3.549   1.036   9.460 -0.0453 -0.5985  0.2965
   97OSM   H12F 9695   3.601   0.941   9.487  1.8298  0.1604 -0.5302
   97OSM   H12G 9696   3.636   1.094   9.421 -0.4044 -0.8811 -0.9700
   97OSM   C13F 9697   3.452   0.984   9.344  0.0423  0.7241 -0.2756
   97OSM   H13F 9698   3.415   1.064   9.278 -0.5758  0.6708  0.0037
   97OSM   H13G 9699   3.365   0.935   9.393 -1.9243  3.7720 -0.6289
   97OSM   C14F 9700   3.522   0.885   9.250  0.5504  0.6438  0.6706
   97OSM   H14F 9701   3.582   0.804   9.297  1.4087  0.7279 -0.2684
   97OSM   H14G 9702   3.598   0.933   9.185 -1.3895  0.4827 -1.7977
   97OSM   C15F 9703   3.431   0.819   9.143 -0.2293  0.6739 -0.3743
   97OSM   H15F 9704   3.361   0.746   9.190 -0.1739 -0.5050 -2.0910
   97OSM   H15G 9705   3.490   0.752   9.077 -1.0848 -2.9084  2.3707
   97OSM   C16F 9706   3.343   0.913   9.059  0.0185  0.2593  0.4042
   97OSM   H16F 9707   3.292   0.981   9.130  0.3779  0.8594  0.0960
   97OSM   H16G 9708   3.268   0.840   9.022  0.9966 -2.0131  2.7994
   97OSM   C17F 9709   3.426   0.975   8.951  0.2003 -0.2358 -0.0607
   97OSM   H17F 9710   3.510   1.030   8.998 -0.5234 -1.8198  3.2216
   97OSM   H17G 9711   3.349   1.044   8.909  0.0309  0.1046  0.8048
   97OSM   C18F 9712   3.471   0.889   8.833  0.1771 -0.5882 -0.2066
   97OSM   H18F 9713   3.416   0.792   8.828 -0.7173 -0.2075  1.7786
   97OSM   H18G 9714   3.581   0.880   8.845  0.2110  0.5137  0.3632
   97OSM   H18H 9715   3.463   0.947   8.739  0.6108 -0.6915 -0.3071
   98OSM      N 9716   2.424   0.375  11.220  0.1683  0.0502  0.0664
   98OSM    C15 9717   2.468   0.230  11.202  0.2795  0.1539 -0.2145
   98OSM   H15A 9718   2.571   0.217  11.173  0.4805  0.5357  0.3186
   98OSM   H15B 9719   2.419   0.191  11.114  4.1283 -0.9894 -1.9405
   98OSM   H15C 9720   2.456   0.165  11.288  0.3556  0.7300  0.2383
   98OSM    C14 9721   2.284   0.383  11.277 -0.0217  0.0029  0.1845
   98OSM   H14A 9722   2.260   0.482  11.312  0.5753 -0.4323  1.9003
   98OSM   H14B 9723   2.262   0.314  11.357 -1.4578  1.2210  0.8684
   98OSM   H14C 9724   2.219   0.363  11.193 -0.8887 -0.0818  0.8679
   98OSM    C13 9725   2.515   0.444  11.321  0.1921  0.1857  0.1626
   98OSM   H13A 9726   2.535   0.374  11.401  0.7934  0.9603  0.7018
   98OSM   H13B 9727   2.465   0.531  11.359 -1.2406 -0.7532  0.4687
   98OSM   H13C 9728   2.607   0.467  11.268  1.2710 -1.6519  1.1811
   98OSM    C12 9729   2.430   0.440  11.079 -0.5238 -0.3701 -0.6963
   98OSM   H12A 9730   2.414   0.547  11.080 -1.6975 -0.5389 -0.6532
   98OSM   H12B 9731   2.348   0.405  11.017 -0.7428 -0.2153 -0.4970
   98OSM    C11 9732   2.565   0.434  11.000 -0.3264  0.3744 -0.1304
   98OSM   H11A 9733   2.558   0.478  10.898 -2.0535  2.4598  0.8348
   98OSM   H11B 9734   2.579   0.326  10.976  0.5172 -0.3121  3.2393
   98OSM      P 9735   2.822   0.449  11.026  0.0540 -0.1260  0.0242
   98OSM    O13 9736   2.914   0.540  11.090  0.3295 -0.0086  0.5294
   98OSM    O14 9737   2.840   0.308  11.059 -0.1870  0.9291  0.4731
   98OSM    O11 9738   2.821   0.461  10.867 -0.0806  0.5192  0.0352
   98OSM    O12 9739   2.673   0.495  11.063  0.4245 -0.0014 -0.4762
   98OSM    C1S 9740   2.818   0.582  10.795  0.9287  1.0159 -0.3987
   98OSM    H1S 9741   2.909   0.633  10.835  1.2980 -0.7608  1.0805
   98OSM    H1T 9742   2.734   0.647  10.829  0.0038 -1.4485  2.2011
   98OSM     NF 9743   2.839   0.685  10.566  0.3747 -0.6083  0.0556
   98OSM    HNF 9744   2.764   0.731  10.519 -0.7571 -1.5459  0.9013
   98OSM    C2S 9745   2.807   0.566  10.639 -0.5622  0.2627 -0.2083
   98OSM    H2S 9746   2.874   0.485  10.603 -0.8239  0.1482 -0.4375
   98OSM    C3S 9747   2.666   0.508  10.606 -0.8178 -0.6104 -0.1607
   98OSM    H3S 9748   2.591   0.588  10.624 -0.2236 -0.1136  0.1182
   98OSM     O3 9749   2.627   0.395  10.683  0.2390 -0.4029 -0.1727
   98OSM    HO3 9750   2.689   0.386  10.755 -0.5808 -0.7989  0.4847
   98OSM    C4S 9751   2.660   0.475  10.463 -0.2579  0.1530 -0.3931
   98OSM    H4S 9752   2.651   0.564  10.399 -0.5129 -0.6226 -1.4535
   98OSM    C5S 9753   2.674   0.361  10.399  0.1671  0.8914  0.0234
   98OSM    H5S 9754   2.692   0.271  10.460 -1.2435  0.1821 -0.5777
   98OSM    C6S 9755   2.661   0.322  10.253 -0.0146  0.5709 -0.0037
   98OSM    H6S 9756   2.564   0.268  10.247  0.0741  0.2087  1.5660
   98OSM    H6T 9757   2.743   0.257  10.215 -0.3097  0.5203 -0.5585
   98OSM    C7S 9758   2.642   0.446  10.161  0.6330  0.6121 -0.1260
   98OSM    H7S 9759   2.730   0.514  10.162  1.7692 -0.7947 -1.8996
   98OSM    H7T 9760   2.555   0.507  10.193  0.5030 -0.7223  2.1176
   98OSM    C8S 9761   2.607   0.412  10.014  0.5414  0.0541  0.7093
   98OSM    H8S 9762   2.544   0.499   9.987 -0.1703 -0.1226  1.7626
   98OSM    H8T 9763   2.539   0.325  10.011  0.1896  0.3221  0.9123
   98OSM    C9S 9764   2.728   0.388   9.930 -0.1574 -0.0597 -0.1026
   98OSM    H9S 9765   2.791   0.313   9.981 -0.2611  0.8441  1.3726
   98OSM    H9T 9766   2.780   0.482   9.904 -2.3628  0.7476 -1.7809
   98OSM   C10S 9767   2.697   0.328   9.789 -0.3757 -0.0467 -0.6890
   98OSM   H10S 9768   2.639   0.233   9.795 -1.9700  0.8352 -1.6427
   98OSM   H10T 9769   2.800   0.309   9.752  0.2384 -0.3608  1.1104
   98OSM   C11S 9770   2.618   0.413   9.693 -0.8111 -0.4373  0.0072
   98OSM   H11S 9771   2.688   0.496   9.674  1.4855 -2.9216 -2.8642
   98OSM   H11T 9772   2.520   0.440   9.738 -1.1613 -2.3593  0.4459
   98OSM   C12S 9773   2.598   0.347   9.558  0.4841  0.5838  0.0731
   98OSM   H12S 9774   2.507   0.283   9.562  2.2947 -2.1300 -0.7705
   98OSM   H12T 9775   2.685   0.283   9.531  0.8093  0.7569  0.6914
   98OSM   C13S 9776   2.584   0.457   9.449 -0.4051  0.1066 -0.2859
   98OSM   H13S 9777   2.682   0.506   9.434  0.5545 -1.2528  1.3498
   98OSM   H13T 9778   2.511   0.534   9.481  0.4566 -0.4406  3.1365
   98OSM   C14S 9779   2.550   0.391   9.317 -0.9374 -0.0432  0.0197
   98OSM   H14S 9780   2.453   0.337   9.318 -0.3419 -1.2497 -2.6233
   98OSM   H14T 9781   2.630   0.313   9.311  0.2672  1.1132  0.6814
   98OSM   C15S 9782   2.575   0.476   9.195 -0.0843 -0.2183  0.2864
   98OSM   H15S 9783   2.673   0.525   9.215 -1.0974  1.8042  0.4007
   98OSM   H15T 9784   2.503   0.561   9.186  0.9814  0.8519  1.5859
   98OSM   C16S 9785   2.579   0.384   9.073  0.7679 -0.2258  0.3784
   98OSM   H16S 9786   2.472   0.360   9.059  0.4858  0.8589  0.5916
   98OSM   H16T 9787   2.623   0.286   9.101 -0.0984 -0.7566 -0.1156
   98OSM   C17S 9788   2.633   0.450   8.949 -0.0930 -0.7944 -0.2230
   98OSM   H17S 9789   2.743   0.435   8.943  0.0787 -0.4637  2.0050
   98OSM   H17T 9790   2.619   0.560   8.954 -0.3123 -0.7702 -1.2134
   98OSM   C18S 9791   2.562   0.400   8.828  0.1212  0.1843  0.4556
   98OSM   H18S 9792   2.597   0.445   8.733 -1.7467  1.1694  0.2052
   98OSM   H18T 9793   2.452   0.413   8.825  0.1634  0.7798  1.2283
   98OSM   H18U 9794   2.576   0.290   8.821 -1.1911  0.1323 -1.7941
   98OSM    C1F 9795   2.966   0.733  10.570 -0.1398 -0.5604 -0.2429
   98OSM     OF 9796   3.054   0.662  10.620  0.2157  0.3807 -0.3890
   98OSM    C2F 9797   2.984   0.877  10.507  0.0382 -0.4239  0.3850
   98OSM    H2F 9798   2.995   0.945  10.594 -3.1882  2.3367 -1.2363
   98OSM    H2G 9799   2.886   0.894  10.458  0.6567  1.4775 -0.2563
   98OSM    C3F 9800   3.102   0.874  10.408 -0.3204  0.7725 -0.1772
   98OSM    H3F 9801   3.197   0.867  10.465 -1.6417 -0.2120  2.0062
   98OSM    H3G 9802   3.098   0.976  10.365  1.2959  0.2408 -1.6258
   98OSM    C4F 9803   3.092   0.777  10.291  0.2693  0.1741 -0.7387
   98OSM    H4F 9804   3.097   0.670  10.317  0.8407  0.6622  1.2336
   98OSM    H4G 9805   3.184   0.802  10.234  0.1680  0.9239 -0.5855
   98OSM    C5F 9806   2.974   0.806  10.193 -0.0708  0.0939 -0.1246
   98OSM    H5F 9807   2.950   0.911  10.164 -0.6979  0.2457  0.9150
   98OSM    H5G 9808   2.877   0.777  10.240  0.2586  1.0174  1.1445
   98OSM    C6F 9809   2.976   0.722  10.066 -0.6991  1.0334  0.3646
   98OSM    H6F 9810   2.876   0.718  10.017 -1.1510 -0.1425  1.3302
   98OSM    H6G 9811   2.988   0.618  10.103 -0.6331  1.3942  1.3890
   98OSM    C7F 9812   3.075   0.754   9.956  0.0456  0.2891  0.0512
   98OSM    H7F 9813   3.178   0.746   9.998 -0.5319 -1.3893  1.1817
   98OSM    H7G 9814   3.051   0.853   9.910  1.2976  1.0432  0.9747
   98OSM    C8F 9815   3.047   0.647   9.847  0.3756  0.1467 -0.7524
   98OSM    H8F 9816   2.940   0.637   9.820  0.6405 -1.2673 -1.2768
   98OSM    H8G 9817   3.069   0.552   9.900 -0.2620 -0.5390 -1.7130
   98OSM    C9F 9818   3.146   0.680   9.737  0.8528 -0.0559  0.0136
   98OSM    H9F 9819   3.248   0.645   9.762  0.0584 -1.8791  0.7798
   98OSM   C10F 9820   3.117   0.708   9.610  0.2910 -0.3483  0.7350
   98OSM   H10F 9821   3.196   0.730   9.536 -0.3547  2.6897  0.9027
   98OSM   C11F 9822   2.984   0.732   9.543  0.1659  0.1526 -0.1933
   98OSM   H11F 9823   2.991   0.837   9.505  2.2091  0.3395  0.6427
   98OSM   H11G 9824   2.905   0.738   9.621 -0.0897 -3.1009 -0.1585
   98OSM   C12F 9825   2.942   0.644   9.424  0.2330  0.0689  0.3297
   98OSM   H12F 9826   2.833   0.659   9.410  0.1730 -1.3239 -0.7540
   98OSM   H12G 9827   2.947   0.535   9.447 -0.8653  0.1527  0.9539
   98OSM   C13F 9828   3.029   0.684   9.300  0.0245 -0.0275  0.5259
   98OSM   H13F 9829   3.135   0.672   9.331  0.5285  2.8319  0.0718
   98OSM   H13G 9830   3.007   0.793   9.290  0.9980  0.3191  1.9306
   98OSM   C14F 9831   3.016   0.602   9.175  0.0159 -0.1413 -0.2444
   98OSM   H14F 9832   2.915   0.598   9.130 -1.4096  2.1154  2.6028
   98OSM   H14G 9833   3.041   0.498   9.206 -0.0920 -0.6780 -1.8790
   98OSM   C15F 9834   3.127   0.633   9.073 -0.6197 -0.0583  0.8502
   98OSM   H15F 9835   3.224   0.626   9.127 -0.6214 -1.1815  0.7063
   98OSM   H15G 9836   3.115   0.737   9.036 -1.1372  0.3525  2.1414
   98OSM   C16F 9837   3.137   0.519   8.973 -0.2252 -0.2817 -0.0175
   98OSM   H16F 9838   3.040   0.503   8.921 -0.2607  3.0041 -1.0329
   98OSM   H16G 9839   3.159   0.432   9.039  0.5753  1.5583  2.2250
   98OSM   C17F 9840   3.249   0.524   8.863 -0.1231  0.7297 -0.1267
   98OSM   H17F 9841   3.334   0.566   8.921  1.7975 -1.5451 -1.2119
   98OSM   H17G 9842   3.236   0.599   8.781  0.9636  1.7944  0.6516
   98OSM   C18F 9843   3.296   0.388   8.807  0.5082 -0.1479  0.9178
   98OSM   H18F 9844   3.348   0.326   8.882  1.4135  0.6456  0.9527
   98OSM   H18G 9845   3.374   0.410   8.731  0.0713 -2.3308 -0.2041
   98OSM   H18H 9846   3.213   0.331   8.760 -2.1826  4.8762 -0.8403
   99OSM      N 9847   5.467   1.927  11.148  0.2925 -0.2541 -0.5785
   99OSM    C15 9848   5.542   2.057  11.143 -0.3863 -0.2580  0.6095
   99OSM   H15A 9849   5.621   2.055  11.217  1.1271 -0.0054 -0.9537
   99OSM   H15B 9850   5.470   2.133  11.169  0.5970  1.4774 -1.6011
   99OSM   H15C 9851   5.572   2.070  11.040 -2.8560  0.5576 -0.0284
   99OSM    C14 9852   5.551   1.815  11.095  0.3272 -0.0830  0.7933
   99OSM   H14A 9853   5.568   1.834  10.990 -1.0637 -0.7335  0.4432
   99OSM   H14B 9854   5.491   1.726  11.098 -2.2383  1.4838 -1.8521
   99OSM   H14C 9855   5.644   1.792  11.146  0.2530  1.0612  1.4803
   99OSM    C13 9856   5.445   1.912  11.297 -0.7323  0.2918  0.0805
   99OSM   H13A 9857   5.402   1.816  11.320 -0.5319  0.3081  0.5328
   99OSM   H13B 9858   5.370   1.971  11.347  2.5108  1.0713  4.2581
   99OSM   H13C 9859   5.539   1.923  11.349 -0.2464  1.7138 -1.0600
   99OSM    C12 9860   5.329   1.940  11.080 -0.0194 -0.1009 -0.0293
   99OSM   H12A 9861   5.344   1.966  10.977  1.9573 -1.0026  0.0009
   99OSM   H12B 9862   5.285   2.020  11.138 -0.1230 -0.2182  0.0526
   99OSM    C11 9863   5.239   1.814  11.070  0.3982  0.1812 -0.0265
   99OSM   H11A 9864   5.153   1.846  11.007  0.0496 -0.3691  0.1602
   99OSM   H11B 9865   5.210   1.793  11.176 -1.3291 -0.9728 -0.6973
   99OSM      P 9866   5.317   1.697  10.846  0.7226 -0.1811 -0.0918
   99OSM    O13 9867   5.458   1.675  10.808  0.3059 -0.2706  0.0016
   99OSM    O14 9868   5.215   1.595  10.825  0.5522 -0.0009 -0.1527
   99OSM    O11 9869   5.262   1.837  10.786  0.0251  0.2449  0.0777
   99OSM    O12 9870   5.302   1.705  11.003  0.0444 -0.2747  0.2649
   99OSM    C1S 9871   5.282   1.861  10.648  0.5411 -0.0526 -0.1748
   99OSM    H1S 9872   5.383   1.832  10.611  0.8773 -1.6776  1.9420
   99OSM    H1T 9873   5.275   1.972  10.635  0.4957  0.0449  0.6487
   99OSM     NF 9874   5.208   1.830  10.418  0.1294 -0.4020  0.1302
   99OSM    HNF 9875   5.150   1.908  10.396  0.5201  0.4579  2.0500
   99OSM    C2S 9876   5.174   1.793  10.551 -0.0451 -0.0358  0.2685
   99OSM    H2S 9877   5.185   1.683  10.562 -0.6581 -0.1724 -0.4623
   99OSM    C3S 9878   5.034   1.824  10.600 -0.2070 -0.0064 -0.0274
   99OSM    H3S 9879   5.024   1.930  10.630  0.4297 -0.8470  3.4049
   99OSM     O3 9880   4.999   1.741  10.711  0.2347 -0.1043 -0.5440
   99OSM    HO3 9881   5.077   1.688  10.724  0.3043  0.4021  1.1981
   99OSM    C4S 9882   4.933   1.794  10.500 -0.2363  0.3680  0.3809
   99OSM    H4S 9883   4.943   1.695  10.454 -0.6819 -0.7665  2.6716
   99OSM    C5S 9884   4.834   1.876  10.464  0.2213 -0.0181  0.1780
   99OSM    H5S 9885   4.830   1.969  10.522 -0.3578 -0.0668  0.2198
   99OSM    C6S 9886   4.726   1.850  10.357 -0.2615  0.1056 -0.1051
   99OSM    H6S 9887   4.634   1.904  10.389  0.4641  1.0223  0.4697
   99OSM    H6T 9888   4.696   1.743  10.351 -1.4835  0.4983 -0.9789
   99OSM    C7S 9889   4.739   1.903  10.213 -0.0627 -0.4756 -0.0203
   99OSM    H7S 9890   4.731   2.013  10.197  1.1608 -0.0482  2.1190
   99OSM    H7T 9891   4.655   1.848  10.164 -0.5848  0.9866 -0.8125
   99OSM    C8S 9892   4.870   1.866  10.148  0.7771 -0.5117  0.8428
   99OSM    H8S 9893   4.895   1.761  10.172 -0.6478 -0.9571  0.3984
   99OSM    H8T 9894   4.953   1.927  10.190 -0.1511  0.7369  0.8799
   99OSM    C9S 9895   4.854   1.888   9.990  0.2877  0.5632  0.0482
   99OSM    H9S 9896   4.782   1.972   9.986 -0.3749 -0.0176 -0.3994
   99OSM    H9T 9897   4.816   1.800   9.934  1.5425 -1.6193  2.5183
   99OSM   C10S 9898   4.975   1.931   9.908  0.4534  0.5206  0.1931
   99OSM   H10S 9899   5.036   1.840   9.890 -0.4878 -0.6808  2.7622
   99OSM   H10T 9900   5.041   1.998   9.967  0.6730 -0.2426  0.8193
   99OSM   C11S 9901   4.945   2.001   9.774  0.4018  0.5292  0.4419
   99OSM   H11S 9902   4.897   2.098   9.801  0.6086  1.6829 -3.0657
   99OSM   H11T 9903   4.875   1.942   9.711  1.5722 -0.3081 -0.1106
   99OSM   C12S 9904   5.077   2.039   9.702  0.0208  0.0176  0.7614
   99OSM   H12S 9905   5.152   2.069   9.778  2.3900 -1.9567 -0.7335
   99OSM   H12T 9906   5.111   1.950   9.643  0.0540 -0.2892  1.2407
   99OSM   C13S 9907   5.040   2.164   9.611 -0.0645  1.0933 -0.1759
   99OSM   H13S 9908   5.025   2.262   9.663  0.0766  0.9695  0.0988
   99OSM   H13T 9909   4.943   2.139   9.564  1.2733 -2.3019 -1.2400
   99OSM   C14S 9910   5.139   2.203   9.515  0.0846  0.9932 -0.8697
   99OSM   H14S 9911   5.143   2.115   9.448 -0.1291 -2.1595  3.0353
   99OSM   H14T 9912   5.244   2.204   9.552 -0.1770 -0.2770 -0.0257
   99OSM   C15S 9913   5.075   2.309   9.430 -0.6651  0.2907 -0.2224
   99OSM   H15S 9914   5.054   2.408   9.475  0.7566 -0.0859  1.3111
   99OSM   H15T 9915   4.976   2.263   9.405  0.3016  0.2737 -4.4665
   99OSM   C16S 9916   5.140   2.331   9.294  0.4336  0.4331 -0.0488
   99OSM   H16S 9917   5.073   2.383   9.223  1.4034  0.3043 -1.0658
   99OSM   H16T 9918   5.159   2.228   9.258  1.0548  0.7569 -0.6425
   99OSM   C17S 9919   5.259   2.427   9.306 -0.0499 -0.1848  0.4094
   99OSM   H17S 9920   5.317   2.404   9.398 -0.1878  0.2183  0.5988
   99OSM   H17T 9921   5.228   2.534   9.311  0.5694  0.1061 -1.5052
   99OSM   C18S 9922   5.339   2.429   9.177 -0.0188 -0.8205 -0.2860
   99OSM   H18S 9923   5.276   2.450   9.088 -0.4723 -0.2442  0.1682
   99OSM   H18T 9924   5.385   2.328   9.166  2.2650  0.1963 -0.4605
   99OSM   H18U 9925   5.417   2.508   9.185 -1.6050  0.5372  3.1311
   99OSM    C1F 9926   5.316   1.792  10.344  0.1613  0.1646  0.4782
   99OSM     OF 9927   5.401   1.715  10.394  0.3521  0.3980  0.2008
   99OSM    C2F 9928   5.330   1.859  10.215 -0.6162 -0.3958 -0.8222
   99OSM    H2F 9929   5.434   1.899  10.213 -0.2991 -0.4016  5.0093
   99OSM    H2G 9930   5.268   1.949  10.198  1.3257  1.3319  0.8645
   99OSM    C3F 9931   5.324   1.767  10.101  0.1299 -0.1101  0.6119
   99OSM    H3F 9932   5.341   1.819  10.005  4.3440 -1.9815  0.2354
   99OSM    H3G 9933   5.403   1.691  10.117 -0.0947 -0.3984  0.3554
   99OSM    C4F 9934   5.186   1.698  10.087 -0.1450  0.8125  0.3191
   99OSM    H4F 9935   5.120   1.786  10.075 -2.1524 -0.8928 -1.7372
   99OSM    H4G 9936   5.145   1.645  10.176  0.6767 -0.8928 -0.3051
   99OSM    C5F 9937   5.168   1.620   9.961 -0.1281 -0.2551 -0.4809
   99OSM    H5F 9938   5.193   1.669   9.865 -0.1981  0.4863 -0.1212
   99OSM    H5G 9939   5.059   1.598   9.958 -0.2913  0.6595 -1.5726
   99OSM    C6F 9940   5.244   1.482   9.956  0.8310 -0.2412 -0.4162
   99OSM    H6F 9941   5.216   1.421  10.045  0.0654  0.4566 -0.1739
   99OSM    H6G 9942   5.351   1.508   9.969  0.8143 -1.4662  2.4660
   99OSM    C7F 9943   5.215   1.416   9.821 -0.5168  0.5002 -0.2474
   99OSM    H7F 9944   5.184   1.487   9.741 -0.0533 -0.9360 -1.7452
   99OSM    H7G 9945   5.130   1.344   9.829 -1.9017  2.1506  0.0347
   99OSM    C8F 9946   5.351   1.354   9.758 -0.0119 -0.1721 -0.3549
   99OSM    H8F 9947   5.426   1.435   9.750 -0.2672 -0.1234 -2.3811
   99OSM    H8G 9948   5.319   1.324   9.656  1.4863  0.5450 -1.0504
   99OSM    C9F 9949   5.417   1.241   9.829  0.3245 -0.2463  0.6667
   99OSM    H9F 9950   5.428   1.245   9.938  0.2811  1.0456  0.6340
   99OSM   C10F 9951   5.467   1.138   9.763 -0.2830 -0.7053  0.0675
   99OSM   H10F 9952   5.511   1.063   9.831  1.8432  2.2370  2.0188
   99OSM   C11F 9953   5.470   1.101   9.616 -0.0585 -0.4936 -0.5286
   99OSM   H11F 9954   5.432   1.188   9.559 -1.0348  0.0596  0.9501
   99OSM   H11G 9955   5.408   1.017   9.577 -0.8483 -1.2430  2.2314
   99OSM   C12F 9956   5.620   1.079   9.582  0.0573  0.1111  0.2338
   99OSM   H12F 9957   5.677   1.016   9.653  0.6852  1.6840  1.1465
   99OSM   H12G 9958   5.664   1.177   9.609  1.0298 -0.8554  2.2465
   99OSM   C13F 9959   5.652   1.048   9.431 -0.8623 -0.1777 -0.4846
   99OSM   H13F 9960   5.628   1.126   9.356 -0.2934 -0.1267 -0.6158
   99OSM   H13G 9961   5.582   0.965   9.407 -0.3036 -0.8061  0.0289
   99OSM   C14F 9962   5.801   1.014   9.406 -0.4949 -0.7042  0.6252
   99OSM   H14F 9963   5.825   0.913   9.445 -0.2846 -1.6433 -1.8040
   99OSM   H14G 9964   5.848   1.083   9.479 -3.0599  0.7246  0.9499
   99OSM   C15F 9965   5.847   1.007   9.260  0.5308  0.6086 -0.6440
   99OSM   H15F 9966   5.770   0.946   9.208 -0.9907  2.4116 -0.5649
   99OSM   H15G 9967   5.945   0.956   9.247  0.7935  1.3464 -1.6483
   99OSM   C16F 9968   5.866   1.137   9.181  0.2612  0.3686  1.2366
   99OSM   H16F 9969   5.973   1.159   9.160 -0.3048  0.0348 -2.2263
   99OSM   H16G 9970   5.820   1.225   9.233 -1.7239  0.1875 -0.1534
   99OSM   C17F 9971   5.799   1.129   9.041 -0.0165  0.5606 -0.2259
   99OSM   H17F 9972   5.798   1.234   9.003 -0.9701  1.2220  1.5595
   99OSM   H17G 9973   5.696   1.092   9.057  0.5003 -0.8623 -0.1300
   99OSM   C18F 9974   5.877   1.036   8.944  0.0426  0.4462 -0.0246
   99OSM   H18F 9975   5.861   0.929   8.966 -0.9385  0.5739 -0.1043
   99OSM   H18G 9976   5.988   1.047   8.943  0.1665 -0.7115  0.5500
   99OSM   H18H 9977   5.838   1.057   8.842  1.1913  0.2051 -0.5275
  100OSM      N 9978   0.225   2.290  11.153  0.0648  0.5247 -0.0370
  100OSM    C15 9979   0.224   2.140  11.119  0.0157 -0.4301 -0.0517
  100OSM   H15A 9980   0.320   2.104  11.086 -0.4835 -1.9242  0.0506
  100OSM   H15B 9981   0.143   2.113  11.051 -0.3426  1.6541 -0.4761
  100OSM   H15C 9982   0.194   2.089  11.209 -0.4171  1.1815  0.7266
  100OSM    C14 9983   0.090   2.329  11.195  0.3053  0.1866  0.2921
  100OSM   H14A 9984   0.015   2.322  11.117 -1.6922  0.7744  2.1085
  100OSM   H14B 9985   0.089   2.428  11.238  2.5052  1.1191 -1.7211
  100OSM   H14C 9986   0.050   2.257  11.265 -0.7303  0.5023  0.0346
  100OSM    C13 9987   0.314   2.319  11.278  0.5286  0.2167  0.9972
  100OSM   H13A 9988   0.416   2.302  11.246  0.5675  1.2800  0.5501
  100OSM   H13B 9989   0.291   2.260  11.366  2.9938 -0.1525  1.4170
  100OSM   H13C 9990   0.301   2.422  11.307 -1.7427  0.6044 -1.2062
  100OSM    C12 9991   0.267   2.375  11.032  0.1911  0.0766  0.3439
  100OSM   H12A 9992   0.246   2.479  11.050 -0.0941  0.3587 -1.5073
  100OSM   H12B 9993   0.194   2.356  10.955  1.3854 -1.9029 -0.3286
  100OSM    C11 9994   0.407   2.359  10.974  0.0107 -0.0417 -0.0738
  100OSM   H11A 9995   0.480   2.380  11.056 -0.5591 -0.5212  0.5673
  100OSM   H11B 9996   0.422   2.437  10.896  0.6696 -0.6708 -0.5932
  100OSM      P 9997   0.371   2.176  10.793 -0.3607 -0.0522  0.7893
  100OSM    O13 9998   0.416   2.038  10.779  0.5864  0.2611 -0.2249
  100OSM    O14 9999   0.222   2.203  10.792 -0.4031 -0.0269 -0.4830
  100OSM    O1110000   0.435   2.268  10.682  0.0021 -0.2910  0.1270
  100OSM    O1210001   0.435   2.223  10.931 -0.6349 -0.2684  0.2934
  100OSM    C1S10002   0.520   2.218  10.582  0.2309  0.2402  0.2948
  100OSM    H1S10003   0.562   2.115  10.585 -0.7761 -0.1559  0.8339
  100OSM    H1T10004   0.608   2.286  10.578 -0.1494  0.7707  1.0029
  100OSM     NF10005   0.526   2.144  10.351  0.3231 -0.1821  0.3089
  100OSM    HNF10006   0.621   2.169  10.336  0.5686 -1.5031 -0.3369
  100OSM    C2S10007   0.455   2.234  10.444 -0.2825  0.3256  1.1696
  100OSM    H2S10008   0.348   2.204  10.441 -0.5958  1.5066 -0.5987
  100OSM    C3S10009   0.449   2.392  10.413 -0.3196  0.7960 -0.0722
  100OSM    H3S10010   0.550   2.433  10.394 -0.3860  0.7700 -0.4838
  100OSM     O310011   0.393   2.469  10.524 -0.1041  0.2956  0.1876
  100OSM    HO310012   0.392   2.408  10.599  1.6123  0.9063  0.7389
  100OSM    C4S10013   0.364   2.408  10.286 -0.4672 -0.0700 -0.6359
  100OSM    H4S10014   0.430   2.409  10.198  1.0803 -1.4186  0.4864
  100OSM    C5S10015   0.228   2.391  10.276 -0.0614  0.0285  0.0247
  100OSM    H5S10016   0.173   2.376  10.370  3.1207 -0.4614  1.8523
  100OSM    C6S10017   0.136   2.400  10.158  0.3895  0.1216 -0.5347
  100OSM    H6S10018   0.073   2.491  10.167 -1.7815 -1.6318  2.6384
  100OSM    H6T10019   0.060   2.319  10.168  0.0725  0.5607  0.6101
  100OSM    C7S10020   0.198   2.395  10.015 -0.4878  0.9272 -0.0317
  100OSM    H7S10021   0.257   2.301  10.000  0.7568  1.2296  2.7242
  100OSM    H7T10022   0.273   2.477  10.012 -0.3027  0.7428 -0.6124
  100OSM    C8S10023   0.084   2.424   9.907  0.6056  0.1907  0.8850
  100OSM    H8S10024   0.055   2.528   9.931 -1.6709  0.3295 -2.1509
  100OSM    H8T10025  -0.001   2.354   9.894  0.7546  0.4610 -1.9411
  100OSM    C9S10026   0.136   2.424   9.761 -0.3172 -0.2512  0.2307
  100OSM    H9S10027   0.232   2.480   9.768 -1.1253  1.1380  0.5226
  100OSM    H9T10028   0.062   2.481   9.700 -1.5692 -0.7332  1.2726
  100OSM   C10S10029   0.151   2.284   9.699  0.0339 -0.1881 -0.3491
  100OSM   H10S10030   0.056   2.229   9.715  0.2535 -0.6116 -0.5120
  100OSM   H10T10031   0.216   2.226   9.767 -0.2783  0.1390  0.2328
  100OSM   C11S10032   0.214   2.283   9.563  0.5900  0.4825  0.3754
  100OSM   H11S10033   0.259   2.185   9.541  0.9555  0.8947 -0.7204
  100OSM   H11T10034   0.299   2.354   9.557  1.9162 -0.8584  2.6498
  100OSM   C12S10035   0.099   2.307   9.458  0.0741  0.2546 -0.4983
  100OSM   H12S10036   0.053   2.406   9.476  1.4748  0.7011  0.7225
  100OSM   H12T10037   0.019   2.230   9.471  0.9263 -0.7513 -1.1204
  100OSM   C13S10038   0.140   2.305   9.312 -0.0813 -0.2976 -0.2551
  100OSM   H13S10039   0.044   2.314   9.257  0.9832  1.6304 -1.8505
  100OSM   H13T10040   0.194   2.211   9.289  1.2992  0.7049 -1.1206
  100OSM   C14S10041   0.226   2.425   9.281  0.2464 -0.2399 -0.0015
  100OSM   H14S10042   0.320   2.423   9.340  1.7354  2.0141 -2.1909
  100OSM   H14T10043   0.166   2.518   9.292  1.1242  0.4624 -1.0040
  100OSM   C15S10044   0.269   2.433   9.128 -0.1557  0.3293 -0.4139
  100OSM   H15S10045   0.176   2.412   9.071 -0.0406  1.9810 -1.2423
  100OSM   H15T10046   0.351   2.366   9.095 -0.0834  0.7596 -1.1125
  100OSM   C16S10047   0.306   2.574   9.095 -0.2188 -0.6808  0.1581
  100OSM   H16S10048   0.404   2.597   9.141  0.0887  0.2377 -0.9378
  100OSM   H16T10049   0.233   2.638   9.149 -0.0323  0.6143 -1.0932
  100OSM   C17S10050   0.317   2.608   8.948 -0.0250  0.0859 -0.3802
  100OSM   H17S10051   0.357   2.708   8.924 -1.7231  1.2238  1.4013
  100OSM   H17T10052   0.215   2.613   8.904  0.9062  0.9020 -2.5214
  100OSM   C18S10053   0.393   2.508   8.864 -0.5348 -0.1083  0.7912
  100OSM   H18S10054   0.353   2.493   8.761  1.0987 -0.7888  0.2304
  100OSM   H18T10055   0.408   2.408   8.910  1.2235 -0.4785 -0.5449
  100OSM   H18U10056   0.497   2.545   8.850 -0.8797  0.6812  0.2168
  100OSM    C1F10057   0.482   2.023  10.311 -0.5255  0.7533  1.0253
  100OSM     OF10058   0.382   1.969  10.356  0.1538 -0.8187 -0.8758
  100OSM    C2F10059   0.569   1.954  10.204 -0.7189  0.8021 -0.0518
  100OSM    H2F10060   0.636   1.882  10.256  0.0445 -0.3542 -2.5737
  100OSM    H2G10061   0.623   2.025  10.138  0.8448 -0.6253 -0.3557
  100OSM    C3F10062   0.484   1.865  10.115  0.3898 -0.0395  0.0521
  100OSM    H3F10063   0.415   1.806  10.179  0.7042 -0.9133 -0.4166
  100OSM    H3G10064   0.552   1.788  10.073 -1.6339 -1.7736 -0.1006
  100OSM    C4F10065   0.417   1.942   9.997  0.3323 -0.0814  0.1315
  100OSM    H4F10066   0.494   2.007   9.951 -0.6567  0.8645 -0.2144
  100OSM    H4G10067   0.347   2.017  10.040  0.5992  1.2153 -1.6747
  100OSM    C5F10068   0.353   1.847   9.897  0.4550 -0.2914  0.5828
  100OSM    H5F10069   0.270   1.803   9.956  0.4698  0.7640  1.4130
  100OSM    H5G10070   0.418   1.763   9.865 -0.6194 -1.7630  2.1560
  100OSM    C6F10071   0.310   1.921   9.772 -0.2184 -0.4770  0.0566
  100OSM    H6F10072   0.400   1.948   9.712  0.2027  0.1053  0.9405
  100OSM    H6G10073   0.266   2.018   9.801 -1.9419 -0.6002 -1.9946
  100OSM    C7F10074   0.201   1.849   9.692 -0.4732 -0.4663  0.4210
  100OSM    H7F10075   0.164   1.911   9.608  1.2985 -0.2852 -0.2409
  100OSM    H7G10076   0.116   1.837   9.763 -2.3996 -1.7959 -2.0351
  100OSM    C8F10077   0.239   1.706   9.644  0.5571  0.1010 -0.6018
  100OSM    H8F10078   0.143   1.663   9.610  0.6731  1.1025 -2.2421
  100OSM    H8G10079   0.284   1.650   9.729  2.3340 -1.2374 -2.3560
  100OSM    C9F10080   0.349   1.714   9.536  0.6848  0.0529  0.0466
  100OSM    H9F10081   0.438   1.762   9.581  0.7662  0.3101 -0.3793
  100OSM   C10F10082   0.338   1.669   9.409 -0.2600  0.2541  0.0499
  100OSM   H10F10083   0.431   1.679   9.351 -0.7702  2.6510 -0.4057
  100OSM   C11F10084   0.218   1.602   9.345 -1.0935  0.4391 -0.9096
  100OSM   H11F10085   0.129   1.635   9.403  0.7557  1.4002  1.4647
  100OSM   H11G10086   0.231   1.492   9.344 -1.1950  0.4353 -3.0750
  100OSM   C12F10087   0.193   1.649   9.208  0.4621 -0.2834  0.3282
  100OSM   H12F10088   0.109   1.588   9.168  0.4429 -0.3065  0.4042
  100OSM   H12G10089   0.283   1.628   9.146  1.1052 -0.0737  1.1886
  100OSM   C13F10090   0.131   1.787   9.185 -0.0691 -0.8637  0.4529
  100OSM   H13F10091   0.071   1.822   9.272  0.3603 -0.8513  0.7435
  100OSM   H13G10092   0.071   1.790   9.092  0.8747 -0.3529 -0.1462
  100OSM   C14F10093   0.233   1.912   9.193  0.1070 -0.2734 -0.4967
  100OSM   H14F10094   0.273   1.919   9.297 -1.0507  3.1011 -0.2178
  100OSM   H14G10095   0.166   1.993   9.159  0.2556 -0.0980 -0.3678
  100OSM   C15F10096   0.362   1.894   9.109 -0.0818  0.3772 -0.1224
  100OSM   H15F10097   0.412   1.799   9.136 -0.7851  0.1483  0.3881
  100OSM   H15G10098   0.426   1.982   9.133  0.9554 -0.6550  0.9775
  100OSM   C16F10099   0.325   1.912   8.962  0.9709  0.1197  0.0490
  100OSM   H16F10100   0.243   1.845   8.930 -0.0495  0.8695  1.0457
  100OSM   H16G10101   0.409   1.900   8.891  0.9474 -2.7310  0.4663
  100OSM   C17F10102   0.285   2.062   8.943 -0.4405  0.6055  0.2166
  100OSM   H17F10103   0.365   2.120   8.993  0.9668  0.3412 -1.6536
  100OSM   H17G10104   0.191   2.098   8.991 -0.7956 -0.3977  0.2963
  100OSM   C18F10105   0.288   2.106   8.792  0.2745  0.1113  0.4002
  100OSM   H18F10106   0.286   2.216   8.775  3.7375  0.3212  1.1187
  100OSM   H18G10107   0.203   2.059   8.738  1.3766 -2.1102  0.5623
  100OSM   H18H10108   0.388   2.072   8.758  0.7810  1.3112  0.6570
  101OSM      N10109   3.760   2.028  11.088 -1.2338  0.4359  0.0358
  101OSM    C1510110   3.651   2.034  11.193  0.1753  0.5500 -0.1988
  101OSM   H15A10111   3.558   2.007  11.145  0.5369 -1.0384 -0.0455
  101OSM   H15B10112   3.639   2.129  11.243 -1.1426 -0.0787  0.7347
  101OSM   H15C10113   3.661   1.960  11.271 -1.2504  0.5109 -0.0369
  101OSM    C1410114   3.894   2.050  11.171  1.2852 -0.1154  0.0762
  101OSM   H14A10115   3.903   2.151  11.209 -0.2069  0.0930 -0.1121
  101OSM   H14B10116   3.979   2.040  11.105  1.6260  3.1870 -0.0918
  101OSM   H14C10117   3.910   1.989  11.259  3.5149 -0.6981 -0.6996
  101OSM    C1310118   3.771   1.892  11.020  0.2843 -0.1453  0.7215
  101OSM   H13A10119   3.856   1.898  10.953 -1.8137  1.8214 -1.8576
  101OSM   H13B10120   3.683   1.863  10.964  2.2143 -1.6143 -1.7121
  101OSM   H13C10121   3.790   1.818  11.097 -1.2014 -0.8064  0.4778
  101OSM    C1210122   3.750   2.136  10.987  0.7458  0.1307  0.0737
  101OSM   H12A10123   3.667   2.123  10.920  0.9604 -0.1807 -0.1279
  101OSM   H12B10124   3.844   2.140  10.934  1.6289 -0.2351  1.5593
  101OSM    C1110125   3.725   2.279  11.045 -0.3227 -0.4126  0.0146
  101OSM   H11A10126   3.742   2.344  10.956 -0.4343 -0.0861  0.2323
  101OSM   H11B10127   3.804   2.301  11.120  0.2409 -0.0191 -0.6806
  101OSM      P10128   3.471   2.334  11.036 -0.1416  0.2275 -0.0259
  101OSM    O1310129   3.356   2.287  11.108 -0.3096  0.1925 -0.2945
  101OSM    O1410130   3.475   2.475  11.009  0.3411 -0.1221 -0.1495
  101OSM    O1110131   3.479   2.261  10.898 -0.0092 -0.1676  0.3118
  101OSM    O1210132   3.600   2.311  11.111  0.0549 -0.1271 -0.2764
  101OSM    C1S10133   3.402   2.318  10.791 -0.4892  0.3224  0.0033
  101OSM    H1S10134   3.470   2.395  10.748 -0.9963  0.1693 -1.0932
  101OSM    H1T10135   3.303   2.355  10.824 -0.6713 -0.7078  0.6383
  101OSM     NF10136   3.333   2.278  10.561  0.1910 -0.1673 -0.2036
  101OSM    HNF10137   3.236   2.303  10.556  0.4642  0.8918 -0.2910
  101OSM    C2S10138   3.382   2.214  10.681  0.3995  0.2482  0.3192
  101OSM    H2S10139   3.475   2.165  10.643  0.7836  1.3457 -0.1644
  101OSM    C3S10140   3.278   2.108  10.734 -0.9496 -0.4044  0.0582
  101OSM    H3S10141   3.187   2.156  10.775  0.8213  5.0571 -1.9045
  101OSM     O310142   3.332   2.039  10.844 -0.4309 -0.0716  0.2892
  101OSM    HO310143   3.399   2.104  10.867  0.2767 -0.7520  0.1589
  101OSM    C4S10144   3.247   2.015  10.620 -0.6615 -0.0560 -0.7064
  101OSM    H4S10145   3.176   2.062  10.551 -0.0754 -1.5758 -2.3719
  101OSM    C5S10146   3.293   1.893  10.595 -0.5575  0.5957 -0.5755
  101OSM    H5S10147   3.358   1.851  10.673  0.7777 -1.2511 -2.6541
  101OSM    C6S10148   3.267   1.793  10.480  0.7879 -0.5933  0.3372
  101OSM    H6S10149   3.204   1.843  10.403 -0.1658 -2.0420  0.1512
  101OSM    H6T10150   3.204   1.708  10.513  0.0332 -0.3869 -0.5479
  101OSM    C7S10151   3.397   1.742  10.411  0.7519 -0.4465  0.4227
  101OSM    H7S10152   3.446   1.681  10.491 -1.3511 -2.1293  0.4735
  101OSM    H7T10153   3.453   1.833  10.382 -0.1929  0.5563  1.6535
  101OSM    C8S10154   3.369   1.648  10.295 -0.8420  0.2978  0.1442
  101OSM    H8S10155   3.275   1.596  10.324  0.5702 -1.9549  0.8644
  101OSM    H8T10156   3.443   1.565  10.287 -0.8425  0.3111 -0.0017
  101OSM    C9S10157   3.351   1.717  10.161  0.1745 -0.2727  0.9723
  101OSM    H9S10158   3.448   1.737  10.110 -0.2680  3.0828  1.3262
  101OSM    H9T10159   3.313   1.817  10.189  1.5380  0.9343 -1.3196
  101OSM   C10S10160   3.257   1.644  10.062 -0.4311 -0.2827 -0.3470
  101OSM   H10S10161   3.191   1.706   9.998 -3.3545  0.5207  3.2074
  101OSM   H10T10162   3.178   1.589  10.119  0.7927  0.6047  2.3173
  101OSM   C11S10163   3.327   1.543   9.976  0.2656  0.2178 -0.2588
  101OSM   H11S10164   3.372   1.469  10.045  1.2575 -0.9484 -2.1186
  101OSM   H11T10165   3.407   1.591   9.916  0.6192  0.7087  0.5958
  101OSM   C12S10166   3.242   1.467   9.873 -0.1156  0.0564  0.1737
  101OSM   H12S10167   3.170   1.395   9.916 -1.5767  1.1446 -0.4192
  101OSM   H12T10168   3.311   1.404   9.812  2.4609  2.9414 -0.0109
  101OSM   C13S10169   3.169   1.563   9.774 -0.2644 -0.2530  0.6160
  101OSM   H13S10170   3.101   1.625   9.836 -1.4652 -0.3755 -0.5393
  101OSM   H13T10171   3.095   1.503   9.717 -0.0919  0.9551 -0.9234
  101OSM   C14S10172   3.261   1.650   9.690  0.6884 -0.2047  0.1703
  101OSM   H14S10173   3.324   1.703   9.764  1.2288 -3.0194  1.8111
  101OSM   H14T10174   3.209   1.731   9.635  0.6568 -0.3858 -0.0693
  101OSM   C15S10175   3.350   1.579   9.591  0.3908 -0.8171 -0.6781
  101OSM   H15S10176   3.391   1.491   9.646  0.9873 -0.0658  0.1208
  101OSM   H15T10177   3.435   1.644   9.559  0.3459  0.0151  0.8089
  101OSM   C16S10178   3.268   1.525   9.476  0.0426 -0.3463 -0.0970
  101OSM   H16S10179   3.210   1.607   9.429  1.1520  0.5412  0.0529
  101OSM   H16T10180   3.197   1.449   9.515  0.0281 -1.0730 -1.5410
  101OSM   C17S10181   3.338   1.451   9.362 -0.4518 -0.4180 -0.2971
  101OSM   H17S10182   3.384   1.358   9.403 -4.1088 -1.1971  2.2038
  101OSM   H17T10183   3.427   1.510   9.332  0.2446 -2.1515 -1.7989
  101OSM   C18S10184   3.259   1.413   9.236 -0.0446  0.0149  0.9005
  101OSM   H18S10185   3.211   1.498   9.182 -1.7730 -1.2068  0.5037
  101OSM   H18T10186   3.177   1.346   9.269 -1.8453  0.9513 -1.6022
  101OSM   H18U10187   3.326   1.364   9.162 -0.3800  0.1097  0.5369
  101OSM    C1F10188   3.408   2.353  10.490 -0.5306 -0.2397  0.7000
  101OSM     OF10189   3.529   2.369  10.513 -0.1420  0.0929  0.0636
  101OSM    C2F10190   3.336   2.423  10.384  0.0612 -0.1787 -0.7400
  101OSM    H2F10191   3.227   2.405  10.389 -0.4204  2.8384  0.7944
  101OSM    H2G10192   3.373   2.383  10.287  0.8831 -0.3580 -0.3607
  101OSM    C3F10193   3.344   2.577  10.411 -0.2873 -0.3565  0.6374
  101OSM    H3F10194   3.449   2.613  10.405 -0.6114  0.4910 -0.0641
  101OSM    H3G10195   3.314   2.608  10.514  3.3282  1.2326  1.2810
  101OSM    C4F10196   3.245   2.656  10.324 -0.1734 -0.5360 -0.6614
  101OSM    H4F10197   3.235   2.759  10.365 -1.6694 -0.2051 -1.7757
  101OSM    H4G10198   3.145   2.608  10.334  0.3826 -1.3580  1.0280
  101OSM    C5F10199   3.290   2.670  10.179  0.5566 -0.9715 -0.5702
  101OSM    H5F10200   3.283   2.568  10.134 -0.0382 -1.5721  0.8651
  101OSM    H5G10201   3.395   2.706  10.168  0.5043 -1.3320 -2.4462
  101OSM    C6F10202   3.203   2.758  10.089  0.0694 -0.1923  0.0831
  101OSM    H6F10203   3.106   2.703  10.095 -0.5342  0.8893  0.2894
  101OSM    H6G10204   3.191   2.860  10.131  0.2219 -1.5378  3.5899
  101OSM    C7F10205   3.235   2.750   9.939 -0.1249 -0.7871 -0.3627
  101OSM    H7F10206   3.240   2.642   9.913  2.0832 -0.3152 -2.0418
  101OSM    H7G10207   3.331   2.804   9.925 -1.2586  1.0909 -0.9726
  101OSM    C8F10208   3.123   2.805   9.852  0.3309 -0.5986  0.2458
  101OSM    H8F10209   3.035   2.840   9.910 -0.2619 -3.5927  1.2349
  101OSM    H8G10210   3.088   2.717   9.794  1.9599  0.0052 -1.7112
  101OSM    C9F10211   3.162   2.907   9.742  0.2764  0.3331  0.1741
  101OSM    H9F10212   3.125   3.008   9.763 -1.2627 -0.1789 -0.0072
  101OSM   C10F10213   3.227   2.871   9.632  0.6409 -0.3355 -0.0988
  101OSM   H10F10214   3.243   2.943   9.550 -0.5748 -2.6311 -2.4200
  101OSM   C11F10215   3.277   2.733   9.593 -0.1978  0.1875 -0.4531
  101OSM   H11F10216   3.235   2.649   9.652 -0.7742  2.0771  1.9133
  101OSM   H11G10217   3.388   2.731   9.598 -0.2407 -2.0572  0.0420
  101OSM   C12F10218   3.236   2.708   9.441 -0.0771 -0.7408  0.0846
  101OSM   H12F10219   3.258   2.799   9.382 -5.4722  0.0469 -0.9298
  101OSM   H12G10220   3.128   2.681   9.435 -0.3498  0.3404  0.0624
  101OSM   C13F10221   3.323   2.592   9.396  0.8682  0.1515 -0.4082
  101OSM   H13F10222   3.300   2.504   9.461  0.0852 -0.6663 -1.7693
  101OSM   H13G10223   3.433   2.606   9.398  1.1994 -2.2289  3.0908
  101OSM   C14F10224   3.295   2.548   9.256 -0.3089 -0.2334  0.2164
  101OSM   H14F10225   3.310   2.627   9.180 -1.6116  0.0020  0.1934
  101OSM   H14G10226   3.189   2.516   9.247 -0.7879  1.8511 -1.7525
  101OSM   C15F10227   3.380   2.436   9.208  0.1845 -1.0434 -0.4451
  101OSM   H15F10228   3.357   2.348   9.272  0.5418 -1.1676 -0.4875
  101OSM   H15G10229   3.489   2.449   9.225  0.1743  0.7640 -1.6663
  101OSM   C16F10230   3.356   2.393   9.059 -0.4374 -0.5957 -0.6343
  101OSM   H16F10231   3.413   2.461   8.991 -2.2069  1.9564  0.3551
  101OSM   H16G10232   3.252   2.401   9.023 -0.4377  0.4182 -0.4360
  101OSM   C17F10233   3.407   2.250   9.039 -0.4497  0.8268 -0.6705
  101OSM   H17F10234   3.375   2.190   9.127 -0.5978  0.9521 -0.6393
  101OSM   H17G10235   3.517   2.243   9.052 -0.4977 -0.1206 -0.7146
  101OSM   C18F10236   3.355   2.177   8.911  0.8980  0.1770  1.0437
  101OSM   H18F10237   3.403   2.080   8.888  0.7908  0.6834 -1.4723
  101OSM   H18G10238   3.362   2.231   8.815  1.7516 -0.7857  0.5576
  101OSM   H18H10239   3.245   2.167   8.926  0.8614  0.5892  1.0512
  102OSM      N10240   6.254   4.985  11.136  0.7908 -0.2367 -0.4228
  102OSM    C1510241   6.334   5.018  11.252  1.3140  0.3049  0.9937
  102OSM   H15A10242   6.361   5.123  11.258  1.7156  0.4583 -2.3113
  102OSM   H15B10243   6.421   4.955  11.250  0.7989 -0.3883  0.1012
  102OSM   H15C10244   6.283   4.993  11.344  1.2034 -2.0060  0.3134
  102OSM    C1410245   6.227   4.845  11.128  0.0397 -0.4931 -0.3608
  102OSM   H14A10246   6.311   4.795  11.083  1.0342  0.5491  0.3255
  102OSM   H14B10247   6.144   4.826  11.061 -0.4372  0.0785  0.0664
  102OSM   H14C10248   6.198   4.801  11.222 -1.0999  0.2091 -0.3744
  102OSM    C1310249   6.119   5.055  11.149 -0.0886 -0.4214  0.1176
  102OSM   H13A10250   6.074   5.054  11.051  1.7904 -1.4221 -0.7655
  102OSM   H13B10251   6.135   5.161  11.164  1.2675 -0.5010 -0.7104
  102OSM   H13C10252   6.044   5.010  11.213  0.1723 -2.3859 -0.9348
  102OSM    C1210253   6.320   5.037  11.009 -0.1984 -0.4937  0.7672
  102OSM   H12A10254   6.426   5.024  11.023  0.0561 -0.4294 -0.8922
  102OSM   H12B10255   6.306   5.143  10.994 -2.3158 -0.9089 -0.4570
  102OSM    C1110256   6.270   4.975  10.877  0.6231  0.3515  0.5722
  102OSM   H11A10257   6.306   4.871  10.864 -3.7274 -1.1341 -0.2944
  102OSM   H11B10258   6.333   5.014  10.794 -0.8772  1.2253 -0.1570
  102OSM      P10259   6.036   4.887  10.809  0.0667  0.0931 -0.3585
  102OSM    O1310260   6.064   4.764  10.888 -0.6426  0.2773  0.4566
  102OSM    O1410261   5.905   4.945  10.829  0.2469  0.0301  0.6417
  102OSM    O1110262   6.056   4.868  10.657  0.2643  0.0033 -0.0507
  102OSM    O1210263   6.137   5.003  10.844  0.2456 -0.3734  0.1991
  102OSM    C1S10264   6.092   4.984  10.575 -0.1491 -0.2717 -1.3989
  102OSM    H1S10265   6.198   5.001  10.601 -0.9161  1.4465  0.8706
  102OSM    H1T10266   6.022   5.069  10.590 -2.0929 -2.0378 -0.0689
  102OSM     NF10267   6.135   5.060  10.349 -0.1552  0.2192 -0.2318
  102OSM    HNF10268   6.074   5.128  10.309 -2.9820 -1.7374  0.6347
  102OSM    C2S10269   6.071   4.952  10.425  0.2205  0.3632  0.6919
  102OSM    H2S10270   6.132   4.862  10.402 -0.9770 -0.3110  0.1139
  102OSM    C3S10271   5.920   4.929  10.399 -0.2174 -0.4341  0.5326
  102OSM    H3S10272   5.870   5.026  10.422 -2.4444 -1.7423  1.3509
  102OSM     O310273   5.854   4.831  10.481  0.0562 -0.4384 -0.3004
  102OSM    HO310274   5.925   4.818  10.544 -0.3785 -0.1273  0.2524
  102OSM    C4S10275   5.906   4.904  10.250  0.4078  0.0332  0.4155
  102OSM    H4S10276   5.881   4.995  10.193  1.9965 -0.4312 -1.0475
  102OSM    C5S10277   5.873   4.796  10.188  0.3605  0.6201 -0.3231
  102OSM    H5S10278   5.872   4.700  10.243 -0.4492 -1.2766 -3.5340
  102OSM    C6S10279   5.848   4.786  10.039 -0.3881  0.4390 -0.6781
  102OSM    H6S10280   5.742   4.755  10.031 -0.2666 -0.3399  0.5353
  102OSM    H6T10281   5.920   4.708  10.005 -0.6863  0.3334 -1.0775
  102OSM    C7S10282   5.876   4.908   9.956  0.1868  0.6309 -0.6923
  102OSM    H7S10283   5.986   4.922   9.947  0.3079  1.2221  1.4263
  102OSM    H7T10284   5.824   4.998   9.995  0.5095 -0.0909  1.4601
  102OSM    C8S10285   5.827   4.894   9.816  0.3773  0.5825  0.2931
  102OSM    H8S10286   5.717   4.910   9.811  0.3958  0.7083  0.2685
  102OSM    H8T10287   5.853   4.795   9.774 -0.9608 -1.4393  3.9367
  102OSM    C9S10288   5.884   5.003   9.721 -0.2772  0.3743 -0.2740
  102OSM    H9S10289   5.993   5.014   9.744 -0.0742 -0.2696 -0.9154
  102OSM    H9T10290   5.836   5.100   9.747 -2.9921 -1.0541  0.1867
  102OSM   C10S10291   5.860   4.986   9.573 -0.6678  0.1859 -0.1034
  102OSM   H10S10292   5.934   4.928   9.514 -1.3421  1.0336 -1.8133
  102OSM   H10T10293   5.873   5.087   9.531  2.3024  1.2055  3.0428
  102OSM   C11S10294   5.721   4.931   9.538 -0.4978 -0.7894 -0.1525
  102OSM   H11S10295   5.648   4.990   9.598 -2.4646 -1.9163 -1.3521
  102OSM   H11T10296   5.715   4.825   9.570  2.4938 -1.0008 -0.2211
  102OSM   C12S10297   5.700   4.943   9.384  0.1051  1.0239 -0.2368
  102OSM   H12S10298   5.618   4.877   9.350  0.2865 -1.7834  4.3945
  102OSM   H12T10299   5.790   4.912   9.326 -1.2555 -1.1111 -1.2687
  102OSM   C13S10300   5.672   5.085   9.345 -0.6564 -0.6776  0.5476
  102OSM   H13S10301   5.758   5.145   9.382  1.8496 -2.3648 -2.3760
  102OSM   H13T10302   5.581   5.121   9.399 -0.2831  0.8482  0.1667
  102OSM   C14S10303   5.650   5.109   9.193 -0.3371  0.6806 -0.6109
  102OSM   H14S10304   5.561   5.047   9.170 -1.7224  1.7269  1.8089
  102OSM   H14T10305   5.741   5.082   9.135  0.7890 -1.6053  2.1455
  102OSM   C15S10306   5.613   5.251   9.157 -0.3777 -0.1199 -0.1404
  102OSM   H15S10307   5.685   5.318   9.207  1.4333 -1.1394 -1.3341
  102OSM   H15T10308   5.508   5.269   9.189 -0.3612 -0.8093  0.3413
  102OSM   C16S10309   5.620   5.284   9.013 -0.0513 -0.1047  0.0771
  102OSM   H16S10310   5.572   5.383   8.999 -0.2260  0.0631  1.7257
  102OSM   H16T10311   5.561   5.213   8.952  0.9010 -1.4369  0.6766
  102OSM   C17S10312   5.761   5.290   8.961  0.4890  0.5730 -0.7267
  102OSM   H17S10313   5.804   5.187   8.972 -2.0729 -0.3300  1.1591
  102OSM   H17T10314   5.816   5.355   9.033  0.2868 -1.2999  1.1705
  102OSM   C18S10315   5.783   5.325   8.814 -0.3098 -0.1999  0.1507
  102OSM   H18S10316   5.890   5.316   8.786 -1.0799 -0.5418 -2.8650
  102OSM   H18T10317   5.752   5.428   8.788  0.3653  0.0746  0.4248
  102OSM   H18U10318   5.732   5.248   8.751  1.9205 -1.0888 -0.6264
  102OSM    C1F10319   6.266   5.084  10.343  1.7222 -0.8032 -0.8523
  102OSM     OF10320   6.343   5.039  10.425  0.1318  0.1508  0.4381
  102OSM    C2F10321   6.304   5.170  10.228 -0.1911 -0.1087 -0.1896
  102OSM    H2F10322   6.409   5.206  10.233 -0.6408  1.2803 -0.5316
  102OSM    H2G10323   6.252   5.266  10.249 -2.3742 -1.2811 -0.0636
  102OSM    C3F10324   6.261   5.118  10.091 -0.3610  0.8198 -0.3019
  102OSM    H3F10325   6.150   5.121  10.092 -0.3522  0.9861  0.7724
  102OSM    H3G10326   6.294   5.012  10.088 -3.2065 -0.0826 -0.6524
  102OSM    C4F10327   6.313   5.192   9.968 -0.0414 -0.0140 -0.0133
  102OSM    H4F10328   6.423   5.197   9.980  0.2198  1.0785 -2.4029
  102OSM    H4G10329   6.267   5.293   9.977  0.6136  0.2222  0.7131
  102OSM    C5F10330   6.273   5.122   9.840  0.1364  0.0906  0.0104
  102OSM    H5F10331   6.168   5.088   9.850 -0.6212  2.3659  0.2378
  102OSM    H5G10332   6.335   5.030   9.835  0.6972  0.2854  2.5534
  102OSM    C6F10333   6.267   5.216   9.722 -0.9037 -0.5357 -0.7323
  102OSM    H6F10334   6.353   5.288   9.727 -0.6030 -1.0262  1.4243
  102OSM    H6G10335   6.180   5.283   9.736 -1.3841 -0.9784 -1.5954
  102OSM    C7F10336   6.261   5.141   9.593 -0.0701  0.2214 -0.4106
  102OSM    H7F10337   6.235   5.034   9.610 -1.1355  0.2842 -1.5769
  102OSM    H7G10338   6.351   5.137   9.528  0.3592 -2.1099  0.2964
  102OSM    C8F10339   6.157   5.199   9.494 -0.1899 -0.0008 -0.0520
  102OSM    H8F10340   6.056   5.226   9.533 -0.2422  0.6908 -0.6455
  102OSM    H8G10341   6.142   5.123   9.414 -1.2442 -0.5393  0.6369
  102OSM    C9F10342   6.217   5.328   9.438  0.0483 -0.3542  0.1558
  102OSM    H9F10343   6.207   5.418   9.501 -0.1459  0.5987 -1.2202
  102OSM   C10F10344   6.275   5.350   9.316 -0.7730  0.2947 -0.0427
  102OSM   H10F10345   6.292   5.452   9.277  0.0689  0.8711  1.7681
  102OSM   C11F10346   6.285   5.242   9.216  0.2464 -0.2343  0.0873
  102OSM   H11F10347   6.287   5.148   9.274  2.6280 -0.6631 -0.6748
  102OSM   H11G10348   6.381   5.239   9.161  0.8176 -1.6750  1.1293
  102OSM   C12F10349   6.169   5.229   9.121 -0.3946 -0.3457 -0.5254
  102OSM   H12F10350   6.169   5.314   9.050  0.8514  2.2120  2.4641
  102OSM   H12G10351   6.076   5.212   9.181  0.6878  0.2630  1.3595
  102OSM   C13F10352   6.207   5.115   9.021  0.9527  0.5268  0.0015
  102OSM   H13F10353   6.225   5.025   9.084 -0.7774 -0.7142 -1.2113
  102OSM   H13G10354   6.304   5.130   8.967  1.4491  1.9676  1.2735
  102OSM   C14F10355   6.089   5.079   8.930 -0.1777 -0.5158 -0.5573
  102OSM   H14F10356   6.049   5.178   8.900  2.5011  0.4613 -0.9820
  102OSM   H14G10357   6.008   5.026   8.986 -0.4608  0.1605 -0.3221
  102OSM   C15F10358   6.134   5.000   8.809 -0.0949 -0.8456 -0.1652
  102OSM   H15F10359   6.038   4.973   8.760 -0.6529 -2.3554  1.6961
  102OSM   H15G10360   6.195   4.910   8.830 -1.9979 -1.7513  1.6580
  102OSM   C16F10361   6.206   5.084   8.700  0.3162  0.6670  0.4527
  102OSM   H16F10362   6.282   5.144   8.755 -0.4575 -0.5960  3.0121
  102OSM   H16G10363   6.126   5.151   8.661 -1.1941 -2.2868 -1.6763
  102OSM   C17F10364   6.284   5.001   8.590  0.5199 -0.0531 -0.0760
  102OSM   H17F10365   6.207   4.954   8.526 -1.2115 -0.5462  2.2940
  102OSM   H17G10366   6.332   4.924   8.654  2.1376  1.2983  0.3826
  102OSM   C18F10367   6.380   5.089   8.511  0.0402  0.0479  0.4364
  102OSM   H18F10368   6.324   5.175   8.470  0.9599 -0.0996 -1.1841
  102OSM   H18G10369   6.413   5.017   8.433 -0.2289 -0.5441  0.8660
  102OSM   H18H10370   6.460   5.134   8.572  0.7034 -1.1208  0.4411
  103OSM      N10371   4.767   1.176  11.040  0.6041  0.1124 -0.0565
  103OSM    C1510372   4.883   1.078  11.029 -0.6709  0.2700  0.3572
  103OSM   H15A10373   4.909   1.064  10.925 -0.4877  0.3748  0.3881
  103OSM   H15B10374   4.853   0.984  11.072 -1.4799  0.8084  1.0020
  103OSM   H15C10375   4.970   1.114  11.083  0.4057 -0.5595 -0.8144
  103OSM    C1410376   4.698   1.166  11.171 -0.1360 -0.1829  0.0710
  103OSM   H14A10377   4.755   1.174  11.262 -2.6118  1.1072  1.5561
  103OSM   H14B10378   4.652   1.069  11.180 -0.6507 -0.0421 -0.9731
  103OSM   H14C10379   4.613   1.232  11.179 -0.5433 -0.9259  2.2744
  103OSM    C1310380   4.807   1.317  11.015 -0.4812 -0.0335 -0.2068
  103OSM   H13A10381   4.891   1.311  10.948 -0.3319  0.5146 -0.0741
  103OSM   H13B10382   4.844   1.362  11.106  2.8884 -2.3828 -0.3289
  103OSM   H13C10383   4.727   1.376  10.973  0.3352  1.5221  0.3674
  103OSM    C1210384   4.670   1.147  10.923  0.3823  0.1650  0.5766
  103OSM   H12A10385   4.604   1.232  10.914 -0.9651 -1.0463 -1.0617
  103OSM   H12B10386   4.615   1.057  10.944  2.1971 -1.6835 -2.3318
  103OSM    C1110387   4.733   1.123  10.782 -1.0599 -0.4046 -0.9584
  103OSM   H11A10388   4.820   1.190  10.767 -1.1088 -0.1001  0.0400
  103OSM   H11B10389   4.659   1.153  10.705  0.1830 -1.1260 -2.4593
  103OSM      P10390   4.678   0.870  10.740  0.0732  0.3099  0.4707
  103OSM    O1310391   4.764   0.748  10.708  0.8645  0.0703 -0.8199
  103OSM    O1410392   4.591   0.858  10.856  0.3942  0.0289 -0.0102
  103OSM    O1110393   4.587   0.912  10.613 -0.0414 -0.7858  0.0512
  103OSM    O1210394   4.780   0.989  10.759 -0.4309 -0.1044 -0.3556
  103OSM    C1S10395   4.657   0.943  10.488  0.0284 -0.7572  0.2609
  103OSM    H1S10396   4.699   0.846  10.454 -0.5566 -0.7796 -0.3976
  103OSM    H1T10397   4.729   1.027  10.500 -0.9501  0.5385 -2.4311
  103OSM     NF10398   4.642   1.039  10.262  0.5681 -0.3141 -0.4170
  103OSM    HNF10399   4.652   1.137  10.251 -2.7831  0.3709  1.8488
  103OSM    C2S10400   4.559   0.997  10.373 -0.0517  1.1579  0.6344
  103OSM    H2S10401   4.494   0.913  10.339 -1.2140  2.6008 -0.7385
  103OSM    C3S10402   4.459   1.102  10.431 -0.1570  0.2694 -0.1118
  103OSM    H3S10403   4.519   1.178  10.486 -0.9871  0.5285  0.4434
  103OSM     O310404   4.365   1.044  10.523  0.3865 -0.5958 -0.2392
  103OSM    HO310405   4.408   0.963  10.552 -1.1297 -1.5979 -0.8019
  103OSM    C4S10406   4.378   1.162  10.316  0.5959 -0.0726 -1.1628
  103OSM    H4S10407   4.304   1.092  10.272 -0.6236  1.1566 -1.1079
  103OSM    C5S10408   4.390   1.292  10.284 -0.0587 -0.2594 -0.2522
  103OSM    H5S10409   4.460   1.343  10.351  0.1664  0.0169 -0.6968
  103OSM    C6S10410   4.324   1.380  10.181  0.5804  0.2730  0.8967
  103OSM    H6S10411   4.398   1.429  10.115  0.5994 -0.9555 -0.0134
  103OSM    H6T10412   4.261   1.458  10.228 -0.4271 -0.8906  1.5182
  103OSM    C7S10413   4.225   1.303  10.091  0.2133  0.2022 -0.0027
  103OSM    H7S10414   4.153   1.251  10.158  1.3196 -0.3866  0.7332
  103OSM    H7T10415   4.274   1.224  10.031  0.3292 -0.4358  0.9187
  103OSM    C8S10416   4.141   1.387   9.991  0.1017 -0.0385  0.0602
  103OSM    H8S10417   4.225   1.440   9.942  0.1453 -1.7818 -1.8126
  103OSM    H8T10418   4.082   1.466  10.042 -2.1824 -2.2091  0.9030
  103OSM    C9S10419   4.059   1.315   9.881  0.5620  0.5314 -0.4955
  103OSM    H9S10420   3.969   1.271   9.930  0.7424 -0.0981 -0.7200
  103OSM    H9T10421   4.125   1.232   9.849 -1.5966 -1.6316  0.4771
  103OSM   C10S10422   4.048   1.414   9.759 -0.8014  0.5097 -0.5202
  103OSM   H10S10423   4.142   1.471   9.742 -2.5726  2.9433 -2.3287
  103OSM   H10T10424   3.966   1.487   9.775 -1.3855 -0.3877  0.7264
  103OSM   C11S10425   4.024   1.334   9.634  0.8316  1.1891  0.9048
  103OSM   H11S10426   3.936   1.266   9.633  1.1641  0.7462 -1.5810
  103OSM   H11T10427   4.112   1.274   9.601 -1.4969 -0.5075 -2.5448
  103OSM   C12S10428   3.997   1.436   9.520 -0.0887 -0.3672  0.5355
  103OSM   H12S10429   4.095   1.487   9.508 -0.2512  0.0072  0.8289
  103OSM   H12T10430   3.920   1.503   9.563 -0.9634 -0.5998 -0.6416
  103OSM   C13S10431   3.942   1.379   9.387 -0.5146 -0.1731  0.0931
  103OSM   H13S10432   3.984   1.280   9.360 -0.5057 -0.5466  1.4391
  103OSM   H13T10433   3.971   1.447   9.303  1.9850 -0.4355  0.6972
  103OSM   C14S10434   3.785   1.367   9.391  0.4695 -0.2935  0.6294
  103OSM   H14S10435   3.745   1.469   9.411  1.0956  0.1073 -0.1054
  103OSM   H14T10436   3.746   1.299   9.469 -1.1547 -0.8503 -0.6610
  103OSM   C15S10437   3.725   1.304   9.260 -0.0738 -0.2470  0.2968
  103OSM   H15S10438   3.616   1.290   9.277 -0.3235 -0.2385 -1.2564
  103OSM   H15T10439   3.769   1.202   9.257  0.2866 -0.0926  0.2578
  103OSM   C16S10440   3.767   1.378   9.127 -0.0133  0.7380 -0.0557
  103OSM   H16S10441   3.878   1.372   9.120 -0.1293  0.3753 -1.6207
  103OSM   H16T10442   3.737   1.484   9.142  2.9468  1.5522  0.4759
  103OSM   C17S10443   3.707   1.329   8.993  0.3498  0.2050  0.0941
  103OSM   H17S10444   3.753   1.231   8.965  1.9895  0.6518  1.1423
  103OSM   H17T10445   3.748   1.394   8.913 -0.8458  0.4789 -0.2993
  103OSM   C18S10446   3.550   1.316   8.994 -0.4706  0.0757  0.7769
  103OSM   H18S10447   3.501   1.416   8.996  1.4799  1.2050 -3.4853
  103OSM   H18T10448   3.532   1.240   9.073 -0.3563  2.0209  2.7139
  103OSM   H18U10449   3.527   1.257   8.903  1.2684 -0.5306  0.7010
  103OSM    C1F10450   4.714   0.950  10.191  0.3624  0.0020 -0.0586
  103OSM     OF10451   4.688   0.829  10.200  0.3493 -0.5732  0.0107
  103OSM    C2F10452   4.817   0.997  10.098  0.2708 -0.1153 -0.2665
  103OSM    H2F10453   4.858   1.097  10.124  0.8451 -0.1701 -0.9531
  103OSM    H2G10454   4.774   1.022   9.998  2.6728  2.3863 -0.7244
  103OSM    C3F10455   4.927   0.893  10.079 -0.0153  0.1029 -0.2773
  103OSM    H3F10456   4.878   0.803  10.038 -1.5748 -0.2196  2.1652
  103OSM    H3G10457   4.968   0.861  10.177  1.3427 -0.7928 -1.1132
  103OSM    C4F10458   5.042   0.938   9.988  0.5685  0.4111  0.0613
  103OSM    H4F10459   5.093   0.841   9.971 -0.7582  0.0789 -2.2155
  103OSM    H4G10460   5.097   1.016  10.046 -1.0169 -0.8969  3.4350
  103OSM    C5F10461   4.981   0.971   9.853  0.4873  0.1099  0.4773
  103OSM    H5F10462   4.918   1.061   9.869  0.6684  0.1544  0.9634
  103OSM    H5G10463   4.918   0.886   9.818 -1.2350  1.2373  0.8130
  103OSM    C6F10464   5.090   1.007   9.746 -0.0017  0.3516  0.2534
  103OSM    H6F10465   5.140   0.920   9.698  3.0350  1.8920  0.5079
  103OSM    H6G10466   5.165   1.067   9.801  0.9128 -1.1549  0.6908
  103OSM    C7F10467   5.038   1.092   9.634 -0.4120  0.4503  0.1141
  103OSM    H7F10468   5.122   1.120   9.568 -1.0709  0.6374 -0.6516
  103OSM    H7G10469   4.999   1.188   9.675 -1.5931 -0.6522  1.6710
  103OSM    C8F10470   4.924   1.030   9.543 -0.0240  0.7766  0.2206
  103OSM    H8F10471   4.834   0.993   9.597 -0.1035 -0.5057 -0.7616
  103OSM    H8G10472   4.969   0.938   9.499 -2.0301 -0.1561  0.0802
  103OSM    C9F10473   4.887   1.126   9.430 -0.5383 -0.0472  0.4156
  103OSM    H9F10474   4.802   1.190   9.458 -1.5901 -0.9261 -0.7334
  103OSM   C10F10475   4.956   1.161   9.319 -0.0940 -0.1415 -0.4825
  103OSM   H10F10476   4.912   1.240   9.256 -0.5385 -1.1770 -1.4875
  103OSM   C11F10477   5.097   1.100   9.288 -0.2590 -0.0776  0.1543
  103OSM   H11F10478   5.092   1.076   9.179 -1.0151 -1.3632  0.4677
  103OSM   H11G10479   5.109   1.001   9.339 -0.0005 -1.0616 -1.7514
  103OSM   C12F10480   5.219   1.190   9.326  0.5321  0.1048 -0.7785
  103OSM   H12F10481   5.312   1.131   9.311  0.8952  0.4694  0.0188
  103OSM   H12G10482   5.213   1.218   9.433  0.4917  0.9686 -0.9979
  103OSM   C13F10483   5.230   1.321   9.252  0.4346 -0.0730 -1.1486
  103OSM   H13F10484   5.288   1.395   9.312  0.6906 -1.7028  0.6907
  103OSM   H13G10485   5.128   1.363   9.240 -0.5030 -1.0184  2.6055
  103OSM   C14F10486   5.278   1.296   9.110  0.2935 -0.0026  0.0397
  103OSM   H14F10487   5.204   1.234   9.054  2.4067 -1.5275 -1.0984
  103OSM   H14G10488   5.372   1.238   9.110 -0.9331 -2.1096 -2.8350
  103OSM   C15F10489   5.296   1.428   9.033  0.2938  0.5002 -0.6036
  103OSM   H15F10490   5.350   1.501   9.096  1.6133 -2.9296  2.4184
  103OSM   H15G10491   5.196   1.464   9.001 -1.4778 -1.8098  2.0605
  103OSM   C16F10492   5.392   1.402   8.912 -0.2593 -0.1039 -0.8702
  103OSM   H16F10493   5.348   1.322   8.849 -1.0048 -0.2663 -0.1548
  103OSM   H16G10494   5.496   1.378   8.944 -0.0245  0.0444 -1.5130
  103OSM   C17F10495   5.421   1.538   8.844  0.3950  0.4419  0.3825
  103OSM   H17F10496   5.453   1.612   8.920 -0.9583  1.6223 -0.1699
  103OSM   H17G10497   5.319   1.575   8.818 -0.4325 -0.7829  1.7615
  103OSM   C18F10498   5.514   1.541   8.719 -0.1258  0.1672  0.7412
  103OSM   H18F10499   5.612   1.496   8.744 -0.6033 -1.4519 -0.1983
  103OSM   H18G10500   5.529   1.642   8.676 -0.8134 -0.8769 -2.0891
  103OSM   H18H10501   5.463   1.478   8.643  0.5690  0.7864 -0.2593
  104OSM      N10502   5.807   0.754  11.289 -0.0421  0.6056 -0.8556
  104OSM    C1510503   5.717   0.870  11.318  0.4279 -0.0591  0.4207
  104OSM   H15A10504   5.710   0.934  11.232 -0.4325 -1.0511 -0.2630
  104OSM   H15B10505   5.749   0.932  11.400  1.6704 -1.0145  0.6836
  104OSM   H15C10506   5.621   0.829  11.348 -0.5384 -0.4707 -2.9261
  104OSM    C1410507   5.944   0.812  11.266  0.4827 -0.1269  0.0831
  104OSM   H14A10508   5.997   0.736  11.211  1.0949  0.1015  0.3560
  104OSM   H14B10509   6.001   0.850  11.349 -2.2580  1.5886  1.2320
  104OSM   H14C10510   5.943   0.889  11.190 -1.3668 -0.2395 -0.0227
  104OSM    C1310511   5.806   0.675  11.413 -0.3066  0.5834  0.0491
  104OSM   H13A10512   5.710   0.643  11.451 -0.4330  1.8756  0.8510
  104OSM   H13B10513   5.851   0.728  11.496  0.4644  1.7098 -1.0567
  104OSM   H13C10514   5.870   0.589  11.403 -0.2308 -0.0811  5.1531
  104OSM    C1210515   5.742   0.684  11.169 -0.4933  0.3506 -0.0112
  104OSM   H12A10516   5.735   0.751  11.085  0.3407  0.1481 -0.2519
  104OSM   H12B10517   5.641   0.659  11.197 -0.0830 -1.5274 -0.1558
  104OSM    C1110518   5.814   0.565  11.102 -0.4723 -1.0492 -0.3098
  104OSM   H11A10519   5.745   0.534  11.020  0.8141  0.0070 -1.8120
  104OSM   H11B10520   5.819   0.485  11.179  0.1598 -1.2825 -0.5890
  104OSM      P10521   6.048   0.507  11.005  0.2286 -0.3363 -0.0645
  104OSM    O1310522   6.171   0.576  10.967 -0.5319  0.0487 -0.1334
  104OSM    O1410523   6.062   0.396  11.101 -0.0760  0.4630  0.4923
  104OSM    O1110524   5.985   0.449  10.873  0.2378  0.2752  0.1346
  104OSM    O1210525   5.944   0.609  11.047  0.3291 -0.4817 -0.2500
  104OSM    C1S10526   5.933   0.533  10.763  0.4692 -0.0062  0.3947
  104OSM    H1S10527   5.925   0.641  10.784 -0.7933 -0.6411  3.3913
  104OSM    H1T10528   5.829   0.500  10.743 -0.3865  1.2922  2.5845
  104OSM     NF10529   5.945   0.579  10.509  0.2778  0.4602 -0.8777
  104OSM    HNF10530   5.878   0.526  10.458 -0.0905  0.4075 -0.3466
  104OSM    C2S10531   6.005   0.509  10.628 -0.3670  0.0743  0.3362
  104OSM    H2S10532   6.110   0.543  10.624 -0.9438  1.7529 -1.3547
  104OSM    C3S10533   6.011   0.355  10.606  0.5515 -0.1029  0.3087
  104OSM    H3S10534   5.903   0.331  10.614  0.0997  1.1068 -1.6680
  104OSM     O310535   6.088   0.286  10.696 -0.2234 -0.2578 -0.1146
  104OSM    HO310536   6.083   0.338  10.776  0.0302  1.6659 -1.3169
  104OSM    C4S10537   6.061   0.321  10.465  0.6725 -0.0807  0.2959
  104OSM    H4S10538   5.970   0.317  10.403 -0.6417 -0.0731  2.1891
  104OSM    C5S10539   6.181   0.312  10.400  0.1981  0.0844  0.8072
  104OSM    H5S10540   6.270   0.333  10.461 -0.0067  1.7020  0.5563
  104OSM    C6S10541   6.193   0.269  10.256  0.3895  0.0711  0.1952
  104OSM    H6S10542   6.103   0.214  10.222  0.1301  0.6986 -0.1525
  104OSM    H6T10543   6.283   0.209  10.231  0.1714 -1.2351  2.4028
  104OSM    C7S10544   6.212   0.397  10.173  0.0694  0.3419 -0.4976
  104OSM    H7S10545   6.314   0.439  10.183  0.0661  0.2246  0.0727
  104OSM    H7T10546   6.129   0.464  10.205  0.0046  0.2828 -0.5416
  104OSM    C8S10547   6.181   0.378  10.021  0.0477  0.4405 -0.0624
  104OSM    H8S10548   6.071   0.389  10.008 -0.4277 -2.1839  1.3632
  104OSM    H8T10549   6.221   0.277   9.996  0.0673  0.9172 -2.0259
  104OSM    C9S10550   6.256   0.466   9.926 -0.1374 -0.2954  0.0454
  104OSM    H9S10551   6.364   0.450   9.945 -0.2219 -0.0878  0.7140
  104OSM    H9T10552   6.247   0.574   9.951  0.1873 -0.5111  1.1432
  104OSM   C10S10553   6.225   0.456   9.777 -0.0869 -0.4538 -0.4256
  104OSM   H10S10554   6.207   0.557   9.734 -1.2218 -1.1431 -1.5905
  104OSM   H10T10555   6.130   0.398   9.773  0.4153 -1.3238  0.1718
  104OSM   C11S10556   6.335   0.391   9.694 -0.5205  0.3420  0.2632
  104OSM   H11S10557   6.307   0.284   9.686  1.7805 -0.4064  1.6497
  104OSM   H11T10558   6.432   0.394   9.749 -1.0842 -0.2025  1.2998
  104OSM   C12S10559   6.348   0.446   9.550  0.2276 -0.3297 -0.4824
  104OSM   H12S10560   6.456   0.464   9.529 -0.2215  0.8284 -1.8514
  104OSM   H12T10561   6.304   0.546   9.530  0.0035 -0.1692  0.7803
  104OSM   C13S10562   6.296   0.352   9.444  0.2400  0.5462 -0.1073
  104OSM   H13S10563   6.187   0.346   9.466  0.3291 -1.1047 -0.0636
  104OSM   H13T10564   6.349   0.256   9.459 -0.0922  0.6880  2.1222
  104OSM   C14S10565   6.309   0.401   9.299  0.3087  0.2020 -0.3463
  104OSM   H14S10566   6.415   0.419   9.273 -0.1477  0.7485 -1.9266
  104OSM   H14T10567   6.261   0.501   9.288 -1.0082 -0.3495  0.2244
  104OSM   C15S10568   6.262   0.290   9.203 -0.2930  0.6470 -0.9194
  104OSM   H15S10569   6.160   0.252   9.222  0.2007 -0.5997 -0.6966
  104OSM   H15T10570   6.343   0.216   9.221 -1.5190 -0.8029 -1.3257
  104OSM   C16S10571   6.269   0.332   9.054  0.5608  0.0966 -0.6224
  104OSM   H16S10572   6.356   0.401   9.043 -0.1781  0.8176 -2.0716
  104OSM   H16T10573   6.186   0.403   9.033  0.1953 -0.0549  0.3116
  104OSM   C17S10574   6.263   0.219   8.951 -0.4031 -0.0489  0.2026
  104OSM   H17S10575   6.197   0.140   8.992 -2.2607  1.1942 -0.3139
  104OSM   H17T10576   6.364   0.176   8.935  0.9750  1.3884  4.2609
  104OSM   C18S10577   6.222   0.276   8.820 -0.0117  0.2100  1.0177
  104OSM   H18S10578   6.292   0.356   8.790  1.1671 -0.2334  2.5465
  104OSM   H18T10579   6.118   0.315   8.818  0.2521  0.8589 -2.1880
  104OSM   H18U10580   6.223   0.199   8.739 -0.4582 -0.1818  1.3807
  104OSM    C1F10581   5.953   0.713  10.495  0.5116 -0.8050 -0.7701
  104OSM     OF10582   6.018   0.778  10.576  0.3979 -0.3086 -0.1494
  104OSM    C2F10583   5.880   0.779  10.388  0.7792  0.0381 -0.3336
  104OSM    H2F10584   5.926   0.879  10.370  1.4021 -0.5900 -2.3175
  104OSM    H2G10585   5.772   0.786  10.413  0.8038  0.5107 -0.3604
  104OSM    C3F10586   5.884   0.700  10.260 -0.2718 -0.1420  0.0987
  104OSM    H3F10587   5.821   0.608  10.263 -0.3042 -0.2048 -2.0186
  104OSM    H3G10588   5.987   0.661  10.252 -0.7067 -1.3313  0.1437
  104OSM    C4F10589   5.835   0.779  10.131  0.1593  0.8369  0.5817
  104OSM    H4F10590   5.886   0.877  10.133  1.5148  0.1525  0.5216
  104OSM    H4G10591   5.726   0.797  10.119 -0.7150 -1.5757  4.0325
  104OSM    C5F10592   5.891   0.707  10.008  0.1767 -0.2475  0.1826
  104OSM    H5F10593   5.845   0.606   9.997 -1.2267  0.7279 -3.5332
  104OSM    H5G10594   5.999   0.686  10.023  0.0724 -0.8074  0.1632
  104OSM    C6F10595   5.865   0.793   9.883 -0.1296 -0.2046  0.4493
  104OSM    H6F10596   5.857   0.902   9.904 -1.2085 -0.3541  0.8059
  104OSM    H6G10597   5.771   0.757   9.838 -0.1257  1.3233 -0.8492
  104OSM    C7F10598   5.975   0.770   9.783  0.0480 -0.0256  0.5360
  104OSM    H7F10599   5.983   0.660   9.769  1.9806  0.4402 -2.7221
  104OSM    H7G10600   6.076   0.804   9.815  0.1720  1.9044 -1.7175
  104OSM    C8F10601   5.937   0.835   9.647 -0.3768  0.3191 -0.4566
  104OSM    H8F10602   5.916   0.943   9.664 -3.2463 -0.4217  1.0592
  104OSM    H8G10603   5.836   0.794   9.624 -1.2559  0.5457  2.7887
  104OSM    C9F10604   6.044   0.812   9.539 -0.1647  0.4162  0.0222
  104OSM    H9F10605   6.131   0.879   9.538 -0.6023  1.0049 -3.3535
  104OSM   C10F10606   6.050   0.705   9.458 -0.1285 -0.2202  0.3597
  104OSM   H10F10607   6.131   0.704   9.384  1.3019  2.1542  1.8401
  104OSM   C11F10608   5.950   0.592   9.453 -0.0879  0.6159 -0.0855
  104OSM   H11F10609   5.886   0.587   9.544  1.3639 -1.0990  0.8526
  104OSM   H11G10610   6.011   0.500   9.457 -1.4955 -0.4657 -2.7259
  104OSM   C12F10611   5.863   0.601   9.326  0.3881 -0.2991 -0.2074
  104OSM   H12F10612   5.807   0.697   9.332  0.8659 -0.0519  0.3250
  104OSM   H12G10613   5.796   0.513   9.335  1.2185 -1.0224 -1.0115
  104OSM   C13F10614   5.937   0.601   9.190 -0.3488  0.9838 -0.3095
  104OSM   H13F10615   5.968   0.498   9.163  1.3234  2.0887 -2.7139
  104OSM   H13G10616   6.019   0.676   9.189 -0.1135  0.7108 -1.2344
  104OSM   C14F10617   5.829   0.648   9.085  0.3898  0.4205 -0.0132
  104OSM   H14F10618   5.801   0.753   9.109 -0.9533 -0.1149  0.7573
  104OSM   H14G10619   5.737   0.587   9.093  0.7043 -0.5359 -2.8705
  104OSM   C15F10620   5.871   0.635   8.937  0.1846 -0.2090 -0.1725
  104OSM   H15F10621   5.895   0.527   8.921  3.5308  0.3671  0.6108
  104OSM   H15G10622   5.959   0.691   8.898 -1.5257  2.0786 -0.8270
  104OSM   C16F10623   5.751   0.658   8.849  0.9274 -0.2286  0.5338
  104OSM   H16F10624   5.698   0.749   8.885  3.1973  0.9862  0.8991
  104OSM   H16G10625   5.683   0.572   8.870  1.9839 -1.5829 -1.4271
  104OSM   C17F10626   5.787   0.673   8.705  0.5646 -0.0859  1.1283
  104OSM   H17F10627   5.839   0.771   8.702 -1.2349  0.9911  2.9630
  104OSM   H17G10628   5.694   0.695   8.649 -0.5236 -0.7084  2.6401
  104OSM   C18F10629   5.862   0.550   8.652 -0.9475 -0.0540 -0.0159
  104OSM   H18F10630   5.919   0.580   8.562 -0.8479  0.9428  0.3748
  104OSM   H18G10631   5.778   0.480   8.629 -0.6624 -0.6332  0.7064
  104OSM   H18H10632   5.941   0.508   8.717  1.4859  2.6399 -1.1327
  105OSM      N10633   2.920   2.377  11.055  0.2988 -0.3562 -0.3647
  105OSM    C1510634   2.863   2.244  11.101  0.4386  0.2520 -0.3301
  105OSM   H15A10635   2.792   2.207  11.029  2.9150 -2.0207 -1.7276
  105OSM   H15B10636   2.825   2.259  11.201  1.6588 -0.7623  0.3101
  105OSM   H15C10637   2.933   2.164  11.122 -0.9692 -0.9132 -0.0009
  105OSM    C1410638   2.982   2.432  11.174  0.2186 -0.2333 -0.7993
  105OSM   H14A10639   3.047   2.515  11.152 -0.4601  0.7042  0.6777
  105OSM   H14B10640   3.051   2.357  11.210  1.4723  1.9564  1.4897
  105OSM   H14C10641   2.914   2.464  11.251  2.1607  0.5727  0.6173
  105OSM    C1310642   3.016   2.334  10.940  0.3760 -0.0490  0.1538
  105OSM   H13A10643   3.099   2.271  10.968  1.6668  1.0939 -1.0490
  105OSM   H13B10644   3.069   2.415  10.892 -1.6032 -0.7016 -3.2856
  105OSM   H13C10645   2.962   2.284  10.861 -0.5209  1.1016  0.0282
  105OSM    C1210646   2.814   2.484  11.005  0.2136  1.5114 -0.3580
  105OSM   H12A10647   2.864   2.573  10.972  1.8488  0.6356 -0.2954
  105OSM   H12B10648   2.754   2.517  11.088  0.2587 -0.8433  0.6509
  105OSM    C1110649   2.715   2.433  10.896  0.2021 -0.1150 -0.0217
  105OSM   H11A10650   2.772   2.443  10.801  1.1400  2.0342  0.7483
  105OSM   H11B10651   2.636   2.509  10.875  1.1111  0.4942 -1.2966
  105OSM      P10652   2.593   2.216  10.820  0.4463  0.0532  0.3351
  105OSM    O1310653   2.697   2.114  10.794 -0.1694 -0.1000 -0.0567
  105OSM    O1410654   2.459   2.174  10.861 -0.6804  0.0145 -0.1523
  105OSM    O1110655   2.568   2.301  10.691 -0.0014  0.3122 -0.0001
  105OSM    O1210656   2.636   2.316  10.932  0.4942 -0.1367 -0.0827
  105OSM    C1S10657   2.451   2.389  10.687 -0.5514 -0.0722  0.5748
  105OSM    H1S10658   2.446   2.448  10.781 -1.5093  0.8458 -0.0370
  105OSM    H1T10659   2.355   2.334  10.680 -0.9901  1.0239 -3.4028
  105OSM     NF10660   2.374   2.598  10.575  0.1746  0.1483 -0.1001
  105OSM    HNF10661   2.294   2.604  10.515 -0.3445  2.0076  0.7487
  105OSM    C2S10662   2.461   2.489  10.564 -0.4599  0.2507  1.0008
  105OSM    H2S10663   2.566   2.525  10.557 -0.6836  0.5983 -0.9174
  105OSM    C3S10664   2.440   2.401  10.427 -0.1811  0.6106  0.2148
  105OSM    H3S10665   2.335   2.363  10.431  0.0387 -0.1189 -0.7607
  105OSM     O310666   2.525   2.278  10.421  0.2402  0.5481 -0.0820
  105OSM    HO310667   2.551   2.264  10.513 -0.7743  2.3980  0.5049
  105OSM    C4S10668   2.445   2.475  10.293 -0.1555  0.7870 -0.3568
  105OSM    H4S10669   2.535   2.538  10.287 -0.9492  2.0037  0.3056
  105OSM    C5S10670   2.373   2.462  10.180  0.5241 -0.8347 -0.2686
  105OSM    H5S10671   2.289   2.392  10.187  0.7813 -1.1638 -0.4316
  105OSM    C6S10672   2.378   2.533  10.046  0.8043 -0.2272  0.9355
  105OSM    H6S10673   2.479   2.579  10.044  0.4887  0.4076 -1.5823
  105OSM    H6T10674   2.291   2.601  10.036 -1.9930 -3.9067 -1.4011
  105OSM    C7S10675   2.383   2.437   9.919  0.7692  0.1620  0.3916
  105OSM    H7S10676   2.289   2.378   9.926  1.8935 -1.6553  0.3994
  105OSM    H7T10677   2.474   2.374   9.914 -0.5703 -1.8033  0.1382
  105OSM    C8S10678   2.386   2.510   9.783 -0.5985  0.3247  0.0202
  105OSM    H8S10679   2.494   2.527   9.763 -1.2100  0.0032 -3.9131
  105OSM    H8T10680   2.325   2.602   9.792  0.8882  1.6902 -3.1432
  105OSM    C9S10681   2.318   2.424   9.672 -0.5000  0.6089 -0.9139
  105OSM    H9S10682   2.208   2.420   9.689 -0.3005  2.3110  0.9730
  105OSM    H9T10683   2.370   2.326   9.680 -1.0181  0.5088  1.8246
  105OSM   C10S10684   2.337   2.485   9.532  0.2404  0.2417  0.4233
  105OSM   H10S10685   2.446   2.501   9.526 -0.0877  2.2339 -0.5104
  105OSM   H10T10686   2.296   2.588   9.532  1.4309  0.7617 -2.1809
  105OSM   C11S10687   2.291   2.382   9.426  0.8246 -0.4410 -0.1274
  105OSM   H11S10688   2.182   2.362   9.428  0.6388  0.3961 -1.2554
  105OSM   H11T10689   2.347   2.288   9.442  1.3378 -0.2064 -0.5413
  105OSM   C12S10690   2.322   2.432   9.282 -0.3375  0.9630  0.5030
  105OSM   H12S10691   2.427   2.468   9.289  0.9295 -2.8959  2.8251
  105OSM   H12T10692   2.245   2.508   9.259 -1.8577 -0.8620 -0.6198
  105OSM   C13S10693   2.295   2.327   9.172 -0.5116 -0.3803  0.2814
  105OSM   H13S10694   2.206   2.268   9.202 -1.1214  1.8711  3.2418
  105OSM   H13T10695   2.379   2.257   9.190  1.1629  1.9278  1.7766
  105OSM   C14S10696   2.286   2.365   9.027  0.2012 -0.7310  0.3828
  105OSM   H14S10697   2.323   2.271   8.982 -1.6924 -0.2898 -2.1447
  105OSM   H14T10698   2.365   2.435   8.993 -0.3347  0.0286  0.6860
  105OSM   C15S10699   2.148   2.395   8.967 -0.2081  0.4584 -0.1924
  105OSM   H15S10700   2.121   2.496   9.004  1.6074  1.5002 -1.6141
  105OSM   H15T10701   2.076   2.324   9.012  0.3403  1.4551  2.3259
  105OSM   C16S10702   2.130   2.391   8.813  0.2444  1.1855  0.1202
  105OSM   H16S10703   2.021   2.407   8.799  0.1083 -2.2536 -3.3958
  105OSM   H16T10704   2.140   2.286   8.778 -0.4852  1.2525 -0.3113
  105OSM   C17S10705   2.221   2.489   8.741  0.0936 -0.3229 -0.2773
  105OSM   H17S10706   2.324   2.450   8.748 -0.1926 -0.9038  0.7605
  105OSM   H17T10707   2.215   2.587   8.792 -2.1862 -0.7122  0.2644
  105OSM   C18S10708   2.189   2.496   8.594 -0.7665 -0.1081  0.8116
  105OSM   H18S10709   2.238   2.587   8.552 -0.2177 -1.0527 -0.6468
  105OSM   H18T10710   2.079   2.504   8.575 -1.0537 -1.3832  1.8532
  105OSM   H18U10711   2.213   2.400   8.544  0.6388  0.9508 -0.5940
  105OSM    C1F10712   2.400   2.692  10.667  0.0794  0.5428  0.2228
  105OSM     OF10713   2.505   2.695  10.731  0.0137  0.3363 -0.1306
  105OSM    C2F10714   2.305   2.804  10.690 -0.2054  0.3517 -0.0302
  105OSM    H2F10715   2.281   2.821  10.797 -0.0181 -0.4015  0.1331
  105OSM    H2G10716   2.215   2.778  10.630  0.3177 -1.8016  0.0826
  105OSM    C3F10717   2.349   2.945  10.637 -0.3198 -0.3913 -0.0463
  105OSM    H3F10718   2.440   2.980  10.689 -0.8280  0.0295  0.5729
  105OSM    H3G10719   2.265   3.016  10.655  0.2213  0.4395 -0.7406
  105OSM    C4F10720   2.398   2.962  10.490 -0.7264 -0.6667 -0.0861
  105OSM    H4F10721   2.333   2.909  10.418 -0.2693  1.6701 -2.2661
  105OSM    H4G10722   2.499   2.917  10.481 -0.3518 -0.9153  4.0837
  105OSM    C5F10723   2.423   3.111  10.445  0.2105 -0.1551  0.4671
  105OSM    H5F10724   2.510   3.161  10.492  0.0133 -0.3202  1.0124
  105OSM    H5G10725   2.333   3.173  10.465  0.6331  0.4843  0.3884
  105OSM    C6F10726   2.447   3.117  10.289 -0.4388 -0.1945  0.4163
  105OSM    H6F10727   2.364   3.065  10.237  0.6274 -0.2344 -1.2885
  105OSM    H6G10728   2.538   3.065  10.250  0.2903 -0.1480  2.0219
  105OSM    C7F10729   2.454   3.264  10.240 -0.1867  0.2232 -0.3488
  105OSM    H7F10730   2.523   3.314  10.311 -2.0549 -1.9392  3.1042
  105OSM    H7G10731   2.352   3.307  10.244  0.3649  1.3653  2.1788
  105OSM    C8F10732   2.497   3.289  10.095  0.1384  0.2863 -0.3635
  105OSM    H8F10733   2.429   3.236  10.026 -0.0880  1.4047 -1.0094
  105OSM    H8G10734   2.592   3.242  10.060 -0.5592 -1.6170  0.2727
  105OSM    C9F10735   2.500   3.435  10.057  0.5821 -0.3778 -0.7402
  105OSM    H9F10736   2.528   3.509  10.134  1.1850 -0.0854 -1.2423
  105OSM   C10F10737   2.469   3.481   9.937 -0.1162  0.3339  0.0605
  105OSM   H10F10738   2.458   3.590   9.928  1.0362  0.6107  1.6864
  105OSM   C11F10739   2.421   3.402   9.823  0.2277 -0.4192  0.1562
  105OSM   H11F10740   2.311   3.410   9.806  0.5980  2.3930 -1.2237
  105OSM   H11G10741   2.437   3.292   9.829  1.4880 -0.3029 -0.9807
  105OSM   C12F10742   2.495   3.443   9.692 -0.1835  0.4576 -0.4722
  105OSM   H12F10743   2.606   3.452   9.699 -0.2846  1.3335  0.1145
  105OSM   H12G10744   2.471   3.549   9.672  1.0512  1.4941  3.1428
  105OSM   C13F10745   2.475   3.350   9.569  0.0164 -0.2292  0.3100
  105OSM   H13F10746   2.366   3.357   9.547 -0.1491 -0.9503  0.8667
  105OSM   H13G10747   2.485   3.244   9.600 -0.9890  0.2084  2.2842
  105OSM   C14F10748   2.557   3.389   9.443  0.7785 -0.3877  0.7903
  105OSM   H14F10749   2.656   3.344   9.465  1.4946  0.4699 -0.6092
  105OSM   H14G10750   2.571   3.497   9.422 -1.8584 -0.4857 -1.8121
  105OSM   C15F10751   2.517   3.315   9.309 -0.1511  0.3649  0.2165
  105OSM   H15F10752   2.418   3.348   9.272 -0.8732  0.0760  1.8671
  105OSM   H15G10753   2.505   3.208   9.336  1.9371  0.2278  0.7497
  105OSM   C16F10754   2.631   3.336   9.203 -0.5933  0.0437  0.4223
  105OSM   H16F10755   2.734   3.307   9.234  0.2548  1.8564 -0.6477
  105OSM   H16G10756   2.644   3.439   9.165 -1.3574 -0.4497 -1.2359
  105OSM   C17F10757   2.596   3.245   9.092 -0.5300 -0.5858  0.0882
  105OSM   H17F10758   2.498   3.281   9.054 -1.5345 -0.9252  2.3081
  105OSM   H17G10759   2.573   3.145   9.135  0.4592 -1.9127 -2.3234
  105OSM   C18F10760   2.710   3.217   8.987 -0.4203 -0.0222 -0.3066
  105OSM   H18F10761   2.771   3.136   9.034 -2.7430 -0.8224  1.4335
  105OSM   H18G10762   2.771   3.304   8.957  0.1499 -0.6139 -0.8627
  105OSM   H18H10763   2.663   3.171   8.898  2.0738  1.4367 -2.4409
  106OSM      N10764   0.883   2.167  10.826  0.3397 -0.2913  0.0551
  106OSM    C1510765   0.985   2.109  10.912  0.0211  0.4934  0.1024
  106OSM   H15A10766   0.946   2.076  11.007 -0.8210 -0.4928 -0.5660
  106OSM   H15B10767   1.067   2.178  10.919  0.4692  0.1104 -1.1802
  106OSM   H15C10768   1.028   2.022  10.863 -0.1735 -0.5616  1.7542
  106OSM    C1410769   0.784   2.057  10.792 -0.1382 -0.2993  0.0340
  106OSM   H14A10770   0.833   1.962  10.776 -2.8344 -1.6128 -0.7895
  106OSM   H14B10771   0.725   2.092  10.709 -1.1109  1.3000  1.3628
  106OSM   H14C10772   0.724   2.034  10.879 -3.7113  0.3635 -2.1817
  106OSM    C1310773   0.809   2.274  10.904  0.0288 -0.3748 -0.3901
  106OSM   H13A10774   0.726   2.324  10.856  0.0536 -0.6544 -0.7208
  106OSM   H13B10775   0.887   2.345  10.926 -0.0476 -0.6730  0.8788
  106OSM   H13C10776   0.770   2.238  10.998 -0.6118 -0.2999 -0.6202
  106OSM    C1210777   0.939   2.216  10.697 -0.2669  0.9097  0.5184
  106OSM   H12A10778   0.858   2.245  10.633  0.0549 -1.4469 -1.0128
  106OSM   H12B10779   0.992   2.136  10.648  0.7554  2.4258 -0.8925
  106OSM    C1110780   1.048   2.327  10.700  0.2898  0.1719 -0.4266
  106OSM   H11A10781   1.009   2.412  10.761 -1.9441  0.3106 -1.9895
  106OSM   H11B10782   1.058   2.362  10.595 -0.8335 -0.1966 -0.6599
  106OSM      P10783   1.294   2.239  10.671  0.2721  0.2963 -0.2826
  106OSM    O1310784   1.401   2.196  10.768 -0.1824 -0.1069 -0.0068
  106OSM    O1410785   1.248   2.141  10.563 -0.0082 -0.0643 -0.2723
  106OSM    O1110786   1.331   2.374  10.599  0.4077  0.2795 -0.2982
  106OSM    O1210787   1.168   2.281  10.759 -0.0963  0.5291  0.6243
  106OSM    C1S10788   1.386   2.373  10.468 -0.1672  1.4504 -0.5898
  106OSM    H1S10789   1.343   2.294  10.403  0.1139  0.5720  0.2884
  106OSM    H1T10790   1.493   2.342  10.469 -0.7168 -0.5131 -1.1437
  106OSM     NF10791   1.426   2.503  10.255  0.0679  0.3760 -0.1481
  106OSM    HNF10792   1.514   2.545  10.234 -0.4007  2.5726  2.0505
  106OSM    C2S10793   1.378   2.508  10.397  0.1308 -0.9571  0.7813
  106OSM    H2S10794   1.272   2.542  10.397  0.6255  0.6492 -1.1729
  106OSM    C3S10795   1.459   2.614  10.479  0.3450  0.3606 -0.2864
  106OSM    H3S10796   1.565   2.580  10.481  0.5179  0.7595 -1.7142
  106OSM     O310797   1.407   2.630  10.612  0.1760  0.8877 -0.0028
  106OSM    HO310798   1.367   2.545  10.632 -1.0531  1.3011 -0.5910
  106OSM    C4S10799   1.467   2.748  10.409  0.2329 -0.2395 -0.3635
  106OSM    H4S10800   1.366   2.788  10.390 -0.5002 -0.6024  2.4715
  106OSM    C5S10801   1.574   2.806  10.355 -0.4529 -1.0869 -0.1848
  106OSM    H5S10802   1.670   2.755  10.364  0.2329  0.1975 -0.0221
  106OSM    C6S10803   1.573   2.931  10.273  0.8265 -0.6284 -0.2909
  106OSM    H6S10804   1.620   3.014  10.330 -2.8063  0.7200  0.9205
  106OSM    H6T10805   1.473   2.979  10.264  0.4279 -1.6266 -1.2926
  106OSM    C7S10806   1.651   2.948  10.138 -0.4032  0.0339  0.1334
  106OSM    H7S10807   1.622   2.871  10.063 -0.5282 -0.9229  1.1612
  106OSM    H7T10808   1.757   2.925  10.159 -0.4363  1.1302  1.5568
  106OSM    C8S10809   1.633   3.089  10.082 -0.0457 -0.2308  0.2097
  106OSM    H8S10810   1.689   3.165  10.142 -0.3177 -0.3871  0.6569
  106OSM    H8T10811   1.527   3.117  10.100  0.0707 -0.3265  1.0865
  106OSM    C9S10812   1.659   3.101   9.924  0.0081 -0.0001  0.5773
  106OSM    H9S10813   1.758   3.058   9.897 -0.3818  0.1481 -1.1390
  106OSM    H9T10814   1.648   3.210   9.904 -1.6271 -0.1463  0.6049
  106OSM   C10S10815   1.544   3.031   9.850 -0.9327 -0.2214  0.5910
  106OSM   H10S10816   1.554   2.922   9.867 -1.0416 -0.4874 -0.9488
  106OSM   H10T10817   1.556   3.063   9.744 -1.1923  1.0976  0.9519
  106OSM   C11S10818   1.398   3.083   9.892  0.3537  0.0079  0.7178
  106OSM   H11S10819   1.385   3.192   9.872  0.8154 -0.0044  0.3597
  106OSM   H11T10820   1.368   3.053   9.995 -1.1941 -4.9268 -1.0563
  106OSM   C12S10821   1.295   2.992   9.811 -0.5592 -0.1431 -0.4840
  106OSM   H12S10822   1.334   2.994   9.707  0.8582  1.8435  0.0569
  106OSM   H12T10823   1.203   3.055   9.818 -0.6118 -0.5047  2.3476
  106OSM   C13S10824   1.262   2.858   9.879 -0.5057  0.1289  0.1632
  106OSM   H13S10825   1.202   2.891   9.966 -3.1387 -1.6319 -0.9339
  106OSM   H13T10826   1.352   2.807   9.920  0.4038  0.8244 -0.8954
  106OSM   C14S10827   1.186   2.761   9.799  0.9219  0.3257  0.3057
  106OSM   H14S10828   1.078   2.782   9.812  0.3687 -1.9098 -0.4713
  106OSM   H14T10829   1.196   2.665   9.855 -1.5458 -0.5739 -0.7232
  106OSM   C15S10830   1.229   2.747   9.646 -0.1227  0.4294  0.5407
  106OSM   H15S10831   1.336   2.717   9.645 -0.3190 -0.2476 -0.8818
  106OSM   H15T10832   1.212   2.850   9.606  1.4033  1.3717  2.2290
  106OSM   C16S10833   1.139   2.655   9.564  0.1873 -0.3682  0.4298
  106OSM   H16S10834   1.035   2.695   9.572  0.2038 -0.5460  1.6884
  106OSM   H16T10835   1.139   2.546   9.582  0.6607 -0.6108 -0.9617
  106OSM   C17S10836   1.174   2.676   9.417 -0.1117 -0.3801 -0.0615
  106OSM   H17S10837   1.265   2.617   9.393  2.0747  3.0415 -0.5733
  106OSM   H17T10838   1.196   2.782   9.395  1.7985 -0.4246  1.5746
  106OSM   C18S10839   1.068   2.628   9.319  0.3944  0.6160  0.1204
  106OSM   H18S10840   1.100   2.664   9.219  0.3847 -0.5453 -0.2985
  106OSM   H18T10841   0.975   2.674   9.358  0.2340 -0.8475  1.5099
  106OSM   H18U10842   1.039   2.522   9.325 -1.1996  0.8542 -2.8033
  106OSM    C1F10843   1.348   2.462  10.157  0.5964  0.1776  0.0125
  106OSM     OF10844   1.233   2.431  10.180 -0.1829 -0.0628  0.5950
  106OSM    C2F10845   1.419   2.474  10.022  0.0137 -0.5495 -0.1389
  106OSM    H2F10846   1.525   2.441  10.032  0.2223 -0.0437 -0.6134
  106OSM    H2G10847   1.412   2.578   9.983  0.6812 -0.6051 -0.4247
  106OSM    C3F10848   1.360   2.376   9.912 -0.1127  0.6529 -0.2532
  106OSM    H3F10849   1.250   2.376   9.903 -0.0690  0.8884 -0.8151
  106OSM    H3G10850   1.385   2.270   9.931  0.9971  1.0556  0.6321
  106OSM    C4F10851   1.416   2.407   9.767 -0.2952 -0.2689  0.0365
  106OSM    H4F10852   1.525   2.389   9.763 -0.2882 -0.1581 -0.2740
  106OSM    H4G10853   1.400   2.515   9.744  1.9673  0.2738  0.8791
  106OSM    C5F10854   1.356   2.311   9.659 -0.4217  0.0977  1.3211
  106OSM    H5F10855   1.245   2.310   9.651 -0.3839  2.2176  0.0793
  106OSM    H5G10856   1.380   2.206   9.689 -2.1197 -0.7676 -0.2824
  106OSM    C6F10857   1.410   2.343   9.514  0.5427  0.3252 -0.9742
  106OSM    H6F10858   1.503   2.399   9.536 -0.0263  0.6854  0.6233
  106OSM    H6G10859   1.345   2.423   9.472 -0.0956  1.5042  2.1126
  106OSM    C7F10860   1.419   2.224   9.422 -0.2283 -0.3824 -0.4267
  106OSM    H7F10861   1.324   2.168   9.432 -0.1586 -0.0470  2.3797
  106OSM    H7G10862   1.503   2.164   9.464  1.2791  3.3050  2.0862
  106OSM    C8F10863   1.462   2.246   9.279 -1.2540 -0.3341 -0.3168
  106OSM    H8F10864   1.491   2.144   9.246 -2.0945 -0.8234  0.4271
  106OSM    H8G10865   1.545   2.319   9.268 -1.8156  0.3017 -0.4216
  106OSM    C9F10866   1.343   2.302   9.204  0.0242  0.1421  0.1640
  106OSM    H9F10867   1.241   2.269   9.232  0.6437 -1.3022  0.7526
  106OSM   C10F10868   1.346   2.391   9.103  0.1867 -0.4208 -0.5405
  106OSM   H10F10869   1.254   2.427   9.055  1.1685 -0.6736 -2.6893
  106OSM   C11F10870   1.468   2.457   9.049  0.2770  0.0770 -0.0436
  106OSM   H11F10871   1.548   2.475   9.123  1.1850 -0.4741 -0.8710
  106OSM   H11G10872   1.441   2.553   8.999  0.9525  0.0479 -0.4741
  106OSM   C12F10873   1.530   2.386   8.926  0.2760  0.0458 -0.4626
  106OSM   H12F10874   1.604   2.456   8.884 -0.1902  0.2940 -0.8781
  106OSM   H12G10875   1.445   2.364   8.857 -0.5467  1.1059  0.1999
  106OSM   C13F10876   1.603   2.244   8.960 -0.3932  0.2305  0.4687
  106OSM   H13F10877   1.525   2.166   8.970  0.6397 -1.1378 -1.7283
  106OSM   H13G10878   1.646   2.273   9.058  1.5660  0.5488 -0.4575
  106OSM   C14F10879   1.717   2.213   8.860  0.1190  0.4277 -0.3936
  106OSM   H14F10880   1.774   2.123   8.892  0.2727  0.6978  0.1018
  106OSM   H14G10881   1.786   2.300   8.855  0.6466  0.2678  2.7092
  106OSM   C15F10882   1.662   2.203   8.714  0.2184 -0.2317  0.4044
  106OSM   H15F10883   1.617   2.302   8.693 -0.5964 -0.6522  0.1679
  106OSM   H15G10884   1.583   2.125   8.705 -0.4708  0.6926 -1.8482
  106OSM   C16F10885   1.763   2.174   8.606 -0.3853 -0.8024 -0.0741
  106OSM   H16F10886   1.802   2.070   8.613  2.1828 -0.0260 -2.2229
  106OSM   H16G10887   1.847   2.245   8.619 -0.7533 -0.3453 -0.1786
  106OSM   C17F10888   1.707   2.207   8.462 -0.2762  0.5093  0.1026
  106OSM   H17F10889   1.654   2.303   8.448  0.1936  0.3647 -3.1639
  106OSM   H17G10890   1.619   2.140   8.463 -1.8713  2.5998  1.5912
  106OSM   C18F10891   1.802   2.175   8.353 -0.1896  0.4415  0.0286
  106OSM   H18F10892   1.869   2.263   8.341 -1.1627  1.1140 -0.5568
  106OSM   H18G10893   1.745   2.158   8.260 -2.3085  0.3499  1.3218
  106OSM   H18H10894   1.864   2.086   8.377  1.2221  1.1396 -0.9027
  107OSM      N10895   4.050   0.186  10.849 -0.3886  0.8774 -0.0669
  107OSM    C1510896   4.130   0.161  10.725 -0.4637  0.1848 -0.2231
  107OSM   H15A10897   4.220   0.103  10.744  0.5715  1.2527 -1.7285
  107OSM   H15B10898   4.162   0.254  10.681  1.0689 -0.1941  0.0583
  107OSM   H15C10899   4.072   0.111  10.649 -2.3918  1.8585  0.1217
  107OSM    C1410900   3.970   0.066  10.879 -0.0283 -0.0455 -0.5635
  107OSM   H14A10901   3.907   0.081  10.965  1.6488  2.3349  0.3144
  107OSM   H14B10902   4.026  -0.023  10.905  0.0241  0.7743  2.3091
  107OSM   H14C10903   3.911   0.037  10.793  0.3358 -0.9323 -0.5251
  107OSM    C1310904   4.136   0.216  10.971 -0.6533 -0.4434  0.2422
  107OSM   H13A10905   4.188   0.310  10.958  1.4042 -1.3056  1.9310
  107OSM   H13B10906   4.201   0.131  10.983  0.1253 -0.2860 -2.5133
  107OSM   H13C10907   4.075   0.228  11.059 -0.3095  1.2023  0.2750
  107OSM    C1210908   3.968   0.310  10.828  0.0856  0.7041  0.8354
  107OSM   H12A10909   3.941   0.360  10.920 -0.6785  0.3183  0.8208
  107OSM   H12B10910   3.873   0.277  10.790 -0.0621 -1.0144  2.6318
  107OSM    C1110911   4.032   0.420  10.733 -0.4452 -0.6110  0.0729
  107OSM   H11A10912   3.965   0.509  10.729 -0.2683 -0.4182  1.1007
  107OSM   H11B10913   4.044   0.375  10.633  0.0199  0.8076 -0.5179
  107OSM      P10914   4.186   0.589  10.876 -0.3510  0.1494 -0.3726
  107OSM    O1310915   4.064   0.631  10.947  0.2684 -0.2259 -0.0612
  107OSM    O1410916   4.300   0.567  10.966 -0.4854 -0.6731  0.3930
  107OSM    O1110917   4.217   0.697  10.770 -0.3620  0.1064  0.1019
  107OSM    O1210918   4.160   0.469  10.772  0.1387 -0.3788 -0.3061
  107OSM    C1S10919   4.322   0.673  10.674  1.0871 -0.4196 -0.2058
  107OSM    H1S10920   4.399   0.605  10.716  0.7649  0.4750  1.9167
  107OSM    H1T10921   4.369   0.772  10.656 -0.3585  0.1084 -1.1738
  107OSM     NF10922   4.396   0.619  10.446  0.7286  0.6299 -0.5865
  107OSM    HNF10923   4.394   0.679  10.367 -2.8588  0.8941 -0.3964
  107OSM    C2S10924   4.283   0.622  10.536  0.2732 -0.3666 -0.1264
  107OSM    H2S10925   4.246   0.517  10.543 -0.8499  0.0657  0.5465
  107OSM    C3S10926   4.177   0.716  10.469  0.0713 -0.0650 -0.7577
  107OSM    H3S10927   4.233   0.805  10.434  1.5255 -0.4724  0.4783
  107OSM     O310928   4.070   0.763  10.555  0.5827  0.4146  0.1335
  107OSM    HO310929   4.093   0.740  10.645 -0.6974  0.0804  0.3851
  107OSM    C4S10930   4.119   0.661  10.344 -0.1846 -0.2698  0.6471
  107OSM    H4S10931   4.153   0.704  10.248 -0.9447 -1.9351 -0.3922
  107OSM    C5S10932   4.011   0.582  10.335 -0.5979  0.0676 -0.3398
  107OSM    H5S10933   3.966   0.542  10.427  0.2960 -0.4454 -0.1203
  107OSM    C6S10934   3.941   0.534  10.213 -0.0596  0.1782  0.2143
  107OSM    H6S10935   3.843   0.584  10.202  0.4081  0.6611 -1.9120
  107OSM    H6T10936   3.924   0.425  10.225 -0.8739  0.4087  1.2986
  107OSM    C7S10937   4.022   0.551  10.080 -0.3569 -0.0484 -0.2909
  107OSM    H7S10938   4.122   0.503  10.085  0.3249  0.9091 -3.6859
  107OSM    H7T10939   4.031   0.658  10.054 -0.8089  0.7309  2.5983
  107OSM    C8S10940   3.964   0.485   9.950 -0.1547  0.3871  0.2040
  107OSM    H8S10941   3.867   0.535   9.932  0.5179  1.4099 -0.6068
  107OSM    H8T10942   3.943   0.379   9.976 -2.1851  0.6352 -0.3290
  107OSM    C9S10943   4.063   0.506   9.835 -0.6750 -0.0532 -0.5850
  107OSM    H9S10944   4.162   0.456   9.844  1.3291  3.5010 -1.4661
  107OSM    H9T10945   4.070   0.616   9.816 -0.0053 -0.1376 -0.8369
  107OSM   C10S10946   3.997   0.450   9.706  0.1810 -0.9538 -0.0958
  107OSM   H10S10947   3.909   0.517   9.698  0.5034 -0.5051  0.0638
  107OSM   H10T10948   3.967   0.344   9.721 -0.2828 -0.7101  0.7224
  107OSM   C11S10949   4.096   0.476   9.594  0.2959  0.2203  0.6600
  107OSM   H11S10950   4.186   0.414   9.616  1.2474  0.3290 -2.6552
  107OSM   H11T10951   4.106   0.586   9.593 -1.0234  0.3770 -3.0583
  107OSM   C12S10952   4.029   0.435   9.462  0.3810 -0.1769  0.4350
  107OSM   H12S10953   3.940   0.500   9.449  0.2725 -0.6880 -1.6278
  107OSM   H12T10954   3.980   0.337   9.471 -1.2232  0.5021 -0.7050
  107OSM   C13S10955   4.123   0.431   9.340  0.1075 -0.3824  0.6844
  107OSM   H13S10956   4.202   0.356   9.362  0.7584  0.8007  2.5309
  107OSM   H13T10957   4.161   0.535   9.341 -1.3673  0.1625  1.2965
  107OSM   C14S10958   4.053   0.397   9.205 -0.5971  0.5949 -0.0076
  107OSM   H14S10959   3.961   0.459   9.195 -1.1216 -0.2257 -0.3136
  107OSM   H14T10960   4.020   0.293   9.229  1.5556  0.0699  0.7480
  107OSM   C15S10961   4.141   0.419   9.085  0.1327 -0.2420 -0.3738
  107OSM   H15S10962   4.229   0.355   9.105  1.2774  0.7604 -2.1361
  107OSM   H15T10963   4.174   0.525   9.080  1.6099 -0.7657 -2.0579
  107OSM   C16S10964   4.074   0.379   8.953  0.1225 -0.7231  0.5672
  107OSM   H16S10965   3.976   0.330   8.969  1.7310 -3.9345  1.0855
  107OSM   H16T10966   4.127   0.294   8.905  0.0210 -0.7634  0.5261
  107OSM   C17S10967   4.064   0.486   8.848 -0.6751 -0.1932 -0.2778
  107OSM   H17S10968   4.073   0.441   8.747  0.1230  0.8095 -0.6604
  107OSM   H17T10969   4.154   0.549   8.860 -0.1089 -1.3186  1.6095
  107OSM   C18S10970   3.940   0.572   8.849 -0.5429  1.0819  0.0192
  107OSM   H18S10971   3.923   0.614   8.747  0.4607  0.9893 -0.1936
  107OSM   H18T10972   3.953   0.643   8.934 -1.5407 -1.0201  1.9641
  107OSM   H18U10973   3.856   0.501   8.862  1.3247 -1.3405 -0.6749
  107OSM    C1F10974   4.508   0.539  10.456 -0.6523  0.0878 -0.5790
  107OSM     OF10975   4.531   0.468  10.552  0.2629 -0.2965  0.6394
  107OSM    C2F10976   4.589   0.532  10.338 -0.5398  0.2296  0.1364
  107OSM    H2F10977   4.684   0.588  10.347 -0.4802 -0.0028  0.9791
  107OSM    H2G10978   4.531   0.556  10.247 -1.0183 -0.8202  0.1550
  107OSM    C3F10979   4.646   0.387  10.301  0.7422 -0.2239 -0.1559
  107OSM    H3F10980   4.581   0.307  10.343  1.9712 -0.8913  0.4888
  107OSM    H3G10981   4.743   0.376  10.353  1.3471  1.5295 -0.8586
  107OSM    C4F10982   4.681   0.363  10.158 -0.4183  0.0243  0.0650
  107OSM    H4F10983   4.589   0.366  10.096 -1.1926  1.5810  1.2283
  107OSM    H4G10984   4.727   0.262  10.156 -1.7109 -0.5581 -1.0900
  107OSM    C5F10985   4.775   0.470  10.093  0.2260 -0.7497 -0.0290
  107OSM    H5F10986   4.846   0.510  10.168  0.6084 -0.3196 -0.6216
  107OSM    H5G10987   4.704   0.553  10.077  1.3449 -0.1223 -1.9557
  107OSM    C6F10988   4.823   0.429   9.954  0.4663 -0.3174  0.2427
  107OSM    H6F10989   4.744   0.388   9.888  0.0013  1.6005 -0.4278
  107OSM    H6G10990   4.900   0.350   9.970 -0.6622 -1.2681  0.9866
  107OSM    C7F10991   4.877   0.549   9.876  0.0104  0.1032  0.9260
  107OSM    H7F10992   4.939   0.612   9.942  1.7941  0.0393 -0.6766
  107OSM    H7G10993   4.793   0.618   9.854 -0.0017 -0.2880 -0.3144
  107OSM    C8F10994   4.945   0.506   9.749  0.6778  0.1317  0.0885
  107OSM    H8F10995   4.878   0.452   9.679  0.7881 -0.1723  0.2160
  107OSM    H8G10996   5.018   0.426   9.774 -0.6483 -0.3378  2.6040
  107OSM    C9F10997   5.022   0.616   9.685  0.8905 -0.1648  0.4500
  107OSM    H9F10998   5.087   0.672   9.755 -1.1684 -1.4221  3.4717
  107OSM   C10F10999   5.021   0.635   9.553 -0.6063  0.3506 -0.2009
  107OSM   H10F11000   5.074   0.719   9.507 -1.3361 -0.4326 -2.5504
  107OSM   C11F11001   4.937   0.571   9.440  0.4602  0.0036 -0.4631
  107OSM   H11F11002   4.832   0.607   9.450  0.8485  1.7733 -2.3150
  107OSM   H11G11003   4.940   0.461   9.453 -1.0649 -0.0804 -0.6793
  107OSM   C12F11004   4.987   0.608   9.304  0.0001 -0.3435 -0.5850
  107OSM   H12F11005   5.088   0.563   9.300 -1.1088 -2.8915 -1.6464
  107OSM   H12G11006   4.991   0.717   9.288 -1.5827 -0.1903 -0.0041
  107OSM   C13F11007   4.903   0.551   9.192 -0.1630  0.9226  0.0763
  107OSM   H13F11008   4.797   0.584   9.200 -0.0650  1.1974  0.2268
  107OSM   H13G11009   4.896   0.441   9.207  1.9303  0.3305 -2.7196
  107OSM   C14F11010   4.964   0.590   9.057  0.6853 -0.0738 -0.5693
  107OSM   H14F11011   5.074   0.579   9.050  0.9245  0.9936  1.1445
  107OSM   H14G11012   4.943   0.698   9.041 -0.0609 -0.2209 -0.6129
  107OSM   C15F11013   4.902   0.500   8.946 -0.5286 -0.4397 -0.2145
  107OSM   H15F11014   4.791   0.500   8.954 -0.5263 -1.4868 -0.1339
  107OSM   H15G11015   4.931   0.396   8.971 -0.4490 -0.0085  1.5658
  107OSM   C16F11016   4.938   0.550   8.803 -0.5434 -0.2393 -0.3877
  107OSM   H16F11017   5.046   0.574   8.791  0.5061 -5.0149 -1.5640
  107OSM   H16G11018   4.870   0.629   8.765  1.1055  1.8517  0.8709
  107OSM   C17F11019   4.921   0.435   8.699 -0.7439  0.1899 -0.9362
  107OSM   H17F11020   4.817   0.397   8.692 -0.3955 -1.0498  0.4816
  107OSM   H17G11021   4.985   0.351   8.733 -1.7995 -0.1799  0.1451
  107OSM   C18F11022   4.973   0.479   8.562 -0.0514  0.7578  0.2764
  107OSM   H18F11023   5.082   0.499   8.563 -0.1069  1.0982 -0.2680
  107OSM   H18G11024   4.920   0.572   8.531 -0.7126  0.2601 -0.1016
  107OSM   H18H11025   4.964   0.395   8.490  0.4177  2.7644 -2.1906
  108OSM      N11026   1.396   1.746  10.702  0.3439  0.3774 -0.0992
  108OSM    C1511027   1.504   1.837  10.659 -0.3142  0.0281 -0.0426
  108OSM   H15A11028   1.516   1.920  10.728  0.7347  0.8298 -1.1526
  108OSM   H15B11029   1.483   1.880  10.562 -0.3392  1.0969  0.4248
  108OSM   H15C11030   1.596   1.781  10.659 -1.8969 -2.6963 -2.4913
  108OSM    C1411031   1.450   1.676  10.814 -0.6990  1.0489 -0.0490
  108OSM   H14A11032   1.373   1.615  10.858 -0.6859  1.6473  0.8290
  108OSM   H14B11033   1.494   1.741  10.890  0.8230 -0.3020  0.2512
  108OSM   H14C11034   1.516   1.598  10.780 -0.2969  2.5088 -2.7449
  108OSM    C1311035   1.276   1.826  10.755  0.4130  0.0289 -0.4004
  108OSM   H13A11036   1.192   1.758  10.759  0.8938 -0.5842 -0.5689
  108OSM   H13B11037   1.252   1.917  10.702  0.4791 -0.0116 -0.5000
  108OSM   H13C11038   1.288   1.854  10.858 -0.9050  1.5087 -0.6300
  108OSM    C1211039   1.352   1.652  10.587  0.3347  0.2110  0.1937
  108OSM   H12A11040   1.438   1.591  10.561  1.0825  1.4775 -0.3364
  108OSM   H12B11041   1.328   1.712  10.501  2.4069  0.2944 -0.3593
  108OSM    C1111042   1.241   1.561  10.608  0.7672 -0.0178 -0.6422
  108OSM   H11A11043   1.220   1.511  10.510  0.1784  1.0162 -1.0538
  108OSM   H11B11044   1.148   1.621  10.620  4.0731  5.5007 -1.0083
  108OSM      P11045   1.362   1.355  10.685  0.4062 -0.5297  0.3098
  108OSM    O1311046   1.499   1.404  10.683  0.3721 -0.5467 -0.3613
  108OSM    O1411047   1.350   1.246  10.782  0.1727  0.3166 -0.5954
  108OSM    O1111048   1.324   1.308  10.543  0.6845  0.3478 -0.6233
  108OSM    O1211049   1.261   1.468  10.717 -0.4574  0.3668  0.4289
  108OSM    C1S11050   1.191   1.260  10.514 -0.0088 -0.2854  0.3411
  108OSM    H1S11051   1.103   1.302  10.567 -0.9027  0.0001 -1.3368
  108OSM    H1T11052   1.192   1.155  10.551 -0.4104 -0.3714  0.1156
  108OSM     NF11053   1.023   1.237  10.329 -0.6520  0.1241  0.7239
  108OSM    HNF11054   0.986   1.146  10.314 -3.1928  1.5602 -2.2367
  108OSM    C2S11055   1.168   1.251  10.359 -0.6860  0.0869 -0.1647
  108OSM    H2S11056   1.202   1.343  10.308 -1.0144  0.5660  0.4704
  108OSM    C3S11057   1.256   1.134  10.314 -0.0818  0.3777  0.0510
  108OSM    H3S11058   1.217   1.043  10.366 -0.1784  0.5761  0.3296
  108OSM     O311059   1.397   1.141  10.350  0.3159  0.2180 -0.1251
  108OSM    HO311060   1.398   1.220  10.404 -2.1060 -0.2602  0.6946
  108OSM    C4S11061   1.254   1.119  10.163  0.3313 -0.4618  0.1230
  108OSM    H4S11062   1.290   1.206  10.106 -0.3969 -0.6689 -0.6665
  108OSM    C5S11063   1.230   0.999  10.103  0.7018 -0.2653 -0.4152
  108OSM    H5S11064   1.211   0.918  10.174  5.1798  0.2382  1.5396
  108OSM    C6S11065   1.216   0.961   9.957  0.0205 -0.3298  0.4002
  108OSM    H6S11066   1.118   0.910   9.942 -0.2867 -0.0036  1.2660
  108OSM    H6T11067   1.293   0.886   9.929 -0.2124 -0.7174  0.7967
  108OSM    C7S11068   1.250   1.065   9.855 -0.0778 -0.1309 -0.0552
  108OSM    H7S11069   1.355   1.099   9.870 -0.8294  1.8652  0.8741
  108OSM    H7T11070   1.186   1.155   9.870  0.9157  0.4188  0.9424
  108OSM    C8S11071   1.222   1.018   9.711  0.3000  0.2270 -0.6560
  108OSM    H8S11072   1.126   1.039   9.660 -0.1320  2.5301  1.0533
  108OSM    H8T11073   1.244   0.909   9.721  0.1377  0.3405  1.0525
  108OSM    C9S11074   1.320   1.082   9.610 -0.8740 -0.2293  0.7592
  108OSM    H9S11075   1.427   1.058   9.626 -1.0999 -2.6609 -1.0815
  108OSM    H9T11076   1.303   1.191   9.619 -1.7291 -0.1089 -2.0812
  108OSM   C10S11077   1.285   1.052   9.460  0.3212 -0.3606  0.2961
  108OSM   H10S11078   1.177   1.076   9.448 -0.0017 -1.7210  0.4743
  108OSM   H10T11079   1.295   0.945   9.432  0.8380 -0.7375  1.8607
  108OSM   C11S11080   1.378   1.141   9.374 -0.4686 -0.6748 -0.6995
  108OSM   H11S11081   1.481   1.105   9.396 -0.0092  0.7988 -0.3852
  108OSM   H11T11082   1.365   1.251   9.377  2.4193 -0.2968 -0.5365
  108OSM   C12S11083   1.361   1.090   9.226  0.0137  0.0669 -0.4524
  108OSM   H12S11084   1.254   1.110   9.206 -0.2111  0.7448  1.3191
  108OSM   H12T11085   1.380   0.983   9.200 -3.3191 -0.7002  0.0285
  108OSM   C13S11086   1.448   1.166   9.120  0.0298 -0.1033 -0.0778
  108OSM   H13S11087   1.554   1.142   9.142 -0.4495 -3.2882 -0.9951
  108OSM   H13T11088   1.434   1.276   9.127 -0.6139 -0.2133  0.3831
  108OSM   C14S11089   1.410   1.121   8.979 -0.0083  0.3156 -0.6694
  108OSM   H14S11090   1.299   1.115   8.972  0.0234  1.6912 -2.7885
  108OSM   H14T11091   1.448   1.018   8.964  0.0489  0.0722  1.0108
  108OSM   C15S11092   1.451   1.232   8.877  0.0014 -0.5182  0.6346
  108OSM   H15S11093   1.562   1.229   8.874  0.1781  2.7232  2.5748
  108OSM   H15T11094   1.418   1.330   8.916  0.5031 -1.2552  3.0163
  108OSM   C16S11095   1.387   1.205   8.742 -0.0996  0.4296 -1.0547
  108OSM   H16S11096   1.290   1.153   8.759  1.0591 -1.0182  1.5160
  108OSM   H16T11097   1.447   1.137   8.677 -0.2222  1.7818 -2.6129
  108OSM   C17S11098   1.371   1.340   8.664 -0.8309 -0.5955 -0.0115
  108OSM   H17S11099   1.317   1.418   8.722  0.5824  2.1860 -2.2692
  108OSM   H17T11100   1.310   1.320   8.573  0.0813 -0.2465 -0.7173
  108OSM   C18S11101   1.507   1.393   8.603 -0.1557  0.6387 -0.8653
  108OSM   H18S11102   1.588   1.392   8.680  0.1666 -0.5831 -1.2113
  108OSM   H18T11103   1.486   1.488   8.550  2.1542  1.0688 -1.0662
  108OSM   H18U11104   1.537   1.328   8.518 -0.3614  1.1420 -1.3227
  108OSM    C1F11105   0.944   1.332  10.339 -0.1405  0.3173  0.2894
  108OSM     OF11106   0.985   1.441  10.381 -0.0943 -0.0222  0.9456
  108OSM    C2F11107   0.800   1.300  10.318 -1.5034  0.1413  0.3020
  108OSM    H2F11108   0.753   1.272  10.414  0.7768 -0.9011  1.1340
  108OSM    H2G11109   0.793   1.214  10.248  2.0368 -0.6309  0.8551
  108OSM    C3F11110   0.723   1.423  10.256 -0.1420 -0.0028 -0.4381
  108OSM    H3F11111   0.758   1.512  10.313  2.1888 -0.2306 -1.4205
  108OSM    H3G11112   0.613   1.414  10.264 -0.1017  1.0757  1.7031
  108OSM    C4F11113   0.758   1.458  10.110  0.3710 -1.1723  0.2633
  108OSM    H4F11114   0.728   1.374  10.043 -3.8746 -0.1329  0.7013
  108OSM    H4G11115   0.868   1.466  10.096 -0.1138  0.2597 -3.2261
  108OSM    C5F11116   0.693   1.589  10.064 -0.3736 -0.2039 -0.3021
  108OSM    H5F11117   0.731   1.673  10.125  1.6376 -0.7048 -0.8190
  108OSM    H5G11118   0.582   1.591  10.062 -0.3508  2.4252 -1.0208
  108OSM    C6F11119   0.725   1.623   9.915 -0.1003 -0.4553 -0.1262
  108OSM    H6F11120   0.828   1.586   9.896  0.4639 -0.3409  2.5444
  108OSM    H6G11121   0.717   1.733   9.899  1.1873 -0.2952  0.3068
  108OSM    C7F11122   0.648   1.537   9.813 -0.0011  0.0198 -0.1211
  108OSM    H7F11123   0.543   1.566   9.832  0.2167  1.1001 -0.5384
  108OSM    H7G11124   0.665   1.433   9.848 -0.8052 -1.4242 -3.8166
  108OSM    C8F11125   0.666   1.562   9.667  0.7136 -0.9693 -0.7493
  108OSM    H8F11126   0.650   1.671   9.651  1.9409 -0.8462 -1.1213
  108OSM    H8G11127   0.586   1.499   9.623 -0.3181  0.6868 -1.3325
  108OSM    C9F11128   0.801   1.523   9.630 -0.3310  0.3135  0.3379
  108OSM    H9F11129   0.861   1.477   9.709 -0.5854 -1.8072 -0.6592
  108OSM   C10F11130   0.853   1.530   9.501  0.6492  0.4770  0.0010
  108OSM   H10F11131   0.954   1.501   9.467  0.3922  0.9284 -1.1552
  108OSM   C11F11132   0.758   1.575   9.387 -0.2595 -0.9029 -0.6445
  108OSM   H11F11133   0.709   1.672   9.412  1.9148 -0.5798  2.7289
  108OSM   H11G11134   0.689   1.492   9.365 -2.1699  0.4727  0.0363
  108OSM   C12F11135   0.841   1.608   9.257  0.4143  0.1838 -0.5775
  108OSM   H12F11136   0.911   1.522   9.248 -0.1002 -0.0972 -1.9768
  108OSM   H12G11137   0.900   1.702   9.267  2.4530 -0.6784 -3.6612
  108OSM   C13F11138   0.755   1.619   9.128 -0.0166  0.1373 -0.3157
  108OSM   H13F11139   0.669   1.686   9.149 -0.5648 -0.2081 -1.3867
  108OSM   H13G11140   0.715   1.519   9.102  0.6391 -0.1928 -0.0553
  108OSM   C14F11141   0.839   1.684   9.018  0.2216 -0.3297 -0.6999
  108OSM   H14F11142   0.948   1.676   9.035  0.0186 -2.4586 -0.2044
  108OSM   H14G11143   0.825   1.794   9.014 -1.4663 -0.4458  1.2110
  108OSM   C15F11144   0.802   1.630   8.880 -0.1028 -0.2872  0.5385
  108OSM   H15F11145   0.808   1.712   8.805  0.0139  1.4355  2.3888
  108OSM   H15G11146   0.695   1.600   8.878 -0.4731  1.0334 -0.3083
  108OSM   C16F11147   0.880   1.496   8.832  0.7166  0.0625  0.2193
  108OSM   H16F11148   0.983   1.523   8.798  1.5435 -1.2021  1.6488
  108OSM   H16G11149   0.826   1.469   8.739  0.9407 -1.4899  0.5310
  108OSM   C17F11150   0.902   1.379   8.928 -0.2163 -0.2687 -0.0243
  108OSM   H17F11151   0.795   1.352   8.934 -0.3278  0.5810  2.4492
  108OSM   H17G11152   0.944   1.418   9.024  0.2515  0.2490 -0.4367
  108OSM   C18F11153   0.980   1.270   8.857 -0.1168  0.1078  0.1473
  108OSM   H18F11154   0.996   1.282   8.748 -0.5450 -1.4301 -0.1019
  108OSM   H18G11155   0.928   1.172   8.868 -0.8630  0.3892 -0.8121
  108OSM   H18H11156   1.084   1.259   8.894  1.0651  3.3759 -1.9188
  109OSM      N11157   5.836   6.803  10.795 -0.1228  0.2342 -0.6318
  109OSM    C1511158   5.751   6.882  10.892  0.2440  0.4033  0.0892
  109OSM   H15A11159   5.646   6.864  10.878  0.3372  0.1765 -0.3554
  109OSM   H15B11160   5.775   6.987  10.883  2.2355 -0.0949 -0.7042
  109OSM   H15C11161   5.766   6.846  10.992  1.7386 -1.0432 -0.6216
  109OSM    C1411162   5.804   6.659  10.827 -0.5286 -0.3848  0.3513
  109OSM   H14A11163   5.824   6.639  10.931 -0.0936  0.2047  0.3821
  109OSM   H14B11164   5.857   6.588  10.766 -1.8985 -1.5336  0.4829
  109OSM   H14C11165   5.698   6.644  10.810 -0.8039  0.5567  1.1554
  109OSM    C1311166   5.806   6.833  10.657 -0.5836  0.6368 -0.2249
  109OSM   H13A11167   5.699   6.824  10.649 -0.3099 -2.9706 -0.4814
  109OSM   H13B11168   5.851   6.775  10.577  1.8588  1.6810  0.3377
  109OSM   H13C11169   5.823   6.935  10.625 -1.4590  1.1382  0.8861
  109OSM    C1211170   5.983   6.832  10.808  0.6794 -0.3072  0.2080
  109OSM   H12A11171   6.006   6.936  10.788 -1.3451  0.4281  1.5954
  109OSM   H12B11172   6.033   6.785  10.724 -1.0128 -4.1307  1.2250
  109OSM    C1111173   6.055   6.807  10.945  0.0733  0.2353  0.1631
  109OSM   H11A11174   5.991   6.869  11.011  0.1598 -0.0926  0.5632
  109OSM   H11B11175   6.157   6.850  10.951  0.0318  0.5793 -1.5140
  109OSM      P11176   6.144   6.567  10.931  0.0753  0.1219 -0.1864
  109OSM    O1311177   6.264   6.582  11.009 -0.5260  0.5898  0.8567
  109OSM    O1411178   6.080   6.428  10.932  0.2085 -0.6503 -0.1382
  109OSM    O1111179   6.180   6.614  10.783 -0.1174  0.1531  0.2269
  109OSM    O1211180   6.050   6.674  10.989  0.4293  0.0987 -0.0519
  109OSM    C1S11181   6.314   6.644  10.739  0.7533  0.7852  0.1283
  109OSM    H1S11182   6.385   6.573  10.787  1.9490  1.0020 -1.2969
  109OSM    H1T11183   6.337   6.748  10.769  0.0869  0.9479  0.0945
  109OSM     NF11184   6.463   6.646  10.552  0.5800  0.1717  0.1675
  109OSM    HNF11185   6.486   6.743  10.544 -0.3956  0.4918  1.1346
  109OSM    C2S11186   6.326   6.630  10.586 -0.7230 -0.0920  0.0318
  109OSM    H2S11187   6.289   6.530  10.556 -3.0865  0.2003  1.7771
  109OSM    C3S11188   6.227   6.730  10.521 -0.3289  0.3099  0.4495
  109OSM    H3S11189   6.241   6.836  10.551 -1.1935  1.3614 -2.7501
  109OSM     O311190   6.088   6.700  10.533 -0.2214  0.0533 -0.2800
  109OSM    HO311191   6.093   6.627  10.595 -3.3362  0.5935  0.6954
  109OSM    C4S11192   6.260   6.722  10.378 -0.1842  0.3573 -0.2885
  109OSM    H4S11193   6.325   6.803  10.339  0.5010  0.2960  0.6998
  109OSM    C5S11194   6.222   6.625  10.296 -0.0786 -0.6664  0.1171
  109OSM    H5S11195   6.178   6.534  10.339  1.1540 -2.0531 -1.4934
  109OSM    C6S11196   6.254   6.626  10.144  0.3230 -0.6122  0.5069
  109OSM    H6S11197   6.173   6.585  10.081 -2.1034  1.2527  2.3431
  109OSM    H6T11198   6.333   6.550  10.126  2.7587  2.2374 -1.3333
  109OSM    C7S11199   6.295   6.752  10.077  0.8260 -0.5150  0.7173
  109OSM    H7S11200   6.402   6.777  10.090  0.9016 -0.8002  0.6504
  109OSM    H7T11201   6.251   6.846  10.117  0.5162 -0.0544 -0.6991
  109OSM    C8S11202   6.266   6.758   9.925  0.7713  0.2741 -0.1401
  109OSM    H8S11203   6.303   6.856   9.887  0.0567  2.0154  3.4497
  109OSM    H8T11204   6.156   6.758   9.912  0.9335 -0.9103 -1.6296
  109OSM    C9S11205   6.306   6.634   9.837  0.6188 -0.1291  0.6360
  109OSM    H9S11206   6.284   6.532   9.876 -0.0594  0.1744  1.0663
  109OSM    H9T11207   6.416   6.632   9.827  0.6381  3.3467 -0.2345
  109OSM   C10S11208   6.246   6.644   9.692  0.4889 -0.9955 -0.1629
  109OSM   H10S11209   6.136   6.649   9.696  0.3572 -2.0736 -1.8382
  109OSM   H10T11210   6.269   6.546   9.645  2.1651 -1.4586  1.5333
  109OSM   C11S11211   6.292   6.763   9.607 -0.1752  0.4915 -0.4680
  109OSM   H11S11212   6.401   6.782   9.612 -0.4296  2.0508 -0.6384
  109OSM   H11T11213   6.248   6.855   9.650  0.4708  0.6476 -0.1283
  109OSM   C12S11214   6.247   6.773   9.462  0.8550 -0.6922 -0.3396
  109OSM   H12S11215   6.259   6.876   9.422  1.8889  0.6736  3.3419
  109OSM   H12T11216   6.140   6.747   9.453  0.9236 -0.6549 -1.3177
  109OSM   C13S11217   6.316   6.678   9.362 -0.3983  0.7601 -0.0160
  109OSM   H13S11218   6.286   6.575   9.388 -2.1714  1.1336 -0.4924
  109OSM   H13T11219   6.425   6.691   9.378 -0.5059  3.1390 -0.9377
  109OSM   C14S11220   6.270   6.687   9.214 -0.0767  0.3700 -0.5762
  109OSM   H14S11221   6.273   6.794   9.184  0.5898 -0.0459 -2.0334
  109OSM   H14T11222   6.163   6.658   9.207 -0.2192  1.0058 -1.0766
  109OSM   C15S11223   6.365   6.598   9.128  0.6412  0.5254 -0.6529
  109OSM   H15S11224   6.390   6.508   9.187  0.0393  0.8142  0.0484
  109OSM   H15T11225   6.459   6.656   9.121 -0.7636  2.9827  0.2297
  109OSM   C16S11226   6.326   6.555   8.986  0.1878 -0.2249 -0.5449
  109OSM   H16S11227   6.229   6.501   8.987  0.7832 -1.2796  0.6263
  109OSM   H16T11228   6.412   6.502   8.940 -0.5387 -1.4068 -0.5516
  109OSM   C17S11229   6.305   6.679   8.894 -0.0115  0.0968 -0.1350
  109OSM   H17S11230   6.398   6.739   8.887  0.0917 -0.1673 -1.1294
  109OSM   H17T11231   6.221   6.740   8.934  0.4743  0.2827  0.6095
  109OSM   C18S11232   6.275   6.643   8.748 -0.1180  0.3673 -0.2354
  109OSM   H18S11233   6.262   6.738   8.692 -0.6363  0.8003  0.5983
  109OSM   H18T11234   6.181   6.585   8.739  0.7393 -0.8809 -1.1730
  109OSM   H18U11235   6.363   6.586   8.713  0.0238 -1.1932  2.5591
  109OSM    C1F11236   6.561   6.559  10.563  0.4575 -0.0767 -0.0876
  109OSM     OF11237   6.534   6.448  10.597 -0.1289 -0.1658  0.2323
  109OSM    C2F11238   6.699   6.608  10.549 -0.4650  0.2038  0.1143
  109OSM    H2F11239   6.756   6.570  10.636  1.5394  1.9425 -0.3994
  109OSM    H2G11240   6.693   6.719  10.555 -1.8577  0.1803 -0.4976
  109OSM    C3F11241   6.773   6.569  10.420  0.7346  0.0579  1.0672
  109OSM    H3F11242   6.782   6.458  10.421  0.5074 -0.0020 -1.1628
  109OSM    H3G11243   6.869   6.624  10.405  1.8449 -2.5614 -2.0117
  109OSM    C4F11244   6.692   6.587  10.288 -0.0549  0.3297  1.1405
  109OSM    H4F11245   6.667   6.694  10.270 -1.8782 -0.1496  0.7329
  109OSM    H4G11246   6.600   6.525  10.302  0.3960 -1.0150 -1.4251
  109OSM    C5F11247   6.772   6.539  10.162  0.4909 -0.1416  0.4855
  109OSM    H5F11248   6.784   6.429  10.176 -1.1807 -0.4310 -0.3402
  109OSM    H5G11249   6.874   6.583  10.154 -0.6095  2.5211  0.5550
  109OSM    C6F11250   6.691   6.554  10.026 -0.5246 -0.5964  0.1151
  109OSM    H6F11251   6.704   6.662  10.006  1.6914 -0.8569 -0.0434
  109OSM    H6G11252   6.586   6.526  10.047 -0.8975  1.6935  1.3885
  109OSM    C7F11253   6.749   6.467   9.911 -0.9361 -0.5049  0.3147
  109OSM    H7F11254   6.694   6.489   9.818  2.3271 -1.4351 -1.9370
  109OSM    H7G11255   6.728   6.363   9.944 -1.7911 -0.4116  0.0731
  109OSM    C8F11256   6.897   6.496   9.887  0.5600  0.3408  0.3389
  109OSM    H8F11257   6.928   6.404   9.832 -2.7214 -1.0167  0.6382
  109OSM    H8G11258   6.960   6.497   9.978 -0.4970 -2.2573  1.1445
  109OSM    C9F11259   6.921   6.623   9.805  0.3552  0.8903 -0.4860
  109OSM    H9F11260   6.918   6.712   9.869  3.5467  0.7349 -0.0155
  109OSM   C10F11261   6.949   6.640   9.675  0.4080  0.0022  0.6603
  109OSM   H10F11262   6.965   6.744   9.643 -3.4935  1.1216  2.1161
  109OSM   C11F11263   6.957   6.539   9.560 -0.1104  0.0625  0.3424
  109OSM   H11F11264   6.926   6.438   9.595 -3.2030  0.6925 -0.4328
  109OSM   H11G11265   7.057   6.528   9.513  0.3942  1.1009  1.1611
  109OSM   C12F11266   6.863   6.569   9.437  0.0026  0.1232 -0.2359
  109OSM   H12F11267   6.761   6.581   9.481  0.0773 -3.0319  0.9675
  109OSM   H12G11268   6.859   6.476   9.377  2.5914 -1.3871  1.8154
  109OSM   C13F11269   6.908   6.689   9.336  0.3619 -0.6974 -0.3884
  109OSM   H13F11270   7.017   6.678   9.319  0.8768 -1.8245  3.1227
  109OSM   H13G11271   6.877   6.788   9.375  1.4660 -0.6889  0.5130
  109OSM   C14F11272   6.848   6.670   9.193  0.3928  0.1920 -0.7009
  109OSM   H14F11273   6.742   6.704   9.193  0.3941  0.1855  0.3976
  109OSM   H14G11274   6.855   6.561   9.173  1.5003 -0.2241  1.8044
  109OSM   C15F11275   6.914   6.738   9.070  0.1732 -0.0117 -0.3746
  109OSM   H15F11276   7.002   6.675   9.043  0.0713  0.2446 -1.3386
  109OSM   H15G11277   6.945   6.842   9.091  0.8843 -0.1108 -0.9276
  109OSM   C16F11278   6.824   6.744   8.943  0.2716  0.4155  0.0581
  109OSM   H16F11279   6.872   6.782   8.850  0.6462  1.0521  0.5046
  109OSM   H16G11280   6.737   6.809   8.964  0.6152  0.6512  0.7441
  109OSM   C17F11281   6.759   6.604   8.908  0.7890  0.3469  0.1321
  109OSM   H17F11282   6.697   6.558   8.988 -0.0768  1.5939  0.1963
  109OSM   H17G11283   6.849   6.538   8.910 -0.4379 -1.3367  0.3354
  109OSM   C18F11284   6.699   6.580   8.777 -0.2764 -0.3912  0.4433
  109OSM   H18F11285   6.769   6.604   8.694  1.2626 -0.4327  1.6920
  109OSM   H18G11286   6.604   6.636   8.764 -0.6854 -1.9232 -3.9917
  109OSM   H18H11287   6.674   6.472   8.771 -2.6529  0.0870  1.1392
  110OSM      N11288   1.091   5.136  10.931  0.2114 -0.1734  0.2802
  110OSM    C1511289   1.018   5.014  10.891  0.0163 -0.0955  0.1207
  110OSM   H15A11290   0.944   5.024  10.814  1.4619 -1.4296 -1.4893
  110OSM   H15B11291   0.964   4.973  10.975 -0.8777 -0.5113 -0.6620
  110OSM   H15C11292   1.089   4.941  10.856  0.9804  1.5104 -1.3373
  110OSM    C1411293   1.000   5.227  11.013 -0.8936  0.3259  0.2284
  110OSM   H14A11294   0.904   5.248  10.967 -0.7686 -0.2597 -0.3037
  110OSM   H14B11295   1.057   5.319  11.020  1.2632 -0.9328 -0.4706
  110OSM   H14C11296   0.975   5.182  11.108 -0.9362  1.3159  0.6885
  110OSM    C1311297   1.204   5.103  11.018 -1.0093  0.4374  0.0712
  110OSM   H13A11298   1.293   5.091  10.958 -2.4301  1.7942 -2.3747
  110OSM   H13B11299   1.182   5.014  11.075  2.4758 -0.2109  0.5072
  110OSM   H13C11300   1.229   5.176  11.094  0.7985 -0.1928  0.1155
  110OSM    C1211301   1.139   5.204  10.799 -0.0231 -0.7459  0.0759
  110OSM   H12A11302   1.061   5.269  10.761  2.8655  2.8302 -0.0730
  110OSM   H12B11303   1.143   5.117  10.736  1.5830 -1.7109  1.4693
  110OSM    C1111304   1.270   5.288  10.792  0.4175 -0.3274 -0.0568
  110OSM   H11A11305   1.264   5.369  10.867  0.9313  1.0538 -1.4676
  110OSM   H11B11306   1.278   5.314  10.684  0.3389  0.1407  0.0499
  110OSM      P11307   1.470   5.131  10.724  0.1156  0.0785  0.4293
  110OSM    O1311308   1.581   5.220  10.689  0.0743  0.3066 -0.2225
  110OSM    O1411309   1.507   5.003  10.789 -0.1520 -0.7386 -0.1923
  110OSM    O1111310   1.377   5.111  10.604 -0.3726 -0.0873  0.1253
  110OSM    O1211311   1.381   5.210  10.830  0.1067 -0.3506  0.0287
  110OSM    C1S11312   1.307   4.993  10.579 -0.3423  0.4532  1.0540
  110OSM    H1S11313   1.217   4.976  10.643  0.1305 -2.7509  0.9554
  110OSM    H1T11314   1.369   4.902  10.594  1.9424  1.6173 -0.9521
  110OSM     NF11315   1.155   4.889  10.403 -0.1051  0.1215  0.2139
  110OSM    HNF11316   1.180   4.799  10.367 -0.1187  0.3016 -0.2423
  110OSM    C2S11317   1.266   4.984  10.427  0.0064 -0.3798 -0.0387
  110OSM    H2S11318   1.220   5.081  10.399  0.2682 -0.6077 -1.2785
  110OSM    C3S11319   1.392   4.964  10.340  0.6028 -0.8497 -0.5742
  110OSM    H3S11320   1.433   4.864  10.367  1.0727  0.0502  2.2256
  110OSM     O311321   1.496   5.059  10.365 -0.1633 -0.2341 -0.1143
  110OSM    HO311322   1.467   5.109  10.442  0.6588  1.5596 -0.9415
  110OSM    C4S11323   1.348   4.969  10.198  0.4567 -0.4759 -0.7040
  110OSM    H4S11324   1.360   4.872  10.147  0.5048  0.0971 -1.7747
  110OSM    C5S11325   1.310   5.080  10.127 -0.5666 -0.2240  0.8494
  110OSM    H5S11326   1.307   5.175  10.181 -0.0501  0.1322  0.2519
  110OSM    C6S11327   1.286   5.068   9.979 -0.1936 -0.1181 -0.1491
  110OSM    H6S11328   1.266   5.172   9.944  1.7262  0.4806  0.4428
  110OSM    H6T11329   1.193   5.010   9.963 -1.0530  1.8577 -2.7359
  110OSM    C7S11330   1.415   5.013   9.912  0.5294 -0.8467 -0.1644
  110OSM    H7S11331   1.438   4.919   9.967 -0.2582 -1.0450 -0.1733
  110OSM    H7T11332   1.510   5.070   9.913  0.2464 -0.3441 -1.4441
  110OSM    C8S11333   1.375   4.982   9.763 -0.4208 -0.4058 -0.6265
  110OSM    H8S11334   1.365   5.084   9.718 -0.5128 -0.4365 -0.6754
  110OSM    H8T11335   1.276   4.933   9.759 -0.3103 -0.6565 -0.3290
  110OSM    C9S11336   1.469   4.890   9.688 -0.0130  0.1594  0.3083
  110OSM    H9S11337   1.449   4.782   9.705  1.1695 -0.1543 -0.2438
  110OSM    H9T11338   1.577   4.902   9.711 -0.0148  2.2621 -0.6467
  110OSM   C10S11339   1.453   4.919   9.535  0.3292  0.6443  0.7292
  110OSM   H10S11340   1.528   4.998   9.510  1.2771 -0.6727 -0.6656
  110OSM   H10T11341   1.359   4.974   9.513  0.7802  0.3181 -2.2495
  110OSM   C11S11342   1.478   4.803   9.439 -0.5336  0.0188 -0.0372
  110OSM   H11S11343   1.385   4.744   9.423 -1.3424  1.4965 -0.9489
  110OSM   H11T11344   1.563   4.745   9.481  0.0137  0.5508 -0.3917
  110OSM   C12S11345   1.518   4.850   9.301  0.3358  0.0815 -0.0323
  110OSM   H12S11346   1.615   4.903   9.302  0.0795  0.5778 -0.9102
  110OSM   H12T11347   1.435   4.915   9.264 -0.0150 -0.0463  0.5272
  110OSM   C13S11348   1.512   4.747   9.190 -0.1035 -0.5205 -0.0609
  110OSM   H13S11349   1.517   4.800   9.092  1.9466 -0.7998 -0.1250
  110OSM   H13T11350   1.429   4.674   9.199 -0.7663  0.3198  0.8358
  110OSM   C14S11351   1.639   4.655   9.177  0.5872 -0.3061 -0.1828
  110OSM   H14S11352   1.619   4.574   9.251 -1.3545  2.3644  2.2992
  110OSM   H14T11353   1.735   4.703   9.204  1.1080 -1.0831 -0.6297
  110OSM   C15S11354   1.648   4.578   9.043 -0.4051  1.0685 -0.1747
  110OSM   H15S11355   1.673   4.646   8.958  1.0867 -0.0551 -0.6721
  110OSM   H15T11356   1.552   4.528   9.019  0.3047  0.1771 -1.2752
  110OSM   C16S11357   1.757   4.465   9.035 -0.0655 -0.8922  0.1589
  110OSM   H16S11358   1.743   4.410   8.940 -1.7095 -2.2600  1.1626
  110OSM   H16T11359   1.733   4.389   9.113  0.0917 -3.0359 -1.8391
  110OSM   C17S11360   1.901   4.519   9.064  0.1793 -0.7617  0.4706
  110OSM   H17S11361   1.899   4.571   9.163  3.6480  0.1948  0.0781
  110OSM   H17T11362   1.927   4.606   9.000 -1.8105  0.5541  1.3894
  110OSM   C18S11363   2.017   4.428   9.047  0.0905 -0.4874 -0.2036
  110OSM   H18S11364   2.108   4.492   9.055  1.3043 -2.2819  0.5685
  110OSM   H18T11365   2.015   4.379   8.947  1.7579 -0.2192 -0.3954
  110OSM   H18U11366   2.025   4.350   9.125  1.5164  1.0247  1.2082
  110OSM    C1F11367   1.022   4.901  10.433 -0.3039  0.1833  0.2671
  110OSM     OF11368   0.983   5.008  10.483 -0.3450  0.2375  0.4304
  110OSM    C2F11369   0.931   4.781  10.402 -0.0065  0.1074 -0.0499
  110OSM    H2F11370   0.875   4.751  10.493 -1.1193  2.6655  0.1535
  110OSM    H2G11371   1.001   4.700  10.376  0.7637  0.6067  0.4494
  110OSM    C3F11372   0.825   4.800  10.287  0.3964 -0.6863  0.7471
  110OSM    H3F11373   0.749   4.877  10.316 -0.3578 -0.1290 -2.4973
  110OSM    H3G11374   0.777   4.701  10.275 -0.4113 -0.2161 -0.0056
  110OSM    C4F11375   0.890   4.837  10.153  0.6828 -0.0278  0.5486
  110OSM    H4F11376   0.985   4.780  10.150  0.5317 -0.3383  1.5790
  110OSM    H4G11377   0.925   4.942  10.144  0.0235  0.4598  3.1593
  110OSM    C5F11378   0.809   4.810  10.028  0.9396 -0.5888  0.6986
  110OSM    H5F11379   0.707   4.851  10.044  0.7592 -0.4622 -0.6987
  110OSM    H5G11380   0.794   4.703  10.004 -1.6570 -0.2021  0.4530
  110OSM    C6F11381   0.857   4.878   9.897 -0.5885 -0.0885  0.0096
  110OSM    H6F11382   0.961   4.850   9.871  0.0995  2.3177 -0.0029
  110OSM    H6G11383   0.867   4.986   9.922 -2.5045 -0.0314  0.6288
  110OSM    C7F11384   0.754   4.877   9.785 -0.3192  0.2480  0.1514
  110OSM    H7F11385   0.667   4.925   9.835 -0.2732  0.5707 -0.0758
  110OSM    H7G11386   0.732   4.774   9.749  1.3902 -0.4377  0.9869
  110OSM    C8F11387   0.795   4.956   9.659 -0.5500 -0.3761 -0.5349
  110OSM    H8F11388   0.807   5.064   9.683  1.2588 -1.2535  2.7791
  110OSM    H8G11389   0.711   4.969   9.588 -1.1235  0.1664  0.2343
  110OSM    C9F11390   0.924   4.900   9.608 -0.2022  0.5887  0.1039
  110OSM    H9F11391   0.989   4.846   9.679 -0.6109  0.6459  0.5206
  110OSM   C10F11392   0.959   4.889   9.473 -0.6447 -0.2139 -0.7004
  110OSM   H10F11393   1.060   4.858   9.444 -0.1348  0.4381  0.3515
  110OSM   C11F11394   0.879   4.944   9.363  0.3125 -0.6119 -0.4810
  110OSM   H11F11395   0.840   5.044   9.391 -0.7324 -0.6274 -1.8600
  110OSM   H11G11396   0.784   4.887   9.353  0.2355 -0.8198  1.2219
  110OSM   C12F11397   0.943   4.964   9.232  0.0223 -0.1172 -0.1025
  110OSM   H12F11398   0.859   4.987   9.163  0.5631 -2.8455 -1.7538
  110OSM   H12G11399   0.994   4.874   9.189  1.4642  0.0844  1.1336
  110OSM   C13F11400   1.050   5.072   9.219 -0.3185 -0.3822  0.0971
  110OSM   H13F11401   1.151   5.033   9.244  0.8301  1.7484 -1.0545
  110OSM   H13G11402   1.033   5.163   9.281  0.3609 -0.7106  0.7733
  110OSM   C14F11403   1.064   5.127   9.072 -0.5466 -0.1182 -0.2340
  110OSM   H14F11404   1.131   5.215   9.070 -1.7112  0.8104  0.5984
  110OSM   H14G11405   0.961   5.153   9.038 -1.6644 -1.6862  1.8193
  110OSM   C15F11406   1.122   5.041   8.964 -0.1429  0.0127  0.0688
  110OSM   H15F11407   1.055   4.955   8.942 -0.4683  0.1964  0.3450
  110OSM   H15G11408   1.220   4.999   8.994  0.2854 -0.0550 -1.3463
  110OSM   C16F11409   1.135   5.124   8.825  0.4952 -0.0463 -0.3172
  110OSM   H16F11410   1.189   5.221   8.836 -1.6837  0.8600  3.0564
  110OSM   H16G11411   1.032   5.153   8.794  1.4300  0.5643 -3.0100
  110OSM   C17F11412   1.201   5.047   8.712 -0.1534 -0.6038  0.2771
  110OSM   H17F11413   1.158   5.080   8.615 -1.3977  1.3992  1.4581
  110OSM   H17G11414   1.173   4.940   8.721  1.7872 -1.0843  0.7916
  110OSM   C18F11415   1.351   5.068   8.717  0.7983  0.1028  0.5470
  110OSM   H18F11416   1.402   5.012   8.798  2.9236 -1.5870 -1.9046
  110OSM   H18G11417   1.371   5.174   8.744 -3.5039  0.8716  1.0656
  110OSM   H18H11418   1.402   5.039   8.623 -0.3545  0.5872 -0.2346
  111OSM      N11419   1.555   2.618  10.940 -0.8973 -0.2456 -0.3330
  111OSM    C1511420   1.438   2.708  10.936  0.7789 -0.5883 -0.3342
  111OSM   H15A11421   1.468   2.811  10.951 -1.1488  0.1048 -1.0810
  111OSM   H15B11422   1.372   2.694  11.020  1.9006 -0.8245  0.5208
  111OSM   H15C11423   1.380   2.701  10.846 -2.3905  1.0698  1.4825
  111OSM    C1411424   1.639   2.635  11.062 -0.1886  0.1254 -0.0234
  111OSM   H14A11425   1.578   2.636  11.151  0.5693 -2.3655  0.5634
  111OSM   H14B11426   1.687   2.732  11.055  2.2827 -1.1624 -1.7912
  111OSM   H14C11427   1.714   2.558  11.072 -0.5192 -0.0471  1.1755
  111OSM    C1311428   1.495   2.481  10.931  0.1607 -0.6688  0.3450
  111OSM   H13A11429   1.573   2.407  10.916 -0.4472 -1.2320 -0.0693
  111OSM   H13B11430   1.419   2.483  10.855  0.1140 -2.5652  0.3221
  111OSM   H13C11431   1.448   2.460  11.026 -1.2455 -1.2174 -0.4621
  111OSM    C1211432   1.640   2.642  10.818 -0.1838  0.1168 -0.2350
  111OSM   H12A11433   1.586   2.603  10.733 -2.8715 -0.1612  1.5366
  111OSM   H12B11434   1.726   2.577  10.808 -1.0836 -0.9408 -1.2467
  111OSM    C1111435   1.684   2.784  10.784 -0.7496 -0.1581 -0.2132
  111OSM   H11A11436   1.589   2.841  10.784  0.2057  1.4996 -2.5256
  111OSM   H11B11437   1.720   2.789  10.679 -1.0934  2.1724 -0.2464
  111OSM      P11438   1.929   2.822  10.861  0.4359 -0.1836  0.4864
  111OSM    O1311439   2.011   2.876  10.972  0.0093  0.2459  0.1041
  111OSM    O1411440   1.964   2.681  10.828  0.1931 -0.7212 -0.5378
  111OSM    O1111441   1.949   2.911  10.736  0.1250 -0.0486  0.2521
  111OSM    O1211442   1.771   2.838  10.884  1.0421  0.5964 -0.2942
  111OSM    C1S11443   1.894   3.041  10.732 -0.0385  0.0260  0.7504
  111OSM    H1S11444   1.947   3.106  10.805 -1.2106  1.9955 -0.0884
  111OSM    H1T11445   1.783   3.045  10.742  0.1249  0.1834  2.7545
  111OSM     NF11446   1.841   3.228  10.589  0.7220 -0.5844  0.6111
  111OSM    HNF11447   1.747   3.216  10.557  0.0574  1.5687  1.6899
  111OSM    C2S11448   1.928   3.105  10.593 -0.2468 -0.1998  0.4985
  111OSM    H2S11449   2.035   3.133  10.592  0.0137 -1.1758 -2.2826
  111OSM    C3S11450   1.894   3.003  10.484 -0.3593  0.6556 -0.2868
  111OSM    H3S11451   1.787   2.977  10.496 -0.6968  2.8676  1.8779
  111OSM     O311452   1.965   2.878  10.480  0.7151  0.1992 -0.0617
  111OSM    HO311453   1.986   2.864  10.573  0.0699 -0.9336 -0.0922
  111OSM    C4S11454   1.919   3.075  10.356 -0.2557  0.2390 -0.1547
  111OSM    H4S11455   1.833   3.138  10.331  0.8652  2.1123  0.5488
  111OSM    C5S11456   2.033   3.083  10.279 -0.0005  0.2886  0.2537
  111OSM    H5S11457   2.131   3.053  10.317 -0.1041 -1.4992 -0.8552
  111OSM    C6S11458   2.035   3.160  10.145  0.4493  0.0298 -0.3172
  111OSM    H6S11459   2.095   3.253  10.146 -0.1109  0.3851 -0.2474
  111OSM    H6T11460   1.932   3.180  10.108  0.2738 -0.0353  0.1301
  111OSM    C7S11461   2.114   3.058  10.060  0.1349  0.8793 -0.3517
  111OSM    H7S11462   2.071   2.956  10.065  0.5803  0.7289  0.4546
  111OSM    H7T11463   2.216   3.037  10.098  0.0037 -0.0154 -0.4873
  111OSM    C8S11464   2.124   3.104   9.910 -0.6079 -0.5901  0.2455
  111OSM    H8S11465   2.139   3.214   9.901 -1.0706 -0.7982 -4.3238
  111OSM    H8T11466   2.038   3.090   9.841  0.1772 -0.8354 -0.7112
  111OSM    C9S11467   2.237   3.028   9.841  0.2761 -0.2268 -0.1132
  111OSM    H9S11468   2.232   2.923   9.876 -0.0471  0.5719  2.3459
  111OSM    H9T11469   2.335   3.071   9.872  0.0817 -0.5017  0.9139
  111OSM   C10S11470   2.216   3.010   9.696 -0.4949 -0.3609  0.6776
  111OSM   H10S11471   2.224   3.106   9.641  0.4371 -1.3404 -0.9068
  111OSM   H10T11472   2.116   2.970   9.669 -0.0043 -0.9180 -0.3345
  111OSM   C11S11473   2.329   2.937   9.623  0.6198  0.3894  0.2470
  111OSM   H11S11474   2.343   2.836   9.669  1.5537  0.4066  0.0132
  111OSM   H11T11475   2.425   2.988   9.647  0.3059  1.0103  0.1702
  111OSM   C12S11476   2.303   2.933   9.468 -0.7954 -0.6494  0.2391
  111OSM   H12S11477   2.291   3.039   9.435 -1.4331 -0.1048  2.1452
  111OSM   H12T11478   2.201   2.896   9.446 -0.3289 -0.8164 -1.6904
  111OSM   C13S11479   2.414   2.858   9.388 -0.2302 -0.0807 -0.4117
  111OSM   H13S11480   2.394   2.748   9.391  1.3983 -0.4232 -1.2513
  111OSM   H13T11481   2.513   2.888   9.430 -0.2370 -0.1059 -0.3779
  111OSM   C14S11482   2.412   2.902   9.241 -0.2678  0.0338  0.4062
  111OSM   H14S11483   2.413   3.013   9.233 -1.2588  0.0984  1.0670
  111OSM   H14T11484   2.317   2.865   9.196  0.3205 -0.6507 -0.2817
  111OSM   C15S11485   2.524   2.856   9.156 -0.2352 -0.2913 -0.1259
  111OSM   H15S11486   2.539   2.749   9.184 -1.2594 -0.5954 -0.6895
  111OSM   H15T11487   2.615   2.917   9.170  0.4608 -1.1754 -0.7061
  111OSM   C16S11488   2.490   2.862   9.007  0.0771  0.4119  0.2382
  111OSM   H16S11489   2.462   2.964   8.976  0.1717 -0.0735 -1.4896
  111OSM   H16T11490   2.399   2.803   8.983  0.1513  0.4689 -0.1897
  111OSM   C17S11491   2.596   2.824   8.903 -0.0606  1.3275  0.0383
  111OSM   H17S11492   2.694   2.876   8.904  0.6046  0.1165 -0.8459
  111OSM   H17T11493   2.566   2.859   8.802 -0.9286  1.7024  0.4203
  111OSM   C18S11494   2.613   2.673   8.898  0.4576  0.1375  0.1767
  111OSM   H18S11495   2.680   2.636   8.819 -0.4147 -0.3722 -0.3341
  111OSM   H18T11496   2.517   2.620   8.881  0.2950 -0.0989  1.7460
  111OSM   H18U11497   2.645   2.642   9.000 -1.1332  2.1773  1.3581
  111OSM    C1F11498   1.886   3.343  10.637 -0.2753 -0.5212 -0.5848
  111OSM     OF11499   1.994   3.353  10.693  0.2425 -0.0160  0.0259
  111OSM    C2F11500   1.795   3.462  10.620 -0.5370 -0.5270 -0.4439
  111OSM    H2F11501   1.797   3.534  10.705 -2.8015 -0.2093 -0.6325
  111OSM    H2G11502   1.691   3.427  10.603 -0.3862 -0.7648 -0.8783
  111OSM    C3F11503   1.849   3.554  10.499 -0.2086  0.1244  0.7617
  111OSM    H3F11504   1.958   3.573  10.511 -0.1925  0.9026 -0.5177
  111OSM    H3G11505   1.794   3.648  10.517 -2.2488 -0.6865 -0.9827
  111OSM    C4F11506   1.817   3.478  10.367 -0.2817 -0.7460  0.2476
  111OSM    H4F11507   1.719   3.427  10.379 -1.0732  0.4747 -0.8818
  111OSM    H4G11508   1.903   3.408  10.365  0.9547  0.7584 -0.8137
  111OSM    C5F11509   1.816   3.562  10.242  0.3118 -0.1881 -0.8536
  111OSM    H5F11510   1.914   3.602  10.210 -0.6138  1.9580 -1.0879
  111OSM    H5G11511   1.748   3.649  10.247  0.1960 -0.2015 -1.9667
  111OSM    C6F11512   1.761   3.473  10.121  0.5536 -0.8288  0.5635
  111OSM    H6F11513   1.661   3.429  10.142 -0.7794  2.1086  0.5748
  111OSM    H6G11514   1.820   3.379  10.112  1.1821 -0.4400  0.5996
  111OSM    C7F11515   1.760   3.556   9.989 -0.5760  0.0807  0.0678
  111OSM    H7F11516   1.745   3.474   9.916 -1.5709 -0.2208  0.6027
  111OSM    H7G11517   1.861   3.593   9.962 -0.2632 -1.7637 -1.3729
  111OSM    C8F11518   1.650   3.662   9.962 -0.3986  0.6379  0.9710
  111OSM    H8F11519   1.665   3.738  10.041  2.6029  2.4184 -1.2270
  111OSM    H8G11520   1.549   3.619   9.984 -0.9130  1.9040  1.0913
  111OSM    C9F11521   1.670   3.730   9.830 -0.1070 -0.3862 -0.0377
  111OSM    H9F11522   1.704   3.835   9.828  0.1186 -0.3772  2.6922
  111OSM   C10F11523   1.648   3.676   9.710  0.4785  0.4373 -0.5860
  111OSM   H10F11524   1.682   3.739   9.626 -0.6789 -1.0961 -2.2299
  111OSM   C11F11525   1.600   3.538   9.674 -0.2387  0.3249  0.9375
  111OSM   H11F11526   1.522   3.540   9.594  0.3958 -0.7153  0.2853
  111OSM   H11G11527   1.567   3.485   9.766 -1.4684 -0.7115 -0.0668
  111OSM   C12F11528   1.717   3.451   9.614  0.2854  0.9606 -0.0579
  111OSM   H12F11529   1.792   3.441   9.695  3.1765  0.1665 -2.7289
  111OSM   H12G11530   1.766   3.500   9.527  0.1025 -1.4287 -1.5463
  111OSM   C13F11531   1.672   3.320   9.556 -0.0034  0.3919 -0.1306
  111OSM   H13F11532   1.613   3.334   9.463  2.0315 -0.3589 -1.5622
  111OSM   H13G11533   1.602   3.268   9.625 -1.5142 -1.7551 -3.1817
  111OSM   C14F11534   1.784   3.218   9.535 -0.8105 -0.0915  0.4466
  111OSM   H14F11535   1.745   3.119   9.505 -0.0019  0.1905 -1.6598
  111OSM   H14G11536   1.843   3.216   9.628  0.2747 -0.4068 -0.2439
  111OSM   C15F11537   1.889   3.261   9.423  0.5375 -0.4215  0.3621
  111OSM   H15F11538   1.940   3.349   9.467  0.6148 -0.2514 -0.0619
  111OSM   H15G11539   1.835   3.294   9.331  1.3600 -0.4685 -0.1509
  111OSM   C16F11540   1.983   3.139   9.392  0.1569 -0.8068 -0.1004
  111OSM   H16F11541   1.923   3.051   9.363 -0.6575 -0.6917  1.2065
  111OSM   H16G11542   2.044   3.114   9.481  1.3873  0.5434 -0.5325
  111OSM   C17F11543   2.079   3.171   9.283 -0.9313  0.0170 -0.1986
  111OSM   H17F11544   2.140   3.080   9.266 -0.4734  0.1434  0.7573
  111OSM   H17G11545   2.138   3.258   9.317 -0.0999 -0.0672 -1.3884
  111OSM   C18F11546   2.025   3.215   9.148  0.3980  0.6867 -0.0321
  111OSM   H18F11547   1.999   3.323   9.150 -3.4106 -0.1242 -1.3433
  111OSM   H18G11548   1.927   3.164   9.132  0.0625  1.2733  0.1365
  111OSM   H18H11549   2.097   3.185   9.069 -0.7185  1.4801 -1.3840
  112OSM      N11550   0.723   1.312  11.057 -0.2655  0.1346 -0.4729
  112OSM    C1511551   0.784   1.325  11.194  0.9825  0.5157  0.5340
  112OSM   H15A11552   0.727   1.374  11.271 -1.8761 -0.5628 -0.8188
  112OSM   H15B11553   0.873   1.386  11.183 -0.0227  2.0109  0.6303
  112OSM   H15C11554   0.812   1.225  11.224 -1.8200 -0.9000 -1.3947
  112OSM    C1411555   0.610   1.212  11.068  0.9838  0.4560  0.6712
  112OSM   H14A11556   0.628   1.130  11.135 -2.4666 -2.0014 -1.2468
  112OSM   H14B11557   0.591   1.176  10.968  0.2658  0.0807  0.9393
  112OSM   H14C11558   0.523   1.264  11.107  1.4657 -0.6655  3.4018
  112OSM    C1311559   0.688   1.450  11.010  0.4462  0.5246 -0.5369
  112OSM   H13A11560   0.647   1.442  10.910 -2.1752  2.2959  0.3289
  112OSM   H13B11561   0.771   1.518  11.017  0.9319 -0.3034  2.0050
  112OSM   H13C11562   0.614   1.494  11.075  0.1519 -3.6548  2.1501
  112OSM    C1211563   0.828   1.252  10.970  0.1405 -0.2129 -0.4103
  112OSM   H12A11564   0.872   1.169  11.024  0.1747  0.7881  1.1615
  112OSM   H12B11565   0.902   1.331  10.960  0.4896 -0.2603  1.6088
  112OSM    C1111566   0.785   1.201  10.827 -0.0301  0.1908 -0.5376
  112OSM   H11A11567   0.876   1.193  10.764 -0.5998  0.0674 -1.3590
  112OSM   H11B11568   0.723   1.281  10.781  0.6654 -0.2058 -2.2037
  112OSM      P11569   0.771   0.945  10.874 -0.0448  0.0846 -0.3508
  112OSM    O1311570   0.852   0.959  11.000  0.2026 -0.0149 -0.0135
  112OSM    O1411571   0.665   0.838  10.860  0.3780  0.4783 -0.0654
  112OSM    O1111572   0.879   0.925  10.763 -0.7613  0.3243 -0.2459
  112OSM    O1211573   0.708   1.084  10.830 -0.0107  0.0160  1.3612
  112OSM    C1S11574   0.837   0.920  10.622 -0.3576  0.4171 -0.8197
  112OSM    H1S11575   0.827   1.022  10.580  3.0566  1.3587  0.5149
  112OSM    H1T11576   0.736   0.872  10.613 -0.5274  0.0943  2.1129
  112OSM     NF11577   0.855   0.785  10.416 -0.5240 -0.2436 -0.0831
  112OSM    HNF11578   0.820   0.693  10.406  0.7139 -0.6512 -0.8483
  112OSM    C2S11579   0.925   0.816  10.539 -0.1024 -0.0507 -0.1457
  112OSM    H2S11580   1.020   0.871  10.519  0.8314 -1.2464  0.9356
  112OSM    C3S11581   0.965   0.697  10.622  0.3479  0.1047 -0.2143
  112OSM    H3S11582   0.877   0.644  10.666 -0.2727  1.3731  0.1127
  112OSM     O311583   1.043   0.741  10.740  0.3362  0.8132  0.1942
  112OSM    HO311584   1.035   0.836  10.742  2.4959  1.0207  0.0022
  112OSM    C4S11585   1.044   0.601  10.539  0.1602 -0.1842 -0.4004
  112OSM    H4S11586   0.988   0.510  10.511  0.6753 -0.7721  0.4430
  112OSM    C5S11587   1.181   0.607  10.519  0.8672 -0.8847 -0.0467
  112OSM    H5S11588   1.244   0.682  10.569  0.3872 -0.8530  0.5171
  112OSM    C6S11589   1.261   0.514  10.439  0.8013  0.0663 -0.3673
  112OSM    H6S11590   1.298   0.440  10.513 -0.8495  1.5491  2.0217
  112OSM    H6T11591   1.343   0.566  10.385  2.0605 -0.9597  0.4921
  112OSM    C7S11592   1.179   0.437  10.333 -0.7577 -0.5095 -0.0078
  112OSM    H7S11593   1.105   0.380  10.393 -1.0856  1.2050  1.2303
  112OSM    H7T11594   1.240   0.367  10.272 -2.3599 -0.5916 -1.5485
  112OSM    C8S11595   1.109   0.517  10.223 -0.5153  0.2551  0.6736
  112OSM    H8S11596   1.185   0.555  10.151 -1.6439 -0.0033 -0.6760
  112OSM    H8T11597   1.056   0.608  10.258 -1.5456 -0.2028  0.3258
  112OSM    C9S11598   1.012   0.424  10.152  0.4513  0.5565  0.1218
  112OSM    H9S11599   0.935   0.390  10.225  0.2859 -2.2751 -1.2997
  112OSM    H9T11600   1.056   0.327  10.119 -0.8248  0.0766 -0.2132
  112OSM   C10S11601   0.940   0.496  10.043 -0.0908  0.2409 -0.6817
  112OSM   H10S11602   0.901   0.593  10.079 -3.0991 -0.2966 -2.2948
  112OSM   H10T11603   0.848   0.444  10.008 -1.3287  1.0484  1.3059
  112OSM   C11S11604   1.030   0.544   9.927 -0.4726 -0.2235  0.2021
  112OSM   H11S11605   1.099   0.462   9.896  1.0597  0.5741  1.4325
  112OSM   H11T11606   1.093   0.632   9.950  1.7905 -1.8073  0.2944
  112OSM   C12S11607   0.934   0.589   9.815  0.0792 -0.8449 -0.0301
  112OSM   H12S11608   0.855   0.642   9.871 -0.5344 -1.4634 -0.3087
  112OSM   H12T11609   0.894   0.494   9.772  0.2249 -1.3630  0.9545
  112OSM   C13S11610   0.988   0.667   9.694 -0.7563 -0.7352 -0.6195
  112OSM   H13S11611   1.008   0.773   9.721  0.2876 -1.7840  3.0514
  112OSM   H13T11612   0.899   0.675   9.628 -1.1580  0.7739  0.0684
  112OSM   C14S11613   1.113   0.605   9.640 -0.4104  0.2550  0.1644
  112OSM   H14S11614   1.112   0.494   9.636 -0.1817  0.2491  0.2776
  112OSM   H14T11615   1.185   0.638   9.717 -0.4307 -1.8418  1.1069
  112OSM   C15S11616   1.168   0.661   9.505  0.0014 -0.5326 -0.8275
  112OSM   H15S11617   1.269   0.618   9.489 -1.2300 -4.1794  0.6537
  112OSM   H15T11618   1.179   0.771   9.504  0.5382 -0.5880 -1.0175
  112OSM   C16S11619   1.092   0.618   9.376  0.3909 -0.7594  0.5559
  112OSM   H16S11620   0.982   0.621   9.389 -0.1997  0.4420 -3.8866
  112OSM   H16T11621   1.123   0.514   9.354  3.3777  0.6310 -2.2667
  112OSM   C17S11622   1.129   0.708   9.255  0.5885 -0.4492 -0.7539
  112OSM   H17S11623   1.104   0.814   9.276  0.8306 -0.5788  0.2173
  112OSM   H17T11624   1.063   0.672   9.174 -0.4382 -1.2592  0.4193
  112OSM   C18S11625   1.279   0.688   9.221 -0.5556 -0.3121  0.1963
  112OSM   H18S11626   1.341   0.729   9.303 -0.9014  0.5065  0.0507
  112OSM   H18T11627   1.306   0.731   9.122 -4.3982  0.3154 -0.6373
  112OSM   H18U11628   1.303   0.579   9.224 -0.6181 -0.3292  0.0859
  112OSM    C1F11629   0.834   0.884  10.328 -0.1502 -0.3065 -0.1359
  112OSM     OF11630   0.905   0.980  10.336  0.1685 -0.1405 -0.1658
  112OSM    C2F11631   0.726   0.874  10.233  0.3498  0.0676  0.3774
  112OSM    H2F11632   0.649   0.954  10.237  1.8315  1.4523  2.3344
  112OSM    H2G11633   0.672   0.778  10.244 -2.1983  1.5541  1.1354
  112OSM    C3F11634   0.779   0.878  10.085 -0.5906  0.6922  0.8503
  112OSM    H3F11635   0.696   0.831  10.028  0.3367  0.8924 -0.7101
  112OSM    H3G11636   0.863   0.807  10.068 -0.9541  0.1470  1.3352
  112OSM    C4F11637   0.788   1.014  10.009 -0.0110 -0.1448  0.5875
  112OSM    H4F11638   0.861   1.084  10.053  1.5421 -1.2046 -0.2371
  112OSM    H4G11639   0.690   1.066  10.016  1.4935  2.4942  3.0432
  112OSM    C5F11640   0.821   1.000   9.863  0.1363 -0.9159 -0.4048
  112OSM    H5F11641   0.747   0.933   9.814 -1.4981  0.0633  0.6414
  112OSM    H5G11642   0.923   0.956   9.860  0.3559 -0.4776  0.3856
  112OSM    C6F11643   0.821   1.131   9.792  0.3240 -0.4983  0.3488
  112OSM    H6F11644   0.895   1.200   9.838 -0.7746  0.5889  0.4987
  112OSM    H6G11645   0.722   1.180   9.800 -1.1239 -2.4829 -3.9740
  112OSM    C7F11646   0.849   1.142   9.635  0.1109 -1.1141 -0.2785
  112OSM    H7F11647   0.958   1.132   9.612  1.2383  4.2443  2.0340
  112OSM    H7G11648   0.816   1.243   9.602  3.1617 -0.7479 -2.5277
  112OSM    C8F11649   0.778   1.042   9.544  0.0934 -0.0684 -0.1498
  112OSM    H8F11650   0.671   1.060   9.570  0.3693  1.7365 -0.1960
  112OSM    H8G11651   0.802   0.944   9.590 -0.4909  0.1990  0.7476
  112OSM    C9F11652   0.806   1.064   9.396 -0.1401 -0.7375 -0.2542
  112OSM    H9F11653   0.896   1.013   9.359  0.4560  0.6175 -0.7060
  112OSM   C10F11654   0.725   1.138   9.311 -0.4741  0.5849  0.0914
  112OSM   H10F11655   0.753   1.144   9.205  0.8114  0.9250  0.4379
  112OSM   C11F11656   0.600   1.210   9.357 -0.8368  0.2109  0.1786
  112OSM   H11F11657   0.615   1.275   9.446 -1.2959 -1.2769  1.3449
  112OSM   H11G11658   0.522   1.140   9.393  1.4164 -2.6985 -0.4637
  112OSM   C12F11659   0.544   1.309   9.252 -0.2977  0.3417  0.3095
  112OSM   H12F11660   0.628   1.376   9.223 -0.8011  1.0483  0.4755
  112OSM   H12G11661   0.471   1.375   9.304  1.0309  1.2936  0.9896
  112OSM   C13F11662   0.473   1.244   9.136  0.3683  0.3645 -0.0204
  112OSM   H13F11663   0.400   1.174   9.183  1.1017 -0.6056 -0.3353
  112OSM   H13G11664   0.546   1.195   9.069  0.1593  0.5060 -0.3538
  112OSM   C14F11665   0.401   1.347   9.052 -0.1279 -0.7380  0.0184
  112OSM   H14F11666   0.470   1.434   9.057 -1.8393  0.6405  0.0261
  112OSM   H14G11667   0.303   1.370   9.100 -0.0651  1.3561 -0.8285
  112OSM   C15F11668   0.363   1.304   8.905 -0.3161 -0.1326 -0.2860
  112OSM   H15F11669   0.294   1.217   8.912 -0.4744  0.0699  0.7679
  112OSM   H15G11670   0.451   1.254   8.860  0.4025  1.1754 -0.3769
  112OSM   C16F11671   0.322   1.411   8.810 -1.1158 -0.0323  0.0169
  112OSM   H16F11672   0.411   1.466   8.772  1.0487 -3.4034 -0.0651
  112OSM   H16G11673   0.266   1.487   8.868  1.7591  1.7026  0.6210
  112OSM   C17F11674   0.245   1.373   8.685 -0.0767  0.1079 -0.4519
  112OSM   H17F11675   0.213   1.465   8.632 -1.7238  1.2814  2.4426
  112OSM   H17G11676   0.151   1.328   8.724 -2.3033  2.7848 -2.5340
  112OSM   C18F11677   0.321   1.285   8.594 -0.9190  0.1140 -0.8387
  112OSM   H18F11678   0.254   1.255   8.510 -0.7087 -1.3507 -0.4961
  112OSM   H18G11679   0.346   1.193   8.652  2.1594  1.0521 -0.5729
  112OSM   H18H11680   0.414   1.330   8.555 -2.4327  2.1296 -2.2133
  113OSM      N11681   0.604   0.439  10.921 -0.4452  0.1107 -0.6116
  113OSM    C1511682   0.622   0.328  11.021 -0.1870  0.1363 -0.4446
  113OSM   H15A11683   0.724   0.294  11.019 -0.4815 -0.9078  1.1936
  113OSM   H15B11684   0.550   0.252  10.998  1.8776 -2.2502  0.7429
  113OSM   H15C11685   0.603   0.364  11.121 -0.5682  2.2514 -1.2429
  113OSM    C1411686   0.617   0.397  10.780 -0.0353 -0.2618 -0.4621
  113OSM   H14A11687   0.564   0.468  10.718  1.3690  0.3463 -0.9957
  113OSM   H14B11688   0.567   0.301  10.778  1.6583 -1.1486 -1.0620
  113OSM   H14C11689   0.719   0.381  10.749 -0.8087 -1.4686 -2.4664
  113OSM    C1311690   0.466   0.496  10.955  0.1404  0.5014 -0.2532
  113OSM   H13A11691   0.425   0.568  10.886 -1.3951  0.3064  0.4178
  113OSM   H13B11692   0.460   0.536  11.055 -1.0485 -2.0766  0.7590
  113OSM   H13C11693   0.390   0.418  10.951 -1.7007  2.3498 -2.7102
  113OSM    C1211694   0.709   0.546  10.957  0.2053  0.4546 -0.0571
  113OSM   H12A11695   0.695   0.578  11.059 -2.7053  0.1126 -0.3066
  113OSM   H12B11696   0.678   0.632  10.900  2.1515  1.7948  0.8756
  113OSM    C1111697   0.858   0.514  10.932 -0.1507  0.1131  0.4952
  113OSM   H11A11698   0.911   0.609  10.951 -1.4496  0.3009  3.5656
  113OSM   H11B11699   0.871   0.496  10.824  0.0381 -1.8328  0.8224
  113OSM      P11700   1.052   0.359  11.011 -0.4878  0.1211  0.4043
  113OSM    O1311701   1.142   0.474  11.039 -0.6196 -0.0686  0.0449
  113OSM    O1411702   1.072   0.243  11.094 -0.3162  0.1421 -0.2522
  113OSM    O1111703   1.064   0.313  10.861  0.2788 -0.6042  0.2141
  113OSM    O1211704   0.900   0.404  11.012  0.0998 -0.4086  0.1019
  113OSM    C1S11705   0.980   0.229  10.791 -0.0100 -0.3371 -0.4345
  113OSM    H1S11706   0.882   0.282  10.796 -1.2295 -2.4679 -1.1324
  113OSM    H1T11707   0.961   0.130  10.838  0.3275  0.1607  0.7692
  113OSM     NF11708   0.907   0.121  10.587  0.2665 -0.0276 -0.2875
  113OSM    HNF11709   0.881   0.030  10.618 -0.8080 -0.7074 -3.0440
  113OSM    C2S11710   1.023   0.191  10.651 -0.1879 -0.2138 -0.1604
  113OSM    H2S11711   1.049   0.286  10.599 -0.2806 -0.4911 -0.7143
  113OSM    C3S11712   1.161   0.105  10.660 -1.2389  0.0449 -0.0263
  113OSM    H3S11713   1.133   0.009  10.709 -1.1780  0.6311  1.1800
  113OSM     O311714   1.262   0.169  10.741 -0.2508 -0.7497  0.2695
  113OSM    HO311715   1.214   0.238  10.787  3.0344  1.4896  0.5804
  113OSM    C4S11716   1.218   0.083  10.523 -0.2955 -0.1191  0.1133
  113OSM    H4S11717   1.254   0.178  10.481 -2.5561  1.3415  1.3796
  113OSM    C5S11718   1.215  -0.035  10.453  0.2420  0.3880 -0.6828
  113OSM    H5S11719   1.165  -0.114  10.511  0.6478  0.7297  0.1378
  113OSM    C6S11720   1.268  -0.076  10.313  1.2429 -0.0539 -0.5060
  113OSM    H6S11721   1.207  -0.163  10.282 -0.0553  0.8301 -0.4639
  113OSM    H6T11722   1.371  -0.118  10.319  1.2865  0.0889 -0.2153
  113OSM    C7S11723   1.268   0.028  10.200  0.5213 -0.2925 -0.1831
  113OSM    H7S11724   1.330   0.119  10.219  0.7459 -0.3174 -0.7712
  113OSM    H7T11725   1.164   0.066  10.192  1.4451  3.1539  2.5795
  113OSM    C8S11726   1.317  -0.053  10.067  0.5860 -0.3935 -0.2955
  113OSM    H8S11727   1.271  -0.154  10.061 -0.2763 -0.0326  0.2156
  113OSM    H8T11728   1.427  -0.064  10.060  0.7033  0.6931 -0.3092
  113OSM    C9S11729   1.266   0.025   9.941  0.4291  0.1760 -0.4540
  113OSM    H9S11730   1.155   0.014   9.939  0.4051 -0.5273  3.0333
  113OSM    H9T11731   1.315  -0.030   9.858  0.7804 -1.4437  0.8033
  113OSM   C10S11732   1.295   0.173   9.961 -0.5599 -0.0717  0.2574
  113OSM   H10S11733   1.396   0.194  10.003  0.0642 -0.7450 -0.8777
  113OSM   H10T11734   1.219   0.214  10.031  0.0531 -0.8683  1.4083
  113OSM   C11S11735   1.280   0.252   9.829  0.0767  0.1956  0.1877
  113OSM   H11S11736   1.295   0.358   9.856  1.9235 -0.3845  1.5001
  113OSM   H11T11737   1.174   0.235   9.798  0.1829 -0.0064 -0.0731
  113OSM   C12S11738   1.373   0.207   9.715 -0.1546  0.1436  0.4705
  113OSM   H12S11739   1.337   0.107   9.681 -2.0879  1.0985 -0.3154
  113OSM   H12T11740   1.468   0.197   9.773  0.1895  0.7127  0.0072
  113OSM   C13S11741   1.381   0.289   9.593  0.3518 -0.4272 -0.1768
  113OSM   H13S11742   1.422   0.388   9.621  0.4224 -1.1382  2.3088
  113OSM   H13T11743   1.277   0.308   9.558  1.1356  0.4912 -2.1235
  113OSM   C14S11744   1.463   0.217   9.487  0.1003  0.6664  0.2010
  113OSM   H14S11745   1.417   0.118   9.467  1.3602 -0.3184  1.9538
  113OSM   H14T11746   1.566   0.202   9.528  0.0660  0.0470  0.0662
  113OSM   C15S11747   1.493   0.309   9.366 -0.6702 -0.5696  0.2721
  113OSM   H15S11748   1.517   0.410   9.404  1.4868 -0.7914 -0.4782
  113OSM   H15T11749   1.400   0.308   9.304 -0.7787 -0.5372  0.4352
  113OSM   C16S11750   1.606   0.252   9.273 -0.2084 -0.3656  0.1779
  113OSM   H16S11751   1.567   0.161   9.224 -0.6244  0.7122 -1.5096
  113OSM   H16T11752   1.694   0.228   9.338  0.5108 -0.0062 -0.6558
  113OSM   C17S11753   1.647   0.354   9.169 -0.2562  0.3886  0.1499
  113OSM   H17S11754   1.744   0.313   9.136 -0.4892  1.0632 -1.4203
  113OSM   H17T11755   1.662   0.457   9.209  1.8831  0.0717  0.2183
  113OSM   C18S11756   1.559   0.362   9.052 -0.3080 -0.0356  0.2476
  113OSM   H18S11757   1.611   0.412   8.967  1.9355 -2.6666 -0.0280
  113OSM   H18T11758   1.464   0.413   9.077  0.2197  1.2996 -0.4181
  113OSM   H18U11759   1.541   0.260   9.010 -1.1211  0.4448 -0.5853
  113OSM    C1F11760   0.808   0.197  10.532 -0.5744 -0.0824 -0.1229
  113OSM     OF11761   0.810   0.318  10.541 -0.0845 -0.1283 -0.1092
  113OSM    C2F11762   0.684   0.130  10.483  0.0872  0.0230  0.6410
  113OSM    H2F11763   0.590   0.149  10.539 -1.3893 -2.6632 -0.8120
  113OSM    H2G11764   0.703   0.021  10.499 -1.3349 -0.0139  2.3076
  113OSM    C3F11765   0.659   0.164  10.339 -0.1311 -0.0275  0.6026
  113OSM    H3F11766   0.644   0.274  10.328  0.4196 -0.0005  0.1519
  113OSM    H3G11767   0.561   0.125  10.305 -0.5177  2.9940 -1.9609
  113OSM    C4F11768   0.767   0.110  10.243  0.0665  0.0768  0.2766
  113OSM    H4F11769   0.775  -0.001  10.251  0.2833  0.2466  2.7210
  113OSM    H4G11770   0.866   0.155  10.264  0.7709 -0.9313 -0.8082
  113OSM    C5F11771   0.730   0.145  10.100 -0.5510 -0.0047 -0.1638
  113OSM    H5F11772   0.695   0.247  10.074  1.5890  0.2915 -2.1297
  113OSM    H5G11773   0.635   0.092  10.074 -1.1635  1.7429 -1.6423
  113OSM    C6F11774   0.829   0.096   9.994  0.4852 -0.0054 -0.1155
  113OSM    H6F11775   0.827  -0.014   9.985 -1.2269 -0.1546  1.8407
  113OSM    H6G11776   0.932   0.119  10.029  0.4900  0.9243 -0.7268
  113OSM    C7F11777   0.811   0.163   9.850  0.0633  0.7988 -0.8257
  113OSM    H7F11778   0.816   0.274   9.849 -0.3649  0.8219 -0.4862
  113OSM    H7G11779   0.708   0.131   9.826  0.8044 -1.1796 -1.4821
  113OSM    C8F11780   0.903   0.105   9.739 -0.4920 -0.0267 -0.2588
  113OSM    H8F11781   0.928  -0.002   9.751 -1.6625 -0.3536 -0.7314
  113OSM    H8G11782   0.992   0.172   9.739 -1.1528  0.8699 -1.7198
  113OSM    C9F11783   0.823   0.117   9.606 -0.2367 -0.1577  1.1483
  113OSM    H9F11784   0.731   0.056   9.606  0.2765 -0.9437  2.1873
  113OSM   C10F11785   0.859   0.193   9.502 -0.1928 -0.5433  0.0419
  113OSM   H10F11786   0.801   0.181   9.410 -0.6011 -2.2876  0.5153
  113OSM   C11F11787   0.976   0.279   9.488  1.0427 -0.3006 -0.0412
  113OSM   H11F11788   1.045   0.273   9.574 -1.8710  1.1469  2.4812
  113OSM   H11G11789   0.941   0.385   9.486  2.9452  0.3562  0.3190
  113OSM   C12F11790   1.046   0.250   9.360 -0.8242  0.7920  1.0203
  113OSM   H12F11791   1.064   0.141   9.353 -2.1146  0.5051  2.1710
  113OSM   H12G11792   1.142   0.305   9.375 -1.0619  1.0194  1.7148
  113OSM   C13F11793   0.987   0.304   9.232 -0.2468 -0.8373  0.2668
  113OSM   H13F11794   0.950   0.403   9.262  0.4644  0.1254 -1.9014
  113OSM   H13G11795   0.911   0.236   9.188 -1.8265  0.4892  0.9161
  113OSM   C14F11796   1.100   0.314   9.132 -0.3712  0.2624 -0.5143
  113OSM   H14F11797   1.136   0.216   9.095 -0.1370  0.0290  0.3215
  113OSM   H14G11798   1.180   0.369   9.186  0.1110  1.8097 -2.7087
  113OSM   C15F11799   1.052   0.394   9.011  0.4380 -1.0031  0.5371
  113OSM   H15F11800   0.997   0.483   9.050  2.5326  1.1070 -1.1771
  113OSM   H15G11801   0.980   0.341   8.946  2.3789 -1.5024 -1.2644
  113OSM   C16F11802   1.170   0.444   8.928  1.1561  0.1549 -0.0499
  113OSM   H16F11803   1.245   0.366   8.905 -0.1744 -0.6715 -1.6302
  113OSM   H16G11804   1.226   0.527   8.976 -2.0941  1.2928  1.9876
  113OSM   C17F11805   1.111   0.497   8.792 -0.1895 -0.2249  0.5724
  113OSM   H17F11806   1.047   0.585   8.811  1.0776  0.6208  0.9578
  113OSM   H17G11807   1.062   0.406   8.752 -0.9783  0.6962 -0.5619
  113OSM   C18F11808   1.209   0.545   8.689 -0.4116  0.0500 -0.1239
  113OSM   H18F11809   1.167   0.578   8.592  0.2172  2.0873  0.2623
  113OSM   H18G11810   1.291   0.473   8.668  1.0484  1.3306  1.0362
  113OSM   H18H11811   1.246   0.641   8.731 -1.6218  0.6812 -0.4882
  114OSM      N11812   2.463   5.485  11.353 -0.6533 -0.9368  0.3230
  114OSM    C1511813   2.330   5.525  11.302  0.2015 -0.7705 -0.2127
  114OSM   H15A11814   2.256   5.542  11.379 -0.5707 -0.2558 -1.0695
  114OSM   H15B11815   2.291   5.452  11.232 -0.4794  1.0153 -1.7237
  114OSM   H15C11816   2.344   5.617  11.247  0.9249 -1.3583 -1.0211
  114OSM    C1411817   2.517   5.608  11.424 -0.3616 -0.0974 -0.3338
  114OSM   H14A11818   2.621   5.600  11.453  0.5973  2.0849 -2.9190
  114OSM   H14B11819   2.463   5.646  11.510  2.0085  2.8715 -0.0359
  114OSM   H14C11820   2.510   5.688  11.351 -0.8540  0.8539  0.7378
  114OSM    C1311821   2.450   5.378  11.450  0.0629 -0.0170  0.2692
  114OSM   H13A11822   2.548   5.351  11.487  1.0260  4.5698  1.2709
  114OSM   H13B11823   2.410   5.292  11.398 -1.6173  1.5071 -0.9677
  114OSM   H13C11824   2.385   5.397  11.534  1.2716 -2.6120  1.8807
  114OSM    C1211825   2.561   5.447  11.243  0.3186 -0.3673 -0.2478
  114OSM   H12A11826   2.575   5.528  11.173 -0.6963 -0.2151 -0.2722
  114OSM   H12B11827   2.514   5.367  11.187  2.6868 -1.7633 -0.3364
  114OSM    C1111828   2.711   5.400  11.279  0.0551 -0.3458 -0.2951
  114OSM   H11A11829   2.750   5.388  11.176 -0.9578 -2.0968 -0.4953
  114OSM   H11B11830   2.724   5.302  11.331 -0.5750 -1.0584 -1.4780
  114OSM      P11831   2.858   5.622  11.270  0.2612 -0.2348 -0.2555
  114OSM    O1311832   2.785   5.743  11.302 -0.7793  0.5895 -0.6041
  114OSM    O1411833   3.001   5.600  11.303 -0.2144 -0.3480 -0.3277
  114OSM    O1111834   2.837   5.597  11.115  0.5890  0.2456 -0.1967
  114OSM    O1211835   2.783   5.502  11.343 -0.7223  1.0354 -0.0288
  114OSM    C1S11836   2.915   5.679  11.023  0.9625 -0.0167 -0.0981
  114OSM    H1S11837   3.022   5.652  11.032  0.7974  0.1346  2.5215
  114OSM    H1T11838   2.911   5.788  11.039  0.2374 -0.1085  0.3844
  114OSM     NF11839   2.949   5.699  10.780 -0.4024 -0.2161 -0.0199
  114OSM    HNF11840   2.918   5.771  10.718  1.3407  0.6917  0.1525
  114OSM    C2S11841   2.858   5.651  10.881 -0.1229 -0.6496  0.4420
  114OSM    H2S11842   2.855   5.541  10.865  0.2249 -0.4092 -1.4910
  114OSM    C3S11843   2.717   5.726  10.867 -0.3165  0.1040 -0.2042
  114OSM    H3S11844   2.745   5.833  10.854 -0.2465  0.1102  0.0019
  114OSM     O311845   2.635   5.725  10.986  0.5229  0.4896  0.1716
  114OSM    HO311846   2.692   5.675  11.045  0.2631 -1.3686 -1.1429
  114OSM    C4S11847   2.646   5.689  10.738 -0.2088  0.9599 -0.4783
  114OSM    H4S11848   2.696   5.733  10.651  1.3302 -0.5921 -0.4169
  114OSM    C5S11849   2.549   5.595  10.719  0.0157  0.1738  0.1830
  114OSM    H5S11850   2.521   5.540  10.810  1.9753 -0.2671  0.5254
  114OSM    C6S11851   2.488   5.560  10.581  0.0026  0.1674 -0.4324
  114OSM    H6S11852   2.378   5.574  10.590  0.0748  1.5373 -1.5064
  114OSM    H6T11853   2.492   5.450  10.565 -0.0177  0.1416 -0.2682
  114OSM    C7S11854   2.538   5.625  10.448  0.2055 -0.1271  0.1597
  114OSM    H7S11855   2.514   5.558  10.362  1.1103  1.0270 -1.0019
  114OSM    H7T11856   2.648   5.640  10.441  0.1631  0.9733  1.7044
  114OSM    C8S11857   2.457   5.760  10.423 -0.2822 -0.3340  0.0194
  114OSM    H8S11858   2.461   5.820  10.517 -0.0690  1.0457 -0.8544
  114OSM    H8T11859   2.355   5.724  10.399  0.0201 -0.5057 -1.0008
  114OSM    C9S11860   2.521   5.841  10.311  0.2423 -0.5647 -0.1476
  114OSM    H9S11861   2.632   5.850  10.313  0.0958  1.0216  1.3804
  114OSM    H9T11862   2.494   5.947  10.324  0.1513 -0.7953  1.5823
  114OSM   C10S11863   2.479   5.805  10.163  0.1699 -0.4855 -0.8805
  114OSM   H10S11864   2.372   5.831  10.153  0.3713  0.4217 -0.6979
  114OSM   H10T11865   2.493   5.697  10.139 -1.3527 -0.3451 -2.4598
  114OSM   C11S11866   2.554   5.892  10.069 -0.3572 -0.8407 -0.1829
  114OSM   H11S11867   2.665   5.894  10.080 -0.2585 -2.3986 -0.7513
  114OSM   H11T11868   2.522   5.995  10.094 -0.4753 -0.7646 -0.6428
  114OSM   C12S11869   2.520   5.889   9.918 -0.7948 -0.2703  0.0006
  114OSM   H12S11870   2.562   5.967   9.851 -0.9498 -0.8960 -0.8308
  114OSM   H12T11871   2.411   5.885   9.895 -0.6451 -0.6663 -0.6312
  114OSM   C13S11872   2.580   5.763   9.864 -0.6945  0.2996  0.3956
  114OSM   H13S11873   2.555   5.669   9.918  2.2801 -0.5087  0.4760
  114OSM   H13T11874   2.691   5.776   9.865 -0.9543  2.7864 -0.5704
  114OSM   C14S11875   2.533   5.735   9.715 -0.2089  0.7268 -0.4328
  114OSM   H14S11876   2.578   5.823   9.664  2.5438 -0.7188 -0.6072
  114OSM   H14T11877   2.423   5.719   9.706 -0.0500 -0.6899  0.0615
  114OSM   C15S11878   2.615   5.617   9.651 -0.4793 -0.4962 -0.4273
  114OSM   H15S11879   2.592   5.521   9.700 -0.9883 -0.2171 -0.1237
  114OSM   H15T11880   2.723   5.635   9.673 -0.7341 -0.0205  0.4653
  114OSM   C16S11881   2.600   5.617   9.501 -0.5399 -0.0449 -0.1916
  114OSM   H16S11882   2.642   5.711   9.459  0.0876 -0.2147  0.0540
  114OSM   H16T11883   2.492   5.600   9.480 -1.2484  1.7828  1.7408
  114OSM   C17S11884   2.680   5.502   9.440  0.0333  0.5641  0.2596
  114OSM   H17S11885   2.665   5.403   9.489  1.3510 -0.2460 -0.9311
  114OSM   H17T11886   2.789   5.502   9.465 -0.2205 -1.6458  1.5909
  114OSM   C18S11887   2.663   5.478   9.288 -0.7204 -0.1157 -0.1593
  114OSM   H18S11888   2.745   5.411   9.254  0.6583  1.0219  0.8489
  114OSM   H18T11889   2.675   5.576   9.238 -1.8056  0.0382 -0.1249
  114OSM   H18U11890   2.559   5.447   9.264 -1.7244  0.1520  3.5378
  114OSM    C1F11891   3.072   5.646  10.761 -0.0350 -0.4817 -0.1332
  114OSM     OF11892   3.121   5.565  10.840  0.2535 -0.2889 -0.2061
  114OSM    C2F11893   3.140   5.694  10.631  0.6481  0.2359 -0.0957
  114OSM    H2F11894   3.249   5.672  10.628  0.9960  1.6194  1.6618
  114OSM    H2G11895   3.115   5.802  10.626  0.7159  0.2976  0.7215
  114OSM    C3F11896   3.080   5.608  10.522 -0.2112  0.2062 -0.4113
  114OSM    H3F11897   2.972   5.628  10.507 -0.7825 -1.4406  1.3660
  114OSM    H3G11898   3.089   5.501  10.548 -2.9205  0.1024  0.2487
  114OSM    C4F11899   3.164   5.624  10.390 -1.0368 -0.7739  0.4908
  114OSM    H4F11900   3.140   5.541  10.320  1.8119  0.1826 -1.6831
  114OSM    H4G11901   3.267   5.619  10.429 -0.4079 -0.9762 -1.1559
  114OSM    C5F11902   3.132   5.752  10.311 -0.0582  0.5044 -0.4071
  114OSM    H5F11903   3.171   5.834  10.376  2.6048  0.2826 -1.6408
  114OSM    H5G11904   3.022   5.765  10.315 -0.5094 -2.7087 -0.8329
  114OSM    C6F11905   3.193   5.756  10.171 -0.0704  0.4333 -0.3326
  114OSM    H6F11906   3.170   5.664  10.113  0.5111  1.1240 -1.6711
  114OSM    H6G11907   3.302   5.775  10.178 -0.0142 -0.5415  1.6481
  114OSM    C7F11908   3.130   5.872  10.088  0.4464  0.0305 -0.4731
  114OSM    H7F11909   3.119   5.951  10.165 -0.3917 -0.6287  0.0859
  114OSM    H7G11910   3.029   5.839  10.057 -0.6206  3.5146 -0.8897
  114OSM    C8F11911   3.212   5.924   9.971 -0.5459  0.0970  0.1922
  114OSM    H8F11912   3.229   5.844   9.896 -1.2615 -0.4330  0.5888
  114OSM    H8G11913   3.307   5.965  10.010 -2.6594  4.8866  0.6413
  114OSM    C9F11914   3.141   6.050   9.917 -0.8521 -0.0995 -0.1304
  114OSM    H9F11915   3.135   6.134   9.987  0.6409  1.6366 -2.0206
  114OSM   C10F11916   3.076   6.072   9.802  0.0889 -0.1052 -0.3569
  114OSM   H10F11917   3.041   6.173   9.780 -2.6417 -0.1491  3.1839
  114OSM   C11F11918   3.053   5.964   9.701  0.6209  0.0676 -0.3599
  114OSM   H11F11919   2.945   5.941   9.687  0.9122 -1.0522 -0.7867
  114OSM   H11G11920   3.116   5.875   9.719  2.8266  1.0742 -2.7330
  114OSM   C12F11921   3.089   6.010   9.558 -0.1557  0.4119 -0.2553
  114OSM   H12F11922   3.188   6.059   9.555 -1.2729  2.7100 -1.0738
  114OSM   H12G11923   3.007   6.083   9.539  0.6990  1.9306  1.7445
  114OSM   C13F11924   3.085   5.888   9.462  0.1444 -0.0594 -0.0673
  114OSM   H13F11925   2.988   5.834   9.469  0.9490 -1.7002 -0.9738
  114OSM   H13G11926   3.167   5.820   9.496 -1.2152 -2.5997 -1.6867
  114OSM   C14F11927   3.111   5.928   9.312  0.2283  0.2568  0.0335
  114OSM   H14F11928   3.219   5.947   9.296 -0.5134  2.7089 -2.3641
  114OSM   H14G11929   3.040   6.008   9.282 -1.9997 -1.5906  0.2229
  114OSM   C15F11930   3.070   5.813   9.223 -0.4161 -0.7924 -0.2362
  114OSM   H15F11931   2.985   5.761   9.272  0.4928 -1.0304  1.1225
  114OSM   H15G11932   3.159   5.746   9.221 -0.3364 -0.6548 -1.6804
  114OSM   C16F11933   3.014   5.863   9.088  0.3089 -0.0878  0.5408
  114OSM   H16F11934   3.106   5.879   9.028  1.5653 -2.0784  1.9154
  114OSM   H16G11935   2.955   5.957   9.096  2.0753  1.2035 -1.1715
  114OSM   C17F11936   2.939   5.760   9.001  0.8886 -0.3679  0.1325
  114OSM   H17F11937   2.857   5.812   8.946 -0.2993 -0.5849  1.6690
  114OSM   H17G11938   2.890   5.692   9.074  0.6014  1.3119  1.5380
  114OSM   C18F11939   3.022   5.679   8.900 -0.1344 -0.1694  0.0750
  114OSM   H18F11940   3.114   5.639   8.946  0.9114  0.5227 -1.4060
  114OSM   H18G11941   3.053   5.748   8.819  1.1241 -0.2788  0.4564
  114OSM   H18H11942   2.953   5.602   8.858  2.8262 -1.0752 -3.4107
  115OSM      N11943   4.313   3.328   5.964  0.7671 -0.7357  0.2401
  115OSM    C1511944   4.444   3.291   6.025  0.5001 -0.0608 -0.3960
  115OSM   H15A11945   4.454   3.319   6.129  1.1514  1.8158 -0.9524
  115OSM   H15B11946   4.522   3.344   5.973 -0.2088  0.1196 -1.2935
  115OSM   H15C11947   4.454   3.184   6.017  0.4639 -0.1291  0.3998
  115OSM    C1411948   4.283   3.475   5.979  0.0544  0.2565 -0.0100
  115OSM   H14A11949   4.376   3.530   5.970  2.0709 -2.8760  0.6878
  115OSM   H14B11950   4.229   3.484   6.072  2.0984 -0.9474  1.3492
  115OSM   H14C11951   4.219   3.499   5.896  3.1281  0.8208 -2.3041
  115OSM    C1311952   4.316   3.309   5.815  0.1624 -0.1540  0.7059
  115OSM   H13A11953   4.351   3.212   5.782 -0.8583  0.1684 -1.3405
  115OSM   H13B11954   4.380   3.385   5.773  0.6163 -0.5284  0.7087
  115OSM   H13C11955   4.215   3.321   5.779  1.1204  1.0089 -1.6920
  115OSM    C1211956   4.194   3.242   6.019 -0.1726 -0.8474  0.3384
  115OSM   H12A11957   4.215   3.142   5.984  0.3360 -0.6383  0.0528
  115OSM   H12B11958   4.104   3.278   5.970  0.4398 -0.8916 -0.8296
  115OSM    C1111959   4.157   3.246   6.171 -0.4379 -0.2710  0.8751
  115OSM   H11A11960   4.255   3.229   6.221 -0.7403 -2.4566  0.7386
  115OSM   H11B11961   4.079   3.168   6.187 -0.7948  0.0027  0.4945
  115OSM      P11962   3.966   3.425   6.164 -0.2212 -0.1123 -0.4361
  115OSM    O1311963   3.981   3.569   6.124 -0.1201 -0.0088  0.1655
  115OSM    O1411964   3.904   3.329   6.069 -0.1385 -0.1219 -0.3852
  115OSM    O1111965   3.881   3.423   6.293  0.6496 -0.2429 -0.5273
  115OSM    O1211966   4.109   3.371   6.205  0.7558 -0.1645 -0.2320
  115OSM    C1S11967   3.935   3.357   6.413 -1.1880  0.1639 -0.2989
  115OSM    H1S11968   4.045   3.364   6.423 -1.3753  2.3298  0.5108
  115OSM    H1T11969   3.897   3.253   6.413 -1.4695  0.2425  2.4287
  115OSM     NF11970   3.956   3.396   6.659  0.0382 -0.2483  0.0189
  115OSM    HNF11971   3.908   3.337   6.723 -1.9060 -0.2034 -1.3722
  115OSM    C2S11972   3.877   3.429   6.536 -0.0117 -0.6216 -0.4897
  115OSM    H2S11973   3.878   3.538   6.515  1.6259 -0.4715  0.2879
  115OSM    C3S11974   3.723   3.388   6.554 -0.9239 -0.2207  0.0617
  115OSM    H3S11975   3.717   3.280   6.583 -2.8093  0.1066  1.0160
  115OSM     O311976   3.655   3.401   6.432 -0.1594 -0.2693 -0.0845
  115OSM    HO311977   3.728   3.390   6.371 -0.0133 -1.2430  0.2547
  115OSM    C4S11978   3.663   3.476   6.655  0.3409  0.1215 -0.3826
  115OSM    H4S11979   3.671   3.578   6.616 -0.4172  1.7517  3.4960
  115OSM    C5S11980   3.597   3.458   6.775  0.1587 -0.4129  0.0772
  115OSM    H5S11981   3.603   3.361   6.826 -0.1919 -1.4530 -1.7752
  115OSM    C6S11982   3.530   3.575   6.853 -0.2256  0.1577 -0.3084
  115OSM    H6S11983   3.460   3.535   6.928  1.1806 -1.0375  0.3911
  115OSM    H6T11984   3.472   3.642   6.785 -0.1705  3.3674  2.6300
  115OSM    C7S11985   3.626   3.678   6.925 -0.3173 -0.2512 -0.8013
  115OSM    H7S11986   3.577   3.778   6.931  0.0648  0.0059 -1.9232
  115OSM    H7T11987   3.705   3.699   6.850  0.4058 -0.1180 -0.0030
  115OSM    C8S11988   3.686   3.633   7.057  0.0764  0.4971 -0.2776
  115OSM    H8S11989   3.778   3.694   7.063  0.7364 -0.2693 -2.3515
  115OSM    H8T11990   3.722   3.528   7.050 -1.6914 -0.2639  1.5024
  115OSM    C9S11991   3.602   3.658   7.181 -0.1475  0.0378 -0.4705
  115OSM    H9S11992   3.522   3.584   7.202 -1.9115  1.6717 -1.2276
  115OSM    H9T11993   3.548   3.756   7.182 -1.1241 -0.4734  2.5611
  115OSM   C10S11994   3.694   3.643   7.302  0.2758 -0.3877  0.2239
  115OSM   H10S11995   3.772   3.723   7.303 -0.5073  0.3896  1.9611
  115OSM   H10T11996   3.753   3.550   7.289  1.7558  0.4055  1.0222
  115OSM   C11S11997   3.619   3.641   7.433 -0.5592  0.1093 -0.6082
  115OSM   H11S11998   3.679   3.586   7.509  2.3142  1.8924 -1.4793
  115OSM   H11T11999   3.536   3.568   7.421  0.1739 -0.8455  0.0944
  115OSM   C12S12000   3.566   3.774   7.486 -0.2703  0.3898 -0.4048
  115OSM   H12S12001   3.455   3.775   7.477 -0.3316 -0.4598  0.1798
  115OSM   H12T12002   3.619   3.859   7.438 -2.4472  3.3699  2.2309
  115OSM   C13S12003   3.569   3.791   7.637 -0.1176  1.0751  0.4496
  115OSM   H13S12004   3.675   3.774   7.664  0.1423 -1.2331 -1.9177
  115OSM   H13T12005   3.509   3.705   7.672  0.2046  0.9792  0.7719
  115OSM   C14S12006   3.532   3.932   7.677 -0.5261  0.4730 -0.3418
  115OSM   H14S12007   3.430   3.958   7.640 -1.2444 -0.6102  0.8231
  115OSM   H14T12008   3.611   4.000   7.639 -1.4296  2.1032  0.6344
  115OSM   C15S12009   3.537   3.954   7.835 -0.2305  0.1293  0.2054
  115OSM   H15S12010   3.465   3.896   7.896 -3.3704  1.8671 -1.6648
  115OSM   H15T12011   3.521   4.063   7.854 -4.6564  0.1946 -3.0059
  115OSM   C16S12012   3.675   3.923   7.890 -0.1332  0.0014  0.7262
  115OSM   H16S12013   3.754   3.974   7.830 -0.6952 -0.5478 -0.5004
  115OSM   H16T12014   3.699   3.815   7.876 -0.9208 -0.0921  0.0320
  115OSM   C17S12015   3.698   3.965   8.038 -0.6676 -0.1030  0.1738
  115OSM   H17S12016   3.671   4.070   8.062  1.3046  0.7381 -1.1720
  115OSM   H17T12017   3.808   3.953   8.053 -1.0613 -1.3239  2.2734
  115OSM   C18S12018   3.637   3.869   8.140  0.2588 -0.3889  0.1743
  115OSM   H18S12019   3.669   3.768   8.107  1.1326  0.6484 -2.2458
  115OSM   H18T12020   3.527   3.887   8.145 -0.1060 -2.5170  0.4215
  115OSM   H18U12021   3.680   3.893   8.239 -1.1477  2.3975  0.1527
  115OSM    C1F12022   4.072   3.454   6.685  0.1197 -0.7150  0.3665
  115OSM     OF12023   4.141   3.520   6.601 -0.5719  0.0405 -0.5495
  115OSM    C2F12024   4.121   3.447   6.830 -0.1120  0.4447 -0.0555
  115OSM    H2F12025   4.044   3.383   6.878 -0.3194 -0.5253 -1.6266
  115OSM    H2G12026   4.120   3.550   6.873 -0.6603  0.8445 -0.9847
  115OSM    C3F12027   4.267   3.382   6.833 -0.4300  0.2775 -0.3725
  115OSM    H3F12028   4.348   3.429   6.775 -0.1741  2.5768  1.7572
  115OSM    H3G12029   4.245   3.283   6.786 -0.7578  1.0681 -1.8997
  115OSM    C4F12030   4.329   3.352   6.977  0.5802 -0.2209  0.2468
  115OSM    H4F12031   4.355   3.447   7.030  1.3085  0.5935 -1.5279
  115OSM    H4G12032   4.427   3.307   6.953 -0.2598 -1.5111 -0.8165
  115OSM    C5F12033   4.238   3.248   7.045 -0.2460 -0.3638  0.0332
  115OSM    H5F12034   4.231   3.157   6.982  0.9576 -0.3164 -0.1892
  115OSM    H5G12035   4.138   3.295   7.056 -0.5423 -0.6661 -1.2894
  115OSM    C6F12036   4.291   3.208   7.180 -0.0455  0.1407 -0.5712
  115OSM    H6F12037   4.395   3.169   7.172 -0.3992 -1.6429  2.4337
  115OSM    H6G12038   4.238   3.119   7.221 -0.9132  0.8689 -0.0976
  115OSM    C7F12039   4.297   3.321   7.286  1.0046 -0.1284  0.0230
  115OSM    H7F12040   4.197   3.368   7.294  1.1779 -0.0578  2.2295
  115OSM    H7G12041   4.359   3.410   7.263  1.6256 -0.4746  0.3408
  115OSM    C8F12042   4.341   3.280   7.420  0.6254 -0.7808 -0.3759
  115OSM    H8F12043   4.372   3.362   7.488  0.9505 -0.9620 -0.3089
  115OSM    H8G12044   4.431   3.218   7.403  1.8016  1.1679 -1.3655
  115OSM    C9F12045   4.237   3.205   7.505 -0.1256 -0.6534 -0.1273
  115OSM    H9F12046   4.153   3.161   7.449 -1.5779  0.9845  0.7222
  115OSM   C10F12047   4.247   3.177   7.641 -0.0373  0.6703  0.0770
  115OSM   H10F12048   4.173   3.108   7.685  1.5877 -1.6754 -0.7832
  115OSM   C11F12049   4.363   3.217   7.726  0.0479 -0.0963 -0.2754
  115OSM   H11F12050   4.372   3.327   7.734 -0.0486 -0.2627  2.7228
  115OSM   H11G12051   4.460   3.171   7.698 -0.3706 -0.6558 -0.8104
  115OSM   C12F12052   4.329   3.170   7.868  0.5960  0.8564  0.4364
  115OSM   H12F12053   4.313   3.061   7.874  2.4363  0.5817  0.6449
  115OSM   H12G12054   4.237   3.226   7.896  1.4322  2.1926  0.5680
  115OSM   C13F12055   4.443   3.193   7.961  0.1889 -0.1873  0.3825
  115OSM   H13F12056   4.491   3.289   7.933 -0.9606  0.3685  0.2918
  115OSM   H13G12057   4.521   3.114   7.955  1.5043  1.0964  0.4542
  115OSM   C14F12058   4.413   3.205   8.111  0.2912 -0.3488  0.6967
  115OSM   H14F12059   4.381   3.107   8.153 -2.8422  0.0563 -0.5652
  115OSM   H14G12060   4.329   3.274   8.134  3.5806  3.1754  2.5630
  115OSM   C15F12061   4.530   3.261   8.193 -0.6760  0.4433 -0.6823
  115OSM   H15F12062   4.576   3.355   8.154  0.8496  0.1522  0.4244
  115OSM   H15G12063   4.609   3.185   8.208 -0.1691  1.3264  1.2435
  115OSM   C16F12064   4.486   3.301   8.331  0.4571 -0.8603  0.0444
  115OSM   H16F12065   4.430   3.216   8.375  1.6399 -1.9879 -0.6209
  115OSM   H16G12066   4.409   3.381   8.320  1.5829  0.3191  0.6155
  115OSM   C17F12067   4.607   3.333   8.422 -0.0197 -0.9420 -0.0101
  115OSM   H17F12068   4.663   3.424   8.391  1.1399 -1.8102 -0.4955
  115OSM   H17G12069   4.682   3.251   8.420 -0.0998 -1.0828  1.7880
  115OSM   C18F12070   4.564   3.350   8.568  0.5555  0.5996  0.4094
  115OSM   H18F12071   4.493   3.434   8.587  0.3401  0.5288 -0.0705
  115OSM   H18G12072   4.653   3.371   8.632  0.0066  0.7946  1.1138
  115OSM   H18H12073   4.534   3.252   8.610  0.2338 -0.1389 -1.5226
  116OSM      N12074   3.040   1.184   6.345  0.0540 -0.5546 -0.1351
  116OSM    C1512075   3.022   1.328   6.314 -0.2886  0.1595 -0.4643
  116OSM   H15A12076   2.998   1.388   6.402 -2.6451 -1.1753 -0.1523
  116OSM   H15B12077   2.938   1.339   6.247 -1.2814 -0.1556  0.6908
  116OSM   H15C12078   3.112   1.371   6.272  0.9503 -1.8023  0.1407
  116OSM    C1412079   3.075   1.102   6.221  0.1825  0.1122 -0.3870
  116OSM   H14A12080   3.181   1.110   6.202  0.1288 -0.1456 -0.7965
  116OSM   H14B12081   3.012   1.121   6.135  0.6743 -0.4949 -0.8823
  116OSM   H14C12082   3.049   1.000   6.245  2.3521  0.0550  1.8310
  116OSM    C1312083   3.144   1.172   6.442  0.1449  0.1375 -0.1089
  116OSM   H13A12084   3.120   1.217   6.538 -1.3176  0.5768 -0.6714
  116OSM   H13B12085   3.241   1.200   6.405 -0.6441  2.3212 -0.5488
  116OSM   H13C12086   3.158   1.069   6.474 -0.3082 -0.5911 -2.1860
  116OSM    C1212087   2.908   1.143   6.395  0.8661  0.3232 -0.1789
  116OSM   H12A12088   2.842   1.162   6.312  2.8020 -0.1443 -1.8668
  116OSM   H12B12089   2.883   1.198   6.485 -1.4095  0.0064 -0.5833
  116OSM    C1112090   2.879   0.994   6.435 -0.4892  0.0796 -0.0513
  116OSM   H11A12091   2.783   0.991   6.490  0.7624 -0.7846  2.1577
  116OSM   H11B12092   2.968   0.980   6.500  0.1013  1.3981 -0.5540
  116OSM      P12093   2.902   0.759   6.330  0.6133  0.0546  0.3063
  116OSM    O1312094   2.831   0.691   6.216  0.0349 -0.3686  0.1301
  116OSM    O1412095   3.052   0.741   6.330  0.1395  0.0830 -0.4020
  116OSM    O1112096   2.840   0.707   6.466  0.5558  0.2296 -0.3661
  116OSM    O1212097   2.879   0.914   6.318 -0.4112  0.1505 -0.5262
  116OSM    C1S12098   2.922   0.672   6.580  0.0755  0.7663  0.2122
  116OSM    H1S12099   3.032   0.678   6.567 -0.0026  1.3921 -0.1490
  116OSM    H1T12100   2.902   0.566   6.609  2.3266  0.1681 -0.3362
  116OSM     NF12101   2.979   0.738   6.816 -0.7063 -0.3044  0.1534
  116OSM    HNF12102   2.950   0.697   6.902  0.6718 -0.6383  0.4728
  116OSM    C2S12103   2.885   0.760   6.702 -0.4110 -0.1429  0.0495
  116OSM    H2S12104   2.892   0.866   6.669 -0.8373  0.3841  1.5732
  116OSM    C3S12105   2.732   0.729   6.745 -0.1382  0.2559 -0.8925
  116OSM    H3S12106   2.734   0.625   6.785 -0.1647  0.4514 -0.3782
  116OSM     O312107   2.637   0.713   6.642  0.2393 -0.0795 -0.1846
  116OSM    HO312108   2.690   0.744   6.568 -2.0707  1.7344 -1.1244
  116OSM    C4S12109   2.676   0.824   6.847 -0.0068  1.1227 -0.1397
  116OSM    H4S12110   2.710   0.796   6.948 -1.6353 -0.7101 -0.0760
  116OSM    C5S12111   2.598   0.932   6.837  0.0218  0.0991  0.1605
  116OSM    H5S12112   2.572   0.965   6.735  1.2631  0.6385 -0.0001
  116OSM    C6S12113   2.553   1.033   6.942 -0.4956 -0.6221  0.0298
  116OSM    H6S12114   2.442   1.042   6.939 -0.2371  2.7394 -1.1725
  116OSM    H6T12115   2.586   1.136   6.920 -0.7130  0.0656  2.7723
  116OSM    C7S12116   2.596   0.998   7.089 -0.4306 -0.3638  0.0439
  116OSM    H7S12117   2.707   0.999   7.078 -0.5292 -0.5775 -0.9949
  116OSM    H7T12118   2.553   0.898   7.113 -0.2919 -0.4742 -0.1720
  116OSM    C8S12119   2.547   1.088   7.204  0.4142 -0.2400  0.2955
  116OSM    H8S12120   2.442   1.058   7.225 -0.1394  0.5441 -1.2127
  116OSM    H8T12121   2.554   1.196   7.179  2.3773 -0.3935  0.1592
  116OSM    C9S12122   2.633   1.080   7.329  0.4574  0.7584  1.0232
  116OSM    H9S12123   2.722   1.143   7.305  0.9356 -0.5092 -0.5747
  116OSM    H9T12124   2.662   0.974   7.342 -2.4315 -0.2707 -0.5570
  116OSM   C10S12125   2.563   1.117   7.459  0.4747  0.1132  0.0940
  116OSM   H10S12126   2.460   1.078   7.473 -0.3451  1.7253 -1.2491
  116OSM   H10T12127   2.543   1.225   7.448 -2.4382 -0.2468  1.2238
  116OSM   C11S12128   2.658   1.109   7.576 -0.1968 -0.4701  0.7533
  116OSM   H11S12129   2.760   1.145   7.549 -0.6979  1.0457  0.8220
  116OSM   H11T12130   2.666   1.001   7.599  0.0206 -0.8212 -0.8661
  116OSM   C12S12131   2.608   1.176   7.703 -0.0752  0.3521 -0.4817
  116OSM   H12S12132   2.509   1.130   7.722 -0.5398  1.3011 -0.5392
  116OSM   H12T12133   2.599   1.287   7.712 -1.1259  0.2645 -0.3863
  116OSM   C13S12134   2.706   1.131   7.819  0.9114  0.1519  0.3533
  116OSM   H13S12135   2.809   1.135   7.778 -0.1358 -0.7465 -2.4602
  116OSM   H13T12136   2.697   1.021   7.838  2.1141  0.0851  0.5783
  116OSM   C14S12137   2.694   1.191   7.960  0.8121 -0.3998  0.2035
  116OSM   H14S12138   2.642   1.288   7.943  1.2746 -0.0335  0.8278
  116OSM   H14T12139   2.783   1.233   8.012 -1.6035  1.6106  2.8650
  116OSM   C15S12140   2.616   1.114   8.062 -0.3819 -0.8726  0.1741
  116OSM   H15S12141   2.534   1.059   8.011 -0.0392 -1.3732  0.1653
  116OSM   H15T12142   2.574   1.193   8.129  2.1616 -1.0660  2.0703
  116OSM   C16S12143   2.688   1.005   8.138  0.7564  0.6447  0.0015
  116OSM   H16S12144   2.777   1.052   8.185  1.9580 -1.0317 -0.5307
  116OSM   H16T12145   2.731   0.933   8.065  0.4688  1.8612 -1.3919
  116OSM   C17S12146   2.611   0.939   8.258  0.4207 -0.0956  0.2551
  116OSM   H17S12147   2.524   0.882   8.217  1.0074 -1.6445  1.1248
  116OSM   H17T12148   2.571   1.016   8.328  1.1182 -0.3777  0.9687
  116OSM   C18S12149   2.689   0.836   8.338 -0.1088 -0.0032  0.3637
  116OSM   H18S12150   2.716   0.890   8.431  0.6781  1.7096 -0.8445
  116OSM   H18T12151   2.787   0.823   8.287 -0.5702  0.2438 -0.5849
  116OSM   H18U12152   2.636   0.739   8.351 -0.6070  0.2486  0.1810
  116OSM    C1F12153   3.112   0.773   6.806  0.3270 -0.7311 -0.2929
  116OSM     OF12154   3.154   0.842   6.713  0.7627  0.0311  0.5009
  116OSM    C2F12155   3.201   0.714   6.908  0.0814  0.0567  0.2745
  116OSM    H2F12156   3.295   0.673   6.863  0.3926  0.4232  0.5884
  116OSM    H2G12157   3.149   0.625   6.951 -0.8188  0.4813  0.0690
  116OSM    C3F12158   3.237   0.820   7.018  0.3518 -0.3932 -0.5747
  116OSM    H3F12159   3.153   0.849   7.084  0.2346  0.2222 -0.9901
  116OSM    H3G12160   3.288   0.901   6.961  0.5612 -1.3713 -1.8162
  116OSM    C4F12161   3.347   0.766   7.107  0.0373  0.0462  0.8925
  116OSM    H4F12162   3.431   0.749   7.036  1.7353  2.0847  2.3475
  116OSM    H4G12163   3.334   0.667   7.156  1.3312 -0.2088  0.7402
  116OSM    C5F12164   3.384   0.874   7.209  0.6228  0.1538  0.3092
  116OSM    H5F12165   3.296   0.936   7.235 -0.6275 -2.0298  1.4418
  116OSM    H5G12166   3.446   0.953   7.161  1.2715  0.3190  1.4032
  116OSM    C6F12167   3.469   0.820   7.323  0.2482  0.6131  0.4016
  116OSM    H6F12168   3.528   0.731   7.289  1.3711  1.1371  0.9728
  116OSM    H6G12169   3.387   0.783   7.387  0.1481 -3.0925 -1.6829
  116OSM    C7F12170   3.553   0.917   7.399  0.7977  0.0919 -0.1980
  116OSM    H7F12171   3.502   1.015   7.406  1.0936  0.3059 -1.0635
  116OSM    H7G12172   3.637   0.924   7.327  1.5257  0.5078  0.6792
  116OSM    C8F12173   3.595   0.872   7.543  0.3230 -0.2394  0.9775
  116OSM    H8F12174   3.680   0.938   7.570  0.7968  0.0086 -1.0417
  116OSM    H8G12175   3.635   0.769   7.535  1.1033  0.0441  1.1681
  116OSM    C9F12176   3.487   0.882   7.648 -0.3027 -1.0159 -0.3360
  116OSM    H9F12177   3.387   0.862   7.605 -0.4008  0.0382 -0.6024
  116OSM   C10F12178   3.494   0.913   7.779  0.0225  0.4176  0.2154
  116OSM   H10F12179   3.395   0.925   7.826  0.3053 -1.8950  1.5099
  116OSM   C11F12180   3.619   0.946   7.856  0.4424  0.9420  0.0717
  116OSM   H11F12181   3.672   1.041   7.839 -0.7575  0.9690 -4.3166
  116OSM   H11G12182   3.697   0.875   7.820  0.0039  0.6234 -0.2637
  116OSM   C12F12183   3.615   0.932   8.010 -0.5990  0.1111 -0.0277
  116OSM   H12F12184   3.556   0.846   8.049  0.1192 -1.4395 -2.2887
  116OSM   H12G12185   3.578   1.024   8.059  0.2999  0.3110  0.3015
  116OSM   C13F12186   3.759   0.918   8.067 -0.0785 -0.7017 -0.0689
  116OSM   H13F12187   3.759   0.971   8.165  0.9487 -2.6577  1.0022
  116OSM   H13G12188   3.838   0.975   8.014 -0.8121  0.3230 -0.0811
  116OSM   C14F12189   3.821   0.776   8.084  0.0438  0.0148 -0.6627
  116OSM   H14F12190   3.831   0.741   7.979  0.7765 -0.6858 -0.3620
  116OSM   H14G12191   3.755   0.706   8.140  0.2198  0.3950  0.0303
  116OSM   C15F12192   3.959   0.775   8.138 -0.7173 -0.3840  0.3470
  116OSM   H15F12193   4.029   0.851   8.095  1.6060 -2.0906  1.0098
  116OSM   H15G12194   4.005   0.678   8.109  0.1404 -0.3879  1.7060
  116OSM   C16F12195   3.978   0.791   8.291  0.0474  0.2331 -0.0725
  116OSM   H16F12196   3.879   0.760   8.332 -0.8478  1.9468 -0.8676
  116OSM   H16G12197   3.979   0.900   8.314  0.2570  0.6216 -1.8770
  116OSM   C17F12198   4.089   0.711   8.349 -0.7348 -0.1322  0.1575
  116OSM   H17F12199   4.193   0.723   8.311 -1.0871 -1.6803 -1.3402
  116OSM   H17G12200   4.074   0.604   8.322 -0.6664 -0.5485  1.7259
  116OSM   C18F12201   4.108   0.709   8.503  0.2487 -0.3630  0.2988
  116OSM   H18F12202   4.194   0.778   8.521  0.1406  0.2482 -1.4759
  116OSM   H18G12203   4.125   0.603   8.531 -0.9336 -0.4052  0.8685
  116OSM   H18H12204   4.014   0.741   8.553  0.0221  0.0307 -0.3843
  117OSM      N12205   0.431   2.634   6.171  0.0921  0.1780 -0.7957
  117OSM    C1512206   0.289   2.686   6.154 -0.0429 -0.7350 -0.6138
  117OSM   H15A12207   0.237   2.665   6.062 -0.8710  0.5226 -0.4420
  117OSM   H15B12208   0.282   2.793   6.167 -3.3115 -1.1696  1.7677
  117OSM   H15C12209   0.232   2.653   6.239  0.5107 -2.8357 -1.0144
  117OSM    C1412210   0.427   2.489   6.165 -0.1286 -0.4582  0.2632
  117OSM   H14A12211   0.358   2.450   6.238 -3.6329  2.8180 -1.0750
  117OSM   H14B12212   0.522   2.450   6.196 -0.0068 -0.0515  0.4047
  117OSM   H14C12213   0.407   2.454   6.065 -0.0251  0.1240  0.0355
  117OSM    C1312214   0.520   2.689   6.065 -0.1459 -0.2638  0.1310
  117OSM   H13A12215   0.473   2.678   5.968 -0.8981 -0.9675  0.5650
  117OSM   H13B12216   0.618   2.644   6.062 -0.5594 -1.1400 -0.5762
  117OSM   H13C12217   0.524   2.797   6.069  2.2226 -0.2685 -1.0365
  117OSM    C1212218   0.482   2.687   6.305 -0.5049 -0.2722 -0.3703
  117OSM   H12A12219   0.412   2.667   6.385 -0.1679 -1.5475 -0.3774
  117OSM   H12B12220   0.497   2.794   6.302  0.6811 -0.4530 -1.3708
  117OSM    C1112221   0.608   2.620   6.359  0.4025  0.3118 -0.3286
  117OSM   H11A12222   0.586   2.512   6.353 -0.8874  0.5395  0.2380
  117OSM   H11B12223   0.626   2.632   6.468 -1.7113 -0.7321  0.1528
  117OSM      P12224   0.792   2.782   6.288 -0.5149 -0.0528  0.1322
  117OSM    O1312225   0.913   2.772   6.202  0.0556 -0.2077  0.2114
  117OSM    O1412226   0.690   2.886   6.251 -0.2868  0.4876 -0.1204
  117OSM    O1112227   0.837   2.789   6.435 -0.2153 -0.0956 -0.0088
  117OSM    O1212228   0.728   2.638   6.279  0.0838  0.2820 -0.2233
  117OSM    C1S12229   0.922   2.688   6.495 -0.2882  0.8263 -0.2146
  117OSM    H1S12230   1.024   2.694   6.452 -0.9890 -0.5732 -2.1319
  117OSM    H1T12231   0.873   2.590   6.475  2.3905 -0.3529 -1.1553
  117OSM     NF12232   1.024   2.603   6.711  0.4602  0.2501  0.4706
  117OSM    HNF12233   0.982   2.514   6.730  2.2179 -0.9079 -0.9690
  117OSM    C2S12234   0.930   2.703   6.655  0.1202 -0.1509  0.2785
  117OSM    H2S12235   0.978   2.801   6.672  1.0335 -0.7469  1.2168
  117OSM    C3S12236   0.783   2.700   6.715 -0.2575  0.2281  0.1251
  117OSM    H3S12237   0.736   2.601   6.698  0.5257  0.0595 -1.1210
  117OSM     O312238   0.692   2.801   6.663  0.4874 -0.1018  0.3542
  117OSM    HO312239   0.722   2.836   6.579 -1.3617 -3.3475 -1.7753
  117OSM    C4S12240   0.785   2.720   6.860 -0.2241  0.1848  0.5158
  117OSM    H4S12241   0.841   2.808   6.897  0.5547  0.0819 -0.4081
  117OSM    C5S12242   0.738   2.647   6.959  0.4801 -0.3242 -0.0832
  117OSM    H5S12243   0.694   2.550   6.930 -1.1766  0.2430  0.4886
  117OSM    C6S12244   0.751   2.672   7.107  0.3937  0.0240 -0.0205
  117OSM    H6S12245   0.677   2.613   7.166 -2.4579  0.4579 -3.0513
  117OSM    H6T12246   0.746   2.779   7.135 -0.5487  0.0388 -0.2518
  117OSM    C7S12247   0.898   2.636   7.155 -0.0074  0.1768 -0.4754
  117OSM    H7S12248   0.971   2.708   7.113  0.7313 -0.1959  0.1508
  117OSM    H7T12249   0.910   2.528   7.131 -0.8560  0.0163 -0.2063
  117OSM    C8S12250   0.902   2.650   7.306  0.3969 -0.2121 -0.6094
  117OSM    H8S12251   0.853   2.560   7.347  0.0894  0.2635  0.0813
  117OSM    H8T12252   0.859   2.746   7.342 -0.2516 -0.4045 -0.8627
  117OSM    C9S12253   1.041   2.648   7.362 -0.7889 -0.2110  0.2657
  117OSM    H9S12254   1.088   2.735   7.311 -5.9430  1.3314 -2.1432
  117OSM    H9T12255   1.101   2.565   7.318  0.6016  1.5576 -1.2762
  117OSM   C10S12256   1.061   2.674   7.513  0.1462 -0.0320  0.2421
  117OSM   H10S12257   0.998   2.762   7.536  1.9042  1.0901  0.8699
  117OSM   H10T12258   1.167   2.699   7.536  0.0547 -0.3374  1.0103
  117OSM   C11S12259   1.020   2.558   7.603  0.0865  0.7437 -0.3529
  117OSM   H11S12260   1.080   2.469   7.573 -0.7928 -0.7679  2.2318
  117OSM   H11T12261   0.913   2.529   7.594  0.7636 -1.8190 -0.7831
  117OSM   C12S12262   1.060   2.598   7.753 -0.0912 -0.2349 -0.3088
  117OSM   H12S12263   0.991   2.683   7.771 -0.2149  0.0041 -1.8134
  117OSM   H12T12264   1.160   2.645   7.747  0.2723 -0.7964  1.2959
  117OSM   C13S12265   1.039   2.506   7.877  0.1959  0.1101  0.1004
  117OSM   H13S12266   1.100   2.418   7.847 -0.3877 -0.0613 -0.5992
  117OSM   H13T12267   0.931   2.481   7.889 -0.0686  0.9678 -0.3869
  117OSM   C14S12268   1.082   2.564   8.009 -0.1352 -0.0824 -0.5422
  117OSM   H14S12269   1.189   2.593   8.005 -0.2788  0.7123  1.0006
  117OSM   H14T12270   1.076   2.487   8.088  1.3469  0.1170 -0.2222
  117OSM   C15S12271   1.006   2.682   8.063  0.1848  0.0542  0.7772
  117OSM   H15S12272   0.896   2.665   8.068  0.2647  0.0746  3.0870
  117OSM   H15T12273   1.017   2.761   7.986  1.3607 -1.1520 -0.3167
  117OSM   C16S12274   1.058   2.721   8.202  0.3972  0.2504  0.3646
  117OSM   H16S12275   1.030   2.824   8.233 -0.7945  0.3867 -1.1076
  117OSM   H16T12276   1.169   2.714   8.201  0.5306  1.8232  2.1456
  117OSM   C17S12277   1.004   2.631   8.316  0.9826  0.7913 -0.5798
  117OSM   H17S12278   1.064   2.648   8.408  1.3844 -1.0617 -0.4654
  117OSM   H17T12279   1.028   2.525   8.292  0.7038  0.3218  1.1698
  117OSM   C18S12280   0.851   2.647   8.340 -0.3375 -0.0244 -0.4269
  117OSM   H18S12281   0.794   2.663   8.245 -0.7959 -0.3890 -0.2185
  117OSM   H18T12282   0.842   2.747   8.387 -0.0508 -1.1274  2.0685
  117OSM   H18U12283   0.819   2.568   8.412  0.4434  1.1986  1.2989
  117OSM    C1F12284   1.153   2.601   6.686  0.1484  0.1617 -0.6528
  117OSM     OF12285   1.212   2.693   6.632 -0.3371 -0.3027 -0.3439
  117OSM    C2F12286   1.223   2.480   6.725 -0.3613  0.6830 -1.0995
  117OSM    H2F12287   1.243   2.409   6.643  0.0267 -0.9968  0.4158
  117OSM    H2G12288   1.162   2.422   6.798  2.0125 -1.9106 -1.1211
  117OSM    C3F12289   1.355   2.518   6.804  0.0341  0.2669 -0.1547
  117OSM    H3F12290   1.425   2.570   6.735  0.6447  0.6407  0.7336
  117OSM    H3G12291   1.409   2.428   6.841  0.2714 -0.0997 -1.3554
  117OSM    C4F12292   1.330   2.599   6.924 -0.5214 -0.3689 -0.1677
  117OSM    H4F12293   1.245   2.563   6.986 -0.8061  0.4739 -0.0673
  117OSM    H4G12294   1.319   2.705   6.894  0.2591 -0.4029 -0.5957
  117OSM    C5F12295   1.452   2.591   7.019 -0.4605 -0.0745 -0.4958
  117OSM    H5F12296   1.543   2.630   6.969  0.8448  1.2415  2.7011
  117OSM    H5G12297   1.469   2.482   7.027 -0.5714 -0.0261  0.5706
  117OSM    C6F12298   1.425   2.644   7.163  0.3360 -0.6623 -0.2451
  117OSM    H6F12299   1.338   2.598   7.214  0.1987 -0.9822 -0.7599
  117OSM    H6G12300   1.403   2.752   7.157  1.7730 -0.3480 -0.0355
  117OSM    C7F12301   1.541   2.624   7.257 -0.4189  0.0429  0.2153
  117OSM    H7F12302   1.625   2.688   7.222 -0.6022  0.5876  0.7739
  117OSM    H7G12303   1.571   2.519   7.277  1.2079  0.4812  0.1764
  117OSM    C8F12304   1.518   2.690   7.392 -0.0649  0.1701  0.0539
  117OSM    H8F12305   1.426   2.652   7.440 -0.5639  2.4311  0.9235
  117OSM    H8G12306   1.506   2.800   7.387  1.5289  0.4138  1.2431
  117OSM    C9F12307   1.635   2.661   7.484 -0.1376 -0.3724  0.0223
  117OSM    H9F12308   1.740   2.683   7.459  0.5899 -1.0708  2.3128
  117OSM   C10F12309   1.620   2.622   7.612  0.8027  0.2766  0.3527
  117OSM   H10F12310   1.713   2.618   7.672  0.2857  0.0492  1.1598
  117OSM   C11F12311   1.493   2.595   7.688 -0.2220 -0.4023 -0.2233
  117OSM   H11F12312   1.407   2.575   7.622 -1.4485  2.8607  0.2731
  117OSM   H11G12313   1.459   2.687   7.742  0.3021 -0.2002 -0.2265
  117OSM   C12F12314   1.504   2.467   7.776 -0.1200  0.5085  0.3760
  117OSM   H12F12315   1.539   2.380   7.716 -0.8739  0.5060 -0.0819
  117OSM   H12G12316   1.398   2.449   7.807 -0.0635  1.5447  1.1908
  117OSM   C13F12317   1.587   2.480   7.904  0.5542  0.0982 -0.3759
  117OSM   H13F12318   1.573   2.583   7.941 -1.9467 -0.5991  0.7290
  117OSM   H13G12319   1.690   2.477   7.862  1.1864  2.8500  0.8392
  117OSM   C14F12320   1.568   2.377   8.008 -0.8781  0.1393 -0.1204
  117OSM   H14F12321   1.643   2.390   8.089 -0.7120 -2.0923  0.1265
  117OSM   H14G12322   1.588   2.284   7.951 -1.5739 -1.0337  1.4982
  117OSM   C15F12323   1.442   2.379   8.094 -0.0614  0.2542  0.0754
  117OSM   H15F12324   1.352   2.375   8.028  1.3945 -0.4173 -1.9386
  117OSM   H15G12325   1.438   2.475   8.149 -1.4431  0.9568 -1.2010
  117OSM   C16F12326   1.436   2.277   8.214  0.2938  0.0482 -0.0364
  117OSM   H16F12327   1.527   2.293   8.277  0.9745 -2.3115 -0.3668
  117OSM   H16G12328   1.438   2.177   8.166  0.9599  1.1407 -2.3484
  117OSM   C17F12329   1.303   2.295   8.298  0.2053 -0.0027  0.3359
  117OSM   H17F12330   1.305   2.401   8.327  0.5018  0.1942 -0.3788
  117OSM   H17G12331   1.221   2.283   8.223  1.6743 -0.8190 -1.1910
  117OSM   C18F12332   1.282   2.216   8.423  0.1745 -0.0518  0.0329
  117OSM   H18F12333   1.282   2.107   8.405 -0.1158 -0.3136  1.5037
  117OSM   H18G12334   1.200   2.242   8.493  0.8830  0.5120  0.6748
  117OSM   H18H12335   1.371   2.225   8.490 -0.3434 -2.5953  1.1359
  118OSM      N12336   4.362   4.805   6.132 -0.1109  0.7036  0.0208
  118OSM    C1512337   4.339   4.851   6.270  0.7009  0.2070 -0.0851
  118OSM   H15A12338   4.329   4.958   6.282 -0.0235  0.0637  0.6334
  118OSM   H15B12339   4.412   4.824   6.346  4.2654  3.5187 -2.1516
  118OSM   H15C12340   4.242   4.817   6.303  1.5009 -1.4117  0.6789
  118OSM    C1412341   4.489   4.867   6.079 -0.5647 -0.4894  0.3080
  118OSM   H14A12342   4.483   4.851   5.972  0.2049 -0.5784  0.2711
  118OSM   H14B12343   4.581   4.821   6.111 -0.3859 -0.3023  0.0733
  118OSM   H14C12344   4.494   4.973   6.100  1.9450 -0.5071  0.0457
  118OSM    C1312345   4.365   4.649   6.133  0.9422 -0.1566 -0.1258
  118OSM   H13A12346   4.270   4.605   6.158  0.1263  0.0737 -2.7032
  118OSM   H13B12347   4.435   4.623   6.211 -1.4441  1.3231  2.6036
  118OSM   H13C12348   4.404   4.618   6.037  1.0720 -0.6731  0.0940
  118OSM    C1212349   4.253   4.852   6.040  0.4428 -0.2253  0.4349
  118OSM   H12A12350   4.274   4.838   5.935 -0.4086 -2.6731  0.5483
  118OSM   H12B12351   4.248   4.959   6.052 -2.6280 -0.1507 -0.9583
  118OSM    C1112352   4.110   4.802   6.061 -0.0649  0.1404  0.0003
  118OSM   H11A12353   4.109   4.692   6.046  0.3318 -0.1048  1.6449
  118OSM   H11B12354   4.040   4.842   5.984  1.3143  1.3205 -0.6493
  118OSM      P12355   3.964   4.940   6.228  0.2363 -0.1266  0.2442
  118OSM    O1312356   4.037   5.068   6.211 -0.1818 -0.1021  0.2779
  118OSM    O1412357   3.849   4.934   6.135 -0.1983 -0.3389 -0.1715
  118OSM    O1112358   3.915   4.920   6.374 -0.0838  0.2310  0.1026
  118OSM    O1212359   4.067   4.827   6.194 -0.1110 -0.4606  0.8112
  118OSM    C1S12360   3.988   4.858   6.475  0.0388  0.0784  0.5950
  118OSM    H1S12361   4.089   4.826   6.443 -0.7620 -0.8455 -1.0896
  118OSM    H1T12362   3.932   4.766   6.502  2.0843 -0.9480  1.4477
  118OSM     NF12363   4.115   4.884   6.687  0.1571 -0.0619  0.1262
  118OSM    HNF12364   4.091   4.842   6.775  1.5901  0.0480  0.5855
  118OSM    C2S12365   4.000   4.937   6.605 -0.0874 -0.2079 -0.0855
  118OSM    H2S12366   4.031   5.042   6.586 -0.8178 -0.1311 -0.8732
  118OSM    C3S12367   3.863   4.939   6.681  0.4661 -0.3271  0.7463
  118OSM    H3S12368   3.836   4.833   6.699 -0.1047 -0.5932 -1.4885
  118OSM     O312369   3.755   5.004   6.610  0.2608 -0.0228 -0.3604
  118OSM    HO312370   3.783   4.996   6.519  1.0723 -0.4360 -0.0831
  118OSM    C4S12371   3.879   5.003   6.822 -0.2372  0.3362 -0.1770
  118OSM    H4S12372   3.887   5.113   6.818  1.4963  0.1853 -1.8245
  118OSM    C5S12373   3.868   4.931   6.931  0.2447  0.6886 -0.1007
  118OSM    H5S12374   3.840   4.825   6.923  0.7792  0.4596  0.9951
  118OSM    C6S12375   3.866   4.974   7.078  0.4763 -0.0772  0.9880
  118OSM    H6S12376   3.940   4.904   7.122  2.4729  1.6746  0.5045
  118OSM    H6T12377   3.768   4.952   7.125  0.1093  0.1902  0.3430
  118OSM    C7S12378   3.907   5.115   7.112  0.2713  0.0742  0.8185
  118OSM    H7S12379   3.829   5.186   7.078  0.0298 -0.6063 -0.0492
  118OSM    H7T12380   4.000   5.144   7.058  0.7334 -0.1168  1.4982
  118OSM    C8S12381   3.950   5.132   7.256  0.1230 -0.0029  0.0050
  118OSM    H8S12382   4.011   5.224   7.271 -0.1886  0.8088 -3.2943
  118OSM    H8T12383   4.006   5.040   7.282 -0.1903 -0.1093  0.3024
  118OSM    C9S12384   3.831   5.143   7.352 -0.8164 -0.3830 -0.2152
  118OSM    H9S12385   3.746   5.198   7.305  0.2355  3.3196  1.9591
  118OSM    H9T12386   3.862   5.208   7.438 -0.0068  0.1236 -0.8834
  118OSM   C10S12387   3.782   5.020   7.424  0.0608 -0.4863 -0.3906
  118OSM   H10S12388   3.858   4.938   7.426  0.2970 -0.2913 -1.0579
  118OSM   H10T12389   3.687   4.981   7.381  0.3959 -0.4307 -1.1908
  118OSM   C11S12390   3.741   5.060   7.562  0.0968  0.1251  0.2379
  118OSM   H11S12391   3.657   5.132   7.552  0.3467  0.1608 -1.8305
  118OSM   H11T12392   3.826   5.100   7.622 -0.1421  2.9289 -1.2063
  118OSM   C12S12393   3.691   4.947   7.652  1.0127 -0.0897 -0.0493
  118OSM   H12S12394   3.755   4.857   7.647  1.8695  0.2986  3.0711
  118OSM   H12T12395   3.589   4.910   7.625  1.3772 -0.1988 -1.2839
  118OSM   C13S12396   3.690   4.972   7.808  0.0584 -0.3284  0.0774
  118OSM   H13S12397   3.633   5.066   7.823 -0.2835 -0.4982 -0.1678
  118OSM   H13T12398   3.797   4.979   7.840  0.4968  1.3156 -1.6206
  118OSM   C14S12399   3.629   4.859   7.896 -0.1839 -0.0572  0.3642
  118OSM   H14S12400   3.679   4.765   7.867 -0.9947  0.6824 -3.8520
  118OSM   H14T12401   3.524   4.851   7.860 -0.3511 -2.1309  1.2538
  118OSM   C15S12402   3.640   4.872   8.049  0.0882 -0.2636  0.2921
  118OSM   H15S12403   3.748   4.862   8.074  0.4568  2.9508  0.1900
  118OSM   H15T12404   3.592   4.785   8.100 -0.8838  0.3560  0.4493
  118OSM   C16S12405   3.577   5.001   8.087 -0.0830  0.4337 -0.9913
  118OSM   H16S12406   3.468   5.000   8.064 -0.0946 -0.0628 -0.9124
  118OSM   H16T12407   3.618   5.090   8.036  2.1223 -0.8290 -1.4917
  118OSM   C17S12408   3.589   5.014   8.243 -0.1932 -0.5431  0.5973
  118OSM   H17S12409   3.554   4.919   8.289  1.1072 -0.7293  1.2281
  118OSM   H17T12410   3.518   5.092   8.279  0.0472  0.1339 -0.3689
  118OSM   C18S12411   3.733   5.051   8.294 -0.0553  0.3428  0.8631
  118OSM   H18S12412   3.795   4.962   8.269 -2.4968 -1.2271  0.2776
  118OSM   H18T12413   3.726   5.077   8.402  0.2812 -0.4097  1.0731
  118OSM   H18U12414   3.773   5.138   8.238  0.1924  0.0059  0.5124
  118OSM    C1F12415   4.251   4.890   6.661 -0.0683  0.7498  0.4240
  118OSM     OF12416   4.302   4.931   6.558 -0.3749  0.8841  0.0224
  118OSM    C2F12417   4.332   4.822   6.766 -0.2616  0.4619  0.4453
  118OSM    H2F12418   4.416   4.770   6.715  1.9986  3.4349  0.9412
  118OSM    H2G12419   4.274   4.733   6.796  2.3394 -1.2657  0.4728
  118OSM    C3F12420   4.385   4.904   6.876  0.4622 -0.6795 -0.3560
  118OSM    H3F12421   4.407   5.004   6.833  1.3968 -0.1581  1.3000
  118OSM    H3G12422   4.483   4.867   6.913  0.4843  0.7740  1.1326
  118OSM    C4F12423   4.304   4.921   7.004 -0.4197 -0.1094 -0.7925
  118OSM    H4F12424   4.302   4.822   7.055 -1.4473 -0.4336 -1.4554
  118OSM    H4G12425   4.199   4.956   6.994 -0.2428  1.1351  1.4137
  118OSM    C5F12426   4.369   5.011   7.107 -0.3143 -0.5596 -0.9853
  118OSM    H5F12427   4.406   5.095   7.045  0.2624  1.2748  1.7702
  118OSM    H5G12428   4.458   4.966   7.156 -1.0198 -0.0546  0.7932
  118OSM    C6F12429   4.270   5.057   7.215 -0.5019  0.1530 -0.3470
  118OSM    H6F12430   4.208   4.968   7.239  1.7509 -1.4572 -0.3983
  118OSM    H6G12431   4.209   5.143   7.180 -1.7596  0.3813  2.2892
  118OSM    C7F12432   4.342   5.090   7.346  0.0132  0.0433  0.4878
  118OSM    H7F12433   4.378   5.191   7.319 -1.9130  0.3981 -0.8610
  118OSM    H7G12434   4.426   5.020   7.364  1.3107  1.2741 -0.7475
  118OSM    C8F12435   4.251   5.091   7.472  0.3353  0.1910  0.1798
  118OSM    H8F12436   4.306   5.051   7.560  0.2032  1.5103  0.8694
  118OSM    H8G12437   4.174   5.014   7.451  0.7256  0.2354 -1.5208
  118OSM    C9F12438   4.192   5.227   7.493  0.5065  0.0228  0.8267
  118OSM    H9F12439   4.161   5.276   7.399  1.4959 -1.2894 -0.2080
  118OSM   C10F12440   4.160   5.287   7.608 -0.3529 -0.5337 -0.7319
  118OSM   H10F12441   4.093   5.374   7.616 -1.3681 -1.4146  0.6594
  118OSM   C11F12442   4.188   5.218   7.739 -0.3447  0.0117  0.3617
  118OSM   H11F12443   4.189   5.285   7.827  1.9848  0.5584 -0.0726
  118OSM   H11G12444   4.291   5.177   7.737  0.1397  1.1418  1.6938
  118OSM   C12F12445   4.086   5.106   7.776 -0.9317  0.6016  0.3550
  118OSM   H12F12446   4.086   5.034   7.692  1.8150  1.4418 -0.4116
  118OSM   H12G12447   3.983   5.149   7.783 -1.8731 -1.8084  1.9198
  118OSM   C13F12448   4.131   5.043   7.899  0.3261  0.2770 -0.5287
  118OSM   H13F12449   4.233   4.999   7.894  1.8745  3.4657  1.3852
  118OSM   H13G12450   4.049   4.972   7.924  1.1665 -0.2456  0.7827
  118OSM   C14F12451   4.128   5.126   8.027 -0.1013 -0.9391  0.1592
  118OSM   H14F12452   4.034   5.186   8.027 -1.6616 -3.2915 -1.8492
  118OSM   H14G12453   4.228   5.174   8.030 -0.0767 -1.0322  1.1790
  118OSM   C15F12454   4.124   5.037   8.146  0.1182 -0.1605  0.0136
  118OSM   H15F12455   4.198   4.954   8.139 -0.1768 -0.3099 -1.4601
  118OSM   H15G12456   4.022   4.995   8.154  0.1263 -0.1476  0.1745
  118OSM   C16F12457   4.144   5.116   8.277  0.7725  0.0196  0.2756
  118OSM   H16F12458   4.063   5.191   8.287  0.5191 -0.0833 -1.0078
  118OSM   H16G12459   4.239   5.172   8.270  1.7914 -1.8050 -1.0282
  118OSM   C17F12460   4.143   5.022   8.403  0.2729  0.1367  0.4024
  118OSM   H17F12461   4.203   4.929   8.393  0.9728  0.3925  2.0535
  118OSM   H17G12462   4.038   4.993   8.424  0.3111  2.1448  3.7725
  118OSM   C18F12463   4.204   5.089   8.530 -0.7396  0.0041  0.0222
  118OSM   H18F12464   4.169   5.194   8.527 -0.4520  0.0726 -1.4711
  118OSM   H18G12465   4.315   5.079   8.524 -0.8801 -0.5102 -2.5424
  118OSM   H18H12466   4.178   5.030   8.620  1.4177  0.3431  0.9031
  119OSM      N12467   6.653   4.597   5.879 -0.3524  0.1260 -0.0864
  119OSM    C1512468   6.641   4.483   5.779 -0.2704  0.2385  0.4971
  119OSM   H15A12469   6.669   4.388   5.822  1.2494  0.4202 -0.0532
  119OSM   H15B12470   6.706   4.488   5.693 -0.9174  1.5725  0.0712
  119OSM   H15C12471   6.536   4.475   5.757 -0.1494  0.4351 -0.1895
  119OSM    C1412472   6.786   4.607   5.939 -0.2522  0.5313 -0.0496
  119OSM   H14A12473   6.812   4.685   6.008  2.4874 -1.2298  1.0229
  119OSM   H14B12474   6.869   4.625   5.872  0.8639  2.0935  1.7232
  119OSM   H14C12475   6.801   4.524   6.006 -2.0389  0.0532 -0.2117
  119OSM    C1312476   6.630   4.723   5.801  0.0900  0.2910  0.3954
  119OSM   H13A12477   6.651   4.809   5.862  1.2314  0.4943 -0.2623
  119OSM   H13B12478   6.526   4.745   5.781 -0.2078  1.9956  3.4478
  119OSM   H13C12479   6.687   4.738   5.710  0.9595 -0.6499  0.7809
  119OSM    C1212480   6.552   4.590   5.992  0.3928  1.0973  0.0352
  119OSM   H12A12481   6.550   4.687   6.040  1.3291  0.1538  2.0330
  119OSM   H12B12482   6.592   4.522   6.065 -0.3946 -0.6077 -1.0887
  119OSM    C1112483   6.405   4.557   5.969 -0.4711 -0.5490 -1.4007
  119OSM   H11A12484   6.377   4.612   5.877 -1.9199  1.9673  0.4727
  119OSM   H11B12485   6.343   4.598   6.052  1.4177 -0.8917  0.2295
  119OSM      P12486   6.229   4.378   5.916  0.1968  0.1299  0.4375
  119OSM    O1312487   6.172   4.453   5.804 -0.2261 -0.8791 -0.0001
  119OSM    O1412488   6.226   4.233   5.910  0.1238  0.1052  0.1532
  119OSM    O1112489   6.149   4.431   6.033 -0.0835  0.3225  0.2856
  119OSM    O1212490   6.380   4.412   5.948 -0.1064 -0.2976 -0.2060
  119OSM    C1S12491   6.167   4.381   6.167 -0.0634 -0.2535  0.3769
  119OSM    H1S12492   6.269   4.394   6.210  0.4965  0.1776 -1.0313
  119OSM    H1T12493   6.140   4.274   6.174 -0.3119 -0.2421 -0.3418
  119OSM     NF12494   6.108   4.442   6.395  0.4603  0.5561 -0.2396
  119OSM    HNF12495   6.087   4.360   6.446  1.4123 -0.1081 -0.8803
  119OSM    C2S12496   6.065   4.465   6.260 -0.1641 -0.3259 -0.3549
  119OSM    H2S12497   6.079   4.573   6.241 -0.7696 -0.4086 -1.3022
  119OSM    C3S12498   5.921   4.412   6.230  0.5189  0.1689  0.3323
  119OSM    H3S12499   5.923   4.302   6.249  0.1756 -0.1733 -1.4725
  119OSM     O312500   5.885   4.413   6.089  0.1339  0.5864  0.3242
  119OSM    HO312501   5.973   4.420   6.052  0.8502  0.6454  2.0047
  119OSM    C4S12502   5.824   4.486   6.319  0.0759  0.2255  0.2896
  119OSM    H4S12503   5.809   4.592   6.293  0.3476  0.2013  0.0385
  119OSM    C5S12504   5.764   4.423   6.423  0.4278  0.0751 -0.9548
  119OSM    H5S12505   5.777   4.315   6.440 -0.6698 -0.0345 -0.7554
  119OSM    C6S12506   5.669   4.489   6.530  0.1206  0.5982  0.2928
  119OSM    H6S12507   5.566   4.455   6.509  0.4029  0.1959 -0.4505
  119OSM    H6T12508   5.676   4.600   6.536  1.5310  0.4101  3.2465
  119OSM    C7S12509   5.721   4.421   6.665  0.6694  0.0303  0.4066
  119OSM    H7S12510   5.825   4.446   6.693  1.2093 -0.4904 -1.1089
  119OSM    H7T12511   5.722   4.311   6.646  2.0847 -0.2450  1.9090
  119OSM    C8S12512   5.633   4.479   6.775  0.1659 -0.4039  0.6205
  119OSM    H8S12513   5.526   4.486   6.750  0.3322 -0.7340 -0.1724
  119OSM    H8T12514   5.648   4.588   6.793 -5.1390  0.4964  0.3717
  119OSM    C9S12515   5.646   4.401   6.914 -0.1489 -0.8380  0.0853
  119OSM    H9S12516   5.750   4.395   6.952 -1.3445  1.5151  4.0385
  119OSM    H9T12517   5.609   4.296   6.907 -1.3388 -0.5585  1.8998
  119OSM   C10S12518   5.573   4.476   7.025  0.2104  0.0026 -0.5400
  119OSM   H10S12519   5.466   4.492   7.000  0.7704  1.0161 -2.4076
  119OSM   H10T12520   5.625   4.574   7.034 -1.1082  0.6756  0.0048
  119OSM   C11S12521   5.563   4.388   7.151  0.6917 -0.2177 -0.0550
  119OSM   H11S12522   5.539   4.283   7.124  1.1401 -0.1576 -0.7068
  119OSM   H11T12523   5.474   4.406   7.215  1.5571 -1.4116  1.5062
  119OSM   C12S12524   5.679   4.422   7.251  0.1398 -0.6442  0.2669
  119OSM   H12S12525   5.677   4.533   7.255  1.9524 -0.4901 -1.9464
  119OSM   H12T12526   5.777   4.398   7.206  1.5785  1.5405  2.1064
  119OSM   C13S12527   5.665   4.368   7.382  0.3891 -0.6088 -0.5014
  119OSM   H13S12528   5.697   4.263   7.398  3.6045  0.7761  2.6784
  119OSM   H13T12529   5.557   4.378   7.406  0.0113 -0.8734 -2.0302
  119OSM   C14S12530   5.737   4.462   7.484 -0.0584 -0.5022  0.8711
  119OSM   H14S12531   5.710   4.567   7.462 -0.2439 -0.8429 -0.6297
  119OSM   H14T12532   5.843   4.432   7.468  0.1679  0.2393  0.9552
  119OSM   C15S12533   5.688   4.423   7.622 -0.2955 -1.1302  0.8385
  119OSM   H15S12534   5.715   4.316   7.636 -1.0558 -1.5538 -0.9263
  119OSM   H15T12535   5.577   4.430   7.622 -0.1903  0.6465  0.8887
  119OSM   C16S12536   5.738   4.497   7.746 -0.8828 -0.3348  0.2424
  119OSM   H16S12537   5.721   4.607   7.747  1.1666  0.1260 -4.4458
  119OSM   H16T12538   5.846   4.476   7.737 -0.2532  2.8123 -0.2649
  119OSM   C17S12539   5.677   4.454   7.879 -0.2241  0.7752  0.2114
  119OSM   H17S12540   5.673   4.343   7.883 -1.7330  0.8273  0.4585
  119OSM   H17T12541   5.571   4.484   7.874 -1.0543 -2.2041 -1.4067
  119OSM   C18S12542   5.743   4.519   8.000  0.6533 -0.0076 -0.5203
  119OSM   H18S12543   5.843   4.473   8.014  1.2230  1.2655 -0.3430
  119OSM   H18T12544   5.680   4.509   8.091  2.3707 -0.3450  0.6524
  119OSM   H18U12545   5.758   4.628   7.980  1.5386 -0.4181 -2.1545
  119OSM    C1F12546   6.211   4.514   6.449  0.0637 -0.3077 -0.4117
  119OSM     OF12547   6.276   4.592   6.381 -0.2691  0.1429  0.4213
  119OSM    C2F12548   6.244   4.502   6.593  0.5869  0.4921  0.4623
  119OSM    H2F12549   6.310   4.413   6.607 -0.6557 -0.1807  2.1817
  119OSM    H2G12550   6.145   4.483   6.640  0.4284  2.5027  0.9787
  119OSM    C3F12551   6.304   4.628   6.655 -0.8773  0.0554  0.2373
  119OSM    H3F12552   6.222   4.702   6.650 -0.3621  0.5969 -0.1876
  119OSM    H3G12553   6.387   4.678   6.603 -1.9386  1.5130 -0.0906
  119OSM    C4F12554   6.340   4.604   6.798  0.0401  0.1767  0.1576
  119OSM    H4F12555   6.408   4.682   6.840  1.1355 -0.3471 -0.6494
  119OSM    H4G12556   6.388   4.506   6.818 -0.2092 -0.5150 -2.4938
  119OSM    C5F12557   6.219   4.607   6.903 -0.1704 -0.7821 -0.0748
  119OSM    H5F12558   6.147   4.528   6.872 -1.2870  0.0665  0.3318
  119OSM    H5G12559   6.183   4.711   6.888 -0.6882 -0.7845  1.0481
  119OSM    C6F12560   6.257   4.568   7.046 -0.3232  0.0839 -1.0051
  119OSM    H6F12561   6.337   4.640   7.075 -0.4722  0.2711 -1.0614
  119OSM    H6G12562   6.304   4.468   7.058 -1.3817 -0.3068 -0.1429
  119OSM    C7F12563   6.139   4.594   7.142 -0.2393  0.6954  0.1111
  119OSM    H7F12564   6.063   4.520   7.109  0.2730 -0.2527  1.0055
  119OSM    H7G12565   6.090   4.694   7.138  0.3630  0.9998  0.2852
  119OSM    C8F12566   6.166   4.570   7.299  0.0185 -0.7365  0.4731
  119OSM    H8F12567   6.209   4.470   7.318  0.3962 -0.9626 -1.4751
  119OSM    H8G12568   6.064   4.577   7.343  0.1383  0.4897  0.5691
  119OSM    C9F12569   6.252   4.682   7.352 -0.0130  0.0454 -0.3581
  119OSM    H9F12570   6.293   4.755   7.280  0.1474  1.2543  0.9362
  119OSM   C10F12571   6.268   4.690   7.488 -0.2534  0.2585  0.7136
  119OSM   H10F12572   6.331   4.768   7.535  1.9307 -0.7960 -0.3782
  119OSM   C11F12573   6.210   4.589   7.585 -0.7857 -0.1105  0.1370
  119OSM   H11F12574   6.296   4.536   7.633 -0.8305  0.3834  0.7650
  119OSM   H11G12575   6.159   4.501   7.539 -1.1780 -0.1809  0.7138
  119OSM   C12F12576   6.121   4.635   7.694  0.2932  0.4769  0.9191
  119OSM   H12F12577   6.074   4.545   7.740 -0.9834 -0.5999 -2.3489
  119OSM   H12G12578   6.038   4.681   7.636  1.4002  0.3109 -0.8318
  119OSM   C13F12579   6.172   4.723   7.804  0.6134 -0.0181  0.0074
  119OSM   H13F12580   6.222   4.811   7.758  0.9881  0.1239  0.6813
  119OSM   H13G12581   6.247   4.666   7.863  1.4017  0.9255 -0.0665
  119OSM   C14F12582   6.059   4.757   7.903  0.0073  0.2729  0.5367
  119OSM   H14F12583   6.023   4.666   7.956 -3.6283  1.3100  0.0308
  119OSM   H14G12584   5.972   4.803   7.851 -2.8805 -2.4334  2.7588
  119OSM   C15F12585   6.108   4.868   7.996 -0.0157  0.0591 -0.7498
  119OSM   H15F12586   6.030   4.870   8.076  1.3271 -1.6863  0.6354
  119OSM   H15G12587   6.089   4.961   7.939  2.9734  0.3514 -1.3097
  119OSM   C16F12588   6.247   4.862   8.044  0.1416  0.3631 -0.5177
  119OSM   H16F12589   6.306   4.864   7.950  0.6799  0.6532 -0.1763
  119OSM   H16G12590   6.281   4.772   8.099  0.7911  0.6867 -0.3854
  119OSM   C17F12591   6.283   4.965   8.154  0.2719  0.2956 -0.6392
  119OSM   H17F12592   6.392   4.954   8.175  0.2441  0.5832 -0.3438
  119OSM   H17G12593   6.240   4.922   8.247  1.9920 -1.5612 -0.6750
  119OSM   C18F12594   6.240   5.110   8.128  0.2856  0.0254  0.1458
  119OSM   H18F12595   6.136   5.108   8.091  0.3519 -1.1794  0.0150
  119OSM   H18G12596   6.307   5.157   8.053 -0.2765  0.3817 -0.1285
  119OSM   H18H12597   6.231   5.171   8.220  1.4297  0.4460 -0.0064
  120OSM      N12598   2.971   2.046   6.590  0.4689 -0.5633 -0.2037
  120OSM    C1512599   3.041   2.144   6.508 -0.3235 -0.1930 -0.4241
  120OSM   H15A12600   3.122   2.201   6.551 -0.2131 -0.5590 -0.1497
  120OSM   H15B12601   2.970   2.218   6.473 -1.6806 -0.6771  1.2539
  120OSM   H15C12602   3.082   2.091   6.423 -1.7730 -1.7287 -0.1914
  120OSM    C1412603   3.074   1.943   6.640 -0.0266  0.1563 -0.2660
  120OSM   H14A12604   3.036   1.900   6.732  0.3734 -0.6834 -0.4878
  120OSM   H14B12605   3.162   1.999   6.670  0.4001 -0.6737  0.0553
  120OSM   H14C12606   3.100   1.871   6.564 -1.6642 -2.5872  1.6646
  120OSM    C1312607   2.929   2.111   6.722 -0.3435  0.0823  0.5160
  120OSM   H13A12608   3.003   2.184   6.752 -0.1690 -0.4185  1.2933
  120OSM   H13B12609   2.922   2.032   6.795 -1.9507 -1.7032 -1.5051
  120OSM   H13C12610   2.835   2.161   6.706  0.9594  2.0396 -1.3710
  120OSM    C1212611   2.861   1.979   6.514  0.3620 -0.1558 -0.6295
  120OSM   H12A12612   2.786   2.050   6.481 -0.9466 -1.3585 -0.2798
  120OSM   H12B12613   2.806   1.923   6.589  1.0099 -0.0747 -0.0928
  120OSM    C1112614   2.906   1.892   6.401 -0.1700 -0.1857 -0.4343
  120OSM   H11A12615   2.993   1.946   6.359  0.4978 -0.1727  0.9433
  120OSM   H11B12616   2.824   1.883   6.326  0.2478  1.0567 -1.0497
  120OSM      P12617   2.846   1.664   6.478  0.0054 -0.6035  0.3042
  120OSM    O1312618   2.747   1.724   6.570  0.5938 -0.5019  0.2292
  120OSM    O1412619   2.796   1.622   6.345  0.0183 -0.3401  0.3093
  120OSM    O1112620   2.921   1.540   6.547 -0.4039 -0.2414  0.1108
  120OSM    O1212621   2.962   1.770   6.443  0.1753  1.0985  0.4528
  120OSM    C1S12622   3.041   1.552   6.622 -0.6069 -0.2560 -0.3080
  120OSM    H1S12623   3.068   1.657   6.645 -5.2223  1.1022 -0.5704
  120OSM    H1T12624   3.120   1.489   6.576  0.7685 -0.5589  2.4140
  120OSM     NF12625   3.135   1.493   6.856  0.4138  0.4963 -0.3656
  120OSM    HNF12626   3.171   1.403   6.880  0.8835  0.8068  0.1165
  120OSM    C2S12627   3.018   1.488   6.768  0.1994  0.3974 -0.8680
  120OSM    H2S12628   2.934   1.546   6.813 -1.1513 -1.1467 -1.3507
  120OSM    C3S12629   2.955   1.351   6.752 -0.7207 -0.4746  0.0324
  120OSM    H3S12630   3.024   1.293   6.686 -1.2031 -1.1748  0.1369
  120OSM     O312631   2.838   1.341   6.668  0.5920  0.1524 -0.2266
  120OSM    HO312632   2.839   1.427   6.624 -2.0540  0.1616 -0.3095
  120OSM    C4S12633   2.925   1.293   6.892  0.1920  0.0410 -0.4452
  120OSM    H4S12634   2.850   1.357   6.941 -0.4524 -1.8886  1.1850
  120OSM    C5S12635   2.982   1.191   6.961 -0.0711  0.0295 -0.2423
  120OSM    H5S12636   3.064   1.128   6.920 -1.1029 -0.4316 -1.6457
  120OSM    C6S12637   2.948   1.140   7.095  0.1580 -0.3054 -0.6955
  120OSM    H6S12638   2.912   1.036   7.081  0.6022 -0.9264  2.3124
  120OSM    H6T12639   2.861   1.194   7.139  0.8980  0.3475 -0.0205
  120OSM    C7S12640   3.065   1.151   7.189 -0.5315 -0.6272  1.0204
  120OSM    H7S12641   3.109   1.251   7.167 -1.1343 -0.6123 -0.1960
  120OSM    H7T12642   3.138   1.076   7.150 -1.1441 -0.7103  0.0210
  120OSM    C8S12643   3.032   1.121   7.334  0.1499 -0.4313 -0.0535
  120OSM    H8S12644   3.024   1.014   7.364  1.8296 -0.6009 -0.1254
  120OSM    H8T12645   2.935   1.169   7.359 -0.9360 -2.1341 -0.9075
  120OSM    C9S12646   3.139   1.179   7.438 -0.0852 -0.4166 -0.5258
  120OSM    H9S12647   3.155   1.283   7.401 -2.1831  1.0469  2.5019
  120OSM    H9T12648   3.241   1.136   7.434 -1.2334 -3.1897 -0.8305
  120OSM   C10S12649   3.083   1.183   7.578 -0.0978  0.3926 -0.1496
  120OSM   H10S12650   3.033   1.085   7.595  0.6599 -0.3659 -2.1275
  120OSM   H10T12651   2.998   1.254   7.594 -0.3775 -0.3799  1.8464
  120OSM   C11S12652   3.192   1.216   7.681  0.4851 -0.0953  0.6041
  120OSM   H11S12653   3.227   1.321   7.666 -2.5815  0.8809 -0.0523
  120OSM   H11T12654   3.280   1.153   7.657  0.2564 -0.4522  0.7003
  120OSM   C12S12655   3.129   1.201   7.818  0.4694  0.1357 -0.2958
  120OSM   H12S12656   3.096   1.095   7.823  0.4214  0.1732  0.2492
  120OSM   H12T12657   3.039   1.263   7.838 -0.0487 -0.9095  0.6547
  120OSM   C13S12658   3.236   1.220   7.927 -0.2315  0.5894 -0.3694
  120OSM   H13S12659   3.276   1.323   7.918  0.5639  0.0831 -2.8970
  120OSM   H13T12660   3.316   1.146   7.908 -0.3173  0.0963  1.0538
  120OSM   C14S12661   3.185   1.198   8.069  0.7196 -0.0956 -0.3274
  120OSM   H14S12662   3.143   1.096   8.083 -0.1576  0.3146  0.0593
  120OSM   H14T12663   3.098   1.267   8.073  0.7123 -0.0744 -0.8866
  120OSM   C15S12664   3.291   1.220   8.177  0.0790  0.0874  0.7096
  120OSM   H15S12665   3.356   1.304   8.144  0.8955 -1.3635 -1.5198
  120OSM   H15T12666   3.358   1.131   8.177  0.3119  0.2630  0.8916
  120OSM   C16S12667   3.215   1.239   8.314  0.1410 -0.0349 -0.5644
  120OSM   H16S12668   3.290   1.234   8.395  2.1354  5.2625 -1.8834
  120OSM   H16T12669   3.135   1.163   8.324  1.7990 -1.5734  1.4861
  120OSM   C17S12670   3.148   1.381   8.320  0.4188  0.2703  0.5490
  120OSM   H17S12671   3.099   1.407   8.223 -1.2741  1.0988  1.5907
  120OSM   H17T12672   3.236   1.446   8.340  0.1475  1.6698 -2.5292
  120OSM   C18S12673   3.051   1.385   8.437 -0.4440  0.2607 -0.7676
  120OSM   H18S12674   3.101   1.355   8.531  1.4547 -0.0878 -1.8620
  120OSM   H18T12675   2.957   1.337   8.404 -0.8101  1.0300 -0.8756
  120OSM   H18U12676   3.018   1.488   8.464 -2.4698 -0.2111 -1.3632
  120OSM    C1F12677   3.187   1.608   6.904  0.1117  0.2150  0.2323
  120OSM     OF12678   3.129   1.709   6.878  0.5187 -0.3110 -0.2736
  120OSM    C2F12679   3.301   1.609   6.996  0.4010  0.3092 -0.0302
  120OSM    H2F12680   3.351   1.511   6.984 -2.2325 -0.8613 -1.7605
  120OSM    H2G12681   3.270   1.612   7.103 -0.4516  3.9277 -0.3219
  120OSM    C3F12682   3.400   1.726   6.979  0.2348  0.5736 -0.0637
  120OSM    H3F12683   3.334   1.814   6.993 -1.6584 -0.9237  0.6068
  120OSM    H3G12684   3.446   1.735   6.878 -1.3734  2.1343 -0.6979
  120OSM    C4F12685   3.499   1.730   7.099  0.0269 -0.1905 -0.4777
  120OSM    H4F12686   3.575   1.810   7.088 -0.3372 -0.2062 -3.3322
  120OSM    H4G12687   3.557   1.635   7.094  0.0091 -0.2963  0.9426
  120OSM    C5F12688   3.439   1.739   7.244  0.7953  0.2152  0.0289
  120OSM    H5F12689   3.451   1.642   7.297  0.2826  0.5041  0.6696
  120OSM    H5G12690   3.330   1.752   7.226  0.9666  0.0117 -1.2599
  120OSM    C6F12691   3.482   1.853   7.328 -0.7660  0.2350 -0.0964
  120OSM    H6F12692   3.470   1.944   7.266  2.8550  1.3822  0.7543
  120OSM    H6G12693   3.591   1.843   7.348 -1.3515  0.4024  3.5099
  120OSM    C7F12694   3.399   1.877   7.451  0.0063  0.3288  0.5775
  120OSM    H7F12695   3.409   1.788   7.517 -2.3736 -0.7201 -0.4526
  120OSM    H7G12696   3.293   1.889   7.423  0.3418  0.7477 -0.5236
  120OSM    C8F12697   3.448   1.995   7.537  0.5688 -0.1182  0.4380
  120OSM    H8F12698   3.397   2.005   7.636 -1.5851 -2.3147 -0.3854
  120OSM    H8G12699   3.426   2.087   7.478  1.7363  0.3819  0.7867
  120OSM    C9F12700   3.596   2.006   7.555 -0.6665 -0.5131 -0.4042
  120OSM    H9F12701   3.656   2.049   7.473  0.8565 -0.5774  0.6565
  120OSM   C10F12702   3.669   1.967   7.661  0.0078 -0.1140 -0.0178
  120OSM   H10F12703   3.778   1.981   7.653 -0.0607 -0.3247 -1.3916
  120OSM   C11F12704   3.613   1.911   7.791 -0.7795  0.1421 -0.2968
  120OSM   H11F12705   3.672   1.831   7.840 -2.1676 -0.3977  0.5326
  120OSM   H11G12706   3.512   1.865   7.778 -0.3188 -0.3346 -2.3393
  120OSM   C12F12707   3.590   2.032   7.886  0.4007  0.3431  0.5588
  120OSM   H12F12708   3.522   2.094   7.824 -3.0487 -4.5421 -0.8147
  120OSM   H12G12709   3.685   2.086   7.906  0.8098  0.2964 -1.1810
  120OSM   C13F12710   3.519   1.987   8.023 -0.0153 -0.9128 -0.0677
  120OSM   H13F12711   3.449   1.903   8.004 -0.6202 -0.1351 -1.3509
  120OSM   H13G12712   3.470   2.075   8.070  1.5102 -1.7548  3.2560
  120OSM   C14F12713   3.623   1.950   8.125  0.0862 -0.0060 -1.0120
  120OSM   H14F12714   3.704   1.891   8.077  1.0733  0.5467 -0.0455
  120OSM   H14G12715   3.577   1.878   8.196  1.3260 -1.9518 -2.1143
  120OSM   C15F12716   3.676   2.082   8.192  0.1402 -0.2497  0.2756
  120OSM   H15F12717   3.593   2.135   8.243 -0.4135  0.8407 -1.7005
  120OSM   H15G12718   3.729   2.159   8.131  0.9249  0.3440  1.6758
  120OSM   C16F12719   3.789   2.056   8.293 -0.2573  0.0067 -0.8394
  120OSM   H16F12720   3.884   2.023   8.245  1.8164  4.5257 -0.1588
  120OSM   H16G12721   3.765   1.973   8.362 -0.7194  0.6852 -0.1821
  120OSM   C17F12722   3.834   2.182   8.374  0.6362  0.0846  0.1253
  120OSM   H17F12723   3.745   2.211   8.433  1.3247  1.9355  0.3047
  120OSM   H17G12724   3.856   2.265   8.303  0.3439  0.4295  0.4409
  120OSM   C18F12725   3.940   2.157   8.483 -0.0421 -0.7299 -0.2811
  120OSM   H18F12726   3.907   2.071   8.545 -1.6519  0.4121  0.4893
  120OSM   H18G12727   3.942   2.249   8.545 -1.7170 -1.2041  0.4817
  120OSM   H18H12728   4.043   2.133   8.447 -0.1934 -2.2272  0.2489
  121OSM      N12729   5.462   4.073   6.103  0.1527 -0.1964 -0.0232
  121OSM    C1512730   5.533   3.940   6.084 -0.7922  0.3074 -0.2146
  121OSM   H15A12731   5.612   3.952   6.012 -0.3247 -1.9739 -0.1223
  121OSM   H15B12732   5.476   3.854   6.052  0.8226 -0.5688 -0.7958
  121OSM   H15C12733   5.588   3.912   6.173 -1.4151 -1.0342 -0.2374
  121OSM    C1412734   5.367   4.065   6.211 -0.1698 -0.6367  0.1371
  121OSM   H14A12735   5.302   3.985   6.179 -0.6094 -0.7880  1.3661
  121OSM   H14B12736   5.322   4.162   6.224 -0.3289 -0.9294  1.8697
  121OSM   H14C12737   5.423   4.045   6.301 -0.5207 -1.9036  0.0947
  121OSM    C1312738   5.554   4.187   6.137 -0.2945  0.1062 -0.0917
  121OSM   H13A12739   5.497   4.278   6.124  0.8780  1.2089  2.2384
  121OSM   H13B12740   5.640   4.191   6.071 -0.0003 -0.3992  0.2501
  121OSM   H13C12741   5.596   4.188   6.237 -1.3601  0.8698  0.3559
  121OSM    C1212742   5.379   4.103   5.977 -0.2700 -0.0107 -0.1521
  121OSM   H12A12743   5.450   4.134   5.902  0.7602 -1.2985  0.2748
  121OSM   H12B12744   5.306   4.180   5.992  0.5050  0.7006  0.0077
  121OSM    C1112745   5.297   3.986   5.909 -0.2175  0.0635  0.4133
  121OSM   H11A12746   5.363   3.902   5.879 -0.5313  0.5343 -1.6659
  121OSM   H11B12747   5.245   4.035   5.824  1.6405  0.5755 -0.4425
  121OSM      P12748   5.058   3.974   6.032 -0.0060 -0.3680  0.3908
  121OSM    O1312749   5.047   4.112   5.978  0.2175  0.3489  0.1896
  121OSM    O1412750   4.958   3.882   5.971 -0.3811 -0.1296  0.4218
  121OSM    O1112751   5.049   3.977   6.188  0.2536 -0.1699 -0.3239
  121OSM    O1212752   5.206   3.928   5.997  0.5888 -0.2311 -0.6067
  121OSM    C1S12753   5.083   3.858   6.257  0.6542 -0.0757 -0.1219
  121OSM    H1S12754   5.191   3.831   6.252  0.0537 -2.2172 -2.2678
  121OSM    H1T12755   5.030   3.771   6.213 -1.5044  0.9130  0.4796
  121OSM     NF12756   5.088   3.775   6.501 -0.2161  0.6012 -0.3918
  121OSM    HNF12757   5.026   3.697   6.511 -0.9298  1.0645 -1.1775
  121OSM    C2S12758   5.040   3.874   6.408  0.2963 -0.1764 -0.1443
  121OSM    H2S12759   5.074   3.975   6.438  1.0077 -0.2560 -0.6710
  121OSM    C3S12760   4.884   3.893   6.422  0.8905 -0.4804  0.4062
  121OSM    H3S12761   4.837   3.795   6.397  2.1974 -1.4524  1.7289
  121OSM     O312762   4.832   3.992   6.333 -0.0784 -1.0398  0.4408
  121OSM    HO312763   4.909   4.011   6.280 -0.3590  2.8037  1.2946
  121OSM    C4S12764   4.847   3.922   6.567  0.6005 -0.1702  0.2780
  121OSM    H4S12765   4.814   3.833   6.624 -1.1150  0.7728  0.7912
  121OSM    C5S12766   4.838   4.039   6.627 -0.2771 -0.5774 -0.2686
  121OSM    H5S12767   4.869   4.120   6.559 -1.5479 -0.2070 -0.4158
  121OSM    C6S12768   4.810   4.079   6.767  0.5786 -0.5099 -0.4733
  121OSM    H6S12769   4.745   4.001   6.812 -0.6008  0.4992 -0.4101
  121OSM    H6T12770   4.758   4.176   6.783 -0.6484 -1.5776  2.4430
  121OSM    C7S12771   4.946   4.085   6.848 -0.4584 -0.1608  0.2773
  121OSM    H7S12772   5.024   4.140   6.791 -2.4844  0.0183 -2.3921
  121OSM    H7T12773   4.979   3.980   6.861  0.9604  0.0637 -1.3570
  121OSM    C8S12774   4.932   4.150   6.989  0.1774 -0.2847  0.4401
  121OSM    H8S12775   4.862   4.235   6.976  0.7829  0.2910  0.8917
  121OSM    H8T12776   5.027   4.195   7.026 -0.1014  0.1001  0.6912
  121OSM    C9S12777   4.863   4.061   7.097  0.2083  0.3732  0.8396
  121OSM    H9S12778   4.782   4.001   7.051  2.5155 -0.3688 -2.4254
  121OSM    H9T12779   4.807   4.124   7.169 -2.3637 -0.5755 -0.2521
  121OSM   C10S12780   4.952   3.951   7.155 -0.1112  0.3433  0.3318
  121OSM   H10S12781   5.047   4.003   7.180  1.2592 -0.5743 -2.7342
  121OSM   H10T12782   4.980   3.866   7.089 -1.8523 -1.0631  1.3591
  121OSM   C11S12783   4.908   3.885   7.291 -0.5036  0.0513 -0.9641
  121OSM   H11S12784   4.807   3.838   7.283 -1.6702  2.4131 -0.5907
  121OSM   H11T12785   4.914   3.971   7.361 -2.2250  2.4345 -3.6271
  121OSM   C12S12786   5.008   3.778   7.327 -0.0093  0.1723  0.2013
  121OSM   H12S12787   5.104   3.819   7.291 -0.7690 -0.3189 -2.4738
  121OSM   H12T12788   4.981   3.686   7.271  0.5886  0.1042  0.0257
  121OSM   C13S12789   5.017   3.744   7.475  0.3737 -0.5193  0.0920
  121OSM   H13S12790   5.026   3.633   7.471 -0.3044 -0.5223 -2.0833
  121OSM   H13T12791   4.923   3.766   7.529  0.3270 -0.1642 -0.1314
  121OSM   C14S12792   5.137   3.809   7.540  0.1152 -0.0319 -0.0457
  121OSM   H14S12793   5.128   3.918   7.563  0.6643  0.3210 -1.4386
  121OSM   H14T12794   5.217   3.812   7.463  0.4522  1.3431  0.3423
  121OSM   C15S12795   5.191   3.725   7.658 -0.1082 -0.1351  0.0809
  121OSM   H15S12796   5.285   3.774   7.688  0.2233  0.1666 -1.4311
  121OSM   H15T12797   5.215   3.621   7.626  2.2217 -0.4492  2.7420
  121OSM   C16S12798   5.094   3.727   7.782  0.1134  0.5828 -0.7763
  121OSM   H16S12799   5.007   3.671   7.742  2.5429 -2.0749 -2.5806
  121OSM   H16T12800   5.083   3.832   7.816  2.8769  0.7681 -0.3695
  121OSM   C17S12801   5.152   3.639   7.899 -0.1265  0.4785 -0.7035
  121OSM   H17S12802   5.064   3.655   7.965  1.0582  2.7708  0.3811
  121OSM   H17T12803   5.233   3.683   7.961  0.2123 -0.7547 -0.2501
  121OSM   C18S12804   5.186   3.491   7.867  0.5004 -0.3525  0.2086
  121OSM   H18S12805   5.264   3.479   7.788  0.6947 -0.0236  0.3486
  121OSM   H18T12806   5.097   3.443   7.821 -0.9997  0.7768  1.9061
  121OSM   H18U12807   5.215   3.433   7.957 -2.1522 -1.5947  0.2970
  121OSM    C1F12808   5.219   3.776   6.537 -0.1243 -0.3685  0.3504
  121OSM     OF12809   5.296   3.856   6.489  0.5840 -0.3247 -0.2509
  121OSM    C2F12810   5.262   3.664   6.619 -0.3271  0.0316  0.0201
  121OSM    H2F12811   5.282   3.578   6.551 -0.7377 -1.7754  2.1310
  121OSM    H2G12812   5.172   3.628   6.673 -0.4661 -1.7771 -1.3375
  121OSM    C3F12813   5.386   3.686   6.700  0.3325  0.3829  0.7794
  121OSM    H3F12814   5.386   3.770   6.773 -0.6566  0.3635  0.8065
  121OSM    H3G12815   5.466   3.734   6.639  0.1562 -0.0591  0.2041
  121OSM    C4F12816   5.433   3.556   6.758 -0.0443  0.0040  0.2966
  121OSM    H4F12817   5.431   3.490   6.669  0.2006 -1.2835  1.2230
  121OSM    H4G12818   5.372   3.516   6.842  0.7180 -2.1833 -0.1455
  121OSM    C5F12819   5.576   3.548   6.826 -0.4188  0.3838 -0.1872
  121OSM    H5F12820   5.643   3.590   6.748  1.3924  0.4465  1.3762
  121OSM    H5G12821   5.605   3.444   6.848 -2.8766 -0.6948 -1.8276
  121OSM    C6F12822   5.603   3.629   6.949  0.2907  0.0541  0.1965
  121OSM    H6F12823   5.534   3.590   7.027 -1.2435 -0.2138 -1.2958
  121OSM    H6G12824   5.581   3.737   6.936 -0.1779  0.1289  1.4623
  121OSM    C7F12825   5.748   3.605   6.993 -0.1023  0.4918 -0.4832
  121OSM    H7F12826   5.820   3.610   6.908  1.0614  0.8188  0.4980
  121OSM    H7G12827   5.760   3.508   7.045 -1.0897  0.6386  0.0198
  121OSM    C8F12828   5.787   3.731   7.092 -0.2291 -0.2724 -0.1899
  121OSM    H8F12829   5.685   3.729   7.137  0.1597  0.5405  0.7533
  121OSM    H8G12830   5.798   3.826   7.036 -2.0747  1.0072  1.5044
  121OSM    C9F12831   5.896   3.723   7.195  0.0956 -0.8257  0.7053
  121OSM    H9F12832   5.996   3.699   7.158 -0.2180 -1.0373 -0.0175
  121OSM   C10F12833   5.881   3.746   7.328 -0.1782 -0.3391  0.0156
  121OSM   H10F12834   5.972   3.744   7.390  0.9126  2.4773 -1.4136
  121OSM   C11F12835   5.758   3.759   7.405  0.1327  0.3806 -0.5486
  121OSM   H11F12836   5.674   3.778   7.336 -0.8611  1.6850  0.9985
  121OSM   H11G12837   5.757   3.838   7.483 -0.6432 -1.0078  0.8804
  121OSM   C12F12838   5.730   3.626   7.483 -0.3767 -0.3763 -0.2122
  121OSM   H12F12839   5.818   3.593   7.542 -0.7328 -0.4086  0.2984
  121OSM   H12G12840   5.700   3.551   7.407  2.7802 -0.7885 -1.1199
  121OSM   C13F12841   5.606   3.630   7.572  0.1776 -0.1733 -0.2963
  121OSM   H13F12842   5.514   3.657   7.517 -0.0559  1.0548  0.6463
  121OSM   H13G12843   5.626   3.695   7.660 -0.0387 -0.4693 -0.0285
  121OSM   C14F12844   5.573   3.494   7.632 -0.1985 -0.1923 -0.2667
  121OSM   H14F12845   5.544   3.505   7.739 -0.0966 -1.9224 -0.0446
  121OSM   H14G12846   5.664   3.431   7.644 -1.4860 -2.4369 -1.8471
  121OSM   C15F12847   5.449   3.423   7.574  0.3644 -0.0451  0.2710
  121OSM   H15F12848   5.368   3.498   7.579 -0.0573 -0.6169  2.7251
  121OSM   H15G12849   5.413   3.343   7.641  0.8445  0.6320  1.3631
  121OSM   C16F12850   5.453   3.375   7.428 -0.7154 -0.3229  0.3342
  121OSM   H16F12851   5.493   3.271   7.434 -0.9399 -0.3151  2.5473
  121OSM   H16G12852   5.528   3.431   7.369 -0.4782  0.8138  1.6869
  121OSM   C17F12853   5.315   3.375   7.353  0.2623  0.5413  0.7552
  121OSM   H17F12854   5.273   3.477   7.367  0.2179  0.5374  0.6508
  121OSM   H17G12855   5.241   3.301   7.391  1.0703 -1.4121 -1.3670
  121OSM   C18F12856   5.326   3.339   7.202  0.4535 -0.5558  0.4375
  121OSM   H18F12857   5.393   3.252   7.193  0.5786 -0.3453 -0.6637
  121OSM   H18G12858   5.384   3.414   7.145  1.1024 -0.0774  1.6956
  121OSM   H18H12859   5.225   3.324   7.157  0.4385  2.2160 -0.5959
  122OSM      N12860   3.106   5.675   5.915 -0.0176  0.6274  0.0652
  122OSM    C1512861   3.004   5.753   5.843 -0.6850  0.2864  0.3584
  122OSM   H15A12862   3.035   5.856   5.851  0.2663 -0.1692  2.8883
  122OSM   H15B12863   2.906   5.751   5.889 -1.1181  0.1745 -0.5520
  122OSM   H15C12864   3.004   5.730   5.737  0.8057  1.3185  0.1200
  122OSM    C1412865   3.069   5.535   5.923 -0.4999  0.0035 -0.0823
  122OSM   H14A12866   2.980   5.521   5.983  0.7984 -1.9940  1.4710
  122OSM   H14B12867   3.155   5.486   5.968  0.8320  0.9527 -1.5716
  122OSM   H14C12868   3.061   5.491   5.825 -2.3277 -1.8633  0.8632
  122OSM    C1312869   3.234   5.699   5.841 -0.5356 -0.0131  0.3049
  122OSM   H13A12870   3.314   5.659   5.901  0.8664 -0.1477 -1.6117
  122OSM   H13B12871   3.253   5.803   5.821  3.0640 -0.6160  0.2585
  122OSM   H13C12872   3.223   5.661   5.741 -2.0311  1.4741 -0.1196
  122OSM    C1212873   3.127   5.726   6.054  0.1956  0.1377  0.2042
  122OSM   H12A12874   3.041   5.717   6.119 -0.7775  0.4456 -1.0215
  122OSM   H12B12875   3.157   5.830   6.047  1.0762 -0.1538 -0.5209
  122OSM    C1112876   3.239   5.659   6.140  0.1612  0.3076 -0.7716
  122OSM   H11A12877   3.234   5.549   6.125 -1.1170  0.4728 -1.6307
  122OSM   H11B12878   3.212   5.684   6.244 -1.0449 -0.7905 -0.8164
  122OSM      P12879   3.418   5.839   6.148  0.4838  0.1827  0.3091
  122OSM    O1312880   3.555   5.859   6.101  0.0317 -0.1261  0.2486
  122OSM    O1412881   3.319   5.945   6.119  0.2443 -0.2945  0.0396
  122OSM    O1112882   3.409   5.819   6.301  0.2158 -0.3409  0.0180
  122OSM    O1212883   3.364   5.702   6.100  0.6972 -0.7505 -1.0759
  122OSM    C1S12884   3.484   5.720   6.362 -0.0161  0.1320 -0.6022
  122OSM    H1S12885   3.593   5.731   6.340  0.1334  0.6099  0.3553
  122OSM    H1T12886   3.433   5.622   6.352 -0.0026 -0.1441  1.6882
  122OSM     NF12887   3.560   5.621   6.581  0.4241  0.4549  0.9217
  122OSM    HNF12888   3.520   5.539   6.621 -0.6375  0.7191  0.4390
  122OSM    C2S12889   3.485   5.732   6.522 -0.2125  0.4438 -0.4334
  122OSM    H2S12890   3.534   5.825   6.558 -0.8383  0.5118  0.2400
  122OSM    C3S12891   3.339   5.742   6.581 -0.2779 -0.6047  0.1468
  122OSM    H3S12892   3.294   5.648   6.543  0.2064 -0.1994 -1.4534
  122OSM     O312893   3.257   5.851   6.536  0.2010  0.3582  0.3627
  122OSM    HO312894   3.291   5.860   6.446  0.6868 -0.6036  0.4435
  122OSM    C4S12895   3.348   5.743   6.729  0.0869 -0.6781 -0.1949
  122OSM    H4S12896   3.308   5.650   6.774 -1.5432  0.8944  1.7044
  122OSM    C5S12897   3.396   5.841   6.804  0.1632  0.5212 -0.2022
  122OSM    H5S12898   3.412   5.937   6.753  2.7083  0.3629  0.2713
  122OSM    C6S12899   3.398   5.846   6.954  0.0527  0.3811 -0.2516
  122OSM    H6S12900   3.317   5.781   6.992  2.7889 -2.5231  0.7859
  122OSM    H6T12901   3.374   5.950   6.986  0.6045  0.1965  0.7713
  122OSM    C7S12902   3.523   5.793   7.020  0.0386  0.4520 -0.3223
  122OSM    H7S12903   3.515   5.798   7.131 -0.3598 -0.8577 -0.2881
  122OSM    H7T12904   3.611   5.852   6.985  0.6064 -1.0166 -1.4058
  122OSM    C8S12905   3.549   5.643   6.987 -0.1153  0.1639 -1.8554
  122OSM    H8S12906   3.595   5.637   6.886  0.1775  0.9822 -1.7751
  122OSM    H8T12907   3.460   5.579   7.001 -0.5125  1.0245 -0.3666
  122OSM    C9S12908   3.657   5.587   7.090 -0.2195  0.0244  0.4660
  122OSM    H9S12909   3.673   5.478   7.076 -2.4090 -0.3904  1.0103
  122OSM    H9T12910   3.611   5.601   7.190  0.0853  0.0431  0.6042
  122OSM   C10S12911   3.790   5.659   7.085 -0.0969  0.1142 -0.5847
  122OSM   H10S12912   3.770   5.768   7.092  0.3608  0.1868 -0.4211
  122OSM   H10T12913   3.834   5.639   6.985 -0.9693 -2.4388 -0.4990
  122OSM   C11S12914   3.874   5.613   7.203  0.3222 -0.1884 -0.0875
  122OSM   H11S12915   3.871   5.502   7.211 -2.9782 -0.2835 -2.0986
  122OSM   H11T12916   3.833   5.643   7.302 -2.2981 -1.8955 -0.5926
  122OSM   C12S12917   4.023   5.664   7.211 -0.5769  0.3798  0.1093
  122OSM   H12S12918   4.037   5.772   7.234 -0.1789  0.4759 -0.5887
  122OSM   H12T12919   4.067   5.630   7.115 -1.5581 -1.3067  0.2341
  122OSM   C13S12920   4.107   5.595   7.323 -0.6880  0.4868 -0.3953
  122OSM   H13S12921   4.207   5.641   7.307 -0.0372 -0.8295 -0.1626
  122OSM   H13T12922   4.115   5.485   7.309 -1.4268  0.2746  0.7536
  122OSM   C14S12923   4.059   5.624   7.467 -0.2686  0.8092 -1.1073
  122OSM   H14S12924   4.087   5.532   7.523 -0.8443  0.6181 -1.1293
  122OSM   H14T12925   3.949   5.623   7.457 -0.3463  1.6514 -0.4084
  122OSM   C15S12926   4.104   5.756   7.533 -0.5386 -0.2799 -0.4827
  122OSM   H15S12927   4.046   5.784   7.624 -1.8628 -1.0386 -1.0821
  122OSM   H15T12928   4.080   5.835   7.459  1.3672 -0.1377 -0.9587
  122OSM   C16S12929   4.250   5.755   7.560  1.4418 -0.1757 -0.6665
  122OSM   H16S12930   4.283   5.856   7.590  2.1061  0.7687 -4.2477
  122OSM   H16T12931   4.315   5.723   7.475  0.1614  1.4227 -2.3020
  122OSM   C17S12932   4.290   5.658   7.668  0.9564  0.2806 -0.6382
  122OSM   H17S12933   4.401   5.662   7.674  0.8769  1.4123  0.1007
  122OSM   H17T12934   4.276   5.551   7.639 -0.6476  0.8908 -2.1918
  122OSM   C18S12935   4.235   5.685   7.805 -0.0173 -0.1464 -0.5748
  122OSM   H18S12936   4.135   5.638   7.810  0.2478 -0.7731 -1.0360
  122OSM   H18T12937   4.235   5.795   7.822  1.2379 -0.4136  1.3925
  122OSM   H18U12938   4.300   5.633   7.879  0.1527  1.2058  0.2443
  122OSM    C1F12939   3.693   5.625   6.565 -0.2987  0.5688 -0.1866
  122OSM     OF12940   3.750   5.722   6.511 -0.0145 -0.2824  0.1934
  122OSM    C2F12941   3.766   5.502   6.629  0.0720  0.0833 -0.1013
  122OSM    H2F12942   3.727   5.406   6.587  0.7680 -0.8494  1.3412
  122OSM    H2G12943   3.747   5.511   6.738 -0.2328 -2.7152  0.1360
  122OSM    C3F12944   3.918   5.494   6.605 -0.1083 -0.1177  0.2950
  122OSM    H3F12945   3.967   5.586   6.642 -1.0554  0.2374  0.6883
  122OSM    H3G12946   3.939   5.484   6.496  1.0262  2.2195  0.2863
  122OSM    C4F12947   3.981   5.375   6.679  0.1076  0.0515 -0.2831
  122OSM    H4F12948   3.933   5.282   6.642 -0.1051  0.6707 -1.5593
  122OSM    H4G12949   3.955   5.395   6.785  1.4904  3.0141 -0.4634
  122OSM    C5F12950   4.133   5.355   6.661  0.2865 -0.2924  0.5135
  122OSM    H5F12951   4.182   5.454   6.651 -0.4001 -0.1163 -1.3806
  122OSM    H5G12952   4.156   5.311   6.561  2.3786  1.7409  0.0627
  122OSM    C6F12953   4.198   5.255   6.759 -0.1231  0.1376  0.2112
  122OSM    H6F12954   4.306   5.240   6.736 -0.2571  2.3701 -2.1134
  122OSM    H6G12955   4.148   5.156   6.751  2.8310 -1.3597 -0.3361
  122OSM    C7F12956   4.176   5.288   6.910 -0.0606 -0.2972  0.5213
  122OSM    H7F12957   4.226   5.221   6.983  0.1093  1.2853  1.8847
  122OSM    H7G12958   4.068   5.299   6.936 -0.6359 -1.7899 -1.1083
  122OSM    C8F12959   4.243   5.425   6.955  0.4023 -0.3913 -0.6496
  122OSM    H8F12960   4.226   5.434   7.065 -1.5827  4.0972 -1.2279
  122OSM    H8G12961   4.189   5.510   6.909  0.9334 -1.1595 -2.7344
  122OSM    C9F12962   4.381   5.441   6.902 -1.1965 -0.5540 -0.3905
  122OSM    H9F12963   4.388   5.435   6.792  0.3168 -1.8482 -0.2395
  122OSM   C10F12964   4.493   5.477   6.976  0.9046  0.0359 -0.3898
  122OSM   H10F12965   4.588   5.474   6.919  0.3358  0.1053 -1.3527
  122OSM   C11F12966   4.495   5.492   7.127 -0.5877 -0.3387  0.6437
  122OSM   H11F12967   4.396   5.480   7.175 -2.1194  0.9731 -2.0871
  122OSM   H11G12968   4.537   5.593   7.142  0.9756 -0.7041 -1.0025
  122OSM   C12F12969   4.573   5.385   7.202 -0.1557  0.6646  0.6166
  122OSM   H12F12970   4.665   5.361   7.144 -0.1910  0.7123  0.5406
  122OSM   H12G12971   4.515   5.290   7.201  0.1871  0.4315  2.0928
  122OSM   C13F12972   4.606   5.426   7.343 -0.2744  0.7155  0.2247
  122OSM   H13F12973   4.649   5.528   7.355  0.0032  0.4411  1.6478
  122OSM   H13G12974   4.684   5.354   7.374  2.1168  2.7828 -0.7463
  122OSM   C14F12975   4.513   5.396   7.458 -0.2537 -0.4798 -0.1657
  122OSM   H14F12976   4.478   5.291   7.457  0.0841 -0.5907 -2.1999
  122OSM   H14G12977   4.432   5.472   7.458  2.6645  2.8033  0.2030
  122OSM   C15F12978   4.580   5.428   7.590 -0.2016  0.2796  0.3603
  122OSM   H15F12979   4.596   5.537   7.605  1.2454  0.2699 -1.0594
  122OSM   H15G12980   4.682   5.385   7.580 -1.6552 -3.2870  0.0491
  122OSM   C16F12981   4.518   5.357   7.715  0.7784 -0.2377 -0.4117
  122OSM   H16F12982   4.515   5.249   7.692 -0.0982 -0.0752 -1.1009
  122OSM   H16G12983   4.414   5.395   7.729  0.5126 -1.2994  0.5462
  122OSM   C17F12984   4.601   5.390   7.839 -0.3252  0.4877 -0.1469
  122OSM   H17F12985   4.623   5.498   7.826 -1.9927  0.7137 -1.1554
  122OSM   H17G12986   4.693   5.328   7.834  0.3515  1.6020 -1.8985
  122OSM   C18F12987   4.533   5.356   7.973  0.0291  0.4494  0.1663
  122OSM   H18F12988   4.610   5.371   8.053  1.8974  1.7467 -1.8094
  122OSM   H18G12989   4.500   5.250   7.970  0.5215  0.2753  0.8121
  122OSM   H18H12990   4.449   5.428   7.981  0.4284  0.9090  0.2960
  123OSM      N12991   1.677   0.608   5.968  0.0555 -0.1780  0.3127
  123OSM    C1512992   1.775   0.715   5.922  0.3308 -0.4139  0.5713
  123OSM   H15A12993   1.725   0.784   5.856 -0.3813 -0.7395  0.7729
  123OSM   H15B12994   1.853   0.675   5.859 -1.2557  0.6522 -2.1408
  123OSM   H15C12995   1.816   0.769   6.007  2.2947 -3.2050  1.4871
  123OSM    C1412996   1.552   0.671   6.015  0.0733 -0.0710 -0.1767
  123OSM   H14A12997   1.473   0.603   6.043  0.5679 -1.4680 -2.0298
  123OSM   H14B12998   1.516   0.740   5.939 -2.0023  0.8388  1.5697
  123OSM   H14C12999   1.574   0.727   6.104  0.2752 -1.7532  0.8358
  123OSM    C1313000   1.636   0.526   5.854 -0.1503 -0.4471  0.1050
  123OSM   H13A13001   1.716   0.470   5.808 -0.3228 -1.1425  0.6540
  123OSM   H13B13002   1.590   0.580   5.773 -0.1725 -1.0521 -0.2915
  123OSM   H13C13003   1.565   0.450   5.884  1.8687 -3.3115 -2.1130
  123OSM    C1213004   1.733   0.536   6.090 -0.8182 -0.0868 -0.3622
  123OSM   H12A13005   1.826   0.490   6.060 -0.5268  0.1817  0.1024
  123OSM   H12B13006   1.660   0.461   6.113  0.3609 -1.3728 -0.7696
  123OSM    C1113007   1.770   0.621   6.222  0.0017 -1.1427  0.0762
  123OSM   H11A13008   1.837   0.696   6.176 -1.1658 -1.5341 -2.3371
  123OSM   H11B13009   1.832   0.551   6.282 -0.6630 -2.2873 -0.5438
  123OSM      P13010   1.572   0.584   6.395  0.1131  0.6413  0.3075
  123OSM    O1313011   1.431   0.627   6.388  0.0735  0.3505 -0.2500
  123OSM    O1413012   1.599   0.438   6.383 -0.1952  0.4946  0.2247
  123OSM    O1113013   1.624   0.647   6.532  0.4123 -0.6274  0.0493
  123OSM    O1213014   1.655   0.673   6.293  0.5696 -0.3371 -0.2981
  123OSM    C1S13015   1.752   0.632   6.572 -0.2466 -0.4251 -0.3362
  123OSM    H1S13016   1.817   0.699   6.511  0.0134  0.9211  1.3722
  123OSM    H1T13017   1.788   0.530   6.549  0.6489 -0.4400  1.0677
  123OSM     NF13018   1.915   0.669   6.757 -0.0553 -0.1207 -0.3169
  123OSM    HNF13019   1.948   0.587   6.803  0.6165  0.9009  1.0638
  123OSM    C2S13020   1.775   0.677   6.719  0.1926 -0.5080 -0.0519
  123OSM    H2S13021   1.736   0.781   6.725  2.4857  0.3970 -0.2126
  123OSM    C3S13022   1.692   0.595   6.825 -0.4650  0.3005  0.0259
  123OSM    H3S13023   1.741   0.495   6.830 -3.2242 -1.2158 -1.6699
  123OSM     O313024   1.559   0.578   6.783  0.1038 -0.0409 -0.2138
  123OSM    HO313025   1.545   0.616   6.696  1.8604  0.9492 -0.0788
  123OSM    C4S13026   1.695   0.654   6.963 -0.5486 -0.6639  0.0438
  123OSM    H4S13027   1.608   0.712   6.997  0.2957  1.3438 -1.1746
  123OSM    C5S13028   1.785   0.618   7.061 -0.3709 -0.3658  0.0475
  123OSM    H5S13029   1.856   0.535   7.053 -0.5049 -0.6606  1.7437
  123OSM    C6S13030   1.791   0.676   7.198  0.0357 -1.0705 -0.2415
  123OSM    H6S13031   1.847   0.771   7.192 -0.8770 -0.6805 -4.0209
  123OSM    H6T13032   1.842   0.616   7.276 -0.0493  0.6402  1.1408
  123OSM    C7S13033   1.646   0.684   7.261 -0.0737  0.1664 -0.6676
  123OSM    H7S13034   1.586   0.597   7.230 -0.3437 -0.2748  1.0217
  123OSM    H7T13035   1.602   0.774   7.213 -2.3764 -1.9843 -2.6889
  123OSM    C8S13036   1.652   0.702   7.419  0.6427 -0.0107 -0.2761
  123OSM    H8S13037   1.688   0.606   7.462  0.4883  0.0970  0.0923
  123OSM    H8T13038   1.547   0.716   7.455  0.2497 -2.8778 -0.1460
  123OSM    C9S13039   1.750   0.805   7.469  0.3449 -0.2888  0.1426
  123OSM    H9S13040   1.746   0.893   7.402  1.1551  0.2431  0.7740
  123OSM    H9T13041   1.852   0.762   7.479 -0.2832 -2.0740 -0.9333
  123OSM   C10S13042   1.710   0.863   7.607  0.2547  0.5572 -0.2710
  123OSM   H10S13043   1.605   0.900   7.609 -0.1826 -0.7117  1.3030
  123OSM   H10T13044   1.772   0.951   7.633 -0.7292  0.7205  1.5719
  123OSM   C11S13045   1.731   0.766   7.728 -0.1108 -0.8622 -0.3450
  123OSM   H11S13046   1.837   0.734   7.732 -0.4423 -2.2304 -2.0496
  123OSM   H11T13047   1.666   0.676   7.728 -0.0613 -0.9279  2.4171
  123OSM   C12S13048   1.699   0.841   7.857  0.0024  0.7828 -0.6359
  123OSM   H12S13049   1.590   0.865   7.859 -0.1064  0.4022 -1.8106
  123OSM   H12T13050   1.740   0.944   7.866  3.2254 -0.3937 -1.1199
  123OSM   C13S13051   1.744   0.769   7.982 -0.1779  0.4003  0.1267
  123OSM   H13S13052   1.847   0.732   7.962 -1.7268 -2.1740 -3.6001
  123OSM   H13T13053   1.681   0.679   7.993 -2.0258  1.4214 -1.6571
  123OSM   C14S13054   1.746   0.859   8.111 -0.3775  0.4799  1.1603
  123OSM   H14S13055   1.645   0.905   8.121 -1.9937 -2.1445 -1.9093
  123OSM   H14T13056   1.825   0.936   8.100 -0.3673  0.3061 -0.0425
  123OSM   C15S13057   1.773   0.778   8.244 -0.5383 -0.3976  0.0101
  123OSM   H15S13058   1.880   0.748   8.239 -1.0828 -2.4224  0.1710
  123OSM   H15T13059   1.723   0.679   8.250 -1.8489  0.1805 -1.2816
  123OSM   C16S13060   1.745   0.860   8.368 -0.0035  0.4513 -0.2997
  123OSM   H16S13061   1.793   0.960   8.368  1.3739 -0.1891  1.5368
  123OSM   H16T13062   1.785   0.798   8.451 -2.1545 -0.3137  0.2240
  123OSM   C17S13063   1.595   0.869   8.417  0.3015 -0.0156  0.1889
  123OSM   H17S13064   1.531   0.911   8.337 -1.3668 -1.1555  0.8920
  123OSM   H17T13065   1.589   0.946   8.497 -2.6429  1.8306 -1.6962
  123OSM   C18S13066   1.543   0.732   8.438  0.0761 -0.3624  0.0155
  123OSM   H18S13067   1.435   0.733   8.466 -0.4803  2.4192 -1.9966
  123OSM   H18T13068   1.594   0.670   8.515  1.5838  1.9445  0.9206
  123OSM   H18U13069   1.558   0.673   8.345 -0.7840 -1.7378  0.7218
  123OSM    C1F13070   1.991   0.764   6.710 -0.1260 -0.0447  0.0931
  123OSM     OF13071   1.945   0.860   6.642  0.7660 -0.4554 -0.4271
  123OSM    C2F13072   2.137   0.731   6.722 -0.4900  0.2993  0.6320
  123OSM    H2F13073   2.187   0.784   6.638  0.3503 -0.4657  0.6435
  123OSM    H2G13074   2.143   0.624   6.694  0.5072  1.0748 -2.2480
  123OSM    C3F13075   2.197   0.761   6.856 -0.0983 -0.3742 -0.1744
  123OSM    H3F13076   2.303   0.728   6.853  0.4921  1.3769  0.8337
  123OSM    H3G13077   2.157   0.703   6.942  0.1143  1.0693  0.9149
  123OSM    C4F13078   2.211   0.909   6.892 -0.0881 -0.0928  0.6538
  123OSM    H4F13079   2.248   0.975   6.810  1.8071 -1.6491  0.2388
  123OSM    H4G13080   2.291   0.910   6.968  2.0009  4.8930 -1.3893
  123OSM    C5F13081   2.088   0.956   6.977  0.5765  0.2894  0.8569
  123OSM    H5F13082   2.053   0.876   7.045  1.7501 -0.5706  0.4611
  123OSM    H5G13083   2.010   0.981   6.903  0.0728 -0.1807  1.2260
  123OSM    C6F13084   2.112   1.091   7.052  0.2894 -0.6412 -0.2540
  123OSM    H6F13085   2.164   1.146   6.970 -0.4744  2.4095  1.2578
  123OSM    H6G13086   2.186   1.070   7.132 -1.4994  0.9090  1.8505
  123OSM    C7F13087   1.988   1.162   7.096  1.3085 -0.7771 -0.3295
  123OSM    H7F13088   1.917   1.172   7.011  3.2555 -0.9717 -1.9936
  123OSM    H7G13089   2.018   1.262   7.133  1.0277 -1.1631  0.9820
  123OSM    C8F13090   1.912   1.098   7.215  0.7382  0.4526  0.5925
  123OSM    H8F13091   1.983   1.097   7.300 -0.3556 -0.0437  1.5075
  123OSM    H8G13092   1.888   0.991   7.197  0.2262  0.8517 -1.2576
  123OSM    C9F13093   1.784   1.179   7.250 -0.0009 -0.1195  0.0452
  123OSM    H9F13094   1.712   1.196   7.169 -0.3039  0.7618  0.4890
  123OSM   C10F13095   1.751   1.238   7.368 -0.2270  0.6839  0.3401
  123OSM   H10F13096   1.662   1.301   7.372 -0.7737 -0.0673  0.0711
  123OSM   C11F13097   1.829   1.222   7.496  0.0015  0.3558  0.1635
  123OSM   H11F13098   1.901   1.138   7.488 -2.7353 -1.9478 -1.2927
  123OSM   H11G13099   1.764   1.194   7.581  1.2035 -1.4014  0.5400
  123OSM   C12F13100   1.913   1.347   7.528 -0.1222 -0.0360  1.2044
  123OSM   H12F13101   1.873   1.437   7.477  1.3516 -0.7881 -1.4138
  123OSM   H12G13102   2.019   1.331   7.499 -0.7796 -3.5638  0.4040
  123OSM   C13F13103   1.912   1.380   7.678 -0.1971  0.4019  0.2436
  123OSM   H13F13104   1.811   1.355   7.718 -2.1168  0.6197 -4.1232
  123OSM   H13G13105   1.921   1.491   7.684  0.2192  0.3450  0.6749
  123OSM   C14F13106   2.024   1.314   7.763  0.5261  0.3624 -0.1859
  123OSM   H14F13107   2.125   1.356   7.748  1.1882 -1.3753 -0.7447
  123OSM   H14G13108   2.008   1.210   7.726 -2.8288  0.7834 -0.0927
  123OSM   C15F13109   1.988   1.303   7.913  0.8570  0.0411  0.4925
  123OSM   H15F13110   1.884   1.266   7.925  0.5312  1.0263  0.7442
  123OSM   H15G13111   1.986   1.407   7.953 -2.1102 -0.3299  1.4321
  123OSM   C16F13112   2.095   1.221   7.993  0.3317  0.0738 -0.2013
  123OSM   H16F13113   2.186   1.236   7.932  0.1627  2.2124  0.0304
  123OSM   H16G13114   2.068   1.114   7.978 -0.7714  0.5621 -1.8424
  123OSM   C17F13115   2.116   1.267   8.140 -0.5544  0.5218  0.7479
  123OSM   H17F13116   2.070   1.189   8.205  0.1402 -0.2792  0.2864
  123OSM   H17G13117   2.070   1.366   8.162 -0.1995  0.8063  0.2059
  123OSM   C18F13118   2.264   1.273   8.178  0.0733  0.4344  0.7384
  123OSM   H18F13119   2.311   1.172   8.173 -1.3544 -0.2591  0.8490
  123OSM   H18G13120   2.276   1.308   8.283  1.3059  0.8916  0.4443
  123OSM   H18H13121   2.320   1.340   8.111  1.1333 -0.6634  0.5116
  124OSM      N13122   2.979   3.484   6.112 -0.4099 -0.1173 -0.6568
  124OSM    C1513123   2.847   3.530   6.061 -0.4886  0.4427  0.4888
  124OSM   H15A13124   2.762   3.481   6.107 -2.2777 -0.1874 -3.2907
  124OSM   H15B13125   2.834   3.513   5.955  0.0373  1.5560  0.2418
  124OSM   H15C13126   2.826   3.634   6.077 -0.1440  0.7836 -1.1916
  124OSM    C1413127   2.986   3.343   6.080  0.5368  0.0237 -0.2739
  124OSM   H14A13128   2.913   3.288   6.138  0.2281  1.9019  1.1841
  124OSM   H14B13129   3.078   3.297   6.112  0.1102  0.2138  1.2639
  124OSM   H14C13130   2.964   3.322   5.977 -0.7229  0.1561 -0.0410
  124OSM    C1313131   3.089   3.556   6.038 -0.4360  0.1800 -0.5218
  124OSM   H13A13132   3.186   3.541   6.084 -1.0417 -1.6688  0.1988
  124OSM   H13B13133   3.070   3.662   6.042  2.5968  0.7511  1.1623
  124OSM   H13C13134   3.082   3.528   5.934  0.5983 -1.9564 -0.0625
  124OSM    C1213135   2.997   3.506   6.258 -0.0568 -0.6704 -0.2101
  124OSM   H12A13136   3.084   3.448   6.285  0.2671 -0.8870 -1.6971
  124OSM   H12B13137   2.914   3.464   6.313 -0.3176  0.5099  0.3252
  124OSM    C1113138   3.026   3.655   6.316 -0.1317 -0.4745  0.2231
  124OSM   H11A13139   3.115   3.704   6.271 -0.8352 -0.1027 -0.7595
  124OSM   H11B13140   3.041   3.646   6.426  3.9108 -0.8155 -0.2742
  124OSM      P13141   2.917   3.891   6.311  0.4746 -0.2629  0.4529
  124OSM    O1313142   3.006   3.954   6.214 -0.2421  0.2001  0.5524
  124OSM    O1413143   2.778   3.943   6.324 -0.2161 -0.5849  0.0815
  124OSM    O1113144   2.973   3.902   6.459  0.1612  0.3196  0.7132
  124OSM    O1213145   2.912   3.736   6.286 -0.0173 -0.0776  0.1879
  124OSM    C1S13146   2.926   3.997   6.554  0.1309 -0.4971  0.7155
  124OSM    H1S13147   2.815   3.992   6.557  0.0755 -0.6531 -1.2299
  124OSM    H1T13148   2.950   4.103   6.533  2.3990 -1.1663 -0.2277
  124OSM     NF13149   2.905   4.064   6.790 -0.3402  0.2571  0.5451
  124OSM    HNF13150   2.953   4.138   6.838 -0.1634 -1.5634  3.2498
  124OSM    C2S13151   2.977   3.976   6.698 -0.2564 -0.1127 -0.2492
  124OSM    H2S13152   2.948   3.873   6.728  3.2359 -0.7015  1.2682
  124OSM    C3S13153   3.131   3.986   6.710  0.7258  0.5547  0.4878
  124OSM    H3S13154   3.165   4.086   6.677 -0.1932  0.0870 -1.9762
  124OSM     O313155   3.186   3.903   6.611 -0.5460  0.3062  0.1479
  124OSM    HO313156   3.117   3.900   6.543 -0.2723 -4.0967 -0.0544
  124OSM    C4S13157   3.179   3.949   6.844  0.8067  0.1200 -0.0811
  124OSM    H4S13158   3.165   4.032   6.915  0.9873  1.0320 -1.1119
  124OSM    C5S13159   3.228   3.830   6.883 -0.3234 -0.1795 -0.4075
  124OSM    H5S13160   3.238   3.752   6.805  1.5610 -1.1422  0.7694
  124OSM    C6S13161   3.271   3.803   7.016 -0.3352  0.0309  0.3234
  124OSM    H6S13162   3.318   3.897   7.052 -1.6180  0.8280 -0.0188
  124OSM    H6T13163   3.350   3.726   7.016  2.7466  3.0719  0.3492
  124OSM    C7S13164   3.168   3.784   7.125 -0.7392  0.0532  0.2228
  124OSM    H7S13165   3.116   3.686   7.123  0.4581 -0.5804  0.1072
  124OSM    H7T13166   3.092   3.864   7.117 -1.3003 -0.7359 -2.8313
  124OSM    C8S13167   3.234   3.788   7.269  0.1492 -0.5458  0.3204
  124OSM    H8S13168   3.272   3.892   7.276 -3.3495  0.7059  2.4044
  124OSM    H8T13169   3.320   3.717   7.269  0.0234 -0.6988 -0.8345
  124OSM    C9S13170   3.146   3.771   7.394 -0.9687  1.0553 -0.3584
  124OSM    H9S13171   3.051   3.826   7.376 -1.7522 -0.6753 -1.7304
  124OSM    H9T13172   3.203   3.820   7.476  0.5701 -1.4358  0.1089
  124OSM   C10S13173   3.137   3.626   7.437  0.0368 -0.3291 -0.3266
  124OSM   H10S13174   3.240   3.586   7.445 -1.4011 -4.2629 -0.5311
  124OSM   H10T13175   3.090   3.559   7.361 -0.5382 -0.2142 -0.0788
  124OSM   C11S13176   3.076   3.610   7.576 -0.1873  0.5117  0.9906
  124OSM   H11S13177   3.075   3.500   7.588 -0.3466 -0.1164 -3.7288
  124OSM   H11T13178   2.968   3.635   7.578 -0.5120 -0.9097  1.1416
  124OSM   C12S13179   3.148   3.684   7.687  0.2221 -0.3435 -1.0224
  124OSM   H12S13180   3.115   3.790   7.693 -1.8763 -0.9776 -1.0735
  124OSM   H12T13181   3.255   3.684   7.658  0.9316 -1.2389  1.4301
  124OSM   C13S13182   3.139   3.632   7.832  0.0005  0.0439 -0.3612
  124OSM   H13S13183   3.190   3.708   7.895 -1.2321  0.0804  0.6127
  124OSM   H13T13184   3.196   3.537   7.845  2.5095  1.1089 -2.9320
  124OSM   C14S13185   2.991   3.629   7.878 -0.4724 -0.1027  0.1679
  124OSM   H14S13186   2.930   3.555   7.823  0.1909 -1.7254  1.5658
  124OSM   H14T13187   2.957   3.733   7.857 -1.2639 -0.1508  1.1599
  124OSM   C15S13188   2.978   3.618   8.034  0.1389 -0.3582 -0.3924
  124OSM   H15S13189   3.000   3.515   8.070 -0.6429  0.1720  1.6995
  124OSM   H15T13190   2.871   3.637   8.058 -0.4768  1.2738 -4.1374
  124OSM   C16S13191   3.045   3.722   8.126 -0.1365 -0.1847  0.4606
  124OSM   H16S13192   3.026   3.825   8.089  3.1141  0.5569  0.6608
  124OSM   H16T13193   3.156   3.721   8.115 -0.2433  0.9698 -0.9083
  124OSM   C17S13194   3.003   3.713   8.271 -0.5384  0.0145  0.4147
  124OSM   H17S13195   3.019   3.606   8.293 -2.0967 -0.2216  0.4850
  124OSM   H17T13196   2.894   3.734   8.268 -0.7222 -0.9079  0.5902
  124OSM   C18S13197   3.082   3.813   8.360 -0.2470 -0.8941 -0.7105
  124OSM   H18S13198   3.057   3.916   8.326 -0.4390 -0.9115 -0.6236
  124OSM   H18T13199   3.191   3.791   8.363 -0.0968 -0.3400 -1.8252
  124OSM   H18U13200   3.047   3.799   8.464  0.3445 -1.2751 -0.5573
  124OSM    C1F13201   2.771   4.065   6.797 -0.7400 -0.1728  0.4017
  124OSM     OF13202   2.706   3.964   6.786 -0.4506  0.3261  0.1958
  124OSM    C2F13203   2.716   4.196   6.834  0.2721 -0.6474 -1.0215
  124OSM    H2F13204   2.644   4.239   6.761  0.5990  2.8271  0.5974
  124OSM    H2G13205   2.794   4.273   6.852 -0.9247 -0.2135  2.6978
  124OSM    C3F13206   2.634   4.197   6.968  0.0866 -0.1794  0.0306
  124OSM    H3F13207   2.561   4.113   6.963 -2.2689  1.8142 -0.4749
  124OSM    H3G13208   2.586   4.297   6.978 -1.9053 -1.3345  2.4636
  124OSM    C4F13209   2.715   4.180   7.093 -0.0690 -0.1543 -0.1409
  124OSM    H4F13210   2.794   4.258   7.091 -0.0590 -0.1243  1.0640
  124OSM    H4G13211   2.758   4.078   7.097  1.2557  0.4230  0.8050
  124OSM    C5F13212   2.617   4.213   7.209  0.1882  0.3935 -0.2225
  124OSM    H5F13213   2.540   4.133   7.202 -0.6368  1.2622 -1.0902
  124OSM    H5G13214   2.564   4.310   7.197 -3.2213 -0.8920  3.2388
  124OSM    C6F13215   2.671   4.204   7.352 -0.0692  0.4656 -0.1793
  124OSM    H6F13216   2.590   4.248   7.415  0.1335 -1.2156  1.2801
  124OSM    H6G13217   2.762   4.268   7.354 -0.1171  0.5041  0.8917
  124OSM    C7F13218   2.710   4.064   7.403 -0.7577 -0.3255 -0.6576
  124OSM    H7F13219   2.781   4.014   7.334  0.3383  0.4000 -0.0668
  124OSM    H7G13220   2.619   4.001   7.415 -0.0048 -1.3206 -0.0812
  124OSM    C8F13221   2.756   4.077   7.557  0.4114 -0.3570 -0.3960
  124OSM    H8F13222   2.845   4.144   7.561 -1.2038  1.8154 -0.0541
  124OSM    H8G13223   2.798   3.975   7.567  1.0159 -0.0542  0.1930
  124OSM    C9F13224   2.667   4.131   7.664  0.5754 -0.6931 -0.3555
  124OSM    H9F13225   2.648   4.239   7.654 -1.5609 -1.2407 -2.8384
  124OSM   C10F13226   2.605   4.061   7.758  0.4679  0.1038 -0.5092
  124OSM   H10F13227   2.529   4.119   7.813 -0.8750 -0.9775 -1.1952
  124OSM   C11F13228   2.609   3.911   7.780 -0.1080 -0.1200  0.8801
  124OSM   H11F13229   2.688   3.857   7.723 -0.5879 -2.3229  2.2686
  124OSM   H11G13230   2.518   3.874   7.727  0.8588 -0.9685 -0.2112
  124OSM   C12F13231   2.607   3.857   7.920  0.6708 -0.1250 -0.7775
  124OSM   H12F13232   2.707   3.859   7.968 -0.0571  0.1897  0.7884
  124OSM   H12G13233   2.586   3.749   7.910  1.3148 -0.3560  0.2985
  124OSM   C13F13234   2.497   3.912   8.019  0.3961 -0.5409 -0.4414
  124OSM   H13F13235   2.394   3.922   7.979 -0.0445 -0.2345  0.7624
  124OSM   H13G13236   2.532   4.012   8.052 -1.9564  0.1007  0.2254
  124OSM   C14F13237   2.483   3.824   8.149 -0.0661 -0.2010  0.2208
  124OSM   H14F13238   2.431   3.731   8.116  1.9782 -0.9137 -1.1139
  124OSM   H14G13239   2.426   3.888   8.219  1.6806 -0.8493  2.2826
  124OSM   C15F13240   2.614   3.787   8.222  0.8130 -0.0464 -0.3234
  124OSM   H15F13241   2.672   3.882   8.215 -1.5780  1.4000 -0.8927
  124OSM   H15G13242   2.661   3.704   8.163 -0.1903  0.3173 -1.6543
  124OSM   C16F13243   2.590   3.733   8.366 -0.3941 -0.1134 -0.4086
  124OSM   H16F13244   2.677   3.669   8.392  0.5372  2.2197  2.5228
  124OSM   H16G13245   2.498   3.671   8.369 -0.0068 -0.6628  0.1139
  124OSM   C17F13246   2.573   3.845   8.467 -0.1615  0.3600 -0.1716
  124OSM   H17F13247   2.491   3.913   8.436 -0.8801 -0.8288 -0.8852
  124OSM   H17G13248   2.671   3.898   8.475 -1.5039  3.2246 -1.8433
  124OSM   C18F13249   2.539   3.789   8.605 -0.8678 -0.2404 -0.1510
  124OSM   H18F13250   2.513   3.867   8.680 -0.9373 -1.9500  1.6494
  124OSM   H18G13251   2.637   3.741   8.626  0.0220  1.7552  0.4355
  124OSM   H18H13252   2.456   3.717   8.622  2.0246 -3.4565  0.9060
  125OSM      N13253   5.427   3.173   6.291 -0.2531 -0.5039  0.0661
  125OSM    C1513254   5.380   3.291   6.367 -0.5664  0.3668  0.2085
  125OSM   H15A13255   5.459   3.359   6.395 -0.7445 -0.2905  2.4222
  125OSM   H15B13256   5.330   3.264   6.459 -0.9170  0.0418 -0.0769
  125OSM   H15C13257   5.314   3.347   6.304  0.3938  2.4274  0.9957
  125OSM    C1413258   5.307   3.110   6.234  0.6439  0.2783 -0.0401
  125OSM   H14A13259   5.235   3.086   6.311 -0.6566  0.7246 -1.0980
  125OSM   H14B13260   5.334   3.016   6.187 -1.0180 -0.5528  0.5923
  125OSM   H14C13261   5.263   3.171   6.157 -0.8131 -0.8965 -0.1773
  125OSM    C1313262   5.513   3.221   6.176 -0.0631 -0.4037 -0.3682
  125OSM   H13A13263   5.453   3.281   6.110 -2.7698 -0.2143  2.1547
  125OSM   H13B13264   5.551   3.134   6.125  0.3970 -0.6087  0.3174
  125OSM   H13C13265   5.598   3.278   6.213 -0.0021 -0.1418 -0.9027
  125OSM    C1213266   5.511   3.073   6.374  0.2119 -0.3588 -0.5245
  125OSM   H12A13267   5.450   3.033   6.453  0.5163 -1.4759 -0.8451
  125OSM   H12B13268   5.592   3.121   6.427  0.5970 -1.8304  0.2480
  125OSM    C1113269   5.562   2.945   6.300 -0.0338 -0.0855  0.3948
  125OSM   H11A13270   5.484   2.908   6.231 -0.6240  0.8974  0.5288
  125OSM   H11B13271   5.586   2.869   6.378  0.2185 -0.7460 -0.3258
  125OSM      P13272   5.818   2.988   6.294 -0.3311  0.5545  0.2617
  125OSM    O1313273   5.882   2.857   6.318 -0.0066 -0.0650  0.0694
  125OSM    O1413274   5.888   3.084   6.206  0.0302 -0.0759  0.4420
  125OSM    O1113275   5.789   3.066   6.427 -0.0432  0.9184  0.4368
  125OSM    O1213276   5.680   2.967   6.228  0.3267  0.5712  0.4077
  125OSM    C1S13277   5.888   3.073   6.527 -0.7124 -0.4675 -0.2342
  125OSM    H1S13278   5.936   3.174   6.533  1.8357 -1.7172  1.3748
  125OSM    H1T13279   5.981   3.016   6.507 -0.3375  0.4241 -1.1266
  125OSM     NF13280   5.769   2.914   6.671 -0.3940  0.0666  0.1154
  125OSM    HNF13281   5.671   2.910   6.652 -0.9374 -2.0869  3.0208
  125OSM    C2S13282   5.827   3.050   6.661  0.0934 -0.3409 -0.4107
  125OSM    H2S13283   5.916   3.058   6.727  0.4937 -1.0871 -0.8688
  125OSM    C3S13284   5.729   3.161   6.699  0.5576 -0.2534 -0.6132
  125OSM    H3S13285   5.639   3.148   6.635 -1.5817  1.7522  1.8598
  125OSM     O313286   5.757   3.301   6.673 -0.0853  0.3479 -0.0722
  125OSM    HO313287   5.851   3.316   6.665  0.2270 -0.1557  2.2829
  125OSM    C4S13288   5.692   3.142   6.847  0.0288  0.6568 -0.0058
  125OSM    H4S13289   5.613   3.066   6.858  0.1531  0.4169 -0.7561
  125OSM    C5S13290   5.729   3.220   6.952 -0.7102 -0.0894 -0.6264
  125OSM    H5S13291   5.791   3.310   6.943 -0.4903  0.4680  5.0123
  125OSM    C6S13292   5.683   3.202   7.095  0.6265 -0.2852 -0.3670
  125OSM    H6S13293   5.597   3.268   7.118  1.5408  0.6423  0.4850
  125OSM    H6T13294   5.775   3.222   7.155  1.2252  0.4305 -1.5050
  125OSM    C7S13295   5.627   3.069   7.139  0.2122 -0.3525  0.0172
  125OSM    H7S13296   5.532   3.056   7.083  0.0600 -1.1733  0.4487
  125OSM    H7T13297   5.597   3.066   7.246 -2.1759  1.2487 -0.5746
  125OSM    C8S13298   5.721   2.948   7.127 -0.1793  0.2929  0.1793
  125OSM    H8S13299   5.810   2.978   7.187  0.0968 -3.9397  2.0664
  125OSM    H8T13300   5.759   2.935   7.023 -1.5470 -2.1523 -0.0374
  125OSM    C9S13301   5.662   2.813   7.179  0.1123 -0.3508 -0.8407
  125OSM    H9S13302   5.748   2.749   7.147  0.3501 -1.0640  1.1541
  125OSM    H9T13303   5.571   2.791   7.119 -0.3779  0.2183 -0.3078
  125OSM   C10S13304   5.637   2.784   7.331 -0.0173 -0.3375 -0.6708
  125OSM   H10S13305   5.598   2.681   7.340  1.7458 -1.0915 -1.2888
  125OSM   H10T13306   5.552   2.849   7.358 -0.6414 -1.6770  0.6622
  125OSM   C11S13307   5.752   2.819   7.424 -0.0882  0.3326 -0.2210
  125OSM   H11S13308   5.802   2.914   7.393  1.8426 -0.1333  1.3657
  125OSM   H11T13309   5.827   2.740   7.402 -1.5330 -0.7812 -1.2709
  125OSM   C12S13310   5.714   2.839   7.575  0.5582  0.4051 -0.1169
  125OSM   H12S13311   5.812   2.842   7.628  1.3369  1.1003 -1.5766
  125OSM   H12T13312   5.659   2.751   7.616 -0.1794  1.7125  1.7818
  125OSM   C13S13313   5.632   2.964   7.603 -0.4201 -0.2283 -0.5575
  125OSM   H13S13314   5.538   2.965   7.544 -1.8698 -1.0966  1.6759
  125OSM   H13T13315   5.685   3.060   7.579 -0.9858  0.0005 -0.8905
  125OSM   C14S13316   5.592   2.968   7.752  0.1299 -0.0455 -0.1426
  125OSM   H14S13317   5.680   2.990   7.817  0.4428 -3.1997  0.6123
  125OSM   H14T13318   5.566   2.865   7.785  0.7702  0.0254  0.6020
  125OSM   C15S13319   5.485   3.077   7.781  0.0806 -0.3748  0.0708
  125OSM   H15S13320   5.410   3.081   7.699  0.7846  0.2713 -0.5529
  125OSM   H15T13321   5.539   3.173   7.773 -0.5287  0.0563  0.9960
  125OSM   C16S13322   5.435   3.075   7.926  0.3768  0.3293  0.0960
  125OSM   H16S13323   5.522   3.085   7.993  1.3367 -0.0952 -1.0715
  125OSM   H16T13324   5.381   2.982   7.955  0.6114  0.5999  1.4233
  125OSM   C17S13325   5.330   3.184   7.950  0.1562  0.1245 -0.2434
  125OSM   H17S13326   5.357   3.267   7.880  0.0516 -0.4290 -0.9447
  125OSM   H17T13327   5.339   3.223   8.053  1.2926  2.9951 -1.3612
  125OSM   C18S13328   5.176   3.151   7.917  0.7176  1.1659  0.0594
  125OSM   H18S13329   5.145   3.049   7.948 -2.7843  2.2818  0.4781
  125OSM   H18T13330   5.174   3.152   7.806 -1.8105  0.7427  0.0711
  125OSM   H18U13331   5.105   3.231   7.947 -0.2709  0.1737  0.4018
  125OSM    C1F13332   5.846   2.806   6.684  0.0990 -0.3109 -0.5007
  125OSM     OF13333   5.964   2.828   6.706  0.2851 -0.5377 -0.4358
  125OSM    C2F13334   5.776   2.670   6.671 -0.4538  0.6425 -0.3990
  125OSM    H2F13335   5.784   2.637   6.566 -1.1075  0.4349 -0.3859
  125OSM    H2G13336   5.668   2.689   6.688 -0.0643  1.7111  0.9858
  125OSM    C3F13337   5.822   2.557   6.765  0.0046  0.5576  0.3249
  125OSM    H3F13338   5.930   2.541   6.746  0.5428  2.9819  1.1437
  125OSM    H3G13339   5.762   2.464   6.749 -0.9485  0.7180  2.7387
  125OSM    C4F13340   5.817   2.596   6.914  0.5482  0.2527  0.4581
  125OSM    H4F13341   5.715   2.624   6.948 -0.6664  0.7223 -3.2826
  125OSM    H4G13342   5.886   2.673   6.953  2.1062 -0.2879 -1.1439
  125OSM    C5F13343   5.856   2.470   6.992  0.0765  0.9610 -0.2983
  125OSM    H5F13344   5.959   2.440   6.961 -0.7286 -0.4933 -1.6474
  125OSM    H5G13345   5.790   2.385   6.962 -0.9849  0.7464  2.4884
  125OSM    C6F13346   5.859   2.503   7.137 -0.2411  1.0091 -0.2681
  125OSM    H6F13347   5.753   2.526   7.163 -0.5282  0.6690 -1.1083
  125OSM    H6G13348   5.928   2.587   7.159  1.0092 -0.5049  1.7988
  125OSM    C7F13349   5.897   2.386   7.231  1.0262  0.2120  0.4282
  125OSM    H7F13350   5.993   2.333   7.211  0.9273  0.4382 -0.6781
  125OSM    H7G13351   5.811   2.316   7.242  1.1029  0.3131  1.7714
  125OSM    C8F13352   5.916   2.431   7.379  0.0541  0.3022 -0.3606
  125OSM    H8F13353   5.825   2.488   7.407  0.6052  1.4649 -0.9177
  125OSM    H8G13354   6.012   2.487   7.378  0.4210 -0.2353  1.2713
  125OSM    C9F13355   5.931   2.313   7.470 -0.2741  0.0451 -0.2311
  125OSM    H9F13356   5.878   2.222   7.438 -1.9333 -0.4591  3.6953
  125OSM   C10F13357   6.006   2.305   7.580 -1.1605  0.3978 -0.5966
  125OSM   H10F13358   6.001   2.207   7.628 -0.1620  1.0424  0.8712
  125OSM   C11F13359   6.099   2.406   7.651 -0.1461 -0.0336 -0.2274
  125OSM   H11F13360   6.109   2.495   7.586  0.0394  0.3153  0.2750
  125OSM   H11G13361   6.201   2.364   7.666 -0.3068  0.3250  2.0412
  125OSM   C12F13362   6.041   2.471   7.781  0.4755 -0.0537  0.3660
  125OSM   H12F13363   6.121   2.538   7.819  0.5036 -0.6554  1.3661
  125OSM   H12G13364   6.016   2.390   7.852  1.2305  0.9121  1.7591
  125OSM   C13F13365   5.910   2.550   7.750  0.2858  0.5213  0.4568
  125OSM   H13F13366   5.845   2.481   7.692  2.2218  2.1477 -3.9130
  125OSM   H13G13367   5.931   2.624   7.670  1.7686 -0.0246  0.3378
  125OSM   C14F13368   5.851   2.627   7.858  0.2882 -0.0011  0.3622
  125OSM   H14F13369   5.754   2.668   7.821  1.3051  1.0269 -1.2499
  125OSM   H14G13370   5.912   2.718   7.879  0.3589 -0.0542  0.3880
  125OSM   C15F13371   5.815   2.551   7.991 -0.5831  0.0379 -0.2858
  125OSM   H15F13372   5.912   2.531   8.043  0.6866  0.4367 -2.4662
  125OSM   H15G13373   5.768   2.455   7.964 -0.1312  0.2428 -1.8176
  125OSM   C16F13374   5.734   2.624   8.101  0.0031 -0.3320  0.3879
  125OSM   H16F13375   5.798   2.701   8.150  1.0349 -1.3585  0.6589
  125OSM   H16G13376   5.708   2.552   8.182 -0.1371 -0.7260 -0.0100
  125OSM   C17F13377   5.611   2.699   8.046 -0.3489 -0.2479  0.6305
  125OSM   H17F13378   5.538   2.631   7.999  1.2520 -0.4157 -1.6784
  125OSM   H17G13379   5.643   2.777   7.974 -1.5820  2.9808  3.4443
  125OSM   C18F13380   5.534   2.775   8.151 -0.1768 -0.1095  0.7548
  125OSM   H18F13381   5.428   2.778   8.121 -0.2658 -0.0394  1.0793
  125OSM   H18G13382   5.575   2.878   8.150  0.5144 -0.3847 -0.4786
  125OSM   H18H13383   5.552   2.727   8.250  2.0449  1.2915  1.0661
  126OSM      N13384   2.828   0.292   6.261  0.9459 -0.5023 -0.5689
  126OSM    C1513385   2.858   0.385   6.143 -0.1276 -0.7960  0.4460
  126OSM   H15A13386   2.764   0.429   6.114 -0.7733 -2.0100  0.7124
  126OSM   H15B13387   2.906   0.336   6.059  0.9478  0.1557  0.4798
  126OSM   H15C13388   2.924   0.463   6.179  0.3942 -0.9268 -0.2045
  126OSM    C1413389   2.941   0.198   6.298 -0.3037 -0.6278  0.2083
  126OSM   H14A13390   2.991   0.169   6.207 -1.4713 -0.1228 -0.5999
  126OSM   H14B13391   2.901   0.114   6.353  0.1381 -0.1241  1.3060
  126OSM   H14C13392   3.003   0.254   6.366  1.1387  1.2022 -2.5497
  126OSM    C1313393   2.809   0.369   6.390  0.1360 -0.8305  0.1258
  126OSM   H13A13394   2.778   0.304   6.471  2.8272 -0.6457  1.3464
  126OSM   H13B13395   2.723   0.432   6.376 -0.5182 -2.1944 -2.4195
  126OSM   H13C13396   2.892   0.434   6.415  1.2510 -2.3329  0.4325
  126OSM    C1213397   2.704   0.202   6.223 -0.4160 -0.1799 -0.3840
  126OSM   H12A13398   2.730   0.144   6.136  1.4389 -0.5011  0.3702
  126OSM   H12B13399   2.631   0.273   6.185 -0.6140  0.1914  0.6587
  126OSM    C1113400   2.629   0.119   6.334  0.2577  0.0130 -0.1088
  126OSM   H11A13401   2.541   0.071   6.285 -0.6156  3.1262 -1.7160
  126OSM   H11B13402   2.580   0.187   6.407  0.0184  1.0674 -1.2371
  126OSM      P13403   2.692  -0.048   6.540 -0.1678 -0.1965  0.4333
  126OSM    O1313404   2.673  -0.194   6.532  0.1817 -0.3564 -0.1998
  126OSM    O1413405   2.796   0.007   6.631 -0.0781  0.1339 -0.2184
  126OSM    O1113406   2.552   0.006   6.579  0.0609 -0.0997  0.2356
  126OSM    O1213407   2.711   0.024   6.400  0.0169 -0.1850 -0.2518
  126OSM    C1S13408   2.493  -0.033   6.704  0.5712  0.2183 -0.6254
  126OSM    H1S13409   2.549  -0.115   6.754  1.9078  1.0024 -0.8212
  126OSM    H1T13410   2.396  -0.086   6.691  0.5200  0.2587 -0.4183
  126OSM     NF13411   2.430   0.038   6.930  0.2077  0.0379 -0.7004
  126OSM    HNF13412   2.331   0.028   6.931  0.1910  0.1140 -1.1658
  126OSM    C2S13413   2.474   0.081   6.800 -0.0126 -0.1508  0.2852
  126OSM    H2S13414   2.572   0.132   6.812 -0.8008  1.4080  0.2075
  126OSM    C3S13415   2.382   0.197   6.743 -0.4318  0.1684 -0.4664
  126OSM    H3S13416   2.275   0.166   6.752 -1.0852  2.8269  1.6460
  126OSM     O313417   2.403   0.238   6.608 -0.1792 -0.2253 -0.2887
  126OSM    HO313418   2.473   0.175   6.590 -1.7129 -2.4646  1.2845
  126OSM    C4S13419   2.395   0.310   6.839  0.7045 -0.3742 -0.1313
  126OSM    H4S13420   2.314   0.318   6.913  1.6103 -0.7745  0.9084
  126OSM    C5S13421   2.505   0.389   6.854 -0.3868  0.4130 -1.3979
  126OSM    H5S13422   2.591   0.354   6.795 -1.2656 -1.1287 -1.7994
  126OSM    C6S13423   2.521   0.494   6.963  0.0933  0.1616  0.1115
  126OSM    H6S13424   2.520   0.595   6.916 -2.1974  0.5330  0.8811
  126OSM    H6T13425   2.619   0.485   7.014  1.6247  3.9105 -2.0235
  126OSM    C7S13426   2.421   0.493   7.084 -0.7013  0.2450 -0.2706
  126OSM    H7S13427   2.431   0.394   7.133 -0.2867 -0.3278 -1.4837
  126OSM    H7T13428   2.321   0.507   7.037 -0.2598  1.6130 -0.8270
  126OSM    C8S13429   2.458   0.601   7.181 -0.0645 -1.1008  0.0628
  126OSM    H8S13430   2.447   0.700   7.131  1.1688 -2.4951 -3.1097
  126OSM    H8T13431   2.563   0.590   7.215 -1.3334 -2.0880  3.8193
  126OSM    C9S13432   2.364   0.603   7.296  0.2900  0.5299  0.2333
  126OSM    H9S13433   2.374   0.506   7.350 -3.4428  0.5754  1.1388
  126OSM    H9T13434   2.260   0.608   7.257  0.9265  0.4002 -1.4971
  126OSM   C10S13435   2.381   0.725   7.390  0.4373 -0.5240  0.1798
  126OSM   H10S13436   2.378   0.822   7.335  1.5384 -0.4047  0.3085
  126OSM   H10T13437   2.478   0.711   7.443  0.5266 -0.2510  0.0886
  126OSM   C11S13438   2.280   0.741   7.500  0.2484 -0.5875 -0.0546
  126OSM   H11S13439   2.290   0.660   7.576 -2.6336  0.5333  1.6026
  126OSM   H11T13440   2.181   0.723   7.453 -0.4872  1.0612  0.7952
  126OSM   C12S13441   2.303   0.873   7.570 -0.7791  0.0527  0.5284
  126OSM   H12S13442   2.272   0.952   7.498  1.9363 -0.9540 -1.8427
  126OSM   H12T13443   2.404   0.890   7.614  1.1492 -1.5398 -3.0113
  126OSM   C13S13444   2.214   0.894   7.690  0.2856  0.3826 -0.1936
  126OSM   H13S13445   2.118   0.839   7.684  1.0432 -1.5068  3.3282
  126OSM   H13T13446   2.188   1.002   7.699 -1.2843 -0.0045  0.0519
  126OSM   C14S13447   2.275   0.851   7.822 -0.3677 -0.5444  0.0714
  126OSM   H14S13448   2.364   0.918   7.830 -0.5272 -0.2130 -0.8681
  126OSM   H14T13449   2.306   0.746   7.801  0.5215 -0.2322 -0.2157
  126OSM   C15S13450   2.176   0.851   7.941  0.3416  0.3786 -0.1439
  126OSM   H15S13451   2.132   0.749   7.953 -0.8112  1.0304  1.4074
  126OSM   H15T13452   2.085   0.912   7.922  0.6117  0.0749 -2.6091
  126OSM   C16S13453   2.239   0.895   8.074  0.2762 -0.2280 -0.0776
  126OSM   H16S13454   2.266   1.003   8.076  0.4261 -0.2255 -1.5580
  126OSM   H16T13455   2.324   0.829   8.099 -1.1515 -1.9374  0.4187
  126OSM   C17S13456   2.127   0.872   8.182 -0.6250 -0.4177  0.8535
  126OSM   H17S13457   2.099   0.767   8.160  0.1727 -0.4782  0.0881
  126OSM   H17T13458   2.038   0.932   8.151 -1.3357 -1.6629  0.4501
  126OSM   C18S13459   2.173   0.902   8.328  0.8175 -0.0406 -0.0703
  126OSM   H18S13460   2.081   0.933   8.380  0.4774  0.4766 -0.9751
  126OSM   H18T13461   2.260   0.970   8.332 -0.0987  1.2606 -1.6713
  126OSM   H18U13462   2.204   0.805   8.373  2.3658  0.1905 -0.5956
  126OSM    C1F13463   2.511  -0.014   7.018  0.0544  0.1494  0.7397
  126OSM     OF13464   2.626  -0.037   6.990  0.4736  0.6431 -0.0179
  126OSM    C2F13465   2.462  -0.040   7.156  0.3716  0.7961 -0.7286
  126OSM    H2F13466   2.454  -0.151   7.166  0.6033  0.9603  1.4337
  126OSM    H2G13467   2.364   0.012   7.165  0.8027  1.7773 -1.5790
  126OSM    C3F13468   2.553   0.018   7.267  0.2804 -0.9859 -0.2576
  126OSM    H3F13469   2.658  -0.019   7.256  0.5913  0.0765 -0.9518
  126OSM    H3G13470   2.512  -0.022   7.362  2.9214 -1.5981  0.6933
  126OSM    C4F13471   2.553   0.168   7.279  0.6630 -0.0609  0.0426
  126OSM    H4F13472   2.446   0.199   7.281  0.4780 -0.5367 -1.5729
  126OSM    H4G13473   2.601   0.226   7.198  2.6712 -0.1429  1.1535
  126OSM    C5F13474   2.625   0.227   7.399  0.4160 -0.4570  0.2798
  126OSM    H5F13475   2.629   0.336   7.378  1.2322 -0.6058 -0.3969
  126OSM    H5G13476   2.727   0.183   7.398  1.3579  1.6266 -2.2773
  126OSM    C6F13477   2.567   0.198   7.533 -0.2379 -0.1643  0.6426
  126OSM    H6F13478   2.549   0.088   7.538 -1.4765 -0.1274 -2.3355
  126OSM    H6G13479   2.475   0.253   7.559  0.0186 -0.4806  2.2721
  126OSM    C7F13480   2.665   0.232   7.648  0.3755 -0.1139  0.9481
  126OSM    H7F13481   2.714   0.330   7.628 -0.7516  0.7672  2.3699
  126OSM    H7G13482   2.748   0.160   7.661  0.2520 -0.8614 -2.0619
  126OSM    C8F13483   2.588   0.255   7.781  0.0838  0.2474  0.1588
  126OSM    H8F13484   2.667   0.245   7.859  0.6186  1.5869 -0.1936
  126OSM    H8G13485   2.524   0.165   7.797  1.4112 -0.5166  1.3909
  126OSM    C9F13486   2.517   0.386   7.785  0.1895  0.3612  0.0060
  126OSM    H9F13487   2.512   0.439   7.688  1.3525 -2.8152 -1.8426
  126OSM   C10F13488   2.479   0.451   7.893 -0.2298 -0.7148  0.2044
  126OSM   H10F13489   2.426   0.546   7.881 -0.0727 -0.2739  2.8730
  126OSM   C11F13490   2.484   0.407   8.035 -0.1644  0.3183  0.0874
  126OSM   H11F13491   2.485   0.296   8.034 -1.3108  0.3024 -0.0099
  126OSM   H11G13492   2.402   0.446   8.098  2.4826  3.0128  2.0051
  126OSM   C12F13493   2.621   0.458   8.086  0.0754  0.0340  0.2476
  126OSM   H12F13494   2.641   0.567   8.075 -0.2293  0.1579  0.8670
  126OSM   H12G13495   2.696   0.408   8.021  1.3600  0.2067  1.5760
  126OSM   C13F13496   2.635   0.424   8.229  0.8414 -0.9167  0.3442
  126OSM   H13F13497   2.595   0.324   8.255 -1.2189 -0.3735 -0.6600
  126OSM   H13G13498   2.563   0.486   8.286 -0.8330 -2.2600 -0.2705
  126OSM   C14F13499   2.782   0.429   8.282  0.5143 -0.6301  0.3439
  126OSM   H14F13500   2.836   0.521   8.254 -0.1200 -0.1055  0.8370
  126OSM   H14G13501   2.844   0.349   8.236  0.9392 -1.0525  1.6326
  126OSM   C15F13502   2.780   0.411   8.438 -0.3809 -0.1979 -0.0601
  126OSM   H15F13503   2.739   0.310   8.460 -0.6183 -0.6114 -2.2244
  126OSM   H15G13504   2.718   0.491   8.483 -1.1156 -1.0896  0.5211
  126OSM   C16F13505   2.914   0.436   8.502 -0.4031 -0.4473 -0.2360
  126OSM   H16F13506   2.933   0.539   8.464 -0.5504 -0.7721 -1.1976
  126OSM   H16G13507   3.001   0.380   8.462 -0.1812 -0.0509 -0.3172
  126OSM   C17F13508   2.913   0.431   8.657 -0.5471  0.0081  0.1707
  126OSM   H17F13509   2.828   0.488   8.700  0.1815  0.8025  0.5572
  126OSM   H17G13510   3.006   0.485   8.683 -0.5031  0.6864 -1.3218
  126OSM   C18F13511   2.906   0.284   8.696 -0.4165 -0.2815  0.0326
  126OSM   H18F13512   2.816   0.234   8.655 -0.5286 -0.8922  1.0051
  126OSM   H18G13513   2.906   0.286   8.807  1.0327  0.0292  0.0414
  126OSM   H18H13514   2.991   0.218   8.669 -0.2452  0.2387 -0.7396
  127OSM      N13515   1.503   1.010   6.499 -0.3068  0.2622 -0.2552
  127OSM    C1513516   1.641   0.977   6.455 -0.0031 -0.1298  0.1296
  127OSM   H15A13517   1.670   1.050   6.381  1.0610 -0.1237  0.5383
  127OSM   H15B13518   1.653   0.882   6.404 -0.3168 -1.2581  2.1305
  127OSM   H15C13519   1.712   0.990   6.535  1.1067  0.7375 -0.9879
  127OSM    C1413520   1.414   0.964   6.390  0.0903 -0.0741 -0.1059
  127OSM   H14A13521   1.312   0.990   6.415  1.0245  2.3268  1.3088
  127OSM   H14B13522   1.429   0.857   6.382 -2.6119 -0.5221  0.1954
  127OSM   H14C13523   1.443   1.010   6.297 -0.5494  2.4715  0.9337
  127OSM    C1313524   1.474   0.923   6.620  0.2756 -0.2368 -0.0681
  127OSM   H13A13525   1.502   0.819   6.611 -1.5759 -0.6332 -1.5010
  127OSM   H13B13526   1.366   0.920   6.621  0.2635 -0.7454 -1.8546
  127OSM   H13C13527   1.511   0.974   6.708 -1.2589  1.7612 -0.5331
  127OSM    C1213528   1.483   1.147   6.540 -0.2325 -0.3948 -0.2517
  127OSM   H12A13529   1.554   1.173   6.618  1.0102 -0.2909 -1.4011
  127OSM   H12B13530   1.389   1.147   6.593  0.0515  0.3707  0.2644
  127OSM    C1113531   1.488   1.262   6.434 -0.1245  0.2976 -0.0152
  127OSM   H11A13532   1.588   1.270   6.386  0.4081  0.9284  1.1715
  127OSM   H11B13533   1.470   1.359   6.484 -2.5605  0.6103 -1.4375
  127OSM      P13534   1.284   1.335   6.283  0.4667 -0.3012  0.1111
  127OSM    O1313535   1.345   1.455   6.223  0.2429 -0.0703 -0.4472
  127OSM    O1413536   1.184   1.269   6.193  0.1904 -0.0650  0.5205
  127OSM    O1113537   1.212   1.371   6.418 -0.3091  0.2443  0.1122
  127OSM    O1213538   1.394   1.235   6.324  0.1974  0.3776 -0.9323
  127OSM    C1S13539   1.125   1.278   6.480  0.1834 -0.5587 -0.0511
  127OSM    H1S13540   1.179   1.183   6.498 -1.2422 -1.4494 -0.4218
  127OSM    H1T13541   1.036   1.261   6.416  0.8076  1.5408 -1.5587
  127OSM     NF13542   1.052   1.220   6.714 -0.8631  0.0060 -0.5906
  127OSM    HNF13543   0.960   1.195   6.744 -0.8476 -1.9807 -2.0932
  127OSM    C2S13544   1.087   1.332   6.624 -0.1030 -0.3180 -0.0066
  127OSM    H2S13545   1.181   1.377   6.664 -0.2097 -0.6319  0.6030
  127OSM    C3S13546   0.987   1.440   6.603  0.6745 -1.3537 -0.0041
  127OSM    H3S13547   0.887   1.407   6.569 -1.5031  2.2668  2.4877
  127OSM     O313548   1.040   1.542   6.513  0.4433 -0.1794  0.0478
  127OSM    HO313549   1.117   1.499   6.476  1.5647  1.5814  0.2559
  127OSM    C4S13550   0.963   1.508   6.736 -0.0284  0.0193 -0.2949
  127OSM    H4S13551   0.883   1.464   6.798 -1.0445  0.9048 -0.9630
  127OSM    C5S13552   1.036   1.609   6.788  0.4876 -0.6473 -0.5090
  127OSM    H5S13553   1.122   1.653   6.736  0.0591  0.8093 -0.0000
  127OSM    C6S13554   1.013   1.673   6.926  0.1719  0.3857 -0.4001
  127OSM    H6S13555   0.982   1.777   6.903 -0.7117  0.6668  1.9887
  127OSM    H6T13556   1.112   1.674   6.977  0.0965  0.0871 -0.2482
  127OSM    C7S13557   0.908   1.605   7.023 -0.3174 -0.0973  0.7490
  127OSM    H7S13558   0.941   1.504   7.055 -1.4795 -0.4074  1.0000
  127OSM    H7T13559   0.813   1.591   6.967 -0.1086 -2.2935  0.9197
  127OSM    C8S13560   0.873   1.689   7.149  0.7667  0.1846  0.0596
  127OSM    H8S13561   0.789   1.638   7.200  2.2497  0.4643  2.8381
  127OSM    H8T13562   0.839   1.791   7.120  0.5760 -0.2562 -1.2893
  127OSM    C9S13563   0.997   1.698   7.238  0.3272 -0.6128  0.4145
  127OSM    H9S13564   1.077   1.741   7.175  0.6786  0.6916  1.7170
  127OSM    H9T13565   1.030   1.595   7.265  1.7622 -0.2659  0.0233
  127OSM   C10S13566   0.975   1.796   7.349 -0.3108 -0.6978 -0.3782
  127OSM   H10S13567   0.883   1.776   7.408  0.4460  0.1012  1.0960
  127OSM   H10T13568   0.971   1.895   7.298  0.9721 -0.7072 -0.4947
  127OSM   C11S13569   1.085   1.808   7.454 -0.3000 -0.3913 -0.1223
  127OSM   H11S13570   1.077   1.902   7.513  1.1215 -1.1270  1.2707
  127OSM   H11T13571   1.188   1.807   7.413  0.2049  1.3396  1.0243
  127OSM   C12S13572   1.082   1.695   7.549 -0.2566  0.2881  1.0587
  127OSM   H12S13573   1.111   1.593   7.516 -0.4051  1.0881 -1.6564
  127OSM   H12T13574   0.973   1.693   7.571 -0.2836  0.8438  0.9914
  127OSM   C13S13575   1.163   1.724   7.679  0.3141 -0.5180  0.8188
  127OSM   H13S13576   1.122   1.807   7.741 -3.9844 -1.5311 -0.4502
  127OSM   H13T13577   1.268   1.744   7.648 -0.0300  0.0513 -0.0153
  127OSM   C14S13578   1.164   1.602   7.772  0.6656 -0.7196  0.8489
  127OSM   H14S13579   1.245   1.613   7.847  0.3099  2.2627  0.8563
  127OSM   H14T13580   1.199   1.514   7.715  1.0178 -0.2544  0.3387
  127OSM   C15S13581   1.031   1.584   7.852 -0.3492  0.2292 -0.4535
  127OSM   H15S13582   0.951   1.547   7.785  0.1978  1.7242 -1.9669
  127OSM   H15T13583   0.985   1.685   7.861  0.8635  0.8511 -1.1049
  127OSM   C16S13584   1.034   1.505   7.986 -0.3224  0.2986  0.0860
  127OSM   H16S13585   0.930   1.499   8.024 -0.5904  1.0812 -0.4980
  127OSM   H16T13586   1.090   1.568   8.058 -0.6665 -0.1740  0.7622
  127OSM   C17S13587   1.103   1.368   7.973 -0.0091 -0.5246  0.1283
  127OSM   H17S13588   1.209   1.372   7.940  0.0817  1.4032  0.5534
  127OSM   H17T13589   1.051   1.313   7.891  1.9391 -1.0802 -0.7492
  127OSM   C18S13590   1.109   1.292   8.098 -0.1747 -0.3199  0.4961
  127OSM   H18S13591   1.004   1.275   8.129  0.4065 -0.1421  2.6592
  127OSM   H18T13592   1.161   1.346   8.181 -0.9343  1.4970 -0.1929
  127OSM   H18U13593   1.158   1.192   8.094  0.1585 -0.1181 -0.4998
  127OSM    C1F13594   1.143   1.136   6.760  0.3308  0.1562 -0.6874
  127OSM     OF13595   1.260   1.141   6.726  0.0377 -0.1827 -0.9089
  127OSM    C2F13596   1.094   1.024   6.854  0.6500  0.5383 -0.0054
  127OSM    H2F13597   1.026   0.954   6.800  0.4565 -0.2503  1.2370
  127OSM    H2G13598   1.038   1.079   6.932 -0.0078 -0.0983 -0.0298
  127OSM    C3F13599   1.209   0.947   6.926 -0.5953 -0.3805  0.1932
  127OSM    H3F13600   1.281   1.015   6.975 -1.7638  1.1088 -0.1229
  127OSM    H3G13601   1.265   0.885   6.852 -0.7645 -1.0637  0.6353
  127OSM    C4F13602   1.151   0.835   7.016 -0.4061 -0.8231  0.1732
  127OSM    H4F13603   1.086   0.770   6.954 -2.7554  2.8564 -1.3885
  127OSM    H4G13604   1.081   0.886   7.085 -0.6187 -1.3906  0.3705
  127OSM    C5F13605   1.259   0.763   7.087 -0.2445 -0.9336 -0.4340
  127OSM    H5F13606   1.356   0.804   7.050 -0.9585 -0.1663 -1.5211
  127OSM    H5G13607   1.248   0.656   7.062 -2.6868 -0.7865 -0.1390
  127OSM    C6F13608   1.260   0.784   7.240  0.0506  0.3265  0.5179
  127OSM    H6F13609   1.355   0.740   7.278  0.1723 -1.4956 -1.7445
  127OSM    H6G13610   1.174   0.752   7.303 -1.5331  1.1754 -1.1804
  127OSM    C7F13611   1.288   0.934   7.283  0.1334  0.4654  0.1708
  127OSM    H7F13612   1.199   0.992   7.250  0.6411  0.5262 -1.1538
  127OSM    H7G13613   1.363   0.972   7.210 -0.7817  1.8670 -0.0383
  127OSM    C8F13614   1.316   0.950   7.439  0.0059 -0.2653 -0.4621
  127OSM    H8F13615   1.413   0.904   7.470  0.2596  1.4016  1.3015
  127OSM    H8G13616   1.239   0.908   7.507  0.0174 -0.6609 -0.6918
  127OSM    C9F13617   1.336   1.098   7.451  0.1053  0.2896  0.0510
  127OSM    H9F13618   1.426   1.124   7.393  0.2218 -1.9313 -0.8082
  127OSM   C10F13619   1.246   1.178   7.506  0.1718  0.3076 -0.4971
  127OSM   H10F13620   1.256   1.285   7.485 -1.8789  0.2894 -1.7345
  127OSM   C11F13621   1.117   1.135   7.575  0.5486  0.1170 -0.0958
  127OSM   H11F13622   1.140   1.148   7.683 -0.7002 -0.5989  0.2694
  127OSM   H11G13623   1.075   1.032   7.565  2.3347 -0.9181  2.6067
  127OSM   C12F13624   1.000   1.246   7.568  0.3169  0.5277  0.1348
  127OSM   H12F13625   1.040   1.350   7.575 -1.6950  1.4524 -1.5053
  127OSM   H12G13626   0.934   1.230   7.656 -0.2991  0.7808 -0.2799
  127OSM   C13F13627   0.905   1.225   7.444  0.0969  0.4731  1.0920
  127OSM   H13F13628   0.833   1.310   7.442 -0.1457  0.2669 -2.9459
  127OSM   H13G13629   0.856   1.126   7.443  0.4829  0.2840  1.1183
  127OSM   C14F13630   0.979   1.253   7.309 -0.3777  0.5030  0.6888
  127OSM   H14F13631   1.056   1.173   7.301 -0.1069  0.7871  0.4496
  127OSM   H14G13632   1.019   1.356   7.320 -1.0856  0.9791 -1.0040
  127OSM   C15F13633   0.898   1.244   7.191 -0.2616  0.0618  0.8115
  127OSM   H15F13634   0.886   1.141   7.151 -1.7693  1.2627 -1.9974
  127OSM   H15G13635   0.945   1.295   7.104  1.3548 -1.5805  0.6958
  127OSM   C16F13636   0.755   1.293   7.199  0.2418  0.2586  0.1848
  127OSM   H16F13637   0.765   1.396   7.240  0.6051  0.1636  0.3417
  127OSM   H16G13638   0.692   1.234   7.269 -0.3868  1.0379  0.2804
  127OSM   C17F13639   0.686   1.325   7.060  0.1150 -0.6763  0.1679
  127OSM   H17F13640   0.666   1.224   7.019  0.7460 -0.1489 -1.4853
  127OSM   H17G13641   0.758   1.372   6.989  1.1239 -2.0843  0.2326
  127OSM   C18F13642   0.566   1.416   7.073  0.7555 -0.6931 -0.4170
  127OSM   H18F13643   0.502   1.375   7.154  1.3909 -0.8593  0.0008
  127OSM   H18G13644   0.509   1.417   6.977  2.0546 -0.4892 -1.1961
  127OSM   H18H13645   0.601   1.517   7.105 -0.5335 -0.5842  0.6739
  128OSM      N13646   1.595   4.901   6.045  0.2984 -0.5553  0.9102
  128OSM    C1513647   1.504   4.786   6.083  0.0198 -0.7849 -0.1854
  128OSM   H15A13648   1.434   4.806   6.163  0.5072  0.2356  0.0063
  128OSM   H15B13649   1.563   4.700   6.111 -0.7090 -1.3404 -0.3462
  128OSM   H15C13650   1.451   4.758   5.993  0.7247  0.7288 -1.0979
  128OSM    C1413651   1.698   4.843   5.956  0.1457  0.2791 -0.2275
  128OSM   H14A13652   1.754   4.768   6.009 -1.1372 -3.7439 -4.1967
  128OSM   H14B13653   1.763   4.917   5.913 -0.3246 -1.0680 -3.4926
  128OSM   H14C13654   1.643   4.793   5.877  0.4989 -0.3694 -0.0667
  128OSM    C1313655   1.523   5.016   5.970 -0.0694 -0.4911  0.0900
  128OSM   H13A13656   1.428   5.033   6.018 -0.3098 -1.4081 -0.0406
  128OSM   H13B13657   1.499   4.986   5.869 -0.3935 -3.7277  1.0623
  128OSM   H13C13658   1.590   5.100   5.959  0.3800 -1.2395 -3.3838
  128OSM    C1213659   1.660   4.944   6.173 -0.5059  0.4964 -0.1058
  128OSM   H12A13660   1.740   5.012   6.147 -0.3988  0.0773 -0.8902
  128OSM   H12B13661   1.712   4.859   6.216 -0.3029  1.7087  2.1456
  128OSM    C1113662   1.577   5.022   6.283  0.8646  0.2909 -0.9246
  128OSM   H11A13663   1.621   5.018   6.385  2.5844  0.5982 -1.6435
  128OSM   H11B13664   1.491   4.955   6.305  1.3419  0.5970  2.0942
  128OSM      P13665   1.413   5.227   6.283  0.3900  0.2067 -0.1293
  128OSM    O1313666   1.429   5.366   6.245 -0.7619  0.5567  0.0367
  128OSM    O1413667   1.290   5.156   6.249 -0.5761 -0.6312  0.2032
  128OSM    O1113668   1.417   5.230   6.441 -0.0079 -0.1893  0.3468
  128OSM    O1213669   1.543   5.152   6.243  0.0811  0.8010  0.2004
  128OSM    C1S13670   1.343   5.123   6.515  0.3824  1.0534  0.0075
  128OSM    H1S13671   1.389   5.022   6.512  0.5171  1.0974  0.6467
  128OSM    H1T13672   1.239   5.116   6.476  0.2370 -1.3493  0.7627
  128OSM     NF13673   1.258   5.053   6.746 -0.6702 -0.5875  0.0617
  128OSM    HNF13674   1.162   5.066   6.772 -1.4016 -2.2126 -1.7300
  128OSM    C2S13675   1.326   5.159   6.673  0.0108 -0.8828  0.4300
  128OSM    H2S13676   1.426   5.181   6.716  0.8558  0.2421 -2.0345
  128OSM    C3S13677   1.245   5.292   6.679 -0.4222 -0.2646 -0.3196
  128OSM    H3S13678   1.139   5.271   6.654  0.7515 -3.2861 -3.1336
  128OSM     O313679   1.278   5.396   6.584 -0.0041 -0.6661 -0.2276
  128OSM    HO313680   1.342   5.360   6.521  0.3590  0.4634 -0.5096
  128OSM    C4S13681   1.259   5.348   6.818 -0.1740  0.3782 -0.5015
  128OSM    H4S13682   1.357   5.385   6.850 -0.0106 -1.6754  1.5120
  128OSM    C5S13683   1.158   5.352   6.908 -0.8148  0.1178  0.3966
  128OSM    H5S13684   1.053   5.323   6.891  0.2798 -3.7367 -0.2761
  128OSM    C6S13685   1.173   5.401   7.052 -0.1069  0.5677  0.4219
  128OSM    H6S13686   1.078   5.385   7.106  0.6933  0.5218  1.8408
  128OSM    H6T13687   1.187   5.511   7.056 -0.4995  0.6103  0.5684
  128OSM    C7S13688   1.288   5.352   7.139 -0.4705 -0.6164  1.0105
  128OSM    H7S13689   1.388   5.351   7.091  0.9239 -0.0599  3.7989
  128OSM    H7T13690   1.261   5.246   7.160  0.7557 -1.2101 -0.3652
  128OSM    C8S13691   1.305   5.430   7.276 -0.4787 -0.4448  0.6063
  128OSM    H8S13692   1.205   5.456   7.316  0.8131  1.0200  2.9764
  128OSM    H8T13693   1.356   5.525   7.250 -1.4276 -0.4163 -1.2128
  128OSM    C9S13694   1.381   5.351   7.380 -0.1650 -0.3168  0.1893
  128OSM    H9S13695   1.483   5.317   7.354  0.7078 -0.3283  3.3972
  128OSM    H9T13696   1.321   5.258   7.385 -2.8870  1.1616 -3.1560
  128OSM   C10S13697   1.386   5.426   7.511 -0.2959 -0.2711 -0.6366
  128OSM   H10S13698   1.311   5.508   7.510 -1.4958 -1.2988  2.1592
  128OSM   H10T13699   1.487   5.473   7.513 -0.1401 -0.6494  2.6076
  128OSM   C11S13700   1.362   5.320   7.620 -0.6165 -0.2964  0.5340
  128OSM   H11S13701   1.447   5.248   7.617  0.5108  1.0701 -0.7462
  128OSM   H11T13702   1.273   5.259   7.593 -2.7899  2.2533  1.7143
  128OSM   C12S13703   1.344   5.380   7.757 -0.3869 -0.1472  0.1074
  128OSM   H12S13704   1.271   5.463   7.773 -0.5879  0.0785 -1.8967
  128OSM   H12T13705   1.448   5.411   7.780 -0.4991  1.8157 -1.8540
  128OSM   C13S13706   1.306   5.281   7.864 -0.8330 -0.0684 -0.1693
  128OSM   H13S13707   1.352   5.182   7.844 -0.9285 -0.2995  0.7411
  128OSM   H13T13708   1.198   5.256   7.853 -1.0759  0.6104  0.5959
  128OSM   C14S13709   1.349   5.335   8.002 -0.0572  0.3125 -0.4789
  128OSM   H14S13710   1.309   5.435   8.029 -0.7090 -0.5056  1.6432
  128OSM   H14T13711   1.459   5.345   7.994  0.0311  1.1255  1.6109
  128OSM   C15S13712   1.317   5.234   8.116 -0.2368 -0.0191  0.2588
  128OSM   H15S13713   1.348   5.277   8.214 -0.0407  0.3778  0.0234
  128OSM   H15T13714   1.382   5.146   8.097  0.7994  0.9827 -0.8976
  128OSM   C16S13715   1.172   5.189   8.129  0.2144 -0.5023  0.5215
  128OSM   H16S13716   1.149   5.132   8.036  5.0298 -0.8679 -0.6049
  128OSM   H16T13717   1.111   5.281   8.141 -0.0369 -0.5025 -0.6512
  128OSM   C17S13718   1.139   5.101   8.250 -0.4400 -0.2256 -0.3617
  128OSM   H17S13719   1.145   5.162   8.343 -2.2350 -0.4348 -0.1012
  128OSM   H17T13720   1.217   5.022   8.250 -2.6870 -2.5014  0.8029
  128OSM   C18S13721   1.000   5.037   8.246 -0.4336 -0.2397  0.0968
  128OSM   H18S13722   0.925   5.111   8.279  0.3132  0.8202 -0.5728
  128OSM   H18T13723   0.989   4.953   8.318  0.3211  0.0258  0.5317
  128OSM   H18U13724   0.980   5.010   8.141 -0.8590  0.0950  0.0919
  128OSM    C1F13725   1.316   4.938   6.775 -0.1057  0.6255  0.4207
  128OSM     OF13726   1.434   4.919   6.740 -0.0161 -0.1199  0.2622
  128OSM    C2F13727   1.238   4.829   6.849  0.4211  0.2308 -0.0735
  128OSM    H2F13728   1.210   4.751   6.776  0.9483  1.0822 -1.2098
  128OSM    H2G13729   1.143   4.861   6.897  1.3944  0.0421  2.0607
  128OSM    C3F13730   1.320   4.750   6.954  0.0959  0.4617  0.4804
  128OSM    H3F13731   1.408   4.713   6.898 -1.3718 -0.1503 -1.5036
  128OSM    H3G13732   1.258   4.665   6.990  0.5013 -0.5162 -1.0773
  128OSM    C4F13733   1.361   4.835   7.072  0.4517  0.3090 -0.8451
  128OSM    H4F13734   1.421   4.922   7.039  1.0211  0.4432  0.5270
  128OSM    H4G13735   1.416   4.769   7.142  0.3955 -0.0923 -1.1697
  128OSM    C5F13736   1.244   4.883   7.157  0.6366  0.8609  0.4019
  128OSM    H5F13737   1.159   4.812   7.168  1.7641 -0.8131 -1.4692
  128OSM    H5G13738   1.198   4.966   7.099  0.8340  2.6631  2.7249
  128OSM    C6F13739   1.283   4.938   7.294  0.2074  0.3483 -0.8325
  128OSM    H6F13740   1.334   5.037   7.290 -0.9383  1.0256  0.8550
  128OSM    H6G13741   1.354   4.867   7.341  1.5470  1.3135 -1.3503
  128OSM    C7F13742   1.174   4.943   7.406  0.3062  0.0551  0.3763
  128OSM    H7F13743   1.103   4.861   7.383 -0.6802  0.8341  0.5719
  128OSM    H7G13744   1.123   5.040   7.388  0.1504  0.1275  1.2158
  128OSM    C8F13745   1.230   4.926   7.548 -0.2429 -0.2804 -0.5587
  128OSM    H8F13746   1.318   4.995   7.546 -1.5044  1.5189  2.5574
  128OSM    H8G13747   1.270   4.822   7.551  2.6559  0.7844  0.0439
  128OSM    C9F13748   1.145   4.966   7.660 -0.1567  0.1492  0.4845
  128OSM    H9F13749   1.063   5.037   7.642 -1.2697 -1.4983 -1.0463
  128OSM   C10F13750   1.162   4.940   7.787 -0.4729  0.1248  0.4376
  128OSM   H10F13751   1.105   4.988   7.867 -0.6590 -0.3778  0.6106
  128OSM   C11F13752   1.285   4.861   7.840 -0.3461  1.0867  0.4483
  128OSM   H11F13753   1.377   4.918   7.817  0.2350 -0.0834 -0.1746
  128OSM   H11G13754   1.287   4.760   7.793  1.8822  0.0756  2.6245
  128OSM   C12F13755   1.269   4.847   7.992 -0.2591 -0.0609  1.2935
  128OSM   H12F13756   1.160   4.829   8.009 -0.4815 -2.2458 -2.0956
  128OSM   H12G13757   1.288   4.948   8.034 -1.7750  0.0886  1.6581
  128OSM   C13F13758   1.364   4.737   8.044 -0.5704 -0.4616  0.3025
  128OSM   H13F13759   1.465   4.764   8.004 -1.4675  0.7388 -1.2046
  128OSM   H13G13760   1.348   4.638   7.996  1.4579 -0.2466 -0.9005
  128OSM   C14F13761   1.358   4.725   8.189 -0.4272 -0.1318 -1.2709
  128OSM   H14F13762   1.365   4.828   8.229 -4.7018 -0.6332  1.0396
  128OSM   H14G13763   1.454   4.669   8.201 -0.2885  0.3630  0.0299
  128OSM   C15F13764   1.241   4.652   8.252 -0.8266  0.5959  0.0271
  128OSM   H15F13765   1.251   4.542   8.241 -0.4375  0.4513  1.6002
  128OSM   H15G13766   1.144   4.685   8.211 -0.9891  0.2539  0.1303
  128OSM   C16F13767   1.229   4.668   8.407  0.3588  0.6791  0.4726
  128OSM   H16F13768   1.146   4.602   8.440  1.2522 -0.6807  0.0635
  128OSM   H16G13769   1.207   4.775   8.426  1.6477  0.9041  0.7649
  128OSM   C17F13770   1.352   4.619   8.484  0.6613 -0.5064  0.5194
  128OSM   H17F13771   1.435   4.688   8.458 -1.4902  1.7358 -0.6075
  128OSM   H17G13772   1.369   4.518   8.441 -1.5675 -0.9580  0.6213
  128OSM   C18F13773   1.341   4.609   8.637 -0.1665 -0.4346 -0.0545
  128OSM   H18F13774   1.323   4.710   8.681 -1.1075 -0.8970  0.6302
  128OSM   H18G13775   1.425   4.561   8.692  0.0514  1.5644  1.4352
  128OSM   H18H13776   1.254   4.543   8.658  0.5581 -1.0312  1.1259
  129OSM      N13777   5.952   6.289   5.885  0.3765  0.3609  0.3451
  129OSM    C1513778   6.035   6.328   6.004 -0.0897 -0.1019  0.2912
  129OSM   H15A13779   6.010   6.273   6.093 -3.0292  3.0871  1.5566
  129OSM   H15B13780   6.023   6.430   6.039  0.8504 -0.1108  0.6677
  129OSM   H15C13781   6.140   6.316   5.981 -0.8218 -1.5556 -2.5271
  129OSM    C1413782   6.045   6.307   5.770  0.3998 -0.8578 -0.2342
  129OSM   H14A13783   6.119   6.229   5.768  0.1621 -1.0655 -2.6966
  129OSM   H14B13784   6.089   6.404   5.788 -1.3534 -0.0391 -0.2447
  129OSM   H14C13785   5.990   6.304   5.677  0.1779  1.5555 -0.2145
  129OSM    C1313786   5.922   6.142   5.895  0.3308 -0.4086  0.2750
  129OSM   H13A13787   5.874   6.115   5.988  0.5344 -0.2673  0.4227
  129OSM   H13B13788   6.015   6.087   5.907  0.4074  0.0392  1.9028
  129OSM   H13C13789   5.875   6.098   5.809 -1.1994  0.9502  0.3941
  129OSM    C1213790   5.826   6.372   5.869  0.2377 -0.2741 -0.6512
  129OSM   H12A13791   5.760   6.343   5.949 -1.3123  0.8503 -1.5087
  129OSM   H12B13792   5.775   6.335   5.781 -1.1123 -0.4110  0.1870
  129OSM    C1113793   5.843   6.526   5.858 -0.0786 -0.0667 -0.2003
  129OSM   H11A13794   5.747   6.575   5.831 -0.4306  0.9963  2.8221
  129OSM   H11B13795   5.901   6.552   5.767 -0.8108  1.0619 -0.3721
  129OSM      P13796   5.818   6.619   6.097 -0.0990  0.2473 -0.1586
  129OSM    O1313797   5.899   6.596   6.222  0.3157 -0.6382 -0.5931
  129OSM    O1413798   5.754   6.745   6.077 -0.1808 -0.3245  0.3756
  129OSM    O1113799   5.701   6.508   6.091  0.1731  0.2276 -0.3886
  129OSM    O1213800   5.908   6.585   5.974  0.6645  0.0345 -0.9507
  129OSM    C1S13801   5.666   6.430   6.199  0.4239  0.0318 -0.1057
  129OSM    H1S13802   5.752   6.376   6.245  0.2892 -2.6980 -2.8589
  129OSM    H1T13803   5.590   6.360   6.157  0.4737 -0.3534  0.4371
  129OSM     NF13804   5.569   6.448   6.427 -0.1747 -0.6051 -0.3879
  129OSM    HNF13805   5.487   6.390   6.433 -0.6465  0.0218 -0.7647
  129OSM    C2S13806   5.588   6.519   6.306  0.3549  0.1145  0.4144
  129OSM    H2S13807   5.652   6.607   6.332 -0.5254  0.5770  1.0705
  129OSM    C3S13808   5.450   6.574   6.244  1.4081  0.2049  0.1502
  129OSM    H3S13809   5.378   6.489   6.237  0.0573  1.2886  0.7598
  129OSM     O313810   5.460   6.633   6.111  0.0214 -0.1101 -0.2027
  129OSM    HO313811   5.548   6.612   6.079  0.9256  1.3027  1.2908
  129OSM    C4S13812   5.401   6.681   6.333  0.2042 -0.0753 -0.8529
  129OSM    H4S13813   5.443   6.780   6.310  1.5238 -1.1578 -3.3184
  129OSM    C5S13814   5.304   6.666   6.426  0.1827 -0.8542 -0.1455
  129OSM    H5S13815   5.260   6.566   6.437  0.0559 -0.6816  0.9193
  129OSM    C6S13816   5.244   6.769   6.519 -0.1527  0.1568 -0.1950
  129OSM    H6S13817   5.230   6.742   6.626 -2.5314  2.2747  0.0942
  129OSM    H6T13818   5.138   6.786   6.489  0.6842 -0.7188 -3.7756
  129OSM    C7S13819   5.311   6.904   6.506  0.6512 -0.6694  0.0746
  129OSM    H7S13820   5.257   6.981   6.565  4.7920  1.9831  0.6519
  129OSM    H7T13821   5.324   6.946   6.404 -0.8892 -0.3554  0.0018
  129OSM    C8S13822   5.452   6.923   6.574  0.3567 -0.2541 -0.7748
  129OSM    H8S13823   5.514   6.998   6.520 -0.6246 -0.1130 -1.7157
  129OSM    H8T13824   5.507   6.827   6.569 -0.8307 -0.9393 -0.6683
  129OSM    C9S13825   5.449   6.980   6.715 -0.5037 -0.5229 -0.0622
  129OSM    H9S13826   5.404   7.081   6.716 -0.9564 -0.6816 -2.5678
  129OSM    H9T13827   5.550   6.988   6.761  0.1556 -0.8320 -1.4331
  129OSM   C10S13828   5.379   6.889   6.822 -1.2953  0.3446 -0.0357
  129OSM   H10S13829   5.398   6.783   6.795  2.4156  0.2171  2.7969
  129OSM   H10T13830   5.268   6.898   6.826 -1.7458 -3.5108 -1.3833
  129OSM   C11S13831   5.428   6.897   6.973 -0.3284 -0.7577  0.4772
  129OSM   H11S13832   5.372   6.980   7.021 -0.4469 -1.5755  1.7954
  129OSM   H11T13833   5.533   6.934   6.979 -0.0958 -1.3153 -0.0344
  129OSM   C12S13834   5.416   6.766   7.050  0.1132  0.2653  0.7801
  129OSM   H12S13835   5.432   6.684   6.977  0.6200  0.6134  0.4884
  129OSM   H12T13836   5.311   6.771   7.086  0.8715  2.9488  2.8068
  129OSM   C13S13837   5.518   6.738   7.167  0.6406  0.0784 -0.0519
  129OSM   H13S13838   5.624   6.722   7.138  0.5007 -1.6079  0.3424
  129OSM   H13T13839   5.484   6.638   7.199 -0.5858 -0.7805 -3.8064
  129OSM   C14S13840   5.506   6.852   7.279  0.2299 -0.0106 -0.2820
  129OSM   H14S13841   5.397   6.869   7.290  0.0809 -1.6740  0.9912
  129OSM   H14T13842   5.564   6.940   7.245 -1.7238  0.0608 -3.6525
  129OSM   C15S13843   5.581   6.810   7.407  0.5781  0.0990 -0.2793
  129OSM   H15S13844   5.610   6.895   7.472  1.5912 -2.4110  2.7002
  129OSM   H15T13845   5.673   6.765   7.364  1.5728 -0.8851  2.7408
  129OSM   C16S13846   5.505   6.714   7.509 -0.1597 -0.3013  0.5770
  129OSM   H16S13847   5.471   6.637   7.436  1.1298 -0.0253 -0.3292
  129OSM   H16T13848   5.409   6.756   7.546  0.4371  3.0445 -1.4489
  129OSM   C17S13849   5.591   6.658   7.622  0.0769  0.0834 -0.3676
  129OSM   H17S13850   5.645   6.747   7.659 -2.0901  0.4457  2.0270
  129OSM   H17T13851   5.663   6.585   7.578  0.9426  0.1855  0.8762
  129OSM   C18S13852   5.522   6.581   7.739 -0.2574  0.7167 -0.0840
  129OSM   H18S13853   5.579   6.572   7.834 -0.3164  2.2862  0.1179
  129OSM   H18T13854   5.479   6.482   7.711  2.3413 -0.7404  0.9047
  129OSM   H18U13855   5.444   6.657   7.762  0.9918  1.4533  1.8265
  129OSM    C1F13856   5.669   6.421   6.516 -0.2340  0.1266 -0.8989
  129OSM     OF13857   5.784   6.460   6.503 -0.3848 -0.2242 -0.3579
  129OSM    C2F13858   5.631   6.319   6.621  0.2495  0.1670 -0.6952
  129OSM    H2F13859   5.598   6.230   6.564  1.5251 -0.4679 -0.4718
  129OSM    H2G13860   5.541   6.352   6.677 -1.8832 -4.8203 -0.9707
  129OSM    C3F13861   5.753   6.289   6.712 -0.3055 -0.4094  0.1027
  129OSM    H3F13862   5.807   6.375   6.756 -0.8944 -0.5826  1.1835
  129OSM    H3G13863   5.821   6.228   6.648 -0.2440 -2.4498  2.0512
  129OSM    C4F13864   5.714   6.196   6.824  0.0328 -0.7099  0.3335
  129OSM    H4F13865   5.802   6.139   6.860 -0.7161 -2.1632 -0.0917
  129OSM    H4G13866   5.641   6.124   6.782 -2.7909  1.1508  1.8571
  129OSM    C5F13867   5.659   6.269   6.949 -0.7522  0.4043  0.2138
  129OSM    H5F13868   5.619   6.192   7.018  1.0539  1.4490  2.4873
  129OSM    H5G13869   5.579   6.340   6.919  0.8438  1.6968 -1.1125
  129OSM    C6F13870   5.768   6.341   7.030 -0.0186 -0.0507  0.3657
  129OSM    H6F13871   5.811   6.425   6.972 -0.1472 -0.1785  0.0872
  129OSM    H6G13872   5.852   6.269   7.038  0.1238 -0.0613 -1.1008
  129OSM    C7F13873   5.715   6.399   7.164  0.2593 -0.3374 -0.6148
  129OSM    H7F13874   5.642   6.478   7.137  0.2134 -0.2763 -0.3130
  129OSM    H7G13875   5.797   6.461   7.207 -0.2061  0.7795 -1.3063
  129OSM    C8F13876   5.658   6.290   7.263  0.5448 -0.9944  0.4935
  129OSM    H8F13877   5.743   6.218   7.266  0.3637 -1.1620  1.9044
  129OSM    H8G13878   5.569   6.236   7.224  0.2696  0.0303 -0.3174
  129OSM    C9F13879   5.613   6.342   7.399 -0.2716 -0.2981  0.1964
  129OSM    H9F13880   5.583   6.447   7.396  2.3398  0.5469  1.2859
  129OSM   C10F13881   5.627   6.279   7.520  0.1430  0.5062 -0.1286
  129OSM   H10F13882   5.591   6.339   7.605  1.7231  1.9084 -0.4227
  129OSM   C11F13883   5.686   6.145   7.551  0.5901  0.3826  0.4386
  129OSM   H11F13884   5.704   6.092   7.455 -1.8506 -1.4143  0.9185
  129OSM   H11G13885   5.613   6.076   7.600  0.0919  0.6310  0.0538
  129OSM   C12F13886   5.820   6.148   7.629 -0.1850  0.3343 -0.7712
  129OSM   H12F13887   5.897   6.204   7.571  1.6050  0.7668  1.9109
  129OSM   H12G13888   5.862   6.046   7.634  2.4480  1.4295  0.8861
  129OSM   C13F13889   5.824   6.204   7.773 -0.4982  0.6137  0.7217
  129OSM   H13F13890   5.741   6.155   7.828 -0.3442  1.5819  1.8462
  129OSM   H13G13891   5.801   6.311   7.754 -3.6356 -0.2452 -0.7207
  129OSM   C14F13892   5.959   6.183   7.841  0.2519 -0.5858  0.5061
  129OSM   H14F13893   6.037   6.220   7.771  1.0783 -1.8216  0.7554
  129OSM   H14G13894   5.966   6.073   7.855  1.2118 -0.3681  1.9043
  129OSM   C15F13895   5.957   6.253   7.981  0.2953  0.7996  0.3454
  129OSM   H15F13896   6.050   6.220   8.031  1.4645  4.2641  0.5958
  129OSM   H15G13897   5.865   6.209   8.026  1.7780 -2.8182 -0.0623
  129OSM   C16F13898   5.970   6.409   7.990  0.5384 -0.0002 -0.1139
  129OSM   H16F13899   5.875   6.448   7.949 -0.1847 -0.3076  1.2140
  129OSM   H16G13900   6.049   6.439   7.918  1.7955  0.6200  1.5026
  129OSM   C17F13901   6.025   6.463   8.120 -0.4286  0.3954  0.0323
  129OSM   H17F13902   6.104   6.395   8.160  0.0341  0.0339 -1.4839
  129OSM   H17G13903   5.938   6.462   8.189 -0.9609 -0.1211 -0.6376
  129OSM   C18F13904   6.084   6.596   8.104  0.8161  0.6400 -0.2001
  129OSM   H18F13905   6.172   6.604   8.037  0.7925  1.6404 -0.1159
  129OSM   H18G13906   6.114   6.636   8.203  1.6105  3.1563 -1.4363
  129OSM   H18H13907   6.010   6.672   8.071 -1.0339  0.5753  3.4919
  130OSM      N13908   0.013   3.506   6.113  0.4144 -0.8563 -0.0267
  130OSM    C1513909   0.149   3.454   6.142 -0.1884  0.4352 -0.4744
  130OSM   H15A13910   0.219   3.526   6.181  0.1652 -0.1123 -0.0927
  130OSM   H15B13911   0.192   3.415   6.051  3.3107  0.7894  0.9491
  130OSM   H15C13912   0.137   3.376   6.215  0.2393  0.2029 -0.6530
  130OSM    C1413913   0.032   3.604   5.996 -0.2087 -0.3524 -0.2374
  130OSM   H14A13914   0.090   3.692   6.020  2.6755 -2.3128  0.2601
  130OSM   H14B13915  -0.058   3.639   5.948 -0.4132  2.7027  2.2027
  130OSM   H14C13916   0.091   3.567   5.914  3.0978 -1.1547  2.3686
  130OSM    C1313917  -0.066   3.393   6.062 -0.0994 -0.3872  0.0293
  130OSM   H13A13918  -0.168   3.423   6.044 -0.4928 -0.6249  1.7159
  130OSM   H13B13919  -0.065   3.310   6.132 -0.1756  0.0083  0.5030
  130OSM   H13C13920  -0.031   3.352   5.969 -0.0457  0.4719 -0.3265
  130OSM    C1213921  -0.047   3.571   6.238  0.4418  0.1029 -0.6125
  130OSM   H12A13922  -0.080   3.488   6.298 -1.5712  0.4732 -1.1674
  130OSM   H12B13923  -0.137   3.621   6.207  0.8088  0.6897 -0.7410
  130OSM    C1113924   0.035   3.669   6.319  0.3591  0.3992  0.7981
  130OSM   H11A13925   0.126   3.619   6.358 -0.8617 -2.9658 -0.4694
  130OSM   H11B13926  -0.031   3.687   6.407 -0.9741 -0.2355 -0.0583
  130OSM      P13927  -0.027   3.904   6.238 -0.0196 -0.2817  0.0808
  130OSM    O1313928   0.001   3.970   6.110  0.1688 -0.6878  0.4290
  130OSM    O1413929  -0.165   3.851   6.258 -0.2731  0.4823 -0.3852
  130OSM    O1113930   0.009   3.992   6.358  0.1699 -0.2835  0.0076
  130OSM    O1213931   0.074   3.783   6.242  0.1576 -0.1686  0.3802
  130OSM    C1S13932  -0.058   3.979   6.481 -1.1412 -0.4957 -0.2259
  130OSM    H1S13933  -0.151   3.918   6.482 -1.1105 -0.5718 -1.2320
  130OSM    H1T13934  -0.095   4.072   6.529  0.4235 -0.7916  1.5624
  130OSM     NF13935  -0.042   3.917   6.721 -0.6673  0.1126 -0.1214
  130OSM    HNF13936  -0.057   4.003   6.768  1.2951  1.1780 -1.3589
  130OSM    C2S13937   0.032   3.919   6.593 -0.5427 -0.1266 -0.3097
  130OSM    H2S13938   0.059   3.814   6.567  0.1862 -0.2949  1.1066
  130OSM    C3S13939   0.166   3.995   6.595 -0.0979 -0.8947 -0.2708
  130OSM    H3S13940   0.154   4.105   6.603 -1.7242 -0.7589 -3.7386
  130OSM     O313941   0.242   3.977   6.469  0.0298 -0.2921  0.0166
  130OSM    HO313942   0.167   3.966   6.409 -0.9125 -0.0923  1.1493
  130OSM    C4S13943   0.256   3.942   6.708  0.0693 -0.0062 -0.2265
  130OSM    H4S13944   0.274   3.834   6.707  0.5617  0.0724 -0.5204
  130OSM    C5S13945   0.310   4.012   6.806  0.4037 -0.4786 -1.1749
  130OSM    H5S13946   0.303   4.122   6.806 -0.5328 -0.5224 -0.1799
  130OSM    C6S13947   0.394   3.965   6.927  1.0186  0.1977  0.6440
  130OSM    H6S13948   0.491   4.018   6.920  0.0598  1.6283 -2.8519
  130OSM    H6T13949   0.414   3.856   6.926  0.9988  0.1970 -0.4960
  130OSM    C7S13950   0.328   4.009   7.058  0.1743  0.6909 -0.3383
  130OSM    H7S13951   0.220   3.983   7.064  1.1354 -3.1693  1.4044
  130OSM    H7T13952   0.329   4.120   7.067 -0.8535  0.7190 -0.4784
  130OSM    C8S13953   0.391   3.957   7.188  0.1625 -0.4932  0.6461
  130OSM    H8S13954   0.492   4.005   7.188  0.3454 -0.7180 -3.6830
  130OSM    H8T13955   0.405   3.847   7.177  1.5341 -0.1846 -0.9495
  130OSM    C9S13956   0.314   3.990   7.315  0.1159 -0.6661  0.4932
  130OSM    H9S13957   0.214   3.942   7.320  0.3238 -1.2644 -0.8731
  130OSM    H9T13958   0.292   4.098   7.301 -1.3519 -1.1983 -1.5549
  130OSM   C10S13959   0.394   3.964   7.447  0.3457  0.2881 -0.0152
  130OSM   H10S13960   0.485   4.026   7.433 -1.2366  2.1640 -2.3323
  130OSM   H10T13961   0.413   3.856   7.462 -0.4839  0.4543  2.3916
  130OSM   C11S13962   0.317   4.018   7.569 -0.0601  0.0133 -0.5756
  130OSM   H11S13963   0.213   3.980   7.575 -0.1666  0.4234  0.2360
  130OSM   H11T13964   0.306   4.128   7.554  2.1106  0.2372 -0.7844
  130OSM   C12S13965   0.391   3.983   7.696 -0.4543  0.3970 -0.8706
  130OSM   H12S13966   0.501   3.996   7.693 -0.7368  2.8963 -1.3611
  130OSM   H12T13967   0.361   3.877   7.712 -2.2627  0.6934 -2.0463
  130OSM   C13S13968   0.337   4.076   7.813  0.4108  0.0412  1.1293
  130OSM   H13S13969   0.246   4.130   7.781 -0.5886 -2.2471  0.0051
  130OSM   H13T13970   0.405   4.158   7.845  0.5446 -0.2088  1.4987
  130OSM   C14S13971   0.298   3.999   7.938  0.2169 -0.7028 -0.8285
  130OSM   H14S13972   0.238   3.915   7.897 -0.4666  0.3994 -2.1049
  130OSM   H14T13973   0.248   4.054   8.020  1.0788 -1.2814  0.0935
  130OSM   C15S13974   0.416   3.935   8.015 -0.2222  0.5424  0.7761
  130OSM   H15S13975   0.497   4.010   8.003 -1.4235  1.6984 -0.3795
  130OSM   H15T13976   0.425   3.833   7.974  0.1255  1.9683 -2.8727
  130OSM   C16S13977   0.371   3.908   8.165  0.4632  0.2049 -0.1660
  130OSM   H16S13978   0.292   3.829   8.166  0.8785 -0.2934 -2.4468
  130OSM   H16T13979   0.334   3.998   8.217  2.9761  0.4471  1.2780
  130OSM   C17S13980   0.494   3.872   8.256  0.1159 -0.0514  0.7952
  130OSM   H17S13981   0.564   3.958   8.246  0.4896 -0.4883 -0.5525
  130OSM   H17T13982   0.551   3.787   8.212  0.7345  0.6913  0.1435
  130OSM   C18S13983   0.460   3.849   8.405  0.3143 -0.4592  0.1895
  130OSM   H18S13984   0.551   3.822   8.462  0.7126  0.0676 -0.1937
  130OSM   H18T13985   0.369   3.789   8.427 -0.2572  0.0413 -0.7605
  130OSM   H18U13986   0.438   3.947   8.453 -2.6303 -1.4372  0.9024
  130OSM    C1F13987  -0.132   3.821   6.740 -0.6653 -0.8806 -0.6170
  130OSM     OF13988  -0.139   3.733   6.657  0.0262 -0.4427  0.1637
  130OSM    C2F13989  -0.224   3.831   6.855  0.5741 -0.4867 -0.5582
  130OSM    H2F13990  -0.280   3.926   6.843  1.4993  0.0664 -0.5564
  130OSM    H2G13991  -0.170   3.850   6.950 -1.8980  1.8838  0.4418
  130OSM    C3F13992  -0.321   3.713   6.868  0.2050  0.1841  0.3002
  130OSM    H3F13993  -0.274   3.613   6.880 -1.0824 -0.3422  1.1489
  130OSM    H3G13994  -0.383   3.704   6.776  0.1349 -1.7314  0.5076
  130OSM    C4F13995  -0.421   3.707   6.988  0.2425  0.3201  0.0734
  130OSM    H4F13996  -0.452   3.602   7.006 -0.0144 -0.1981 -3.1862
  130OSM    H4G13997  -0.519   3.759   6.979  1.2608  2.2997  0.1664
  130OSM    C5F13998  -0.348   3.751   7.121  0.1422  0.6830 -0.5648
  130OSM    H5F13999  -0.300   3.852   7.116 -0.6829  1.1336  0.3887
  130OSM    H5G14000  -0.278   3.669   7.145 -0.6079  0.2167  0.0325
  130OSM    C6F14001  -0.446   3.773   7.237 -0.2101 -0.4819  0.0298
  130OSM    H6F14002  -0.509   3.683   7.248 -1.2016  0.5428  3.1105
  130OSM    H6G14003  -0.507   3.864   7.216 -0.4923 -0.1605  2.1527
  130OSM    C7F14004  -0.378   3.796   7.364 -0.2339 -0.0549  0.4978
  130OSM    H7F14005  -0.300   3.875   7.373  0.4491 -0.3017 -2.7987
  130OSM    H7G14006  -0.332   3.697   7.381 -2.7441 -1.6736 -1.7973
  130OSM    C8F14007  -0.480   3.828   7.473  0.6114  0.2021 -0.2030
  130OSM    H8F14008  -0.565   3.759   7.454  1.2990 -0.0368 -2.4840
  130OSM    H8G14009  -0.518   3.927   7.443  1.2476  0.6852  0.5693
  130OSM    C9F14010  -0.422   3.835   7.612 -0.0561  0.2329 -1.0737
  130OSM    H9F14011  -0.337   3.904   7.623  0.9574 -1.4879  2.6789
  130OSM   C10F14012  -0.464   3.777   7.724 -0.2251 -0.2061  0.1122
  130OSM   H10F14013  -0.409   3.793   7.818 -0.8328  2.0056  0.1096
  130OSM   C11F14014  -0.576   3.681   7.741  0.5537 -0.5068  0.5342
  130OSM   H11F14015  -0.533   3.584   7.774 -0.2365 -1.4453 -1.1352
  130OSM   H11G14016  -0.632   3.664   7.647  1.8096  1.6725 -0.6222
  130OSM   C12F14017  -0.675   3.720   7.861  0.7826 -1.0996  0.1885
  130OSM   H12F14018  -0.710   3.824   7.844  3.0307 -0.5141 -1.0163
  130OSM   H12G14019  -0.620   3.741   7.956 -0.6443  1.7540  0.4367
  130OSM   C13F14020  -0.796   3.621   7.872 -0.7399 -0.5896  0.3843
  130OSM   H13F14021  -0.777   3.537   7.941 -0.2715 -1.0976 -0.3490
  130OSM   H13G14022  -0.821   3.576   7.773 -1.1349 -2.8168  1.4683
  130OSM   C14F14023  -0.913   3.708   7.916 -0.9766 -0.2606 -0.2405
  130OSM   H14F14024  -0.930   3.782   7.835 -3.0669  0.6165  0.9573
  130OSM   H14G14025  -0.894   3.771   8.006  0.1121 -1.1143  0.1430
  130OSM   C15F14026  -1.042   3.630   7.940  0.2947 -0.5290  0.3394
  130OSM   H15F14027  -1.009   3.543   8.002 -0.4960 -0.6471  0.5997
  130OSM   H15G14028  -1.082   3.592   7.844  0.1253 -0.8446  0.5329
  130OSM   C16F14029  -1.143   3.710   8.014 -0.1273  0.4541  0.1200
  130OSM   H16F14030  -1.192   3.775   7.938  1.3883  0.9016 -0.4833
  130OSM   H16G14031  -1.109   3.785   8.088  0.6842  1.0340 -0.8201
  130OSM   C17F14032  -1.246   3.616   8.077 -0.1992  0.1399  0.1633
  130OSM   H17F14033  -1.226   3.514   8.036 -0.4415 -1.1410  3.1193
  130OSM   H17G14034  -1.343   3.641   8.030 -0.0205  0.3285 -0.1080
  130OSM   C18F14035  -1.246   3.618   8.229  0.3900 -0.4692  0.3029
  130OSM   H18F14036  -1.284   3.716   8.264 -2.0165 -0.9426 -0.8849
  130OSM   H18G14037  -1.141   3.604   8.262  0.9282  1.1608 -0.6689
  130OSM   H18H14038  -1.305   3.533   8.270 -0.3569  0.2565  0.7337
  131OSM      N14039   0.205   1.887   5.851  0.0105  0.5148  0.0860
  131OSM    C1514040   0.305   1.779   5.865  0.7962 -0.8474  0.0039
  131OSM   H15A14041   0.407   1.809   5.848 -0.4761  3.9892  0.0705
  131OSM   H15B14042   0.285   1.698   5.797 -2.5167 -0.0206 -0.0926
  131OSM   H15C14043   0.297   1.748   5.968 -0.2657 -0.9009 -0.0836
  131OSM    C1414044   0.225   1.986   5.958 -0.3608 -0.3418  0.0821
  131OSM   H14A14045   0.325   2.027   5.961 -0.0319 -1.0303 -1.0732
  131OSM   H14B14046   0.203   1.926   6.046  0.0711 -1.1692 -0.3683
  131OSM   H14C14047   0.150   2.063   5.963  0.6785  0.6624  0.5172
  131OSM    C1314048   0.220   1.954   5.720  0.0253 -0.4590  0.1115
  131OSM   H13A14049   0.148   2.030   5.694 -0.0782 -0.4079  0.5384
  131OSM   H13B14050   0.205   1.886   5.638 -1.0292  0.0918 -0.1600
  131OSM   H13C14051   0.322   1.986   5.701  0.4829 -1.4277  0.8677
  131OSM    C1214052   0.059   1.831   5.870 -0.6452 -0.1621  0.4831
  131OSM   H12A14053   0.032   1.776   5.781  4.1421 -1.2149 -0.4407
  131OSM   H12B14054  -0.009   1.915   5.876  1.3497  1.5831 -0.7522
  131OSM    C1114055   0.037   1.745   6.001 -0.3824  0.0781  0.4287
  131OSM   H11A14056   0.116   1.668   6.012 -0.8703 -0.4612  0.1780
  131OSM   H11B14057  -0.056   1.686   5.985  0.5965 -0.9977 -1.3986
  131OSM      P14058  -0.110   1.900   6.159  0.3657 -0.3418 -0.3067
  131OSM    O1314059  -0.100   2.028   6.237  0.2839 -0.5242  0.3235
  131OSM    O1414060  -0.198   1.904   6.043 -0.1409  0.1052  0.2377
  131OSM    O1114061  -0.154   1.790   6.255  0.0725 -0.0788 -0.1389
  131OSM    O1214062   0.031   1.844   6.114 -0.2000 -0.1756 -0.1624
  131OSM    C1S14063  -0.072   1.759   6.372 -0.2975  0.4198  0.2520
  131OSM    H1S14064   0.033   1.792   6.358  0.1517 -1.5303 -1.0871
  131OSM    H1T14065  -0.072   1.648   6.373  0.0827  0.3908 -1.7405
  131OSM     NF14066  -0.018   1.760   6.621  0.0220  0.1283  0.5431
  131OSM    HNF14067  -0.024   1.676   6.674 -0.9696 -1.4834 -2.0024
  131OSM    C2S14068  -0.121   1.790   6.518  0.3294 -1.2601 -0.2946
  131OSM    H2S14069  -0.140   1.899   6.522  2.5986 -0.9051  1.7252
  131OSM    C3S14070  -0.261   1.729   6.527 -0.8673  0.5580 -0.5494
  131OSM    H3S14071  -0.259   1.623   6.495 -1.1092  0.3036  0.2733
  131OSM     O314072  -0.354   1.780   6.427  0.1541  0.4714  0.2398
  131OSM    HO314073  -0.295   1.819   6.361  3.0262 -1.4437  1.5743
  131OSM    C4S14074  -0.319   1.751   6.666  0.1170  0.9674  1.0913
  131OSM    H4S14075  -0.293   1.669   6.734 -2.2520 -0.4135  0.3771
  131OSM    C5S14076  -0.394   1.844   6.712 -0.3073  0.2784 -0.0410
  131OSM    H5S14077  -0.414   1.935   6.654  2.1990 -0.7292 -2.6053
  131OSM    C6S14078  -0.436   1.861   6.855  0.1289  0.7957  0.4721
  131OSM    H6S14079  -0.546   1.846   6.867 -0.0186  1.2604 -0.2624
  131OSM    H6T14080  -0.422   1.969   6.875  2.4868  0.8680 -1.3210
  131OSM    C7S14081  -0.373   1.772   6.965 -0.2907 -0.0931  0.0205
  131OSM    H7S14082  -0.265   1.796   6.969 -0.3151 -0.0619  0.5775
  131OSM    H7T14083  -0.384   1.665   6.938 -1.0647  0.4377 -1.7942
  131OSM    C8S14084  -0.431   1.785   7.106 -0.4060  0.2078 -0.7202
  131OSM    H8S14085  -0.528   1.730   7.105  0.9528 -2.2522 -0.4403
  131OSM    H8T14086  -0.454   1.891   7.133 -0.0977  0.0627  0.1417
  131OSM    C9S14087  -0.346   1.733   7.215 -0.0980 -0.4281  0.6077
  131OSM    H9S14088  -0.256   1.797   7.214 -1.3544  1.3562 -1.7670
  131OSM    H9T14089  -0.309   1.629   7.196  0.3571  0.1404 -1.8686
  131OSM   C10S14090  -0.428   1.734   7.349 -0.1889  0.2491  0.0810
  131OSM   H10S14091  -0.505   1.655   7.357  1.9338 -1.8496  0.2100
  131OSM   H10T14092  -0.483   1.831   7.359  0.3969  0.4900  1.1208
  131OSM   C11S14093  -0.344   1.734   7.481 -0.0901 -0.3114  0.7828
  131OSM   H11S14094  -0.415   1.725   7.566  0.4185  0.4233  1.2954
  131OSM   H11T14095  -0.295   1.834   7.486  2.3997 -1.4755  0.5209
  131OSM   C12S14096  -0.236   1.623   7.490 -0.2119  0.3156  0.2426
  131OSM   H12S14097  -0.163   1.637   7.407 -1.9032 -1.3662 -1.5955
  131OSM   H12T14098  -0.283   1.523   7.475 -0.8855  0.7560 -0.6099
  131OSM   C13S14099  -0.150   1.633   7.624  0.2566 -0.4225  0.6198
  131OSM   H13S14100  -0.129   1.735   7.661  0.4729 -0.1763 -0.1693
  131OSM   H13T14101  -0.051   1.592   7.592  1.1134 -0.3458  3.0873
  131OSM   C14S14102  -0.192   1.519   7.722 -0.3864  0.0896 -0.1011
  131OSM   H14S14103  -0.115   1.514   7.802 -1.4562 -0.5646  0.9099
  131OSM   H14T14104  -0.184   1.415   7.684  1.2417  0.5409 -1.0607
  131OSM   C15S14105  -0.326   1.535   7.789  0.3165 -0.5918 -0.1398
  131OSM   H15S14106  -0.413   1.530   7.719 -0.4983 -2.3622  0.9470
  131OSM   H15T14107  -0.331   1.635   7.837  0.4929  1.4680 -4.1779
  131OSM   C16S14108  -0.365   1.432   7.892  0.2818  0.8472  0.7178
  131OSM   H16S14109  -0.320   1.334   7.866 -0.4066  0.2595  1.7215
  131OSM   H16T14110  -0.473   1.406   7.896  0.8445 -1.3919  1.9622
  131OSM   C17S14111  -0.316   1.468   8.034 -0.2885  0.0995 -0.2586
  131OSM   H17S14112  -0.370   1.558   8.071 -0.1928  1.2027 -2.7321
  131OSM   H17T14113  -0.208   1.496   8.030  0.3619 -2.2423 -0.1954
  131OSM   C18S14114  -0.346   1.364   8.138 -0.3723 -0.0415 -0.2325
  131OSM   H18S14115  -0.388   1.405   8.233 -0.0474 -1.1082  0.3737
  131OSM   H18T14116  -0.257   1.301   8.154  0.0075  0.2035 -1.3350
  131OSM   H18U14117  -0.428   1.300   8.099 -1.3194  0.9127  0.1355
  131OSM    C1F14118   0.103   1.823   6.623  1.0408  0.2114  0.1473
  131OSM     OF14119   0.115   1.937   6.572 -0.0480 -0.2928 -0.2359
  131OSM    C2F14120   0.217   1.767   6.705  0.2786  0.0376 -0.4371
  131OSM    H2F14121   0.307   1.760   6.641  0.9703  2.4591  0.2084
  131OSM    H2G14122   0.189   1.666   6.743 -1.9358  0.3844 -1.0801
  131OSM    C3F14123   0.247   1.861   6.824  0.9223 -0.4749 -0.4662
  131OSM    H3F14124   0.156   1.882   6.884  1.4813  2.8512 -0.6718
  131OSM    H3G14125   0.292   1.955   6.784 -0.6045 -0.0836 -1.3031
  131OSM    C4F14126   0.355   1.808   6.922 -0.0278  0.3647 -0.5516
  131OSM    H4F14127   0.453   1.816   6.871  0.5090  1.8760  0.6797
  131OSM    H4G14128   0.339   1.701   6.946 -0.0056  0.1922 -1.2728
  131OSM    C5F14129   0.375   1.891   7.054  0.0458  0.2120  0.1836
  131OSM    H5F14130   0.286   1.884   7.119  0.5359 -0.6026  0.7830
  131OSM    H5G14131   0.390   1.998   7.028  1.2368  0.3089  1.2027
  131OSM    C6F14132   0.499   1.850   7.137 -0.1547 -0.0676 -0.1072
  131OSM    H6F14133   0.584   1.889   7.078 -0.0950 -0.5268 -0.3232
  131OSM    H6G14134   0.509   1.739   7.135 -0.5839 -0.0888 -1.8863
  131OSM    C7F14135   0.504   1.920   7.273 -0.7215 -0.6087  0.6335
  131OSM    H7F14136   0.545   1.863   7.359  0.9591  0.7902  0.7875
  131OSM    H7G14137   0.397   1.940   7.296 -0.5278  0.5796  0.5233
  131OSM    C8F14138   0.574   2.056   7.289 -1.1074 -0.1418  0.1354
  131OSM    H8F14139   0.552   2.092   7.392 -0.9967  0.6843 -0.1260
  131OSM    H8G14140   0.533   2.133   7.220  1.6476  1.1992 -0.0660
  131OSM    C9F14141   0.723   2.052   7.264 -0.3075 -0.4433  0.1050
  131OSM    H9F14142   0.755   1.989   7.180  1.8828  2.3962 -1.2882
  131OSM   C10F14143   0.821   2.127   7.321 -0.8590  0.0105 -0.4754
  131OSM   H10F14144   0.927   2.125   7.292 -0.6056 -0.8604  0.4526
  131OSM   C11F14145   0.791   2.232   7.428  0.4279 -0.0588  0.9348
  131OSM   H11F14146   0.684   2.262   7.434  0.6336  0.3896  2.6613
  131OSM   H11G14147   0.849   2.326   7.418  0.6215 -0.1691  1.0369
  131OSM   C12F14148   0.826   2.186   7.571  0.1523 -0.3328 -0.2613
  131OSM   H12F14149   0.785   2.267   7.635  0.2686  0.8167 -1.6198
  131OSM   H12G14150   0.935   2.179   7.591  0.0920  0.4984  0.4002
  131OSM   C13F14151   0.767   2.044   7.604  0.2845 -1.3114  0.4754
  131OSM   H13F14152   0.821   1.967   7.546  0.9178  0.1153 -0.8533
  131OSM   H13G14153   0.665   2.051   7.558  0.3268  2.7289  0.7603
  131OSM   C14F14154   0.761   2.007   7.755 -0.8981 -0.8701 -0.7103
  131OSM   H14F14155   0.701   1.916   7.778 -1.5571 -0.3489 -0.3563
  131OSM   H14G14156   0.704   2.089   7.804  0.3911  0.7727 -1.9135
  131OSM   C15F14157   0.890   2.010   7.841 -0.3633  0.6393  0.0893
  131OSM   H15F14158   0.930   2.114   7.848  1.7030 -0.2347  1.8213
  131OSM   H15G14159   0.970   1.964   7.779  0.1742  1.4522  0.1621
  131OSM   C16F14160   0.874   1.949   7.981 -0.5536  0.5978 -0.0280
  131OSM   H16F14161   0.838   1.844   7.970 -0.9322  0.9226 -2.0951
  131OSM   H16G14162   0.797   2.009   8.034  1.0245  3.1861 -0.6311
  131OSM   C17F14163   1.000   1.953   8.070  0.3248  0.1381 -0.0469
  131OSM   H17F14164   1.089   1.932   8.006 -0.3653 -0.0024 -0.9615
  131OSM   H17G14165   0.984   1.878   8.150 -0.3650 -0.6782 -0.9429
  131OSM   C18F14166   1.019   2.090   8.133 -0.4797  0.5035  0.5216
  131OSM   H18F14167   1.044   2.162   8.052 -0.8413 -0.0332 -0.0667
  131OSM   H18G14168   1.096   2.083   8.213 -0.0666 -1.8177 -0.0389
  131OSM   H18H14169   0.924   2.127   8.176 -1.6018 -0.9961 -0.6115
  132OSM      N14170   2.089   5.941   6.042 -0.5410  0.2990  0.1598
  132OSM    C1514171   2.058   5.926   6.181 -0.0468  0.7432 -0.8818
  132OSM   H15A14172   1.956   5.943   6.213  0.5958  0.7015  1.2827
  132OSM   H15B14173   2.117   6.002   6.231  0.0664  1.4602 -2.0717
  132OSM   H15C14174   2.086   5.826   6.209  2.4050  1.3373 -1.0902
  132OSM    C1414175   2.225   5.886   6.018  0.5487  0.0398 -0.5327
  132OSM   H14A14176   2.306   5.954   6.040  0.3767 -0.4892  1.8996
  132OSM   H14B14177   2.238   5.859   5.914 -1.0584 -1.5608 -0.3264
  132OSM   H14C14178   2.237   5.795   6.074 -0.9254 -0.4944 -1.0680
  132OSM    C1314179   1.996   5.848   5.968  0.4931 -0.3957  0.0056
  132OSM   H13A14180   1.989   5.880   5.865  0.1070  0.7177  0.3723
  132OSM   H13B14181   1.899   5.855   6.017  1.1884  1.1770  1.1980
  132OSM   H13C14182   2.035   5.747   5.969 -2.2783 -1.5708 -3.0624
  132OSM    C1214183   2.071   6.081   5.995 -0.1426  1.0744  0.0378
  132OSM   H12A14184   1.977   6.122   6.030 -0.5718 -0.7310  1.0441
  132OSM   H12B14185   2.067   6.087   5.887 -1.4824  1.6914  0.1071
  132OSM    C1114186   2.181   6.183   6.046  0.2237  0.5411 -0.0962
  132OSM   H11A14187   2.156   6.285   6.009 -1.8996  0.3336  0.6933
  132OSM   H11B14188   2.280   6.166   5.999 -0.3047  0.6132 -1.2663
  132OSM      P14189   2.122   6.266   6.281 -0.6809  0.0955 -0.3104
  132OSM    O1314190   2.188   6.398   6.270 -0.4245 -0.3847  0.1955
  132OSM    O1414191   1.978   6.251   6.262 -0.2502  0.9276  0.5806
  132OSM    O1114192   2.165   6.201   6.418 -0.5049 -0.2866  0.0551
  132OSM    O1214193   2.190   6.170   6.188  0.2125 -0.1022  0.0862
  132OSM    C1S14194   2.132   6.065   6.451 -0.5578  0.6902 -0.3776
  132OSM    H1S14195   2.218   6.000   6.424 -1.1726 -0.8492  1.2701
  132OSM    H1T14196   2.039   6.044   6.394 -0.1708  1.3958 -1.2860
  132OSM     NF14197   2.070   5.901   6.633 -0.2552  0.3184  0.6441
  132OSM    HNF14198   1.981   5.865   6.660  0.3035 -0.5490  1.3691
  132OSM    C2S14199   2.086   6.048   6.599  0.2646  0.6474  0.1552
  132OSM    H2S14200   2.172   6.081   6.660 -0.7424  1.7583  0.9975
  132OSM    C3S14201   1.961   6.126   6.647 -0.3308 -0.1899 -0.0504
  132OSM    H3S14202   1.872   6.072   6.608 -0.5954  0.3353 -0.1760
  132OSM     O314203   1.961   6.265   6.611  0.2504  0.5594  0.1538
  132OSM    HO314204   2.045   6.289   6.572  0.3055  1.2734  0.6947
  132OSM    C4S14205   1.944   6.120   6.792  0.8313 -0.1237  0.3967
  132OSM    H4S14206   1.863   6.052   6.824  1.7599 -1.8100 -0.7343
  132OSM    C5S14207   2.013   6.184   6.885 -0.1839  0.8162  0.6136
  132OSM    H5S14208   2.098   6.246   6.853 -0.3548 -0.2814 -2.1492
  132OSM    C6S14209   1.988   6.184   7.028 -0.4454  0.0538  0.2730
  132OSM    H6S14210   1.896   6.245   7.040 -0.1332  0.8988 -1.4074
  132OSM    H6T14211   2.077   6.218   7.084 -0.2090 -0.7606  0.3990
  132OSM    C7S14212   1.935   6.046   7.081 -0.6321  0.4925 -0.3857
  132OSM    H7S14213   2.020   5.975   7.074 -1.0936  0.0530 -1.5430
  132OSM    H7T14214   1.846   6.015   7.023 -0.3174  0.9241 -1.1174
  132OSM    C8S14215   1.912   6.048   7.231  1.3814 -0.5376 -0.0484
  132OSM    H8S14216   1.859   5.953   7.252 -0.7321 -0.0456 -2.8309
  132OSM    H8T14217   1.852   6.139   7.254  0.2300 -0.9492 -1.3344
  132OSM    C9S14218   2.034   6.039   7.326 -0.4041 -0.0678 -0.2714
  132OSM    H9S14219   2.113   6.117   7.326 -0.1161 -0.3421  1.3868
  132OSM    H9T14220   2.084   5.940   7.318  1.9345  1.0848 -0.3864
  132OSM   C10S14221   1.976   6.041   7.467 -0.3979  0.4794 -0.2601
  132OSM   H10S14222   1.888   5.974   7.482  0.2146  0.2287  2.6875
  132OSM   H10T14223   1.952   6.147   7.489 -0.1330  0.4605  0.1283
  132OSM   C11S14224   2.074   6.006   7.579  0.7314  0.8326 -0.1333
  132OSM   H11S14225   2.130   6.101   7.591 -0.8871  1.7439  0.4146
  132OSM   H11T14226   2.131   5.923   7.533  1.0583  0.9478  0.0657
  132OSM   C12S14227   2.002   5.951   7.709  0.1202 -0.0469  0.0180
  132OSM   H12S14228   1.948   5.859   7.678  0.1123 -0.3348  0.8752
  132OSM   H12T14229   1.930   6.030   7.739  2.3949  1.4545  1.7408
  132OSM   C13S14230   2.105   5.924   7.815 -0.1858 -0.4038  1.1199
  132OSM   H13S14231   2.165   6.016   7.830 -1.0831  0.3352  0.2994
  132OSM   H13T14232   2.175   5.847   7.775  1.7492  1.8392  0.0770
  132OSM   C14S14233   2.029   5.888   7.952  0.0312 -0.1156 -0.5988
  132OSM   H14S14234   2.002   5.781   7.936  1.4822 -0.6445  0.3772
  132OSM   H14T14235   1.942   5.956   7.961  0.7580  0.5921  1.2642
  132OSM   C15S14236   2.109   5.905   8.077 -0.1288  0.2266  0.5719
  132OSM   H15S14237   2.138   6.012   8.082  1.7034 -0.2330  0.2005
  132OSM   H15T14238   2.198   5.838   8.081 -0.5238 -0.2587  1.2395
  132OSM   C16S14239   2.029   5.869   8.197  0.0544 -0.0138  0.2680
  132OSM   H16S14240   2.025   5.759   8.213 -1.4597 -0.0588 -0.3239
  132OSM   H16T14241   1.926   5.910   8.187 -1.3452 -3.5795 -0.5911
  132OSM   C17S14242   2.096   5.925   8.326 -0.2233 -0.1679  0.5154
  132OSM   H17S14243   2.087   6.035   8.333 -1.3685 -0.0910 -1.8109
  132OSM   H17T14244   2.204   5.899   8.326 -0.4792 -1.2599  0.5925
  132OSM   C18S14245   2.038   5.868   8.459  0.1774  0.5209 -0.2884
  132OSM   H18S14246   1.932   5.900   8.476 -0.1665 -1.4740  1.3977
  132OSM   H18T14247   2.089   5.908   8.549 -0.6999  0.9369  0.0310
  132OSM   H18U14248   2.047   5.758   8.456 -0.6458  0.4779 -2.2880
  132OSM    C1F14249   2.167   5.810   6.630  0.1835  0.3906 -0.7470
  132OSM     OF14250   2.283   5.840   6.605 -0.1323  0.2757 -0.0651
  132OSM    C2F14251   2.120   5.660   6.644  0.0363  0.4311 -0.0237
  132OSM    H2F14252   2.182   5.603   6.571 -1.0529  0.4400 -0.9881
  132OSM    H2G14253   2.013   5.642   6.618  0.1169 -1.3420  0.8431
  132OSM    C3F14254   2.156   5.600   6.789 -0.1599 -0.6744  0.1405
  132OSM    H3F14255   2.099   5.666   6.858 -0.3395  0.0546 -0.6835
  132OSM    H3G14256   2.266   5.614   6.795 -0.3067  0.5897  0.0400
  132OSM    C4F14257   2.126   5.447   6.792 -0.7387  0.4155  0.1365
  132OSM    H4F14258   2.171   5.397   6.703 -1.1497 -1.0456  0.7406
  132OSM    H4G14259   2.017   5.429   6.786 -0.6198 -1.1948  2.1401
  132OSM    C5F14260   2.176   5.388   6.918  0.3956  0.2695  1.1083
  132OSM    H5F14261   2.279   5.428   6.929  0.8871 -1.1328  1.6770
  132OSM    H5G14262   2.178   5.278   6.904  3.9197  0.4283  0.1094
  132OSM    C6F14263   2.100   5.433   7.037 -0.2650  0.9827 -0.6163
  132OSM    H6F14264   1.993   5.422   7.010  0.3505 -3.1558 -1.6173
  132OSM    H6G14265   2.124   5.542   7.041 -1.5320  1.2577 -0.2111
  132OSM    C7F14266   2.128   5.370   7.171 -0.2687 -0.3061 -0.2915
  132OSM    H7F14267   2.228   5.396   7.213  0.5570 -0.4838 -2.0687
  132OSM    H7G14268   2.143   5.261   7.163 -2.8987 -0.6291 -1.1600
  132OSM    C8F14269   2.020   5.401   7.277  0.1662 -0.4463 -0.6452
  132OSM    H8F14270   2.046   5.335   7.362  0.3708  1.3016  0.6748
  132OSM    H8G14271   1.925   5.353   7.246 -0.1814 -2.4598  3.2265
  132OSM    C9F14272   2.003   5.543   7.319 -0.7468 -0.2722 -0.6079
  132OSM    H9F14273   1.984   5.618   7.240  0.4358  1.1406  0.4195
  132OSM   C10F14274   2.047   5.593   7.441 -0.4950 -0.5930  0.5002
  132OSM   H10F14275   2.023   5.699   7.462 -0.2493 -0.5022  0.3177
  132OSM   C11F14276   2.096   5.510   7.546  0.1851  0.1935  0.5418
  132OSM   H11F14277   2.202   5.485   7.522  0.0043 -0.1805  0.1175
  132OSM   H11G14278   2.045   5.412   7.557  0.9309 -0.3540 -0.7455
  132OSM   C12F14279   2.091   5.567   7.690  0.7882 -0.1608 -0.6983
  132OSM   H12F14280   1.984   5.591   7.710  1.3099 -0.3163  2.6086
  132OSM   H12G14281   2.139   5.666   7.704 -0.4383  0.5275 -1.3183
  132OSM   C13F14282   2.139   5.467   7.802 -0.3904 -0.1570  0.1948
  132OSM   H13F14283   2.156   5.523   7.897  0.2094 -2.4592  1.4746
  132OSM   H13G14284   2.237   5.420   7.780 -0.9769 -0.3358 -2.2418
  132OSM   C14F14285   2.028   5.361   7.825 -1.2963 -0.1113  0.6288
  132OSM   H14F14286   2.005   5.310   7.729 -0.1737 -1.6618  1.1651
  132OSM   H14G14287   1.931   5.411   7.846 -1.0859 -0.2562  1.9383
  132OSM   C15F14288   2.058   5.257   7.926 -0.1102  0.6875  0.5480
  132OSM   H15F14289   2.146   5.199   7.893 -0.0195  0.9723  0.2867
  132OSM   H15G14290   1.968   5.193   7.916 -1.8593  3.0714  0.4678
  132OSM   C16F14291   2.058   5.297   8.076  0.0845  0.3612  0.4092
  132OSM   H16F14292   1.966   5.348   8.112 -1.1630 -1.1245 -0.6032
  132OSM   H16G14293   2.146   5.360   8.099  0.5039 -1.0285  2.8343
  132OSM   C17F14294   2.090   5.175   8.161 -0.5884  0.1598 -0.3680
  132OSM   H17F14295   2.180   5.117   8.129 -0.7000 -0.7979  0.9820
  132OSM   H17G14296   2.012   5.096   8.160  0.4668 -0.9448  1.2124
  132OSM   C18F14297   2.115   5.215   8.307 -0.2027  0.4698 -0.0500
  132OSM   H18F14298   2.123   5.126   8.374 -2.0187  1.0114  0.9036
  132OSM   H18G14299   2.030   5.271   8.351 -0.8577  0.5152 -1.3430
  132OSM   H18H14300   2.210   5.272   8.320  0.6278 -1.5372  3.4015
  133SAPE     N14301   4.276   2.954  10.939  0.0656  0.9330  0.0563
  133SAPE   HN114302   4.273   2.960  11.042  2.9556  1.2072  0.1680
  133SAPE   HN214303   4.330   2.874  10.899 -0.0917  0.3329  1.0301
  133SAPE   HN314304   4.318   3.042  10.903  0.2701  1.4332  1.5045
  133SAPE   C1214305   4.130   2.957  10.896 -0.0422  0.8625  0.1820
  133SAPE  H12A14306   4.073   3.048  10.927 -1.3347  0.2847 -0.4521
  133SAPE  H12B14307   4.085   2.870  10.948  0.8804  0.9775  1.1880
  133SAPE   C1114308   4.108   2.945  10.748  0.0724 -0.7430 -0.0870
  133SAPE  H11A14309   4.164   3.023  10.692  2.0440 -2.6148 -0.7919
  133SAPE  H11B14310   3.999   2.954  10.733  0.4387  0.3124 -2.2492
  133SAPE     P14311   4.081   2.696  10.669  0.0690  0.4652  0.4310
  133SAPE   O1314312   4.170   2.590  10.615 -0.0064 -0.2623  0.3779
  133SAPE   O1414313   4.011   2.666  10.797 -0.2062 -0.0796  0.3670
  133SAPE   O1214314   4.168   2.830  10.692  0.4995  0.1826 -0.4919
  133SAPE   O1114315   3.984   2.760  10.559  0.3237  0.0908 -0.4802
  133SAPE    C114316   3.886   2.680  10.488 -0.4082 -0.2484 -0.1643
  133SAPE    HA14317   3.814   2.633  10.558  0.4662 -0.2140  0.7628
  133SAPE    HB14318   3.825   2.746  10.423  0.1288 -1.5088 -2.0028
  133SAPE    C214319   3.955   2.573  10.395  0.0780  0.1692 -0.7299
  133SAPE    HS14320   4.036   2.518  10.448 -0.9132 -0.8238 -0.2353
  133SAPE   O2114321   4.004   2.633  10.269  0.4444  0.2065 -0.3814
  133SAPE   C2114322   4.123   2.599  10.224 -0.3795 -0.3120 -0.8453
  133SAPE   O2214323   4.205   2.527  10.281  0.7743  0.0308 -0.1717
  133SAPE   C2214324   4.155   2.670  10.089  0.0076 -0.0739 -0.5515
  133SAPE   H2R14325   4.071   2.653  10.018 -1.8881 -1.7051  1.9871
  133SAPE   H2S14326   4.148   2.779  10.110 -1.1309  0.1774 -2.1497
  133SAPE    C314327   3.852   2.467  10.345  0.6413  0.1606 -0.5072
  133SAPE    HX14328   3.777   2.523  10.286  1.3170  1.3981 -0.2198
  133SAPE    HY14329   3.794   2.447  10.437 -0.3214  0.1667 -1.1132
  133SAPE   O3114330   3.922   2.352  10.287  0.2807 -0.2188 -0.2252
  133SAPE   C3114331   3.909   2.350  10.160 -0.3120  0.6063 -0.2078
  133SAPE   O3214332   3.865   2.434  10.086 -0.4834  0.5521 -0.1384
  133SAPE   C3214333   3.959   2.206  10.124  0.2443  0.4424  0.2118
  133SAPE   H2X14334   3.892   2.138  10.180  0.4415  0.7096  0.7834
  133SAPE   H2Y14335   4.061   2.182  10.164  0.2623 -0.6571 -0.5041
  133SAPE   C2314336   4.281   2.619  10.021  0.3246 -0.6758 -0.0989
  133SAPE   H3R14337   4.277   2.511   9.996 -2.1193 -0.7560  0.5240
  133SAPE   H3S14338   4.369   2.631  10.088  0.7055  1.7096 -0.9696
  133SAPE   C2414339   4.311   2.696   9.892 -0.4517 -0.1902  0.2511
  133SAPE   H4R14340   4.321   2.803   9.921  3.2754 -0.9250  1.9572
  133SAPE   H4S14341   4.223   2.685   9.825 -0.2155 -1.4380  0.1324
  133SAPE   C2514342   4.432   2.649   9.817  0.0758 -0.1309  0.7828
  133SAPE   H5R14343   4.488   2.572   9.872 -0.2224 -2.0431 -1.5208
  133SAPE   C2614344   4.464   2.680   9.683  0.0935  0.2873  0.4820
  133SAPE   H6R14345   4.551   2.628   9.642  0.6152  1.9570 -0.5306
  133SAPE   C2714346   4.390   2.762   9.581 -0.8499 -0.6060  0.4331
  133SAPE   H7R14347   4.466   2.790   9.505 -2.0835  0.6280 -0.3839
  133SAPE   H7S14348   4.349   2.854   9.629  0.4415 -0.1523  0.6781
  133SAPE   C2814349   4.290   2.667   9.515 -0.7032 -0.1880 -0.2133
  133SAPE   H8R14350   4.278   2.567   9.559  0.9324 -0.1303  0.3767
  133SAPE   C2914351   4.234   2.699   9.398  0.2148 -0.4254  0.0201
  133SAPE   H9R14352   4.156   2.632   9.359 -0.9528  1.2968 -0.6322
  133SAPE  C21014353   4.251   2.827   9.315  0.1370 -0.3791 -0.7650
  133SAPE  H10R14354   4.304   2.803   9.220  0.9094  0.1964 -0.4917
  133SAPE  H10S14355   4.323   2.897   9.363 -1.7662  1.9951 -1.2594
  133SAPE  C21114356   4.130   2.902   9.288  0.3236 -0.9386  0.6131
  133SAPE  H11R14357   4.099   2.889   9.183 -1.5437 -1.9888  1.2605
  133SAPE  C21214358   4.070   2.985   9.365  0.8158  0.2506  0.1674
  133SAPE  H12R14359   3.978   3.039   9.340  0.9632  0.9708  1.1404
  133SAPE  C21314360   4.132   3.018   9.495 -0.5489  0.0302 -0.3169
  133SAPE  H13R14361   4.242   3.031   9.486 -0.3942 -1.1246 -0.2031
  133SAPE  H13S14362   4.131   2.919   9.547  2.6371  1.1082  1.9874
  133SAPE  C21414363   4.066   3.134   9.573 -0.7319 -0.1188  0.1907
  133SAPE  H14R14364   3.971   3.178   9.538 -0.6406 -0.3339 -0.3275
  133SAPE  C21514365   4.119   3.171   9.698  0.1011  0.0866 -0.0374
  133SAPE  H15R14366   4.056   3.233   9.763  1.1563 -0.9817  2.0570
  133SAPE  C21614367   4.253   3.119   9.750 -0.4566 -0.1814  0.2114
  133SAPE  H16R14368   4.322   3.090   9.668 -1.2238  0.1487 -0.5458
  133SAPE  H16S14369   4.235   3.024   9.805 -0.5809 -0.5537 -0.4817
  133SAPE  C21714370   4.316   3.225   9.849  0.7394 -0.1244 -0.3809
  133SAPE  H17R14371   4.234   3.285   9.895 -0.3823 -1.5504 -0.4575
  133SAPE  H17S14372   4.382   3.295   9.795  1.9534 -1.0177 -0.0749
  133SAPE  C21814373   4.402   3.157   9.960  0.3657 -0.5679 -0.3307
  133SAPE  H18R14374   4.455   3.238  10.016 -0.4830  1.4361 -2.3647
  133SAPE  H18S14375   4.477   3.083   9.926 -0.4683 -1.2965 -0.6104
  133SAPE  C21914376   4.319   3.077  10.061 -0.1358 -0.5046  0.1950
  133SAPE  H19R14377   4.261   2.999  10.008  1.5095 -0.0018 -2.4325
  133SAPE  H19S14378   4.250   3.149  10.110 -1.5260 -0.9355 -1.0946
  133SAPE  C22014379   4.392   3.009  10.179  0.0305 -0.4784 -0.0528
  133SAPE  H20R14380   4.456   3.082  10.234  0.9955 -1.5583  0.2933
  133SAPE  H20S14381   4.450   2.928  10.129 -2.7568 -1.7785 -1.2489
  133SAPE  H20T14382   4.323   2.965  10.254  1.0270 -0.6200  0.7941
  133SAPE   C3314383   3.959   2.171   9.972  0.2627  0.1470 -0.2366
  133SAPE   H3X14384   3.862   2.198   9.927  1.8975  0.0549 -3.9858
  133SAPE   H3Y14385   3.969   2.061   9.962  2.6995  0.1236  1.7536
  133SAPE   C3414386   4.076   2.240   9.897  0.1131  0.2899 -0.0669
  133SAPE   H4X14387   4.170   2.200   9.940  0.2942  0.2945 -0.4573
  133SAPE   H4Y14388   4.066   2.350   9.912  1.1847  0.2042  1.4250
  133SAPE   C3514389   4.084   2.204   9.742 -0.3668 -0.5710 -0.2329
  133SAPE   H5X14390   3.984   2.209   9.694 -1.2274  1.5732  1.7147
  133SAPE   H5Y14391   4.123   2.100   9.736 -1.0423 -0.8146 -0.4933
  133SAPE   C3614392   4.166   2.294   9.653 -0.2875 -0.0073  0.3571
  133SAPE   H6X14393   4.269   2.300   9.693 -0.7756 -0.9224  1.7983
  133SAPE   H6Y14394   4.115   2.393   9.664  0.5811  0.7439 -2.0938
  133SAPE   C3714395   4.162   2.256   9.501  0.1371 -0.3120 -0.5939
  133SAPE   H7X14396   4.062   2.290   9.466 -0.0598  1.1544  1.3076
  133SAPE   H7Y14397   4.157   2.146   9.495  1.0134 -0.2838 -2.0370
  133SAPE   C3814398   4.272   2.309   9.411 -0.4039  0.1757  0.5928
  133SAPE   H8X14399   4.374   2.300   9.455 -0.2932  3.2398  1.1146
  133SAPE   H8Y14400   4.262   2.419   9.396 -0.5545  0.1760  0.6953
  133SAPE   C3914401   4.271   2.236   9.282 -0.6502  0.1730  0.1974
  133SAPE   H9X14402   4.201   2.279   9.208  0.9711 -0.1917 -1.5656
  133SAPE   H9Y14403   4.246   2.130   9.305 -0.3358  0.0138 -0.1853
  133SAPE  C31014404   4.406   2.237   9.203  0.2248  0.5411 -1.1589
  133SAPE  H10X14405   4.486   2.193   9.266 -1.3940 -1.6850 -0.6025
  133SAPE  H10Y14406   4.430   2.343   9.185 -0.7040  1.0309  0.3930
  133SAPE  C31114407   4.389   2.158   9.075 -0.9468 -0.0245 -0.4069
  133SAPE  H11X14408   4.334   2.216   8.998  2.3645  0.6811 -2.3242
  133SAPE  H11Y14409   4.326   2.070   9.101 -1.9259  1.1950  1.4865
  133SAPE  C31214410   4.527   2.104   9.033  0.6331  0.1309  1.1316
  133SAPE  H12X14411   4.574   2.059   9.123  0.8945 -1.2336  0.3213
  133SAPE  H12Y14412   4.594   2.193   9.024 -0.3544  0.5650 -2.7451
  133SAPE  C31314413   4.516   2.019   8.901  0.3884 -0.3969  0.5605
  133SAPE  H13X14414   4.599   2.045   8.833 -0.4062  1.0574  0.1105
  133SAPE  H13Y14415   4.427   2.046   8.840  0.7904  1.7240  0.8890
  133SAPE  C31414416   4.503   1.864   8.927  0.0647 -0.5689  0.2583
  133SAPE  H14X14417   4.444   1.815   8.847 -0.3240  0.6670 -0.2209
  133SAPE  H14Y14418   4.424   1.851   9.004 -0.8249  0.5196 -0.4627
  133SAPE  C31514419   4.632   1.787   8.953 -0.0054  0.2450  0.3148
  133SAPE  H15X14420   4.696   1.859   9.008 -0.2076  1.9113 -1.5619
  133SAPE  H15Y14421   4.686   1.767   8.857 -1.1363  0.2196 -0.3303
  133SAPE  C31614422   4.602   1.667   9.038  0.7936 -0.2587 -0.5231
  133SAPE  H16X14423   4.533   1.602   8.980 -0.3031  0.1618  0.2983
  133SAPE  H16Y14424   4.565   1.691   9.140  0.3384 -0.4755 -0.6347
  133SAPE  C31714425   4.730   1.589   9.066 -0.0390  0.5260  0.1533
  133SAPE  H17X14426   4.794   1.664   9.117  1.0569  0.6627 -1.3968
  133SAPE  H17Y14427   4.782   1.562   8.971  1.2490 -2.5058  1.6670
  133SAPE  C31814428   4.730   1.462   9.150 -0.0724  0.4218 -0.1817
  133SAPE  H18X14429   4.832   1.424   9.172 -0.9311 -0.8809  1.7006
  133SAPE  H18Y14430   4.666   1.383   9.106 -0.9258  2.3203 -2.4928
  133SAPE  H18Z14431   4.683   1.487   9.248  1.0081 -0.5844  0.5976
  134SAPE     N14432   0.781   3.236  10.679  0.9747 -0.3499  0.0759
  134SAPE   HN114433   0.738   3.324  10.645 -0.7130 -0.7570  1.1169
  134SAPE   HN214434   0.876   3.229  10.637  1.2912  2.3018  0.2964
  134SAPE   HN314435   0.732   3.147  10.654 -0.6585  0.5552 -0.0207
  134SAPE   C1214436   0.790   3.249  10.825  0.5140  0.0341 -0.1377
  134SAPE  H12A14437   0.836   3.346  10.852 -1.6389  0.8777  0.5452
  134SAPE  H12B14438   0.856   3.166  10.859  0.2438 -0.2345 -0.2591
  134SAPE   C1114439   0.642   3.251  10.874  0.0955  0.5572  0.5142
  134SAPE  H11A14440   0.590   3.343  10.840 -1.3498  1.3240  4.5374
  134SAPE  H11B14441   0.647   3.250  10.985  0.0329 -0.0410  0.5163
  134SAPE     P14442   0.441   3.090  10.924  0.2538 -0.2357 -0.2044
  134SAPE   O1314443   0.415   2.950  10.880  0.3695 -0.6136 -0.2170
  134SAPE   O1414444   0.485   3.109  11.063  0.4206 -0.0157 -0.0367
  134SAPE   O1214445   0.560   3.141  10.828  0.2691  0.3884  0.2037
  134SAPE   O1114446   0.314   3.182  10.894  0.4008 -0.1664  0.1037
  134SAPE    C114447   0.296   3.261  10.778 -0.1265  0.0604 -0.0964
  134SAPE    HA14448   0.198   3.310  10.797  0.6550  2.2286 -1.4851
  134SAPE    HB14449   0.376   3.338  10.774 -0.9703  0.9740  0.4909
  134SAPE    C214450   0.298   3.178  10.649 -0.3456 -0.0793  0.4724
  134SAPE    HS14451   0.395   3.125  10.653  0.4396  1.1113 -1.8636
  134SAPE   O2114452   0.289   3.254  10.531 -0.1681  0.5533  0.2711
  134SAPE   C2114453   0.391   3.322  10.492  0.1386 -0.4133  0.3450
  134SAPE   O2214454   0.502   3.309  10.541 -0.1437  0.1146  0.3753
  134SAPE   C2214455   0.354   3.417  10.379 -0.2034 -0.5796  0.1136
  134SAPE   H2R14456   0.243   3.422  10.369 -0.0680  1.6677 -0.5901
  134SAPE   H2S14457   0.384   3.516  10.421  0.0924 -0.4090 -0.5014
  134SAPE    C314458   0.183   3.074  10.654  0.3164 -0.3824  0.2855
  134SAPE    HX14459   0.092   3.124  10.693  0.7094  0.0213  0.6819
  134SAPE    HY14460   0.196   2.999  10.734 -2.3060  0.1287  1.2578
  134SAPE   O3114461   0.157   3.014  10.518 -0.3190  0.1484  0.1493
  134SAPE   C3114462   0.243   2.921  10.497  1.2375  0.1412 -0.4682
  134SAPE   O3214463   0.313   2.866  10.580 -0.2511  0.3014 -0.0039
  134SAPE   C3214464   0.257   2.899  10.345  0.5874  0.0291  0.0407
  134SAPE   H2X14465   0.253   2.996  10.292  0.6246  0.8851  1.5718
  134SAPE   H2Y14466   0.167   2.840  10.317 -0.4994  2.0280 -0.7764
  134SAPE   C2314467   0.441   3.415  10.253  0.6889 -0.1291 -0.2927
  134SAPE   H3R14468   0.546   3.415  10.289  0.3911 -2.2995  0.6830
  134SAPE   H3S14469   0.420   3.505  10.191 -0.3644 -0.0785  0.1299
  134SAPE   C2414470   0.410   3.295  10.167  1.1208 -0.6762 -0.3615
  134SAPE   H4R14471   0.447   3.211  10.230 -3.4066 -1.2364  1.7179
  134SAPE   H4S14472   0.480   3.300  10.081 -1.9302  2.2008 -2.7732
  134SAPE   C2514473   0.265   3.272  10.137  0.9646 -0.9374  0.1419
  134SAPE   H5R14474   0.200   3.295  10.222  1.3735  4.3979 -0.8306
  134SAPE   C2614475   0.204   3.248  10.015 -0.0382  0.6722  0.8854
  134SAPE   H6R14476   0.094   3.248  10.014 -0.0616 -1.6497 -0.0921
  134SAPE   C2714477   0.278   3.246   9.880 -0.0994 -0.0714 -0.1074
  134SAPE   H7R14478   0.238   3.155   9.830  0.1383 -0.2719  0.0680
  134SAPE   H7S14479   0.389   3.243   9.889 -0.0409  0.2644 -0.6885
  134SAPE   C2814480   0.240   3.370   9.807 -0.0579  0.2791 -0.7372
  134SAPE   H8R14481   0.253   3.457   9.873  0.2420 -1.3375  1.3768
  134SAPE   C2914482   0.203   3.387   9.681  0.1765  0.2331  0.3564
  134SAPE   H9R14483   0.176   3.489   9.653  3.1901  1.1537  0.6368
  134SAPE  C21014484   0.191   3.278   9.581 -0.2288  0.6627  0.0507
  134SAPE  H10R14485   0.141   3.188   9.621  0.9213  0.0688  0.1923
  134SAPE  H10S14486   0.289   3.240   9.545 -0.7125 -1.3304  0.8028
  134SAPE  C21114487   0.119   3.332   9.459  0.0784  0.5805 -0.5413
  134SAPE  H11R14488   0.012   3.308   9.450  0.4649 -1.3415 -0.3940
  134SAPE  C21214489   0.183   3.395   9.358  0.2454 -0.3975  0.2254
  134SAPE  H12R14490   0.124   3.447   9.281  1.0386  0.2981  0.0871
  134SAPE  C21314491   0.335   3.414   9.342  0.0813  0.6665 -0.3423
  134SAPE  H13R14492   0.365   3.369   9.245  0.6112 -0.6394  0.4214
  134SAPE  H13S14493   0.394   3.367   9.423 -1.5741  1.1241  1.1709
  134SAPE  C21414494   0.370   3.564   9.343  0.6935  0.5455 -0.1073
  134SAPE  H14R14495   0.387   3.614   9.440 -0.1606 -0.3056  0.4950
  134SAPE  C21514496   0.391   3.635   9.233 -0.5520 -0.3624  0.4613
  134SAPE  H15R14497   0.414   3.742   9.234  0.8322 -0.6478 -0.2466
  134SAPE  C21614498   0.383   3.593   9.085 -0.4248  0.3150 -0.2239
  134SAPE  H16R14499   0.275   3.575   9.067 -0.8277  1.7135  0.6769
  134SAPE  H16S14500   0.445   3.503   9.063 -0.1373  0.3510  0.4299
  134SAPE  C21714501   0.440   3.697   8.994  0.1935  0.0813 -0.2925
  134SAPE  H17R14502   0.551   3.693   8.993  0.1875 -0.8060 -3.1416
  134SAPE  H17S14503   0.412   3.800   9.026 -1.1035 -0.6243  0.8762
  134SAPE  C21814504   0.396   3.679   8.849  0.0881 -0.1692  0.1009
  134SAPE  H18R14505   0.289   3.710   8.842  0.1010  0.5746  2.5605
  134SAPE  H18S14506   0.397   3.570   8.827  0.9420  0.3516 -2.6212
  134SAPE  C21914507   0.475   3.764   8.745 -0.3586 -0.0739  0.1098
  134SAPE  H19R14508   0.416   3.746   8.653  1.1980  0.1675 -0.9575
  134SAPE  H19S14509   0.576   3.720   8.728 -0.0536  1.0873 -1.2209
  134SAPE  C22014510   0.496   3.914   8.767  0.0984  0.2698 -0.3075
  134SAPE  H20R14511   0.545   3.967   8.682 -0.3193 -0.5462 -1.0597
  134SAPE  H20S14512   0.535   3.944   8.867  0.3890  0.9235 -0.6137
  134SAPE  H20T14513   0.402   3.973   8.774 -0.4416 -0.7238  0.9225
  134SAPE   C3314514   0.393   2.832  10.305 -0.2707 -0.0403 -0.9242
  134SAPE   H3X14515   0.403   2.740  10.367 -2.1740 -1.6106 -2.8388
  134SAPE   H3Y14516   0.476   2.901  10.330 -0.8234  1.0492 -2.0211
  134SAPE   C3414517   0.396   2.774  10.163 -0.2274  0.1398  0.5583
  134SAPE   H4X14518   0.334   2.682  10.160  0.7538 -0.4695 -3.0683
  134SAPE   H4Y14519   0.489   2.723  10.128 -2.2284 -2.4032 -1.2331
  134SAPE   C3514520   0.345   2.870  10.056  0.3946 -0.3849 -0.4946
  134SAPE   H5X14521   0.414   2.954  10.033  0.4272  0.2057  1.6810
  134SAPE   H5Y14522   0.244   2.908  10.082 -0.4924 -4.2412  2.2032
  134SAPE   C3614523   0.325   2.795   9.924 -0.3765  0.6526 -0.2220
  134SAPE   H6X14524   0.253   2.712   9.943 -2.3040  1.6037 -3.0017
  134SAPE   H6Y14525   0.419   2.744   9.894 -0.8957  0.6663 -1.9478
  134SAPE   C3714526   0.281   2.880   9.803  0.5707 -0.0128 -0.6631
  134SAPE   H7X14527   0.366   2.946   9.775  1.2792 -0.1562  1.1050
  134SAPE   H7Y14528   0.194   2.941   9.834 -0.3379 -2.6499  2.2638
  134SAPE   C3814529   0.246   2.804   9.676 -0.4098  0.5401 -0.0505
  134SAPE   H8X14530   0.166   2.729   9.698 -1.7995  1.2773 -2.3169
  134SAPE   H8Y14531   0.334   2.744   9.646 -2.4598 -3.1629  1.0192
  134SAPE   C3914532   0.187   2.900   9.577 -0.4175  0.3532  0.6245
  134SAPE   H9X14533   0.255   2.985   9.552  1.2037 -0.2958  2.6845
  134SAPE   H9Y14534   0.095   2.952   9.614 -3.4007 -2.3783 -2.6183
  134SAPE  C31014535   0.176   2.818   9.449 -0.1407 -0.6851 -0.1875
  134SAPE  H10X14536   0.085   2.755   9.451 -0.0209 -0.9407 -1.7963
  134SAPE  H10Y14537   0.264   2.753   9.429  1.8965  1.2339  2.1952
  134SAPE  C31114538   0.166   2.914   9.321 -0.1714  0.3793  0.6082
  134SAPE  H11X14539   0.095   2.997   9.344 -0.4078  0.7753 -1.4468
  134SAPE  H11Y14540   0.107   2.853   9.249  0.4089  0.7530 -0.1830
  134SAPE  C31214541   0.294   2.973   9.268 -0.7902  0.0097 -0.0300
  134SAPE  H12X14542   0.365   2.890   9.247  0.5561  1.2902 -0.6623
  134SAPE  H12Y14543   0.348   3.040   9.338  1.3916 -0.2944 -1.3601
  134SAPE  C31314544   0.273   3.057   9.139  0.5791 -0.9483  0.0702
  134SAPE  H13X14545   0.218   3.147   9.175  0.2176 -1.5422  1.0329
  134SAPE  H13Y14546   0.217   3.006   9.058  0.4851 -3.0571  1.4136
  134SAPE  C31414547   0.405   3.091   9.077  0.2601  0.0442 -0.6583
  134SAPE  H14X14548   0.471   3.002   9.069  0.1901 -0.0695  0.0051
  134SAPE  H14Y14549   0.468   3.151   9.147  0.6607 -0.4807 -0.5707
  134SAPE  C31514550   0.398   3.148   8.933  0.3169  0.3361 -0.1928
  134SAPE  H15X14551   0.410   3.258   8.925 -0.5074  0.2900 -2.3805
  134SAPE  H15Y14552   0.295   3.142   8.891  1.1088  1.1303 -2.3088
  134SAPE  C31614553   0.500   3.090   8.833 -0.0139 -0.3269  0.5836
  134SAPE  H16X14554   0.604   3.082   8.872  0.0868 -0.2225  0.3362
  134SAPE  H16Y14555   0.501   3.163   8.749  0.4079  0.7803  1.5197
  134SAPE  C31714556   0.466   2.948   8.773  0.1492 -0.2456 -0.5317
  134SAPE  H17X14557   0.507   2.890   8.858 -0.2366 -0.1971 -0.3092
  134SAPE  H17Y14558   0.526   2.913   8.686 -1.2628  0.0529 -1.6459
  134SAPE  C31814559   0.323   2.900   8.736  0.0056 -0.3793 -0.9761
  134SAPE  H18X14560   0.320   2.797   8.696 -0.7281 -1.0091  0.6264
  134SAPE  H18Y14561   0.285   2.969   8.657  1.1080 -1.1978 -2.2399
  134SAPE  H18Z14562   0.258   2.895   8.826  1.5823  0.3765  0.2278
  135SAPE     N14563   6.788   2.026  10.477  0.2567  0.2090  0.0821
  135SAPE   HN114564   6.735   1.977  10.551  0.1044 -0.4760 -0.4820
  135SAPE   HN214565   6.811   2.122  10.510 -1.8038 -0.3423  3.2741
  135SAPE   HN314566   6.730   2.024  10.390 -0.8614 -1.2622  0.8611
  135SAPE   C1214567   6.895   1.925  10.450 -0.6059 -0.1021 -0.4131
  135SAPE  H12A14568   6.987   1.984  10.427 -0.7568 -0.3890 -1.8064
  135SAPE  H12B14569   6.857   1.859  10.369 -1.3657  1.1043 -1.0487
  135SAPE   C1114570   6.913   1.834  10.573 -0.3118 -0.0640  0.0774
  135SAPE  H11A14571   6.961   1.886  10.659 -0.3821 -0.1743  0.1826
  135SAPE  H11B14572   6.983   1.758  10.533 -0.5963  0.2827 -1.0981
  135SAPE     P14573   6.749   1.633  10.601 -0.0774  0.1243 -0.2453
  135SAPE   O1314574   6.859   1.558  10.666  0.3541 -0.3659 -0.2416
  135SAPE   O1414575   6.613   1.612  10.657 -0.3337 -0.5811 -0.4093
  135SAPE   O1214576   6.786   1.788  10.616  0.1668  0.1178 -0.0821
  135SAPE   O1114577   6.746   1.602  10.447  1.0825 -0.1635 -0.0478
  135SAPE    C114578   6.627   1.618  10.374  0.0020  0.2804 -0.5111
  135SAPE    HA14579   6.566   1.705  10.409  1.2561  0.9590  0.0498
  135SAPE    HB14580   6.646   1.642  10.267 -0.9067 -1.4720 -1.0760
  135SAPE    C214581   6.554   1.481  10.380  0.0771  0.7614  0.1629
  135SAPE    HS14582   6.569   1.434  10.480 -4.9113 -2.5713 -0.4769
  135SAPE   O2114583   6.595   1.393  10.275  0.3286  0.2811 -0.2139
  135SAPE   C2114584   6.696   1.306  10.291  0.4374  0.2638 -0.5827
  135SAPE   O2214585   6.757   1.284  10.394  0.2141 -0.4739 -0.4806
  135SAPE   C2214586   6.681   1.204  10.183  0.1385  0.0216  0.2221
  135SAPE   H2R14587   6.590   1.156  10.225  0.0213  0.7567  0.8158
  135SAPE   H2S14588   6.648   1.256  10.090  2.1927  2.9848  1.1041
  135SAPE    C314589   6.399   1.506  10.371 -0.2985 -0.4045 -0.8733
  135SAPE    HX14590   6.370   1.550  10.469 -0.5800 -0.1865 -1.0553
  135SAPE    HY14591   6.355   1.404  10.365 -0.7807 -0.3659  1.4798
  135SAPE   O3114592   6.353   1.604  10.275  0.0436 -0.0185  0.1780
  135SAPE   C3114593   6.328   1.549  10.156  1.6455 -0.8425 -0.6210
  135SAPE   O3214594   6.310   1.431  10.136 -0.3632 -0.1023 -0.0442
  135SAPE   C3214595   6.317   1.674  10.065  0.0950  0.1310  0.2561
  135SAPE   H2X14596   6.410   1.734  10.076  0.3547 -0.0517 -0.8548
  135SAPE   H2Y14597   6.236   1.728  10.118 -0.1070 -1.7648  1.9551
  135SAPE   C2314598   6.800   1.115  10.161 -0.8901  0.0939  0.0820
  135SAPE   H3R14599   6.817   1.054  10.252 -0.3777  0.4901  0.2518
  135SAPE   H3S14600   6.896   1.166  10.142 -0.4140 -0.7411  0.2290
  135SAPE   C2414601   6.769   1.019  10.046  0.7074 -0.2726  0.0658
  135SAPE   H4R14602   6.668   0.975  10.066 -1.0473  3.2878 -0.5429
  135SAPE   H4S14603   6.831   0.927  10.052 -1.9639 -2.1370  0.0790
  135SAPE   C2514604   6.778   1.089   9.910  0.2182  0.1042 -0.2660
  135SAPE   H5R14605   6.703   1.169   9.899 -1.6060 -1.7713 -2.1507
  135SAPE   C2614606   6.877   1.077   9.820  0.3588 -0.4640  0.1306
  135SAPE   H6R14607   6.874   1.139   9.729  0.1045  1.1811  1.2356
  135SAPE   C2714608   6.997   0.993   9.825 -0.1780  0.7060  1.2006
  135SAPE   H7R14609   7.018   0.953   9.724 -0.9145 -0.0784  1.3575
  135SAPE   H7S14610   6.980   0.904   9.888  0.5880 -2.3798 -2.7897
  135SAPE   C2814611   7.113   1.072   9.879  0.4880  0.2597 -0.1106
  135SAPE   H8R14612   7.129   1.066   9.988 -1.3038  1.1566  0.2260
  135SAPE   C2914613   7.197   1.155   9.815 -0.1228  1.5426 -0.3070
  135SAPE   H9R14614   7.275   1.199   9.880  0.1953  0.0057  0.3752
  135SAPE  C21014615   7.189   1.176   9.662 -0.0672  0.1461 -0.0848
  135SAPE  H10R14616   7.154   1.084   9.612 -1.7528 -0.1315  1.5710
  135SAPE  H10S14617   7.295   1.183   9.629  0.8700 -1.5443  2.4330
  135SAPE  C21114618   7.112   1.294   9.611 -0.5854  0.1704 -0.8719
  135SAPE  H11R14619   7.127   1.390   9.664 -2.9803  0.8216 -1.3059
  135SAPE  C21214620   7.020   1.295   9.517  0.9600 -0.6026  0.5479
  135SAPE  H12R14621   6.970   1.391   9.501  0.2158 -1.1703 -0.6285
  135SAPE  C21314622   6.966   1.188   9.428  0.7293  0.1391  0.5830
  135SAPE  H13R14623   7.002   1.091   9.467 -0.9471 -0.1716  1.4057
  135SAPE  H13S14624   7.016   1.196   9.329 -1.1055  3.5957 -0.1447
  135SAPE  C21414625   6.814   1.187   9.415 -0.1887  0.4805 -0.0455
  135SAPE  H14R14626   6.757   1.209   9.507  0.6306 -0.0287  0.5930
  135SAPE  C21514627   6.748   1.171   9.300  0.4079 -0.7583  0.8953
  135SAPE  H15R14628   6.638   1.162   9.297  0.4310 -0.8947 -4.4231
  135SAPE  C21614629   6.828   1.155   9.170  0.0798  0.1861 -0.2450
  135SAPE  H16R14630   6.853   1.050   9.143  0.1126  0.4235 -1.1604
  135SAPE  H16S14631   6.919   1.217   9.156  0.6983 -0.3123  1.5094
  135SAPE  C21714632   6.724   1.213   9.062 -0.4465 -0.6112 -0.0513
  135SAPE  H17R14633   6.692   1.320   9.069 -0.5926 -0.6987  0.6199
  135SAPE  H17S14634   6.626   1.163   9.074 -1.0672  0.5778 -0.0364
  135SAPE  C21814635   6.774   1.193   8.918  0.1480  0.1866  0.8847
  135SAPE  H18R14636   6.883   1.209   8.908 -0.1426  2.1066  0.6723
  135SAPE  H18S14637   6.730   1.266   8.846 -0.6760  0.4546  1.6447
  135SAPE  C21914638   6.745   1.050   8.870 -0.4948 -0.1304  0.3633
  135SAPE  H19R14639   6.652   1.006   8.910  0.3494 -0.4955  1.9716
  135SAPE  H19S14640   6.826   0.986   8.912  1.0866  0.6699 -1.4024
  135SAPE  C22014641   6.761   1.049   8.719 -0.0133  0.2339  0.2197
  135SAPE  H20R14642   6.863   1.088   8.697  1.0940 -0.8828  3.0982
  135SAPE  H20S14643   6.684   1.108   8.665 -1.6674 -2.0393  0.0329
  135SAPE  H20T14644   6.769   0.945   8.681  0.8096  0.9262 -1.5800
  135SAPE   C3314645   6.280   1.638   9.917 -0.3022  0.3791 -0.0336
  135SAPE   H3X14646   6.203   1.559   9.921 -1.6988  1.6693 -0.9835
  135SAPE   H3Y14647   6.368   1.597   9.863 -0.9321 -0.6066 -0.3203
  135SAPE   C3414648   6.232   1.759   9.830 -1.0034  0.3566 -0.5112
  135SAPE   H4X14649   6.291   1.849   9.860 -2.4591  1.3410 -0.5532
  135SAPE   H4Y14650   6.126   1.787   9.848 -1.8286 -1.6455 -2.1455
  135SAPE   C3514651   6.250   1.722   9.680  0.4654 -0.1860 -0.0278
  135SAPE   H5X14652   6.214   1.619   9.658 -0.0964  0.1628 -0.7522
  135SAPE   H5Y14653   6.359   1.734   9.663  0.8936 -0.0999  2.5613
  135SAPE   C3614654   6.177   1.814   9.571 -0.3175 -0.0184 -0.2027
  135SAPE   H6X14655   6.255   1.878   9.526  0.5616 -0.6935  0.3353
  135SAPE   H6Y14656   6.090   1.870   9.612  0.0778  0.2863  0.2221
  135SAPE   C3714657   6.138   1.716   9.461 -0.4267 -0.6222  0.2974
  135SAPE   H7X14658   6.073   1.640   9.509  0.2624 -2.0911 -1.0637
  135SAPE   H7Y14659   6.232   1.669   9.424  0.1069  0.3338  0.4105
  135SAPE   C3814660   6.069   1.789   9.347 -0.1811 -0.5484  1.2357
  135SAPE   H8X14661   6.138   1.850   9.285 -2.2013 -1.2773 -1.8148
  135SAPE   H8Y14662   5.984   1.852   9.383 -1.5752 -1.2434 -0.7731
  135SAPE   C3914663   5.987   1.697   9.258 -0.7826 -0.8242  0.1292
  135SAPE   H9X14664   5.921   1.627   9.314  0.2795 -1.8151  0.1522
  135SAPE   H9Y14665   6.059   1.634   9.202  0.0468 -0.9406  1.3037
  135SAPE  C31014666   5.896   1.774   9.156  0.8921  0.4502 -0.1459
  135SAPE  H10X14667   5.949   1.866   9.122 -2.0476  1.7968 -1.2925
  135SAPE  H10Y14668   5.809   1.805   9.218  2.4717 -0.6981  2.7136
  135SAPE  C31114669   5.841   1.682   9.035  0.0135  0.3008 -0.3261
  135SAPE  H11X14670   5.770   1.744   8.976 -1.2495 -1.2715 -0.4901
  135SAPE  H11Y14671   5.784   1.602   9.088  0.1540  0.0447 -0.5663
  135SAPE  C31214672   5.948   1.630   8.940  0.0742  0.6063  0.2751
  135SAPE  H12X14673   6.025   1.566   8.988 -0.1869  1.0378  1.2867
  135SAPE  H12Y14674   5.997   1.725   8.909  0.7134  0.5307  1.0185
  135SAPE  C31314675   5.904   1.537   8.822 -0.1528  0.0649 -0.4670
  135SAPE  H13X14676   5.828   1.594   8.764 -0.9870 -1.9891 -1.4073
  135SAPE  H13Y14677   5.870   1.440   8.862 -1.1001  0.0658 -1.2605
  135SAPE  C31414678   6.021   1.509   8.723 -0.3571 -0.0866 -0.3403
  135SAPE  H14X14679   6.109   1.482   8.786  1.1510 -1.7305 -3.0759
  135SAPE  H14Y14680   6.049   1.606   8.677 -2.1125  1.5849  1.9668
  135SAPE  C31514681   6.004   1.394   8.621  0.8727 -0.2036 -0.8599
  135SAPE  H15X14682   6.086   1.405   8.547  0.6528  2.6507 -0.7470
  135SAPE  H15Y14683   5.926   1.420   8.546  1.2178 -1.3926 -1.6406
  135SAPE  C31614684   6.000   1.252   8.681 -0.1064  0.6206 -0.1616
  135SAPE  H16X14685   5.907   1.232   8.739  1.2405 -2.7374  0.9776
  135SAPE  H16Y14686   6.083   1.237   8.754  2.5435 -0.0218 -3.2197
  135SAPE  C31714687   5.998   1.157   8.562 -0.3757 -0.4746 -0.4365
  135SAPE  H17X14688   6.087   1.168   8.497 -0.8422  0.8808 -0.8605
  135SAPE  H17Y14689   5.903   1.184   8.511 -1.5293  0.0205  1.8964
  135SAPE  C31814690   5.992   1.008   8.599  0.1308 -0.0504 -0.5719
  135SAPE  H18X14691   5.911   0.989   8.672  1.4711  2.2079  1.5691
  135SAPE  H18Y14692   6.094   0.979   8.633 -0.5218 -2.3281 -0.4611
  135SAPE  H18Z14693   5.971   0.954   8.505 -1.4744  0.8126 -0.7163
  136SAPE     N14694   2.813   1.570  11.050  0.3558  0.2617  0.2776
  136SAPE   HN114695   2.842   1.668  11.069  0.6502  0.9253 -3.1936
  136SAPE   HN214696   2.747   1.539  11.124  1.8658  0.4191  1.7263
  136SAPE   HN314697   2.901   1.518  11.070 -0.4786 -1.2699  0.0261
  136SAPE   C1214698   2.782   1.551  10.901  0.0573  0.1817  0.1413
  136SAPE  H12A14699   2.863   1.605  10.847 -0.4223  0.2972 -0.4691
  136SAPE  H12B14700   2.687   1.607  10.897  0.2335  0.3409 -2.6292
  136SAPE   C1114701   2.779   1.406  10.852  0.0708  0.9659 -0.9815
  136SAPE  H11A14702   2.886   1.379  10.861 -0.9701 -3.1404 -0.1050
  136SAPE  H11B14703   2.746   1.388  10.747  1.0877  1.4191 -1.3846
  136SAPE     P14704   2.547   1.325  10.908  0.2050  0.0053  0.1544
  136SAPE   O1314705   2.467   1.249  11.008 -0.1908  0.3164  0.0929
  136SAPE   O1414706   2.497   1.460  10.872 -0.1160  0.2766  0.3523
  136SAPE   O1214707   2.703   1.325  10.939  0.3380  0.0783  0.1670
  136SAPE   O1114708   2.538   1.252  10.770  0.2487  0.4924  0.0329
  136SAPE    C114709   2.571   1.113  10.766 -0.1800  0.2141 -0.8631
  136SAPE    HA14710   2.665   1.091  10.820 -1.0966 -1.0036  0.2444
  136SAPE    HB14711   2.483   1.057  10.803  0.6284 -0.9861 -0.7337
  136SAPE    C214712   2.576   1.047  10.622 -0.2036 -0.4327 -0.7284
  136SAPE    HS14713   2.644   0.960  10.611 -1.4433 -1.3234 -1.4839
  136SAPE   O2114714   2.621   1.142  10.523 -0.7577  0.2904  0.1086
  136SAPE   C2114715   2.741   1.191  10.530 -0.8061  0.4228 -0.1872
  136SAPE   O2214716   2.830   1.161  10.604 -0.0218  0.6725  0.1140
  136SAPE   C2214717   2.752   1.300  10.423 -0.3909  0.2767 -0.1831
  136SAPE   H2R14718   2.682   1.281  10.338  2.6269 -2.4904 -2.1650
  136SAPE   H2S14719   2.718   1.396  10.466  2.4090  1.4853 -0.5782
  136SAPE    C314720   2.440   0.990  10.585 -0.5536  0.8684 -0.0673
  136SAPE    HX14721   2.359   1.064  10.604 -0.8817  0.3224  0.6829
  136SAPE    HY14722   2.426   0.901  10.649  0.0357  1.3818  0.7828
  136SAPE   O3114723   2.434   0.959  10.443 -0.0853  0.3208 -0.0857
  136SAPE   C3114724   2.512   0.860  10.393  0.2637  0.5490 -0.0649
  136SAPE   O3214725   2.584   0.791  10.455 -0.0725  0.0011  0.4136
  136SAPE   C3214726   2.491   0.847  10.244 -0.1575  0.3780 -0.4709
  136SAPE   H2X14727   2.381   0.865  10.235 -0.0524  1.6099  0.7752
  136SAPE   H2Y14728   2.531   0.745  10.224  1.8282  1.2372 -0.9601
  136SAPE   C2314729   2.897   1.311  10.362 -0.0301 -0.3695  0.0044
  136SAPE   H3R14730   2.909   1.223  10.296 -0.6316 -0.7022  0.3371
  136SAPE   H3S14731   2.972   1.319  10.444 -0.2598  0.3982  0.1420
  136SAPE   C2414732   2.909   1.437  10.279 -0.8737  0.1010 -0.3203
  136SAPE   H4R14733   3.012   1.457  10.242 -0.6781  1.1863  0.7687
  136SAPE   H4S14734   2.886   1.519  10.351  0.3663  0.6454 -0.5289
  136SAPE   C2514735   2.805   1.456  10.182 -0.6498  0.2595  0.0091
  136SAPE   H5R14736   2.718   1.513  10.217  0.4114  1.0023  1.4743
  136SAPE   C2614737   2.804   1.401  10.063 -0.6547 -0.3407 -0.5011
  136SAPE   H6R14738   2.719   1.424   9.998 -0.7833 -1.4241 -0.7225
  136SAPE   C2714739   2.910   1.312   9.988 -0.0789  0.0967 -0.0612
  136SAPE   H7R14740   2.998   1.314  10.055 -0.6244 -1.3134  0.7210
  136SAPE   H7S14741   2.945   1.360   9.895  3.1130 -0.8981  0.5750
  136SAPE   C2814742   2.868   1.168   9.965  0.0802  0.4150  0.0663
  136SAPE   H8R14743   2.827   1.117  10.054  1.2823 -1.6224 -0.5180
  136SAPE   C2914744   2.869   1.111   9.841  1.3291 -0.3528 -0.4192
  136SAPE   H9R14745   2.827   1.010   9.847 -1.3625  0.6193 -1.7776
  136SAPE  C21014746   2.902   1.157   9.700  0.9320 -0.2671  0.1698
  136SAPE  H10R14747   2.853   1.256   9.694 -1.1628 -1.1422  1.9525
  136SAPE  H10S14748   2.851   1.093   9.625 -0.1630  0.5362  0.2312
  136SAPE  C21114749   3.048   1.171   9.672 -1.1756  0.0457  0.1561
  136SAPE  H11R14750   3.115   1.169   9.759  0.2149 -0.4807 -0.9134
  136SAPE  C21214751   3.093   1.185   9.548 -0.0129 -1.1662  0.5508
  136SAPE  H12R14752   3.196   1.223   9.535 -0.5245  0.3171  0.7334
  136SAPE  C21314753   3.019   1.202   9.423  0.2053 -0.1202  0.5827
  136SAPE  H13R14754   3.026   1.304   9.380  1.4018 -0.2927  0.3522
  136SAPE  H13S14755   2.911   1.201   9.451  0.4113 -0.4719  1.3945
  136SAPE  C21414756   3.043   1.104   9.308 -0.2061  0.0779  0.9458
  136SAPE  H14R14757   3.094   1.011   9.338  1.7979  1.0606  0.6671
  136SAPE  C21514758   2.985   1.095   9.191  0.4138  0.3089  0.2343
  136SAPE  H15R14759   2.996   1.009   9.123  2.4549  1.7943 -1.4148
  136SAPE  C21614760   2.886   1.203   9.150  0.4157  0.4822  0.0658
  136SAPE  H16R14761   2.882   1.293   9.214 -2.7048 -0.0793  0.7667
  136SAPE  H16S14762   2.786   1.153   9.149  1.1106 -0.9416 -1.2735
  136SAPE  C21714763   2.926   1.231   9.003 -0.0572 -0.1583  0.4547
  136SAPE  H17R14764   2.846   1.300   8.968 -1.4068 -0.3778  3.0588
  136SAPE  H17S14765   2.911   1.142   8.938 -2.0770  1.6399 -1.6669
  136SAPE  C21814766   3.055   1.307   8.980 -0.3874 -0.2245  0.0289
  136SAPE  H18R14767   3.134   1.238   9.018 -0.2637 -0.2955 -0.3607
  136SAPE  H18S14768   3.049   1.401   9.040 -1.8665 -0.3967  0.1727
  136SAPE  C21914769   3.092   1.343   8.844 -0.2880  0.2856  0.4838
  136SAPE  H19R14770   3.021   1.426   8.821  2.3506  2.6117  0.3424
  136SAPE  H19S14771   3.076   1.254   8.780  0.5229  0.6208 -0.2108
  136SAPE  C22014772   3.234   1.399   8.827  0.1758 -0.3372 -0.5808
  136SAPE  H20R14773   3.257   1.488   8.889  2.8121 -0.5541 -1.1879
  136SAPE  H20S14774   3.238   1.434   8.721 -1.3792  1.4532 -0.0708
  136SAPE  H20T14775   3.318   1.326   8.829  0.7229  0.2699 -1.2035
  136SAPE   C3314776   2.579   0.950  10.169 -0.4777  0.5968  0.0324
  136SAPE   H3X14777   2.685   0.922  10.184 -1.3997 -2.5370  1.0078
  136SAPE   H3Y14778   2.566   1.054  10.206 -0.1817  1.9946 -3.4985
  136SAPE   C3414779   2.538   0.940  10.021  0.2422  1.0091  0.2001
  136SAPE   H4X14780   2.565   1.038   9.977  3.8628  0.5271  1.1549
  136SAPE   H4Y14781   2.428   0.944  10.007  0.0198  0.5584  1.6780
  136SAPE   C3514782   2.610   0.819   9.953 -0.5493  0.0098 -0.0680
  136SAPE   H5X14783   2.600   0.729  10.017 -0.7324  0.4765  0.5675
  136SAPE   H5Y14784   2.716   0.846   9.932 -0.8642  0.2288 -1.4434
  136SAPE   C3614785   2.554   0.776   9.818 -0.6415 -0.1585  0.1385
  136SAPE   H6X14786   2.453   0.743   9.850  0.2705 -2.2806  0.8642
  136SAPE   H6Y14787   2.616   0.692   9.782  0.0708 -0.6860  2.5365
  136SAPE   C3714788   2.549   0.884   9.711 -0.2522  0.2292  0.2272
  136SAPE   H7X14789   2.630   0.960   9.719 -1.4337  1.2104  3.4404
  136SAPE   H7Y14790   2.456   0.941   9.730 -0.1419  1.4070 -2.4124
  136SAPE   C3814791   2.550   0.819   9.573  0.0415 -0.1152  0.2920
  136SAPE   H8X14792   2.452   0.768   9.560 -0.7280  1.5807 -0.7948
  136SAPE   H8Y14793   2.628   0.740   9.567 -1.9627 -2.2366  1.2721
  136SAPE   C3914794   2.572   0.909   9.453 -0.6312  0.1124  0.8808
  136SAPE   H9X14795   2.669   0.962   9.466  0.7915 -2.0724 -0.5346
  136SAPE   H9Y14796   2.484   0.975   9.440 -1.5236 -1.1297  0.5438
  136SAPE  C31014797   2.587   0.829   9.325  0.3784 -0.5613 -0.0946
  136SAPE  H10X14798   2.488   0.783   9.304  0.0800 -0.2756  0.6628
  136SAPE  H10Y14799   2.655   0.745   9.352  0.4516  0.1019  1.8884
  136SAPE  C31114800   2.647   0.903   9.205 -1.4549  0.3392 -0.4527
  136SAPE  H11X14801   2.745   0.942   9.237 -1.1342 -2.1668  1.8192
  136SAPE  H11Y14802   2.587   0.994   9.184 -0.9350  0.8564  0.2983
  136SAPE  C31214803   2.670   0.823   9.078  0.6607  0.1690  0.5585
  136SAPE  H12X14804   2.572   0.798   9.032 -0.1289  1.2716  1.6094
  136SAPE  H12Y14805   2.727   0.729   9.090  2.5986  1.3567  0.9781
  136SAPE  C31314806   2.748   0.898   8.962 -0.4938 -0.3244 -0.3605
  136SAPE  H13X14807   2.833   0.923   9.028  0.0152  0.1301 -1.1852
  136SAPE  H13Y14808   2.695   0.991   8.934 -0.0945 -0.2659 -0.9170
  136SAPE  C31414809   2.779   0.802   8.853 -0.0796  0.2577 -0.8334
  136SAPE  H14X14810   2.682   0.777   8.806  0.0558  2.3478 -2.3112
  136SAPE  H14Y14811   2.845   0.718   8.884  0.1337 -0.2416 -2.5828
  136SAPE  C31514812   2.860   0.881   8.743 -0.1979 -0.1500 -0.7325
  136SAPE  H15X14813   2.948   0.929   8.791 -1.8239 -0.3111  2.6234
  136SAPE  H15Y14814   2.798   0.951   8.685 -0.0481 -0.3261 -1.1032
  136SAPE  C31614815   2.919   0.783   8.643 -0.6885  0.1193  0.0120
  136SAPE  H16X14816   2.841   0.724   8.591 -0.0868 -1.8761  1.3197
  136SAPE  H16Y14817   2.978   0.713   8.706 -0.2793 -0.2851 -0.8208
  136SAPE  C31714818   3.010   0.851   8.528 -0.0566  0.0965  0.3383
  136SAPE  H17X14819   2.948   0.931   8.482  0.7209  1.4646  1.6151
  136SAPE  H17Y14820   3.022   0.763   8.462 -1.9382 -2.5857  3.4102
  136SAPE  C31814821   3.150   0.896   8.576  0.5032  0.0386 -0.0392
  136SAPE  H18X14822   3.209   0.938   8.492 -2.8231 -1.7967 -3.4569
  136SAPE  H18Y14823   3.206   0.812   8.624  1.4604  0.2394 -0.7907
  136SAPE  H18Z14824   3.146   0.976   8.652 -0.5749 -0.4401  0.4175
  137SAPE     N14825   0.025   4.576  11.430  0.5091 -0.3892  0.4734
  137SAPE   HN114826   0.038   4.489  11.486 -1.5152  0.3251  2.1123
  137SAPE   HN214827   0.112   4.589  11.375  1.3203 -1.8687  1.3509
  137SAPE   HN314828   0.034   4.652  11.501  0.2191  1.5905 -1.5473
  137SAPE   C1214829  -0.113   4.588  11.359 -0.1987 -0.5972  0.5236
  137SAPE  H12A14830  -0.120   4.697  11.339 -2.6844 -0.6167  1.1402
  137SAPE  H12B14831  -0.184   4.549  11.436 -1.1004 -0.4280 -0.2198
  137SAPE   C1114832  -0.094   4.499  11.233 -0.2510  0.1884  0.7330
  137SAPE  H11A14833  -0.181   4.526  11.169  1.0634 -1.3364 -1.7678
  137SAPE  H11B14834  -0.106   4.389  11.244  1.7050 -0.1492 -0.2700
  137SAPE     P14835   0.035   4.615  11.035  0.5677 -0.5812  0.0366
  137SAPE   O1314836   0.009   4.753  11.073 -0.2138 -0.7015  0.4624
  137SAPE   O1414837   0.167   4.581  10.974  0.4034 -0.2370 -0.1784
  137SAPE   O1214838   0.022   4.528  11.161  0.0055 -0.1746  0.2579
  137SAPE   O1114839  -0.083   4.567  10.947  0.0912  0.3066  0.5212
  137SAPE    C114840  -0.087   4.441  10.881 -0.1508  0.4407 -0.2240
  137SAPE    HA14841  -0.040   4.360  10.941 -1.2384 -1.5843 -2.0469
  137SAPE    HB14842  -0.189   4.412  10.849  0.2641 -0.8235 -0.4047
  137SAPE    C214843  -0.018   4.458  10.746  0.2254  0.1746  0.1079
  137SAPE    HS14844   0.084   4.495  10.769  0.1965 -0.3909  1.1380
  137SAPE   O2114845  -0.085   4.553  10.667  0.0609  0.1007  0.7327
  137SAPE   C2114846  -0.011   4.613  10.575 -0.7080  0.1078  0.1527
  137SAPE   O2214847   0.109   4.624  10.574  0.6878 -0.1192 -0.2081
  137SAPE   C2214848  -0.093   4.691  10.471 -0.2104 -0.2072  0.0910
  137SAPE   H2R14849  -0.200   4.666  10.487 -0.5776  1.2220 -0.0739
  137SAPE   H2S14850  -0.088   4.802  10.475 -2.0092 -0.0871 -0.7080
  137SAPE    C314851  -0.014   4.328  10.670 -0.1144 -0.0261  0.0033
  137SAPE    HX14852  -0.122   4.326  10.644 -0.1715  0.7679  0.1535
  137SAPE    HY14853   0.022   4.251  10.741  1.1980  2.0302  1.6123
  137SAPE   O3114854   0.068   4.325  10.544  0.6207 -0.2440 -0.1168
  137SAPE   C3114855   0.197   4.325  10.563  1.1041 -0.0738  0.1979
  137SAPE   O3214856   0.252   4.322  10.671  0.1229  0.4142 -0.5733
  137SAPE   C3214857   0.263   4.302  10.429  0.2937  0.3281 -0.2393
  137SAPE   H2X14858   0.215   4.216  10.376  0.5455 -1.2437  2.0190
  137SAPE   H2Y14859   0.366   4.262  10.443  0.5767  0.7759 -1.0394
  137SAPE   C2314860  -0.037   4.655  10.323  0.0503 -0.0365  0.3037
  137SAPE   H3R14861  -0.022   4.546  10.314  3.2855  0.2268  1.9692
  137SAPE   H3S14862   0.058   4.712  10.326  1.6788 -2.7902  2.7873
  137SAPE   C2414863  -0.136   4.700  10.216 -0.2299  0.0901 -0.1989
  137SAPE   H4R14864  -0.214   4.621  10.225  0.6498 -0.8271 -0.4683
  137SAPE   H4S14865  -0.087   4.684  10.118 -1.2498  0.8821 -0.8509
  137SAPE   C2514866  -0.189   4.843  10.226 -0.8077  0.1012 -0.4675
  137SAPE   H5R14867  -0.197   4.879  10.330  0.6885 -0.4125 -0.1646
  137SAPE   C2614868  -0.223   4.919  10.125 -0.1170  0.1548 -0.9179
  137SAPE   H6R14869  -0.260   5.021  10.145 -1.1182 -0.4214  0.2518
  137SAPE   C2714870  -0.223   4.884   9.983 -0.5525 -0.9231  0.1665
  137SAPE   H7R14871  -0.297   4.946   9.928 -0.5622 -0.8979  0.2086
  137SAPE   H7S14872  -0.262   4.782   9.963  0.5627 -1.1853 -0.7498
  137SAPE   C2814873  -0.093   4.897   9.909 -0.2064  0.3478 -0.3289
  137SAPE   H8R14874  -0.012   4.924   9.980 -1.2093  0.6259  0.7359
  137SAPE   C2914875  -0.063   4.880   9.776  0.1554  0.0365 -0.2061
  137SAPE   H9R14876   0.040   4.877   9.740  0.9267  0.6469  1.8301
  137SAPE  C21014877  -0.154   4.838   9.665  0.2918 -0.0005 -0.4747
  137SAPE  H10R14878  -0.239   4.785   9.714  0.5224 -0.1265 -0.2072
  137SAPE  H10S14879  -0.102   4.768   9.596  2.8207  1.4006 -0.0725
  137SAPE  C21114880  -0.219   4.951   9.594  0.5526  0.4287 -0.5239
  137SAPE  H11R14881  -0.238   5.040   9.657  2.9693  0.8392 -0.3116
  137SAPE  C21214882  -0.246   4.963   9.461  0.0196  0.3430  0.3870
  137SAPE  H12R14883  -0.273   5.062   9.422  2.1174  0.6712 -0.3145
  137SAPE  C21314884  -0.227   4.842   9.368 -0.1927  0.1869 -0.2942
  137SAPE  H13R14885  -0.311   4.847   9.295  0.0663  0.7030 -0.5609
  137SAPE  H13S14886  -0.245   4.742   9.413  0.8593 -0.1601 -0.6384
  137SAPE  C21414887  -0.091   4.850   9.298 -0.0278 -0.2913 -0.1687
  137SAPE  H14R14888  -0.008   4.834   9.369  0.5698  2.7038 -0.1223
  137SAPE  C21514889  -0.064   4.845   9.168 -0.1045 -0.0631  0.0098
  137SAPE  H15R14890   0.045   4.860   9.155 -0.2433  0.1222 -0.9895
  137SAPE  C21614891  -0.162   4.843   9.054  0.6515 -0.1838  0.4254
  137SAPE  H16R14892  -0.254   4.789   9.084 -0.2641  0.7320 -0.7081
  137SAPE  H16S14893  -0.117   4.779   8.975  1.7515  0.6901  0.3195
  137SAPE  C21714894  -0.204   4.984   8.995  0.7513  0.6135 -0.4309
  137SAPE  H17R14895  -0.124   5.059   9.014 -0.1008  1.7391 -1.1573
  137SAPE  H17S14896  -0.294   5.010   9.055  0.7855 -1.6294  0.6388
  137SAPE  C21814897  -0.239   4.963   8.848 -1.2278 -0.3273 -0.0265
  137SAPE  H18R14898  -0.334   5.013   8.821 -1.3810 -0.9661 -0.6985
  137SAPE  H18S14899  -0.269   4.856   8.838 -0.0294 -0.4397 -2.8064
  137SAPE  C21914900  -0.133   5.003   8.738 -0.3874  0.1294 -0.1895
  137SAPE  H19R14901  -0.104   5.108   8.761  0.4830 -0.3244  0.8620
  137SAPE  H19S14902  -0.185   5.012   8.640 -1.5731 -2.5864  0.1400
  137SAPE  C22014903  -0.012   4.911   8.727 -0.8083  0.0067  0.6056
  137SAPE  H20R14904  -0.046   4.806   8.715  0.4111 -0.4070  0.6528
  137SAPE  H20S14905   0.061   4.931   8.809 -0.6263  2.4220 -0.0910
  137SAPE  H20T14906   0.044   4.946   8.638 -1.5268 -0.1257  0.0983
  137SAPE   C3314907   0.268   4.423  10.335  0.8047 -0.0051 -0.5508
  137SAPE   H3X14908   0.313   4.512  10.384 -0.3193  0.3461 -0.1426
  137SAPE   H3Y14909   0.167   4.453  10.300  0.4712  1.1923  1.3513
  137SAPE   C3414910   0.363   4.394  10.218  0.7004  0.9142  0.2483
  137SAPE   H4X14911   0.333   4.291  10.190 -1.1277  0.4713  3.5939
  137SAPE   H4Y14912   0.469   4.400  10.252  0.7786 -0.5979  0.2907
  137SAPE   C3514913   0.348   4.495  10.107  0.6403  0.5926  0.0493
  137SAPE   H5X14914   0.248   4.483  10.061 -0.1393  1.9726  1.3286
  137SAPE   H5Y14915   0.419   4.476  10.024 -0.3319 -1.4839 -0.3426
  137SAPE   C3614916   0.361   4.644  10.151  0.1619 -0.5868  0.5657
  137SAPE   H6X14917   0.470   4.662  10.164 -0.0116 -0.2628  1.6385
  137SAPE   H6Y14918   0.306   4.673  10.243 -0.0622  0.1412  0.2014
  137SAPE   C3714919   0.300   4.734  10.039 -0.1651 -0.2677  0.4785
  137SAPE   H7X14920   0.345   4.835  10.046 -0.0655 -0.1287 -1.7064
  137SAPE   H7Y14921   0.190   4.734  10.050 -0.2618  0.6254 -0.3781
  137SAPE   C3814922   0.338   4.694   9.896  0.3745  0.6502  0.2027
  137SAPE   H8X14923   0.291   4.599   9.863 -0.0148  0.4434  1.3355
  137SAPE   H8Y14924   0.448   4.682   9.892  0.3155  0.6511 -1.7631
  137SAPE   C3914925   0.302   4.803   9.797  0.2045 -0.1533  0.1499
  137SAPE   H9X14926   0.387   4.875   9.797  0.1472 -0.0833 -0.4338
  137SAPE   H9Y14927   0.213   4.858   9.835 -1.3823 -1.1906 -1.9936
  137SAPE  C31014928   0.281   4.766   9.642  0.1152 -0.0019  0.5580
  137SAPE  H10X14929   0.245   4.856   9.587  0.5283  0.1042  0.4586
  137SAPE  H10Y14930   0.207   4.684   9.632 -2.6781  2.3535  0.9536
  137SAPE  C31114931   0.411   4.707   9.580  1.0181 -0.6383 -0.4075
  137SAPE  H11X14932   0.445   4.620   9.639 -0.5280 -0.6042  0.5686
  137SAPE  H11Y14933   0.480   4.793   9.595  2.1214 -1.2264 -1.9523
  137SAPE  C31214934   0.403   4.690   9.424  0.2208 -0.2531 -0.2872
  137SAPE  H12X14935   0.345   4.599   9.397 -0.7775  0.3887 -0.3186
  137SAPE  H12Y14936   0.506   4.677   9.383  0.8814  0.6381  1.0578
  137SAPE  C31314937   0.349   4.811   9.342 -0.3012 -0.1369 -0.4904
  137SAPE  H13X14938   0.399   4.904   9.376 -0.6422 -0.0275 -0.2826
  137SAPE  H13Y14939   0.241   4.824   9.362  0.3118  0.9047  2.3309
  137SAPE  C31414940   0.385   4.805   9.198 -0.1085 -0.2964 -0.3577
  137SAPE  H14X14941   0.350   4.712   9.148 -0.0358 -0.5345  0.0322
  137SAPE  H14Y14942   0.496   4.806   9.194  0.0247 -1.7671  2.0131
  137SAPE  C31514943   0.335   4.924   9.108 -0.4528 -0.3186  0.2070
  137SAPE  H15X14944   0.329   5.010   9.178 -1.4805  0.8781 -1.3271
  137SAPE  H15Y14945   0.230   4.894   9.088 -1.0120  2.2639 -0.9674
  137SAPE  C31614946   0.417   4.952   8.982 -0.4642  0.2825  0.2218
  137SAPE  H16X14947   0.518   4.982   9.018  0.2248 -1.8238  0.0690
  137SAPE  H16Y14948   0.370   5.042   8.937  1.8992  1.5394  0.1894
  137SAPE  C31714949   0.441   4.844   8.884  0.6407  0.4608 -0.0017
  137SAPE  H17X14950   0.346   4.811   8.838  0.8340 -0.9547  0.5888
  137SAPE  H17Y14951   0.479   4.757   8.943 -1.9482 -0.1152  0.8693
  137SAPE  C31814952   0.536   4.874   8.767 -0.6086  0.2088  0.5714
  137SAPE  H18X14953   0.509   4.948   8.689 -0.5104 -0.0220  0.3181
  137SAPE  H18Y14954   0.559   4.783   8.709  1.0180  1.0391 -0.1190
  137SAPE  H18Z14955   0.631   4.911   8.811 -1.0269  0.7032  1.0791
  138SAPE     N14956   3.874   6.057  11.046  0.0282  0.2407  0.4604
  138SAPE   HN114957   3.874   5.963  11.001  1.0552  1.0644 -1.2882
  138SAPE   HN214958   3.811   6.055  11.129 -2.4537  0.7459 -1.3516
  138SAPE   HN314959   3.841   6.135  10.986  0.4408  0.1842  0.1633
  138SAPE   C1214960   4.013   6.080  11.087 -0.9516  0.1568 -0.3023
  138SAPE  H12A14961   4.052   6.001  11.154 -1.6150 -0.3335 -0.4895
  138SAPE  H12B14962   4.018   6.175  11.145  0.8003 -0.4575  0.5745
  138SAPE   C1114963   4.108   6.099  10.964  0.6864  0.4824 -0.3022
  138SAPE  H11A14964   4.099   6.015  10.893 -0.0047  1.7848 -1.7899
  138SAPE  H11B14965   4.209   6.115  11.008  0.5561  1.4361 -0.3220
  138SAPE     P14966   4.155   6.252  10.751 -0.2654  0.3912  0.6615
  138SAPE   O1314967   4.077   6.328  10.649  0.2593 -0.1253  0.3103
  138SAPE   O1414968   4.288   6.309  10.777  0.0264  0.1010 -0.2290
  138SAPE   O1214969   4.077   6.218  10.882 -0.1002 -0.1561 -0.1922
  138SAPE   O1114970   4.188   6.110  10.691 -0.2099  0.1124  0.0853
  138SAPE    C114971   4.081   6.040  10.621 -0.2996  0.0620  0.0392
  138SAPE    HA14972   4.004   5.991  10.684  0.9860 -0.5180  1.1759
  138SAPE    HB14973   4.027   6.109  10.553 -0.5735  0.1330  0.3282
  138SAPE    C214974   4.143   5.935  10.531 -0.3076  0.5919 -0.5047
  138SAPE    HS14975   4.164   5.854  10.604 -1.8910  1.2649  0.7045
  138SAPE   O2114976   4.266   5.980  10.463  0.2030  0.1323  0.0840
  138SAPE   C2114977   4.348   5.882  10.426  0.1484 -0.2488 -0.1128
  138SAPE   O2214978   4.333   5.765  10.449  0.9124 -0.1290 -0.8402
  138SAPE   C2214979   4.458   5.940  10.339 -0.5795  0.4523  0.6018
  138SAPE   H2R14980   4.411   5.976  10.245  0.0431  3.0085  1.2181
  138SAPE   H2S14981   4.487   6.041  10.377 -0.5717  0.7087 -0.0782
  138SAPE    C314982   4.033   5.887  10.429 -0.2802 -0.1254 -0.9993
  138SAPE    HX14983   3.993   5.986  10.396  0.2324  0.1097 -0.9212
  138SAPE    HY14984   3.947   5.850  10.489  0.8061 -0.7020  0.2133
  138SAPE   O3114985   4.076   5.797  10.321 -0.8132  0.6435  0.1218
  138SAPE   C3114986   4.074   5.662  10.361  0.2170 -0.0381 -0.8276
  138SAPE   O3214987   4.046   5.629  10.475  0.1435  0.4045  0.0356
  138SAPE   C3214988   4.111   5.566  10.249  0.0756  0.0364 -0.7504
  138SAPE   H2X14989   4.028   5.493  10.242 -0.3481  0.5086 -0.6571
  138SAPE   H2Y14990   4.197   5.502  10.279 -0.3151  1.1381  3.0735
  138SAPE   C2314991   4.579   5.849  10.309  0.1588  0.3328 -0.6281
  138SAPE   H3R14992   4.558   5.744  10.278  1.2980 -0.1493  0.2272
  138SAPE   H3S14993   4.633   5.830  10.404 -2.0589  0.8671  0.7869
  138SAPE   C2414994   4.673   5.920  10.210  0.1020 -0.4065 -0.4768
  138SAPE   H4R14995   4.703   6.019  10.251 -1.1932 -0.2287  0.0725
  138SAPE   H4S14996   4.629   5.947  10.112 -1.4304 -2.7071 -0.4516
  138SAPE   C2514997   4.788   5.826  10.171 -0.2370  0.5029 -0.7145
  138SAPE   H5R14998   4.867   5.817  10.247 -0.8450  0.4000 -0.0897
  138SAPE   C2614999   4.824   5.787  10.046 -0.3355  0.1047  0.2964
  138SAPE   H6R15000   4.912   5.721  10.041 -1.1014 -1.4123  4.3435
  138SAPE   C2715001   4.759   5.817   9.915  0.1316 -0.6369  0.5645
  138SAPE   H7R15002   4.821   5.770   9.835 -0.2283  2.1881 -1.4623
  138SAPE   H7S15003   4.765   5.926   9.895  0.0211 -0.7545 -0.1479
  138SAPE   C2815004   4.611   5.770   9.896  0.2259  0.1233  0.2394
  138SAPE   H8R15005   4.560   5.734   9.987  0.1010  0.8889  0.4803
  138SAPE   C2915006   4.547   5.785   9.772  0.1652 -0.4884 -0.6388
  138SAPE   H9R15007   4.441   5.756   9.765 -0.2969  0.8448  0.5983
  138SAPE  C21015008   4.611   5.843   9.643 -0.4552  0.2258 -0.1125
  138SAPE  H10R15009   4.711   5.886   9.670  0.8767 -3.9102  2.0513
  138SAPE  H10S15010   4.546   5.920   9.597  0.0216 -0.2319 -1.5781
  138SAPE  C21115011   4.628   5.724   9.545  0.2507 -0.5318 -0.4422
  138SAPE  H11R15012   4.651   5.628   9.593  0.7216  0.8765  2.2917
  138SAPE  C21215013   4.612   5.722   9.409 -0.0927  0.3334  0.1372
  138SAPE  H12R15014   4.621   5.635   9.342 -4.2979 -0.8321  0.9377
  138SAPE  C21315015   4.567   5.843   9.323  0.8731 -0.1208  0.1377
  138SAPE  H13R15016   4.653   5.901   9.285  0.5053  0.3054 -0.0415
  138SAPE  H13S15017   4.508   5.916   9.381 -0.1875 -0.7312 -0.1638
  138SAPE  C21415018   4.472   5.800   9.214  0.4943 -0.3183  0.1933
  138SAPE  H14R15019   4.392   5.729   9.238 -0.1170  0.5023  0.6171
  138SAPE  C21515020   4.483   5.841   9.086 -0.1145  0.0412 -0.4035
  138SAPE  H15R15021   4.404   5.812   9.015  1.1187 -1.6652 -1.0811
  138SAPE  C21615022   4.574   5.944   9.027 -0.2321 -0.5039  1.2512
  138SAPE  H16R15023   4.627   5.997   9.109 -0.5871 -0.7293  1.6289
  138SAPE  H16S15024   4.509   6.021   8.981  0.9644 -0.3267 -0.2011
  138SAPE  C21715025   4.683   5.876   8.936 -0.2666  0.2862  0.4344
  138SAPE  H17R15026   4.742   5.799   8.990 -1.4394 -0.3291  0.8648
  138SAPE  H17S15027   4.769   5.946   8.925  0.6921 -1.0531 -0.6866
  138SAPE  C21815028   4.621   5.819   8.810  0.9109  0.4320 -0.3649
  138SAPE  H18R15029   4.571   5.908   8.764 -0.7464  0.2827  1.0930
  138SAPE  H18S15030   4.542   5.745   8.836 -2.1299  3.7135  0.1461
  138SAPE  C21915031   4.735   5.778   8.711 -0.0194 -0.2609  0.4352
  138SAPE  H19R15032   4.820   5.850   8.714 -0.2168  0.0074 -0.3493
  138SAPE  H19S15033   4.701   5.793   8.606 -0.4871  0.3782  0.6787
  138SAPE  C22015034   4.783   5.640   8.731  0.8741 -0.1993  0.2903
  138SAPE  H20R15035   4.876   5.625   8.671  0.8823  1.4961 -0.1560
  138SAPE  H20S15036   4.713   5.564   8.691 -0.3980  0.6046  0.9490
  138SAPE  H20T15037   4.808   5.611   8.835  1.8605 -0.0378  0.1091
  138SAPE   C3315038   4.142   5.637  10.118 -0.4975  0.1822  0.8232
  138SAPE   H3X15039   4.229   5.701  10.143  0.1328 -0.6901  0.9124
  138SAPE   H3Y15040   4.058   5.694  10.073  0.5931  1.4753  0.3914
  138SAPE   C3415041   4.192   5.543   9.999  0.5701 -0.3034 -0.0842
  138SAPE   H4X15042   4.137   5.446  10.004 -1.6211  0.9049 -0.3595
  138SAPE   H4Y15043   4.302   5.523   9.995  0.6439  0.4089 -1.9147
  138SAPE   C3515044   4.165   5.600   9.862  0.0544  0.2607  0.1613
  138SAPE   H5X15045   4.201   5.705   9.864  0.0617  0.2375  1.8281
  138SAPE   H5Y15046   4.057   5.585   9.839  0.3930 -1.1540 -0.5955
  138SAPE   C3615047   4.249   5.541   9.750 -0.2842  0.4992  0.4538
  138SAPE   H6X15048   4.260   5.430   9.758 -3.1096  0.1124 -0.3586
  138SAPE   H6Y15049   4.354   5.575   9.761 -0.5435  1.2820  0.4806
  138SAPE   C3715050   4.187   5.564   9.609  0.0239  0.5193 -0.1674
  138SAPE   H7X15051   4.173   5.673   9.596  0.2220  0.4587 -0.9480
  138SAPE   H7Y15052   4.101   5.495   9.604 -0.1360  0.7386 -0.5028
  138SAPE   C3815053   4.284   5.525   9.498 -0.6518 -0.7387 -0.6672
  138SAPE   H8X15054   4.313   5.420   9.521 -0.0524 -0.1403  1.4223
  138SAPE   H8Y15055   4.371   5.594   9.499  0.8720 -2.5438 -3.4720
  138SAPE   C3915056   4.218   5.537   9.359 -0.3824 -0.2694  0.1324
  138SAPE   H9X15057   4.212   5.640   9.316 -2.6270  0.2010  1.4523
  138SAPE   H9Y15058   4.113   5.502   9.371 -0.6717  1.3376  2.7185
  138SAPE  C31015059   4.268   5.437   9.260 -0.9312 -0.1048  0.3063
  138SAPE  H10X15060   4.232   5.445   9.155  4.0893 -2.4365 -1.7820
  138SAPE  H10Y15061   4.246   5.329   9.278 -3.1843  0.0729 -1.1473
  138SAPE  C31115062   4.422   5.426   9.239  0.1855  0.3521 -0.0342
  138SAPE  H11X15063   4.475   5.378   9.325 -0.2964 -1.4412 -0.7149
  138SAPE  H11Y15064   4.469   5.527   9.240  1.6809 -0.3110 -0.9595
  138SAPE  C31215065   4.466   5.357   9.111 -0.5028 -0.4507  0.9547
  138SAPE  H12X15066   4.383   5.385   9.042  0.7120 -0.2317 -0.4570
  138SAPE  H12Y15067   4.453   5.247   9.119 -0.1543 -0.9361 -3.8162
  138SAPE  C31315068   4.603   5.399   9.055 -0.6700  0.2840 -0.5315
  138SAPE  H13X15069   4.619   5.507   9.076 -0.6724  0.4935 -1.6013
  138SAPE  H13Y15070   4.618   5.392   8.945  0.2096  3.3981 -0.6560
  138SAPE  C31415071   4.713   5.321   9.122 -0.6007 -0.1344 -0.7021
  138SAPE  H14X15072   4.705   5.212   9.100  0.8236 -0.1787 -1.0526
  138SAPE  H14Y15073   4.710   5.333   9.232  3.5386  1.7516 -0.6860
  138SAPE  C31515074   4.854   5.364   9.068 -0.2328  0.3724  0.7122
  138SAPE  H15X15075   4.840   5.378   8.958 -0.7583 -0.1760  0.7041
  138SAPE  H15Y15076   4.930   5.284   9.080  0.2742  0.5613 -1.0944
  138SAPE  C31615077   4.914   5.494   9.132 -0.4345 -0.2340 -0.4842
  138SAPE  H16X15078   4.916   5.477   9.241  0.2453 -1.9013 -0.7337
  138SAPE  H16Y15079   4.842   5.576   9.111  0.3028  0.6999  0.6076
  138SAPE  C31715080   5.058   5.525   9.100 -0.1651 -0.4214 -0.2606
  138SAPE  H17X15081   5.108   5.427   9.095  2.4999  0.7104  2.5873
  138SAPE  H17Y15082   5.100   5.581   9.187  0.4990 -2.9388  1.0628
  138SAPE  C31815083   5.089   5.595   8.969  0.4536  0.4068 -0.3576
  138SAPE  H18X15084   5.060   5.528   8.885 -2.9644  0.1231  0.9936
  138SAPE  H18Y15085   5.200   5.604   8.969  0.4174  0.8839 -1.2547
  138SAPE  H18Z15086   5.039   5.693   8.954  2.2276  1.6023  1.3975
  139SAPE     N15087   3.665   3.741  10.816  0.5015  0.2387  0.2662
  139SAPE   HN115088   3.768   3.723  10.820  0.1816 -2.2193 -1.1702
  139SAPE   HN215089   3.635   3.823  10.873 -1.8463 -0.0807 -0.4679
  139SAPE   HN315090   3.624   3.652  10.852 -0.4284  0.0884 -1.1566
  139SAPE   C1215091   3.625   3.758  10.672 -0.0097 -0.4525 -0.5709
  139SAPE  H12A15092   3.694   3.834  10.631 -1.6189  2.1854  1.4705
  139SAPE  H12B15093   3.522   3.799  10.665 -0.2937 -1.2011 -0.8519
  139SAPE   C1115094   3.637   3.629  10.594  0.0282  0.0470 -0.2142
  139SAPE  H11A15095   3.633   3.642  10.483  0.6652 -2.6342 -0.5832
  139SAPE  H11B15096   3.541   3.580  10.620 -0.4737  0.9398 -0.3756
  139SAPE     P15097   3.898   3.580  10.613 -0.3703  0.2452  0.0304
  139SAPE   O1315098   3.933   3.687  10.710  0.0670 -0.8350  0.5649
  139SAPE   O1415099   3.972   3.453  10.603  0.8643 -0.2611  0.0751
  139SAPE   O1215100   3.740   3.548  10.645  0.1816  0.3396 -0.5289
  139SAPE   O1115101   3.885   3.660  10.474 -0.5195  0.9565 -0.6610
  139SAPE    C115102   3.875   3.586  10.352 -0.2382 -0.1707 -0.0224
  139SAPE    HA15103   3.854   3.478  10.365 -0.8026 -0.0506  0.0833
  139SAPE    HB15104   3.792   3.620  10.287  0.6332  1.6340 -0.2386
  139SAPE    C215105   4.009   3.597  10.269 -0.1042  0.7672  1.0475
  139SAPE    HS15106   4.092   3.558  10.331  0.1202  1.1527  0.9937
  139SAPE   O2115107   4.025   3.736  10.224 -0.2694  0.3004  0.1630
  139SAPE   C2115108   4.158   3.779  10.224  0.1794  0.6139  0.0521
  139SAPE   O2215109   4.250   3.706  10.255  0.4013 -0.1165 -0.0309
  139SAPE   C2215110   4.181   3.920  10.158  0.3241  0.1566 -0.1479
  139SAPE   H2R15111   4.100   3.950  10.087  0.2432  0.2769 -0.0044
  139SAPE   H2S15112   4.171   3.994  10.240 -1.2262 -1.6360  1.3420
  139SAPE    C315113   4.017   3.499  10.151 -0.2152 -0.7868 -0.1150
  139SAPE    HX15114   4.123   3.502  10.119 -0.4532  0.6367 -0.8398
  139SAPE    HY15115   3.946   3.540  10.075  0.7944 -2.1380 -1.8090
  139SAPE   O3115116   3.970   3.366  10.186  0.0662  0.1709  0.0303
  139SAPE   C3115117   3.928   3.289  10.086  0.0814 -0.3408  0.8686
  139SAPE   O3215118   3.936   3.317   9.965  0.5465  0.0484 -0.2856
  139SAPE   C3215119   3.865   3.160  10.143  0.7227  0.6304 -0.7407
  139SAPE   H2X15120   3.771   3.183  10.198  0.5266 -1.1737 -0.2666
  139SAPE   H2Y15121   3.930   3.131  10.228 -0.6263 -0.8714 -0.1862
  139SAPE   C2315122   4.323   3.940  10.093 -0.7169  0.2862  0.3063
  139SAPE   H3R15123   4.393   3.880  10.155 -1.1374  0.1464  0.6407
  139SAPE   H3S15124   4.362   4.043  10.110  2.8082 -1.0852  1.0320
  139SAPE   C2415125   4.335   3.919   9.942  0.5531  0.7098  0.2797
  139SAPE   H4R15126   4.433   3.952   9.902 -0.0168 -1.3168 -3.0064
  139SAPE   H4S15127   4.266   3.973   9.874  2.7196  4.0278  0.6247
  139SAPE   C2515128   4.332   3.765   9.923  0.2326 -0.5351 -0.1061
  139SAPE   H5R15129   4.417   3.715   9.970  0.8923  0.7063  0.0331
  139SAPE   C2615130   4.234   3.693   9.864 -0.7757  0.3330 -0.1635
  139SAPE   H6R15131   4.255   3.586   9.851 -0.0462  0.7945 -3.0090
  139SAPE   C2715132   4.114   3.741   9.789 -0.2445  0.3654 -0.1657
  139SAPE   H7R15133   4.148   3.787   9.694 -1.2566  0.6171 -0.4057
  139SAPE   H7S15134   4.070   3.821   9.852  0.8028  0.7414  0.1000
  139SAPE   C2815135   4.006   3.642   9.756  0.1174  0.5473  0.3727
  139SAPE   H8R15136   3.962   3.602   9.849  0.3171 -0.5724 -0.0033
  139SAPE   C2915137   3.974   3.567   9.649 -0.5787  0.2616  0.0090
  139SAPE   H9R15138   3.883   3.505   9.649 -0.7571  0.5087 -1.4290
  139SAPE  C21015139   4.031   3.581   9.514 -0.1057  0.8956 -0.0316
  139SAPE  H10R15140   4.131   3.630   9.516 -0.2011  1.0736  2.4897
  139SAPE  H10S15141   3.969   3.655   9.459  0.1903  0.2813 -1.2147
  139SAPE  C21115142   4.059   3.453   9.438  0.2762 -0.5610 -0.4074
  139SAPE  H11R15143   4.147   3.396   9.472 -0.2368 -1.0550  0.1154
  139SAPE  C21215144   3.979   3.403   9.343 -0.7623 -0.4715 -0.1074
  139SAPE  H12R15145   3.999   3.304   9.298 -0.2006 -1.8227  2.9799
  139SAPE  C21315146   3.842   3.455   9.301 -0.0615  0.1612  0.1113
  139SAPE  H13R15147   3.817   3.547   9.359 -0.6157 -0.1758  0.4212
  139SAPE  H13S15148   3.764   3.380   9.327 -1.2079  1.2086 -0.2754
  139SAPE  C21415149   3.831   3.490   9.161 -0.4477  0.4555 -0.2840
  139SAPE  H14R15150   3.792   3.592   9.145 -0.4769  0.6068  0.6944
  139SAPE  C21515151   3.851   3.409   9.053  0.2212  0.1214  0.1921
  139SAPE  H15R15152   3.842   3.450   8.951 -0.6148  1.6783  0.8766
  139SAPE  C21615153   3.891   3.263   9.042 -0.3785 -0.8332  0.0092
  139SAPE  H16R15154   3.804   3.217   8.989 -2.5379  3.6296 -0.5270
  139SAPE  H16S15155   3.896   3.224   9.146 -2.1665  0.5730  0.6422
  139SAPE  C21715156   4.020   3.249   8.954 -0.1122 -0.3675 -0.0742
  139SAPE  H17R15157   4.092   3.322   8.997 -1.2896 -0.3688  1.9766
  139SAPE  H17S15158   3.997   3.281   8.850 -1.4114 -2.3434 -0.4132
  139SAPE  C21815159   4.082   3.106   8.953  0.4536 -0.7369 -0.3560
  139SAPE  H18R15160   4.015   3.027   8.913 -1.4125  0.3966  0.4443
  139SAPE  H18S15161   4.086   3.088   9.063 -0.1733  2.1905  0.1846
  139SAPE  C21915162   4.224   3.099   8.881 -0.2323 -0.0621  0.4529
  139SAPE  H19R15163   4.250   2.993   8.904 -2.4538 -0.0405  3.3338
  139SAPE  H19S15164   4.304   3.160   8.929  0.4495  0.1975 -0.9876
  139SAPE  C22015165   4.229   3.125   8.727 -0.6095 -0.3850 -1.2008
  139SAPE  H20R15166   4.207   3.230   8.700  1.9744  0.0554 -1.7428
  139SAPE  H20S15167   4.146   3.060   8.692 -1.2655 -0.8828  1.1545
  139SAPE  H20T15168   4.333   3.107   8.692 -0.5817 -1.1471 -0.7301
  139SAPE   C3315169   3.832   3.043  10.060 -1.1244  0.4359  0.6723
  139SAPE   H3X15170   3.924   2.983  10.046 -0.2502  2.1748 -1.3951
  139SAPE   H3Y15171   3.799   3.081   9.961 -1.3110  3.9867  2.0235
  139SAPE   C3415172   3.716   2.957  10.114 -0.0443  0.2036  0.0756
  139SAPE   H4X15173   3.637   3.024  10.154  0.0608  0.0267  0.5881
  139SAPE   H4Y15174   3.745   2.891  10.199  0.9165  0.5981  0.0485
  139SAPE   C3515175   3.642   2.876  10.004 -0.1303 -0.3864 -0.1953
  139SAPE   H5X15176   3.602   2.949   9.931 -0.6762 -0.4054  0.0828
  139SAPE   H5Y15177   3.557   2.818  10.047  0.3057  0.0601  1.2990
  139SAPE   C3615178   3.733   2.770   9.942 -0.1478  0.5083 -0.1917
  139SAPE   H6X15179   3.769   2.705  10.024  0.0141 -0.8130 -1.2957
  139SAPE   H6Y15180   3.821   2.814   9.890  1.7006 -1.0981  1.5292
  139SAPE   C3715181   3.657   2.676   9.842  0.1697 -0.0368  0.7446
  139SAPE   H7X15182   3.635   2.740   9.754  0.0487 -1.3088 -0.1485
  139SAPE   H7Y15183   3.563   2.653   9.897 -1.7660  0.7822 -2.1319
  139SAPE   C3815184   3.728   2.550   9.796  0.4478 -0.6695 -0.1788
  139SAPE   H8X15185   3.660   2.487   9.735 -0.1832 -0.7687  0.6179
  139SAPE   H8Y15186   3.752   2.490   9.886  1.1759  2.0120  1.4663
  139SAPE   C3915187   3.865   2.575   9.732 -0.2574 -0.3817  0.1479
  139SAPE   H9X15188   3.919   2.481   9.710  0.1819 -0.2071  0.4838
  139SAPE   H9Y15189   3.918   2.632   9.811 -2.1097  0.9463  0.4767
  139SAPE  C31015190   3.870   2.678   9.621  0.1025  0.2723  0.3484
  139SAPE  H10X15191   3.977   2.710   9.614  0.0440  0.4905  0.4296
  139SAPE  H10Y15192   3.815   2.770   9.650  0.5385  1.2858 -1.8951
  139SAPE  C31115193   3.828   2.639   9.480 -0.5886  0.0293  0.8404
  139SAPE  H11X15194   3.838   2.721   9.406  1.6677 -0.3133  0.7161
  139SAPE  H11Y15195   3.718   2.626   9.484 -0.6818 -1.1496 -3.5455
  139SAPE  C31215196   3.887   2.504   9.433  0.0504  0.2874  0.4545
  139SAPE  H12X15197   3.838   2.420   9.486 -2.0835  1.2480  0.0702
  139SAPE  H12Y15198   3.994   2.514   9.460 -0.5169  2.6082  1.9345
  139SAPE  C31315199   3.858   2.479   9.283 -0.6438 -0.0049 -0.6331
  139SAPE  H13X15200   3.928   2.540   9.222 -1.1426 -1.7647 -3.0553
  139SAPE  H13Y15201   3.751   2.502   9.264 -1.0899 -0.8143  0.8039
  139SAPE  C31415202   3.861   2.332   9.231 -0.0370 -0.1643 -0.1245
  139SAPE  H14X15203   3.811   2.251   9.288  0.9044 -1.5808 -1.2931
  139SAPE  H14Y15204   3.969   2.305   9.223 -0.5400 -3.2960  2.4094
  139SAPE  C31515205   3.821   2.315   9.081 -0.0455  0.5600  0.0279
  139SAPE  H15X15206   3.875   2.392   9.022 -0.5658 -0.6027 -2.0224
  139SAPE  H15Y15207   3.711   2.332   9.076 -0.1113 -0.0530 -0.6615
  139SAPE  C31615208   3.859   2.177   9.031 -0.4352 -0.4757  0.2169
  139SAPE  H16X15209   3.958   2.152   9.076 -0.3060 -0.6738 -0.1748
  139SAPE  H16Y15210   3.797   2.097   9.077  0.3685 -0.1405  1.9338
  139SAPE  C31715211   3.861   2.170   8.880 -0.2732  0.1205 -0.0192
  139SAPE  H17X15212   3.889   2.067   8.850  0.0956  0.5883 -1.3025
  139SAPE  H17Y15213   3.931   2.234   8.822  2.3607 -0.6062  2.2752
  139SAPE  C31815214   3.719   2.184   8.808  0.2019 -0.2513 -0.2552
  139SAPE  H18X15215   3.696   2.293   8.808  0.4590 -0.1751  1.7833
  139SAPE  H18Y15216   3.639   2.128   8.861  0.4917 -0.0707  0.3893
  139SAPE  H18Z15217   3.730   2.151   8.703 -0.5478 -2.9545  0.4619
  140SAPE     N15218   6.793   6.686  11.004 -0.1780 -0.0702 -0.5322
  140SAPE   HN115219   6.878   6.738  11.036 -0.5318 -0.2741  0.7592
  140SAPE   HN215220   6.827   6.601  10.955 -0.8746 -0.4883 -0.2911
  140SAPE   HN315221   6.756   6.738  10.921  0.1392  0.3740 -0.4000
  140SAPE   C1215222   6.690   6.665  11.111 -0.0735 -0.4671  0.3580
  140SAPE  H12A15223   6.723   6.602  11.195  0.9089 -1.7343 -0.9534
  140SAPE  H12B15224   6.596   6.624  11.068 -0.6188  1.1205 -0.0350
  140SAPE   C1115225   6.663   6.810  11.161  0.0351  0.0494 -0.1783
  140SAPE  H11A15226   6.759   6.865  11.163  0.2973 -0.4227  0.5126
  140SAPE  H11B15227   6.610   6.810  11.259 -0.0060 -1.7195 -0.1791
  140SAPE     P15228   6.543   7.025  11.101  0.0984  0.3931  0.1814
  140SAPE   O1315229   6.419   7.018  11.172 -0.3362 -0.7866  0.2719
  140SAPE   O1415230   6.657   7.101  11.161 -0.1559  0.1854  0.2452
  140SAPE   O1215231   6.590   6.879  11.062  0.2618  0.9275  0.3225
  140SAPE   O1115232   6.509   7.083  10.958 -0.2984  0.5582  0.2429
  140SAPE    C115233   6.415   7.026  10.859 -0.1910  0.2380 -0.1485
  140SAPE    HA15234   6.453   6.925  10.832 -0.4739 -0.0720  0.6333
  140SAPE    HB15235   6.312   7.033  10.900 -0.5771 -0.9281 -0.8885
  140SAPE    C215236   6.420   7.101  10.727  0.1316  0.0878  0.4064
  140SAPE    HS15237   6.339   7.065  10.660  2.0253 -0.5340 -1.6169
  140SAPE   O2115238   6.553   7.098  10.669  0.3804 -0.0806 -0.2969
  140SAPE   C2115239   6.575   7.006  10.587  0.1412 -0.1668  0.0979
  140SAPE   O2215240   6.508   6.905  10.564  0.1188  0.0807  0.0144
  140SAPE   C2215241   6.690   7.048  10.493  0.6846  0.4685 -0.8251
  140SAPE   H2R15242   6.751   7.120  10.551 -0.9618  1.3286 -0.1366
  140SAPE   H2S15243   6.756   6.959  10.482  0.3213 -0.0080  0.6301
  140SAPE    C315244   6.378   7.249  10.745 -0.2812 -0.4948 -0.1866
  140SAPE    HX15245   6.426   7.283  10.839  0.5353  1.0725 -1.1571
  140SAPE    HY15246   6.272   7.254  10.778 -0.3151  0.2076 -0.3974
  140SAPE   O3115247   6.405   7.317  10.620 -0.1970  0.2234  0.3770
  140SAPE   C3115248   6.498   7.401  10.622 -0.8339 -0.5380  0.7146
  140SAPE   O3215249   6.570   7.428  10.713  0.0746  0.5593  0.2413
  140SAPE   C3215250   6.496   7.471  10.484  0.7934 -0.0599  0.3437
  140SAPE   H2X15251   6.423   7.554  10.494  0.5065 -0.2948  0.1633
  140SAPE   H2Y15252   6.451   7.400  10.412 -2.1495  0.8907  1.1916
  140SAPE   C2315253   6.647   7.128  10.373 -0.8169 -0.9672  0.2821
  140SAPE   H3R15254   6.732   7.193  10.343 -1.2598 -0.2117  0.6132
  140SAPE   H3S15255   6.562   7.192  10.407 -1.7559 -0.3021 -3.1612
  140SAPE   C2415256   6.602   7.045  10.249  0.0580 -0.8179  0.6206
  140SAPE   H4R15257   6.534   7.101  10.181 -0.6032 -1.1670  0.9906
  140SAPE   H4S15258   6.531   6.968  10.286 -1.6625  0.0585 -0.7887
  140SAPE   C2515259   6.721   6.985  10.168  0.8128  0.5560 -0.2537
  140SAPE   H5R15260   6.805   6.950  10.230 -0.2424 -0.3226  0.6868
  140SAPE   C2615261   6.727   6.969  10.036 -0.2288 -0.5914 -0.2644
  140SAPE   H6R15262   6.811   6.915   9.990 -0.2971 -0.9855  0.0745
  140SAPE   C2715263   6.611   6.997   9.944  0.0225 -0.3942 -0.3348
  140SAPE   H7R15264   6.620   7.098   9.900  1.3662 -0.5104 -0.3385
  140SAPE   H7S15265   6.512   6.989   9.995  1.6332 -1.8920  2.6685
  140SAPE   C2815266   6.607   6.895   9.830  0.2297  0.1959 -0.3887
  140SAPE   H8R15267   6.563   6.798   9.858  0.7095  0.2252  0.4699
  140SAPE   C2915268   6.656   6.922   9.702  0.4096 -0.0561  0.2922
  140SAPE   H9R15269   6.664   6.840   9.629  1.6370  0.0304  0.3114
  140SAPE  C21015270   6.732   7.057   9.656 -0.2213 -0.4891 -0.4594
  140SAPE  H10R15271   6.798   7.094   9.737  1.1083 -0.8466 -1.3549
  140SAPE  H10S15272   6.657   7.131   9.622 -0.4901 -1.5353 -2.2391
  140SAPE  C21115273   6.834   7.030   9.555  0.1780 -0.2269  1.4584
  140SAPE  H11R15274   6.942   7.019   9.568  0.6246  1.5867 -0.2968
  140SAPE  C21215275   6.795   7.034   9.423  0.4363 -0.1614 -0.4144
  140SAPE  H12R15276   6.871   7.019   9.345  0.7824 -2.6495  0.3378
  140SAPE  C21315277   6.662   7.066   9.367  0.2770  0.0749  0.1194
  140SAPE  H13R15278   6.653   7.176   9.378 -0.9271  0.0978 -0.9830
  140SAPE  H13S15279   6.581   7.026   9.432 -1.8790 -0.7875 -2.9830
  140SAPE  C21415280   6.649   7.024   9.222  0.4694 -0.2364 -0.4854
  140SAPE  H14R15281   6.590   6.934   9.199 -0.4604  0.3497 -0.4394
  140SAPE  C21515282   6.684   7.099   9.113  0.3166  0.2021  0.7270
  140SAPE  H15R15283   6.654   7.065   9.013 -1.1853 -0.4713  1.3984
  140SAPE  C21615284   6.732   7.241   9.119  0.0080 -0.3571  0.2379
  140SAPE  H16R15285   6.825   7.230   9.059  0.1542 -1.7605  0.6940
  140SAPE  H16S15286   6.748   7.287   9.219  0.1775  1.3465 -0.5615
  140SAPE  C21715287   6.636   7.332   9.051  0.5213  0.1333  0.1841
  140SAPE  H17R15288   6.661   7.439   9.063 -1.5194  0.6459 -0.0262
  140SAPE  H17S15289   6.540   7.314   9.104  1.1727 -1.9423  0.7294
  140SAPE  C21815290   6.605   7.309   8.905 -0.6392 -0.3876  0.0343
  140SAPE  H18R15291   6.527   7.379   8.868 -0.2946 -0.1818 -0.3076
  140SAPE  H18S15292   6.548   7.215   8.893  2.5395 -2.1502 -1.9033
  140SAPE  C21915293   6.716   7.324   8.799 -0.3812 -0.2622 -0.2503
  140SAPE  H19R15294   6.676   7.281   8.705 -1.1790 -1.6132  0.6846
  140SAPE  H19S15295   6.805   7.267   8.834 -1.6446 -0.9569  1.8978
  140SAPE  C22015296   6.745   7.477   8.783  0.0616  0.0573  0.2868
  140SAPE  H20R15297   6.650   7.523   8.748  0.4351 -0.0077 -0.8442
  140SAPE  H20S15298   6.830   7.488   8.712  0.5034  0.3171  0.8521
  140SAPE  H20T15299   6.772   7.533   8.875 -1.1181  2.5265 -0.8220
  140SAPE   C3315300   6.634   7.527  10.438  0.1022 -0.5675 -0.4562
  140SAPE   H3X15301   6.716   7.455  10.424 -0.5389 -1.6062  1.0253
  140SAPE   H3Y15302   6.681   7.592  10.514 -0.2626 -1.5827  0.6411
  140SAPE   C3415303   6.621   7.612  10.306 -0.4593  0.0936  0.2078
  140SAPE   H4X15304   6.719   7.660  10.287 -1.3429  2.0885  0.4964
  140SAPE   H4Y15305   6.540   7.687  10.320 -1.3307 -0.7771 -0.1368
  140SAPE   C3515306   6.602   7.523  10.185  0.0407 -0.4005 -0.5356
  140SAPE   H5X15307   6.590   7.592  10.098  1.0447  0.8768  0.3068
  140SAPE   H5Y15308   6.506   7.469  10.197  0.0909 -0.3156  0.3110
  140SAPE   C3615309   6.716   7.428  10.151 -0.6032 -0.1388  0.7021
  140SAPE   H6X15310   6.692   7.320  10.156  4.4613 -1.4753 -0.6190
  140SAPE   H6Y15311   6.799   7.444  10.223  0.4807  1.9579 -0.9434
  140SAPE   C3715312   6.779   7.438  10.006 -0.1635 -0.8448  0.6272
  140SAPE   H7X15313   6.848   7.352   9.997  1.7601  0.3054  3.8639
  140SAPE   H7Y15314   6.825   7.537   9.987  1.5385 -1.7478 -0.0490
  140SAPE   C3815315   6.684   7.412   9.891 -0.2008  0.1840  0.0356
  140SAPE   H8X15316   6.617   7.499   9.873 -0.0762  0.3090  0.1646
  140SAPE   H8Y15317   6.614   7.329   9.914  0.0088 -0.5565 -1.9101
  140SAPE   C3915318   6.750   7.384   9.755  0.6749 -0.0700  0.6217
  140SAPE   H9X15319   6.663   7.361   9.690  1.5086 -0.7416 -0.2701
  140SAPE   H9Y15320   6.808   7.290   9.747  2.0081  0.9432 -2.2586
  140SAPE  C31015321   6.832   7.506   9.705 -0.7322  0.6593  0.1428
  140SAPE  H10X15322   6.929   7.522   9.757  1.0444  1.5179 -3.2946
  140SAPE  H10Y15323   6.773   7.599   9.719 -2.7964 -0.3039 -1.7784
  140SAPE  C31115324   6.872   7.488   9.555  0.3318 -0.0553 -0.1832
  140SAPE  H11X15325   6.774   7.486   9.504  0.9663 -1.5238 -1.3613
  140SAPE  H11Y15326   6.926   7.391   9.557 -1.7624 -1.2245  2.0379
  140SAPE  C31215327   6.945   7.609   9.500  0.1038 -0.6760 -0.8154
  140SAPE  H12X15328   7.028   7.634   9.570  1.6384  1.5953 -3.3333
  140SAPE  H12Y15329   6.878   7.698   9.491  1.1915  0.5916  2.7660
  140SAPE  C31315330   7.016   7.589   9.359  0.3323  0.3319 -0.1684
  140SAPE  H13X15331   7.097   7.514   9.370 -0.6784 -0.4729  2.0452
  140SAPE  H13Y15332   7.078   7.681   9.350 -1.8969  1.6815 -2.1230
  140SAPE  C31415333   6.919   7.566   9.240  0.6820  0.5143  0.2246
  140SAPE  H14X15334   6.855   7.655   9.219  0.7872  0.6234  0.3592
  140SAPE  H14Y15335   6.842   7.496   9.279 -2.0246  2.1115 -2.0782
  140SAPE  C31515336   6.976   7.533   9.103 -0.2268  0.4451 -0.3916
  140SAPE  H15X15337   6.884   7.511   9.046 -0.8027 -0.2479  0.7909
  140SAPE  H15Y15338   7.036   7.440   9.119  0.0445  0.3225 -2.0542
  140SAPE  C31615339   7.068   7.640   9.045 -0.6336  0.0804  0.4909
  140SAPE  H16X15340   7.129   7.693   9.122 -1.6208 -0.1095  1.4132
  140SAPE  H16Y15341   7.010   7.728   9.011 -1.1695 -0.9734 -1.3392
  140SAPE  C31715342   7.167   7.586   8.935  0.0240 -0.1197  0.2223
  140SAPE  H17X15343   7.220   7.496   8.973 -1.1228  0.1644  2.6084
  140SAPE  H17Y15344   7.243   7.664   8.915 -0.0077 -0.0627  0.3217
  140SAPE  C31815345   7.097   7.536   8.810 -0.4275  0.1078 -0.9404
  140SAPE  H18X15346   7.036   7.444   8.826 -2.6891  1.5102 -1.1813
  140SAPE  H18Y15347   7.166   7.518   8.726 -0.8726  1.8493 -1.7067
  140SAPE  H18Z15348   7.036   7.619   8.767 -1.0543 -0.9529 -2.1077
  141SAPE     N15349   0.052   1.265  10.682  0.0645 -0.0686  0.3601
  141SAPE   HN115350   0.147   1.232  10.709  0.0255  1.1480  2.0700
  141SAPE   HN215351   0.006   1.215  10.604 -1.8995  0.2960  1.2520
  141SAPE   HN315352   0.056   1.364  10.650  0.7652 -0.9347 -2.3494
  141SAPE   C1215353  -0.039   1.257  10.793  0.4521  0.4024  0.4142
  141SAPE  H12A15354  -0.068   1.153  10.815 -2.0744  0.9176 -0.2988
  141SAPE  H12B15355  -0.131   1.315  10.767 -0.1768 -0.3482  0.9515
  141SAPE   C1115356   0.029   1.318  10.920 -0.4577  0.5706  0.5841
  141SAPE  H11A15357  -0.059   1.344  10.982 -1.3329 -0.9573 -0.0061
  141SAPE  H11B15358   0.080   1.416  10.903  2.4134 -0.4410  2.9330
  141SAPE     P15359   0.266   1.216  10.970  0.4678  0.3841 -0.2867
  141SAPE   O1315360   0.327   1.337  11.028  0.7174  0.9913  0.2192
  141SAPE   O1415361   0.308   1.084  11.012 -0.1932 -0.3254 -0.0419
  141SAPE   O1215362   0.105   1.221  10.981  0.5452  0.1910  0.6909
  141SAPE   O1115363   0.283   1.233  10.814  0.0596  0.0432 -0.4486
  141SAPE    C115364   0.358   1.140  10.738  0.0237 -0.8215  0.0827
  141SAPE    HA15365   0.439   1.089  10.795  1.1489  1.7400  0.8849
  141SAPE    HB15366   0.288   1.057  10.717  0.7711 -1.3991 -0.1311
  141SAPE    C215367   0.426   1.205  10.616 -0.5178 -0.3995  0.0769
  141SAPE    HS15368   0.485   1.290  10.656  0.6815 -0.1756 -2.0866
  141SAPE   O2115369   0.320   1.249  10.528  0.4080 -0.4242 -0.0961
  141SAPE   C2115370   0.345   1.357  10.459  0.6785  1.1851  0.7340
  141SAPE   O2215371   0.451   1.420  10.459  0.1012  0.0396 -0.3888
  141SAPE   C2215372   0.228   1.391  10.365 -0.9152  0.1836  0.2701
  141SAPE   H2R15373   0.194   1.304  10.304 -0.2600  0.8065 -1.0029
  141SAPE   H2S15374   0.144   1.431  10.425 -2.5538 -0.0959 -1.8182
  141SAPE    C315375   0.523   1.109  10.530  0.2460  0.0307  0.2729
  141SAPE    HX15376   0.604   1.083  10.602  0.5325 -2.7920 -0.9978
  141SAPE    HY15377   0.569   1.163  10.445  0.1386 -0.2300  0.0510
  141SAPE   O3115378   0.452   0.986  10.491  0.7098 -0.3106 -0.2701
  141SAPE   C3115379   0.404   0.976  10.366 -0.4365  0.5669  0.0657
  141SAPE   O3215380   0.406   1.061  10.278 -0.4712 -0.2247  0.3615
  141SAPE   C3215381   0.351   0.831  10.349  0.1408  0.2043  0.4229
  141SAPE   H2X15382   0.272   0.815  10.425  1.6883 -0.1185  2.0044
  141SAPE   H2Y15383   0.436   0.765  10.379  0.2020 -0.6223 -1.4897
  141SAPE   C2315384   0.275   1.506  10.264 -0.0500  0.6163 -0.1261
  141SAPE   H3R15385   0.369   1.488  10.208  0.6566  1.7855  0.6864
  141SAPE   H3S15386   0.301   1.600  10.316  1.2247  0.4541 -0.4499
  141SAPE   C2415387   0.159   1.531  10.174 -0.0214  0.2786 -0.7243
  141SAPE   H4R15388   0.176   1.630  10.127  0.6219  0.0806 -0.9111
  141SAPE   H4S15389   0.061   1.555  10.220  0.9774  2.1228  0.5066
  141SAPE   C2515390   0.157   1.432  10.055  0.0562  1.0424 -0.6609
  141SAPE   H5R15391   0.205   1.335  10.075 -1.1515  0.6051  0.1620
  141SAPE   C2615392   0.080   1.446   9.943 -0.5800 -0.2270 -0.4196
  141SAPE   H6R15393   0.086   1.359   9.876  1.1071 -0.0668 -0.5199
  141SAPE   C2715394  -0.017   1.551   9.898  0.4604  0.6269  0.4720
  141SAPE   H7R15395  -0.002   1.604   9.802 -0.4978 -0.0967 -0.0854
  141SAPE   H7S15396  -0.019   1.633   9.973  0.4253  1.4099 -0.3766
  141SAPE   C2815397  -0.161   1.498   9.884  0.5501 -0.9098  0.4115
  141SAPE   H8R15398  -0.219   1.520   9.975  0.0933  0.0792 -0.1121
  141SAPE   C2915399  -0.224   1.445   9.774  0.7324  0.3894 -0.3463
  141SAPE   H9R15400  -0.330   1.418   9.782  0.4773  1.0902 -1.3530
  141SAPE  C21015401  -0.168   1.420   9.638  0.2632 -0.3842  0.0258
  141SAPE  H10R15402  -0.228   1.333   9.603 -1.2225 -0.1885  1.9831
  141SAPE  H10S15403  -0.072   1.369   9.657  0.1003 -0.5908  0.2960
  141SAPE  C21115404  -0.137   1.529   9.534  0.9566 -0.3148 -0.2250
  141SAPE  H11R15405  -0.058   1.595   9.573  0.8678 -0.2752 -0.1159
  141SAPE  C21215406  -0.179   1.549   9.411 -0.2512  0.2746  0.8284
  141SAPE  H12R15407  -0.133   1.639   9.367  0.5818 -0.0169  1.1038
  141SAPE  C21315408  -0.288   1.477   9.330 -0.5000 -0.3476  0.2423
  141SAPE  H13R15409  -0.338   1.400   9.393 -1.9668  0.3115 -0.1014
  141SAPE  H13S15410  -0.255   1.415   9.244  0.1066 -0.5983  0.6552
  141SAPE  C21415411  -0.401   1.571   9.285  0.3448  0.4190  0.1319
  141SAPE  H14R15412  -0.409   1.660   9.350 -0.6514  1.1241 -0.9445
  141SAPE  C21515413  -0.477   1.563   9.174 -0.3617  0.2770 -0.6453
  141SAPE  H15R15414  -0.527   1.653   9.136 -1.4089 -0.0474 -0.0631
  141SAPE  C21615415  -0.470   1.454   9.070 -0.5944  0.0672  0.1816
  141SAPE  H16R15416  -0.561   1.391   9.063 -1.4865  1.2151  0.9881
  141SAPE  H16S15417  -0.392   1.379   9.095  1.4608  1.2045 -2.5961
  141SAPE  C21715418  -0.427   1.504   8.930  0.1047  0.1465  0.3359
  141SAPE  H17R15419  -0.477   1.603   8.917  0.9257  0.4989 -0.1658
  141SAPE  H17S15420  -0.464   1.432   8.854  1.7611  0.2470 -0.5724
  141SAPE  C21815421  -0.280   1.532   8.909  0.0106 -0.0072 -0.6570
  141SAPE  H18R15422  -0.221   1.440   8.890  0.6980  0.6850 -1.9376
  141SAPE  H18S15423  -0.254   1.589   9.002 -0.5615 -1.7146  0.5756
  141SAPE  C21915424  -0.251   1.624   8.791  0.5789  0.5564 -0.0849
  141SAPE  H19R15425  -0.309   1.719   8.794  0.3415  0.3806  1.4610
  141SAPE  H19S15426  -0.292   1.574   8.700 -1.1745  0.0143  0.9793
  141SAPE  C22015427  -0.101   1.638   8.754 -0.8403  0.2065 -0.1908
  141SAPE  H20R15428  -0.099   1.735   8.700 -0.9252 -0.9044 -2.2354
  141SAPE  H20S15429  -0.063   1.553   8.694  1.2972  1.0209 -0.0149
  141SAPE  H20T15430  -0.045   1.636   8.850  0.4581 -2.1949 -0.9612
  141SAPE   C3315431   0.300   0.796  10.204  0.3234  0.1323  0.8553
  141SAPE   H3X15432   0.251   0.891  10.173  1.4271  1.3720  2.8075
  141SAPE   H3Y15433   0.213   0.728  10.213 -1.2797  2.2423  1.9534
  141SAPE   C3415434   0.410   0.752  10.113  0.3690  0.9780  0.1600
  141SAPE   H4X15435   0.459   0.673  10.175  0.5374  0.6356 -0.4001
  141SAPE   H4Y15436   0.490   0.828  10.103  2.1296 -0.9794 -1.0246
  141SAPE   C3515437   0.360   0.695   9.978 -0.5813 -0.6734 -0.1317
  141SAPE   H5X15438   0.325   0.782   9.920 -0.1532 -0.3140  0.1444
  141SAPE   H5Y15439   0.274   0.625   9.988  0.4040 -2.2330 -2.1655
  141SAPE   C3615440   0.474   0.643   9.899 -0.1265 -0.0878  1.0669
  141SAPE   H6X15441   0.492   0.538   9.928  0.4218 -0.1674  0.4477
  141SAPE   H6Y15442   0.558   0.706   9.933 -0.4087 -0.6766  2.9111
  141SAPE   C3715443   0.452   0.663   9.747  1.1578 -0.0225  0.2378
  141SAPE   H7X15444   0.387   0.751   9.726  1.8214  0.6085  0.8082
  141SAPE   H7Y15445   0.399   0.573   9.712 -0.5603  1.0035  0.1575
  141SAPE   C3815446   0.581   0.666   9.659  0.4499  0.3072  0.2902
  141SAPE   H8X15447   0.642   0.578   9.687 -0.9250 -1.1972 -1.2697
  141SAPE   H8Y15448   0.629   0.758   9.699  0.2768  0.5131  0.0306
  141SAPE   C3915449   0.538   0.668   9.511 -1.1334  0.6879 -0.3074
  141SAPE   H9X15450   0.449   0.735   9.511 -1.4287  0.3015 -0.8904
  141SAPE   H9Y15451   0.497   0.568   9.485  1.5595 -0.5463 -0.0688
  141SAPE  C31015452   0.654   0.708   9.423  0.4436 -0.2163  0.6479
  141SAPE  H10X15453   0.753   0.665   9.448  0.6633 -0.9027 -1.3628
  141SAPE  H10Y15454   0.657   0.819   9.428 -1.6670 -0.1149  0.0539
  141SAPE  C31115455   0.624   0.680   9.279  0.0378  0.0562 -0.2070
  141SAPE  H11X15456   0.546   0.751   9.244  0.5481  0.8392  0.2142
  141SAPE  H11Y15457   0.574   0.583   9.259 -2.6059  0.8538  2.2484
  141SAPE  C31215458   0.757   0.677   9.193 -0.2424 -0.1728 -0.6857
  141SAPE  H12X15459   0.785   0.570   9.197  0.9275  0.2067  2.6135
  141SAPE  H12Y15460   0.842   0.734   9.236 -1.7470 -0.1075  2.3538
  141SAPE  C31315461   0.733   0.705   9.051  0.2162  0.1246  0.6970
  141SAPE  H13X15462   0.641   0.655   9.016 -0.2321  0.7876  0.9180
  141SAPE  H13Y15463   0.825   0.671   8.999  0.9167  2.0462  0.6266
  141SAPE  C31415464   0.714   0.853   9.017  0.4310 -0.7294 -0.3759
  141SAPE  H14X15465   0.803   0.912   9.050  0.7555 -0.6217 -1.4147
  141SAPE  H14Y15466   0.624   0.899   9.063  0.5913 -1.3345  0.5601
  141SAPE  C31515467   0.687   0.871   8.865 -0.1072 -0.2000 -0.2841
  141SAPE  H15X15468   0.611   0.801   8.825 -0.4590  0.5849 -0.9997
  141SAPE  H15Y15469   0.784   0.854   8.813 -0.4404 -1.0093 -0.6437
  141SAPE  C31615470   0.655   1.015   8.832 -0.4125  0.0728 -0.1915
  141SAPE  H16X15471   0.722   1.089   8.880  0.0610 -1.1133  0.9957
  141SAPE  H16Y15472   0.556   1.044   8.875 -0.1137 -0.7187  1.0696
  141SAPE  C31715473   0.631   1.052   8.678 -0.5700 -0.1337  0.0283
  141SAPE  H17X15474   0.728   1.044   8.626  0.0634 -2.7903  1.5144
  141SAPE  H17Y15475   0.606   1.159   8.667 -0.2779 -0.3994 -3.5790
  141SAPE  C31815476   0.534   0.960   8.605  0.2766  0.4706 -0.0980
  141SAPE  H18X15477   0.514   1.000   8.503 -0.2041 -0.6434 -0.4431
  141SAPE  H18Y15478   0.439   0.960   8.662  0.1086  1.6921 -0.3459
  141SAPE  H18Z15479   0.554   0.851   8.605  1.0804  0.5692  3.0932
  142SAPE     N15480   0.134   0.439  11.311 -0.1066  0.2281 -0.2739
  142SAPE   HN115481   0.047   0.404  11.357 -0.3574 -1.1935 -1.8072
  142SAPE   HN215482   0.152   0.528  11.361 -0.4582 -1.5391  3.1961
  142SAPE   HN315483   0.118   0.468  11.213  0.6974 -1.8237 -1.0526
  142SAPE   C1215484   0.254   0.353  11.314  0.3116  0.3191 -0.5585
  142SAPE  H12A15485   0.311   0.375  11.407 -1.3825  0.2655  0.5142
  142SAPE  H12B15486   0.313   0.387  11.226  1.5542 -0.8268 -0.1731
  142SAPE   C1115487   0.218   0.207  11.293  0.1112 -0.2887  0.2618
  142SAPE  H11A15488   0.119   0.183  11.250  0.0706  0.4213 -0.0520
  142SAPE  H11B15489   0.221   0.163  11.395 -3.1598 -0.3148  0.3785
  142SAPE     P15490   0.304   0.113  11.067  0.8838  0.6017 -0.0258
  142SAPE   O1315491   0.437   0.093  11.003  0.3571 -0.2763  0.1713
  142SAPE   O1415492   0.205   0.007  11.048  0.5270  0.7501  0.0725
  142SAPE   O1215493   0.324   0.141  11.222 -0.1483 -0.0967 -0.3362
  142SAPE   O1115494   0.249   0.256  11.015  0.3578  0.2898  0.4785
  142SAPE    C115495   0.110   0.266  10.979  0.5036  0.5697 -0.2929
  142SAPE    HA15496   0.041   0.190  11.021  2.0300 -0.6486  0.0424
  142SAPE    HB15497   0.075   0.367  11.012  0.1066  0.5380 -0.6027
  142SAPE    C215498   0.090   0.277  10.824 -0.9584  0.3124  0.5798
  142SAPE    HS15499  -0.020   0.275  10.810 -0.7812 -1.4222 -0.6712
  142SAPE   O2115500   0.157   0.170  10.751  0.4617 -0.7781 -0.0752
  142SAPE   C2115501   0.107   0.057  10.755 -0.3580  0.3185  0.8193
  142SAPE   O2215502  -0.007   0.034  10.789  0.6227  0.0321 -0.3750
  142SAPE   C2215503   0.206  -0.051  10.696  0.0265 -0.2537  0.3072
  142SAPE   H2R15504   0.292  -0.049  10.767 -0.0134 -0.2457  0.3543
  142SAPE   H2S15505   0.147  -0.145  10.694 -3.5728  1.8550  2.5668
  142SAPE    C315506   0.153   0.412  10.770  0.6635  0.1350  0.6133
  142SAPE    HX15507   0.258   0.413  10.805  0.5732 -1.5736  0.9476
  142SAPE    HY15508   0.100   0.492  10.827 -2.4093  0.2180 -2.2536
  142SAPE   O3115509   0.143   0.454  10.635 -0.1819  0.4199 -0.1906
  142SAPE   C3115510   0.236   0.403  10.544 -0.4377  1.1843  0.2004
  142SAPE   O3215511   0.332   0.330  10.579 -0.3128  0.5624  0.2253
  142SAPE   C3215512   0.215   0.471  10.407  0.1271 -0.0420 -0.2466
  142SAPE   H2X15513   0.211   0.579  10.431  0.4290 -0.3209  1.1025
  142SAPE   H2Y15514   0.116   0.430  10.378 -0.2048  0.8967 -0.4482
  142SAPE   C2315515   0.260  -0.016  10.553 -0.2241  0.8735 -0.7493
  142SAPE   H3R15516   0.290   0.091  10.558  1.2797  0.4174  0.0764
  142SAPE   H3S15517   0.181  -0.029  10.475  2.0957 -3.4565 -2.5560
  142SAPE   C2415518   0.385  -0.101  10.530  0.4286 -0.1076 -0.1032
  142SAPE   H4R15519   0.464  -0.092  10.608  1.7743 -0.6606 -1.3867
  142SAPE   H4S15520   0.424  -0.041  10.446 -1.5954  2.0217  0.4044
  142SAPE   C2515521   0.357  -0.242  10.480 -0.0793 -0.0995  0.2747
  142SAPE   H5R15522   0.322  -0.316  10.555 -2.6860  1.5087  0.6923
  142SAPE   C2615523   0.372  -0.292  10.354  0.0267  0.3855 -0.8614
  142SAPE   H6R15524   0.352  -0.400  10.346 -0.9232  0.2503  2.5832
  142SAPE   C2715525   0.435  -0.211  10.244  0.6570  0.2723 -0.7181
  142SAPE   H7R15526   0.512  -0.274  10.195 -0.7390 -0.2370 -2.2880
  142SAPE   H7S15527   0.488  -0.126  10.291 -0.5502  1.1170 -0.8665
  142SAPE   C2815528   0.341  -0.163  10.135  0.1469 -0.8316  0.0020
  142SAPE   H8R15529   0.259  -0.100  10.172  1.2379  0.8715 -0.3905
  142SAPE   C2915530   0.371  -0.161  10.004 -0.1501 -0.1665 -0.3752
  142SAPE   H9R15531   0.311  -0.101   9.934 -1.3501 -2.0176 -0.9463
  142SAPE  C21015532   0.496  -0.215   9.936  0.2640 -0.0951  0.0350
  142SAPE  H10R15533   0.589  -0.187   9.990 -0.5459  2.0720  0.3865
  142SAPE  H10S15534   0.508  -0.168   9.836 -3.3186  1.2806  0.1518
  142SAPE  C21115535   0.490  -0.366   9.919 -0.3608 -0.1925 -1.1421
  142SAPE  H11R15536   0.431  -0.407  10.002 -0.0347  0.6506 -0.4847
  142SAPE  C21215537   0.547  -0.444   9.826  0.0564 -0.0299 -0.0186
  142SAPE  H12R15538   0.533  -0.553   9.828 -1.9970  0.1884 -0.7888
  142SAPE  C21315539   0.625  -0.391   9.711  0.4982  0.5320 -1.0554
  142SAPE  H13R15540   0.692  -0.468   9.667 -0.9153 -0.1303 -2.1291
  142SAPE  H13S15541   0.695  -0.310   9.740 -1.5441  1.3647  1.7217
  142SAPE  C21415542   0.528  -0.332   9.603  0.2417  0.1548  0.3164
  142SAPE  H14R15543   0.432  -0.288   9.635 -0.7963 -0.0772 -2.3361
  142SAPE  C21515544   0.535  -0.343   9.469 -0.4619 -0.2309  0.2598
  142SAPE  H15R15545   0.452  -0.294   9.415 -0.8324  1.8369  2.5936
  142SAPE  C21615546   0.641  -0.406   9.382  0.1005 -0.0657  0.7047
  142SAPE  H16R15547   0.698  -0.467   9.456  0.9972 -0.1700 -0.0483
  142SAPE  H16S15548   0.707  -0.326   9.342 -1.2919  0.3115 -0.8566
  142SAPE  C21715549   0.594  -0.497   9.273  0.0782  0.7725 -0.2134
  142SAPE  H17R15550   0.530  -0.580   9.308  3.2308 -1.5212  0.3359
  142SAPE  H17S15551   0.674  -0.535   9.206 -1.3716  0.4201 -1.7729
  142SAPE  C21815552   0.506  -0.409   9.182  0.4544 -0.3308  0.1738
  142SAPE  H18R15553   0.524  -0.300   9.180 -3.3271  0.4013  1.4826
  142SAPE  H18S15554   0.399  -0.418   9.211 -0.4559 -0.4628 -2.9707
  142SAPE  C21915555   0.504  -0.465   9.040 -0.0658  0.1450  0.3332
  142SAPE  H19R15556   0.470  -0.569   9.062  0.0466  0.3951  1.7252
  142SAPE  H19S15557   0.601  -0.478   8.989 -0.2852 -0.4965  0.0679
  142SAPE  C22015558   0.408  -0.397   8.946 -0.2142  0.4441  0.1676
  142SAPE  H20R15559   0.419  -0.446   8.847 -0.9843 -1.1052  0.8485
  142SAPE  H20S15560   0.424  -0.288   8.928 -0.2287  0.3479 -0.4595
  142SAPE  H20T15561   0.310  -0.417   8.993  0.8861 -1.3292  1.7521
  142SAPE   C3315562   0.322   0.430  10.309 -0.0558 -0.1648 -0.1312
  142SAPE   H3X15563   0.409   0.392  10.366  1.3575  0.3350 -1.9249
  142SAPE   H3Y15564   0.354   0.513  10.243 -0.6475  1.3818  1.4808
  142SAPE   C3415565   0.281   0.311  10.216  0.2549  0.4908  0.2030
  142SAPE   H4X15566   0.179   0.330  10.176  0.0096 -1.1249  0.0644
  142SAPE   H4Y15567   0.296   0.224  10.283  3.8255  0.5502 -0.4001
  142SAPE   C3515568   0.375   0.307  10.096  0.1263  0.2274 -0.0199
  142SAPE   H5X15569   0.473   0.269  10.132  1.2237 -0.3927 -3.4746
  142SAPE   H5Y15570   0.389   0.410  10.056  0.2733 -0.6581 -2.3280
  142SAPE   C3615571   0.324   0.220   9.983  0.0706  0.2832  0.3945
  142SAPE   H6X15572   0.214   0.232   9.989 -0.1338 -1.1513 -0.2386
  142SAPE   H6Y15573   0.345   0.113  10.005 -0.4323  0.3094  1.0130
  142SAPE   C3715574   0.379   0.266   9.849  0.3684 -0.1500 -0.3154
  142SAPE   H7X15575   0.485   0.298   9.858  0.8064 -0.6556 -3.2227
  142SAPE   H7Y15576   0.327   0.358   9.815 -0.3387 -0.5407 -0.2934
  142SAPE   C3815577   0.354   0.158   9.741 -0.2960  0.5880 -0.1674
  142SAPE   H8X15578   0.245   0.137   9.741 -0.6412  2.0259  3.3469
  142SAPE   H8Y15579   0.409   0.068   9.774 -1.5278 -0.7099 -1.5549
  142SAPE   C3915580   0.400   0.190   9.595 -0.0296  0.1157  0.1147
  142SAPE   H9X15581   0.508   0.216   9.594  0.2561 -1.0953 -1.1842
  142SAPE   H9Y15582   0.351   0.282   9.555  1.1142  0.3159 -0.8550
  142SAPE  C31015583   0.378   0.071   9.492  0.0143 -0.2966  0.8399
  142SAPE  H10X15584   0.268   0.059   9.484 -0.1433  2.1950 -1.8581
  142SAPE  H10Y15585   0.414  -0.019   9.545  2.1176 -1.5331 -2.5381
  142SAPE  C31115586   0.432   0.087   9.349 -0.0078  0.2395  0.4656
  142SAPE  H11X15587   0.400  -0.004   9.294  0.7615 -0.8179  1.7150
  142SAPE  H11Y15588   0.542   0.089   9.355  0.1729 -2.5576 -0.8741
  142SAPE  C31215589   0.376   0.213   9.277 -0.4093  0.0661 -0.2905
  142SAPE  H12X15590   0.419   0.308   9.317  3.8665 -1.1894 -1.6030
  142SAPE  H12Y15591   0.266   0.211   9.292 -0.3152  1.2184  0.6904
  142SAPE  C31315592   0.414   0.224   9.126  0.0934 -0.7407  0.2317
  142SAPE  H13X15593   0.430   0.120   9.092  0.0797 -0.6946  0.0867
  142SAPE  H13Y15594   0.502   0.290   9.109 -1.3937  1.0284 -0.8271
  142SAPE  C31415595   0.307   0.284   9.026 -0.0078  0.2227 -0.6459
  142SAPE  H14X15596   0.283   0.385   9.065 -1.3394 -0.1926 -0.3571
  142SAPE  H14Y15597   0.214   0.222   9.028 -0.8560  1.3078 -3.3899
  142SAPE  C31515598   0.366   0.280   8.879 -0.1027 -0.1837  0.1377
  142SAPE  H15X15599   0.400   0.174   8.866  2.9629  0.6632  0.7913
  142SAPE  H15Y15600   0.462   0.336   8.875 -0.3133  0.3343  1.8354
  142SAPE  C31615601   0.277   0.314   8.758  0.0638  0.7788  0.0481
  142SAPE  H16X15602   0.347   0.352   8.681 -0.7617  1.5741 -0.3248
  142SAPE  H16Y15603   0.209   0.392   8.799 -1.1343  0.2501 -0.9162
  142SAPE  C31715604   0.186   0.197   8.716  1.3405  0.0174 -0.8217
  142SAPE  H17X15605   0.111   0.183   8.796  0.5614  1.8007 -1.2195
  142SAPE  H17Y15606   0.253   0.109   8.705  0.3862 -0.9346  0.8123
  142SAPE  C31815607   0.087   0.239   8.603  0.5031  0.4662  0.5525
  142SAPE  H18X15608   0.012   0.162   8.576 -0.3028  1.9206 -1.5035
  142SAPE  H18Y15609   0.150   0.268   8.516 -1.0137 -3.2732 -1.9321
  142SAPE  H18Z15610   0.030   0.332   8.623 -3.6402 -1.7261 -0.6086
  143SAPE     N15611   1.554   0.639  10.853  0.1415 -0.5896  0.0554
  143SAPE   HN115612   1.451   0.643  10.869  0.0309 -0.9918 -0.5799
  143SAPE   HN215613   1.589   0.619  10.949 -1.7434  0.6808  1.0564
  143SAPE   HN315614   1.592   0.731  10.822  0.0183 -0.0363  1.4639
  143SAPE   C1215615   1.576   0.539  10.747 -0.0759  0.3189 -0.5075
  143SAPE  H12A15616   1.683   0.518  10.724 -0.5646 -2.2938 -0.6144
  143SAPE  H12B15617   1.522   0.566  10.654 -0.1175 -0.1220 -0.6142
  143SAPE   C1115618   1.516   0.400  10.805 -0.3836 -0.0977 -0.0418
  143SAPE  H11A15619   1.539   0.321  10.731 -1.9630 -1.2101  0.6149
  143SAPE  H11B15620   1.406   0.400  10.823 -0.6294 -0.0287 -1.4993
  143SAPE     P15621   1.694   0.279  10.958  0.1231 -0.2051 -0.5066
  143SAPE   O1315622   1.773   0.331  11.074  0.4548  0.4111  0.2594
  143SAPE   O1415623   1.642   0.146  10.979 -0.3261  0.9364  0.3060
  143SAPE   O1215624   1.572   0.369  10.934  0.3572 -0.7745 -0.3940
  143SAPE   O1115625   1.773   0.290  10.822  0.2748  0.6186  0.1068
  143SAPE    C115626   1.855   0.183  10.778 -0.6634  0.2557 -0.1774
  143SAPE    HA15627   1.824   0.083  10.816  0.1556  0.6119  1.4535
  143SAPE    HB15628   1.855   0.174  10.667 -1.0642 -0.1875 -0.1429
  143SAPE    C215629   2.003   0.204  10.820  0.8993 -0.2685  0.9824
  143SAPE    HS15630   2.016   0.214  10.930  1.8862  0.2905  0.8208
  143SAPE   O2115631   2.055   0.318  10.750  0.2138 -0.4874  0.1450
  143SAPE   C2115632   2.178   0.348  10.772 -0.0226  0.4930  0.1710
  143SAPE   O2215633   2.238   0.321  10.876 -0.7085  0.0891 -0.6085
  143SAPE   C2215634   2.242   0.425  10.660  0.1008 -0.4549 -0.3895
  143SAPE   H2R15635   2.287   0.515  10.708 -0.6418 -1.5220  2.3899
  143SAPE   H2S15636   2.313   0.349  10.620 -0.6342 -0.7770 -1.0905
  143SAPE    C315637   2.076   0.077  10.784 -0.6316  0.2126 -0.3785
  143SAPE    HX15638   2.030  -0.014  10.828 -0.8654  0.2570 -0.5327
  143SAPE    HY15639   2.183   0.089  10.814 -1.0096  0.6011  0.8178
  143SAPE   O3115640   2.067   0.057  10.645  0.4917  0.3074 -0.2311
  143SAPE   C3115641   2.180   0.062  10.574 -0.0095 -0.1813  1.0335
  143SAPE   O3215642   2.288   0.104  10.611  0.6530  0.1845 -0.9713
  143SAPE   C3215643   2.157   0.003  10.430 -0.3227 -0.5759  0.2011
  143SAPE   H2X15644   2.046   0.002  10.429 -0.3418  0.5434  0.5635
  143SAPE   H2Y15645   2.211  -0.095  10.431 -1.6514 -1.3590 -1.7372
  143SAPE   C2315646   2.144   0.481  10.551 -0.4942  0.1339  0.1101
  143SAPE   H3R15647   2.063   0.523  10.614 -0.6088  0.8126 -0.4866
  143SAPE   H3S15648   2.109   0.385  10.507 -0.9000 -0.5259  1.7954
  143SAPE   C2415649   2.208   0.584  10.459  0.5591 -0.2609 -0.6238
  143SAPE   H4R15650   2.278   0.648  10.518 -1.1018 -0.4438  1.5837
  143SAPE   H4S15651   2.127   0.657  10.437 -1.1201 -1.1353  2.4294
  143SAPE   C2515652   2.280   0.529  10.338 -0.5858  0.7672 -0.0744
  143SAPE   H5R15653   2.342   0.442  10.361 -0.7617  0.9686  1.2189
  143SAPE   C2615654   2.258   0.564  10.206 -0.6796  0.0531  0.3618
  143SAPE   H6R15655   2.310   0.508  10.127 -0.1195  2.2964 -0.8970
  143SAPE   C2715656   2.156   0.657  10.151  0.7166  0.0277  0.2015
  143SAPE   H7R15657   2.204   0.738  10.093  0.8349  0.5203  0.9758
  143SAPE   H7S15658   2.102   0.702  10.237  0.6238 -2.1269  1.3305
  143SAPE   C2815659   2.053   0.587  10.065 -0.7858  0.4456  0.0622
  143SAPE   H8R15660   1.960   0.554  10.115 -0.1024 -0.7882  0.5420
  143SAPE   C2915661   2.060   0.569   9.936  0.2539  0.0553  0.0984
  143SAPE   H9R15662   1.980   0.515   9.883 -0.8309  1.6377  0.0745
  143SAPE  C21015663   2.167   0.613   9.839 -0.1900 -0.2572 -0.2421
  143SAPE  H10R15664   2.242   0.686   9.876  0.1851 -0.5792 -0.3662
  143SAPE  H10S15665   2.115   0.668   9.757  0.7968  3.4186  1.4813
  143SAPE  C21115666   2.234   0.493   9.769  0.1297  0.2980  0.2065
  143SAPE  H11R15667   2.259   0.420   9.848  0.8779  0.2832 -0.0364
  143SAPE  C21215668   2.255   0.464   9.638  0.4271  0.5955  0.1785
  143SAPE  H12R15669   2.309   0.369   9.623 -3.0756 -1.3283 -0.7803
  143SAPE  C21315670   2.218   0.552   9.517  0.2177 -0.0757  0.3666
  143SAPE  H13R15671   2.281   0.529   9.428 -0.8197 -0.8658 -0.1742
  143SAPE  H13S15672   2.248   0.655   9.547 -0.1574 -0.3257  1.6453
  143SAPE  C21415673   2.074   0.548   9.473 -0.1613 -1.0544  0.6254
  143SAPE  H14R15674   2.002   0.533   9.554 -0.4848 -0.1547  0.5071
  143SAPE  C21515675   2.037   0.569   9.346 -0.0259 -0.3277  0.5272
  143SAPE  H15R15676   1.929   0.581   9.327 -0.3946 -2.5953  1.0609
  143SAPE  C21615677   2.123   0.596   9.222  0.0323  0.1157  0.6063
  143SAPE  H16R15678   2.220   0.639   9.254 -0.0589 -0.0857  1.1646
  143SAPE  H16S15679   2.080   0.666   9.148 -0.5960 -1.7160 -0.7942
  143SAPE  C21715680   2.155   0.463   9.157 -0.5586  0.6689  1.0092
  143SAPE  H17R15681   2.190   0.388   9.231 -1.7826 -1.5146 -0.5615
  143SAPE  H17S15682   2.245   0.489   9.097 -0.5264 -0.4687  0.5578
  143SAPE  C21815683   2.048   0.402   9.065 -0.1842 -0.2612  0.3108
  143SAPE  H18R15684   1.959   0.362   9.120  0.3485 -2.4322 -0.3500
  143SAPE  H18S15685   2.091   0.307   9.026 -3.3362 -0.4719 -2.9821
  143SAPE  C21915686   2.019   0.492   8.951  0.4507  0.5078 -0.2812
  143SAPE  H19R15687   2.112   0.542   8.918 -0.2131  0.5914 -2.0614
  143SAPE  H19S15688   1.957   0.575   8.991  0.3383  0.7394 -0.9492
  143SAPE  C22015689   1.944   0.437   8.835  0.1315 -0.3936 -0.4179
  143SAPE  H20R15690   1.842   0.408   8.870  0.6791 -1.1255  0.6044
  143SAPE  H20S15691   1.992   0.354   8.778 -0.1690  0.1695 -1.5004
  143SAPE  H20T15692   1.930   0.516   8.758  0.4669 -0.6670 -0.7591
  143SAPE   C3315693   2.230   0.082  10.322  0.2871  0.1600  0.1767
  143SAPE   H3X15694   2.339   0.065  10.324  0.2749  0.3109  2.4448
  143SAPE   H3Y15695   2.187   0.185  10.316 -1.7894 -0.7374 -0.8363
  143SAPE   C3415696   2.205   0.021  10.184 -0.0644 -0.9857 -0.5572
  143SAPE   H4X15697   2.098  -0.009  10.181 -0.4745  0.5200 -1.4943
  143SAPE   H4Y15698   2.261  -0.074  10.173 -0.2300 -0.8785 -2.3501
  143SAPE   C3515699   2.246   0.116  10.067  0.3414 -0.2170  0.1958
  143SAPE   H5X15700   2.340   0.168  10.093  1.5113 -2.8270  1.4013
  143SAPE   H5Y15701   2.161   0.184  10.044 -2.5163 -2.9859  2.0288
  143SAPE   C3615702   2.284   0.031   9.938  0.7392  0.2261  0.2437
  143SAPE   H6X15703   2.207  -0.034   9.892 -0.2218  2.5576 -1.5537
  143SAPE   H6Y15704   2.376  -0.026   9.962  1.7743  1.0588 -1.6814
  143SAPE   C3715705   2.306   0.118   9.820 -0.3932  0.3986 -0.3008
  143SAPE   H7X15706   2.408   0.163   9.830  0.1743 -1.4919  3.0582
  143SAPE   H7Y15707   2.232   0.200   9.810 -0.3890  0.1922 -2.2739
  143SAPE   C3815708   2.324   0.040   9.692 -0.2601 -0.7503 -0.3865
  143SAPE   H8X15709   2.411  -0.028   9.692  0.3763  0.0546 -0.4174
  143SAPE   H8Y15710   2.359   0.117   9.620 -1.4172  1.2373  1.1312
  143SAPE   C3915711   2.191  -0.014   9.643  0.8009 -0.1834 -0.1355
  143SAPE   H9X15712   2.115   0.068   9.638 -2.0916 -2.7645  0.2731
  143SAPE   H9Y15713   2.149  -0.093   9.709  1.2376  1.4126  2.1005
  143SAPE  C31015714   2.184  -0.059   9.494 -0.3008  0.0195 -0.0346
  143SAPE  H10X15715   2.234  -0.158   9.492  2.4477  1.3228  0.8694
  143SAPE  H10Y15716   2.225   0.020   9.427  0.1014 -1.1372 -1.1591
  143SAPE  C31115717   2.037  -0.080   9.441 -0.1800  0.2754 -0.8515
  143SAPE  H11X15718   1.968  -0.002   9.480  0.5371  1.1923 -1.3995
  143SAPE  H11Y15719   1.995  -0.172   9.487 -0.7647  0.2440 -1.4326
  143SAPE  C31215720   2.022  -0.099   9.291 -0.0888  0.0723 -0.2689
  143SAPE  H12X15721   1.937  -0.169   9.272 -0.0661 -0.3492  1.1147
  143SAPE  H12Y15722   2.118  -0.144   9.257 -0.0806  0.1836 -0.3890
  143SAPE  C31315723   2.002   0.036   9.226  0.5884  0.3340 -0.1734
  143SAPE  H13X15724   2.092   0.101   9.234  0.9771 -0.3115  0.7835
  143SAPE  H13Y15725   1.919   0.090   9.276  0.4528 -1.0752  1.1740
  143SAPE  C31415726   1.953   0.022   9.082  0.7704 -0.2184 -0.8578
  143SAPE  H14X15727   2.006  -0.058   9.027  2.5553  0.1692  0.2337
  143SAPE  H14Y15728   1.964   0.122   9.035 -1.6711  1.1756  1.3835
  143SAPE  C31515729   1.803  -0.014   9.077  0.4616  0.9470 -0.6782
  143SAPE  H15X15730   1.737   0.043   9.147  0.9181  3.6132 -2.3192
  143SAPE  H15Y15731   1.790  -0.122   9.096  1.3012  1.0481  0.5224
  143SAPE  C31615732   1.738  -0.003   8.936 -0.2446  0.5196  0.5273
  143SAPE  H16X15733   1.729   0.107   8.931  1.4577  0.6361 -0.2380
  143SAPE  H16Y15734   1.640  -0.053   8.951 -0.1063 -0.0283 -0.3389
  143SAPE  C31715735   1.819  -0.047   8.815  0.1579 -0.0292 -0.0037
  143SAPE  H17X15736   1.860  -0.145   8.848 -2.9477 -0.3835  3.1164
  143SAPE  H17Y15737   1.901   0.022   8.787  1.0453 -1.5024 -1.0917
  143SAPE  C31815738   1.725  -0.062   8.702  0.6386  0.3162  0.0900
  143SAPE  H18X15739   1.786  -0.054   8.609 -0.2251  0.3888 -0.4828
  143SAPE  H18Y15740   1.663   0.029   8.685  0.4216  0.7240  2.8447
  143SAPE  H18Z15741   1.660  -0.152   8.703  2.7422 -1.2282  0.4938
  144SAPE     N15742   5.352   5.728  11.123 -0.0006 -0.1445 -0.6006
  144SAPE   HN115743   5.409   5.815  11.111 -1.2916  0.9866  1.1247
  144SAPE   HN215744   5.359   5.708  11.225  0.9358  1.0104 -0.4244
  144SAPE   HN315745   5.409   5.654  11.078 -0.8112 -0.9455 -0.3273
  144SAPE   C1215746   5.213   5.744  11.070  0.5324  0.7863  0.1785
  144SAPE  H12A15747   5.174   5.820  11.141  0.8958 -1.1630  2.5261
  144SAPE  H12B15748   5.162   5.648  11.093  0.8935  0.6772  0.5197
  144SAPE   C1115749   5.204   5.790  10.924 -0.8285  0.3663  0.0761
  144SAPE  H11A15750   5.255   5.888  10.913  1.9852 -1.2387 -1.5669
  144SAPE  H11B15751   5.096   5.800  10.897 -0.3469  1.3550 -1.5347
  144SAPE     P15752   5.196   5.583  10.762 -0.2468 -0.3991 -0.4119
  144SAPE   O1315753   5.295   5.512  10.674  0.0206  0.3465 -0.3003
  144SAPE   O1415754   5.124   5.496  10.855 -0.1872 -0.0624 -0.1384
  144SAPE   O1215755   5.271   5.690  10.847  0.5672  0.3659  0.4414
  144SAPE   O1115756   5.078   5.662  10.674 -0.0439  0.4352  0.0678
  144SAPE    C115757   5.122   5.788  10.605  0.1784 -0.3149 -0.4831
  144SAPE    HA15758   5.027   5.840  10.579 -0.9778 -2.0068  0.2725
  144SAPE    HB15759   5.163   5.855  10.683 -4.0485 -0.6809  2.2185
  144SAPE    C215760   5.212   5.783  10.473  0.3349 -0.8231 -0.5065
  144SAPE    HS15761   5.150   5.839  10.401 -0.7882  0.5679  1.4932
  144SAPE   O2115762   5.236   5.651  10.421  0.0642  0.0811 -0.5734
  144SAPE   C2115763   5.129   5.575  10.404  0.0134 -0.1810 -0.5068
  144SAPE   O2215764   5.016   5.611  10.381 -0.4107 -0.6951  0.4023
  144SAPE   C2215765   5.177   5.428  10.411  0.1376 -0.6810 -0.1708
  144SAPE   H2R15766   5.279   5.416  10.456 -0.1628  0.9588  1.0108
  144SAPE   H2S15767   5.096   5.376  10.466 -2.2811  3.1053 -0.0043
  144SAPE    C315768   5.348   5.851  10.479 -0.1452 -0.1958  0.6375
  144SAPE    HX15769   5.400   5.845  10.381 -0.8904  0.3306  0.2072
  144SAPE    HY15770   5.409   5.793  10.552  0.6560 -0.9316 -0.5958
  144SAPE   O3115771   5.338   5.991  10.525  0.0043 -0.0452 -0.2981
  144SAPE   C3115772   5.444   6.052  10.558 -0.2770 -0.2437 -0.6574
  144SAPE   O3215773   5.549   6.003  10.584 -0.5956 -0.1632  0.6516
  144SAPE   C3215774   5.399   6.200  10.570 -0.3038  0.3859 -0.5487
  144SAPE   H2X15775   5.469   6.256  10.635 -0.4943  0.3682 -0.3273
  144SAPE   H2Y15776   5.303   6.201  10.625 -0.5067 -2.0186 -0.7923
  144SAPE   C2315777   5.183   5.359  10.269  0.2400  0.2131 -0.2497
  144SAPE   H3R15778   5.237   5.262  10.273 -1.5244 -0.7711  0.9744
  144SAPE   H3S15779   5.229   5.414  10.184  1.5050 -2.0494 -1.0577
  144SAPE   C2415780   5.043   5.311  10.219  0.8758  0.3141  0.3901
  144SAPE   H4R15781   4.975   5.396  10.197  0.4937  0.4011  1.8489
  144SAPE   H4S15782   4.996   5.246  10.296  2.3025  0.7783  1.6659
  144SAPE   C2515783   5.054   5.228  10.089  0.1659  0.3788  0.4263
  144SAPE   H5R15784   5.082   5.123  10.101 -1.2784 -0.1705 -0.8548
  144SAPE   C2615785   5.040   5.266   9.962  0.3196  0.1102  0.2274
  144SAPE   H6R15786   5.067   5.198   9.880 -2.2686 -1.7160  0.8389
  144SAPE   C2715787   5.002   5.407   9.913 -0.1846 -0.1674 -0.9500
  144SAPE   H7R15788   4.921   5.443   9.980  1.1974  2.5180 -0.6780
  144SAPE   H7S15789   4.968   5.403   9.808  0.3020 -1.5184 -1.0638
  144SAPE   C2815790   5.112   5.503   9.914 -1.3118  0.3556  0.0422
  144SAPE   H8R15791   5.164   5.503  10.011 -0.8809 -0.3187 -0.1882
  144SAPE   C2915792   5.155   5.584   9.814 -0.0278 -0.3741 -0.1485
  144SAPE   H9R15793   5.236   5.653   9.843 -0.2387 -0.8412  1.6105
  144SAPE  C21015794   5.088   5.607   9.675  0.3721  0.3709  0.7508
  144SAPE  H10R15795   5.145   5.687   9.624 -0.0037 -0.2972 -0.7362
  144SAPE  H10S15796   4.982   5.637   9.688 -0.0422 -0.2742 -1.0123
  144SAPE  C21115797   5.104   5.485   9.576  0.2982 -0.0497 -0.0636
  144SAPE  H11R15798   5.025   5.408   9.578  0.9106 -0.7368 -1.3327
  144SAPE  C21215799   5.198   5.460   9.483 -0.5584 -0.2638 -0.7410
  144SAPE  H12R15800   5.201   5.372   9.417  2.8736 -0.7946  0.0497
  144SAPE  C21315801   5.319   5.541   9.452  0.2613  0.3546 -0.8280
  144SAPE  H13R15802   5.335   5.607   9.540 -0.9409 -1.0030  0.4293
  144SAPE  H13S15803   5.299   5.602   9.361 -0.2779  1.0041 -0.2828
  144SAPE  C21415804   5.443   5.457   9.431 -0.3038  0.1507  0.0680
  144SAPE  H14R15805   5.490   5.470   9.332  1.3956 -0.9886  0.6875
  144SAPE  C21515806   5.499   5.372   9.520  0.4882  0.0745 -0.0454
  144SAPE  H15R15807   5.594   5.322   9.494  0.8840  0.6407  0.2955
  144SAPE  C21615808   5.446   5.345   9.658 -0.0870  0.2214  0.4876
  144SAPE  H16R15809   5.340   5.312   9.656 -0.7955  2.1769  2.8615
  144SAPE  H16S15810   5.436   5.446   9.703 -2.1578  0.1306  0.2437
  144SAPE  C21715811   5.529   5.257   9.743 -0.0476 -0.0805  0.9814
  144SAPE  H17R15812   5.632   5.299   9.743 -0.3500  0.6744  1.5853
  144SAPE  H17S15813   5.538   5.155   9.701  1.3225  0.8631 -1.1429
  144SAPE  C21815814   5.480   5.257   9.893  0.2897  0.2708  0.7865
  144SAPE  H18R15815   5.380   5.211   9.906 -0.2025  1.3393  0.7482
  144SAPE  H18S15816   5.459   5.361   9.922  0.4405  0.3461  0.6279
  144SAPE  C21915817   5.580   5.195   9.991  0.1822  0.0636 -0.1159
  144SAPE  H19R15818   5.680   5.242   9.986 -0.9332  2.4885  0.0559
  144SAPE  H19S15819   5.594   5.093   9.948  0.0488  0.9061 -2.2252
  144SAPE  C22015820   5.529   5.186  10.135  0.1415  0.3902 -0.0123
  144SAPE  H20R15821   5.527   5.281  10.194 -0.1208  1.4164 -1.6371
  144SAPE  H20S15822   5.593   5.121  10.198  1.1471  1.5586  0.1908
  144SAPE  H20T15823   5.425   5.146  10.139  0.8087 -1.4337 -0.4254
  144SAPE   C3315824   5.392   6.269  10.438  0.4402  0.1038  0.0901
  144SAPE   H3X15825   5.357   6.374  10.451  0.0501 -0.0670  0.4082
  144SAPE   H3Y15826   5.309   6.220  10.382 -1.2276  0.2361  2.3967
  144SAPE   C3415827   5.521   6.266  10.354 -0.2033  0.0197 -0.0623
  144SAPE   H4X15828   5.597   6.208  10.409 -1.3976 -1.1634  0.3524
  144SAPE   H4Y15829   5.552   6.373  10.349 -2.5658  0.6932 -1.2620
  144SAPE   C3515830   5.508   6.218  10.208 -0.4233  0.4981 -0.3575
  144SAPE   H5X15831   5.604   6.237  10.154 -0.1676 -0.3452 -0.2210
  144SAPE   H5Y15832   5.437   6.281  10.151 -0.3354 -0.6837 -1.8217
  144SAPE   C3615833   5.488   6.067  10.193 -0.7834  0.1551 -0.9917
  144SAPE   H6X15834   5.380   6.038  10.194 -0.6988 -0.1443  0.8110
  144SAPE   H6Y15835   5.530   6.031  10.290 -2.4183  1.5129  0.2620
  144SAPE   C3715836   5.566   6.004  10.084 -0.7482 -0.4416 -0.1508
  144SAPE   H7X15837   5.564   5.894  10.092 -1.3430 -0.3656  0.8636
  144SAPE   H7Y15838   5.673   6.030  10.095 -0.6933 -1.1682  1.0688
  144SAPE   C3815839   5.515   6.044   9.949  0.2620 -1.0590  0.3020
  144SAPE   H8X15840   5.568   6.135   9.910  1.2135 -0.1923  3.5017
  144SAPE   H8Y15841   5.415   6.089   9.967  1.3411  1.3817  0.4510
  144SAPE   C3915842   5.523   5.927   9.855 -0.2406 -0.2011  0.2122
  144SAPE   H9X15843   5.456   5.852   9.904 -0.3530 -0.5322 -0.4540
  144SAPE   H9Y15844   5.625   5.884   9.864 -0.1697  0.1598  1.1854
  144SAPE  C31015845   5.484   5.955   9.711 -0.7181 -0.3638 -0.3208
  144SAPE  H10X15846   5.503   6.062   9.689  2.3288 -0.2969  2.1434
  144SAPE  H10Y15847   5.375   5.938   9.701 -1.5434  4.5024 -0.3335
  144SAPE  C31115848   5.563   5.866   9.612 -0.7604 -0.5179  0.3162
  144SAPE  H11X15849   5.538   5.762   9.644 -0.5748 -1.4392 -2.3990
  144SAPE  H11Y15850   5.674   5.873   9.620 -0.7330  0.3204 -0.7086
  144SAPE  C31215851   5.513   5.891   9.469  0.4846  0.5918 -0.0928
  144SAPE  H12X15852   5.408   5.871   9.439  0.8546 -0.1430 -0.9217
  144SAPE  H12Y15853   5.570   5.812   9.416 -0.8745 -0.4367 -0.0599
  144SAPE  C31315854   5.556   6.029   9.422 -0.0034 -0.1629 -0.2298
  144SAPE  H13X15855   5.667   6.029   9.408 -0.1582  0.7546 -1.5496
  144SAPE  H13Y15856   5.531   6.119   9.481  1.9338 -0.2909  0.8347
  144SAPE  C31415857   5.491   6.058   9.282 -0.9014 -0.3219 -0.8091
  144SAPE  H14X15858   5.537   6.148   9.237  2.0068 -0.7422  1.1356
  144SAPE  H14Y15859   5.383   6.082   9.295 -1.4362 -1.5847 -2.6686
  144SAPE  C31515860   5.498   5.952   9.173 -0.5201 -0.0085 -0.1386
  144SAPE  H15X15861   5.441   5.995   9.088  0.2596  0.6210 -0.3518
  144SAPE  H15Y15862   5.439   5.862   9.201 -1.3902  0.1140 -1.5355
  144SAPE  C31615863   5.638   5.905   9.133 -0.1951 -0.6185 -0.2270
  144SAPE  H16X15864   5.688   5.845   9.213  0.3303  0.7858  0.5303
  144SAPE  H16Y15865   5.716   5.983   9.118 -1.0229  0.2786  0.0249
  144SAPE  C31715866   5.638   5.831   9.000  0.3679 -0.2125 -0.2491
  144SAPE  H17X15867   5.742   5.796   8.981 -0.0757 -1.5116 -0.3702
  144SAPE  H17Y15868   5.612   5.907   8.924 -2.9939 -0.5920  0.4331
  144SAPE  C31815869   5.531   5.722   8.984 -0.2141 -0.0322  0.1223
  144SAPE  H18X15870   5.423   5.747   8.999 -0.0940 -1.6446  4.2634
  144SAPE  H18Y15871   5.561   5.646   9.059 -2.2801  1.6840  2.7946
  144SAPE  H18Z15872   5.524   5.671   8.885 -0.1213 -0.5730  0.3931
  145SAPE     N15873   2.866   6.683  11.023  0.2938 -0.2844 -0.0852
  145SAPE   HN115874   2.881   6.673  10.921  1.1086 -0.2476  0.0296
  145SAPE   HN215875   2.835   6.777  11.054 -1.3871  0.2327 -3.1965
  145SAPE   HN315876   2.956   6.657  11.069  0.0589 -2.7532 -0.9566
  145SAPE   C1215877   2.771   6.578  11.067  0.1252 -0.4431 -0.1837
  145SAPE  H12A15878   2.701   6.552  10.985  0.2713  1.4961 -0.9475
  145SAPE  H12B15879   2.701   6.623  11.141 -1.2835  0.0781 -1.8227
  145SAPE   C1115880   2.850   6.464  11.132  0.4269  0.5797  0.4158
  145SAPE  H11A15881   2.925   6.501  11.204  0.0103 -2.5108  2.5136
  145SAPE  H11B15882   2.903   6.401  11.057 -1.7490  0.0481 -0.7209
  145SAPE     P15883   2.795   6.258  11.281  0.2142  0.0228  0.2923
  145SAPE   O1315884   2.906   6.302  11.366  0.0871  0.0107 -0.1552
  145SAPE   O1415885   2.690   6.186  11.353  0.2690 -0.6468  0.5266
  145SAPE   O1215886   2.752   6.381  11.198 -0.1353 -0.0361 -0.1114
  145SAPE   O1115887   2.857   6.171  11.159 -0.4779 -0.0419 -0.1954
  145SAPE    C115888   2.771   6.086  11.083 -0.7436  0.4289 -0.4654
  145SAPE    HA15889   2.815   5.984  11.087  2.0634  1.6105 -0.2522
  145SAPE    HB15890   2.666   6.069  11.116  0.0377  0.1783  1.9991
  145SAPE    C215891   2.775   6.126  10.931  0.2259 -0.3459 -0.4069
  145SAPE    HS15892   2.758   6.236  10.923  0.7178  0.0443  2.9799
  145SAPE   O2115893   2.670   6.055  10.861  0.1869 -0.4834  0.9223
  145SAPE   C2115894   2.552   6.111  10.858 -0.6444  0.6454  0.8228
  145SAPE   O2215895   2.518   6.215  10.909 -0.3273 -0.3320  0.1585
  145SAPE   C2215896   2.461   6.033  10.758 -0.0938  0.2030 -0.4344
  145SAPE   H2R15897   2.505   5.931  10.758  1.3133  0.8027 -0.8191
  145SAPE   H2S15898   2.361   6.032  10.806 -0.3116  0.2342 -0.8898
  145SAPE    C315899   2.912   6.101  10.862  0.0769 -1.2087  0.6055
  145SAPE    HX15900   2.944   5.995  10.870  0.7917 -1.3705 -3.2823
  145SAPE    HY15901   2.992   6.149  10.922  0.0572 -1.5347  0.8914
  145SAPE   O3115902   2.917   6.147  10.724 -1.0419 -0.2993 -0.2874
  145SAPE   C3115903   2.890   6.063  10.628 -0.0760 -0.0364 -0.3720
  145SAPE   O3215904   2.868   5.944  10.645  0.5254 -0.2725 -0.1091
  145SAPE   C3215905   2.877   6.135  10.501  0.2185  0.8248 -1.0944
  145SAPE   H2X15906   2.960   6.209  10.499  0.9859 -0.0206 -0.4930
  145SAPE   H2Y15907   2.782   6.193  10.505  1.4301  2.7572  1.0924
  145SAPE   C2315908   2.473   6.080  10.610  0.0032  0.8451 -0.3522
  145SAPE   H3R15909   2.409   6.019  10.542 -0.0229 -3.0741  3.0020
  145SAPE   H3S15910   2.580   6.069  10.586  1.1636  1.6978  3.9976
  145SAPE   C2415911   2.434   6.220  10.598 -0.1794 -0.3306  0.1150
  145SAPE   H4R15912   2.513   6.285  10.641 -0.3261  0.5219 -0.8924
  145SAPE   H4S15913   2.343   6.246  10.656 -0.0462 -0.5656  0.4305
  145SAPE   C2515914   2.424   6.267  10.450 -0.3619  0.2378 -0.1279
  145SAPE   H5R15915   2.499   6.223  10.383  0.9321  0.5678  1.0727
  145SAPE   C2615916   2.329   6.350  10.391 -0.4854  0.1629 -0.4476
  145SAPE   H6R15917   2.344   6.374  10.285  1.0879 -0.0755 -0.2885
  145SAPE   C2715918   2.219   6.411  10.463  0.0177 -0.4539  0.2866
  145SAPE   H7R15919   2.205   6.505  10.404  0.3425 -0.7441 -0.2567
  145SAPE   H7S15920   2.240   6.458  10.561 -1.5255 -0.8400  0.8210
  145SAPE   C2815921   2.092   6.326  10.464  0.0357  0.6232 -0.0110
  145SAPE   H8R15922   2.104   6.225  10.505 -0.7582  0.8852  0.8938
  145SAPE   C2915923   1.971   6.361  10.424 -0.8351 -0.0936  0.4586
  145SAPE   H9R15924   1.898   6.278  10.428  0.3442 -1.1758  0.0810
  145SAPE  C21015925   1.920   6.491  10.369 -0.1284  0.0722  0.1362
  145SAPE  H10R15926   1.890   6.464  10.265 -1.0898  0.1696  0.3865
  145SAPE  H10S15927   2.006   6.560  10.357 -1.9825  2.0988 -1.7543
  145SAPE  C21115928   1.805   6.555  10.446 -0.3415 -0.3743 -0.1924
  145SAPE  H11R15929   1.776   6.490  10.529  0.5075 -1.9767 -1.1316
  145SAPE  C21215930   1.753   6.680  10.434  0.3816  0.3959 -0.1512
  145SAPE  H12R15931   1.686   6.709  10.516  0.6629  0.1455  0.1655
  145SAPE  C21315932   1.780   6.780  10.328  0.0234  0.0312  0.3832
  145SAPE  H13R15933   1.859   6.743  10.259  1.5999 -0.5307  2.4454
  145SAPE  H13S15934   1.815   6.877  10.369  0.2902  0.1985 -0.2303
  145SAPE  C21415935   1.654   6.802  10.252 -0.6696  1.0690  0.1326
  145SAPE  H14R15936   1.589   6.714  10.233  1.3083 -0.1765 -1.0403
  145SAPE  C21515937   1.635   6.920  10.189  0.5415 -0.1057 -0.1973
  145SAPE  H15R15938   1.548   6.922  10.122  0.0906  0.6319  0.3963
  145SAPE  C21615939   1.720   7.050  10.177  0.2898  0.9848 -0.1679
  145SAPE  H16R15940   1.775   7.069  10.271  2.8517 -1.3755 -1.1367
  145SAPE  H16S15941   1.647   7.130  10.150  0.5445  0.9456 -0.9768
  145SAPE  C21715942   1.828   7.041  10.071  0.6065  0.0991 -0.1631
  145SAPE  H17R15943   1.879   6.943  10.088 -0.4487 -0.8522 -2.2860
  145SAPE  H17S15944   1.902   7.122  10.086 -0.3422  0.6820  1.4522
  145SAPE  C21815945   1.772   7.067   9.930 -0.3573 -0.6084 -0.9140
  145SAPE  H18R15946   1.722   7.166   9.933 -0.0691 -0.5131  3.5530
  145SAPE  H18S15947   1.691   6.994   9.911 -1.3363 -0.7955  3.5822
  145SAPE  C21915948   1.871   7.076   9.814  0.6107  0.3823 -0.1598
  145SAPE  H19R15949   1.889   6.971   9.782  1.2123  0.2121  0.7151
  145SAPE  H19S15950   1.969   7.116   9.847  0.2553  1.9140 -0.9294
  145SAPE  C22015951   1.827   7.163   9.691 -0.4021 -0.0581 -0.2859
  145SAPE  H20R15952   1.900   7.136   9.611  0.0068  0.1869  0.0040
  145SAPE  H20S15953   1.836   7.269   9.723  1.0281 -0.1232 -0.4470
  145SAPE  H20T15954   1.724   7.139   9.657 -0.7144  0.5721  0.2098
  145SAPE   C3315955   2.871   6.048  10.376  0.1308  0.3869  0.5952
  145SAPE   H3X15956   2.776   5.991  10.380 -0.2197  0.8836 -0.4472
  145SAPE   H3Y15957   2.957   5.978  10.372 -1.1242 -1.2581  1.7723
  145SAPE   C3415958   2.878   6.129  10.250  0.4098 -0.8093  0.5605
  145SAPE   H4X15959   2.903   6.065  10.163 -1.1286 -0.3341 -0.2623
  145SAPE   H4Y15960   2.964   6.198  10.267 -0.1559  0.0446  0.0114
  145SAPE   C3515961   2.740   6.193  10.221 -0.5840  0.4574  0.2010
  145SAPE   H5X15962   2.716   6.248  10.315  1.8724  1.1467  0.4620
  145SAPE   H5Y15963   2.663   6.115  10.208 -0.9045  1.0677 -1.7315
  145SAPE   C3615964   2.725   6.279  10.098 -0.3177 -0.0410 -0.1516
  145SAPE   H6X15965   2.810   6.350  10.090 -1.0474  0.6377 -2.2012
  145SAPE   H6Y15966   2.629   6.334  10.109 -0.9367 -0.4577 -3.2209
  145SAPE   C3715967   2.703   6.201   9.967  0.0550  0.5013  0.6149
  145SAPE   H7X15968   2.596   6.174   9.958 -0.0081  0.9537 -0.0081
  145SAPE   H7Y15969   2.764   6.108   9.979 -0.1710  0.4094  1.0510
  145SAPE   C3815970   2.754   6.272   9.841 -0.2022  0.1985 -0.3628
  145SAPE   H8X15971   2.865   6.274   9.841 -0.2134  0.8227 -0.4647
  145SAPE   H8Y15972   2.718   6.377   9.836 -1.6113 -0.1450  1.6703
  145SAPE   C3915973   2.727   6.183   9.713 -0.3285  0.6346 -0.0388
  145SAPE   H9X15974   2.741   6.074   9.730 -1.0508  0.2230 -1.9577
  145SAPE   H9Y15975   2.802   6.213   9.637 -2.3153  2.4524 -1.3238
  145SAPE  C31015976   2.583   6.206   9.662 -0.3880  0.1709  0.4882
  145SAPE  H10X15977   2.506   6.185   9.739 -0.1948  0.1342  0.6718
  145SAPE  H10Y15978   2.569   6.137   9.576 -3.4333  1.2702  0.0450
  145SAPE  C31115979   2.558   6.344   9.596  0.4657  0.0048 -0.4904
  145SAPE  H11X15980   2.602   6.365   9.496  0.0009 -1.4769 -1.0202
  145SAPE  H11Y15981   2.592   6.430   9.657 -0.7673  0.0760  0.1010
  145SAPE  C31215982   2.407   6.363   9.594  0.1830 -0.3531  0.4115
  145SAPE  H12X15983   2.377   6.469   9.581  1.9990  0.1502  0.2221
  145SAPE  H12Y15984   2.363   6.328   9.690  1.2145  2.1564  1.8473
  145SAPE  C31315985   2.348   6.294   9.465  0.1712 -0.3483  0.0357
  145SAPE  H13X15986   2.366   6.184   9.473  1.7723 -0.0987 -0.1140
  145SAPE  H13Y15987   2.392   6.338   9.373 -1.2784  0.1062 -0.4501
  145SAPE  C31415988   2.194   6.314   9.459  0.1448 -0.1254 -0.3793
  145SAPE  H14X15989   2.157   6.418   9.448 -0.1028 -0.1039  0.6087
  145SAPE  H14Y15990   2.153   6.280   9.557  1.0702 -0.1724 -0.0025
  145SAPE  C31515991   2.124   6.217   9.356  1.2561  0.2014  1.0610
  145SAPE  H15X15992   2.111   6.119   9.407 -2.7799 -0.4431 -1.0151
  145SAPE  H15Y15993   2.193   6.212   9.270 -0.7673  0.1446 -0.5964
  145SAPE  C31615994   1.986   6.274   9.320 -0.5347 -0.5025  0.3482
  145SAPE  H16X15995   1.948   6.342   9.399 -1.0765  0.1248 -0.4393
  145SAPE  H16Y15996   1.917   6.188   9.309  0.0026 -1.0473  1.1855
  145SAPE  C31715997   1.989   6.352   9.188  0.3848  0.0324  0.4429
  145SAPE  H17X15998   2.009   6.278   9.108 -0.7300 -0.4159  0.5647
  145SAPE  H17Y15999   2.075   6.421   9.190 -0.1683  0.7326  0.1158
  145SAPE  C31816000   1.850   6.404   9.159 -0.2796  0.4812 -0.4085
  145SAPE  H18X16001   1.844   6.473   9.072  0.5607  2.4285  1.0499
  145SAPE  H18Y16002   1.822   6.461   9.250  1.2933  2.0932 -0.9137
  145SAPE  H18Z16003   1.777   6.319   9.154  1.7007 -1.2101 -1.2645
  146SAPE     N16004   1.131   5.865  11.159 -0.4436  0.0353 -0.3040
  146SAPE   HN116005   1.194   5.943  11.186  1.3930 -1.0696 -1.3093
  146SAPE   HN216006   1.038   5.896  11.122 -1.1836  0.1766  1.6265
  146SAPE   HN316007   1.110   5.807  11.243 -0.2570 -0.6265 -0.7089
  146SAPE   C1216008   1.220   5.786  11.063 -0.8008 -0.6436 -0.4627
  146SAPE  H12A16009   1.320   5.792  11.110 -0.6725  0.0554 -0.8083
  146SAPE  H12B16010   1.218   5.836  10.964 -1.2384 -0.6012 -0.4363
  146SAPE   C1116011   1.174   5.643  11.060  0.3423 -0.0915  0.0153
  146SAPE  H11A16012   1.134   5.613  11.160 -0.3644 -0.4903 -0.3809
  146SAPE  H11B16013   1.256   5.575  11.030  0.9064  0.6885 -0.2213
  146SAPE     P16014   1.083   5.612  10.814 -0.1531 -0.1470  0.5286
  146SAPE   O1316015   1.227   5.622  10.778 -0.0102  0.4906  0.1166
  146SAPE   O1416016   1.006   5.496  10.775 -0.3940 -0.1340  0.4180
  146SAPE   O1216017   1.069   5.629  10.972 -1.0557  0.4334 -0.1160
  146SAPE   O1116018   1.012   5.738  10.755  0.5099 -0.4764 -0.1674
  146SAPE    C116019   0.883   5.794  10.790 -0.1597  0.3313 -0.3071
  146SAPE    HA16020   0.838   5.741  10.877  2.2671 -2.1913 -0.5044
  146SAPE    HB16021   0.890   5.901  10.818  0.7548 -0.4317  2.4962
  146SAPE    C216022   0.778   5.793  10.673 -0.1933  0.0630  0.0234
  146SAPE    HS16023   0.774   5.687  10.637 -2.7422 -0.1085  0.6850
  146SAPE   O2116024   0.844   5.874  10.578  0.3891  0.0378 -0.2570
  146SAPE   C2116025   0.817   5.864  10.452  0.5443  0.2614 -0.3041
  146SAPE   O2216026   0.747   5.782  10.397 -0.4505 -0.5638  0.4338
  146SAPE   C2216027   0.913   5.953  10.374  0.4430  1.0027 -0.5292
  146SAPE   H2R16028   0.877   6.057  10.390 -0.0485  0.4321  2.4212
  146SAPE   H2S16029   1.011   5.952  10.426 -0.0434 -1.5857  0.3921
  146SAPE    C316030   0.641   5.847  10.720  0.3456 -0.2637 -0.1718
  146SAPE    HX16031   0.656   5.946  10.766  1.1480  0.1004 -1.1910
  146SAPE    HY16032   0.613   5.783  10.806 -0.7600 -1.7209 -1.5646
  146SAPE   O3116033   0.544   5.842  10.619 -0.2918  0.2783  0.0634
  146SAPE   C3116034   0.468   5.733  10.601  0.1711 -0.1359 -0.4431
  146SAPE   O3216035   0.486   5.623  10.653  0.2992  0.2951  0.2855
  146SAPE   C3216036   0.347   5.765  10.516  0.7052 -0.8424  0.5930
  146SAPE   H2X16037   0.352   5.866  10.470  0.4344 -1.5751 -1.1080
  146SAPE   H2Y16038   0.249   5.758  10.568 -0.2342 -4.0396 -1.4070
  146SAPE   C2316039   0.937   5.900  10.221  0.0633 -0.2377  0.0277
  146SAPE   H3R16040   0.844   5.913  10.161  0.5146 -2.0256 -1.0725
  146SAPE   H3S16041   0.958   5.791  10.228  0.2153 -0.4151 -2.7129
  146SAPE   C2416042   1.053   5.973  10.153  0.3843  0.3503  0.9755
  146SAPE   H4R16043   1.080   6.064  10.212 -1.0074 -0.3226  2.6961
  146SAPE   H4S16044   1.016   6.001  10.053  1.1951 -1.5511  0.1313
  146SAPE   C2516045   1.180   5.892  10.142  0.4427 -0.0166 -0.7242
  146SAPE   H5R16046   1.217   5.867  10.243 -1.2903  0.8237  0.1478
  146SAPE   C2616047   1.247   5.862  10.032  0.1879  0.3136  0.6263
  146SAPE   H6R16048   1.325   5.784  10.035 -0.4939 -0.4620 -1.2388
  146SAPE   C2716049   1.217   5.893   9.890  0.3589 -0.5906  0.5024
  146SAPE   H7R16050   1.124   5.954   9.883  0.8637 -0.0209 -1.8755
  146SAPE   H7S16051   1.189   5.800   9.835 -2.4657 -0.5146  1.7079
  146SAPE   C2816052   1.324   5.973   9.823 -0.0296 -0.1325  0.1013
  146SAPE   H8R16053   1.372   6.039   9.897  1.7787  0.1994 -1.3501
  146SAPE   C2916054   1.367   5.961   9.695 -0.7702 -0.4497 -0.3782
  146SAPE   H9R16055   1.453   6.022   9.663  0.8126 -1.5194  1.6503
  146SAPE  C21016056   1.299   5.872   9.596 -0.4117  0.2308  0.0147
  146SAPE  H10R16057   1.245   5.786   9.641 -1.1493  0.9188  0.4482
  146SAPE  H10S16058   1.370   5.824   9.525 -2.1267 -0.0947 -1.5199
  146SAPE  C21116059   1.187   5.940   9.529  0.3734 -0.6386  0.0327
  146SAPE  H11R16060   1.110   5.969   9.603  0.5933  1.4837 -0.5245
  146SAPE  C21216061   1.180   5.970   9.400  0.4175 -0.1370  0.0308
  146SAPE  H12R16062   1.107   6.047   9.369  0.1132  0.4503  2.1419
  146SAPE  C21316063   1.280   5.933   9.292  0.2473  0.0643  0.4329
  146SAPE  H13R16064   1.362   5.870   9.332  0.7833 -0.5385 -1.5729
  146SAPE  H13S16065   1.337   6.023   9.259  2.1153 -0.9304  0.8734
  146SAPE  C21416066   1.210   5.870   9.176 -0.3128 -0.2327  0.2902
  146SAPE  H14R16067   1.210   5.760   9.178 -0.7978 -0.2506 -0.3178
  146SAPE  C21516068   1.166   5.924   9.062 -0.0771 -0.4659 -0.2898
  146SAPE  H15R16069   1.118   5.859   8.988 -0.3724 -0.7510  0.1581
  146SAPE  C21616070   1.162   6.076   9.023  0.7160 -0.3506  0.3802
  146SAPE  H16R16071   1.206   6.145   9.098 -0.4086  0.1986  0.5509
  146SAPE  H16S16072   1.058   6.110   9.005  1.0036  1.0577  1.3862
  146SAPE  C21716073   1.244   6.097   8.887  0.8171  0.0278 -0.1636
  146SAPE  H17R16074   1.183   6.161   8.819 -0.9205 -1.0299  0.3523
  146SAPE  H17S16075   1.256   6.011   8.818 -0.4175  1.1035 -1.7660
  146SAPE  C21816076   1.383   6.163   8.888 -0.1768 -0.5178  0.0500
  146SAPE  H18R16077   1.423   6.198   8.790  2.6303 -0.7515  1.0665
  146SAPE  H18S16078   1.459   6.091   8.924 -0.1081  0.0455  1.0720
  146SAPE  C21916079   1.396   6.290   8.972  0.4975  0.3586 -0.4727
  146SAPE  H19R16080   1.355   6.273   9.074  3.1534  1.1127  0.7719
  146SAPE  H19S16081   1.333   6.367   8.922 -0.2383 -0.8175 -1.3697
  146SAPE  C22016082   1.544   6.339   8.990  0.7680  0.4623 -0.7758
  146SAPE  H20R16083   1.587   6.379   8.896  1.6501 -0.7173 -0.8899
  146SAPE  H20S16084   1.601   6.249   9.024 -2.3018 -1.3556 -0.2036
  146SAPE  H20T16085   1.555   6.411   9.074  2.9471 -0.9154  0.1686
  146SAPE   C3316086   0.344   5.667  10.391 -0.4124  0.3620 -0.7619
  146SAPE   H3X16087   0.327   5.564  10.429  1.0708  0.5736  0.5018
  146SAPE   H3Y16088   0.437   5.663  10.329 -0.2120  1.2980 -0.5194
  146SAPE   C3416089   0.218   5.696  10.298 -0.5230  0.1263  0.1718
  146SAPE   H4X16090   0.224   5.804  10.272  0.0050 -0.0205 -0.3354
  146SAPE   H4Y16091   0.124   5.696  10.357  0.1751  0.1362  1.2917
  146SAPE   C3516092   0.208   5.612  10.171  0.5590 -0.1877 -0.9007
  146SAPE   H5X16093   0.118   5.665  10.133  1.9346  2.9822  0.1244
  146SAPE   H5Y16094   0.186   5.504  10.189 -0.3962  0.5741  3.0233
  146SAPE   C3616095   0.317   5.632  10.066 -0.3600 -0.4421  0.3774
  146SAPE   H6X16096   0.397   5.555  10.077  0.2589  0.1269 -0.1257
  146SAPE   H6Y16097   0.373   5.724  10.093 -0.9886 -0.7746  2.9578
  146SAPE   C3716098   0.260   5.646   9.921  0.0752  0.0089  0.2777
  146SAPE   H7X16099   0.180   5.724   9.926 -2.0361 -1.9673 -1.6748
  146SAPE   H7Y16100   0.212   5.550   9.892 -1.1843  0.4254  0.9215
  146SAPE   C3816101   0.359   5.679   9.813 -0.2663 -1.2718  0.2194
  146SAPE   H8X16102   0.427   5.592   9.824  1.2954 -0.3824 -1.9625
  146SAPE   H8Y16103   0.416   5.772   9.836  1.2489 -1.8306 -1.2024
  146SAPE   C3916104   0.310   5.678   9.675  0.1127  0.1578  0.5052
  146SAPE   H9X16105   0.242   5.765   9.662  0.7163  0.6732  0.8117
  146SAPE   H9Y16106   0.244   5.589   9.667 -1.9571  1.7881 -1.3604
  146SAPE  C31016107   0.416   5.683   9.569  0.4348 -0.4685  0.4536
  146SAPE  H10X16108   0.492   5.605   9.591  0.4405 -0.3188  0.9663
  146SAPE  H10Y16109   0.473   5.776   9.549  1.1053 -1.3999 -2.1527
  146SAPE  C31116110   0.359   5.643   9.429  0.2924 -0.6387 -0.5445
  146SAPE  H11X16111   0.310   5.543   9.435  1.8079 -1.3029  1.0730
  146SAPE  H11Y16112   0.447   5.636   9.361  0.7293 -2.0063  0.1458
  146SAPE  C31216113   0.255   5.736   9.364 -0.1893 -0.2567  0.0403
  146SAPE  H12X16114   0.278   5.844   9.380  0.2783 -0.4300  0.5733
  146SAPE  H12Y16115   0.155   5.724   9.411  0.4114 -1.8290  0.9448
  146SAPE  C31316116   0.243   5.711   9.215  0.2527 -0.3943  0.1160
  146SAPE  H13X16117   0.139   5.745   9.193  0.4779  0.5529  0.5132
  146SAPE  H13Y16118   0.262   5.605   9.187  0.3373 -0.7407  1.4310
  146SAPE  C31416119   0.341   5.785   9.127 -0.7447 -0.1797  0.0085
  146SAPE  H14X16120   0.440   5.766   9.173 -1.9717  0.4068  3.0158
  146SAPE  H14Y16121   0.326   5.894   9.144  2.0632  0.1721  0.3683
  146SAPE  C31516122   0.332   5.755   8.979 -0.5846  0.5687 -0.8191
  146SAPE  H15X16123   0.339   5.644   8.973  1.0722  0.6017  0.3354
  146SAPE  H15Y16124   0.426   5.789   8.932  0.5012 -1.7697 -0.4077
  146SAPE  C31616125   0.205   5.819   8.921  0.5302  0.5608 -0.2051
  146SAPE  H16X16126   0.210   5.925   8.954  0.7875 -0.1488  2.0532
  146SAPE  H16Y16127   0.116   5.769   8.966 -0.1862  0.9997 -1.1035
  146SAPE  C31716128   0.177   5.804   8.767 -0.0025 -0.1223 -0.0134
  146SAPE  H17X16129   0.068   5.808   8.750  0.0711  0.9802 -0.3153
  146SAPE  H17Y16130   0.207   5.702   8.735 -1.2334 -0.2564 -0.7517
  146SAPE  C31816131   0.256   5.909   8.684 -0.3252  0.0282 -0.0486
  146SAPE  H18X16132   0.359   5.923   8.724 -0.5134 -1.2565  0.9277
  146SAPE  H18Y16133   0.200   6.005   8.686 -0.4758 -0.0600 -0.0216
  146SAPE  H18Z16134   0.261   5.871   8.580 -1.8400 -0.1897 -0.0471
  147SAPE     N16135   3.252   4.038   6.181 -0.8170  0.3684 -0.0216
  147SAPE   HN116136   3.160   3.996   6.156 -0.1170 -1.6158  0.5800
  147SAPE   HN216137   3.243   4.140   6.198  1.4223  0.4477  0.9785
  147SAPE   HN316138   3.318   4.030   6.101 -1.1875 -4.3850 -0.0088
  147SAPE   C1216139   3.321   3.986   6.306  0.5187 -0.9723  0.6585
  147SAPE  H12A16140   3.371   3.893   6.270  1.2846  0.5354 -2.3154
  147SAPE  H12B16141   3.240   3.960   6.378  0.1113 -0.3586  0.4178
  147SAPE   C1116142   3.419   4.089   6.352  0.1344  0.9223  0.0247
  147SAPE  H11A16143   3.502   4.039   6.406  0.5965  0.6666 -0.9078
  147SAPE  H11B16144   3.363   4.152   6.425  0.1949  0.5338  0.4048
  147SAPE     P16145   3.612   4.223   6.227  0.0602  0.1939  0.0824
  147SAPE   O1316146   3.700   4.112   6.180  0.2046 -0.1873  0.0321
  147SAPE   O1416147   3.608   4.342   6.143 -0.4846  0.2267 -0.1518
  147SAPE   O1216148   3.466   4.175   6.247 -0.1035 -0.3729 -0.4142
  147SAPE   O1116149   3.659   4.261   6.373 -0.1887 -0.4670  0.3243
  147SAPE    C116150   3.592   4.363   6.442 -0.0458 -0.3397  0.1408
  147SAPE    HA16151   3.514   4.416   6.382  0.7933  1.7712  0.8863
  147SAPE    HB16152   3.532   4.316   6.523  1.5310 -2.1087  0.3156
  147SAPE    C216153   3.698   4.463   6.506 -0.0261 -1.0326  1.1253
  147SAPE    HS16154   3.789   4.468   6.442 -0.2988 -0.3063  0.7849
  147SAPE   O2116155   3.716   4.424   6.646  0.1538 -0.1341  0.2169
  147SAPE   C2116156   3.836   4.459   6.703 -0.7735  0.3657  0.5587
  147SAPE   O2216157   3.921   4.515   6.637  0.1809 -0.0280  0.5678
  147SAPE   C2216158   3.842   4.402   6.844  0.2756  0.5228 -0.0083
  147SAPE   H2R16159   3.754   4.438   6.902  0.8454  2.9592 -0.5646
  147SAPE   H2S16160   3.838   4.292   6.830 -1.3919  0.4626  0.8113
  147SAPE    C316161   3.637   4.605   6.507 -0.1792  0.3502 -0.1941
  147SAPE    HX16162   3.532   4.601   6.471  0.3347 -1.4338 -1.5093
  147SAPE    HY16163   3.703   4.662   6.438  0.6971  0.4369  0.7027
  147SAPE   O3116164   3.637   4.670   6.639 -0.6203  0.8315 -0.1156
  147SAPE   C3116165   3.540   4.756   6.655  0.0008 -0.5083 -0.3430
  147SAPE   O3216166   3.460   4.797   6.571 -0.4725  0.2982  0.8781
  147SAPE   C3216167   3.544   4.793   6.796 -0.0150 -0.1635  0.4504
  147SAPE   H2X16168   3.444   4.840   6.813  0.6156  1.3008  0.1752
  147SAPE   H2Y16169   3.628   4.863   6.810 -0.4666  0.7256 -1.1564
  147SAPE   C2316170   3.970   4.439   6.921  0.2840 -0.1087 -0.3990
  147SAPE   H3R16171   4.059   4.436   6.855  0.2576 -2.6946 -0.3424
  147SAPE   H3S16172   3.980   4.366   7.005 -1.3629 -0.6814 -0.6760
  147SAPE   C2416173   3.967   4.580   6.985 -0.1861 -0.5828  0.6126
  147SAPE   H4R16174   3.870   4.600   7.035 -0.2538  0.2238  0.1658
  147SAPE   H4S16175   3.961   4.660   6.908  0.0902 -0.8308  0.3314
  147SAPE   C2516176   4.081   4.602   7.076 -0.2298  0.6552 -0.7472
  147SAPE   H5R16177   4.170   4.643   7.027  0.9813 -1.5731 -0.4639
  147SAPE   C2616178   4.100   4.583   7.206  0.4404  0.0645 -0.1882
  147SAPE   H6R16179   4.199   4.593   7.252  0.1689 -0.5834  0.5529
  147SAPE   C2716180   3.984   4.536   7.300 -0.4324 -0.6586  0.3291
  147SAPE   H7R16181   4.032   4.451   7.351  1.8363 -0.1352 -0.8640
  147SAPE   H7S16182   3.891   4.504   7.247 -0.6472  0.2799  0.1219
  147SAPE   C2816183   3.943   4.645   7.395  0.6436 -0.6399 -0.4821
  147SAPE   H8R16184   3.847   4.695   7.376  2.4641  1.7383 -4.0209
  147SAPE   C2916185   4.000   4.689   7.512  0.6248 -0.0668  0.9707
  147SAPE   H9R16186   3.957   4.779   7.559  3.1891  1.0031  1.3482
  147SAPE  C21016187   4.129   4.642   7.566  0.3633  0.7983 -0.3524
  147SAPE  H10R16188   4.202   4.720   7.595  1.1345 -0.0984  0.1354
  147SAPE  H10S16189   4.189   4.583   7.494 -0.7486 -2.0606  0.9870
  147SAPE  C21116190   4.110   4.539   7.675 -0.0359 -0.2446 -0.0630
  147SAPE  H11R16191   4.093   4.437   7.636  1.7649  0.1542 -1.9790
  147SAPE  C21216192   4.107   4.555   7.810  0.2642 -0.2732  0.2082
  147SAPE  H12R16193   4.091   4.465   7.871  1.3190  0.0402  0.9566
  147SAPE  C21316194   4.111   4.691   7.881  0.7488 -0.1589  0.6630
  147SAPE  H13R16195   4.092   4.774   7.809 -1.2106 -1.7238 -0.6751
  147SAPE  H13S16196   4.214   4.704   7.920 -0.0815  1.3934  2.4658
  147SAPE  C21416197   4.008   4.694   7.993 -0.5670  0.9613 -0.1353
  147SAPE  H14R16198   3.904   4.703   7.958 -0.2385 -0.0626 -1.3772
  147SAPE  C21516199   4.030   4.670   8.123 -0.5662 -0.0290 -0.3722
  147SAPE  H15R16200   3.953   4.697   8.197 -1.3922 -3.0851 -0.0731
  147SAPE  C21616201   4.169   4.637   8.177  0.0565  0.4007 -0.3313
  147SAPE  H16R16202   4.244   4.719   8.182  2.8227 -1.8226 -3.0120
  147SAPE  H16S16203   4.207   4.563   8.103 -1.1089  0.7065 -1.2618
  147SAPE  C21716204   4.147   4.577   8.316  0.2182  0.4389 -0.9766
  147SAPE  H17R16205   4.093   4.480   8.308 -0.5252  0.5287  2.2966
  147SAPE  H17S16206   4.090   4.636   8.391  0.2690  0.1496 -0.7090
  147SAPE  C21816207   4.283   4.536   8.392  0.5473 -0.0528  0.4521
  147SAPE  H18R16208   4.328   4.637   8.406  2.0250 -0.5702 -0.5047
  147SAPE  H18S16209   4.346   4.481   8.319 -0.2545 -1.6691  0.9531
  147SAPE  C21916210   4.255   4.438   8.506  0.2729 -0.0721 -0.0335
  147SAPE  H19R16211   4.348   4.378   8.515  1.3528  1.5699  0.1314
  147SAPE  H19S16212   4.186   4.358   8.473  0.9919 -0.3885 -0.7876
  147SAPE  C22016213   4.220   4.502   8.637  0.7366  0.8932  0.1617
  147SAPE  H20R16214   4.203   4.422   8.712  2.1937 -2.3989 -2.8210
  147SAPE  H20S16215   4.133   4.569   8.623 -0.2059  0.1931  2.5421
  147SAPE  H20T16216   4.309   4.559   8.671  1.4000 -0.3607  0.5688
  147SAPE   C3316217   3.572   4.678   6.897  0.4675 -0.0782 -0.1571
  147SAPE   H3X16218   3.674   4.636   6.891 -0.4407 -2.4312  0.3115
  147SAPE   H3Y16219   3.512   4.586   6.875  2.5851 -0.8838 -2.9443
  147SAPE   C3416220   3.545   4.725   7.039  0.3224 -0.0446  0.0186
  147SAPE   H4X16221   3.439   4.758   7.036  0.5292  0.4968 -2.2119
  147SAPE   H4Y16222   3.598   4.820   7.060 -0.0582 -0.1853  1.7083
  147SAPE   C3516223   3.578   4.613   7.137 -0.6485 -0.0057  0.9377
  147SAPE   H5X16224   3.689   4.617   7.131 -0.5888 -0.7501  1.5121
  147SAPE   H5Y16225   3.530   4.522   7.096  0.9091 -0.3258 -0.2213
  147SAPE   C3616226   3.555   4.656   7.281  0.0758  0.0642 -0.5216
  147SAPE   H6X16227   3.454   4.697   7.302 -0.4192 -1.3204 -0.0816
  147SAPE   H6Y16228   3.627   4.734   7.312  0.2699  0.3040 -1.5413
  147SAPE   C3716229   3.573   4.529   7.378 -0.4174  0.4430  0.2186
  147SAPE   H7X16230   3.682   4.505   7.376 -0.4862  0.1198  0.3282
  147SAPE   H7Y16231   3.505   4.444   7.357  0.9237 -0.8968  1.1263
  147SAPE   C3816232   3.533   4.563   7.522 -0.3812 -0.5924  0.5155
  147SAPE   H8X16233   3.425   4.545   7.540 -0.5295 -0.1435  0.0735
  147SAPE   H8Y16234   3.552   4.670   7.545  1.4115 -0.9282  0.7322
  147SAPE   C3916235   3.628   4.495   7.616  0.2281  0.4878 -0.4225
  147SAPE   H9X16236   3.723   4.553   7.618  0.6926 -0.2630 -0.2286
  147SAPE   H9Y16237   3.653   4.394   7.577 -1.6377 -0.5738  1.0470
  147SAPE  C31016238   3.581   4.473   7.766  0.0668 -0.0149 -0.0211
  147SAPE  H10X16239   3.488   4.412   7.773  0.2249 -0.1451  1.0404
  147SAPE  H10Y16240   3.567   4.573   7.812  1.6830  0.5482 -0.7123
  147SAPE  C31116241   3.692   4.401   7.847  0.2832 -0.0432  0.2402
  147SAPE  H11X16242   3.791   4.451   7.843  0.9483 -1.2357  1.2686
  147SAPE  H11Y16243   3.716   4.299   7.811 -0.4362 -0.0905 -0.1087
  147SAPE  C31216244   3.656   4.384   7.999  0.2164  0.0504  0.3947
  147SAPE  H12X16245   3.653   4.274   8.016 -1.2021  0.3616  2.2147
  147SAPE  H12Y16246   3.559   4.436   8.012  0.2854  0.6021 -1.2018
  147SAPE  C31316247   3.754   4.453   8.093 -0.3910 -0.2903 -0.2074
  147SAPE  H13X16248   3.739   4.559   8.063 -3.7743 -0.3806  1.0182
  147SAPE  H13Y16249   3.860   4.431   8.068  0.7069  2.5890  1.6605
  147SAPE  C31416250   3.742   4.431   8.245  0.1550  0.4476  0.4108
  147SAPE  H14X16251   3.640   4.445   8.286  0.0352 -0.4909  0.4458
  147SAPE  H14Y16252   3.795   4.517   8.291  1.3145  0.1504 -0.3308
  147SAPE  C31516253   3.801   4.300   8.285  0.2903  0.7374 -0.3198
  147SAPE  H15X16254   3.894   4.279   8.229  0.4296  3.0861 -1.0000
  147SAPE  H15Y16255   3.732   4.219   8.253  2.0555 -1.1836  0.6139
  147SAPE  C31616256   3.823   4.284   8.439  0.1048  0.2698 -0.0660
  147SAPE  H16X16257   3.724   4.290   8.490  0.8355  0.3184  1.3517
  147SAPE  H16Y16258   3.888   4.364   8.479  0.6646 -0.7053  0.9830
  147SAPE  C31716259   3.900   4.160   8.469 -0.4533  0.5018  0.1808
  147SAPE  H17X16260   4.005   4.178   8.438  0.1923  0.0285  2.0209
  147SAPE  H17Y16261   3.865   4.066   8.420 -0.0266  0.5173 -0.1523
  147SAPE  C31816262   3.917   4.123   8.622  0.1651 -0.1933  0.1044
  147SAPE  H18X16263   3.949   4.018   8.632 -2.8116 -0.9497  2.1755
  147SAPE  H18Y16264   3.824   4.132   8.682 -0.4920  0.7166 -1.0272
  147SAPE  H18Z16265   3.994   4.189   8.668  0.6410 -0.3594 -0.4449
  148SAPE     N16266   3.007   2.552   6.405  0.0310  0.3784 -0.2799
  148SAPE   HN116267   2.948   2.631   6.372 -0.7961 -0.4882 -0.8821
  148SAPE   HN216268   3.016   2.487   6.325 -1.2201  1.3782 -1.2552
  148SAPE   HN316269   2.966   2.498   6.484  0.2730  1.8400  0.8726
  148SAPE   C1216270   3.144   2.595   6.444  0.0682 -0.5594 -0.1688
  148SAPE  H12A16271   3.165   2.692   6.395 -1.8801  1.0163  2.0592
  148SAPE  H12B16272   3.208   2.510   6.409  1.6857  1.9975 -3.7525
  148SAPE   C1116273   3.156   2.622   6.592 -0.3698  0.0559  0.1069
  148SAPE  H11A16274   3.082   2.693   6.635 -0.0625  0.0580  0.6386
  148SAPE  H11B16275   3.253   2.669   6.616  0.5613 -1.0732 -1.3290
  148SAPE     P16276   3.229   2.383   6.715  0.1096  0.0722  0.1836
  148SAPE   O1316277   3.171   2.300   6.828 -0.2343 -0.5690  0.1334
  148SAPE   O1416278   3.282   2.302   6.599 -0.3569  0.0459  0.3930
  148SAPE   O1216279   3.125   2.500   6.668 -0.9120 -0.3289  0.0322
  148SAPE   O1116280   3.341   2.477   6.773  0.7403  0.3700  0.7082
  148SAPE    C116281   3.329   2.558   6.887 -0.1613 -0.2536  0.9829
  148SAPE    HA16282   3.322   2.665   6.857 -1.7129 -0.9074 -1.1094
  148SAPE    HB16283   3.239   2.545   6.952 -0.7845  0.1124  0.2113
  148SAPE    C216284   3.436   2.521   6.990  0.2757  0.4517  0.2954
  148SAPE    HS16285   3.435   2.592   7.075  2.0637 -1.3912  1.9271
  148SAPE   O2116286   3.564   2.517   6.922  0.2590  0.1136  0.1270
  148SAPE   C2116287   3.618   2.633   6.899 -0.7771 -0.3320 -0.3422
  148SAPE   O2216288   3.575   2.743   6.933 -0.3902 -0.1574  0.2136
  148SAPE   C2216289   3.752   2.612   6.828  0.3325  0.3367 -0.6551
  148SAPE   H2R16290   3.763   2.505   6.801 -0.0213  0.4405 -1.2180
  148SAPE   H2S16291   3.732   2.664   6.732 -1.1910  1.0802  0.0335
  148SAPE    C316292   3.405   2.386   7.056 -0.2234 -0.4056 -0.4333
  148SAPE    HX16293   3.409   2.320   6.967 -0.4495 -0.1415 -0.6438
  148SAPE    HY16294   3.303   2.382   7.101  1.3764 -2.9469  3.1874
  148SAPE   O3116295   3.499   2.350   7.162 -0.3040  0.1614  0.7116
  148SAPE   C3116296   3.476   2.400   7.278 -0.3094  0.0548  0.2871
  148SAPE   O3216297   3.386   2.482   7.300  0.1541  0.0782 -0.2720
  148SAPE   C3216298   3.583   2.345   7.377  0.3066  0.0682 -0.5785
  148SAPE   H2X16299   3.681   2.350   7.325 -0.2986  0.5175 -1.6839
  148SAPE   H2Y16300   3.549   2.240   7.395 -0.4151  0.0587 -1.9018
  148SAPE   C2316301   3.875   2.667   6.897 -0.0394  0.8179 -0.6428
  148SAPE   H3R16302   3.857   2.769   6.937  1.0712 -0.7152  4.0141
  148SAPE   H3S16303   3.956   2.674   6.821  0.1210 -0.3809 -0.5845
  148SAPE   C2416304   3.926   2.580   7.012 -0.3850 -0.1754 -0.1948
  148SAPE   H4R16305   4.023   2.626   7.041 -0.2699 -0.6493  0.1841
  148SAPE   H4S16306   3.945   2.481   6.965  1.5972 -0.1498  0.5131
  148SAPE   C2516307   3.834   2.558   7.135 -0.1627 -0.2814  0.1407
  148SAPE   H5R16308   3.776   2.465   7.121  1.1269 -1.1987  0.8110
  148SAPE   C2616309   3.852   2.618   7.256 -0.0100  0.0953  0.0243
  148SAPE   H6R16310   3.777   2.598   7.334 -0.0338  2.2285  0.5927
  148SAPE   C2716311   3.956   2.715   7.285 -0.0276 -0.1611  0.0166
  148SAPE   H7R16312   3.935   2.796   7.358 -1.4198  0.0442 -0.5851
  148SAPE   H7S16313   3.997   2.769   7.196  0.7373  1.0189  1.0637
  148SAPE   C2816314   4.075   2.643   7.342 -0.2135 -0.3803 -0.4771
  148SAPE   H8R16315   4.151   2.604   7.272  0.5075  1.0035 -0.5064
  148SAPE   C2916316   4.096   2.642   7.473  0.1266  0.3832  0.1253
  148SAPE   H9R16317   4.189   2.591   7.502 -0.7378 -1.4853 -0.2656
  148SAPE  C21016318   4.016   2.710   7.579 -0.2542  0.0543  0.0118
  148SAPE  H10R16319   3.907   2.708   7.557 -0.6610  1.8871  1.8421
  148SAPE  H10S16320   4.047   2.816   7.580  1.1553 -0.3454  0.1770
  148SAPE  C21116321   4.041   2.662   7.719 -0.0404 -0.7260  0.0099
  148SAPE  H11R16322   4.106   2.575   7.735  2.6968  1.0061 -1.2860
  148SAPE  C21216323   3.991   2.717   7.830  0.4287  0.0654  0.4191
  148SAPE  H12R16324   4.020   2.676   7.928 -1.5851  0.5852  1.2755
  148SAPE  C21316325   3.893   2.825   7.837 -0.3361  0.1026 -0.1603
  148SAPE  H13R16326   3.826   2.796   7.921 -1.3539  1.3475 -0.5177
  148SAPE  H13S16327   3.833   2.836   7.744  0.1529 -0.1159 -0.4981
  148SAPE  C21416328   3.964   2.957   7.863  0.0961 -0.4054  0.1935
  148SAPE  H14R16329   4.040   2.980   7.787  1.9748 -1.1024  1.7876
  148SAPE  C21516330   3.949   3.042   7.966 -0.0791  0.1965 -0.0538
  148SAPE  H15R16331   4.012   3.132   7.973  0.1008  0.0032  0.9240
  148SAPE  C21616332   3.863   3.035   8.089 -0.5163  0.4344 -0.0150
  148SAPE  H16R16333   3.853   2.926   8.106 -1.7389  0.4593 -0.5146
  148SAPE  H16S16334   3.762   3.073   8.064 -1.7342 -1.6691  1.5859
  148SAPE  C21716335   3.919   3.096   8.217 -0.3550  0.3647 -0.3281
  148SAPE  H17R16336   3.928   3.207   8.221  0.9933  0.2320  0.6946
  148SAPE  H17S16337   4.021   3.055   8.233 -1.1643 -1.1589  1.0933
  148SAPE  C21816338   3.835   3.061   8.343  0.0806 -0.1680  0.0053
  148SAPE  H18R16339   3.805   2.955   8.330 -2.1926  0.4007  0.3772
  148SAPE  H18S16340   3.745   3.125   8.329  0.1819 -0.7332 -3.7617
  148SAPE  C21916341   3.915   3.081   8.471 -0.1857 -0.0220  0.9982
  148SAPE  H19R16342   3.976   3.172   8.451  1.3922 -1.3523 -0.3828
  148SAPE  H19S16343   3.987   2.997   8.481 -1.0432 -0.4628  4.0814
  148SAPE  C22016344   3.828   3.105   8.597  0.6412  0.2364  0.3742
  148SAPE  H20R16345   3.793   3.016   8.654 -1.5883  0.3040 -0.8551
  148SAPE  H20S16346   3.744   3.173   8.572 -1.0393 -1.5411  1.0310
  148SAPE  H20T16347   3.888   3.155   8.676  1.5740 -0.8112  0.3454
  148SAPE   C3316348   3.578   2.433   7.513  0.0795  0.8109 -0.5074
  148SAPE   H3X16349   3.474   2.430   7.551 -0.2336 -1.5019 -1.4623
  148SAPE   H3Y16350   3.614   2.537   7.498  2.1440  0.3835  1.3686
  148SAPE   C3416351   3.657   2.372   7.628 -0.6076 -0.0987  0.8738
  148SAPE   H4X16352   3.758   2.349   7.588 -0.6769 -0.5401  0.9475
  148SAPE   H4Y16353   3.627   2.271   7.662  0.3947  0.0613  2.2595
  148SAPE   C3516354   3.694   2.474   7.740  0.0725 -0.0704  0.2192
  148SAPE   H5X16355   3.725   2.571   7.696 -2.3184  0.7318  0.2694
  148SAPE   H5Y16356   3.775   2.426   7.800 -0.7611 -1.8122 -0.0287
  148SAPE   C3616357   3.574   2.486   7.831  1.1237 -1.0857 -0.4540
  148SAPE   H6X16358   3.523   2.388   7.841 -3.8032  1.3587 -0.4881
  148SAPE   H6Y16359   3.501   2.555   7.785  0.0432 -1.0213  1.3217
  148SAPE   C3716360   3.613   2.552   7.964  0.8790 -0.1979  0.3575
  148SAPE   H7X16361   3.522   2.600   8.006  0.9693  0.5739 -0.3053
  148SAPE   H7Y16362   3.708   2.608   7.950  0.6871  0.4299  1.4725
  148SAPE   C3816363   3.654   2.448   8.069  0.3653  0.4793  0.5668
  148SAPE   H8X16364   3.749   2.397   8.041  0.2633  0.7690 -0.3062
  148SAPE   H8Y16365   3.582   2.365   8.084 -0.6637  1.4470  1.0084
  148SAPE   C3916366   3.666   2.500   8.215 -0.2439 -0.0475 -0.6665
  148SAPE   H9X16367   3.681   2.420   8.290  3.7676  1.0483 -0.1659
  148SAPE   H9Y16368   3.582   2.568   8.239 -0.7393 -0.0526 -2.3139
  148SAPE  C31016369   3.799   2.571   8.232  0.5125  0.0528 -0.5235
  148SAPE  H10X16370   3.800   2.666   8.175  1.0755 -0.9349 -2.1945
  148SAPE  H10Y16371   3.881   2.507   8.193  2.7373  2.4204  0.1746
  148SAPE  C31116372   3.817   2.619   8.384  0.2101 -0.1222 -0.4481
  148SAPE  H11X16373   3.801   2.531   8.450  0.7146  0.1400  0.0327
  148SAPE  H11Y16374   3.737   2.694   8.404  0.3287 -0.6947  2.3831
  148SAPE  C31216375   3.960   2.665   8.415  0.4169  0.3316 -0.5738
  148SAPE  H12X16376   3.992   2.762   8.372  0.9580  0.8808  1.0340
  148SAPE  H12Y16377   4.030   2.587   8.376  1.1773  0.7284 -0.0216
  148SAPE  C31316378   3.993   2.670   8.564  0.0019  0.0114 -0.2093
  148SAPE  H13X16379   3.941   2.587   8.617 -0.0767 -0.6773 -1.3399
  148SAPE  H13Y16380   3.952   2.759   8.615 -0.2445 -1.5955  2.4753
  148SAPE  C31416381   4.145   2.692   8.589  0.2484  0.6882  0.5820
  148SAPE  H14X16382   4.178   2.771   8.517  1.3278 -1.2735 -1.1192
  148SAPE  H14Y16383   4.188   2.592   8.566  1.8049  1.5562 -0.3914
  148SAPE  C31516384   4.177   2.733   8.730 -0.0902 -0.0508  0.3477
  148SAPE  H15X16385   4.116   2.818   8.769  0.3406  1.5092 -2.2238
  148SAPE  H15Y16386   4.277   2.780   8.728 -0.4305  0.6814  0.0776
  148SAPE  C31616387   4.159   2.621   8.828  0.3447  0.5759  0.3163
  148SAPE  H16X16388   4.209   2.528   8.793  1.2029  0.9072  0.6586
  148SAPE  H16Y16389   4.050   2.607   8.845  0.0424  1.1829 -1.0243
  148SAPE  C31716390   4.214   2.651   8.968 -0.2054  0.3630 -0.0382
  148SAPE  H17X16391   4.139   2.711   9.024  0.5394  0.2864  1.0538
  148SAPE  H17Y16392   4.313   2.699   8.953  0.1081 -0.6455 -1.2732
  148SAPE  C31816393   4.232   2.522   9.050 -0.4868 -0.6580 -0.2647
  148SAPE  H18X16394   4.297   2.446   9.004 -0.7546 -0.2013 -1.4228
  148SAPE  H18Y16395   4.133   2.472   9.055 -2.0629  2.3998  0.6449
  148SAPE  H18Z16396   4.269   2.538   9.153 -0.1188 -0.8425 -0.3697
  149SAPE     N16397   3.405   3.308   6.279 -0.2030 -0.2568 -0.3065
  149SAPE   HN116398   3.302   3.300   6.289 -0.0208 -2.2665  0.1786
  149SAPE   HN216399   3.442   3.349   6.367  0.0040 -0.2478 -0.3954
  149SAPE   HN316400   3.424   3.363   6.193 -1.9587  1.0379  0.1245
  149SAPE   C1216401   3.463   3.170   6.273  0.6086  0.8729  0.0143
  149SAPE  H12A16402   3.566   3.166   6.314  0.8881 -0.0623 -0.7699
  149SAPE  H12B16403   3.465   3.152   6.163 -1.0561  0.0753  0.1075
  149SAPE   C1116404   3.382   3.071   6.353 -0.8011 -0.4007 -0.2022
  149SAPE  H11A16405   3.384   3.090   6.463  1.1147  0.2914 -0.3300
  149SAPE  H11B16406   3.430   2.975   6.323  0.9792  1.1839 -2.5653
  149SAPE     P16407   3.127   3.131   6.377  0.0937 -0.3088  0.4273
  149SAPE   O1316408   3.132   3.276   6.341  0.1048 -0.1377  0.5531
  149SAPE   O1416409   3.009   3.058   6.339  0.2285  1.0225 -0.0426
  149SAPE   O1216410   3.247   3.064   6.303  0.1136 -0.0626 -0.1017
  149SAPE   O1116411   3.165   3.119   6.529 -0.1456  0.3359  0.6053
  149SAPE    C116412   3.096   3.037   6.618  0.0589 -0.8133  0.3021
  149SAPE    HA16413   3.018   2.974   6.571  0.0396  0.9098 -2.0421
  149SAPE    HB16414   3.167   2.970   6.673 -0.9869 -2.2025 -0.0027
  149SAPE    C216415   3.022   3.122   6.730 -0.6540 -0.1049 -0.0983
  149SAPE    HS16416   2.964   3.208   6.689 -0.4778  0.7079  1.3390
  149SAPE   O2116417   3.117   3.163   6.826  0.3251 -0.6417 -0.2205
  149SAPE   C2116418   3.152   3.287   6.816 -0.1118  0.0133 -0.0968
  149SAPE   O2216419   3.104   3.370   6.741 -0.8921 -0.3632 -0.1046
  149SAPE   C2216420   3.254   3.322   6.928  0.5312 -0.1401  0.0091
  149SAPE   H2R16421   3.330   3.243   6.917 -0.6726 -1.6704  2.3661
  149SAPE   H2S16422   3.301   3.420   6.904 -1.7940  0.8484 -0.7068
  149SAPE    C316423   2.912   3.048   6.810  0.1404  0.4215  0.3419
  149SAPE    HX16424   2.830   3.035   6.736  1.2316 -1.2758 -0.5912
  149SAPE    HY16425   2.882   3.118   6.891  3.7453  0.2878  1.8797
  149SAPE   O3116426   2.949   2.920   6.850 -0.1903 -0.6198 -0.0010
  149SAPE   C3116427   2.994   2.920   6.980 -0.1017 -0.3055  0.1778
  149SAPE   O3216428   2.985   3.013   7.056 -0.8161 -0.0014  0.6296
  149SAPE   C3216429   3.078   2.795   7.003 -0.4290  0.9822 -0.2731
  149SAPE   H2X16430   3.141   2.781   6.913 -0.1753 -1.0995  0.2098
  149SAPE   H2Y16431   3.001   2.716   7.018  2.4444 -1.9085 -0.3415
  149SAPE   C2316432   3.190   3.347   7.070  0.0347 -0.4932  0.3405
  149SAPE   H3R16433   3.159   3.250   7.115  0.9459 -0.8800  0.1311
  149SAPE   H3S16434   3.105   3.418   7.055  1.9382  1.5976 -0.7888
  149SAPE   C2416435   3.285   3.408   7.173 -0.2543  0.3132 -0.0864
  149SAPE   H4R16436   3.218   3.424   7.261  1.3672 -0.1229  1.2480
  149SAPE   H4S16437   3.311   3.510   7.139 -1.3215  2.1579  4.2143
  149SAPE   C2516438   3.412   3.335   7.221 -0.7888  0.0324  0.2836
  149SAPE   H5R16439   3.492   3.315   7.149 -1.2223 -0.0379 -0.1880
  149SAPE   C2616440   3.439   3.291   7.346 -0.0168 -0.1550 -0.1855
  149SAPE   H6R16441   3.522   3.218   7.344  0.2408  0.1595 -1.7027
  149SAPE   C2716442   3.352   3.302   7.470  0.4430  0.3263 -0.2593
  149SAPE   H7R16443   3.309   3.404   7.485  1.1331  0.3629  1.6576
  149SAPE   H7S16444   3.423   3.299   7.556  0.7942 -0.3501 -0.5715
  149SAPE   C2816445   3.237   3.206   7.475 -0.0883  0.1289 -0.2193
  149SAPE   H8R16446   3.201   3.166   7.379  0.5915 -0.1531 -0.3615
  149SAPE   C2916447   3.173   3.169   7.585 -0.4036 -0.0253 -0.6150
  149SAPE   H9R16448   3.083   3.106   7.576 -1.1226  1.1739 -2.1064
  149SAPE  C21016449   3.201   3.215   7.727 -0.0927 -0.2185  0.1874
  149SAPE  H10R16450   3.271   3.302   7.732 -1.7858  1.0954  2.0429
  149SAPE  H10S16451   3.255   3.139   7.787  0.4841 -0.8043 -1.0741
  149SAPE  C21116452   3.059   3.249   7.778 -0.3890 -0.1898  0.0964
  149SAPE  H11R16453   2.981   3.275   7.705 -1.0307  2.1052  1.5497
  149SAPE  C21216454   3.021   3.251   7.905 -0.7198  0.5709 -0.1218
  149SAPE  H12R16455   2.915   3.254   7.933 -0.7555 -1.6106  0.0297
  149SAPE  C21316456   3.115   3.227   8.017 -0.3432  0.4191  0.4400
  149SAPE  H13R16457   3.140   3.318   8.075 -1.8614  1.5090 -0.5740
  149SAPE  H13S16458   3.219   3.209   7.984 -0.4007 -1.0394  1.0285
  149SAPE  C21416459   3.060   3.119   8.107 -0.4525  0.7692 -0.0719
  149SAPE  H14R16460   3.080   3.013   8.081  0.1289  0.9362 -0.3059
  149SAPE  C21516461   2.982   3.140   8.210 -0.0711  0.0506 -0.0264
  149SAPE  H15R16462   2.949   3.058   8.275 -1.7985 -1.5289 -2.7941
  149SAPE  C21616463   2.926   3.270   8.256  0.1657 -0.6427 -0.2605
  149SAPE  H16R16464   2.837   3.284   8.190  0.6873 -1.3217 -1.1221
  149SAPE  H16S16465   2.991   3.353   8.223  0.4575 -0.9458 -0.4616
  149SAPE  C21716466   2.882   3.285   8.405 -1.5596  0.5346 -0.3601
  149SAPE  H17R16467   2.894   3.392   8.432 -1.2039  0.8289 -1.6548
  149SAPE  H17S16468   2.958   3.233   8.467 -2.1449 -0.1077 -0.1793
  149SAPE  C21816469   2.732   3.253   8.437  0.3597  1.2125  0.6150
  149SAPE  H18R16470   2.722   3.250   8.547  0.2828  0.5134  0.5961
  149SAPE  H18S16471   2.695   3.164   8.381  1.7184  2.1063 -1.7897
  149SAPE  C21916472   2.625   3.364   8.395  0.2390 -0.1261 -0.4512
  149SAPE  H19R16473   2.640   3.375   8.286  0.1372  1.7139 -0.2934
  149SAPE  H19S16474   2.644   3.462   8.445 -1.0558 -0.0250 -0.1370
  149SAPE  C22016475   2.475   3.332   8.422  0.1111 -0.0451  0.2194
  149SAPE  H20R16476   2.448   3.245   8.359 -2.7912 -0.0146  1.3465
  149SAPE  H20S16477   2.418   3.416   8.377  0.0331 -1.4595 -2.4106
  149SAPE  H20T16478   2.451   3.309   8.528 -0.1498  2.3257  0.7047
  149SAPE   C3316479   3.169   2.817   7.124  0.5779 -0.0335  0.8321
  149SAPE   H3X16480   3.213   2.722   7.159 -1.0830 -1.2823 -0.4271
  149SAPE   H3Y16481   3.103   2.858   7.203 -1.3394  0.3693 -0.9528
  149SAPE   C3416482   3.290   2.917   7.094 -0.6429  1.3052  0.2106
  149SAPE   H4X16483   3.251   3.001   7.033  1.1307  1.6431 -0.5019
  149SAPE   H4Y16484   3.362   2.859   7.032  0.5431  2.1205  0.7853
  149SAPE   C3516485   3.365   2.954   7.226 -0.8614 -0.4002  0.4261
  149SAPE   H5X16486   3.290   2.955   7.308 -0.7183 -1.0159  0.5628
  149SAPE   H5Y16487   3.397   3.060   7.213 -3.0652  0.1674 -0.5830
  149SAPE   C3616488   3.481   2.857   7.269  0.0835 -0.4270 -0.4187
  149SAPE   H6X16489   3.568   2.865   7.200  0.6342  0.9833  0.4211
  149SAPE   H6Y16490   3.441   2.754   7.274 -1.5212  0.2062  0.1712
  149SAPE   C3716491   3.537   2.897   7.412  0.7394 -0.2665  0.4593
  149SAPE   H7X16492   3.555   3.007   7.405  1.0268 -0.3737 -0.6052
  149SAPE   H7Y16493   3.638   2.852   7.426  1.8358  1.5591 -1.2805
  149SAPE   C3816494   3.450   2.847   7.527  0.5864 -0.5403  0.1904
  149SAPE   H8X16495   3.464   2.737   7.535 -0.7776 -0.8573 -1.5263
  149SAPE   H8Y16496   3.345   2.871   7.500  0.0776 -0.9485  1.8021
  149SAPE   C3916497   3.477   2.913   7.652  0.5018  0.1912 -0.0313
  149SAPE   H9X16498   3.451   3.020   7.638 -1.3494 -0.0517  1.2861
  149SAPE   H9Y16499   3.582   2.900   7.685  1.6762  0.6160 -3.4443
  149SAPE  C31016500   3.390   2.855   7.763  0.3739 -0.4182  0.8975
  149SAPE  H10X16501   3.409   2.746   7.758  0.4439 -0.4600  1.9413
  149SAPE  H10Y16502   3.285   2.875   7.731  0.5053 -1.8627 -0.4707
  149SAPE  C31116503   3.420   2.913   7.908  0.2558  0.8419  0.0448
  149SAPE  H11X16504   3.423   3.024   7.896  0.5461  0.5819 -2.6742
  149SAPE  H11Y16505   3.517   2.873   7.945 -1.4732 -2.9197  0.6816
  149SAPE  C31216506   3.317   2.864   8.005  0.8224 -0.2627 -0.2179
  149SAPE  H12X16507   3.313   2.753   8.014  1.4925 -0.4642 -2.1850
  149SAPE  H12Y16508   3.211   2.893   7.988  0.4227 -1.2545  0.5015
  149SAPE  C31316509   3.360   2.913   8.144 -0.2099 -0.3597  0.2851
  149SAPE  H13X16510   3.345   3.023   8.142 -0.2300 -0.3591  0.4851
  149SAPE  H13Y16511   3.468   2.890   8.153 -0.5108 -1.4927  1.0989
  149SAPE  C31416512   3.278   2.850   8.255 -0.2018  0.0356  0.0420
  149SAPE  H14X16513   3.287   2.741   8.234  2.0776 -0.0517  1.2589
  149SAPE  H14Y16514   3.172   2.879   8.242 -0.2874 -1.1388 -2.1457
  149SAPE  C31516515   3.316   2.876   8.403  0.0179 -0.1394 -0.4151
  149SAPE  H15X16516   3.248   2.817   8.468  0.8803  0.8156  1.3946
  149SAPE  H15Y16517   3.302   2.976   8.449 -0.2117  0.2543 -1.3425
  149SAPE  C31616518   3.460   2.829   8.440  0.5490 -0.1825  0.2679
  149SAPE  H16X16519   3.521   2.910   8.395  0.5234 -0.0862  0.4036
  149SAPE  H16Y16520   3.484   2.727   8.403  1.2181 -0.6763  1.9802
  149SAPE  C31716521   3.481   2.823   8.592  0.1603 -0.5778 -0.2049
  149SAPE  H17X16522   3.586   2.793   8.616 -0.9844 -2.4574  2.7585
  149SAPE  H17Y16523   3.410   2.750   8.637  0.3570 -1.4283 -1.2585
  149SAPE  C31816524   3.471   2.958   8.665  0.0149  0.4299  0.1027
  149SAPE  H18X16525   3.500   2.932   8.770  0.9438 -0.4973 -0.3756
  149SAPE  H18Y16526   3.365   2.990   8.671 -0.5663 -1.3947 -0.0927
  149SAPE  H18Z16527   3.524   3.051   8.634  0.5691 -0.7550 -2.5608
  150SAPE     N16528   1.470   4.346   6.621  0.1701 -0.6820 -0.1392
  150SAPE   HN116529   1.368   4.359   6.631 -0.0284 -2.8123  0.8734
  150SAPE   HN216530   1.504   4.347   6.523 -0.3092 -1.8106 -0.3261
  150SAPE   HN316531   1.483   4.247   6.652  1.3775 -0.8089 -1.0115
  150SAPE   C1216532   1.541   4.436   6.713  0.6330 -0.1761 -0.3126
  150SAPE  H12A16533   1.521   4.406   6.818 -0.4875 -2.6916 -1.2190
  150SAPE  H12B16534   1.497   4.538   6.709 -0.2430 -0.4753  1.1939
  150SAPE   C1116535   1.694   4.439   6.689  0.2254  0.1478  0.3820
  150SAPE  H11A16536   1.736   4.344   6.730  1.5269  0.3564 -0.4101
  150SAPE  H11B16537   1.738   4.525   6.744 -0.3795  0.1273  0.8998
  150SAPE     P16538   1.769   4.547   6.456  0.1035 -0.8093 -0.7865
  150SAPE   O1316539   1.776   4.507   6.309 -0.0085 -0.6511 -0.8425
  150SAPE   O1416540   1.670   4.655   6.491 -0.0067  0.3056  0.1299
  150SAPE   O1216541   1.736   4.427   6.551  0.5155  0.0574 -0.4358
  150SAPE   O1116542   1.907   4.596   6.511  0.0026 -0.3496  0.3603
  150SAPE    C116543   2.022   4.513   6.519  0.5191 -0.0261 -0.3123
  150SAPE    HA16544   2.007   4.407   6.488  2.5588 -0.8158  1.2656
  150SAPE    HB16545   2.099   4.553   6.450  2.3621 -2.1755  0.4166
  150SAPE    C216546   2.078   4.511   6.662  0.7657  0.4628  0.6285
  150SAPE    HS16547   1.999   4.471   6.729  0.6099 -0.2229  0.0447
  150SAPE   O2116548   2.104   4.654   6.689 -0.2199  0.5343  0.2014
  150SAPE   C2116549   2.069   4.700   6.813  0.1206 -0.4005 -0.2604
  150SAPE   O2216550   2.014   4.633   6.898 -0.3001  0.0540 -0.6759
  150SAPE   C2216551   2.101   4.847   6.818  0.8146 -1.6774 -0.4926
  150SAPE   H2R16552   2.205   4.877   6.792  0.4160 -1.0996 -1.4716
  150SAPE   H2S16553   2.032   4.883   6.739  2.2679  1.6888 -0.2843
  150SAPE    C316554   2.214   4.429   6.675  0.1275 -0.3912  0.5761
  150SAPE    HX16555   2.305   4.474   6.628 -2.4619  1.9589 -2.4183
  150SAPE    HY16556   2.202   4.338   6.613 -2.2557 -0.0495  0.4882
  150SAPE   O3116557   2.230   4.375   6.809  0.3102 -0.2485 -0.4066
  150SAPE   C3116558   2.293   4.442   6.896  0.4662 -0.3242  0.3187
  150SAPE   O3216559   2.359   4.546   6.881  0.3740  0.2628 -0.0770
  150SAPE   C3216560   2.282   4.369   7.033  0.3654 -0.0933  1.2202
  150SAPE   H2X16561   2.350   4.282   7.040 -1.2722 -1.4039  1.0876
  150SAPE   H2Y16562   2.184   4.316   7.033  0.9402 -1.1685  2.4329
  150SAPE   C2316563   2.059   4.924   6.949 -0.0120  0.0251 -0.1413
  150SAPE   H3R16564   1.974   4.868   6.993  0.7451 -1.4030 -0.4700
  150SAPE   H3S16565   2.011   5.017   6.914 -0.4796  0.5995  1.9621
  150SAPE   C2416566   2.173   4.950   7.052 -0.0735  0.0479  0.0160
  150SAPE   H4R16567   2.131   5.021   7.127 -2.2249 -2.1440  0.9893
  150SAPE   H4S16568   2.249   5.013   7.001 -0.9970 -0.0042 -1.4634
  150SAPE   C2516569   2.230   4.831   7.126  0.8332 -0.4765  0.3472
  150SAPE   H5R16570   2.283   4.767   7.054  0.1280 -1.2991  0.5595
  150SAPE   C2616571   2.216   4.802   7.251  0.3588 -0.1363 -0.4909
  150SAPE   H6R16572   2.263   4.712   7.295  0.0992  0.0111  0.0881
  150SAPE   C2716573   2.131   4.878   7.351  0.8617  0.1171  0.4039
  150SAPE   H7R16574   2.094   4.810   7.430 -0.9410  0.9155  0.2785
  150SAPE   H7S16575   2.040   4.911   7.297 -0.4710 -0.8982  2.0047
  150SAPE   C2816576   2.195   5.001   7.410 -0.4870  0.1311  0.3593
  150SAPE   H8R16577   2.238   5.077   7.342  1.5384  1.3074  2.8622
  150SAPE   C2916578   2.209   5.030   7.539 -0.7729  0.2386  1.1782
  150SAPE   H9R16579   2.248   5.130   7.562  0.1528  0.2563 -0.3809
  150SAPE  C21016580   2.167   4.945   7.657 -0.6187 -0.2287 -0.2992
  150SAPE  H10R16581   2.069   4.901   7.627 -1.7769  1.2240  1.2759
  150SAPE  H10S16582   2.146   5.020   7.736 -2.1478  0.0826 -0.9798
  150SAPE  C21116583   2.276   4.845   7.691  0.4989  0.7522  0.2651
  150SAPE  H11R16584   2.323   4.805   7.600  0.6161  0.5224  0.4284
  150SAPE  C21216585   2.310   4.796   7.816 -0.5233 -0.2450  0.5327
  150SAPE  H12R16586   2.395   4.728   7.830 -0.3859 -0.5107 -1.4036
  150SAPE  C21316587   2.239   4.820   7.945 -0.2808 -0.2582 -0.0327
  150SAPE  H13R16588   2.150   4.884   7.927 -0.9887 -1.4500 -0.8041
  150SAPE  H13S16589   2.307   4.880   8.010  0.4544  1.6906 -2.4979
  150SAPE  C21416590   2.184   4.694   8.010 -0.2006  0.7580  0.0740
  150SAPE  H14R16591   2.146   4.640   7.922  1.9328  0.2415 -0.5579
  150SAPE  C21516592   2.177   4.656   8.132 -0.7011 -0.1972 -0.4274
  150SAPE  H15R16593   2.128   4.560   8.156  2.0683 -1.5673 -0.0442
  150SAPE  C21616594   2.231   4.730   8.251  0.0828 -0.3697  0.0976
  150SAPE  H16R16595   2.204   4.838   8.244  1.7622  0.1406  1.2213
  150SAPE  H16S16596   2.342   4.724   8.248  0.1874  1.5188 -0.1927
  150SAPE  C21716597   2.170   4.676   8.380  0.0301  0.2138  0.1877
  150SAPE  H17R16598   2.184   4.567   8.369  0.2081  0.5465 -3.1094
  150SAPE  H17S16599   2.063   4.709   8.378 -0.0797 -0.1727 -0.3351
  150SAPE  C21816600   2.244   4.716   8.514  0.0921 -0.5995  0.5428
  150SAPE  H18R16601   2.205   4.816   8.545  1.2478 -0.5187  1.7801
  150SAPE  H18S16602   2.350   4.728   8.486 -0.5604  1.2383 -1.2530
  150SAPE  C21916603   2.225   4.622   8.635 -0.0637  0.1491  0.3928
  150SAPE  H19R16604   2.293   4.535   8.624 -0.7887 -0.3703 -0.1230
  150SAPE  H19S16605   2.126   4.571   8.638  0.4170 -0.8577 -0.3006
  150SAPE  C22016606   2.248   4.700   8.765  0.6968 -0.0137 -0.1011
  150SAPE  H20R16607   2.356   4.724   8.773  0.0810  2.0434  2.6738
  150SAPE  H20S16608   2.213   4.629   8.843  0.1422 -0.9521 -1.1876
  150SAPE  H20T16609   2.197   4.798   8.773  3.2468  1.1450  2.8711
  150SAPE   C3316610   2.300   4.455   7.158 -0.1395  0.1254 -0.2833
  150SAPE   H3X16611   2.233   4.544   7.165 -1.5348 -1.0346  1.9570
  150SAPE   H3Y16612   2.407   4.483   7.171  0.1739  0.2026 -2.8035
  150SAPE   C3416613   2.281   4.362   7.282  0.0250 -0.7597 -0.6566
  150SAPE   H4X16614   2.362   4.287   7.286  1.1563  0.4449 -0.6310
  150SAPE   H4Y16615   2.183   4.311   7.270 -1.4374  1.0207  2.9674
  150SAPE   C3516616   2.286   4.447   7.409 -0.1999 -0.1515  0.4404
  150SAPE   H5X16617   2.179   4.474   7.419  0.0550  1.0107  0.0224
  150SAPE   H5Y16618   2.360   4.529   7.397  0.3433 -0.5527  1.0155
  150SAPE   C3616619   2.331   4.372   7.527 -0.2418  0.4803 -0.9446
  150SAPE   H6X16620   2.440   4.350   7.524 -0.2372  0.6084 -1.7611
  150SAPE   H6Y16621   2.283   4.271   7.525  1.9656 -0.6416  0.1387
  150SAPE   C3716622   2.306   4.443   7.660  0.2299 -0.0973  0.2293
  150SAPE   H7X16623   2.196   4.450   7.672  0.1524 -2.0311  0.7824
  150SAPE   H7Y16624   2.354   4.543   7.659  3.1377 -1.4616  0.0509
  150SAPE   C3816625   2.346   4.352   7.781 -0.1400 -0.5779  0.4459
  150SAPE   H8X16626   2.454   4.329   7.768 -0.4366 -1.2148 -0.9826
  150SAPE   H8Y16627   2.296   4.253   7.772  0.2467 -0.6726 -0.8099
  150SAPE   C3916628   2.333   4.400   7.924 -0.1651 -0.1637 -0.0736
  150SAPE   H9X16629   2.227   4.434   7.933 -0.5170 -1.7844  2.5038
  150SAPE   H9Y16630   2.392   4.493   7.942  1.9710 -1.5498  0.1978
  150SAPE  C31016631   2.361   4.295   8.028 -0.5478  0.2697  0.4028
  150SAPE  H10X16632   2.462   4.250   8.015 -0.4040  0.8593 -0.5799
  150SAPE  H10Y16633   2.278   4.223   8.010 -0.9712  0.9663 -0.5086
  150SAPE  C31116634   2.336   4.329   8.181 -0.6344  0.7887 -0.2755
  150SAPE  H11X16635   2.230   4.361   8.192 -0.9839 -0.3916 -0.1127
  150SAPE  H11Y16636   2.394   4.419   8.210 -1.6162  1.5473 -0.6326
  150SAPE  C31216637   2.344   4.211   8.276 -0.1775 -0.7551 -0.3389
  150SAPE  H12X16638   2.433   4.145   8.272  0.8146  0.6151 -1.0635
  150SAPE  H12Y16639   2.258   4.146   8.249 -1.0824 -0.7364  2.3005
  150SAPE  C31316640   2.340   4.269   8.418 -0.3270 -0.2965 -0.3497
  150SAPE  H13X16641   2.249   4.332   8.427  0.3785  0.9743 -1.8776
  150SAPE  H13Y16642   2.428   4.336   8.425 -0.0807 -0.4984 -1.2818
  150SAPE  C31416643   2.350   4.164   8.532 -0.5590 -0.0873  0.6769
  150SAPE  H14X16644   2.455   4.129   8.540 -0.5012 -0.7028 -2.1318
  150SAPE  H14Y16645   2.277   4.081   8.527  0.2229 -1.0032  3.7866
  150SAPE  C31516646   2.319   4.225   8.672 -0.3899 -0.9115 -0.1562
  150SAPE  H15X16647   2.212   4.256   8.666 -0.5599 -1.1728  1.1850
  150SAPE  H15Y16648   2.384   4.314   8.690 -0.2279 -1.1603  0.5178
  150SAPE  C31616649   2.327   4.130   8.791 -0.6761 -0.5118 -0.6757
  150SAPE  H16X16650   2.433   4.116   8.822 -1.2631 -2.0242  0.7147
  150SAPE  H16Y16651   2.287   4.037   8.748  3.1086 -2.0409 -1.0915
  150SAPE  C31716652   2.239   4.181   8.905  0.8519 -0.1005 -0.1265
  150SAPE  H17X16653   2.133   4.184   8.873  1.3106 -0.8469 -1.7614
  150SAPE  H17Y16654   2.257   4.289   8.927  1.5868 -0.4743  1.1438
  150SAPE  C31816655   2.262   4.089   9.028  0.2987  0.6011  0.3118
  150SAPE  H18X16656   2.227   4.140   9.121 -0.1357 -1.0890  1.0914
  150SAPE  H18Y16657   2.366   4.058   9.050  0.1466  1.1225  1.8291
  150SAPE  H18Z16658   2.198   3.999   9.015 -0.0780  1.2674 -2.7397
  151SAPE     N16659   4.106   2.428   6.201 -0.3992 -0.3109 -0.3238
  151SAPE   HN116660   4.123   2.479   6.290 -1.2654  0.9553 -0.8622
  151SAPE   HN216661   4.014   2.460   6.163 -0.9297 -0.7856  0.5333
  151SAPE   HN316662   4.107   2.325   6.215  0.7020 -0.0697  1.6101
  151SAPE   C1216663   4.227   2.466   6.106 -0.1231 -0.5616 -0.2374
  151SAPE  H12A16664   4.206   2.574   6.097  0.9397 -0.6031 -3.5932
  151SAPE  H12B16665   4.217   2.407   6.013  1.3861 -0.6454 -0.3493
  151SAPE   C1116666   4.356   2.456   6.188  0.3779  0.4431 -0.7296
  151SAPE  H11A16667   4.343   2.500   6.290 -0.6757 -1.1759 -0.1494
  151SAPE  H11B16668   4.433   2.498   6.119 -0.2618  1.1178 -1.0386
  151SAPE     P16669   4.525   2.277   6.267 -0.1743 -0.3358 -0.1624
  151SAPE   O1316670   4.534   2.130   6.252  0.2503 -0.2937  0.2675
  151SAPE   O1416671   4.636   2.354   6.212 -0.2894 -0.0536 -0.0800
  151SAPE   O1216672   4.382   2.319   6.205 -0.0689 -0.4729 -0.0420
  151SAPE   O1116673   4.518   2.317   6.419 -0.1590  0.3725  0.7826
  151SAPE    C116674   4.427   2.242   6.500 -0.3372 -0.1089 -0.4334
  151SAPE    HA16675   4.353   2.311   6.548 -1.6729 -0.9882 -1.1986
  151SAPE    HB16676   4.355   2.179   6.444 -0.9844 -0.5768  0.8984
  151SAPE    C216677   4.508   2.173   6.612 -0.8871  0.2244 -0.5697
  151SAPE    HS16678   4.568   2.093   6.563 -1.9140 -0.7815 -0.2031
  151SAPE   O2116679   4.425   2.114   6.710  0.0474  0.3281 -0.9141
  151SAPE   C2116680   4.339   2.025   6.676  0.4824 -0.5465  0.1467
  151SAPE   O2216681   4.327   1.975   6.562  0.0482 -0.0938  0.0496
  151SAPE   C2216682   4.254   1.987   6.798  0.1554 -0.2955  0.0482
  151SAPE   H2R16683   4.292   2.021   6.897 -1.0099 -1.3100  0.8595
  151SAPE   H2S16684   4.157   2.040   6.787  1.4773  1.6820 -2.6078
  151SAPE    C316685   4.608   2.269   6.682 -0.8930 -0.1063  0.8561
  151SAPE    HX16686   4.548   2.354   6.721 -2.4040 -0.8238  0.1442
  151SAPE    HY16687   4.673   2.320   6.607 -0.7488  0.0202  1.0673
  151SAPE   O3116688   4.689   2.194   6.776  0.1181  0.2716  0.0500
  151SAPE   C3116689   4.745   2.274   6.863  0.0178 -0.9245  0.1012
  151SAPE   O3216690   4.748   2.398   6.857 -1.2190 -0.0605  0.1155
  151SAPE   C3216691   4.800   2.193   6.991  0.6646 -0.2877  0.2046
  151SAPE   H2X16692   4.877   2.125   6.950  0.7765  0.6657 -1.2083
  151SAPE   H2Y16693   4.719   2.137   7.042  1.4151 -0.5437  1.1300
  151SAPE   C2316694   4.241   1.831   6.795  0.8033 -0.2967 -0.9108
  151SAPE   H3R16695   4.340   1.783   6.776  1.1667 -0.3262  0.9501
  151SAPE   H3S16696   4.184   1.793   6.708 -0.9242  2.5609 -1.0756
  151SAPE   C2416697   4.183   1.772   6.923  0.7139 -0.8232  0.3379
  151SAPE   H4R16698   4.089   1.831   6.930 -0.4553 -2.4743 -0.8768
  151SAPE   H4S16699   4.256   1.791   7.004 -0.1601  2.0139  0.5112
  151SAPE   C2516700   4.177   1.620   6.931  0.1898 -0.4494 -0.2875
  151SAPE   H5R16701   4.276   1.581   6.904  0.2461 -0.0882 -0.6127
  151SAPE   C2616702   4.065   1.552   6.961 -0.7487 -0.4175  0.1951
  151SAPE   H6R16703   4.078   1.444   6.977  0.2171 -0.4418 -0.6946
  151SAPE   C2716704   3.928   1.594   6.992  0.7820  0.1320 -0.4219
  151SAPE   H7R16705   3.869   1.551   6.908 -1.2104 -1.3728  1.6718
  151SAPE   H7S16706   3.915   1.705   6.991 -0.2975  0.0226  0.0835
  151SAPE   C2816707   3.881   1.548   7.125 -0.0019  1.0275 -0.3244
  151SAPE   H8R16708   3.815   1.460   7.115  0.9346  0.2160  0.4923
  151SAPE   C2916709   3.897   1.602   7.243 -0.0829 -0.1286 -0.2707
  151SAPE   H9R16710   3.846   1.565   7.333  2.1081  0.6150  1.3182
  151SAPE  C21016711   3.984   1.728   7.264  1.0815 -0.4311 -0.2411
  151SAPE  H10R16712   3.918   1.811   7.296  0.8638 -0.4495 -0.6308
  151SAPE  H10S16713   4.036   1.764   7.172  1.2513 -0.0344  0.0148
  151SAPE  C21116714   4.092   1.694   7.355 -0.3085  0.1303  0.0980
  151SAPE  H11R16715   4.186   1.660   7.311  0.2089  1.3078  0.2767
  151SAPE  C21216716   4.091   1.692   7.495  0.5506  0.8300 -0.0055
  151SAPE  H12R16717   4.183   1.655   7.543 -0.0988  0.6525  1.1248
  151SAPE  C21316718   3.964   1.716   7.570  0.6900 -0.3910 -0.0462
  151SAPE  H13R16719   3.871   1.708   7.509  0.5625  0.3171  0.0530
  151SAPE  H13S16720   3.956   1.816   7.616 -0.8069  0.3985 -1.9360
  151SAPE  C21416721   3.944   1.624   7.690  0.0383 -0.7758 -0.0731
  151SAPE  H14R16722   3.863   1.550   7.683  0.6896 -1.4550 -0.5639
  151SAPE  C21516723   3.996   1.638   7.819 -0.0262 -0.1346  0.2140
  151SAPE  H15R16724   3.957   1.563   7.889 -1.9578  0.2024 -0.4652
  151SAPE  C21616725   4.092   1.742   7.871  0.2972 -0.1344  0.5674
  151SAPE  H16R16726   4.090   1.819   7.791 -0.7167  0.4708  1.1682
  151SAPE  H16S16727   4.196   1.704   7.867  1.6728  3.6156 -2.2527
  151SAPE  C21716728   4.052   1.802   8.002  0.2307 -0.0929 -0.6224
  151SAPE  H17R16729   3.946   1.831   8.017 -0.1018 -2.1547  1.2577
  151SAPE  H17S16730   4.109   1.895   8.023 -1.1916  0.6799 -0.0681
  151SAPE  C21816731   4.098   1.712   8.124 -0.4950 -0.3652 -0.0752
  151SAPE  H18R16732   4.206   1.696   8.104 -0.4649  0.7198 -0.8213
  151SAPE  H18S16733   4.045   1.616   8.110 -0.0143 -0.8022  1.0504
  151SAPE  C21916734   4.058   1.770   8.260 -0.3706 -0.0455  0.4952
  151SAPE  H19R16735   3.947   1.764   8.257 -0.2648 -2.3956  0.4859
  151SAPE  H19S16736   4.088   1.877   8.263  0.5341 -0.3356  1.8022
  151SAPE  C22016737   4.112   1.701   8.388 -0.6864 -0.8530 -0.8156
  151SAPE  H20R16738   4.071   1.598   8.397 -1.7243 -0.3899 -0.1382
  151SAPE  H20S16739   4.222   1.708   8.373 -0.5403  0.3734  0.7548
  151SAPE  H20T16740   4.082   1.753   8.482 -2.6203 -0.2525 -1.7336
  151SAPE   C3316741   4.883   2.284   7.092 -0.0478  0.0486 -0.6757
  151SAPE   H3X16742   4.813   2.363   7.127 -1.5025 -0.8215 -1.5865
  151SAPE   H3Y16743   4.963   2.325   7.027 -0.5750 -0.1051 -1.4352
  151SAPE   C3416744   4.946   2.208   7.207  0.0514  0.2061  0.8751
  151SAPE   H4X16745   5.034   2.270   7.235 -0.6325  2.0047 -0.8172
  151SAPE   H4Y16746   4.981   2.111   7.166  0.2616 -0.0043  1.5519
  151SAPE   C3516747   4.849   2.191   7.321  0.3805  0.3648  0.1094
  151SAPE   H5X16748   4.753   2.147   7.286  0.0101  0.4304  1.0083
  151SAPE   H5Y16749   4.822   2.296   7.349  0.8761  0.6790 -0.5785
  151SAPE   C3616750   4.921   2.115   7.433  0.0198 -0.1410  0.1290
  151SAPE   H6X16751   5.007   2.179   7.462  0.2029 -0.1379 -0.4200
  151SAPE   H6Y16752   4.957   2.022   7.382  0.0819  0.4558 -0.9238
  151SAPE   C3716753   4.840   2.090   7.566 -0.5531  0.4543 -0.3425
  151SAPE   H7X16754   4.751   2.028   7.542 -0.2646  0.2281 -0.8296
  151SAPE   H7Y16755   4.796   2.188   7.595  0.3018  0.1035  2.2792
  151SAPE   C3816756   4.925   2.046   7.677 -0.4179  0.4258 -0.7168
  151SAPE   H8X16757   4.864   2.041   7.769 -1.5522 -1.8024 -1.5460
  151SAPE   H8Y16758   5.011   2.112   7.700 -0.0849 -0.2885  0.0939
  151SAPE   C3916759   4.966   1.903   7.648 -0.1276  0.7779  0.6625
  151SAPE   H9X16760   5.030   1.903   7.557 -1.9333 -1.5446 -0.6581
  151SAPE   H9Y16761   4.879   1.834   7.636  0.3583  0.0249  1.3843
  151SAPE  C31016762   5.047   1.852   7.760 -0.1860  0.3967  0.4900
  151SAPE  H10X16763   5.135   1.918   7.777 -0.6085  1.7621 -2.2443
  151SAPE  H10Y16764   5.079   1.751   7.727 -1.2609 -0.1827  1.1952
  151SAPE  C31116765   4.975   1.830   7.894  0.1190  0.1158 -0.2120
  151SAPE  H11X16766   4.882   1.780   7.858  0.2713  0.8466 -1.6891
  151SAPE  H11Y16767   4.946   1.925   7.943  0.3729 -0.1368  0.4342
  151SAPE  C31216768   5.059   1.734   7.974  0.3780  0.8386  0.1449
  151SAPE  H12X16769   5.148   1.791   8.006  0.1754  0.6520  1.0559
  151SAPE  H12Y16770   5.085   1.642   7.917 -0.1751  0.1123  1.0350
  151SAPE  C31316771   4.989   1.693   8.107 -0.2714 -0.1257 -0.3589
  151SAPE  H13X16772   4.902   1.627   8.084 -1.6636  1.0951  1.3072
  151SAPE  H13Y16773   4.972   1.787   8.162  1.1024 -1.1172  1.8348
  151SAPE  C31416774   5.080   1.601   8.189 -0.5418 -0.7651  0.1833
  151SAPE  H14X16775   5.182   1.643   8.202  0.4846 -3.3668  0.8496
  151SAPE  H14Y16776   5.100   1.511   8.128  0.4128 -1.2169  1.1367
  151SAPE  C31516777   5.027   1.586   8.337 -0.0474  0.3731  0.6564
  151SAPE  H15X16778   4.916   1.577   8.343 -0.1211  0.6936 -0.1355
  151SAPE  H15Y16779   5.049   1.679   8.393  1.3042  0.7714 -0.4953
  151SAPE  C31616780   5.098   1.476   8.415  0.2294 -0.7050  0.9125
  151SAPE  H16X16781   5.209   1.470   8.419  0.4405  2.4089  1.5964
  151SAPE  H16Y16782   5.054   1.383   8.373 -1.5408  0.0310  1.0806
  151SAPE  C31716783   5.054   1.482   8.560 -0.2906  0.2348  0.4137
  151SAPE  H17X16784   4.945   1.463   8.568 -0.0910 -1.9952 -1.4890
  151SAPE  H17Y16785   5.079   1.575   8.615 -1.9824  0.5954  0.6059
  151SAPE  C31816786   5.120   1.372   8.639  0.8522  0.3565  0.5024
  151SAPE  H18X16787   5.093   1.401   8.743 -2.1898 -0.0553 -0.1490
  151SAPE  H18Y16788   5.231   1.384   8.641  0.8360  0.5996 -0.1827
  151SAPE  H18Z16789   5.085   1.270   8.613  2.6133 -0.1562  0.0821
  152SAPE     N16790   1.446   5.592   6.012 -0.5997 -0.7775  0.2975
  152SAPE   HN116791   1.385   5.605   5.929 -1.9214 -0.2608  1.3427
  152SAPE   HN216792   1.545   5.613   5.990 -1.2053  2.8251  0.8203
  152SAPE   HN316793   1.459   5.493   6.043  3.5471 -0.2007  0.7545
  152SAPE   C1216794   1.408   5.663   6.143  0.2038  1.2651  0.4727
  152SAPE  H12A16795   1.317   5.610   6.176  0.0697  1.0072 -0.3206
  152SAPE  H12B16796   1.387   5.765   6.105  0.7168  0.4739 -2.0310
  152SAPE   C1116797   1.520   5.661   6.251  0.3517 -0.1759  0.1612
  152SAPE  H11A16798   1.531   5.557   6.289  4.6343  0.5063  1.0826
  152SAPE  H11B16799   1.477   5.735   6.321  3.7601  0.0413  2.1068
  152SAPE     P16800   1.763   5.738   6.311 -0.0221  0.1982 -0.0410
  152SAPE   O1316801   1.888   5.691   6.248  0.3595 -0.6867 -0.1712
  152SAPE   O1416802   1.759   5.881   6.351  0.0889  0.1828  0.0372
  152SAPE   O1216803   1.646   5.707   6.208 -0.3389  0.4987 -0.5145
  152SAPE   O1116804   1.749   5.656   6.438 -0.3738 -0.6150 -0.6418
  152SAPE    C116805   1.793   5.520   6.458  0.7495 -0.1978 -0.0753
  152SAPE    HA16806   1.781   5.462   6.364  0.1854  3.0659 -2.1196
  152SAPE    HB16807   1.902   5.515   6.479  0.5693  2.3525  1.6732
  152SAPE    C216808   1.704   5.466   6.571  0.0358 -0.6149  0.0360
  152SAPE    HS16809   1.596   5.484   6.548 -0.6798 -1.2567  2.6586
  152SAPE   O2116810   1.750   5.544   6.684 -0.3966  0.1569 -0.3399
  152SAPE   C2116811   1.666   5.557   6.789  0.0729  0.3452 -0.9262
  152SAPE   O2216812   1.544   5.532   6.790 -0.1871  0.0140  0.5409
  152SAPE   C2216813   1.748   5.608   6.904 -0.2224 -0.3450 -0.4284
  152SAPE   H2R16814   1.855   5.595   6.877  0.0473  0.0109  0.4574
  152SAPE   H2S16815   1.741   5.719   6.909  0.7743 -0.3118  0.5281
  152SAPE    C316816   1.725   5.317   6.597  0.2953  0.6429  0.3284
  152SAPE    HX16817   1.835   5.307   6.604  0.5821  2.9571 -0.5490
  152SAPE    HY16818   1.680   5.273   6.505 -2.0734 -0.7325  2.0923
  152SAPE   O3116819   1.650   5.263   6.711  0.1515  0.4841  0.3479
  152SAPE   C3116820   1.722   5.175   6.793  0.1161  0.4942  0.5459
  152SAPE   O3216821   1.834   5.135   6.761 -0.1714  0.4488  0.0943
  152SAPE   C3216822   1.655   5.156   6.927 -0.2278  0.6581  0.5989
  152SAPE   H2X16823   1.580   5.075   6.920  0.4912  0.1377 -1.4329
  152SAPE   H2Y16824   1.612   5.253   6.962 -1.6704  0.1807  0.1372
  152SAPE   C2316825   1.719   5.548   7.038  0.1140  0.0331  0.4213
  152SAPE   H3R16826   1.800   5.581   7.106 -0.5778 -1.3493  1.9709
  152SAPE   H3S16827   1.727   5.437   7.030 -0.7853  0.0685 -1.1666
  152SAPE   C2416828   1.590   5.594   7.102  0.9985 -0.0407 -0.9083
  152SAPE   H4R16829   1.597   5.558   7.207 -1.4240  0.6217 -0.4974
  152SAPE   H4S16830   1.509   5.542   7.047  0.8328  0.8327 -1.5114
  152SAPE   C2516831   1.565   5.745   7.110 -0.5793  0.6938 -0.1655
  152SAPE   H5R16832   1.577   5.797   7.013 -0.6791  1.3768  0.1878
  152SAPE   C2616833   1.552   5.819   7.221 -1.1503 -0.1363  0.2462
  152SAPE   H6R16834   1.527   5.924   7.201  2.4762  0.1984 -3.1775
  152SAPE   C2716835   1.558   5.782   7.365  0.1824 -0.6408 -0.0966
  152SAPE   H7R16836   1.485   5.699   7.384  2.2499 -2.2571  0.9890
  152SAPE   H7S16837   1.520   5.871   7.420  0.1396 -1.4026  1.1376
  152SAPE   C2816838   1.696   5.742   7.417  0.2733 -0.2614  0.1095
  152SAPE   H8R16839   1.780   5.757   7.347  0.8721 -0.1956  0.8422
  152SAPE   C2916840   1.722   5.708   7.546 -0.3237 -0.0166  0.0029
  152SAPE   H9R16841   1.824   5.675   7.570  0.5104  0.9406 -2.0779
  152SAPE  C21016842   1.620   5.686   7.657  0.3795 -0.3178 -0.1909
  152SAPE  H10R16843   1.607   5.581   7.692  1.0346 -0.0971  0.7222
  152SAPE  H10S16844   1.522   5.726   7.620 -0.5099 -0.4518  1.9494
  152SAPE  C21116845   1.649   5.785   7.771 -0.3966  0.1370  0.4896
  152SAPE  H11R16846   1.674   5.887   7.739 -1.8455 -0.2050 -1.8332
  152SAPE  C21216847   1.636   5.757   7.904  0.0546 -0.1669  0.0442
  152SAPE  H12R16848   1.664   5.839   7.973 -2.0991 -0.9140  1.8862
  152SAPE  C21316849   1.584   5.628   7.972 -0.0058 -0.2822 -0.2837
  152SAPE  H13R16850   1.600   5.543   7.901 -1.4821 -1.6005  0.9422
  152SAPE  H13S16851   1.474   5.643   7.980  0.0462 -1.1036  2.1276
  152SAPE  C21416852   1.653   5.605   8.101 -0.2827  0.6027 -0.3387
  152SAPE  H14R16853   1.740   5.538   8.095 -1.7987 -1.2540 -2.5483
  152SAPE  C21516854   1.608   5.657   8.219 -0.1451 -0.2461  0.3433
  152SAPE  H15R16855   1.668   5.631   8.308  0.8672 -0.4808 -0.4070
  152SAPE  C21616856   1.492   5.749   8.239  0.0146  0.7311  1.0942
  152SAPE  H16R16857   1.393   5.705   8.218  0.0379  0.5621  1.3304
  152SAPE  H16S16858   1.499   5.836   8.170 -1.5868 -0.9411 -1.2326
  152SAPE  C21716859   1.476   5.809   8.373  0.2303  0.3530  0.4647
  152SAPE  H17R16860   1.562   5.878   8.387 -0.4255  0.9439  1.6409
  152SAPE  H17S16861   1.477   5.733   8.454  2.6425 -0.4445 -0.2528
  152SAPE  C21816862   1.353   5.897   8.390 -0.2321  0.3901 -0.1223
  152SAPE  H18R16863   1.266   5.829   8.389 -1.5749  2.0864  0.0736
  152SAPE  H18S16864   1.339   5.967   8.305 -2.1702  0.5951  0.3510
  152SAPE  C21916865   1.357   5.980   8.518  0.2808 -0.3279  0.6673
  152SAPE  H19R16866   1.453   6.035   8.516  0.4885 -0.7061  0.1832
  152SAPE  H19S16867   1.356   5.919   8.611 -0.8418  0.5913  1.2749
  152SAPE  C22016868   1.241   6.074   8.530  0.1530 -0.0796 -0.6187
  152SAPE  H20R16869   1.256   6.149   8.610 -2.0811 -1.4436  1.1214
  152SAPE  H20S16870   1.145   6.024   8.555 -1.0061  3.1472  1.7160
  152SAPE  H20T16871   1.225   6.133   8.437  1.5602  2.3657  0.6328
  152SAPE   C3316872   1.762   5.116   7.032  0.5403  0.5299 -0.0338
  152SAPE   H3X16873   1.855   5.175   7.018  1.7574 -1.3027  0.1718
  152SAPE   H3Y16874   1.783   5.008   7.017  0.5500  0.4618  0.4770
  152SAPE   C3416875   1.716   5.136   7.175 -0.2407 -0.2009  0.5906
  152SAPE   H4X16876   1.619   5.083   7.182  0.0641 -0.5817  2.2086
  152SAPE   H4Y16877   1.695   5.242   7.200  0.2121  0.6951 -2.6894
  152SAPE   C3516878   1.824   5.081   7.271 -0.6405 -0.3130  0.3578
  152SAPE   H5X16879   1.924   5.127   7.255 -0.0825 -1.0557  1.6697
  152SAPE   H5Y16880   1.832   4.976   7.235  2.0168 -0.1427  0.3681
  152SAPE   C3616881   1.791   5.092   7.419  0.7348  0.1507 -0.6109
  152SAPE   H6X16882   1.797   5.197   7.454  2.5080  0.0062 -0.4237
  152SAPE   H6Y16883   1.859   5.031   7.483  0.1659  1.0431  0.8687
  152SAPE   C3716884   1.651   5.048   7.463  0.1289  0.6682  0.3410
  152SAPE   H7X16885   1.612   4.965   7.400 -0.5117  2.0095 -1.0673
  152SAPE   H7Y16886   1.576   5.127   7.440 -0.1010  0.2766 -0.2755
  152SAPE   C3816887   1.639   5.010   7.613 -0.1074 -0.2778 -0.0494
  152SAPE   H8X16888   1.703   4.922   7.635 -0.2612 -0.8948 -1.9889
  152SAPE   H8Y16889   1.531   4.989   7.629  0.3885 -0.9441  2.7197
  152SAPE   C3916890   1.679   5.118   7.710 -0.0911 -0.0330  0.2661
  152SAPE   H9X16891   1.633   5.214   7.677  1.3988  0.9892  1.0872
  152SAPE   H9Y16892   1.785   5.151   7.697  0.2111 -1.1276 -0.1341
  152SAPE  C31016893   1.647   5.084   7.852 -0.1347  0.3155 -0.0222
  152SAPE  H10X16894   1.537   5.077   7.866 -0.3639  1.9203 -0.9272
  152SAPE  H10Y16895   1.677   5.176   7.907  0.6818  1.1555 -1.8549
  152SAPE  C31116896   1.714   4.961   7.912 -0.3976 -0.2735  0.6138
  152SAPE  H11X16897   1.813   4.963   7.862 -0.4634  0.4965  0.5046
  152SAPE  H11Y16898   1.673   4.867   7.869  0.6817 -0.0945 -0.8437
  152SAPE  C31216899   1.702   4.950   8.066 -0.2036 -0.8964  0.4505
  152SAPE  H12X16900   1.596   4.929   8.093 -0.5488  1.8096  1.3795
  152SAPE  H12Y16901   1.737   5.041   8.121 -2.9846 -0.0049  0.8346
  152SAPE  C31316902   1.795   4.834   8.124 -0.4478  0.0559 -0.2682
  152SAPE  H13X16903   1.897   4.850   8.084  1.2168 -0.2771  3.5936
  152SAPE  H13Y16904   1.751   4.737   8.090 -0.6854 -0.8513  2.4776
  152SAPE  C31416905   1.785   4.824   8.276  0.3325 -0.1416  0.5736
  152SAPE  H14X16906   1.833   4.731   8.314  1.7591  0.9013  1.3501
  152SAPE  H14Y16907   1.676   4.809   8.291  0.2352 -1.2507 -1.0604
  152SAPE  C31516908   1.834   4.933   8.369  0.3377 -0.2050 -0.1645
  152SAPE  H15X16909   1.750   5.005   8.362  0.6712  0.3249  1.0998
  152SAPE  H15Y16910   1.916   4.999   8.334  1.1218 -1.5385 -0.9056
  152SAPE  C31616911   1.857   4.885   8.512  0.1037  0.0383 -0.0439
  152SAPE  H16X16912   1.941   4.812   8.513 -2.4289 -2.9859  1.4985
  152SAPE  H16Y16913   1.777   4.825   8.561  0.5435 -0.2388  0.3431
  152SAPE  C31716914   1.884   4.991   8.617 -0.4967  0.6224  0.7947
  152SAPE  H17X16915   1.953   5.069   8.578 -1.5480  0.8492 -0.6339
  152SAPE  H17Y16916   1.938   4.944   8.702 -0.5072 -1.4831 -0.3419
  152SAPE  C31816917   1.763   5.070   8.669 -0.2763  0.0769  0.9101
  152SAPE  H18X16918   1.787   5.141   8.751  0.4939 -0.4315  1.1247
  152SAPE  H18Y16919   1.689   4.994   8.704 -1.0483 -0.0252 -0.8830
  152SAPE  H18Z16920   1.710   5.125   8.588 -0.6886 -1.4507  0.1192
  153SAPE     N16921   4.561   5.639   6.424  0.1694 -0.0029  0.1127
  153SAPE   HN116922   4.524   5.722   6.372 -1.3963  0.1029  1.3654
  153SAPE   HN216923   4.661   5.638   6.394  0.1609 -1.7920  0.0814
  153SAPE   HN316924   4.513   5.552   6.393  2.8796 -1.0294 -1.4411
  153SAPE   C1216925   4.543   5.660   6.570  0.1695 -0.0855 -0.5406
  153SAPE  H12A16926   4.573   5.572   6.630 -0.3033  0.5924  0.7167
  153SAPE  H12B16927   4.435   5.677   6.591  0.2892  1.3541 -0.9803
  153SAPE   C1116928   4.606   5.797   6.604  0.7554 -0.2721 -0.4168
  153SAPE  H11A16929   4.716   5.790   6.614  0.6708  0.5251  1.2562
  153SAPE  H11B16930   4.569   5.835   6.702  2.1858 -1.1211  0.4775
  153SAPE     P16931   4.488   6.022   6.537  0.0757 -0.4349  0.3487
  153SAPE   O1316932   4.490   6.115   6.424 -0.1511  0.0097  0.7660
  153SAPE   O1416933   4.355   5.974   6.580 -0.5216  0.4290 -0.1735
  153SAPE   O1216934   4.576   5.893   6.509 -0.4174 -0.0261 -0.2536
  153SAPE   O1116935   4.564   6.085   6.659 -0.4235  0.2487  0.6157
  153SAPE    C116936   4.698   6.138   6.658  0.6496  0.3829 -0.6291
  153SAPE    HA16937   4.769   6.078   6.598  3.4776  3.8279 -0.9000
  153SAPE    HB16938   4.700   6.229   6.594 -0.5074  0.1159 -1.0659
  153SAPE    C216939   4.744   6.177   6.801  0.5848  0.7378  0.4821
  153SAPE    HS16940   4.813   6.264   6.794 -0.8867  2.0640  2.0535
  153SAPE   O2116941   4.814   6.068   6.857 -0.0789 -0.6422  0.2479
  153SAPE   C2116942   4.942   6.046   6.810 -0.9421 -0.6275 -0.1347
  153SAPE   O2216943   4.997   6.111   6.725 -0.2051 -0.4085 -0.2233
  153SAPE   C2216944   4.986   5.909   6.869  0.6336  0.7921 -0.3611
  153SAPE   H2R16945   5.069   5.864   6.811  0.0615  1.5056 -1.7926
  153SAPE   H2S16946   5.023   5.936   6.970 -0.7388  1.4856 -0.0238
  153SAPE    C316947   4.632   6.239   6.893 -0.6480 -0.0289  0.6410
  153SAPE    HX16948   4.560   6.159   6.916  1.0700 -1.2689  1.8329
  153SAPE    HY16949   4.576   6.325   6.850  2.2960  0.6700 -2.0413
  153SAPE   O3116950   4.691   6.283   7.018 -0.2895  0.4116 -0.3130
  153SAPE   C3116951   4.719   6.411   7.022  0.2331  0.5120  0.1034
  153SAPE   O3216952   4.683   6.499   6.944  0.0646  0.3208 -0.6088
  153SAPE   C3216953   4.806   6.433   7.142  0.3161 -0.2884  0.0984
  153SAPE   H2X16954   4.796   6.537   7.179  0.1164 -0.4843  0.6032
  153SAPE   H2Y16955   4.912   6.447   7.112  0.1669  0.6556 -0.0079
  153SAPE   C2316956   4.880   5.802   6.899  0.3547  0.3790  0.0208
  153SAPE   H3R16957   4.872   5.749   6.802  1.0085 -1.1079  0.7657
  153SAPE   H3S16958   4.780   5.843   6.923 -0.2604 -1.4529  0.7160
  153SAPE   C2416959   4.921   5.709   7.018 -0.6698 -0.7600 -0.2288
  153SAPE   H4R16960   4.823   5.671   7.053  1.1052 -2.4953  3.1032
  153SAPE   H4S16961   4.957   5.774   7.100  0.2600  0.1478 -1.3235
  153SAPE   C2516962   5.009   5.595   6.983 -0.2356 -0.2244  0.4459
  153SAPE   H5R16963   5.024   5.585   6.875 -0.2601  4.0466 -0.0533
  153SAPE   C2616964   5.079   5.511   7.068 -0.3679 -0.1470 -0.0106
  153SAPE   H6R16965   5.145   5.436   7.021  0.6624  0.4430  0.4748
  153SAPE   C2716966   5.088   5.530   7.221 -0.7072  0.1908 -0.2040
  153SAPE   H7R16967   5.112   5.633   7.255 -1.2597  0.4138 -0.4876
  153SAPE   H7S16968   5.166   5.457   7.250  0.1863 -0.0790 -3.1668
  153SAPE   C2816969   4.966   5.486   7.293  0.1175  0.1575  0.2738
  153SAPE   H8R16970   4.875   5.455   7.240  0.4375  1.2786 -0.9670
  153SAPE   C2916971   4.958   5.486   7.433 -0.4719 -0.6092 -0.5361
  153SAPE   H9R16972   4.868   5.438   7.473 -0.2654  0.5267  1.3280
  153SAPE  C21016973   5.059   5.521   7.540 -0.5765 -0.1152  0.3668
  153SAPE  H10R16974   5.024   5.596   7.614  0.4573 -0.6260  1.3727
  153SAPE  H10S16975   5.140   5.572   7.485 -0.4736  1.7807  2.2645
  153SAPE  C21116976   5.098   5.389   7.603  0.6002 -0.2578 -0.8643
  153SAPE  H11R16977   5.158   5.329   7.534  2.5313 -0.5987  1.0487
  153SAPE  C21216978   5.077   5.351   7.733  0.4131  0.1251 -0.3216
  153SAPE  H12R16979   5.114   5.251   7.760  0.1172  0.1965  0.3560
  153SAPE  C21316980   5.005   5.431   7.837 -0.2030  0.2334 -0.0143
  153SAPE  H13R16981   4.906   5.388   7.864 -0.7106  2.0846  1.1896
  153SAPE  H13S16982   4.978   5.532   7.800  0.2368  0.4680  0.2905
  153SAPE  C21416983   5.109   5.454   7.946  0.3169  0.1237  0.7199
  153SAPE  H14R16984   5.212   5.466   7.909 -0.0335  1.8671  0.2813
  153SAPE  C21516985   5.089   5.472   8.078 -0.1439  0.0399 -0.2457
  153SAPE  H15R16986   5.174   5.500   8.142  0.2293  1.1885 -1.2363
  153SAPE  C21616987   4.954   5.470   8.138  0.5284 -0.4009 -0.4980
  153SAPE  H16R16988   4.873   5.516   8.078 -1.4880 -2.6440  0.3712
  153SAPE  H16S16989   4.952   5.527   8.233  1.9886  1.0479 -1.3117
  153SAPE  C21716990   4.915   5.328   8.182 -0.3445 -0.6207 -0.2288
  153SAPE  H17R16991   4.946   5.258   8.102  0.9609  0.1673 -0.4456
  153SAPE  H17S16992   4.804   5.324   8.178 -0.2501 -1.6022 -2.3579
  153SAPE  C21816993   4.969   5.274   8.314  0.3774  0.5868  0.0257
  153SAPE  H18R16994   5.080   5.272   8.312  0.3751  0.4439  0.1241
  153SAPE  H18S16995   4.926   5.172   8.314 -0.5447  0.9613  0.6349
  153SAPE  C21916996   4.913   5.344   8.442  0.2733 -0.3470 -0.0697
  153SAPE  H19R16997   4.949   5.449   8.434  3.0728 -1.2434  0.3858
  153SAPE  H19S16998   4.956   5.300   8.534 -1.8031  0.1663  1.1603
  153SAPE  C22016999   4.767   5.336   8.464 -0.2308 -0.5012  0.5217
  153SAPE  H20R17000   4.718   5.372   8.371 -0.1341 -2.6957 -0.4253
  153SAPE  H20S17001   4.734   5.388   8.556 -1.1127 -1.6303  0.8565
  153SAPE  H20T17002   4.746   5.226   8.463 -1.3441 -0.3097  2.1341
  153SAPE   C3317003   4.773   6.340   7.257  0.0924 -0.0967  0.4319
  153SAPE   H3X17004   4.788   6.234   7.227 -2.7336 -0.6036  0.7439
  153SAPE   H3Y17005   4.670   6.356   7.294 -0.0523 -0.2844  0.1033
  153SAPE   C3417006   4.852   6.366   7.391  0.2193 -0.2550 -0.4089
  153SAPE   H4X17007   4.819   6.462   7.436  0.6866 -0.5713  0.6293
  153SAPE   H4Y17008   4.960   6.385   7.371 -0.0349  0.6116 -1.0133
  153SAPE   C3517009   4.841   6.242   7.481 -0.4603  0.6085  0.6923
  153SAPE   H5X17010   4.893   6.157   7.431  3.4588  1.9475  2.2611
  153SAPE   H5Y17011   4.733   6.216   7.483 -0.4404 -0.0321 -3.1831
  153SAPE   C3617012   4.902   6.247   7.620  0.3720 -0.8378 -0.4804
  153SAPE   H6X17013   5.010   6.271   7.612  0.2122  0.0897  0.0769
  153SAPE   H6Y17014   4.897   6.146   7.665  0.3565 -1.0065 -0.8616
  153SAPE   C3717015   4.835   6.346   7.716  0.3747 -0.3374 -0.5469
  153SAPE   H7X17016   4.724   6.336   7.713  0.3060  0.2829 -0.2580
  153SAPE   H7Y17017   4.854   6.451   7.683  0.1485  0.6382  2.2091
  153SAPE   C3817018   4.895   6.349   7.857  0.4968  0.5180  0.3321
  153SAPE   H8X17019   5.001   6.381   7.865  0.7651 -0.4574  0.8602
  153SAPE   H8Y17020   4.882   6.253   7.911 -0.5732 -0.2070 -1.1546
  153SAPE   C3917021   4.807   6.445   7.943  0.1094 -0.3371  0.0948
  153SAPE   H9X17022   4.700   6.416   7.937 -0.3994  1.7318 -1.2980
  153SAPE   H9Y17023   4.828   6.548   7.908  0.3005 -0.2444  0.4780
  153SAPE  C31017024   4.842   6.439   8.091 -0.4953 -0.2622  0.5464
  153SAPE  H10X17025   4.947   6.476   8.100 -0.5035  0.5063 -2.2144
  153SAPE  H10Y17026   4.833   6.335   8.129  2.0129 -0.3784  0.9559
  153SAPE  C31117027   4.743   6.515   8.179  0.0623  0.8991 -0.2884
  153SAPE  H11X17028   4.732   6.617   8.135  0.7708  0.3551 -1.7638
  153SAPE  H11Y17029   4.795   6.529   8.276 -1.0420 -1.0879  0.6146
  153SAPE  C31217030   4.610   6.438   8.201  0.7398 -0.4189  0.4887
  153SAPE  H12X17031   4.621   6.338   8.247 -1.0049 -1.1972 -0.7241
  153SAPE  H12Y17032   4.554   6.426   8.106 -1.8566 -0.6741  1.9819
  153SAPE  C31317033   4.514   6.516   8.286 -0.1408  0.0664 -0.3752
  153SAPE  H13X17034   4.521   6.620   8.247  1.4338  0.2856  0.4481
  153SAPE  H13Y17035   4.555   6.516   8.389  0.8102 -1.2837 -0.7466
  153SAPE  C31417036   4.380   6.453   8.284 -0.4850 -0.1017 -0.5466
  153SAPE  H14X17037   4.353   6.417   8.182 -0.3445 -2.0748  0.0930
  153SAPE  H14Y17038   4.302   6.527   8.312  0.8496  0.7392  1.1035
  153SAPE  C31517039   4.364   6.344   8.396  0.0209 -0.1474  0.9412
  153SAPE  H15X17040   4.354   6.400   8.491  1.4488 -0.1967  1.1357
  153SAPE  H15Y17041   4.452   6.276   8.397 -0.3348 -0.6487 -0.5992
  153SAPE  C31617042   4.234   6.266   8.376 -0.3517 -0.7539  0.6456
  153SAPE  H16X17043   4.232   6.219   8.275  2.5014  0.1479  0.1073
  153SAPE  H16Y17044   4.157   6.345   8.367 -0.9740 -1.4731 -0.4105
  153SAPE  C31717045   4.206   6.167   8.489 -0.1683 -0.0585  0.2147
  153SAPE  H17X17046   4.102   6.129   8.484 -0.4687  0.8253 -0.3973
  153SAPE  H17Y17047   4.212   6.224   8.584  1.3916 -2.5380  1.6759
  153SAPE  C31817048   4.300   6.054   8.493 -0.4152  0.2264 -0.0064
  153SAPE  H18X17049   4.277   5.985   8.409  0.8989  0.7889 -0.8393
  153SAPE  H18Y17050   4.298   5.983   8.578 -1.5054 -1.4846 -1.4236
  153SAPE  H18Z17051   4.404   6.085   8.470  0.6039 -2.1387  1.2735
  154SAPE     N17052   3.566   4.873   6.240 -0.5033 -0.1520  0.0845
  154SAPE   HN117053   3.544   4.916   6.148 -0.5179 -0.1532  0.0880
  154SAPE   HN217054   3.646   4.807   6.229 -0.5031  0.1008 -1.6837
  154SAPE   HN317055   3.480   4.826   6.276 -0.9262 -0.7093 -1.5963
  154SAPE   C1217056   3.588   4.983   6.331  0.1583  0.2641  0.7636
  154SAPE  H12A17057   3.692   4.988   6.370  0.9828  0.6495 -1.4216
  154SAPE  H12B17058   3.521   4.972   6.419 -1.9319 -1.1968 -0.9403
  154SAPE   C1117059   3.539   5.113   6.271  0.2872 -0.2287 -0.0920
  154SAPE  H11A17060   3.607   5.147   6.189 -1.1707 -0.2198 -1.3172
  154SAPE  H11B17061   3.559   5.197   6.342 -0.1251  1.6198 -2.1036
  154SAPE     P17062   3.316   5.225   6.186  0.0395 -0.6276 -0.0964
  154SAPE   O1317063   3.401   5.343   6.193  0.3647 -0.3230  0.2751
  154SAPE   O1417064   3.269   5.186   6.052 -0.0836 -0.3376  0.0174
  154SAPE   O1217065   3.405   5.100   6.230 -0.0661 -0.0202 -0.1302
  154SAPE   O1117066   3.205   5.222   6.294 -0.2191 -0.1767 -0.9234
  154SAPE    C117067   3.095   5.131   6.287  0.6083  0.5931  0.5065
  154SAPE    HA17068   3.014   5.186   6.235  0.6325 -0.3671 -0.5761
  154SAPE    HB17069   3.128   5.046   6.222  0.0062  0.2312  0.6664
  154SAPE    C217070   3.053   5.069   6.423  0.2250 -1.0615 -0.4616
  154SAPE    HS17071   2.988   4.983   6.396  0.1824 -0.5966 -1.8919
  154SAPE   O2117072   2.978   5.161   6.500  0.0472 -0.2212 -0.1407
  154SAPE   C2117073   2.876   5.123   6.577 -0.3321 -0.4418  0.1146
  154SAPE   O2217074   2.841   5.006   6.586 -0.1124 -0.3456  0.1557
  154SAPE   C2217075   2.827   5.233   6.665 -0.1824  0.1663 -0.8371
  154SAPE   H2R17076   2.844   5.328   6.610  2.4205  0.6502  0.7498
  154SAPE   H2S17077   2.717   5.221   6.671 -0.2910  0.7778 -1.5553
  154SAPE    C317078   3.179   5.022   6.496  0.0074 -0.0671  0.4343
  154SAPE    HX17079   3.245   5.110   6.509  1.1039 -0.5721 -1.4423
  154SAPE    HY17080   3.243   4.962   6.428 -2.5509  0.2951 -2.3792
  154SAPE   O3117081   3.143   4.961   6.621  0.4292  0.2148 -0.0474
  154SAPE   C3117082   3.104   4.833   6.619 -0.3652 -0.6331  0.0652
  154SAPE   O3217083   3.125   4.752   6.530 -0.1470  0.2137 -0.2947
  154SAPE   C3217084   3.040   4.802   6.757  0.2608 -0.3065 -0.3070
  154SAPE   H2X17085   3.020   4.901   6.805 -0.5701  0.9347 -3.0958
  154SAPE   H2Y17086   3.118   4.747   6.814  1.4167 -0.0259 -1.5711
  154SAPE   C2317087   2.903   5.250   6.796 -0.8293  0.1672 -0.3561
  154SAPE   H3R17088   2.938   5.157   6.846 -1.4801  0.7365  1.1726
  154SAPE   H3S17089   2.839   5.301   6.871  0.9678 -0.5461  1.7143
  154SAPE   C2417090   3.033   5.347   6.789 -0.2534  0.7892 -0.1277
  154SAPE   H4R17091   3.114   5.309   6.723  0.4669  2.1054 -0.0217
  154SAPE   H4S17092   3.082   5.341   6.888  1.4341 -1.1242 -1.0437
  154SAPE   C2517093   2.998   5.489   6.766  0.0778  0.1062 -0.6558
  154SAPE   H5R17094   2.950   5.510   6.669  0.8775  0.8345 -0.8991
  154SAPE   C2617095   3.013   5.592   6.849 -0.0304  1.0139 -0.4756
  154SAPE   H6R17096   2.998   5.694   6.810 -2.1859  0.6438 -0.6596
  154SAPE   C2717097   3.068   5.596   6.988  0.0452 -0.1110  0.2993
  154SAPE   H7R17098   3.068   5.702   7.022  2.3554 -0.4672  1.5220
  154SAPE   H7S17099   3.176   5.569   6.980  0.2992  0.4919  1.5792
  154SAPE   C2817100   3.003   5.511   7.094 -0.3569  0.1743 -0.1057
  154SAPE   H8R17101   2.943   5.425   7.060 -1.1839  0.6673  0.0953
  154SAPE   C2917102   3.016   5.532   7.228  0.2150  0.1680  0.8273
  154SAPE   H9R17103   2.959   5.470   7.299 -0.2076 -0.8797 -0.4098
  154SAPE  C21017104   3.090   5.651   7.281  0.2198 -0.1106 -0.7732
  154SAPE  H10R17105   3.028   5.744   7.276  2.2994  1.3292 -0.4260
  154SAPE  H10S17106   3.177   5.683   7.219 -0.0850 -0.6424 -1.4814
  154SAPE  C21117107   3.139   5.626   7.421 -0.2127  0.1447  0.2034
  154SAPE  H11R17108   3.058   5.589   7.486 -1.7596  2.2502 -0.4742
  154SAPE  C21217109   3.267   5.615   7.466 -0.4522 -0.1736  0.0086
  154SAPE  H12R17110   3.292   5.604   7.572  0.2358 -0.9056 -0.2254
  154SAPE  C21317111   3.392   5.639   7.385 -0.4329 -0.1847 -0.7081
  154SAPE  H13R17112   3.373   5.661   7.278 -0.8847 -1.8213 -0.9813
  154SAPE  H13S17113   3.451   5.545   7.389  1.5132  1.0103 -0.9556
  154SAPE  C21417114   3.453   5.761   7.454  0.3346  0.1173  0.2642
  154SAPE  H14R17115   3.433   5.864   7.419 -0.6149  0.6393  2.3037
  154SAPE  C21517116   3.531   5.761   7.565 -0.2507 -0.2440  0.0864
  154SAPE  H15R17117   3.578   5.856   7.596 -3.9332  1.7381 -0.1792
  154SAPE  C21617118   3.570   5.647   7.652 -0.0063  0.5476  0.4713
  154SAPE  H16R17119   3.518   5.554   7.622  0.9930  0.2702 -0.4641
  154SAPE  H16S17120   3.564   5.666   7.761  0.4396 -1.0970  0.7980
  154SAPE  C21717121   3.720   5.614   7.630 -0.1501  0.4382  0.2402
  154SAPE  H17R17122   3.780   5.703   7.661 -1.0022  0.1391  2.8606
  154SAPE  H17S17123   3.733   5.578   7.526  1.2950  0.0837  0.5259
  154SAPE  C21817124   3.777   5.489   7.708  1.1498  0.2437  0.4070
  154SAPE  H18R17125   3.882   5.485   7.673  1.7776 -1.8420  2.3835
  154SAPE  H18S17126   3.709   5.406   7.678  2.3062 -0.3572 -0.6037
  154SAPE  C21917127   3.788   5.509   7.861 -0.6521 -0.1326  0.1655
  154SAPE  H19R17128   3.686   5.524   7.904 -1.3409  0.5019 -1.6121
  154SAPE  H19S17129   3.844   5.603   7.881  1.0986 -1.0389 -0.4815
  154SAPE  C22017130   3.862   5.391   7.923 -0.0643  0.4906 -0.2352
  154SAPE  H20R17131   3.787   5.314   7.948 -0.7433  1.2058 -0.0633
  154SAPE  H20S17132   3.922   5.415   8.014  0.3419  0.4598 -0.4930
  154SAPE  H20T17133   3.941   5.361   7.851 -0.9055 -0.0563 -0.9246
  154SAPE   C3317134   2.910   4.732   6.741 -0.4776 -0.1866  0.9362
  154SAPE   H3X17135   2.937   4.631   6.703 -1.5468  0.0031 -0.3679
  154SAPE   H3Y17136   2.837   4.788   6.679 -1.4617  0.4195  2.6146
  154SAPE   C3417137   2.843   4.725   6.880  0.2750 -0.7080  0.1645
  154SAPE   H4X17138   2.827   4.824   6.926 -2.4368 -0.3931 -1.3914
  154SAPE   H4Y17139   2.921   4.677   6.943 -1.5353  0.4949  3.4328
  154SAPE   C3517140   2.717   4.637   6.881 -0.4377  0.1789  0.0325
  154SAPE   H5X17141   2.739   4.537   6.838  0.5932  0.4970 -0.2016
  154SAPE   H5Y17142   2.649   4.682   6.807  1.7420  3.5586 -0.0146
  154SAPE   C3617143   2.645   4.644   7.024  0.2623  0.8457  1.0030
  154SAPE   H6X17144   2.562   4.572   7.010  0.5513  0.3311  1.9299
  154SAPE   H6Y17145   2.608   4.748   7.041 -0.2595  1.4826 -3.4011
  154SAPE   C3717146   2.728   4.604   7.147  0.0500  0.4473 -0.0219
  154SAPE   H7X17147   2.827   4.656   7.148  0.5510 -0.5027  1.2357
  154SAPE   H7Y17148   2.741   4.494   7.151  0.2637  0.5452  5.0092
  154SAPE   C3817149   2.655   4.644   7.276 -0.5548 -0.6369  0.2326
  154SAPE   H8X17150   2.547   4.623   7.260 -0.5113 -0.6994  0.0153
  154SAPE   H8Y17151   2.672   4.754   7.274 -2.1224 -0.3797  0.3274
  154SAPE   C3917152   2.724   4.577   7.391 -0.3009  0.0346 -0.4375
  154SAPE   H9X17153   2.831   4.558   7.369 -0.3137 -0.4270 -0.1060
  154SAPE   H9Y17154   2.685   4.473   7.395  1.0458 -0.5094 -1.2813
  154SAPE  C31017155   2.713   4.648   7.520  0.4836 -0.7343  0.0189
  154SAPE  H10X17156   2.613   4.691   7.543 -1.0596 -2.5092 -3.0741
  154SAPE  H10Y17157   2.794   4.725   7.520 -0.6425  0.4977  2.9312
  154SAPE  C31117158   2.757   4.558   7.641 -0.0951 -0.4367  0.2431
  154SAPE  H11X17159   2.859   4.521   7.619  1.2895  1.7549  2.7470
  154SAPE  H11Y17160   2.693   4.467   7.640  1.0882 -1.2780 -0.8302
  154SAPE  C31217161   2.759   4.646   7.764 -0.1139  0.1525  0.5066
  154SAPE  H12X17162   2.657   4.684   7.789 -0.6131  0.2729 -1.6116
  154SAPE  H12Y17163   2.821   4.732   7.728  1.4347 -1.3952 -0.5891
  154SAPE  C31317164   2.832   4.584   7.878 -0.1782 -0.1191 -0.1444
  154SAPE  H13X17165   2.842   4.659   7.959  0.7901  0.4512 -0.7842
  154SAPE  H13Y17166   2.938   4.573   7.848  0.2810 -2.5102  2.1810
  154SAPE  C31417167   2.768   4.455   7.918  0.6777  0.0705 -0.0479
  154SAPE  H14X17168   2.758   4.383   7.834 -1.1819 -0.3598  0.5283
  154SAPE  H14Y17169   2.670   4.488   7.959 -0.2941 -1.6324 -0.9142
  154SAPE  C31517170   2.847   4.379   8.023 -0.0485 -0.3242  0.4831
  154SAPE  H15X17171   2.857   4.435   8.118 -0.2645  0.1124  0.2515
  154SAPE  H15Y17172   2.949   4.357   7.986 -0.4545 -2.7545  0.7708
  154SAPE  C31617173   2.770   4.243   8.053 -0.2823  0.3241 -0.1149
  154SAPE  H16X17174   2.758   4.196   7.953 -2.6188  0.6526  0.0011
  154SAPE  H16Y17175   2.670   4.257   8.098 -0.6121  0.3416 -0.8573
  154SAPE  C31717176   2.852   4.150   8.138  0.3642  0.0230 -0.0422
  154SAPE  H17X17177   2.954   4.148   8.095 -0.9195 -0.8808 -3.1899
  154SAPE  H17Y17178   2.814   4.047   8.121 -0.8318  0.5008 -0.3775
  154SAPE  C31817179   2.854   4.178   8.289 -0.0916  0.9900 -0.2558
  154SAPE  H18X17180   2.867   4.081   8.340  0.4418  1.2647  0.1389
  154SAPE  H18Y17181   2.764   4.226   8.335 -0.0426  2.2237 -1.3991
  154SAPE  H18Z17182   2.936   4.249   8.315  1.0337  0.1548 -1.5074
  155SAPE     N17183   3.340   6.513   6.748 -0.4421 -0.5539 -0.5288
  155SAPE   HN117184   3.401   6.562   6.816  1.7003 -2.0463 -1.3011
  155SAPE   HN217185   3.288   6.590   6.702  0.3583  0.1705 -0.2360
  155SAPE   HN317186   3.268   6.449   6.785 -0.4555  0.3195  0.9871
  155SAPE   C1217187   3.415   6.434   6.639  0.0461  0.2487  0.2656
  155SAPE  H12A17188   3.465   6.354   6.698  0.2719  1.5349  1.8608
  155SAPE  H12B17189   3.498   6.497   6.599 -0.0419 -0.4543 -1.0570
  155SAPE   C1117190   3.322   6.391   6.525 -0.7384  0.6268 -0.3814
  155SAPE  H11A17191   3.255   6.312   6.563  2.2903 -1.7105  0.2776
  155SAPE  H11B17192   3.383   6.345   6.444 -0.2237 -0.0946  0.4068
  155SAPE     P17193   3.100   6.522   6.485 -0.1245 -0.4086  0.0765
  155SAPE   O1317194   3.066   6.658   6.454 -0.4719 -0.3161  0.8939
  155SAPE   O1417195   3.025   6.418   6.412  0.2352 -0.4046  0.2103
  155SAPE   O1217196   3.254   6.506   6.471  0.0132 -0.4548  0.2308
  155SAPE   O1117197   3.081   6.503   6.640  0.1204  0.0438 -0.0388
  155SAPE    C117198   2.962   6.541   6.707 -0.9852 -0.6329 -0.2024
  155SAPE    HA17199   2.957   6.651   6.722 -1.0293 -0.8151  1.2043
  155SAPE    HB17200   2.872   6.500   6.656 -1.1507 -0.1124 -0.3334
  155SAPE    C217201   2.945   6.464   6.841  0.4941  0.3041 -0.9922
  155SAPE    HS17202   3.030   6.485   6.909  0.0970  0.5568 -0.5688
  155SAPE   O2117203   2.929   6.318   6.822  1.0909 -0.0415 -0.3249
  155SAPE   C2117204   3.046   6.258   6.825 -0.3915 -0.4119  0.4462
  155SAPE   O2217205   3.156   6.310   6.832  0.0742 -0.8603 -0.2744
  155SAPE   C2217206   3.035   6.098   6.813 -0.0919 -0.5377 -0.6779
  155SAPE   H2R17207   2.931   6.069   6.787 -1.3648  0.1406  3.2206
  155SAPE   H2S17208   3.103   6.073   6.729 -0.1629 -1.6617 -0.4112
  155SAPE    C317209   2.816   6.514   6.923 -0.7219  0.1096  0.6881
  155SAPE    HX17210   2.732   6.483   6.857  1.8926 -1.7943 -1.8671
  155SAPE    HY17211   2.828   6.625   6.930 -1.2640  0.2427 -0.3327
  155SAPE   O3117212   2.811   6.455   7.053 -0.4633 -0.1204 -0.3544
  155SAPE   C3117213   2.699   6.392   7.091  0.1598 -0.1341 -0.0200
  155SAPE   O3217214   2.594   6.392   7.027  0.0527 -0.7632 -0.2397
  155SAPE   C3217215   2.705   6.340   7.234  0.2041  0.0981 -1.5904
  155SAPE   H2X17216   2.802   6.285   7.236  0.0434 -0.1541 -0.5958
  155SAPE   H2Y17217   2.609   6.285   7.242  0.1319  0.5493  0.9971
  155SAPE   C2317218   3.080   6.025   6.933  0.0114 -0.0087 -0.0079
  155SAPE   H3R17219   3.185   6.056   6.952  0.1042 -1.1352  1.5151
  155SAPE   H3S17220   3.085   5.915   6.915 -1.2768 -0.4253  1.9505
  155SAPE   C2417221   2.992   6.035   7.058  0.0976 -0.9878  0.2533
  155SAPE   H4R17222   3.006   5.939   7.113  1.5589 -0.7107  0.3780
  155SAPE   H4S17223   2.887   6.041   7.023  0.0226 -2.3443  0.2082
  155SAPE   C2517224   3.024   6.148   7.152  0.0818 -0.5945  0.3584
  155SAPE   H5R17225   3.053   6.242   7.101  0.9769 -1.2675 -0.3788
  155SAPE   C2617226   3.042   6.149   7.282  0.2409  0.1428 -0.1533
  155SAPE   H6R17227   3.063   6.248   7.326 -0.5905  0.4638 -0.4513
  155SAPE   C2717228   3.016   6.034   7.378 -0.2687 -0.4552 -0.2442
  155SAPE   H7R17229   3.111   5.977   7.380 -0.2711 -0.4261  1.5217
  155SAPE   H7S17230   2.939   5.967   7.335 -0.2248 -0.4795 -0.2836
  155SAPE   C2817231   2.973   6.077   7.519  1.1043 -0.1195  0.5230
  155SAPE   H8R17232   2.892   6.152   7.520  1.7594  0.5859  2.0795
  155SAPE   C2917233   3.027   6.033   7.641 -0.0106 -0.0929 -0.2227
  155SAPE   H9R17234   2.994   6.080   7.735 -0.1477 -2.0782  0.7594
  155SAPE  C21017235   3.145   5.934   7.653  0.4870  1.2527  0.5595
  155SAPE  H10R17236   3.207   5.920   7.562  1.6307  4.9094  0.7084
  155SAPE  H10S17237   3.096   5.835   7.661  1.3424  0.7586 -0.2435
  155SAPE  C21117238   3.237   5.957   7.771 -0.4407  0.2505 -0.2853
  155SAPE  H11R17239   3.316   6.031   7.753 -1.0504  1.1226  0.5425
  155SAPE  C21217240   3.232   5.901   7.888 -0.5875  0.3860 -0.5842
  155SAPE  H12R17241   3.300   5.956   7.955  0.5541 -0.9394 -0.6449
  155SAPE  C21317242   3.127   5.808   7.940  0.8500  0.7700 -0.2364
  155SAPE  H13R17243   3.035   5.809   7.878 -0.1718 -1.8428  1.1707
  155SAPE  H13S17244   3.105   5.842   8.044 -0.0213 -0.3366 -0.0580
  155SAPE  C21417245   3.193   5.674   7.934 -0.4406 -0.2183  0.1578
  155SAPE  H14R17246   3.282   5.667   7.870  0.2132 -0.0826  1.0350
  155SAPE  C21517247   3.152   5.567   8.011  0.1161 -0.8723  0.3828
  155SAPE  H15R17248   3.210   5.474   8.009  0.9132 -0.5049  3.9127
  155SAPE  C21617249   3.026   5.564   8.090 -0.2316  0.3954  0.2923
  155SAPE  H16R17250   2.959   5.493   8.037  0.1669  0.0454  0.2548
  155SAPE  H16S17251   2.989   5.669   8.095  0.1400  0.5165  0.5193
  155SAPE  C21717252   3.049   5.495   8.226 -0.3855 -0.2482 -0.1900
  155SAPE  H17R17253   3.130   5.547   8.281  0.0123  2.3728 -3.1231
  155SAPE  H17S17254   3.074   5.389   8.205  0.4093 -0.1693  0.3396
  155SAPE  C21817255   2.925   5.522   8.307  0.2781 -1.1051  0.5631
  155SAPE  H18R17256   2.839   5.499   8.241  2.0744 -3.5368 -1.0478
  155SAPE  H18S17257   2.933   5.631   8.326 -1.5605 -0.6388 -1.1395
  155SAPE  C21917258   2.929   5.454   8.450 -0.0086  0.2951  0.1866
  155SAPE  H19R17259   3.028   5.486   8.490 -0.1403 -0.0797  0.8296
  155SAPE  H19S17260   2.942   5.346   8.425 -1.6055  0.2787 -0.6273
  155SAPE  C22017261   2.817   5.484   8.540  0.2584  0.5590  0.5669
  155SAPE  H20R17262   2.725   5.433   8.504  1.2777 -0.2291 -0.9873
  155SAPE  H20S17263   2.800   5.593   8.551  2.6708  1.1901 -1.4020
  155SAPE  H20T17264   2.850   5.451   8.641  1.8030  0.9914  0.2215
  155SAPE   C3317265   2.716   6.458   7.337 -0.6308  0.5170 -0.2330
  155SAPE   H3X17266   2.633   6.529   7.320 -0.3544  1.0150  0.4866
  155SAPE   H3Y17267   2.817   6.504   7.325  0.6435 -1.4758  2.4633
  155SAPE   C3417268   2.706   6.411   7.484 -0.7899 -0.5571 -0.9257
  155SAPE   H4X17269   2.794   6.360   7.528 -0.0227  2.1981  0.8486
  155SAPE   H4Y17270   2.624   6.336   7.485  0.1988 -1.6984  2.7782
  155SAPE   C3517271   2.676   6.531   7.574 -0.0047  0.3059 -0.6718
  155SAPE   H5X17272   2.583   6.580   7.537 -1.9858 -3.4619 -0.9356
  155SAPE   H5Y17273   2.758   6.604   7.561 -0.1172  0.7397  0.9336
  155SAPE   C3617274   2.666   6.507   7.727  0.0138 -0.0967 -0.0836
  155SAPE   H6X17275   2.767   6.472   7.757 -0.1339 -0.8844 -0.5007
  155SAPE   H6Y17276   2.587   6.432   7.747 -0.5728  0.5812  0.1869
  155SAPE   C3717277   2.631   6.638   7.795  0.3324  0.7223 -0.1491
  155SAPE   H7X17278   2.543   6.682   7.744 -1.6033  0.1194  2.5916
  155SAPE   H7Y17279   2.711   6.714   7.783 -1.2117  2.6138  1.1872
  155SAPE   C3817280   2.609   6.620   7.938  0.3396 -0.1315 -0.0561
  155SAPE   H8X17281   2.697   6.572   7.985  0.4137  1.2932  1.2968
  155SAPE   H8Y17282   2.523   6.550   7.951  0.7750 -0.7824 -0.7169
  155SAPE   C3917283   2.585   6.744   8.018  0.0290  0.1559  0.9532
  155SAPE   H9X17284   2.488   6.797   8.007 -1.4371 -2.6173  0.0686
  155SAPE   H9Y17285   2.669   6.813   7.993 -0.6698  1.0524  1.0441
  155SAPE  C31017286   2.581   6.706   8.172  0.7985 -0.1099  0.5037
  155SAPE  H10X17287   2.676   6.653   8.196  0.9287 -0.1424 -0.0756
  155SAPE  H10Y17288   2.502   6.632   8.196  1.7513 -1.5750 -0.7909
  155SAPE  C31117289   2.570   6.823   8.268 -0.0112  0.1679 -0.2019
  155SAPE  H11X17290   2.497   6.900   8.234 -0.6413 -0.8025 -1.0572
  155SAPE  H11Y17291   2.666   6.879   8.270 -0.7001  1.3508  0.3164
  155SAPE  C31217292   2.533   6.786   8.414 -0.1752 -0.3079 -0.5857
  155SAPE  H12X17293   2.425   6.767   8.397 -0.1009 -0.4261 -0.9149
  155SAPE  H12Y17294   2.549   6.873   8.483  1.8266 -0.8548 -0.3242
  155SAPE  C31317295   2.602   6.662   8.475  0.4720 -0.3430  0.7438
  155SAPE  H13X17296   2.576   6.583   8.402  2.4330 -0.9091  0.6400
  155SAPE  H13Y17297   2.554   6.634   8.572 -2.0292  1.0031 -0.0690
  155SAPE  C31417298   2.754   6.673   8.486  0.0370 -0.0314 -0.0814
  155SAPE  H14X17299   2.802   6.726   8.571 -0.0012 -0.7893  0.4163
  155SAPE  H14Y17300   2.792   6.737   8.404  0.7487 -0.7807 -0.3425
  155SAPE  C31517301   2.841   6.535   8.471  0.4336  0.8029  0.1953
  155SAPE  H15X17302   2.949   6.548   8.447  0.2397 -0.2943 -1.3775
  155SAPE  H15Y17303   2.786   6.476   8.394  3.9299 -1.2152 -0.8535
  155SAPE  C31617304   2.836   6.451   8.601 -0.4411 -0.2556 -0.7143
  155SAPE  H16X17305   2.731   6.418   8.617 -0.6095  0.8101  0.4438
  155SAPE  H16Y17306   2.864   6.508   8.692 -3.6297 -0.6791  0.5958
  155SAPE  C31717307   2.938   6.335   8.598  0.5582  0.8292  0.2008
  155SAPE  H17X17308   3.034   6.390   8.591  1.0769 -0.0877 -0.0655
  155SAPE  H17Y17309   2.919   6.274   8.507 -0.5034  1.0970  0.2328
  155SAPE  C31817310   2.921   6.233   8.713  0.0693 -0.3332  0.2238
  155SAPE  H18X17311   2.813   6.208   8.709 -0.0979  0.5100 -0.8985
  155SAPE  H18Y17312   2.946   6.273   8.813  1.9709 -2.2232  0.5349
  155SAPE  H18Z17313   2.969   6.133   8.700 -0.8146 -0.6417 -0.7790
  156SAPE     N17314   1.006   6.499   6.483 -0.6579 -0.2439  0.7085
  156SAPE   HN117315   0.939   6.464   6.555 -0.3926  0.7194  1.4425
  156SAPE   HN217316   1.076   6.422   6.475 -1.0281 -0.4187 -1.0526
  156SAPE   HN317317   1.042   6.582   6.535  2.1747 -0.0369 -1.4492
  156SAPE   C1217318   0.940   6.539   6.355 -0.6737 -0.2038  0.8502
  156SAPE  H12A17319   0.954   6.448   6.293 -2.2255 -0.6814  1.1695
  156SAPE  H12B17320   1.005   6.620   6.317 -0.2569 -1.4472 -1.1618
  156SAPE   C1117321   0.802   6.595   6.374 -0.1898 -0.6365 -0.5896
  156SAPE  H11A17322   0.774   6.642   6.277 -0.3353 -0.3396 -0.4069
  156SAPE  H11B17323   0.799   6.675   6.451  0.2336 -0.8199 -0.3820
  156SAPE     P17324   0.564   6.497   6.446  0.1422 -0.4101  0.2926
  156SAPE   O1317325   0.503   6.527   6.316 -0.1747 -0.0598 -0.2277
  156SAPE   O1417326   0.528   6.361   6.506 -0.6700 -0.0750 -0.2099
  156SAPE   O1217327   0.720   6.487   6.426 -0.4874 -0.3346  0.0526
  156SAPE   O1117328   0.530   6.608   6.551 -0.4800  0.3039  0.3676
  156SAPE    C117329   0.620   6.663   6.652 -0.5250 -0.1901  0.2984
  156SAPE    HA17330   0.726   6.646   6.623 -0.8826 -0.7203 -0.7156
  156SAPE    HB17331   0.597   6.771   6.662  0.2566  0.2305 -2.1731
  156SAPE    C217332   0.580   6.609   6.794  0.2856  0.4218  0.3759
  156SAPE    HS17333   0.587   6.499   6.783  1.6813  0.4283  1.0968
  156SAPE   O2117334   0.453   6.665   6.828  0.0105  0.3168 -0.4621
  156SAPE   C2117335   0.374   6.575   6.889 -1.2976 -1.3343 -0.5075
  156SAPE   O2217336   0.393   6.455   6.900 -0.6071  0.8559  0.5349
  156SAPE   C2217337   0.237   6.646   6.900 -0.2638  0.4185  0.4661
  156SAPE   H2R17338   0.248   6.750   6.862  2.0455  0.7715  2.0526
  156SAPE   H2S17339   0.158   6.590   6.845 -0.3496  0.5213  0.4838
  156SAPE    C317340   0.687   6.653   6.901 -0.3415 -0.0400  0.4388
  156SAPE    HX17341   0.668   6.753   6.947  1.2414 -0.5046  2.1943
  156SAPE    HY17342   0.790   6.660   6.860 -1.3505  0.3137 -2.1310
  156SAPE   O3117343   0.676   6.562   7.012  0.5025  0.0280 -0.5883
  156SAPE   C3117344   0.757   6.451   7.011  0.3174 -0.2943 -0.9065
  156SAPE   O3217345   0.831   6.421   6.921  0.2703 -0.3588  0.3069
  156SAPE   C3217346   0.736   6.375   7.143 -1.2206  0.0167  0.6544
  156SAPE   H2X17347   0.791   6.278   7.144  0.8180  1.0728 -2.3012
  156SAPE   H2Y17348   0.629   6.342   7.144 -1.1110 -0.3496  2.4819
  156SAPE   C2317349   0.188   6.647   7.050 -0.0256  0.0541  0.0018
  156SAPE   H3R17350   0.209   6.548   7.096  0.7826  0.0921 -0.2699
  156SAPE   H3S17351   0.079   6.665   7.037 -0.0320  0.3076  0.4227
  156SAPE   C2417352   0.243   6.770   7.134 -0.0174 -0.2738  0.0787
  156SAPE   H4R17353   0.194   6.773   7.233  1.2916  2.5930  0.6882
  156SAPE   H4S17354   0.218   6.869   7.090 -0.9710  0.0383  1.3080
  156SAPE   C2517355   0.399   6.770   7.149  0.0030 -0.2134 -0.1770
  156SAPE   H5R17356   0.461   6.792   7.060  2.3898  0.1170  1.5239
  156SAPE   C2617357   0.467   6.732   7.264 -0.3406  0.1108 -0.2707
  156SAPE   H6R17358   0.576   6.718   7.271 -0.3404  0.1201 -0.2547
  156SAPE   C2717359   0.387   6.686   7.394  0.0283 -0.4369 -0.7850
  156SAPE   H7R17360   0.335   6.590   7.371  2.6171 -1.9130 -0.6076
  156SAPE   H7S17361   0.309   6.761   7.419  0.3377 -0.6744  0.9283
  156SAPE   C2817362   0.460   6.679   7.518  0.1483  0.5556  0.0712
  156SAPE   H8R17363   0.528   6.764   7.534  0.2450  0.6736 -0.9227
  156SAPE   C2917364   0.455   6.582   7.613  0.2494 -0.0782 -0.0652
  156SAPE   H9R17365   0.530   6.586   7.693 -0.0910 -0.6611  0.2926
  156SAPE  C21017366   0.360   6.465   7.621 -0.1504  0.7274  0.1261
  156SAPE  H10R17367   0.412   6.369   7.602  1.1797  1.4000  0.3223
  156SAPE  H10S17368   0.285   6.481   7.541  1.2368  0.8559 -1.1570
  156SAPE  C21117369   0.291   6.460   7.756 -0.7804  0.0151 -0.4058
  156SAPE  H11R17370   0.353   6.449   7.846  0.2001 -1.2231 -1.2184
  156SAPE  C21217371   0.159   6.466   7.779 -0.2059  0.5243  1.2739
  156SAPE  H12R17372   0.128   6.466   7.884 -2.5822  0.6491  0.5854
  156SAPE  C21317373   0.043   6.479   7.673 -0.0021  0.6631  0.0679
  156SAPE  H13R17374  -0.055   6.441   7.710 -0.1781  2.0639  1.0802
  156SAPE  H13S17375   0.071   6.414   7.587 -0.7424 -0.4468  0.6447
  156SAPE  C21417376   0.007   6.615   7.612 -0.0954  0.2005 -0.2438
  156SAPE  H14R17377   0.049   6.703   7.663 -0.1939  0.6751 -0.9627
  156SAPE  C21517378  -0.084   6.637   7.514  0.7735 -0.4127  0.2597
  156SAPE  H15R17379  -0.108   6.743   7.497  0.3488 -0.5950 -0.3019
  156SAPE  C21617380  -0.162   6.537   7.426  0.1582 -0.5405 -0.2778
  156SAPE  H16R17381  -0.272   6.544   7.441  0.2115  1.9043 -0.8385
  156SAPE  H16S17382  -0.130   6.433   7.450  2.4597 -0.2651 -2.0023
  156SAPE  C21717383  -0.129   6.549   7.279 -0.0799 -0.6203  0.6629
  156SAPE  H17R17384  -0.021   6.530   7.266 -0.2184  0.6698 -2.9597
  156SAPE  H17S17385  -0.159   6.651   7.245 -0.2628 -1.1622 -0.8635
  156SAPE  C21817386  -0.207   6.464   7.176  0.2669  0.0431 -0.1470
  156SAPE  H18R17387  -0.316   6.487   7.183  0.4152  0.9098 -0.5665
  156SAPE  H18S17388  -0.195   6.355   7.195 -4.9193 -0.6269  0.1355
  156SAPE  C21917389  -0.147   6.492   7.037 -0.5811  0.2741 -0.2728
  156SAPE  H19R17390  -0.047   6.443   7.031 -0.3198  0.8543 -0.6126
  156SAPE  H19S17391  -0.128   6.601   7.040  0.3202  0.1934 -2.2554
  156SAPE  C22017392  -0.229   6.442   6.921 -1.2149  0.6658 -0.2018
  156SAPE  H20R17393  -0.243   6.332   6.917 -1.4459  0.7226 -0.9268
  156SAPE  H20S17394  -0.211   6.488   6.822 -0.7387  0.6970 -0.1034
  156SAPE  H20T17395  -0.332   6.469   6.949 -1.1435  0.6581  0.0663
  156SAPE   C3317396   0.770   6.454   7.276 -0.7238 -0.2324  0.3227
  156SAPE   H3X17397   0.721   6.554   7.276 -0.8972 -0.3151 -0.4751
  156SAPE   H3Y17398   0.881   6.450   7.263 -0.8813  0.8516 -1.5050
  156SAPE   C3417399   0.736   6.384   7.407  0.3834 -0.6381 -0.0426
  156SAPE   H4X17400   0.775   6.280   7.397  1.9118 -0.1826  1.1069
  156SAPE   H4Y17401   0.629   6.374   7.433  0.4837 -1.5358  0.0522
  156SAPE   C3517402   0.816   6.446   7.523  0.8031 -0.1513 -0.5162
  156SAPE   H5X17403   0.782   6.551   7.532 -2.7436 -1.4173  1.9135
  156SAPE   H5Y17404   0.921   6.451   7.485  1.4935 -1.5148  1.1434
  156SAPE   C3617405   0.802   6.379   7.664  0.1172  0.3652 -0.2397
  156SAPE   H6X17406   0.841   6.275   7.665  1.1348  0.7505  1.7877
  156SAPE   H6Y17407   0.694   6.366   7.688  0.1597 -2.7269 -1.3744
  156SAPE   C3717408   0.877   6.444   7.779  0.2258  0.0691  0.1121
  156SAPE   H7X17409   0.838   6.546   7.798 -0.9243  0.1560 -2.4866
  156SAPE   H7Y17410   0.984   6.453   7.752  0.2979  1.7107  0.8866
  156SAPE   C3817411   0.868   6.370   7.905  0.0716  0.3539 -0.0107
  156SAPE   H8X17412   0.870   6.259   7.908  0.7946  0.3799  1.3216
  156SAPE   H8Y17413   0.764   6.382   7.944  0.5632 -0.7162  1.7012
  156SAPE   C3917414   0.958   6.434   8.022  0.4595 -0.5193  0.0594
  156SAPE   H9X17415   0.884   6.491   8.082  1.2264 -0.5487  1.0459
  156SAPE   H9Y17416   1.046   6.498   7.997 -1.2804  1.4415 -1.1930
  156SAPE  C31017417   1.016   6.328   8.118 -0.8268  0.1683 -0.0631
  156SAPE  H10X17418   1.104   6.282   8.069 -1.0841 -1.0064  0.5409
  156SAPE  H10Y17419   0.945   6.244   8.135  0.1723 -0.4597  1.0687
  156SAPE  C31117420   1.073   6.386   8.243  0.2998 -0.1100 -0.2766
  156SAPE  H11X17421   1.069   6.304   8.317  0.9363 -0.9121 -1.1119
  156SAPE  H11Y17422   1.017   6.469   8.292 -0.6009 -0.4220 -0.7669
  156SAPE  C31217423   1.209   6.438   8.233 -0.4897 -0.1606  0.1472
  156SAPE  H12X17424   1.206   6.531   8.173  0.3322  0.5514  1.1777
  156SAPE  H12Y17425   1.284   6.376   8.178  1.0432  1.4904  0.3267
  156SAPE  C31317426   1.245   6.466   8.376 -0.0546  0.4503 -1.0494
  156SAPE  H13X17427   1.253   6.369   8.430 -0.0868  1.3968  0.7043
  156SAPE  H13Y17428   1.159   6.516   8.426 -0.8712 -2.5090  0.6239
  156SAPE  C31417429   1.370   6.542   8.410  0.8631  0.1204 -0.1054
  156SAPE  H14X17430   1.382   6.636   8.353  0.2039 -0.0214 -0.4772
  156SAPE  H14Y17431   1.461   6.482   8.386  2.0077  0.5597  2.9529
  156SAPE  C31517432   1.382   6.588   8.555  0.2925  0.4340 -0.4095
  156SAPE  H15X17433   1.482   6.636   8.555  0.5198 -0.0281 -0.9185
  156SAPE  H15Y17434   1.386   6.501   8.625 -0.3265 -0.3851 -1.3694
  156SAPE  C31617435   1.273   6.685   8.603 -0.0674 -0.3585 -0.4245
  156SAPE  H16X17436   1.173   6.638   8.617 -1.2182  2.5637  1.8487
  156SAPE  H16Y17437   1.266   6.759   8.520 -1.4596  1.5005  1.2683
  156SAPE  C31717438   1.306   6.745   8.739  0.0785 -0.2387  0.0591
  156SAPE  H17X17439   1.413   6.774   8.744 -0.0031 -0.1354  1.4798
  156SAPE  H17Y17440   1.306   6.669   8.820  0.1870  0.1387  0.4183
  156SAPE  C31817441   1.222   6.860   8.789 -0.0175  0.0988  0.7609
  156SAPE  H18X17442   1.257   6.877   8.893 -0.5116 -1.3189  1.1638
  156SAPE  H18Y17443   1.112   6.843   8.787 -0.1252  0.7205  1.1116
  156SAPE  H18Z17444   1.242   6.953   8.731 -0.2158  0.4072  1.1894
  157SAPE     N17445   5.235   1.198   6.147  0.3389 -0.3139  0.2032
  157SAPE   HN117446   5.237   1.238   6.243  1.4992  0.6362 -0.2211
  157SAPE   HN217447   5.218   1.095   6.153  3.3436 -0.8157  0.6797
  157SAPE   HN317448   5.322   1.219   6.095  1.0404  0.1945  1.5670
  157SAPE   C1217449   5.110   1.246   6.072  0.1395 -0.0101  0.6180
  157SAPE  H12A17450   5.111   1.201   5.970 -0.7356  0.8049  0.2319
  157SAPE  H12B17451   5.116   1.357   6.074 -0.7261  0.0475  0.4821
  157SAPE   C1117452   4.987   1.205   6.154 -0.4586 -0.2101 -0.2309
  157SAPE  H11A17453   4.979   1.095   6.168 -2.2251 -0.3584 -2.1342
  157SAPE  H11B17454   4.897   1.235   6.096 -0.2669  2.8599  0.9542
  157SAPE     P17455   4.867   1.258   6.378 -0.3021 -0.7185 -0.0613
  157SAPE   O1317456   4.740   1.309   6.315 -0.9205 -0.0291 -0.0709
  157SAPE   O1417457   4.865   1.120   6.438  0.3016 -0.6986 -0.4314
  157SAPE   O1217458   4.987   1.270   6.284  0.0091 -0.4891 -0.2644
  157SAPE   O1117459   4.913   1.355   6.490 -0.2756 -0.9727 -0.6154
  157SAPE    C117460   4.929   1.493   6.448  0.5547 -0.5238  0.0177
  157SAPE    HA17461   5.015   1.498   6.378  0.2683 -1.0669 -0.3727
  157SAPE    HB17462   4.838   1.530   6.395  0.0741 -1.1059  0.4318
  157SAPE    C217463   4.940   1.591   6.564  0.2833 -0.5739 -0.0410
  157SAPE    HS17464   4.952   1.690   6.516  0.2377 -1.2513 -1.5056
  157SAPE   O2117465   5.059   1.557   6.649 -0.3093  0.1836 -0.2825
  157SAPE   C2117466   5.172   1.580   6.601 -0.8945 -0.3012 -0.4362
  157SAPE   O2217467   5.193   1.644   6.499 -0.8953  0.1264  0.0802
  157SAPE   C2217468   5.286   1.522   6.688 -1.0136  0.2847  0.1070
  157SAPE   H2R17469   5.243   1.476   6.779  1.4126  0.8102  1.5341
  157SAPE   H2S17470   5.331   1.437   6.632 -0.1586  0.5774  0.3513
  157SAPE    C317471   4.806   1.578   6.657 -0.7867 -0.3810  0.1494
  157SAPE    HX17472   4.829   1.490   6.720  0.0718 -0.3730 -0.1509
  157SAPE    HY17473   4.722   1.552   6.589 -0.4271 -1.8611  0.2509
  157SAPE   O3117474   4.789   1.702   6.732 -0.4323  0.1229 -0.4196
  157SAPE   C3117475   4.663   1.725   6.759  1.1477 -0.4217  0.3985
  157SAPE   O3217476   4.566   1.650   6.734  0.1454 -0.5964  0.6605
  157SAPE   C3217477   4.667   1.852   6.847 -0.9495 -0.2920  0.3922
  157SAPE   H2X17478   4.577   1.906   6.811 -1.6191 -3.1559 -2.4463
  157SAPE   H2Y17479   4.757   1.917   6.842 -0.5129 -0.9060  0.3081
  157SAPE   C2317480   5.394   1.626   6.720  0.2770 -0.1883  0.5062
  157SAPE   H3R17481   5.416   1.693   6.634 -0.6680 -0.6693 -0.1286
  157SAPE   H3S17482   5.491   1.578   6.742 -0.0969 -0.8229  0.7797
  157SAPE   C2417483   5.357   1.706   6.848  0.2874 -0.2257  0.6986
  157SAPE   H4R17484   5.433   1.786   6.862 -0.6112  1.0020 -1.2833
  157SAPE   H4S17485   5.365   1.646   6.941  1.4508 -1.5256 -0.2169
  157SAPE   C2517486   5.230   1.785   6.834  0.4938 -0.0719 -0.2301
  157SAPE   H5R17487   5.222   1.832   6.735  0.6182  0.3923 -0.0208
  157SAPE   C2617488   5.125   1.776   6.916  0.6457  0.5568  0.0458
  157SAPE   H6R17489   5.046   1.850   6.897  0.0120  0.0799  0.8045
  157SAPE   C2717490   5.111   1.698   7.051 -0.1399 -0.1535  1.1758
  157SAPE   H7R17491   5.172   1.605   7.053  1.3157  0.7788  4.1439
  157SAPE   H7S17492   5.004   1.673   7.065 -0.4715  0.6238  0.0619
  157SAPE   C2817493   5.142   1.770   7.176 -0.3408 -1.0327 -0.3707
  157SAPE   H8R17494   5.144   1.879   7.167 -2.0195 -1.1743 -2.8097
  157SAPE   C2917495   5.180   1.720   7.294  0.7069  0.0575 -0.6402
  157SAPE   H9R17496   5.209   1.793   7.371 -1.1115  0.3357 -0.1901
  157SAPE  C21017497   5.202   1.574   7.323 -0.6231  0.0008  0.0665
  157SAPE  H10R17498   5.302   1.549   7.281 -0.0374  1.2002  0.7416
  157SAPE  H10S17499   5.136   1.505   7.265  0.1048 -1.5812  1.0747
  157SAPE  C21117500   5.183   1.539   7.470 -0.3240  0.3088 -0.8209
  157SAPE  H11R17501   5.080   1.503   7.483 -2.0945  5.1766 -0.2107
  157SAPE  C21217502   5.260   1.560   7.578  0.4714 -0.4704  0.3187
  157SAPE  H12R17503   5.219   1.523   7.673  0.1891 -2.9281 -0.7272
  157SAPE  C21317504   5.398   1.624   7.583 -0.0655 -0.2126  0.5312
  157SAPE  H13R17505   5.422   1.671   7.485  1.0874 -0.6336  0.6023
  157SAPE  H13S17506   5.468   1.538   7.593 -0.9819 -1.2559 -1.6052
  157SAPE  C21417507   5.412   1.721   7.698  0.3454  0.2331  0.8952
  157SAPE  H14R17508   5.387   1.824   7.666  0.5759  0.4349  1.3596
  157SAPE  C21517509   5.453   1.697   7.826 -0.1511  0.5018 -0.9827
  157SAPE  H15R17510   5.466   1.789   7.885 -2.2085 -0.0782  0.4385
  157SAPE  C21617511   5.497   1.568   7.889 -0.3297 -0.0937 -0.0651
  157SAPE  H16R17512   5.599   1.582   7.929  0.4904  2.5102 -2.8561
  157SAPE  H16S17513   5.508   1.478   7.824  2.7137 -0.0805  0.3689
  157SAPE  C21717514   5.394   1.520   7.989 -1.1008 -0.4874 -0.9966
  157SAPE  H17R17515   5.314   1.480   7.924 -0.1623 -2.2425 -1.0983
  157SAPE  H17S17516   5.344   1.602   8.045  0.7949 -0.3482  0.5512
  157SAPE  C21817517   5.447   1.410   8.082  0.0285 -0.3943  0.0923
  157SAPE  H18R17518   5.525   1.345   8.037  4.0756  3.9198  0.4019
  157SAPE  H18S17519   5.362   1.350   8.119 -0.4633 -0.5498 -1.2397
  157SAPE  C21917520   5.529   1.456   8.198 -0.4294 -0.6844 -0.4283
  157SAPE  H19R17521   5.471   1.533   8.254 -0.9434 -0.6686 -0.9763
  157SAPE  H19S17522   5.617   1.513   8.162  1.4860 -2.7919  0.7640
  157SAPE  C22017523   5.594   1.344   8.286 -0.9661 -0.8217 -0.4395
  157SAPE  H20R17524   5.636   1.371   8.385 -1.2610  2.1589 -1.0619
  157SAPE  H20S17525   5.670   1.288   8.228  0.3284  2.4737 -2.0684
  157SAPE  H20T17526   5.512   1.278   8.322 -2.6259  1.9637  1.0695
  157SAPE   C3317527   4.669   1.810   7.000  0.0150  0.1616 -0.5185
  157SAPE   H3X17528   4.767   1.838   7.045  0.3619  1.1130 -1.8365
  157SAPE   H3Y17529   4.666   1.699   7.009  0.6761  0.2491  0.7362
  157SAPE   C3417530   4.553   1.864   7.084  0.3811  0.5297 -0.1382
  157SAPE   H4X17531   4.459   1.839   7.031 -0.0569  0.1987  0.7760
  157SAPE   H4Y17532   4.555   1.975   7.079 -1.2651  0.5432 -0.4673
  157SAPE   C3517533   4.545   1.820   7.235 -0.3779 -0.1302  0.4664
  157SAPE   H5X17534   4.648   1.814   7.274 -1.0656 -4.0702  1.8880
  157SAPE   H5Y17535   4.501   1.718   7.247 -1.3604  0.3994  1.4844
  157SAPE   C3617536   4.449   1.913   7.305  0.0379 -0.6850 -0.2936
  157SAPE   H6X17537   4.356   1.913   7.244  0.6798 -1.2424 -1.3024
  157SAPE   H6Y17538   4.492   2.015   7.304  0.5944 -0.9198 -0.6199
  157SAPE   C3717539   4.410   1.856   7.444 -0.1253  0.1333 -0.3304
  157SAPE   H7X17540   4.419   1.745   7.442  2.3027  0.3075 -2.5334
  157SAPE   H7Y17541   4.305   1.884   7.466 -0.3502 -0.1663 -1.0008
  157SAPE   C3817542   4.504   1.914   7.555  1.0064  0.4462  0.0671
  157SAPE   H8X17543   4.504   2.023   7.532 -0.4098  0.4376  0.0228
  157SAPE   H8Y17544   4.606   1.874   7.534  0.3593 -0.8717 -0.6135
  157SAPE   C3917545   4.457   1.871   7.685  0.3434  0.2959 -0.0996
  157SAPE   H9X17546   4.473   1.761   7.692  1.8062  0.5059  0.0092
  157SAPE   H9Y17547   4.348   1.890   7.697  0.1997  0.5256 -1.6762
  157SAPE  C31017548   4.541   1.937   7.796 -0.0062 -0.0773 -0.3053
  157SAPE  H10X17549   4.513   2.045   7.797 -2.5886 -0.7172  0.6499
  157SAPE  H10Y17550   4.648   1.925   7.768 -0.1710 -2.6802  0.1245
  157SAPE  C31117551   4.505   1.874   7.928  0.0595 -0.1897 -0.1614
  157SAPE  H11X17552   4.447   1.782   7.909  1.0178 -0.6603 -0.8821
  157SAPE  H11Y17553   4.438   1.945   7.981  0.7607  1.2272 -1.1323
  157SAPE  C31217554   4.622   1.840   8.021 -0.7564 -0.3139  0.2510
  157SAPE  H12X17555   4.680   1.935   8.022 -1.6931  0.2659  0.6361
  157SAPE  H12Y17556   4.684   1.755   7.986 -3.0416 -0.4526 -3.6990
  157SAPE  C31317557   4.558   1.812   8.163 -0.3318  0.1907 -0.1501
  157SAPE  H13X17558   4.500   1.719   8.144 -1.1556  0.3129  1.6062
  157SAPE  H13Y17559   4.496   1.897   8.197  0.2842  0.2741  0.7907
  157SAPE  C31417560   4.655   1.759   8.277 -0.0354 -0.6104  0.3850
  157SAPE  H14X17561   4.698   1.854   8.316  0.5709 -0.7110 -0.0286
  157SAPE  H14Y17562   4.740   1.697   8.242 -0.1097  0.0093 -0.9369
  157SAPE  C31517563   4.581   1.685   8.388  0.0081  0.3582  0.4364
  157SAPE  H15X17564   4.534   1.599   8.335  2.8513 -0.6869 -0.4930
  157SAPE  H15Y17565   4.505   1.756   8.427  1.2378  0.5547  2.4901
  157SAPE  C31617566   4.662   1.620   8.498 -0.3062 -0.2267 -0.6680
  157SAPE  H16X17567   4.729   1.697   8.543  2.2950 -1.5818 -2.0889
  157SAPE  H16Y17568   4.729   1.540   8.461 -1.1924 -0.3507 -2.0431
  157SAPE  C31717569   4.571   1.553   8.609 -0.2689 -0.3539  0.4603
  157SAPE  H17X17570   4.509   1.486   8.546  0.6934 -1.2496  0.4445
  157SAPE  H17Y17571   4.500   1.631   8.643 -1.0533 -1.6158  1.7963
  157SAPE  C31817572   4.652   1.481   8.711  0.4610 -0.3390 -0.2953
  157SAPE  H18X17573   4.717   1.555   8.763 -0.4133 -0.4439  0.9618
  157SAPE  H18Y17574   4.708   1.400   8.660 -0.1051  0.1344 -1.6900
  157SAPE  H18Z17575   4.589   1.441   8.793 -1.0113  0.0258 -1.2417
  158SAPE     N17576   6.604   6.201   6.249  0.1277 -0.0456  0.1805
  158SAPE   HN117577   6.702   6.235   6.253  0.5438 -1.2461  0.3857
  158SAPE   HN217578   6.564   6.233   6.159  1.2139 -1.6084 -0.8873
  158SAPE   HN317579   6.559   6.255   6.326 -1.9600 -0.1324 -0.9663
  158SAPE   C1217580   6.596   6.054   6.266  0.0517 -0.0380  0.3936
  158SAPE  H12A17581   6.656   6.006   6.185  0.4614  2.2546 -0.7141
  158SAPE  H12B17582   6.489   6.022   6.265  0.9895 -3.4279 -0.7386
  158SAPE   C1117583   6.660   6.001   6.393 -0.3010  0.4117  0.0898
  158SAPE  H11A17584   6.657   5.891   6.410  0.0571  0.5016  0.7616
  158SAPE  H11B17585   6.597   6.039   6.476 -0.8035 -1.8954  0.8058
  158SAPE     P17586   6.921   5.966   6.403  0.1626  0.1029  0.0188
  158SAPE   O1317587   6.910   5.902   6.272 -0.7083  0.2681  0.6215
  158SAPE   O1417588   7.034   6.054   6.423 -0.1820 -0.3585 -0.2038
  158SAPE   O1217589   6.788   6.053   6.421  0.2640  0.3813 -0.0308
  158SAPE   O1117590   6.918   5.864   6.525  0.7311  0.1726  0.4221
  158SAPE    C117591   6.888   5.910   6.656  0.3764 -0.2722  0.4886
  158SAPE    HA17592   6.911   6.018   6.662  1.2314 -0.5026  1.5003
  158SAPE    HB17593   6.780   5.897   6.676  0.2098  1.7620  0.9856
  158SAPE    C217594   6.962   5.829   6.765 -0.0802 -0.7471  0.8347
  158SAPE    HS17595   7.068   5.829   6.729 -0.0387 -0.5663  0.9576
  158SAPE   O2117596   6.904   5.704   6.780 -0.2288  0.3049  0.3228
  158SAPE   C2117597   6.994   5.608   6.772 -0.4643 -0.3227  0.0298
  158SAPE   O2217598   7.115   5.615   6.777  0.5025 -0.2707 -0.1185
  158SAPE   C2217599   6.924   5.479   6.732  0.2473 -0.1852 -0.1247
  158SAPE   H2R17600   6.814   5.498   6.731  0.5478  1.9236  2.1229
  158SAPE   H2S17601   6.953   5.457   6.627 -0.9083  0.7109 -0.6506
  158SAPE    C317602   6.942   5.904   6.897  0.2163  0.1429  0.2818
  158SAPE    HX17603   6.831   5.902   6.909  0.1333  0.0237 -0.4538
  158SAPE    HY17604   6.971   6.011   6.893  1.7043 -0.2110  1.4611
  158SAPE   O3117605   7.013   5.840   7.011 -0.3148 -0.0230 -0.5666
  158SAPE   C3117606   7.146   5.874   7.005  0.1106 -0.1191  0.5646
  158SAPE   O3217607   7.182   5.964   6.925  0.2624  0.5016 -0.4475
  158SAPE   C3217608   7.222   5.813   7.121 -0.1408 -1.1971  0.4530
  158SAPE   H2X17609   7.310   5.761   7.078 -1.1526 -1.0334 -1.9078
  158SAPE   H2Y17610   7.159   5.736   7.170  0.6945 -1.5285  0.9976
  158SAPE   C2317611   6.963   5.371   6.834 -0.8737 -0.6006 -0.0633
  158SAPE   H3R17612   7.066   5.393   6.869 -0.5531 -1.1120 -0.6906
  158SAPE   H3S17613   6.967   5.267   6.795 -2.4543 -0.4513 -0.6717
  158SAPE   C2417614   6.872   5.377   6.958  0.4864 -0.3798 -0.9286
  158SAPE   H4R17615   6.913   5.302   7.029  0.6320  0.3736 -0.2127
  158SAPE   H4S17616   6.775   5.333   6.929  0.3025 -0.4924 -0.1633
  158SAPE   C2517617   6.849   5.511   7.018  0.6561 -0.0939 -0.1510
  158SAPE   H5R17618   6.790   5.577   6.953  2.4785  0.9446 -0.7879
  158SAPE   C2617619   6.883   5.549   7.139 -0.5840  0.1366  0.1750
  158SAPE   H6R17620   6.841   5.645   7.174 -0.7851 -0.8829  2.7914
  158SAPE   C2717621   6.958   5.477   7.249  0.3761  0.4026  0.0164
  158SAPE   H7R17622   7.024   5.401   7.201 -2.9626 -1.2229 -2.2106
  158SAPE   H7S17623   6.884   5.411   7.299  0.8562  1.4314  2.1444
  158SAPE   C2817624   7.039   5.558   7.351  1.1364  0.0851  0.0346
  158SAPE   H8R17625   7.146   5.574   7.327  0.7980  1.8928 -0.3414
  158SAPE   C2917626   6.995   5.601   7.470  0.1242 -0.3025  0.3418
  158SAPE   H9R17627   7.055   5.655   7.545  1.9907 -2.2841  0.3479
  158SAPE  C21017628   6.851   5.580   7.521  0.6867  0.1481 -0.2158
  158SAPE  H10R17629   6.790   5.547   7.435  1.1003 -1.3897  0.0619
  158SAPE  H10S17630   6.803   5.679   7.527  0.6583  0.2477 -2.0225
  158SAPE  C21117631   6.822   5.501   7.641  0.4130 -0.1141  0.3327
  158SAPE  H11R17632   6.787   5.397   7.631 -0.5059  0.0009  2.1523
  158SAPE  C21217633   6.847   5.540   7.772 -0.3531  0.5238  0.5537
  158SAPE  H12R17634   6.825   5.465   7.849 -0.2686  0.0376  0.1052
  158SAPE  C21317635   6.909   5.669   7.817 -0.1687 -0.2006 -0.5574
  158SAPE  H13R17636   6.851   5.713   7.901  0.6177 -0.4308  0.1145
  158SAPE  H13S17637   6.913   5.750   7.741  2.1579 -1.8613 -2.2995
  158SAPE  C21417638   7.053   5.643   7.867 -0.3903 -0.0347  0.1920
  158SAPE  H14R17639   7.127   5.647   7.786  0.1554 -0.4292  0.6703
  158SAPE  C21517640   7.089   5.605   7.993 -0.9033 -0.4833 -0.8431
  158SAPE  H15R17641   7.198   5.603   8.011 -0.8617  0.8039 -0.9020
  158SAPE  C21617642   6.997   5.588   8.109  0.5298  0.0689  0.7260
  158SAPE  H16R17643   7.044   5.507   8.168  0.3889 -0.2951  0.3465
  158SAPE  H16S17644   6.899   5.550   8.073  0.2067  2.4542 -1.0293
  158SAPE  C21717645   6.969   5.717   8.183  0.1969 -0.5105 -0.0175
  158SAPE  H17R17646   6.883   5.705   8.252  0.5565 -1.6058  0.2622
  158SAPE  H17S17647   6.938   5.793   8.110  0.3116 -1.0363 -0.6197
  158SAPE  C21817648   7.095   5.764   8.255 -0.7419 -0.1604 -0.3640
  158SAPE  H18R17649   7.084   5.862   8.305 -1.0282  0.2887 -1.2996
  158SAPE  H18S17650   7.172   5.770   8.175 -1.6141  1.5528 -1.0893
  158SAPE  C21917651   7.149   5.670   8.359 -0.3611 -0.0494  0.1643
  158SAPE  H19R17652   7.163   5.564   8.329 -0.3497  1.1212 -4.3134
  158SAPE  H19S17653   7.090   5.679   8.453  1.9821  3.6702  1.3575
  158SAPE  C22017654   7.302   5.709   8.387  0.3341  0.1307 -0.8945
  158SAPE  H20R17655   7.364   5.698   8.295  1.6882  0.4060 -0.0388
  158SAPE  H20S17656   7.332   5.638   8.467  1.9051  1.2259 -0.4787
  158SAPE  H20T17657   7.309   5.812   8.428 -0.3387 -0.3049  0.3339
  158SAPE   C3317658   7.272   5.922   7.226 -0.5534 -0.1795 -0.3776
  158SAPE   H3X17659   7.183   5.988   7.234 -1.2901 -0.8771 -2.4352
  158SAPE   H3Y17660   7.349   5.991   7.186 -1.8391  0.2965 -2.1071
  158SAPE   C3417661   7.298   5.854   7.358 -0.0993 -0.0717 -1.1027
  158SAPE   H4X17662   7.385   5.786   7.347 -1.9653 -2.6337 -0.4801
  158SAPE   H4Y17663   7.212   5.790   7.386  1.2584 -1.7973 -0.7432
  158SAPE   C3517664   7.341   5.948   7.469 -0.2100  0.7219  0.3991
  158SAPE   H5X17665   7.248   6.000   7.503 -1.5099 -2.6107  2.0942
  158SAPE   H5Y17666   7.414   6.021   7.428  0.9958 -0.3531  0.6084
  158SAPE   C3617667   7.412   5.869   7.583  0.2318 -0.0170 -0.3103
  158SAPE   H6X17668   7.477   5.792   7.537  0.5716 -0.5095  0.9582
  158SAPE   H6Y17669   7.333   5.816   7.641 -0.6928  0.2103 -1.3464
  158SAPE   C3717670   7.489   5.954   7.684 -0.0629 -0.3151 -0.1284
  158SAPE   H7X17671   7.520   5.888   7.767 -0.7667 -1.1459 -0.5203
  158SAPE   H7Y17672   7.579   5.994   7.631 -1.1198  3.7330  0.9219
  158SAPE   C3817673   7.409   6.079   7.743  0.9576 -0.3852 -0.8137
  158SAPE   H8X17674   7.382   6.142   7.656 -1.5851  0.1218  0.2819
  158SAPE   H8Y17675   7.474   6.136   7.813 -2.3073  3.2343 -0.5302
  158SAPE   C3917676   7.290   6.028   7.817  0.6218  0.4241  0.0363
  158SAPE   H9X17677   7.334   5.948   7.880 -0.2877  0.0136  0.1572
  158SAPE   H9Y17678   7.206   5.990   7.755  0.8559  1.5677 -1.0086
  158SAPE  C31017679   7.235   6.137   7.910 -0.4440 -0.0446  0.1044
  158SAPE  H10X17680   7.169   6.210   7.857  0.4468  1.0497  0.4869
  158SAPE  H10Y17681   7.321   6.188   7.958 -1.5826  1.7360  0.2940
  158SAPE  C31117682   7.154   6.074   8.030 -0.2469 -0.9319  0.0112
  158SAPE  H11X17683   7.227   6.017   8.093  0.2115 -0.4455 -0.0779
  158SAPE  H11Y17684   7.086   6.004   7.977 -0.5245 -1.7141  1.3756
  158SAPE  C31217685   7.073   6.184   8.102 -0.2514 -0.3659  0.2239
  158SAPE  H12X17686   7.017   6.125   8.178 -0.5827 -2.1545 -1.3605
  158SAPE  H12Y17687   7.008   6.224   8.022  1.3487  0.4766 -0.6852
  158SAPE  C31317688   7.149   6.307   8.153  0.4960  0.1417  0.0438
  158SAPE  H13X17689   7.177   6.374   8.069 -1.2340  1.9361  0.8606
  158SAPE  H13Y17690   7.240   6.264   8.200  0.5957 -0.8471 -1.0148
  158SAPE  C31417691   7.071   6.394   8.254 -0.0391 -0.0776  1.0788
  158SAPE  H14X17692   6.979   6.433   8.205  0.8564  0.9857  0.2089
  158SAPE  H14Y17693   7.139   6.482   8.260  0.0633 -0.2161  2.1233
  158SAPE  C31517694   7.031   6.332   8.389 -0.1479  0.4890  0.6066
  158SAPE  H15X17695   7.014   6.224   8.368  1.5463  0.8022 -2.6561
  158SAPE  H15Y17696   6.934   6.372   8.426 -0.8165 -0.1125 -0.4843
  158SAPE  C31617697   7.142   6.347   8.492  0.1150  1.2457 -0.1365
  158SAPE  H16X17698   7.237   6.312   8.447 -0.3797 -0.8291  0.3762
  158SAPE  H16Y17699   7.121   6.280   8.578 -0.2912 -1.4181 -2.2492
  158SAPE  C31717700   7.159   6.486   8.540  0.5192  0.2021 -0.1852
  158SAPE  H17X17701   7.162   6.559   8.456 -2.2303 -1.5548 -1.8963
  158SAPE  H17Y17702   7.261   6.490   8.585  1.1672  1.7074 -1.7487
  158SAPE  C31817703   7.053   6.540   8.646 -0.1987 -0.5007  0.1282
  158SAPE  H18X17704   7.082   6.644   8.672 -0.7607 -0.2043 -0.4024
  158SAPE  H18Y17705   7.056   6.479   8.738  0.0604 -1.5068 -0.5342
  158SAPE  H18Z17706   6.947   6.548   8.614  0.3775 -1.2021 -2.0642
  159SAPE     N17707   6.223   2.202   5.925 -0.0829 -0.7827 -0.3271
  159SAPE   HN117708   6.287   2.120   5.934  1.3238  0.3476  0.0406
  159SAPE   HN217709   6.174   2.214   5.834  1.0739 -1.1374 -0.9996
  159SAPE   HN317710   6.273   2.288   5.952  2.5832 -2.6134  0.7671
  159SAPE   C1217711   6.103   2.181   6.019  0.5490  0.7700  0.2193
  159SAPE  H12A17712   6.154   2.172   6.117 -1.6160 -1.5580  1.1902
  159SAPE  H12B17713   6.045   2.087   6.005 -0.1441  1.0795  0.8995
  159SAPE   C1117714   6.019   2.312   6.024 -0.6805 -0.1880  0.3462
  159SAPE  H11A17715   5.946   2.304   6.108 -0.9742  0.0676  0.1152
  159SAPE  H11B17716   5.960   2.312   5.930 -0.4095 -0.2521  0.1781
  159SAPE     P17717   6.158   2.471   6.168  0.1739  0.1487  0.5406
  159SAPE   O1317718   6.259   2.582   6.144 -0.3904  0.0461 -0.1144
  159SAPE   O1417719   6.050   2.518   6.258 -0.2895 -0.0373 -0.1467
  159SAPE   O1217720   6.104   2.427   6.027  0.2885 -0.0323 -0.3032
  159SAPE   O1117721   6.225   2.351   6.240 -0.0272 -0.2638 -0.0528
  159SAPE    C117722   6.359   2.351   6.282 -0.1904  0.7301 -0.2433
  159SAPE    HA17723   6.434   2.312   6.209  0.8981  2.4345 -0.0590
  159SAPE    HB17724   6.386   2.455   6.308  0.7787 -0.0549  2.0445
  159SAPE    C217725   6.370   2.272   6.419  1.0773 -0.3843  0.1663
  159SAPE    HS17726   6.322   2.173   6.406  1.2757 -0.6165  1.2085
  159SAPE   O2117727   6.317   2.351   6.524 -0.1378 -1.1639 -0.1364
  159SAPE   C2117728   6.277   2.272   6.628 -0.1916 -0.1753  0.6609
  159SAPE   O2217729   6.261   2.152   6.621  0.2594 -0.2245  0.4001
  159SAPE   C2217730   6.288   2.356   6.751  0.8896  0.3215  0.4137
  159SAPE   H2R17731   6.380   2.416   6.767  0.8789 -0.2013  2.5820
  159SAPE   H2S17732   6.195   2.416   6.745  1.5570  1.1169 -3.2347
  159SAPE    C317733   6.524   2.239   6.446  0.3872 -0.8515 -0.4761
  159SAPE    HX17734   6.584   2.330   6.424  0.7211 -0.7441  0.8605
  159SAPE    HY17735   6.552   2.160   6.373  1.9344 -1.1824  0.4507
  159SAPE   O3117736   6.549   2.181   6.577  0.2902 -0.1786 -0.1882
  159SAPE   C3117737   6.640   2.235   6.656 -0.2907  1.0436 -0.1380
  159SAPE   O3217738   6.694   2.344   6.648  0.5799  0.4494  0.5822
  159SAPE   C3217739   6.687   2.129   6.756 -0.0040 -0.2845  0.2761
  159SAPE   H2X17740   6.793   2.119   6.726  0.1256 -0.3487  0.7670
  159SAPE   H2Y17741   6.638   2.030   6.747  0.2936 -0.3888 -0.2441
  159SAPE   C2317742   6.263   2.269   6.873 -0.1227  0.4166  0.1179
  159SAPE   H3R17743   6.351   2.208   6.903  1.3119  2.2002 -0.3574
  159SAPE   H3S17744   6.180   2.196   6.859  0.7272 -0.8130  1.3505
  159SAPE   C2417745   6.221   2.346   7.006  0.6286  0.0230 -0.0103
  159SAPE   H4R17746   6.161   2.265   7.054  1.8937 -1.1362 -0.3616
  159SAPE   H4S17747   6.154   2.432   6.987  0.0005 -0.5863 -0.5988
  159SAPE   C2517748   6.328   2.399   7.090  0.2837 -0.9595 -0.3338
  159SAPE   H5R17749   6.392   2.467   7.032 -0.2574 -0.9139 -0.8907
  159SAPE   C2617750   6.370   2.372   7.216  0.3405  0.2116 -0.2339
  159SAPE   H6R17751   6.457   2.431   7.251 -0.6516  0.9776  0.9910
  159SAPE   C2717752   6.310   2.269   7.308 -0.0873 -0.3924  0.5236
  159SAPE   H7R17753   6.211   2.230   7.277 -0.2123  1.3151 -1.3352
  159SAPE   H7S17754   6.294   2.318   7.407  0.5054  1.4240 -0.2721
  159SAPE   C2817755   6.394   2.147   7.326  0.5095  0.0934 -0.5672
  159SAPE   H8R17756   6.398   2.078   7.240  0.5100  1.8967 -2.0483
  159SAPE   C2917757   6.479   2.128   7.431  0.2710  0.3380 -0.2499
  159SAPE   H9R17758   6.546   2.040   7.426  0.1256  0.1313  1.1266
  159SAPE  C21017759   6.499   2.227   7.546  0.2578 -0.5820 -0.0312
  159SAPE  H10R17760   6.415   2.215   7.617  0.4999 -1.2678  0.1421
  159SAPE  H10S17761   6.483   2.329   7.505  0.9289  0.0525  1.2527
  159SAPE  C21117762   6.628   2.214   7.623  0.6495 -0.8877  0.7661
  159SAPE  H11R17763   6.720   2.238   7.568 -0.2123  0.4724 -0.1171
  159SAPE  C21217764   6.644   2.146   7.735  0.5568 -0.1234 -0.1977
  159SAPE  H12R17765   6.745   2.133   7.777  0.2734 -0.1242  0.4958
  159SAPE  C21317766   6.543   2.076   7.821  0.4948  0.1360 -0.2661
  159SAPE  H13R17767   6.451   2.055   7.762 -0.9426  1.5508  1.3910
  159SAPE  H13S17768   6.520   2.139   7.910  1.7491 -0.2551  0.3396
  159SAPE  C21417769   6.596   1.939   7.853  0.1172  0.2151 -0.2041
  159SAPE  H14R17770   6.675   1.904   7.785  0.3930  1.8886 -0.7586
  159SAPE  C21517771   6.567   1.870   7.970  0.1949  0.3195 -0.0922
  159SAPE  H15R17772   6.625   1.777   7.987  1.4429  0.9283 -0.9216
  159SAPE  C21617773   6.479   1.907   8.087  0.2417  0.0936 -0.6815
  159SAPE  H16R17774   6.372   1.880   8.069  0.3486 -0.3491 -0.6472
  159SAPE  H16S17775   6.490   2.014   8.113  3.3175 -0.6321  1.2297
  159SAPE  C21717776   6.526   1.845   8.220  1.8565 -0.1055  0.6420
  159SAPE  H17R17777   6.633   1.869   8.238  1.7890  1.2787 -0.6178
  159SAPE  H17S17778   6.516   1.737   8.198 -0.5626 -0.0622  1.3976
  159SAPE  C21817779   6.438   1.889   8.336  0.0780  0.5655 -0.5981
  159SAPE  H18R17780   6.339   1.841   8.319  0.8924 -0.9799 -1.0803
  159SAPE  H18S17781   6.425   1.999   8.340 -0.5212  0.4507  1.0808
  159SAPE  C21917782   6.497   1.847   8.473 -0.0616 -0.6899 -0.5323
  159SAPE  H19R17783   6.593   1.799   8.446 -0.8930 -2.9528  0.4023
  159SAPE  H19S17784   6.432   1.771   8.521 -0.7808  0.4612  0.3474
  159SAPE  C22017785   6.509   1.967   8.567 -0.1786 -0.1764 -0.2544
  159SAPE  H20R17786   6.570   2.041   8.511  0.4034 -1.4320 -1.3281
  159SAPE  H20S17787   6.562   1.926   8.656 -0.4858 -0.1412 -0.0553
  159SAPE  H20T17788   6.411   2.011   8.591  1.2766  1.4083  3.0886
  159SAPE   C3317789   6.693   2.180   6.903  0.0753  0.5271 -0.0664
  159SAPE   H3X17790   6.590   2.192   6.942 -1.2315 -2.4644 -2.4295
  159SAPE   H3Y17791   6.750   2.274   6.916  1.8826 -0.5770  0.2114
  159SAPE   C3417792   6.758   2.064   6.978 -0.6101  0.3091  0.0698
  159SAPE   H4X17793   6.842   2.016   6.924 -0.4934 -1.0027  1.4082
  159SAPE   H4Y17794   6.680   1.986   6.989  0.0437  0.0197  3.0172
  159SAPE   C3517795   6.799   2.101   7.119 -0.1024 -0.3735  0.7320
  159SAPE   H5X17796   6.723   2.169   7.163 -0.4563 -1.8524  2.4272
  159SAPE   H5Y17797   6.891   2.162   7.110 -1.5378  2.0719  1.8477
  159SAPE   C3617798   6.833   1.982   7.217  0.3755  0.0397 -0.3911
  159SAPE   H6X17799   6.916   1.928   7.167  1.3998  2.2184 -1.1165
  159SAPE   H6Y17800   6.751   1.913   7.248 -0.4136  1.0463 -0.2193
  159SAPE   C3717801   6.890   2.043   7.349  0.6526 -0.1004 -0.1837
  159SAPE   H7X17802   6.805   2.097   7.397  1.7407 -1.1868  3.1668
  159SAPE   H7Y17803   6.981   2.103   7.330 -0.0679  0.9465 -0.3751
  159SAPE   C3817804   6.926   1.934   7.447 -0.0102 -0.2532  0.1514
  159SAPE   H8X17805   7.033   1.909   7.431  0.0151  0.4932 -0.8945
  159SAPE   H8Y17806   6.866   1.841   7.435  1.8653 -1.4400 -0.1657
  159SAPE   C3917807   6.908   1.983   7.596 -0.6157 -0.8392  0.4340
  159SAPE   H9X17808   6.797   1.981   7.599 -0.6530  0.9718  1.7592
  159SAPE   H9Y17809   6.944   2.089   7.596  1.4328 -1.5033 -0.1464
  159SAPE  C31017810   6.982   1.904   7.707  0.3225 -0.2820 -0.0582
  159SAPE  H10X17811   6.965   1.794   7.706  0.9045 -0.3740 -0.4316
  159SAPE  H10Y17812   6.939   1.944   7.801 -2.9458  0.4785 -1.7946
  159SAPE  C31117813   7.134   1.930   7.699 -1.2186  0.1631  0.4718
  159SAPE  H11X17814   7.162   2.034   7.724 -0.3635 -0.5562  2.6666
  159SAPE  H11Y17815   7.167   1.904   7.596  2.3725 -0.5574  1.7161
  159SAPE  C31217816   7.209   1.839   7.805 -0.2161  0.4777 -0.3939
  159SAPE  H12X17817   7.312   1.828   7.765 -0.2020 -1.5176  0.1540
  159SAPE  H12Y17818   7.167   1.738   7.786 -0.2592  0.9331 -2.9059
  159SAPE  C31317819   7.197   1.876   7.952  0.2796  0.7173  0.7164
  159SAPE  H13X17820   7.089   1.875   7.977 -0.0657  0.9910 -0.6935
  159SAPE  H13Y17821   7.228   1.981   7.971 -1.3511  1.7741 -2.0826
  159SAPE  C31417822   7.266   1.780   8.055  0.9809 -0.5719 -0.4650
  159SAPE  H14X17823   7.373   1.778   8.025  1.3984 -1.5837  1.0284
  159SAPE  H14Y17824   7.225   1.678   8.037  1.6203 -0.7089 -1.1746
  159SAPE  C31517825   7.265   1.823   8.202 -0.3435  1.1382  0.6837
  159SAPE  H15X17826   7.163   1.810   8.245  0.0575  0.6870  1.5096
  159SAPE  H15Y17827   7.291   1.928   8.224 -0.7187  1.3721  0.0090
  159SAPE  C31617828   7.359   1.740   8.291 -0.1034  0.3356 -0.3511
  159SAPE  H16X17829   7.318   1.764   8.392  0.5942 -1.1291  0.2834
  159SAPE  H16Y17830   7.461   1.769   8.261 -0.2538  1.6246  0.3275
  159SAPE  C31717831   7.349   1.590   8.271 -0.3289  0.8522 -0.0187
  159SAPE  H17X17832   7.397   1.559   8.176  2.2319 -0.5776  1.6817
  159SAPE  H17Y17833   7.243   1.557   8.275 -0.0226 -0.2102 -0.4791
  159SAPE  C31817834   7.421   1.512   8.385 -1.3721 -0.6411 -0.5222
  159SAPE  H18X17835   7.420   1.402   8.372  2.2890 -0.6165 -1.4879
  159SAPE  H18Y17836   7.362   1.532   8.478  2.1829  1.7829  1.3523
  159SAPE  H18Z17837   7.518   1.555   8.416 -1.8757 -0.5616  1.0051
  160SAPE     N17838   6.613   0.835   6.543 -1.0714 -0.1542 -0.2005
  160SAPE   HN117839   6.653   0.800   6.454  2.5530 -0.5448  1.4848
  160SAPE   HN217840   6.691   0.858   6.609 -0.6156 -1.1307 -0.3942
  160SAPE   HN317841   6.555   0.769   6.598 -0.8845 -1.1131 -1.1349
  160SAPE   C1217842   6.522   0.953   6.523  0.5097 -0.0695 -0.3590
  160SAPE  H12A17843   6.428   0.945   6.581 -0.7618  1.6869 -2.1415
  160SAPE  H12B17844   6.491   0.950   6.417 -0.2252  2.1377 -0.2359
  160SAPE   C1117845   6.591   1.091   6.553  0.4440 -0.6002  0.1746
  160SAPE  H11A17846   6.603   1.095   6.663 -0.6143  1.3509  0.2458
  160SAPE  H11B17847   6.526   1.174   6.516  0.0984 -1.0669 -0.2924
  160SAPE     P17848   6.851   1.097   6.549  0.0832 -0.2891 -0.0319
  160SAPE   O1317849   6.947   1.056   6.446 -0.2200  0.1908 -0.3345
  160SAPE   O1417850   6.873   1.228   6.614  0.1863 -0.2807 -0.6333
  160SAPE   O1217851   6.716   1.099   6.483  0.3650  0.1693 -0.0442
  160SAPE   O1117852   6.840   0.975   6.652 -0.0780 -0.5999 -0.1283
  160SAPE    C117853   6.954   0.927   6.726  0.1514 -0.5230 -0.6949
  160SAPE    HA17854   7.004   0.851   6.661  0.1815 -1.2651  0.1832
  160SAPE    HB17855   7.018   1.009   6.763  1.6750 -1.4637 -1.1960
  160SAPE    C217856   6.925   0.843   6.848  0.5198  0.2571  0.0659
  160SAPE    HS17857   6.876   0.750   6.811  2.2336 -0.4024 -0.5822
  160SAPE   O2117858   6.851   0.915   6.947  1.1027  0.4604  0.1908
  160SAPE   C2117859   6.726   0.936   6.920  0.9991 -0.2325 -0.4408
  160SAPE   O2217860   6.663   0.881   6.832  0.4010 -0.4196 -0.6192
  160SAPE   C2217861   6.668   1.040   7.006  0.1761  0.3073 -0.5358
  160SAPE   H2R17862   6.633   1.008   7.107  1.1977  3.4166  0.8458
  160SAPE   H2S17863   6.748   1.113   7.031 -1.4044  1.5925  0.8213
  160SAPE    C317864   7.054   0.801   6.913 -0.3180  0.8396  0.0588
  160SAPE    HX17865   7.128   0.882   6.929 -0.7801  1.2831 -0.0196
  160SAPE    HY17866   7.091   0.729   6.837  0.3871 -1.7791  2.7934
  160SAPE   O3117867   7.033   0.726   7.035 -0.0465 -0.6147 -0.2008
  160SAPE   C3117868   7.039   0.782   7.156  0.0159  0.1641  0.7004
  160SAPE   O3217869   7.066   0.896   7.181 -0.4638  0.2011  0.1837
  160SAPE   C3217870   6.996   0.681   7.268  0.4806 -0.0958 -0.6575
  160SAPE   H2X17871   7.079   0.624   7.316 -0.7070 -0.8201  0.5791
  160SAPE   H2Y17872   6.918   0.613   7.227  2.6367 -2.4951 -0.9082
  160SAPE   C2317873   6.557   1.122   6.938 -0.4824 -0.4417  0.1373
  160SAPE   H3R17874   6.489   1.050   6.886  0.3087  0.0039 -1.5420
  160SAPE   H3S17875   6.593   1.194   6.862 -2.1723 -0.3620 -0.6168
  160SAPE   C2417876   6.465   1.191   7.045  0.0248 -0.2425  0.5420
  160SAPE   H4R17877   6.423   1.111   7.109  1.0170 -1.5383 -0.4010
  160SAPE   H4S17878   6.377   1.228   6.988 -1.3407  1.5917  3.7013
  160SAPE   C2517879   6.526   1.311   7.117 -0.3838  0.6098  0.4952
  160SAPE   H5R17880   6.540   1.396   7.049 -1.8575  0.9852  0.6566
  160SAPE   C2617881   6.568   1.321   7.247 -0.3977 -0.4292 -0.2634
  160SAPE   H6R17882   6.626   1.408   7.279 -0.2517  0.2280 -2.2108
  160SAPE   C2717883   6.555   1.221   7.356  0.4149 -0.3753  0.1157
  160SAPE   H7R17884   6.473   1.156   7.320 -0.3260 -0.3497  1.7108
  160SAPE   H7S17885   6.515   1.258   7.453 -2.2396 -2.6060 -0.0881
  160SAPE   C2817886   6.682   1.139   7.361 -0.5505 -0.9267  0.7521
  160SAPE   H8R17887   6.737   1.131   7.266 -1.1289  0.9551  0.2306
  160SAPE   C2917888   6.728   1.083   7.470 -0.2743  0.0697  0.1247
  160SAPE   H9R17889   6.825   1.032   7.474 -0.9288 -1.1247  1.1567
  160SAPE  C21017890   6.655   1.069   7.602  0.1351  0.0430  0.3812
  160SAPE  H10R17891   6.552   1.047   7.566  0.4144 -1.3098  0.3900
  160SAPE  H10S17892   6.636   1.157   7.667 -1.4722 -0.6506  0.8870
  160SAPE  C21117893   6.719   0.955   7.681  0.7831  0.3251  0.0437
  160SAPE  H11R17894   6.788   0.887   7.627 -0.6348 -1.8674  0.9150
  160SAPE  C21217895   6.704   0.932   7.815  0.1024 -0.1574 -0.1194
  160SAPE  H12R17896   6.749   0.843   7.861  0.8421 -0.3854 -1.2870
  160SAPE  C21317897   6.620   1.010   7.914  0.1808 -0.4671 -0.6970
  160SAPE  H13R17898   6.521   1.033   7.869  1.3012  0.0314 -3.0043
  160SAPE  H13S17899   6.656   1.115   7.917  1.3361 -0.8782  0.1773
  160SAPE  C21417900   6.607   0.947   8.047  0.3906  0.1862  0.5921
  160SAPE  H14R17901   6.530   0.869   8.041  1.7102 -1.0894  0.0117
  160SAPE  C21517902   6.669   0.975   8.159  0.8558 -0.3427  0.7979
  160SAPE  H15R17903   6.652   0.915   8.249 -0.0396  0.0701  0.9027
  160SAPE  C21617904   6.779   1.081   8.184  0.2884 -0.1736  0.1813
  160SAPE  H16R17905   6.777   1.107   8.292  0.3907  2.0458 -0.3306
  160SAPE  H16S17906   6.762   1.172   8.122 -0.5726 -1.0937 -0.9681
  160SAPE  C21717907   6.920   1.031   8.145  0.1093  0.4432  0.4116
  160SAPE  H17R17908   6.979   1.125   8.139 -0.1350  0.5825  0.1680
  160SAPE  H17S17909   6.917   0.990   8.042 -1.9855 -3.2811  1.8683
  160SAPE  C21817910   6.982   0.917   8.235 -0.1340  0.1963 -0.8587
  160SAPE  H18R17911   7.091   0.909   8.214 -0.0744  0.1827 -0.5357
  160SAPE  H18S17912   6.930   0.822   8.211  4.1061 -3.0925  2.2611
  160SAPE  C21917913   6.978   0.954   8.381 -0.5574 -0.2256 -0.4457
  160SAPE  H19R17914   6.871   0.972   8.408 -1.1348 -2.5856 -1.0290
  160SAPE  H19S17915   7.027   1.053   8.383 -4.2407  1.6465  0.5318
  160SAPE  C22017916   7.038   0.850   8.479  0.8454  1.0061  0.6025
  160SAPE  H20R17917   7.149   0.858   8.478  1.0708 -1.6141  1.7999
  160SAPE  H20S17918   6.993   0.750   8.461  0.2019  1.9992 -4.1232
  160SAPE  H20T17919   7.011   0.885   8.580  0.9009 -4.4225  2.6349
  160SAPE   C3317920   6.927   0.751   7.383  0.4780 -0.0789  0.1080
  160SAPE   H3X17921   6.838   0.805   7.346 -1.1848 -1.9233  1.3319
  160SAPE   H3Y17922   6.990   0.836   7.419  0.0649  0.0692  0.4903
  160SAPE   C3417923   6.894   0.661   7.510 -0.2196  0.4998  0.2288
  160SAPE   H4X17924   6.884   0.561   7.462  4.4682  0.3205 -0.6481
  160SAPE   H4Y17925   6.806   0.698   7.566 -1.5922  0.7765 -2.0854
  160SAPE   C3517926   7.018   0.651   7.599 -0.1110 -0.5615  0.5725
  160SAPE   H5X17927   7.050   0.754   7.626  2.5348 -0.9590 -0.8113
  160SAPE   H5Y17928   7.108   0.616   7.544 -0.0754 -0.5153  0.6003
  160SAPE   C3617929   6.994   0.554   7.725 -0.6938  0.0116 -0.0119
  160SAPE   H6X17930   7.093   0.553   7.775 -0.8126  0.8140  0.2472
  160SAPE   H6Y17931   6.986   0.452   7.681 -0.8294 -0.3236  0.7753
  160SAPE   C3717932   6.907   0.608   7.828 -0.0771  0.4811 -0.7548
  160SAPE   H7X17933   6.800   0.627   7.803  0.1741  1.2393 -1.2711
  160SAPE   H7Y17934   6.945   0.706   7.865 -1.2360  0.5934  0.1679
  160SAPE   C3817935   6.900   0.514   7.944  0.0543  0.2001  0.5801
  160SAPE   H8X17936   7.002   0.478   7.971  0.8474  0.7699 -1.5530
  160SAPE   H8Y17937   6.844   0.432   7.894 -1.2518  1.3433  0.1500
  160SAPE   C3917938   6.839   0.579   8.068 -0.5817  0.8300 -0.1198
  160SAPE   H9X17939   6.751   0.644   8.044 -1.5822 -0.6446 -0.5055
  160SAPE   H9Y17940   6.920   0.647   8.103 -0.1112 -0.0787  0.5576
  160SAPE  C31017941   6.801   0.477   8.181  0.0836 -0.6738 -0.3285
  160SAPE  H10X17942   6.893   0.432   8.222  1.4611  0.9410 -1.5706
  160SAPE  H10Y17943   6.744   0.399   8.126  1.6175 -0.9303 -1.5881
  160SAPE  C31117944   6.728   0.540   8.299 -0.6107 -0.3128 -0.0539
  160SAPE  H11X17945   6.646   0.610   8.273 -0.0749  0.4075  0.1836
  160SAPE  H11Y17946   6.798   0.610   8.349  0.3449 -1.3964  0.1743
  160SAPE  C31217947   6.675   0.442   8.405  0.3527 -0.0576  0.7059
  160SAPE  H12X17948   6.644   0.502   8.492  1.8176 -1.9143  2.5641
  160SAPE  H12Y17949   6.757   0.374   8.437 -0.8608 -0.3722  3.2527
  160SAPE  C31317950   6.558   0.348   8.358  0.0934 -0.0317 -0.0249
  160SAPE  H13X17951   6.593   0.279   8.278 -1.8769  0.7465 -1.6099
  160SAPE  H13Y17952   6.495   0.422   8.305 -2.9940 -0.9421  2.2422
  160SAPE  C31417953   6.461   0.304   8.463 -0.4122 -0.1540 -0.5359
  160SAPE  H14X17954   6.369   0.269   8.410 -0.2183 -2.6962  0.7446
  160SAPE  H14Y17955   6.435   0.401   8.510 -0.1116 -0.2676 -0.1345
  160SAPE  C31517956   6.514   0.198   8.565 -0.6922  0.6580 -0.5452
  160SAPE  H15X17957   6.434   0.181   8.640 -1.8861 -1.2844 -2.2000
  160SAPE  H15Y17958   6.606   0.241   8.609 -0.2247  0.7423 -1.5954
  160SAPE  C31617959   6.546   0.054   8.510  0.0677  0.2433  0.5513
  160SAPE  H16X17960   6.580  -0.001   8.599 -1.3272  0.1023  1.0186
  160SAPE  H16Y17961   6.634   0.064   8.443  0.4021 -1.5160  0.7116
  160SAPE  C31717962   6.428  -0.010   8.434 -0.0629  0.4621 -0.6098
  160SAPE  H17X17963   6.422   0.039   8.334 -2.0951 -0.4271 -0.9336
  160SAPE  H17Y17964   6.338   0.013   8.495  0.7033 -1.1492  1.1768
  160SAPE  C31817965   6.443  -0.158   8.403 -0.5645 -0.0881  0.2427
  160SAPE  H18X17966   6.374  -0.199   8.327  2.1023 -3.5112 -0.4713
  160SAPE  H18Y17967   6.431  -0.227   8.489 -0.9238 -1.7817 -1.1402
  160SAPE  H18Z17968   6.548  -0.169   8.366 -0.6172  2.4079 -0.7995
  161SOPE     N17969   5.763   2.461  10.630 -0.4060  0.0029  0.1432
  161SOPE   HN117970   5.672   2.470  10.581  0.5835  0.8849 -1.5841
  161SOPE   HN217971   5.796   2.554  10.662 -0.3333  0.1009 -0.2217
  161SOPE   HN317972   5.840   2.423  10.571 -1.0866 -1.7829  0.3625
  161SOPE   C1217973   5.757   2.390  10.766  0.0778  0.0548  0.6654
  161SOPE  H12A17974   5.827   2.429  10.843 -2.1852  1.4596  2.0366
  161SOPE  H12B17975   5.778   2.282  10.752  0.5882  0.3571 -1.0502
  161SOPE   C1117976   5.618   2.402  10.835 -0.4829 -0.7063 -0.0609
  161SOPE  H11A17977   5.607   2.505  10.875  3.2408 -0.5717  0.7975
  161SOPE  H11B17978   5.623   2.332  10.921  0.2954 -0.0134  0.4719
  161SOPE     P17979   5.466   2.226  10.713 -0.3438  0.1356  0.2038
  161SOPE   O1317980   5.320   2.203  10.723 -0.1037  0.2307  0.2776
  161SOPE   O1417981   5.555   2.148  10.798  0.2377  0.1027 -0.5400
  161SOPE   O1217982   5.504   2.376  10.737 -1.0129 -0.0564 -0.2418
  161SOPE   O1117983   5.511   2.210  10.567 -0.7301 -0.5026 -0.4427
  161SOPE    C117984   5.528   2.089  10.498 -0.1655 -0.9772 -0.8204
  161SOPE    HA17985   5.429   2.042  10.480 -0.7072  0.3838 -1.4556
  161SOPE    HB17986   5.588   2.028  10.569  0.2811  1.1549  0.6601
  161SOPE    C217987   5.607   2.110  10.373 -0.5564 -0.1879  0.1986
  161SOPE    HS17988   5.681   2.190  10.394 -0.9809  1.3404 -3.7248
  161SOPE   O2117989   5.522   2.137  10.265 -0.3832 -0.0810  0.4520
  161SOPE   C2117990   5.553   2.244  10.189 -0.1008  1.2300 -0.0969
  161SOPE   O2217991   5.658   2.305  10.201  0.3008  0.3095 -0.0388
  161SOPE   C2217992   5.433   2.257  10.096 -0.0757 -0.8605  0.0161
  161SOPE   H2R17993   5.443   2.361  10.057 -3.8913 -0.6573 -0.6194
  161SOPE   H2S17994   5.333   2.254  10.144  0.5549 -0.0231  1.4255
  161SOPE    C317995   5.695   1.987  10.335 -0.5071 -0.2050 -0.5210
  161SOPE    HX17996   5.634   1.894  10.329  0.5166 -1.0049  1.1293
  161SOPE    HY17997   5.765   1.979  10.421  0.4992  2.2116 -1.0846
  161SOPE   O3117998   5.759   2.005  10.208  0.2517  0.1427 -0.0973
  161SOPE   C3117999   5.871   2.084  10.212  0.0959  0.2784 -0.1717
  161SOPE   O3218000   5.907   2.144  10.311  0.3202  0.2656 -0.1894
  161SOPE   C3218001   5.941   2.079  10.074  0.5870 -0.0984 -0.3403
  161SOPE   H2X18002   5.878   2.032   9.995  2.1972 -1.1854 -1.0079
  161SOPE   H2Y18003   6.038   2.027  10.086  0.3513 -0.1765  1.3164
  161SOPE   C2318004   5.425   2.156   9.976  0.3785  0.1121 -0.2458
  161SOPE   H3R18005   5.325   2.172   9.931  0.7865  1.5523 -0.6948
  161SOPE   H3S18006   5.449   2.057  10.020  1.7830  0.2031 -0.7574
  161SOPE   C2418007   5.530   2.183   9.874 -0.6286 -0.9015 -0.7987
  161SOPE   H4R18008   5.519   2.284   9.830  2.5176 -0.8837 -1.6707
  161SOPE   H4S18009   5.634   2.175   9.912 -0.8292  1.4563  0.3597
  161SOPE   C2518010   5.504   2.080   9.762 -0.5322 -0.2400 -0.3634
  161SOPE   H5R18011   5.499   1.980   9.809  0.7719 -0.0126  0.2842
  161SOPE   H5S18012   5.405   2.101   9.715 -1.2272 -1.8064  0.3728
  161SOPE   C2618013   5.609   2.066   9.649 -0.9264 -1.3927 -0.3314
  161SOPE   H6R18014   5.620   2.169   9.610 -1.1975 -0.7693  1.1857
  161SOPE   H6S18015   5.702   2.025   9.693 -0.4755  1.0137  1.0410
  161SOPE   C2718016   5.560   1.984   9.528  0.2591  0.8835  0.0916
  161SOPE   H7R18017   5.536   1.880   9.559  0.2059  0.1908 -2.1892
  161SOPE   H7S18018   5.465   2.037   9.504 -0.3442  0.8587  2.3444
  161SOPE   C2818019   5.662   1.979   9.411 -0.0759  0.4868 -0.7199
  161SOPE   H8R18020   5.760   1.993   9.461 -0.5444  2.1722 -0.2442
  161SOPE   H8S18021   5.649   1.880   9.361  1.9416  1.3220 -2.9969
  161SOPE   C2918022   5.640   2.097   9.318  0.5474  0.0022  0.5425
  161SOPE   H9118023   5.708   2.183   9.322  0.4801  0.1272 -0.6709
  161SOPE  C21018024   5.537   2.106   9.230 -0.1326 -0.6769 -0.2188
  161SOPE  H10118025   5.545   2.188   9.158  1.5531 -1.6146 -1.1282
  161SOPE  C21118026   5.429   1.994   9.197  0.1281 -0.4820 -0.0660
  161SOPE  H11R18027   5.323   2.021   9.216 -0.7117 -1.7244 -2.8155
  161SOPE  H11S18028   5.444   1.895   9.245  0.2535 -0.4700 -0.0816
  161SOPE  C21218029   5.446   1.957   9.047  0.5170 -0.1027  0.2074
  161SOPE  H12R18030   5.408   1.855   9.028  1.0809 -0.0474 -1.2869
  161SOPE  H12S18031   5.553   1.940   9.024  0.7465  1.7030 -0.1887
  161SOPE  C21318032   5.368   2.053   8.954 -0.5681  0.0156 -0.0378
  161SOPE  H13R18033   5.411   2.154   8.972  1.4593 -1.0396  1.0453
  161SOPE  H13S18034   5.260   2.063   8.981 -1.5721 -2.2378 -2.9567
  161SOPE  C21418035   5.375   2.001   8.814 -0.5058 -0.0220 -0.2238
  161SOPE  H14R18036   5.322   1.904   8.808 -1.9032  0.7786 -1.2288
  161SOPE  H14S18037   5.482   1.984   8.791 -0.0328  2.0628  0.3243
  161SOPE  C21518038   5.319   2.104   8.705  0.0685  0.5747 -0.1942
  161SOPE  H15R18039   5.392   2.188   8.699  1.4095 -0.3746  2.5246
  161SOPE  H15S18040   5.217   2.129   8.743 -0.4231  0.1633 -1.2191
  161SOPE  C21618041   5.294   2.040   8.570 -0.6201 -0.3796  0.2323
  161SOPE  H16R18042   5.269   2.112   8.489  1.3018  0.5505  0.4240
  161SOPE  H16S18043   5.209   1.970   8.581 -0.8309 -0.8989 -4.0805
  161SOPE  C21718044   5.420   1.967   8.508 -0.4612 -1.0873 -0.8556
  161SOPE  H17R18045   5.458   1.897   8.585  0.2924 -0.2059 -0.4230
  161SOPE  H17S18046   5.492   2.046   8.478  0.6379 -1.9476 -0.5041
  161SOPE  C21818047   5.372   1.916   8.369 -0.0300 -0.1728 -0.2306
  161SOPE  H18R18048   5.457   1.863   8.321  0.3906  0.3506 -0.0642
  161SOPE  H18S18049   5.329   1.998   8.308  2.9148  0.1117 -2.0249
  161SOPE  H18T18050   5.288   1.844   8.382  0.1674 -0.2409  0.6898
  161SOPE   C3318051   5.953   2.228  10.017  0.4496  0.6280  0.0061
  161SOPE   H3X18052   6.020   2.286  10.085  2.3770  2.3308 -3.2467
  161SOPE   H3Y18053   5.853   2.277  10.019  0.5161  0.8020 -1.0977
  161SOPE   C3418054   6.005   2.228   9.874 -0.5902  1.2520  0.8215
  161SOPE   H4X18055   6.086   2.153   9.866 -1.2632  0.8126 -2.7346
  161SOPE   H4Y18056   6.056   2.324   9.851 -0.7590  1.1253 -0.1408
  161SOPE   C3518057   5.901   2.213   9.758 -0.4716  0.3599 -0.6206
  161SOPE   H5X18058   5.802   2.246   9.797  0.2083  1.0961  0.5171
  161SOPE   H5Y18059   5.884   2.107   9.733 -0.4358  0.3933 -0.7876
  161SOPE   C3618060   5.951   2.270   9.625 -0.5850  0.1525  0.7566
  161SOPE   H6X18061   5.969   2.380   9.630  1.9679 -0.2975  2.2678
  161SOPE   H6Y18062   5.868   2.247   9.554  0.7740 -0.5189 -0.6219
  161SOPE   C3718063   6.081   2.201   9.581  0.3300 -0.1766  0.5299
  161SOPE   H7X18064   6.063   2.091   9.587 -1.6230  0.0029 -1.3757
  161SOPE   H7Y18065   6.155   2.236   9.656  0.7612 -0.1574  0.0974
  161SOPE   C3818066   6.129   2.236   9.441  0.0435  0.2742 -0.0824
  161SOPE   H8X18067   6.239   2.220   9.435 -0.0876 -1.5900  2.0648
  161SOPE   H8Y18068   6.122   2.345   9.418  0.8563 -0.0045 -1.7157
  161SOPE   C3918069   6.042   2.166   9.333  0.3577 -0.3515 -0.2973
  161SOPE   H9X18070   5.936   2.177   9.363  0.1170  0.1430 -1.3191
  161SOPE   H9Y18071   6.062   2.058   9.351 -0.2491 -0.3892  0.1711
  161SOPE  C31018072   6.065   2.223   9.189  0.0460  0.2125 -0.6095
  161SOPE  H10X18073   6.082   2.333   9.182 -0.8856  0.3790 -0.3871
  161SOPE  H10Y18074   5.983   2.194   9.120 -0.5566  1.2227 -0.3293
  161SOPE  C31118075   6.190   2.154   9.131 -0.5646 -0.7906  0.9471
  161SOPE  H11X18076   6.185   2.043   9.133  2.4376 -0.9258  2.4255
  161SOPE  H11Y18077   6.267   2.187   9.204 -1.4710  0.4702  1.3498
  161SOPE  C31218078   6.241   2.211   8.995 -0.0621  0.2368  0.4481
  161SOPE  H12X18079   6.345   2.246   9.007  0.5241 -0.6525 -1.7403
  161SOPE  H12Y18080   6.176   2.299   8.974 -0.4380 -0.4509 -1.4359
  161SOPE  C31318081   6.230   2.109   8.886 -0.3607  0.0577  0.6429
  161SOPE  H13X18082   6.302   2.028   8.910 -1.3329 -0.7571  0.8296
  161SOPE  H13Y18083   6.284   2.153   8.799  0.8357 -0.7975  0.9374
  161SOPE  C31418084   6.088   2.055   8.853 -0.4829 -0.9957  0.6259
  161SOPE  H14X18085   6.023   2.143   8.833  1.3881  1.3133  4.1335
  161SOPE  H14Y18086   6.050   2.001   8.943 -0.5544  0.3428  1.4138
  161SOPE  C31518087   6.097   1.954   8.736 -0.6009  0.3388  0.3156
  161SOPE  H15X18088   6.019   1.878   8.758 -2.4904  1.6629 -1.6493
  161SOPE  H15Y18089   6.197   1.905   8.729  0.1376  1.5474  2.1175
  161SOPE  C31618090   6.080   2.014   8.601 -0.0926  0.3803 -0.4692
  161SOPE  H16X18091   6.161   2.089   8.588  0.1860  0.2492  0.4918
  161SOPE  H16Y18092   5.982   2.067   8.594 -0.2812 -0.0712 -1.1957
  161SOPE  C31718093   6.088   1.908   8.496  0.7245  0.1070 -1.1638
  161SOPE  H17X18094   6.006   1.836   8.516  1.6892 -0.5460  0.5795
  161SOPE  H17Y18095   6.181   1.848   8.499  2.9004  3.4221  2.5729
  161SOPE  C31818096   6.064   1.971   8.357  0.2232 -0.0894 -0.1082
  161SOPE  H18X18097   6.122   2.063   8.333 -0.4055  0.6612  1.1783
  161SOPE  H18Y18098   5.958   2.005   8.357  0.8481  1.9926 -1.7540
  161SOPE  H18Z18099   6.071   1.891   8.281 -0.5494 -0.3940  0.1257
  162SOPE     N18100   4.543   1.840  11.182 -0.7249 -0.5237 -0.0108
  162SOPE   HN118101   4.519   1.892  11.269 -4.3678 -0.5806 -0.8748
  162SOPE   HN218102   4.635   1.862  11.140 -0.6773  0.4411  0.5961
  162SOPE   HN318103   4.475   1.852  11.104 -1.9584  0.3407  1.1814
  162SOPE   C1218104   4.559   1.695  11.222 -0.1122  0.0952  0.7752
  162SOPE  H12A18105   4.460   1.674  11.270  0.3963  1.2199  2.3612
  162SOPE  H12B18106   4.636   1.681  11.301  1.8237  3.0410 -0.5155
  162SOPE   C1118107   4.586   1.594  11.110 -0.3373 -0.0048  0.0157
  162SOPE  H11A18108   4.591   1.497  11.164  0.9255  0.0681  0.0353
  162SOPE  H11B18109   4.689   1.614  11.074 -0.6482  1.1755 -0.2175
  162SOPE     P18110   4.459   1.478  10.911 -0.5068 -0.2234 -0.2486
  162SOPE   O1318111   4.357   1.521  10.809  0.6675 -0.5986 -0.1898
  162SOPE   O1418112   4.429   1.360  10.989  0.0169  0.0386 -0.1604
  162SOPE   O1218113   4.484   1.602  11.013 -0.1735  0.3266  0.4423
  162SOPE   O1118114   4.609   1.464  10.845 -0.0032 -0.3917 -0.3959
  162SOPE    C118115   4.673   1.577  10.789  0.0386 -0.3088 -0.2402
  162SOPE    HA18116   4.781   1.572  10.812  0.0687  0.6512 -0.1659
  162SOPE    HB18117   4.631   1.670  10.832  1.1536 -0.8287  2.0412
  162SOPE    C218118   4.663   1.581  10.629  0.2494  0.3387  0.0849
  162SOPE    HS18119   4.718   1.675  10.604 -0.8337  0.3305 -2.4887
  162SOPE   O2118120   4.528   1.596  10.577 -0.0628  0.0509  0.2534
  162SOPE   C2118121   4.467   1.712  10.582 -0.2561  0.6399 -1.0857
  162SOPE   O2218122   4.511   1.817  10.624  0.0992  0.2319 -0.2595
  162SOPE   C2218123   4.328   1.704  10.517 -0.2275  0.5273 -0.5078
  162SOPE   H2R18124   4.265   1.788  10.554 -1.4056 -0.2606 -0.7121
  162SOPE   H2S18125   4.291   1.607  10.557 -0.3495  1.2211  1.1033
  162SOPE    C318126   4.723   1.455  10.564  0.0719 -0.2614 -0.2309
  162SOPE    HX18127   4.640   1.381  10.555  1.2132 -1.8013  1.6256
  162SOPE    HY18128   4.799   1.416  10.635  0.2185  1.2076  0.4317
  162SOPE   O3118129   4.782   1.486  10.437  0.5096 -1.0210  0.5392
  162SOPE   C3118130   4.778   1.405  10.332  0.0290  0.4935  0.2030
  162SOPE   O3218131   4.728   1.294  10.335  0.1378  0.3663  0.0279
  162SOPE   C3218132   4.837   1.474  10.211  0.6092  0.7603  0.1328
  162SOPE   H2X18133   4.931   1.524  10.243  2.6664 -1.3830 -2.2403
  162SOPE   H2Y18134   4.770   1.558  10.182 -0.7793 -0.4222 -0.1356
  162SOPE   C2318135   4.327   1.706  10.359 -0.0558 -0.4397  0.6653
  162SOPE   H3R18136   4.224   1.666  10.342 -0.0138 -1.3369  2.4776
  162SOPE   H3S18137   4.402   1.634  10.320 -0.6595  0.4868 -2.3156
  162SOPE   C2418138   4.326   1.854  10.306  0.2458  0.3261  0.5601
  162SOPE   H4R18139   4.232   1.902  10.342 -0.8975 -1.6835  0.3787
  162SOPE   H4S18140   4.408   1.905  10.359  0.5746  1.3689 -0.9450
  162SOPE   C2518141   4.329   1.860  10.157 -0.1570  0.7144  0.0820
  162SOPE   H5R18142   4.341   1.963  10.115  1.3089  0.0137 -1.2947
  162SOPE   H5S18143   4.406   1.791  10.117 -1.6303 -0.7966 -0.1633
  162SOPE   C2618144   4.192   1.808  10.098  0.1010  0.8437  0.0725
  162SOPE   H6R18145   4.146   1.730  10.163  1.6001 -0.0189  0.1313
  162SOPE   H6S18146   4.116   1.889  10.095  0.5339  1.2643  0.4452
  162SOPE   C2718147   4.206   1.752   9.957  0.4901  0.5576 -0.0806
  162SOPE   H7R18148   4.280   1.669   9.958  0.5851  0.5874 -2.2219
  162SOPE   H7S18149   4.109   1.709   9.922  1.6007 -1.0624 -1.2222
  162SOPE   C2818150   4.268   1.842   9.849  0.2945 -0.1175  0.3310
  162SOPE   H8R18151   4.232   1.945   9.869 -0.2871 -0.1817 -0.3612
  162SOPE   H8S18152   4.379   1.848   9.855  0.3189 -0.7067  0.5107
  162SOPE   C2918153   4.224   1.802   9.708 -0.1774  0.0598 -1.1125
  162SOPE   H9118154   4.140   1.731   9.710  2.0130 -2.5878  0.8404
  162SOPE  C21018155   4.285   1.845   9.599  0.2952  0.1007  0.1642
  162SOPE  H10118156   4.242   1.815   9.503 -0.2002  0.6720  0.2074
  162SOPE  C21118157   4.408   1.942   9.587  1.0348  0.4856 -0.3584
  162SOPE  H11R18158   4.457   1.972   9.682  0.9838  1.0356 -0.5024
  162SOPE  H11S18159   4.373   2.028   9.525  1.0319 -0.7968 -2.1877
  162SOPE  C21218160   4.517   1.885   9.497  0.3886  0.5397 -0.9729
  162SOPE  H12R18161   4.465   1.869   9.400 -0.8037 -1.5220 -0.0281
  162SOPE  H12S18162   4.552   1.785   9.531 -1.9497  0.3623  1.1091
  162SOPE  C21318163   4.632   1.977   9.460  0.0232 -0.1189 -0.1766
  162SOPE  H13R18164   4.699   1.986   9.548 -0.7683 -0.6693  0.4843
  162SOPE  H13S18165   4.596   2.079   9.435  1.0896  0.0385 -1.1379
  162SOPE  C21418166   4.715   1.917   9.346 -0.3853  0.1502  0.2718
  162SOPE  H14R18167   4.653   1.899   9.256  1.5959 -0.2083 -1.0788
  162SOPE  H14S18168   4.760   1.819   9.373  0.8861  0.7902  0.5499
  162SOPE  C21518169   4.840   2.000   9.316  0.4975 -0.6282  0.0157
  162SOPE  H15R18170   4.887   2.023   9.414 -0.7080 -2.6866  1.1276
  162SOPE  H15S18171   4.808   2.091   9.261  1.3869 -0.8872 -0.9350
  162SOPE  C21618172   4.952   1.925   9.238  0.4392  0.5190 -0.4343
  162SOPE  H16R18173   4.918   1.820   9.230  2.5751 -0.2446 -0.0420
  162SOPE  H16S18174   5.048   1.928   9.294 -0.5104  3.2338  1.1362
  162SOPE  C21718175   4.969   1.970   9.098 -0.8685  1.0374  0.6832
  162SOPE  H17R18176   5.040   2.055   9.096 -0.2469  0.4963 -1.2486
  162SOPE  H17S18177   4.871   2.010   9.065 -0.9674  0.5253  0.3513
  162SOPE  C21818178   5.033   1.852   9.015  0.5862  0.1084 -0.1308
  162SOPE  H18R18179   4.979   1.757   9.030 -1.2241  1.2162  0.4907
  162SOPE  H18S18180   5.141   1.833   9.037 -0.0861 -1.6873  1.8031
  162SOPE  H18T18181   5.030   1.869   8.906  2.7120 -1.9158 -0.5271
  162SOPE   C3318182   4.867   1.388  10.079 -0.4648 -0.1442 -0.0829
  162SOPE   H3X18183   4.935   1.308  10.113  2.1452  1.3050 -1.7368
  162SOPE   H3Y18184   4.924   1.447  10.004  2.8325  0.4509  2.7499
  162SOPE   C3418185   4.746   1.316  10.009  0.5924 -0.1147 -0.1216
  162SOPE   H4X18186   4.685   1.266  10.087  1.8194 -0.9897  0.2914
  162SOPE   H4Y18187   4.793   1.244   9.939 -2.0509 -1.4231 -0.6176
  162SOPE   C3518188   4.668   1.416   9.921  0.7535  0.1046 -0.1308
  162SOPE   H5X18189   4.742   1.459   9.850  2.6805 -2.9054 -0.0167
  162SOPE   H5Y18190   4.621   1.492   9.988 -0.5066 -1.0547  0.3043
  162SOPE   C3618191   4.555   1.344   9.841  0.1909 -0.2081  0.1059
  162SOPE   H6X18192   4.474   1.298   9.901  0.1555  0.2646  0.4205
  162SOPE   H6Y18193   4.597   1.249   9.800 -0.4045  0.6177 -2.4951
  162SOPE   C3718194   4.499   1.438   9.733  0.0475 -0.4516 -0.1218
  162SOPE   H7X18195   4.566   1.526   9.722  0.6553 -0.8232  0.5589
  162SOPE   H7Y18196   4.405   1.474   9.780 -1.1925 -0.8013 -2.2728
  162SOPE   C3818197   4.445   1.357   9.616  0.3470  0.5495 -0.7779
  162SOPE   H8X18198   4.341   1.324   9.639  0.5973  0.9850  1.0752
  162SOPE   H8Y18199   4.502   1.265   9.592 -0.8036 -0.8013  1.4876
  162SOPE   C3918200   4.439   1.439   9.492 -0.2768 -0.1394 -0.1291
  162SOPE   H9X18201   4.535   1.491   9.469 -0.1951  0.2011  0.9379
  162SOPE   H9Y18202   4.368   1.524   9.503 -0.5564 -0.1430 -1.7395
  162SOPE  C31018203   4.394   1.349   9.374  0.1301 -0.7990  0.0709
  162SOPE  H10X18204   4.317   1.276   9.407 -0.8139 -0.3850 -1.1676
  162SOPE  H10Y18205   4.485   1.300   9.333  1.1274  0.0832  1.1724
  162SOPE  C31118206   4.322   1.424   9.257 -0.5592  0.7816 -0.3130
  162SOPE  H11X18207   4.389   1.497   9.206  1.2758  0.3945  1.5170
  162SOPE  H11Y18208   4.240   1.480   9.307 -0.4983  1.6153 -1.1229
  162SOPE  C31218209   4.266   1.336   9.136 -0.7073  0.5206 -0.3795
  162SOPE  H12X18210   4.208   1.252   9.182 -0.6640  1.7174  1.9174
  162SOPE  H12Y18211   4.348   1.291   9.078 -0.6508  0.1583 -0.0242
  162SOPE  C31318212   4.179   1.412   9.041  0.2066 -0.1279  0.2407
  162SOPE  H13X18213   4.095   1.463   9.092  0.5793  0.9223 -0.1924
  162SOPE  H13Y18214   4.132   1.341   8.969 -1.9975  0.5487  0.9743
  162SOPE  C31418215   4.267   1.519   8.965 -0.4649 -0.7218  0.0461
  162SOPE  H14X18216   4.357   1.469   8.922 -0.0085  1.3017 -1.4419
  162SOPE  H14Y18217   4.306   1.604   9.024 -0.2837  0.0102 -1.1034
  162SOPE  C31518218   4.185   1.570   8.846  0.0303  0.7495 -0.0442
  162SOPE  H15X18219   4.138   1.483   8.794  0.4387 -1.1437  2.6346
  162SOPE  H15Y18220   4.240   1.625   8.766  1.1826 -0.6180 -0.2151
  162SOPE  C31618221   4.069   1.670   8.890 -0.5193  0.2581  0.0664
  162SOPE  H16X18222   4.104   1.760   8.943  1.1302 -0.5917  0.4627
  162SOPE  H16Y18223   4.008   1.616   8.966 -2.4713  3.4914  0.8844
  162SOPE  C31718224   3.979   1.705   8.767  0.2062 -0.3014  0.2945
  162SOPE  H17X18225   4.046   1.735   8.684  1.5060 -2.4095  0.5366
  162SOPE  H17Y18226   3.908   1.782   8.805 -0.1698  0.2487 -1.5079
  162SOPE  C31818227   3.894   1.590   8.711  0.2277  0.2701 -0.7522
  162SOPE  H18X18228   3.834   1.608   8.619  0.8705  0.1295 -1.2053
  162SOPE  H18Y18229   3.823   1.556   8.789  1.7462 -0.2775  0.4201
  162SOPE  H18Z18230   3.963   1.505   8.691 -0.4754  0.4160 -4.0601
  163SOPE     N18231   4.541   6.346  10.708  0.1060 -0.2605 -0.0908
  163SOPE   HN118232   4.528   6.408  10.626 -1.0470 -0.6633 -0.2264
  163SOPE   HN218233   4.572   6.256  10.667  0.9420  0.0624 -0.1818
  163SOPE   HN318234   4.445   6.327  10.743  0.3939 -2.7437 -0.5573
  163SOPE   C1218235   4.641   6.409  10.806 -0.1466 -0.5542 -0.7935
  163SOPE  H12A18236   4.581   6.471  10.876  0.6923  0.5066 -0.9980
  163SOPE  H12B18237   4.698   6.482  10.744 -0.8503  0.5793 -0.1043
  163SOPE   C1118238   4.731   6.305  10.870  0.7162 -0.2235 -0.4872
  163SOPE  H11A18239   4.674   6.253  10.950 -0.5802  0.6202 -0.8360
  163SOPE  H11B18240   4.804   6.368  10.926 -0.4582  0.7385  0.0116
  163SOPE     P18241   4.751   6.072  10.759  0.3911 -0.0640 -0.3308
  163SOPE   O1318242   4.614   6.077  10.710  0.4821 -0.5562  0.0722
  163SOPE   O1418243   4.767   6.006  10.890 -0.3539 -0.0699 -0.6416
  163SOPE   O1218244   4.796   6.223  10.773  0.1417  0.3035 -0.3691
  163SOPE   O1118245   4.859   6.001  10.657  0.4076 -0.7070 -0.4292
  163SOPE    C118246   4.832   6.019  10.516 -0.0839 -0.0516 -0.5258
  163SOPE    HA18247   4.722   6.012  10.502 -0.2313  1.1525  0.0268
  163SOPE    HB18248   4.878   5.935  10.459  0.2337  0.1496 -0.5619
  163SOPE    C218249   4.890   6.160  10.470  0.3430 -0.4412  0.6203
  163SOPE    HS18250   4.874   6.246  10.538 -0.0590  0.0542 -0.0881
  163SOPE   O2118251   4.831   6.193  10.348  0.2536  0.2290  0.6444
  163SOPE   C2118252   4.710   6.261  10.363 -0.1640 -0.2342 -0.0145
  163SOPE   O2218253   4.649   6.282  10.462 -0.1802  0.7703  0.4579
  163SOPE   C2218254   4.651   6.318  10.233  0.0222 -0.2448  0.0377
  163SOPE   H2R18255   4.637   6.428  10.240 -2.0096 -0.5841  1.8442
  163SOPE   H2S18256   4.553   6.272  10.210 -1.2608  2.4298 -0.0975
  163SOPE    C318257   5.039   6.154  10.443 -0.3875 -0.4702  0.2486
  163SOPE    HX18258   5.083   6.119  10.539 -0.8835 -1.8045  0.0062
  163SOPE    HY18259   5.092   6.251  10.449 -0.6736 -0.1935 -1.4309
  163SOPE   O3118260   5.074   6.063  10.337  0.1217 -0.6415  0.3625
  163SOPE   C3118261   5.096   6.130  10.227  0.7668 -0.0900  0.2878
  163SOPE   O3218262   5.132   6.243  10.213 -0.5581  0.5547  0.4403
  163SOPE   C3218263   5.059   6.040  10.110 -0.4901  0.1442 -0.3682
  163SOPE   H2X18264   4.948   6.031  10.116 -0.6418  2.2637  0.2878
  163SOPE   H2Y18265   5.119   5.947  10.119  0.2749  0.3348 -3.0076
  163SOPE   C2318266   4.738   6.289  10.110 -0.8150 -0.0309 -0.2598
  163SOPE   H3R18267   4.776   6.186  10.123 -0.7360  0.2633  1.9658
  163SOPE   H3S18268   4.821   6.363  10.112 -1.5441  0.8745 -2.1583
  163SOPE   C2418269   4.654   6.292   9.975  0.3628  0.6251  0.3951
  163SOPE   H4R18270   4.564   6.228   9.975  1.1786 -0.5709 -1.4881
  163SOPE   H4S18271   4.614   6.394   9.955  2.4214  1.4927  0.5393
  163SOPE   C2518272   4.734   6.230   9.858  0.4637  0.0188 -0.0292
  163SOPE   H5R18273   4.806   6.303   9.815 -0.2580  0.6516 -0.1861
  163SOPE   H5S18274   4.786   6.140   9.894 -0.2462 -1.7369 -3.1786
  163SOPE   C2618275   4.644   6.179   9.742  0.0685 -0.3013  0.5571
  163SOPE   H6R18276   4.704   6.109   9.680 -0.7309  1.2783 -2.0632
  163SOPE   H6S18277   4.563   6.120   9.791  0.1473 -1.0413 -0.1917
  163SOPE   C2718278   4.578   6.286   9.651 -0.1764  0.1827  1.1235
  163SOPE   H7R18279   4.479   6.248   9.619  1.2360 -1.4610 -1.4398
  163SOPE   H7S18280   4.547   6.369   9.718  1.5695  1.3290  0.5383
  163SOPE   C2818281   4.670   6.347   9.542 -1.1155  0.3259  0.7803
  163SOPE   H8R18282   4.620   6.432   9.491  1.2192  0.4884 -1.3406
  163SOPE   H8S18283   4.752   6.393   9.602 -0.2772 -0.8037  0.5140
  163SOPE   C2918284   4.725   6.259   9.436 -0.0774 -0.4445  0.1869
  163SOPE   H9118285   4.827   6.222   9.452 -0.1783 -0.3099  1.2008
  163SOPE  C21018286   4.653   6.229   9.326  0.0678 -0.2036  1.0667
  163SOPE  H10118287   4.701   6.164   9.251 -3.8537 -0.3322 -1.4787
  163SOPE  C21118288   4.517   6.283   9.284  0.3744  0.2017 -0.2887
  163SOPE  H11R18289   4.478   6.352   9.362 -3.9933 -0.9150 -1.3737
  163SOPE  H11S18290   4.445   6.199   9.285 -0.5467  0.9793  1.5140
  163SOPE  C21218291   4.508   6.351   9.150 -0.1549 -0.0724 -0.0150
  163SOPE  H12R18292   4.401   6.382   9.150 -0.4702 -1.0446 -2.6151
  163SOPE  H12S18293   4.517   6.272   9.073  2.3241  0.4826 -0.3309
  163SOPE  C21318294   4.612   6.457   9.117  0.9232 -0.0043 -0.7151
  163SOPE  H13R18295   4.708   6.402   9.122  1.6068  1.1608 -0.7288
  163SOPE  H13S18296   4.613   6.537   9.194  2.0880 -0.0261 -0.6990
  163SOPE  C21418297   4.591   6.523   8.982  0.8010 -0.1860 -0.1243
  163SOPE  H14R18298   4.679   6.590   8.971  0.2487  0.4093 -0.9601
  163SOPE  H14S18299   4.493   6.576   8.986 -0.9526 -3.2014 -1.5984
  163SOPE  C21518300   4.568   6.428   8.863 -0.1558  0.3717  0.0126
  163SOPE  H15R18301   4.522   6.482   8.778 -0.8303  1.0142  0.7736
  163SOPE  H15S18302   4.502   6.344   8.894 -0.8617  1.1653  0.6879
  163SOPE  C21618303   4.697   6.361   8.830  0.0661 -0.2211  0.0861
  163SOPE  H16R18304   4.747   6.315   8.918 -2.7279  0.7483  2.2481
  163SOPE  H16S18305   4.759   6.444   8.790  0.7877  0.5253  2.6355
  163SOPE  C21718306   4.681   6.240   8.737 -0.1000 -0.5280 -0.4380
  163SOPE  H17R18307   4.601   6.175   8.779  0.4807 -0.7515  0.3233
  163SOPE  H17S18308   4.779   6.188   8.749 -0.0779 -0.0158  1.8317
  163SOPE  C21818309   4.644   6.271   8.590  0.1906  0.3665 -0.7222
  163SOPE  H18R18310   4.721   6.338   8.547  1.0978 -0.6231 -0.6589
  163SOPE  H18S18311   4.547   6.324   8.578  0.4129  0.2209 -3.6422
  163SOPE  H18T18312   4.636   6.176   8.534 -0.9492  0.1400 -0.1834
  163SOPE   C3318313   5.085   6.109   9.973 -0.2449  0.5983 -0.7566
  163SOPE   H3X18314   5.192   6.138   9.963  0.0233 -0.2461 -0.3090
  163SOPE   H3Y18315   5.027   6.204   9.967 -1.0527  0.0119 -2.7604
  163SOPE   C3418316   5.069   6.029   9.841  0.3698 -0.6285 -0.3492
  163SOPE   H4X18317   4.961   6.010   9.825 -0.1303  0.6431  1.4552
  163SOPE   H4Y18318   5.121   5.931   9.841  1.3707 -0.1006  0.1066
  163SOPE   C3518319   5.131   6.107   9.727  0.5674  0.4747 -0.2862
  163SOPE   H5X18320   5.238   6.128   9.748  0.6612  0.8706 -1.1445
  163SOPE   H5Y18321   5.085   6.203   9.694  0.2373 -0.1934 -1.7808
  163SOPE   C3618322   5.131   6.038   9.586  0.3640 -0.7897 -0.7123
  163SOPE   H6X18323   5.202   5.953   9.582  1.3711  0.0442 -0.5542
  163SOPE   H6Y18324   5.171   6.114   9.515  2.8589 -0.9674  0.4587
  163SOPE   C3718325   4.992   5.998   9.532  0.6339  0.3085 -0.3861
  163SOPE   H7X18326   4.935   6.093   9.539 -0.9731 -0.7273  0.8932
  163SOPE   H7Y18327   4.947   5.928   9.605  0.3462  1.6223  0.7196
  163SOPE   C3818328   4.986   5.930   9.392  0.3230 -0.4525 -0.4214
  163SOPE   H8X18329   4.893   5.872   9.380  0.2293  0.2017 -3.1580
  163SOPE   H8Y18330   5.068   5.855   9.401  0.6519 -0.1280 -0.6855
  163SOPE   C3918331   5.029   6.023   9.270 -0.2224  0.2380 -0.3273
  163SOPE   H9X18332   5.115   6.088   9.301 -0.8724  1.0430 -0.1857
  163SOPE   H9Y18333   4.949   6.096   9.247 -0.6532  0.0265  0.4822
  163SOPE  C31018334   5.068   5.939   9.154  0.1011  0.4867 -0.0316
  163SOPE  H10X18335   4.987   5.865   9.133  1.1363 -0.8280  0.4992
  163SOPE  H10Y18336   5.159   5.880   9.178 -0.4696 -1.1272 -1.6472
  163SOPE  C31118337   5.110   6.022   9.038 -0.1747  0.8124  0.2795
  163SOPE  H11X18338   5.215   6.054   9.055 -0.2069 -0.0017  2.0754
  163SOPE  H11Y18339   5.036   6.104   9.023 -2.3300 -0.8787  1.3396
  163SOPE  C31218340   5.120   5.949   8.898  0.0453  0.0791  0.1442
  163SOPE  H12X18341   5.017   5.911   8.882 -0.4502  0.6323  1.9159
  163SOPE  H12Y18342   5.198   5.870   8.899 -1.2478 -1.1913  0.5376
  163SOPE  C31318343   5.165   6.052   8.790 -0.2699  0.8709 -0.5537
  163SOPE  H13X18344   5.250   6.117   8.823 -0.1550  0.3910  0.1212
  163SOPE  H13Y18345   5.083   6.125   8.778 -0.5742  0.8249  1.1112
  163SOPE  C31418346   5.183   5.993   8.649  0.3571  0.1282  0.3755
  163SOPE  H14X18347   5.239   6.076   8.600  2.6654 -0.4433  1.9641
  163SOPE  H14Y18348   5.083   5.978   8.603  0.4175 -1.7318  0.8154
  163SOPE  C31518349   5.275   5.863   8.639 -0.0433 -0.3817  0.4171
  163SOPE  H15X18350   5.222   5.774   8.681 -0.6535 -0.3273 -0.2194
  163SOPE  H15Y18351   5.372   5.889   8.685  1.8385 -2.2631 -2.3295
  163SOPE  C31618352   5.308   5.822   8.493 -0.2425  0.5035 -0.1053
  163SOPE  H16X18353   5.389   5.882   8.446 -0.9736  1.4646 -0.1404
  163SOPE  H16Y18354   5.216   5.837   8.433  0.2394 -1.1424 -1.2979
  163SOPE  C31718355   5.356   5.676   8.477 -0.6173  0.4338 -0.8548
  163SOPE  H17X18356   5.289   5.606   8.531 -1.2296  0.2264 -1.8568
  163SOPE  H17Y18357   5.456   5.679   8.525 -1.1048 -2.1430  0.4465
  163SOPE  C31818358   5.355   5.635   8.326  0.4268 -0.1729  0.0571
  163SOPE  H18X18359   5.254   5.665   8.291 -0.1067 -0.4674  1.3159
  163SOPE  H18Y18360   5.376   5.526   8.324 -0.8989 -0.4186 -1.8444
  163SOPE  H18Z18361   5.425   5.690   8.260  0.8441  0.3260  0.9075
  164SOPE     N18362   1.021   3.636  11.060 -0.4530 -0.3258  0.1736
  164SOPE   HN118363   0.935   3.692  11.076  1.6395  2.5463  1.8540
  164SOPE   HN218364   1.009   3.535  11.035  1.0590 -0.2463 -0.9604
  164SOPE   HN318365   1.083   3.644  11.143 -0.4005 -0.0237  0.1052
  164SOPE   C1218366   1.112   3.698  10.958 -0.0808 -0.0438  0.3224
  164SOPE  H12A18367   1.181   3.618  10.923 -1.3288 -0.2672 -1.6631
  164SOPE  H12B18368   1.168   3.785  10.999 -0.9790  0.5987  0.2099
  164SOPE   C1118369   1.025   3.745  10.846 -0.2963  0.1317  0.7317
  164SOPE  H11A18370   1.100   3.780  10.772 -0.8048  0.4964  0.3868
  164SOPE  H11B18371   0.959   3.833  10.859 -1.0687 -0.0528 -1.7422
  164SOPE     P18372   0.949   3.585  10.646  0.2822 -0.3128 -0.2272
  164SOPE   O1318373   0.812   3.530  10.622 -0.1864  0.4967  0.2552
  164SOPE   O1418374   1.068   3.497  10.619  0.3691  0.5426  0.3832
  164SOPE   O1218375   0.947   3.631  10.791 -0.2626  0.0374  0.3444
  164SOPE   O1118376   0.964   3.725  10.568 -0.4882 -0.8795  0.1834
  164SOPE    C118377   0.858   3.819  10.576  0.9776 -0.4919 -0.3286
  164SOPE    HA18378   0.833   3.835  10.683  3.3403  3.1621 -0.2404
  164SOPE    HB18379   0.773   3.762  10.533 -1.0755  1.3877  1.0785
  164SOPE    C218380   0.887   3.956  10.524  0.1419 -0.2781  0.2950
  164SOPE    HS18381   0.794   4.017  10.526  0.4115  0.1413  0.1216
  164SOPE   O2118382   0.941   3.952  10.392 -0.3529  0.2963 -0.1713
  164SOPE   C2118383   0.847   3.921  10.303 -0.5859 -0.3349  0.5395
  164SOPE   O2218384   0.729   3.906  10.327 -0.9704 -0.1350  0.1762
  164SOPE   C2218385   0.908   3.908  10.160  0.6962  0.2432  0.5510
  164SOPE   H2R18386   0.984   3.827  10.155  1.4751  0.9257  1.1137
  164SOPE   H2S18387   0.965   4.002  10.141  0.6522  0.2810  0.6069
  164SOPE    C318388   0.984   4.035  10.611  0.4264 -0.6019 -0.1362
  164SOPE    HX18389   1.080   3.990  10.643  0.1761  0.4408  2.2469
  164SOPE    HY18390   0.933   4.035  10.710 -2.4401  0.4592 -1.5471
  164SOPE   O3118391   1.004   4.167  10.560 -0.2838  0.2357  0.5574
  164SOPE   C3118392   0.905   4.251  10.593  0.2923 -0.3307  0.3497
  164SOPE   O3218393   0.811   4.222  10.669  0.2315  0.0458 -0.1763
  164SOPE   C3218394   0.907   4.373  10.505 -0.4674 -0.7517  0.1448
  164SOPE   H2X18395   1.001   4.430  10.522 -0.9922  0.1986 -0.1423
  164SOPE   H2Y18396   0.823   4.435  10.543 -0.0655  0.2359 -0.5792
  164SOPE   C2318397   0.817   3.893  10.038 -0.0012  0.7831 -0.9412
  164SOPE   H3R18398   0.747   3.979  10.048  2.0368  2.3072  0.6610
  164SOPE   H3S18399   0.758   3.799  10.048 -0.2768  1.1852  1.5213
  164SOPE   C2418400   0.899   3.883   9.906 -0.1105 -0.6894 -1.0793
  164SOPE   H4R18401   0.982   3.956   9.922 -0.1452 -1.2310  1.8021
  164SOPE   H4S18402   0.951   3.786   9.892  2.2847  0.4003 -0.0104
  164SOPE   C2518403   0.812   3.929   9.786 -0.1748 -0.3383  0.5949
  164SOPE   H5R18404   0.736   3.857   9.748 -1.7313  2.0760 -0.9896
  164SOPE   H5S18405   0.751   4.017   9.817 -2.1213 -1.2305 -0.6912
  164SOPE   C2618406   0.914   3.981   9.684 -0.1850  0.5302  0.2420
  164SOPE   H6R18407   0.992   4.046   9.729  1.2400 -1.6638  1.0263
  164SOPE   H6S18408   0.972   3.898   9.638 -0.3702  0.9403 -0.7409
  164SOPE   C2718409   0.846   4.053   9.573 -0.1531 -0.4445  0.3125
  164SOPE   H7R18410   0.787   4.131   9.626 -0.6088  0.0254 -0.8887
  164SOPE   H7S18411   0.930   4.094   9.513 -0.3244  1.7788  1.5202
  164SOPE   C2818412   0.761   3.967   9.483  0.3554 -0.3121 -0.0056
  164SOPE   H8R18413   0.680   3.920   9.542 -1.1720 -0.6156 -2.2715
  164SOPE   H8S18414   0.721   4.023   9.396  1.6357  0.0142 -0.3968
  164SOPE   C2918415   0.842   3.850   9.425 -0.4211 -0.6901 -0.5367
  164SOPE   H9118416   0.830   3.759   9.486  0.9428  0.1852  1.0679
  164SOPE  C21018417   0.911   3.858   9.316 -0.1783 -0.0821 -0.0359
  164SOPE  H10118418   0.970   3.769   9.290 -0.9293 -0.9774  1.2485
  164SOPE  C21118419   0.930   3.981   9.237  0.1094 -0.8477 -0.1840
  164SOPE  H11R18420   0.931   4.075   9.296  1.2230 -0.1073 -1.3487
  164SOPE  H11S18421   0.848   4.000   9.165  0.4042 -1.2306 -0.6195
  164SOPE  C21218422   1.068   3.958   9.166  0.9014  0.3172  0.3151
  164SOPE  H12R18423   1.060   3.861   9.113 -4.5862  1.1579 -0.6689
  164SOPE  H12S18424   1.150   3.954   9.240 -0.0276 -0.3895  1.3119
  164SOPE  C21318425   1.101   4.067   9.059  0.6667  0.4390 -0.2512
  164SOPE  H13R18426   1.080   4.167   9.104 -1.2727  0.1587 -0.5041
  164SOPE  H13S18427   1.019   4.051   8.986 -2.2891 -0.8293  3.1806
  164SOPE  C21418428   1.241   4.064   9.004  0.0686  0.3593  0.2981
  164SOPE  H14R18429   1.309   4.069   9.092 -0.8911 -0.7784  1.1087
  164SOPE  H14S18430   1.265   4.149   8.936 -1.5892  1.7729  1.4402
  164SOPE  C21518431   1.259   3.935   8.924  0.3164  0.2788  0.5720
  164SOPE  H15R18432   1.181   3.931   8.844 -0.3172 -0.5467  1.2254
  164SOPE  H15S18433   1.241   3.846   8.988 -0.5571  2.1383  2.9933
  164SOPE  C21618434   1.395   3.923   8.858 -0.1429  0.0560  0.2871
  164SOPE  H16R18435   1.477   3.943   8.930 -0.4243  0.4889  0.4939
  164SOPE  H16S18436   1.404   4.001   8.780 -0.0900 -1.7753 -1.5767
  164SOPE  C21718437   1.408   3.781   8.805 -0.1096 -0.6101  0.5404
  164SOPE  H17R18438   1.331   3.776   8.726 -2.1926  1.5622  2.3941
  164SOPE  H17S18439   1.382   3.706   8.883 -2.8566 -0.7841 -0.5085
  164SOPE  C21818440   1.552   3.753   8.757  0.0954  0.7966  0.4296
  164SOPE  H18R18441   1.558   3.682   8.673 -0.6715  1.2297  0.0058
  164SOPE  H18S18442   1.620   3.733   8.843  0.8107 -2.6128 -0.8723
  164SOPE  H18T18443   1.591   3.841   8.702 -4.6959  2.6043 -0.3085
  164SOPE   C3318444   0.890   4.347  10.349 -0.8527 -0.0509  0.1130
  164SOPE   H3X18445   0.964   4.270  10.323  0.0087  1.0038 -0.5970
  164SOPE   H3Y18446   0.901   4.445  10.298 -0.4915  0.3409  0.9330
  164SOPE   C3418447   0.744   4.311  10.308 -0.4985  0.1060 -0.4743
  164SOPE   H4X18448   0.679   4.389  10.354 -1.3377 -0.9663  0.2138
  164SOPE   H4Y18449   0.695   4.233  10.370 -0.5127 -0.1834 -0.8493
  164SOPE   C3518450   0.722   4.277  10.157  0.7420  0.2658  0.2783
  164SOPE   H5X18451   0.618   4.239  10.147 -0.3826  3.0517  0.7089
  164SOPE   H5Y18452   0.779   4.185  10.134 -1.4501  0.0189 -4.7436
  164SOPE   C3618453   0.754   4.390  10.054 -0.0035 -0.0663  0.2172
  164SOPE   H6X18454   0.865   4.392  10.046 -0.1105 -0.0210 -1.5653
  164SOPE   H6Y18455   0.707   4.482  10.094 -1.2813 -0.5686 -0.1281
  164SOPE   C3718456   0.699   4.360   9.908  0.0367  0.3391  1.1427
  164SOPE   H7X18457   0.588   4.364   9.914 -0.0576  1.1723 -0.7225
  164SOPE   H7Y18458   0.727   4.260   9.870 -0.9115  0.1773  0.8795
  164SOPE   C3818459   0.743   4.458   9.815 -0.2679  0.3600 -0.3622
  164SOPE   H8X18460   0.854   4.462   9.816 -0.2335 -0.1430 -1.2105
  164SOPE   H8Y18461   0.710   4.562   9.838 -1.5319  0.0053 -0.5950
  164SOPE   C3918462   0.711   4.424   9.669 -0.1757 -0.4394 -0.0311
  164SOPE   H9X18463   0.602   4.406   9.657 -0.3975  0.0537  1.1874
  164SOPE   H9Y18464   0.765   4.331   9.641  1.0753  0.3037 -0.1631
  164SOPE  C31018465   0.768   4.525   9.566  0.3371 -0.2017  0.4434
  164SOPE  H10X18466   0.879   4.528   9.574  0.6755 -2.9770 -2.4099
  164SOPE  H10Y18467   0.717   4.623   9.581  0.2759 -0.4174  1.6972
  164SOPE  C31118468   0.743   4.484   9.420  0.0163  0.4876  0.0641
  164SOPE  H11X18469   0.634   4.462   9.410 -0.2292 -0.4597  3.9054
  164SOPE  H11Y18470   0.804   4.393   9.404 -0.9335  0.1280 -1.5820
  164SOPE  C31218471   0.797   4.598   9.328 -0.2404 -0.0305  0.3170
  164SOPE  H12X18472   0.906   4.600   9.349 -0.2596  0.3463  0.3881
  164SOPE  H12Y18473   0.750   4.696   9.351 -0.6300  0.6101 -2.9566
  164SOPE  C31318474   0.779   4.578   9.177  0.1140  0.5104 -0.9844
  164SOPE  H13X18475   0.824   4.660   9.117  1.7569 -0.3000 -0.8984
  164SOPE  H13Y18476   0.672   4.573   9.148  0.1461 -2.5130 -0.7146
  164SOPE  C31418477   0.853   4.453   9.126  0.2532 -1.0213 -0.2888
  164SOPE  H14X18478   0.847   4.376   9.207 -2.4103 -1.4807 -0.8559
  164SOPE  H14Y18479   0.958   4.487   9.120  0.6978 -2.4513 -0.9758
  164SOPE  C31518480   0.798   4.401   8.994  0.8210  0.5898  0.0285
  164SOPE  H15X18481   0.693   4.365   8.998  0.9245  0.0236 -2.0223
  164SOPE  H15Y18482   0.857   4.318   8.950 -0.5598 -0.3180 -0.1460
  164SOPE  C31618483   0.801   4.526   8.896 -0.1259  0.1011  0.2996
  164SOPE  H16X18484   0.735   4.605   8.935 -1.3021 -0.9486  0.4582
  164SOPE  H16Y18485   0.739   4.503   8.807  0.3474 -0.0074 -0.0034
  164SOPE  C31718486   0.936   4.603   8.857 -0.1253  0.3362  0.3587
  164SOPE  H17X18487   1.005   4.541   8.796 -0.0404  0.0649  0.7292
  164SOPE  H17Y18488   0.991   4.629   8.949 -1.5415  3.0259  0.4907
  164SOPE  C31818489   0.882   4.728   8.787  1.0111 -0.7419  0.1207
  164SOPE  H18X18490   0.972   4.781   8.749  0.6094  0.4451  0.7913
  164SOPE  H18Y18491   0.824   4.797   8.852  1.7171  1.7331 -1.8004
  164SOPE  H18Z18492   0.815   4.703   8.702  0.7572  0.1275  0.0614
  165SOPE     N18493   6.398   5.435  10.670  0.5332  0.0039 -0.3353
  165SOPE   HN118494   6.480   5.493  10.643 -1.5100  1.2653 -4.3979
  165SOPE   HN218495   6.310   5.486  10.647  0.2838  0.0735  0.7552
  165SOPE   HN318496   6.404   5.431  10.773  0.5542  0.6557 -0.3064
  165SOPE   C1218497   6.414   5.301  10.613 -0.0311 -0.8375  0.2611
  165SOPE  H12A18498   6.430   5.309  10.503  2.5222 -3.4861  0.3853
  165SOPE  H12B18499   6.330   5.229  10.625 -1.2683  0.7008  1.0697
  165SOPE   C1118500   6.539   5.234  10.667 -0.0858  0.1793  0.5102
  165SOPE  H11A18501   6.620   5.310  10.654 -0.3294  0.2121 -0.9444
  165SOPE  H11B18502   6.578   5.148  10.609  0.4107 -0.1084  1.2712
  165SOPE     P18503   6.644   5.135  10.872  0.1187 -0.2950 -0.2803
  165SOPE   O1318504   6.610   5.085  11.009 -0.1005  0.0137 -0.3191
  165SOPE   O1418505   6.751   5.242  10.861  0.6212  0.2669 -0.0342
  165SOPE   O1218506   6.516   5.190  10.803 -0.4320 -0.0308  0.0179
  165SOPE   O1118507   6.673   5.015  10.772 -0.0742 -0.1145  0.2507
  165SOPE    C118508   6.803   4.956  10.765 -0.1402 -0.0086 -0.8630
  165SOPE    HA18509   6.797   4.857  10.714 -0.2659  0.6299 -2.1111
  165SOPE    HB18510   6.843   4.930  10.865 -0.0355  2.4835 -0.2224
  165SOPE    C218511   6.899   5.037  10.673  0.1318  0.2645 -0.2422
  165SOPE    HS18512   6.918   5.137  10.717  1.4938 -0.1691  0.1829
  165SOPE   O2118513   6.841   5.045  10.539 -0.0316  0.2409  0.0480
  165SOPE   C2118514   6.867   5.161  10.476  0.4640 -0.0065  0.2219
  165SOPE   O2218515   6.924   5.259  10.522 -0.4134 -0.1337  0.0922
  165SOPE   C2218516   6.817   5.138  10.334 -0.0082  0.0924 -0.2578
  165SOPE   H2R18517   6.707   5.133  10.347 -0.1834 -1.3857 -2.0907
  165SOPE   H2S18518   6.851   5.039  10.297  2.2115  0.4964  0.6393
  165SOPE    C318519   7.034   4.958  10.673  0.0322  0.5240 -0.1727
  165SOPE    HX18520   7.014   4.864  10.617 -0.6556  1.3870 -1.3917
  165SOPE    HY18521   7.067   4.927  10.775 -0.0190 -1.1543 -0.6499
  165SOPE   O3118522   7.132   5.046  10.607 -0.1038 -0.4870 -0.5510
  165SOPE   C3118523   7.179   5.013  10.491 -0.3874 -0.3327  0.0657
  165SOPE   O3218524   7.152   4.918  10.422  0.4082 -0.0438 -0.0540
  165SOPE   C3218525   7.300   5.096  10.463  0.2405 -0.5488  0.0130
  165SOPE   H2X18526   7.389   5.039  10.429  1.6559  0.8026  1.3601
  165SOPE   H2Y18527   7.337   5.146  10.556  2.3535 -0.4791 -0.8350
  165SOPE   C2318528   6.847   5.251  10.223 -0.8695  0.0706  0.2876
  165SOPE   H3R18529   6.950   5.293  10.227 -0.6221 -0.4959 -0.0414
  165SOPE   H3S18530   6.781   5.336  10.251 -0.5823  0.3267  0.2019
  165SOPE   C2418531   6.810   5.206  10.084  0.3543 -0.1277 -0.1645
  165SOPE   H4R18532   6.866   5.116  10.049 -2.6285 -1.4012 -1.8924
  165SOPE   H4S18533   6.702   5.179  10.092  0.7333 -0.9671  2.8758
  165SOPE   C2518534   6.822   5.313   9.975 -0.9108  0.4047  0.0226
  165SOPE   H5R18535   6.780   5.407  10.016  1.9159  1.3004  1.0277
  165SOPE   H5S18536   6.929   5.345   9.982  0.6809 -4.6552  0.7412
  165SOPE   C2618537   6.783   5.268   9.835 -0.7170 -0.3225 -0.2441
  165SOPE   H6R18538   6.812   5.161   9.832  1.5994  0.2743 -0.4134
  165SOPE   H6S18539   6.673   5.276   9.821 -0.9913 -0.8510  1.5285
  165SOPE   C2718540   6.846   5.356   9.735 -0.1720  0.2106 -0.8421
  165SOPE   H7R18541   6.821   5.458   9.772  1.3285  0.7751 -1.3317
  165SOPE   H7S18542   6.955   5.336   9.739  0.2179  2.3811  0.0623
  165SOPE   C2818543   6.793   5.335   9.591 -0.0662  0.0522  0.1291
  165SOPE   H8R18544   6.820   5.230   9.569 -1.5192 -0.0688 -1.1990
  165SOPE   H8S18545   6.682   5.346   9.599 -0.2119 -2.3788  2.0791
  165SOPE   C2918546   6.849   5.428   9.494  0.0103  0.4952  0.2309
  165SOPE   H9118547   6.826   5.533   9.521 -0.3332  0.6272 -0.5764
  165SOPE  C21018548   6.910   5.403   9.377  0.4527  0.4780  0.6231
  165SOPE  H10118549   6.955   5.485   9.319  0.3349  0.3582  0.3660
  165SOPE  C21118550   6.941   5.268   9.317  0.6236  0.1567  0.3289
  165SOPE  H11R18551   6.896   5.181   9.369 -0.8548  0.3017 -0.6766
  165SOPE  H11S18552   7.051   5.249   9.313  0.9384  2.3679 -3.4438
  165SOPE  C21218553   6.903   5.262   9.162 -0.4876  0.1786 -0.9142
  165SOPE  H12R18554   6.798   5.294   9.144 -0.6364  0.6926  0.7432
  165SOPE  H12S18555   6.909   5.156   9.128 -0.5124  0.0590 -0.5527
  165SOPE  C21318556   6.989   5.359   9.079 -1.3970  0.2115 -0.6369
  165SOPE  H13R18557   7.089   5.347   9.126 -1.3041  0.6423 -0.7221
  165SOPE  H13S18558   6.959   5.466   9.083  0.2590  0.7022 -1.0537
  165SOPE  C21418559   6.999   5.312   8.927  0.6934  0.4131  0.9993
  165SOPE  H14R18560   6.985   5.202   8.917 -0.8358  0.5780  1.2700
  165SOPE  H14S18561   7.088   5.355   8.876 -0.7156  1.2076 -0.8531
  165SOPE  C21518562   6.888   5.368   8.834  0.0142  0.8210 -0.6274
  165SOPE  H15R18563   6.891   5.474   8.868 -1.6836  1.4423 -2.3312
  165SOPE  H15S18564   6.787   5.326   8.848 -0.1190  1.6109  0.8826
  165SOPE  C21618565   6.919   5.369   8.680 -0.1465  0.4065 -0.8423
  165SOPE  H16R18566   6.927   5.261   8.653 -0.1759  0.7627 -2.3674
  165SOPE  H16S18567   7.022   5.405   8.661 -0.4610  2.6083  1.4888
  165SOPE  C21718568   6.824   5.444   8.586  0.0390  0.2048  0.4469
  165SOPE  H17R18569   6.830   5.550   8.617  0.5024 -0.0753  1.3410
  165SOPE  H17S18570   6.719   5.409   8.583 -0.1415  0.8422 -2.4559
  165SOPE  C21818571   6.876   5.441   8.440 -0.1868 -0.3359  0.2844
  165SOPE  H18R18572   6.859   5.340   8.395 -2.2732 -0.0882  0.4436
  165SOPE  H18S18573   6.979   5.480   8.435 -0.4764  0.5958  1.3518
  165SOPE  H18T18574   6.820   5.511   8.374  1.1673  2.3699  1.9248
  165SOPE   C3318575   7.273   5.201  10.351 -0.2083  0.4372  0.5542
  165SOPE   H3X18576   7.347   5.283  10.364  0.3518 -0.2009  1.5376
  165SOPE   H3Y18577   7.178   5.255  10.369 -1.5550 -1.9437  0.8568
  165SOPE   C3418578   7.271   5.140  10.209 -0.1570  0.3728  0.0176
  165SOPE   H4X18579   7.174   5.090  10.192  0.1419  0.2961 -1.6444
  165SOPE   H4Y18580   7.351   5.063  10.214 -1.8948 -1.2663  4.5705
  165SOPE   C3518581   7.283   5.243  10.098 -0.4020  0.1686 -0.3582
  165SOPE   H5X18582   7.379   5.294  10.122 -0.4206 -1.0896  2.6365
  165SOPE   H5Y18583   7.200   5.317  10.094 -3.2610 -2.9793 -1.2037
  165SOPE   C3618584   7.291   5.184   9.952  0.1325  0.6451  0.3073
  165SOPE   H6X18585   7.219   5.100   9.949  1.2363 -0.2798 -1.2532
  165SOPE   H6Y18586   7.392   5.136   9.950  0.5010  1.4220 -0.1124
  165SOPE   C3718587   7.267   5.278   9.838 -0.4827 -0.5547  0.0567
  165SOPE   H7X18588   7.350   5.352   9.840 -1.5603  0.6631  0.7577
  165SOPE   H7Y18589   7.167   5.324   9.852 -1.2927 -2.0011 -0.9214
  165SOPE   C3818590   7.288   5.216   9.696 -0.2182  0.6337  0.3203
  165SOPE   H8X18591   7.242   5.115   9.693  0.7541  0.0745  2.5351
  165SOPE   H8Y18592   7.398   5.196   9.695 -0.3651 -0.7284  3.2383
  165SOPE   C3918593   7.266   5.304   9.578 -0.9639  0.4874  0.3937
  165SOPE   H9X18594   7.320   5.397   9.606  1.0784 -1.2813  2.5083
  165SOPE   H9Y18595   7.157   5.322   9.567 -0.8304 -0.0085 -2.2293
  165SOPE  C31018596   7.331   5.249   9.452 -0.1210  0.5957  0.1794
  165SOPE  H10X18597   7.269   5.165   9.415 -0.2780  0.6646  0.2864
  165SOPE  H10Y18598   7.430   5.201   9.467 -0.0645  1.4196  2.6120
  165SOPE  C31118599   7.320   5.356   9.341 -0.6426  0.1170  0.0185
  165SOPE  H11X18600   7.373   5.448   9.376  0.5821  0.6473 -3.0339
  165SOPE  H11Y18601   7.215   5.374   9.311 -0.7039  0.8005  0.6327
  165SOPE  C31218602   7.398   5.304   9.219  0.2121  0.0129 -0.8217
  165SOPE  H12X18603   7.355   5.207   9.185  1.6610 -0.0652 -2.4824
  165SOPE  H12Y18604   7.504   5.285   9.245 -0.1404  0.7425  1.1870
  165SOPE  C31318605   7.385   5.398   9.095  0.3100  0.5943  0.6346
  165SOPE  H13X18606   7.478   5.459   9.095  0.2944  0.6171  0.3355
  165SOPE  H13Y18607   7.302   5.471   9.102 -2.2504 -1.9195 -2.2437
  165SOPE  C31418608   7.369   5.314   8.967 -0.4550 -0.4386  0.2477
  165SOPE  H14X18609   7.278   5.251   8.972 -1.4534  0.9448 -0.1874
  165SOPE  H14Y18610   7.453   5.243   8.950 -3.1314 -3.6298 -0.2439
  165SOPE  C31518611   7.373   5.389   8.834 -0.3713 -0.2825  0.2194
  165SOPE  H15X18612   7.465   5.450   8.827 -0.9373  0.5127 -0.4730
  165SOPE  H15Y18613   7.291   5.464   8.840  1.1403  1.4673 -0.7014
  165SOPE  C31618614   7.355   5.293   8.721 -0.1561  0.0217 -0.4635
  165SOPE  H16X18615   7.262   5.232   8.732 -0.0910  0.2032  1.2266
  165SOPE  H16Y18616   7.445   5.233   8.698  1.7918  1.5906  2.7784
  165SOPE  C31718617   7.321   5.367   8.588  0.1682  0.3826  0.5711
  165SOPE  H17X18618   7.404   5.437   8.565  1.4360  0.1051  3.9395
  165SOPE  H17Y18619   7.230   5.429   8.601  0.3131  0.6938  0.0871
  165SOPE  C31818620   7.294   5.272   8.469  0.0378 -0.0139  0.3294
  165SOPE  H18X18621   7.385   5.211   8.450 -0.0354 -0.4524  1.3250
  165SOPE  H18Y18622   7.255   5.338   8.389  1.2973  0.5998  0.1961
  165SOPE  H18Z18623   7.203   5.214   8.495 -0.4026  0.1268 -0.8847
  166SOPE     N18624   1.919   4.731  10.695 -0.0856  0.5638 -0.2117
  166SOPE   HN118625   1.936   4.791  10.612  0.4847 -0.7466 -1.0659
  166SOPE   HN218626   1.917   4.631  10.666  1.1297  0.5456 -0.2733
  166SOPE   HN318627   1.824   4.760  10.726 -0.7366 -2.1563  0.4982
  166SOPE   C1218628   2.026   4.744  10.808  0.2413  0.6173 -0.0860
  166SOPE  H12A18629   2.019   4.649  10.864 -1.0196  1.0985  0.5888
  166SOPE  H12B18630   1.995   4.829  10.873 -0.8647  0.1391  0.0136
  166SOPE   C1118631   2.167   4.778  10.760 -0.0199 -0.7325  0.6478
  166SOPE  H11A18632   2.153   4.874  10.706 -0.1380 -0.0390  1.9114
  166SOPE  H11B18633   2.192   4.695  10.690 -1.4599 -0.8894  0.2959
  166SOPE     P18634   2.397   4.866  10.857  0.0630 -0.2266 -0.0684
  166SOPE   O1318635   2.501   4.767  10.885  0.2224 -0.2905 -0.0846
  166SOPE   O1418636   2.378   4.981  10.954 -0.4779 -0.1366  1.1497
  166SOPE   O1218637   2.261   4.781  10.859 -0.0722 -0.0561 -0.6287
  166SOPE   O1118638   2.398   4.915  10.708  0.3284 -0.4316 -0.1725
  166SOPE    C118639   2.472   4.854  10.604  0.2135 -0.0625 -0.3062
  166SOPE    HA18640   2.437   4.892  10.505  1.7067  1.0736 -0.4106
  166SOPE    HB18641   2.463   4.744  10.596 -2.4513  0.0859  0.2084
  166SOPE    C218642   2.617   4.891  10.610  0.2729  0.8934 -0.3526
  166SOPE    HS18643   2.651   4.863  10.711 -0.1653 -0.1360 -0.4777
  166SOPE   O2118644   2.622   5.032  10.571  0.1261  0.3189  0.3585
  166SOPE   C2118645   2.729   5.084  10.636 -0.0941 -0.2973  0.1152
  166SOPE   O2218646   2.814   5.023  10.697  0.1948 -0.4720  0.0253
  166SOPE   C2218647   2.723   5.236  10.636 -0.4116  0.0335 -1.0170
  166SOPE   H2R18648   2.684   5.272  10.733  1.3418  1.2838 -0.7678
  166SOPE   H2S18649   2.639   5.268  10.571 -1.1126 -0.1779 -0.2299
  166SOPE    C318650   2.690   4.804  10.508  0.0170 -0.5365 -0.3753
  166SOPE    HX18651   2.681   4.699  10.542 -1.9242 -0.3226 -0.1771
  166SOPE    HY18652   2.800   4.823  10.517 -0.3180  2.0567 -1.3603
  166SOPE   O3118653   2.639   4.812  10.376 -0.2368 -0.3174 -0.4615
  166SOPE   C3118654   2.702   4.897  10.289 -0.3627  0.0889 -0.2498
  166SOPE   O3218655   2.790   4.968  10.320 -0.1692  0.5251 -0.1847
  166SOPE   C3218656   2.650   4.878  10.144 -0.1146  0.4631  0.1966
  166SOPE   H2X18657   2.540   4.862  10.149 -0.4920  2.8637 -0.2271
  166SOPE   H2Y18658   2.688   4.778  10.113 -2.3732 -0.1972 -0.5412
  166SOPE   C2318659   2.852   5.314  10.596  0.2044  0.3446  0.2526
  166SOPE   H3R18660   2.944   5.289  10.652 -0.6323  0.9561  1.9503
  166SOPE   H3S18661   2.843   5.421  10.623  1.5574  0.2901  0.9129
  166SOPE   C2418662   2.895   5.304  10.448 -0.2732 -0.1593  0.2886
  166SOPE   H4R18663   2.982   5.373  10.442  0.5571 -0.8938  3.3405
  166SOPE   H4S18664   2.924   5.206  10.404 -1.2872 -1.0709  1.6248
  166SOPE   C2518665   2.788   5.362  10.346 -0.2366  0.0232 -0.4944
  166SOPE   H5R18666   2.696   5.301  10.333 -0.5704  0.5637 -0.7039
  166SOPE   H5S18667   2.757   5.463  10.381  0.6748 -0.9655  3.3688
  166SOPE   C2618668   2.846   5.393  10.204 -0.5437  0.3695  0.5281
  166SOPE   H6R18669   2.948   5.428  10.227 -0.2522  0.2452 -0.5608
  166SOPE   H6S18670   2.865   5.294  10.156  1.2073  1.5301 -1.2486
  166SOPE   C2718671   2.764   5.483  10.109 -0.6493 -0.2452 -0.6306
  166SOPE   H7R18672   2.661   5.442  10.102 -0.8193 -0.0637  0.5797
  166SOPE   H7S18673   2.758   5.578  10.167  0.5553 -0.3987 -0.2437
  166SOPE   C2818674   2.821   5.503   9.962 -0.3672  0.1612 -0.1756
  166SOPE   H8R18675   2.837   5.408   9.907 -0.0962 -0.1370  0.4084
  166SOPE   H8S18676   2.741   5.540   9.894 -0.1159 -2.2586 -1.8461
  166SOPE   C2918677   2.930   5.599   9.950 -0.3923  0.1627 -0.5370
  166SOPE   H9118678   2.915   5.688  10.012  1.4395 -0.7821  1.3225
  166SOPE  C21018679   3.045   5.590   9.875 -0.5463 -0.0731  0.0588
  166SOPE  H10118680   3.117   5.672   9.888 -2.6409  1.7054  0.6096
  166SOPE  C21118681   3.098   5.493   9.784  0.7167  0.1816  0.5321
  166SOPE  H11R18682   3.031   5.404   9.789 -2.4110  2.4428  0.1799
  166SOPE  H11S18683   3.202   5.459   9.801 -0.0013 -1.5602  1.5934
  166SOPE  C21218684   3.084   5.533   9.641 -0.1756 -0.1930 -0.0153
  166SOPE  H12R18685   3.141   5.626   9.621 -0.6850  0.3131  0.8438
  166SOPE  H12S18686   2.975   5.552   9.627  0.4999  2.4895 -2.2045
  166SOPE  C21318687   3.154   5.432   9.547 -0.3537 -0.2455 -0.2438
  166SOPE  H13R18688   3.133   5.323   9.545 -1.1820 -0.1116  0.7827
  166SOPE  H13S18689   3.260   5.437   9.578 -0.8177  1.3528  1.1744
  166SOPE  C21418690   3.158   5.479   9.400  0.6327 -0.2350 -0.4088
  166SOPE  H14R18691   3.194   5.584   9.401  2.3228 -0.7803 -1.5970
  166SOPE  H14S18692   3.059   5.496   9.352  1.2071 -0.2692 -1.6311
  166SOPE  C21518693   3.242   5.397   9.303  0.1062 -0.2744  0.1448
  166SOPE  H15R18694   3.193   5.299   9.283  2.5580 -1.4659 -0.2359
  166SOPE  H15S18695   3.336   5.384   9.360  0.6386  2.2820 -0.1084
  166SOPE  C21618696   3.277   5.468   9.172  0.0967 -0.4970  0.2601
  166SOPE  H16R18697   3.300   5.572   9.203 -0.3710 -0.7169  1.3756
  166SOPE  H16S18698   3.194   5.460   9.098  1.2277  0.9390 -1.2288
  166SOPE  C21718699   3.396   5.407   9.105  0.0797 -0.0321  0.5153
  166SOPE  H17R18700   3.386   5.298   9.089  3.2303 -0.6452  2.2558
  166SOPE  H17S18701   3.483   5.417   9.173 -0.0886  0.3709  0.6781
  166SOPE  C21818702   3.428   5.479   8.969 -0.4717 -0.8124  0.1783
  166SOPE  H18R18703   3.365   5.443   8.885  0.1707 -0.5551 -0.4184
  166SOPE  H18S18704   3.528   5.449   8.930 -0.0559  0.4772  0.2163
  166SOPE  H18T18705   3.431   5.590   8.984  0.7090 -0.6856 -0.8587
  166SOPE   C3318706   2.685   4.985  10.046 -0.3156 -0.2239  0.4574
  166SOPE   H3X18707   2.794   5.004  10.036 -0.2635  0.0180  1.4486
  166SOPE   H3Y18708   2.633   5.081  10.069  0.0156 -0.5670  2.6737
  166SOPE   C3418709   2.634   4.958   9.899  0.1121 -0.1343 -0.5045
  166SOPE   H4X18710   2.528   4.924   9.902 -0.3949  1.4493 -0.0727
  166SOPE   H4Y18711   2.697   4.879   9.854  1.4041  0.4121  0.3109
  166SOPE   C3518712   2.652   5.075   9.806  0.2203  0.0367  0.4096
  166SOPE   H5X18713   2.760   5.081   9.783  0.2271  0.6966  0.6136
  166SOPE   H5Y18714   2.627   5.172   9.855  0.8336  0.6699 -0.5176
  166SOPE   C3618715   2.581   5.062   9.674  0.6376  0.3733 -0.7511
  166SOPE   H6X18716   2.606   5.144   9.602 -0.3149 -0.9748 -2.6756
  166SOPE   H6Y18717   2.471   5.063   9.685  0.5624 -2.7815 -0.7197
  166SOPE   C3718718   2.625   4.934   9.610 -0.5795 -0.4270 -0.2903
  166SOPE   H7X18719   2.610   4.844   9.674  0.4620  0.7292  1.6343
  166SOPE   H7Y18720   2.731   4.943   9.579 -0.9596 -2.8407 -2.4690
  166SOPE   C3818721   2.549   4.908   9.478  0.1200 -0.8218 -0.4371
  166SOPE   H8X18722   2.443   4.904   9.512  0.7611  1.7152  2.0686
  166SOPE   H8Y18723   2.574   4.816   9.422  2.0025  0.4051 -1.6779
  166SOPE   C3918724   2.549   5.036   9.390 -0.6154 -0.2994  0.6409
  166SOPE   H9X18725   2.657   5.056   9.374 -0.4482 -0.9137  0.9687
  166SOPE   H9Y18726   2.495   5.112   9.451  1.5537  2.6995 -1.0552
  166SOPE  C31018727   2.479   5.007   9.259  0.2012  0.1887  0.6486
  166SOPE  H10X18728   2.372   4.982   9.279 -0.2321  0.3198 -1.4090
  166SOPE  H10Y18729   2.525   4.925   9.201  1.1985  1.2252 -0.0424
  166SOPE  C31118730   2.491   5.133   9.164 -0.1304  0.4588 -0.8620
  166SOPE  H11X18731   2.600   5.150   9.161 -0.3512  3.0988  2.3608
  166SOPE  H11Y18732   2.449   5.225   9.211 -4.4027 -1.5712 -0.4200
  166SOPE  C31218733   2.431   5.108   9.029 -0.2932 -0.6828 -0.4417
  166SOPE  H12X18734   2.323   5.079   9.035 -0.3168 -0.3518  0.8881
  166SOPE  H12Y18735   2.485   5.025   8.979  0.2136 -0.5490 -0.1187
  166SOPE  C31318736   2.424   5.237   8.941  0.2337 -0.4240  0.4754
  166SOPE  H13X18737   2.529   5.270   8.922  0.6940 -1.1365  1.7490
  166SOPE  H13Y18738   2.375   5.315   9.002 -0.6693  0.6554 -1.5837
  166SOPE  C31418739   2.347   5.226   8.806  0.3680  0.8819 -0.3407
  166SOPE  H14X18740   2.338   5.325   8.756 -1.3217  0.1058 -1.6068
  166SOPE  H14Y18741   2.241   5.197   8.821  0.1693  1.5349 -0.4608
  166SOPE  C31518742   2.392   5.129   8.702  0.3394 -0.4123  0.3102
  166SOPE  H15X18743   2.320   5.132   8.617  0.5264  1.0634  0.2013
  166SOPE  H15Y18744   2.390   5.030   8.752  1.7765 -0.6445 -0.0684
  166SOPE  C31618745   2.536   5.158   8.653 -1.1614  0.5214  0.5735
  166SOPE  H16X18746   2.609   5.164   8.736  0.2602 -0.3059 -0.5941
  166SOPE  H16Y18747   2.545   5.260   8.608 -0.5751  0.3170  0.2223
  166SOPE  C31718748   2.583   5.044   8.553  0.1573 -0.4861  0.3655
  166SOPE  H17X18749   2.611   4.953   8.609 -0.0107 -0.2826  0.7817
  166SOPE  H17Y18750   2.675   5.075   8.499  1.1028  1.5304  3.0404
  166SOPE  C31818751   2.479   5.022   8.449  0.3985 -0.5686  0.2137
  166SOPE  H18X18752   2.510   4.944   8.377 -1.3502  0.8779 -2.1940
  166SOPE  H18Y18753   2.458   5.116   8.393  0.0554 -0.2011  0.9532
  166SOPE  H18Z18754   2.383   4.979   8.483  0.4909 -1.2716 -0.4056
  167SOPE     N18755   4.454   3.960   6.204 -0.1854 -0.1951  0.2609
  167SOPE   HN118756   4.549   3.934   6.172 -0.7805 -2.5142  0.2804
  167SOPE   HN218757   4.418   4.037   6.145 -0.7674 -1.2270 -0.7475
  167SOPE   HN318758   4.454   3.974   6.308 -0.9823  1.8843  0.0029
  167SOPE   C1218759   4.358   3.849   6.184  0.3030 -0.1756  0.1868
  167SOPE  H12A18760   4.405   3.763   6.238 -1.9134 -0.8009  1.1943
  167SOPE  H12B18761   4.348   3.827   6.076 -1.0627  1.9278 -0.1566
  167SOPE   C1118762   4.214   3.884   6.231 -0.2582 -0.2592 -0.1821
  167SOPE  H11A18763   4.213   3.907   6.340  1.6492 -2.4825  0.3566
  167SOPE  H11B18764   4.156   3.790   6.228  0.6429 -0.8035 -0.9532
  167SOPE     P18765   4.163   4.137   6.198 -0.5261  0.1584  0.0495
  167SOPE   O1318766   4.112   4.219   6.087 -0.4978 -1.1894  0.0643
  167SOPE   O1418767   4.299   4.173   6.246 -0.4260  0.1216 -0.3506
  167SOPE   O1218768   4.158   3.988   6.155  0.3640  0.1515 -0.3189
  167SOPE   O1118769   4.055   4.139   6.311  0.1724 -0.5113 -0.5510
  167SOPE    C118770   4.082   4.229   6.420 -0.0394 -0.0350 -0.4525
  167SOPE    HA18771   3.989   4.284   6.441  0.5479 -0.1065  2.5746
  167SOPE    HB18772   4.154   4.311   6.396  2.0461 -0.8608  2.5819
  167SOPE    C218773   4.140   4.161   6.544 -0.5576 -0.3679 -1.2273
  167SOPE    HS18774   4.229   4.106   6.507  0.2343 -0.6397  0.9867
  167SOPE   O2118775   4.041   4.064   6.595 -0.2673  0.0305 -0.5066
  167SOPE   C2118776   4.087   3.948   6.633 -0.3277 -0.0925  0.5365
  167SOPE   O2218777   4.197   3.902   6.611  0.1297  0.1962 -0.0174
  167SOPE   C2218778   3.986   3.865   6.705 -0.1055  0.3666 -0.3966
  167SOPE   H2R18779   4.042   3.779   6.747 -1.5906 -0.3634  0.1517
  167SOPE   H2S18780   3.922   3.817   6.628 -3.6800  1.4140  1.8040
  167SOPE    C318781   4.171   4.259   6.661  0.7327 -0.1986  0.1693
  167SOPE    HX18782   4.071   4.295   6.695 -0.0502 -1.0449 -1.1885
  167SOPE    HY18783   4.233   4.345   6.627  0.1150  0.4294  0.6231
  167SOPE   O3118784   4.236   4.197   6.776 -0.3033  0.1854  0.0386
  167SOPE   C3118785   4.352   4.152   6.766 -0.2558 -0.3930  0.1097
  167SOPE   O3218786   4.422   4.163   6.666  0.1810 -0.3064 -0.4707
  167SOPE   C3218787   4.385   4.077   6.893 -0.1584 -0.8290  0.3821
  167SOPE   H2X18788   4.478   4.021   6.869  0.3174 -0.5131  1.4706
  167SOPE   H2Y18789   4.307   4.000   6.912  0.6284 -1.7931 -0.2811
  167SOPE   C2318790   3.898   3.931   6.807  0.3490 -1.0916  0.2650
  167SOPE   H3R18791   3.815   3.865   6.838 -1.8696 -0.3305 -3.6783
  167SOPE   H3S18792   3.850   4.024   6.767  3.8027  0.8521  0.4572
  167SOPE   C2418793   3.959   3.963   6.948  0.2135 -0.1378  0.8899
  167SOPE   H4R18794   4.041   4.037   6.937 -0.5949  0.2284 -3.8587
  167SOPE   H4S18795   3.879   3.998   7.015  0.0945  1.9717 -0.3333
  167SOPE   C2518796   4.028   3.842   7.011 -0.4155  0.0953  0.1712
  167SOPE   H5R18797   3.961   3.759   6.983  0.5810 -1.1608  1.4530
  167SOPE   H5S18798   4.125   3.833   6.956 -0.7598 -0.7854 -0.3047
  167SOPE   C2618799   4.059   3.859   7.158 -0.6726 -0.2577 -0.0744
  167SOPE   H6R18800   4.132   3.939   7.184 -0.1967 -0.5427 -0.5337
  167SOPE   H6S18801   3.960   3.876   7.205 -1.1738  0.0398 -1.2229
  167SOPE   C2718802   4.104   3.726   7.211 -0.3878 -1.1066 -1.1730
  167SOPE   H7R18803   4.015   3.662   7.195 -3.3889  3.0253 -1.5839
  167SOPE   H7S18804   4.192   3.692   7.152  0.1391  1.5326 -1.9683
  167SOPE   C2818805   4.147   3.740   7.361 -0.1478  0.5697 -0.4557
  167SOPE   H8R18806   4.204   3.645   7.372 -1.0473 -0.0036 -0.6581
  167SOPE   H8S18807   4.207   3.832   7.373 -0.0881  0.2725  1.7970
  167SOPE   C2918808   4.031   3.741   7.462  0.0751 -0.1217 -0.2026
  167SOPE   H9118809   3.943   3.798   7.430 -1.1819 -3.3255 -2.7746
  167SOPE  C21018810   4.014   3.652   7.560  0.2680  0.1961 -0.0893
  167SOPE  H10118811   3.918   3.658   7.614  0.3812 -0.2601  0.1686
  167SOPE  C21118812   4.107   3.546   7.610  0.3221  0.4332 -0.4110
  167SOPE  H11R18813   4.213   3.580   7.609  0.8277 -1.1263 -0.6704
  167SOPE  H11S18814   4.105   3.456   7.545  0.3117  0.3984 -0.3630
  167SOPE  C21218815   4.065   3.500   7.754  0.2412 -0.1529  0.3883
  167SOPE  H12R18816   4.130   3.412   7.777 -0.5954 -1.2853 -1.4476
  167SOPE  H12S18817   3.959   3.469   7.760 -0.2854  1.3652 -0.8596
  167SOPE  C21318818   4.097   3.607   7.855 -0.7779 -0.4645 -0.2124
  167SOPE  H13R18819   4.029   3.693   7.832  0.5475  0.5412 -0.4314
  167SOPE  H13S18820   4.203   3.638   7.854 -0.5432 -1.0452  2.1113
  167SOPE  C21418821   4.061   3.557   7.994 -0.4014  0.0737 -0.4727
  167SOPE  H14R18822   4.142   3.485   8.017  0.6051  0.8476 -1.5311
  167SOPE  H14S18823   3.963   3.504   7.992 -0.9469  1.0720 -0.9830
  167SOPE  C21518824   4.024   3.675   8.100  0.2507 -0.5695 -0.4013
  167SOPE  H15R18825   3.936   3.727   8.059 -0.4279 -2.3774 -1.2929
  167SOPE  H15S18826   4.112   3.742   8.087 -0.7186  0.3784 -2.2793
  167SOPE  C21618827   4.010   3.615   8.243 -0.5555 -0.4185 -0.2322
  167SOPE  H16R18828   4.096   3.545   8.257  0.0113  0.3466  0.1679
  167SOPE  H16S18829   3.925   3.544   8.249  0.8521 -1.9738  1.7792
  167SOPE  C21718830   4.012   3.728   8.340  0.4940 -0.7510 -0.0515
  167SOPE  H17R18831   3.963   3.820   8.300 -0.3711 -0.7130  1.0810
  167SOPE  H17S18832   4.116   3.762   8.358  0.4228  0.1584 -1.2668
  167SOPE  C21818833   3.949   3.701   8.475  0.4231  0.0095 -0.2014
  167SOPE  H18R18834   3.996   3.757   8.559  0.0454  2.1059 -1.3632
  167SOPE  H18S18835   3.948   3.593   8.500  0.1018  0.2389  0.7811
  167SOPE  H18T18836   3.845   3.737   8.462  0.8163  1.1899 -0.1200
  167SOPE   C3318837   4.415   4.152   7.013  0.1867  0.4073 -0.2263
  167SOPE   H3X18838   4.332   4.215   7.054  1.0444 -0.0556  2.2972
  167SOPE   H3Y18839   4.498   4.221   6.988  0.7644 -0.3368 -0.3747
  167SOPE   C3418840   4.457   4.054   7.126 -0.2146  0.1144 -0.2678
  167SOPE   H4X18841   4.552   4.006   7.092  0.2126 -0.9468  2.3656
  167SOPE   H4Y18842   4.379   3.978   7.145  0.4846 -0.6390 -0.4086
  167SOPE   C3518843   4.488   4.126   7.266  0.0631 -0.6257 -0.8204
  167SOPE   H5X18844   4.401   4.185   7.302 -0.2529 -0.1708 -2.2829
  167SOPE   H5Y18845   4.571   4.199   7.257 -0.9295  0.9261  2.0289
  167SOPE   C3618846   4.531   4.026   7.379  0.6487 -0.3324 -0.0731
  167SOPE   H6X18847   4.604   3.954   7.337 -0.7565 -0.7851 -1.8080
  167SOPE   H6Y18848   4.433   3.984   7.411 -0.8675  2.5154 -0.7280
  167SOPE   C3718849   4.602   4.099   7.491 -0.3993 -0.8224  0.1362
  167SOPE   H7X18850   4.542   4.181   7.537 -1.3689 -2.2139  1.4081
  167SOPE   H7Y18851   4.696   4.139   7.448 -0.2717  0.4944  1.6078
  167SOPE   C3818852   4.623   4.012   7.615 -0.7430  0.8451 -0.0332
  167SOPE   H8X18853   4.676   3.918   7.587 -1.6796  0.8134 -1.7390
  167SOPE   H8Y18854   4.524   3.978   7.653 -0.5254  0.1596 -0.0655
  167SOPE   C3918855   4.690   4.103   7.722  0.2226  0.1289  0.7978
  167SOPE   H9X18856   4.643   4.203   7.730  1.1814  0.8023 -1.4219
  167SOPE   H9Y18857   4.795   4.118   7.688 -0.0988 -1.5348 -1.0580
  167SOPE  C31018858   4.694   4.040   7.859 -0.4721 -0.2478 -0.0703
  167SOPE  H10X18859   4.751   3.944   7.861 -0.7367 -0.4286 -0.9152
  167SOPE  H10Y18860   4.589   4.028   7.893 -0.6707  0.9846 -0.2205
  167SOPE  C31118861   4.750   4.140   7.949 -0.3137  0.4250  0.2985
  167SOPE  H11X18862   4.679   4.225   7.951 -0.4624  0.2816  3.6321
  167SOPE  H11Y18863   4.851   4.172   7.915 -0.0720 -1.3866 -0.7253
  167SOPE  C31218864   4.764   4.101   8.100 -0.2435 -0.3680 -0.5519
  167SOPE  H12X18865   4.661   4.081   8.135 -0.4567  2.1851  0.3805
  167SOPE  H12Y18866   4.804   4.192   8.149 -1.3947 -0.4467  0.5751
  167SOPE  C31318867   4.877   3.992   8.112  0.4520  0.6137 -0.3971
  167SOPE  H13X18868   4.940   4.006   8.022 -1.1640 -0.0437 -1.6655
  167SOPE  H13Y18869   4.825   3.894   8.109  4.4540 -1.6230  0.8464
  167SOPE  C31418870   4.964   3.988   8.243  1.1077 -0.8978 -0.2518
  167SOPE  H14X18871   4.894   3.983   8.328  2.3050  0.2468  0.8252
  167SOPE  H14Y18872   5.030   4.077   8.249  1.1521 -0.7359 -2.6179
  167SOPE  C31518873   5.057   3.868   8.247  0.1265  0.6865 -0.1191
  167SOPE  H15X18874   5.134   3.899   8.320  1.0179 -0.2531 -0.6572
  167SOPE  H15Y18875   5.100   3.873   8.145 -0.4856  0.9376 -0.3726
  167SOPE  C31618876   4.992   3.732   8.285  0.5266  0.2739 -0.3120
  167SOPE  H16X18877   4.913   3.715   8.209  0.4002  0.9725 -0.3388
  167SOPE  H16Y18878   4.946   3.736   8.386  1.3465 -0.0153  0.0756
  167SOPE  C31718879   5.084   3.610   8.279  0.4979 -0.3840 -0.1053
  167SOPE  H17X18880   5.175   3.633   8.340  1.2098 -3.7793  0.1882
  167SOPE  H17Y18881   5.126   3.613   8.177  0.6331  2.8317 -0.0248
  167SOPE  C31818882   5.010   3.476   8.305 -0.2663  0.6610 -0.2925
  167SOPE  H18X18883   5.074   3.389   8.277 -2.7360 -1.3955  0.2247
  167SOPE  H18Y18884   4.929   3.453   8.233  2.4054  0.7605 -3.4475
  167SOPE  H18Z18885   4.969   3.456   8.406  1.7428 -2.3742 -0.0167
  168SOPE     N18886   4.443   1.093   6.257 -0.3353 -0.6406  0.4431
  168SOPE   HN118887   4.506   1.148   6.195 -1.1760  2.6781  2.4123
  168SOPE   HN218888   4.403   1.016   6.199 -1.2486  0.3193 -0.2248
  168SOPE   HN318889   4.375   1.165   6.287 -1.8520 -1.0888 -1.8024
  168SOPE   C1218890   4.521   1.040   6.365 -0.0350  0.1325 -0.3902
  168SOPE  H12A18891   4.550   1.125   6.429  0.4359 -0.3233  0.0040
  168SOPE  H12B18892   4.613   0.996   6.321  0.3470  0.1228  0.4276
  168SOPE   C1118893   4.450   0.933   6.457 -0.1697  0.1429  0.0497
  168SOPE  H11A18894   4.348   0.969   6.481  0.0639  0.3144  0.7985
  168SOPE  H11B18895   4.509   0.934   6.551  2.6674 -1.9956 -1.6285
  168SOPE     P18896   4.357   0.740   6.305  0.3229 -0.4967 -0.0772
  168SOPE   O1318897   4.404   0.604   6.261 -0.5701 -0.1981 -0.4832
  168SOPE   O1418898   4.323   0.842   6.202  0.2718 -0.2129  0.0986
  168SOPE   O1218899   4.461   0.799   6.408 -0.1160 -0.4690  0.0488
  168SOPE   O1118900   4.233   0.726   6.393  1.1914 -0.1002  0.0674
  168SOPE    C118901   4.232   0.685   6.533 -0.4182  0.4728 -0.2278
  168SOPE    HA18902   4.336   0.671   6.571 -0.6375 -0.8581 -0.1091
  168SOPE    HB18903   4.182   0.589   6.559 -0.7024  0.4124 -0.9788
  168SOPE    C218904   4.175   0.791   6.631 -0.4939  0.5337  0.0765
  168SOPE    HS18905   4.198   0.892   6.589 -0.2152  1.1404  1.6462
  168SOPE   O2118906   4.237   0.760   6.757 -0.5176 -0.8867  0.3780
  168SOPE   C2118907   4.276   0.869   6.831  0.4641 -0.5196  0.0005
  168SOPE   O2218908   4.271   0.982   6.788 -0.2687  0.2980 -0.0261
  168SOPE   C2218909   4.325   0.834   6.970 -0.3599  0.4534 -0.2479
  168SOPE   H2R18910   4.428   0.794   6.957 -0.7587 -1.1604  1.2162
  168SOPE   H2S18911   4.254   0.764   7.020  0.4753  0.3729  0.8419
  168SOPE    C318912   4.028   0.776   6.654 -0.4083  0.0259 -0.0639
  168SOPE    HX18913   4.003   0.691   6.721  0.1342 -0.4116 -0.4115
  168SOPE    HY18914   3.993   0.757   6.550  3.6480  1.2215 -1.7674
  168SOPE   O3118915   3.966   0.904   6.698  0.2385  0.1630  0.0764
  168SOPE   C3118916   3.952   0.926   6.823 -0.0323  0.2930  0.1357
  168SOPE   O3218917   3.988   0.850   6.912  0.1297 -0.2114  0.1150
  168SOPE   C3218918   3.884   1.059   6.840 -0.7659 -0.1156 -0.3308
  168SOPE   H2X18919   3.780   1.034   6.872 -0.2821  0.5338  1.7465
  168SOPE   H2Y18920   3.866   1.116   6.746 -1.6187  2.9642  1.6313
  168SOPE   C2318921   4.331   0.964   7.061  0.2669 -0.1737  1.0438
  168SOPE   H3R18922   4.232   1.013   7.059  0.7389  0.7740  0.4240
  168SOPE   H3S18923   4.411   1.035   7.029  0.0265 -0.8375 -1.1122
  168SOPE   C2418924   4.335   0.917   7.201  0.0085 -0.1473 -0.2896
  168SOPE   H4R18925   4.322   1.000   7.274 -0.1134  0.3830 -0.9188
  168SOPE   H4S18926   4.244   0.858   7.225 -0.9980  0.4625 -2.5155
  168SOPE   C2518927   4.457   0.815   7.236  0.3541  0.1997  0.1942
  168SOPE   H5R18928   4.480   0.741   7.156 -2.5386  0.5555 -1.0000
  168SOPE   H5S18929   4.551   0.874   7.235 -0.3353  1.2980 -1.4414
  168SOPE   C2618930   4.452   0.749   7.374 -0.3136 -0.7130 -0.8976
  168SOPE   H6R18931   4.372   0.672   7.379  0.1516 -1.2188 -1.1481
  168SOPE   H6S18932   4.545   0.694   7.401 -1.5706 -0.9943  3.0844
  168SOPE   C2718933   4.452   0.846   7.491 -0.4405 -0.0740  0.9809
  168SOPE   H7R18934   4.526   0.926   7.471 -0.5967  0.2128  1.5323
  168SOPE   H7S18935   4.353   0.898   7.491  0.0161  0.8040  0.5695
  168SOPE   C2818936   4.483   0.782   7.620 -1.0224  0.3207 -0.2905
  168SOPE   H8R18937   4.404   0.704   7.629 -3.0713  2.3905  0.2429
  168SOPE   H8S18938   4.574   0.719   7.621  0.1437  1.9999 -0.1459
  168SOPE   C2918939   4.494   0.877   7.736 -0.2385 -0.3769  0.2758
  168SOPE   H9118940   4.535   0.977   7.714  0.6604 -0.5989  0.9227
  168SOPE  C21018941   4.464   0.843   7.865 -0.0855  0.7943 -0.3191
  168SOPE  H10118942   4.479   0.923   7.939 -0.3251  1.5577 -1.0897
  168SOPE  C21118943   4.414   0.704   7.900  0.4958 -0.2046  0.1207
  168SOPE  H11R18944   4.335   0.686   7.824  1.1010  0.0533 -0.5697
  168SOPE  H11S18945   4.373   0.709   8.003 -2.1171  2.2132 -0.9650
  168SOPE  C21218946   4.514   0.586   7.897 -0.9266 -0.0854 -0.5888
  168SOPE  H12R18947   4.543   0.565   7.792 -1.2801  1.3380 -0.9755
  168SOPE  H12S18948   4.463   0.494   7.935 -0.5524 -0.7420 -1.6314
  168SOPE  C21318949   4.638   0.593   7.985 -0.3817  0.3562  0.3172
  168SOPE  H13R18950   4.641   0.697   8.024  0.8340  0.5958 -0.3738
  168SOPE  H13S18951   4.726   0.555   7.928  1.7949  1.1941  2.9477
  168SOPE  C21418952   4.630   0.511   8.114  0.0926 -0.2505  0.3598
  168SOPE  H14R18953   4.529   0.502   8.161 -0.6296  0.3750 -1.0684
  168SOPE  H14S18954   4.698   0.549   8.194  1.2922  0.0200 -0.7818
  168SOPE  C21518955   4.677   0.361   8.108  0.0241  0.1016  0.2135
  168SOPE  H15R18956   4.776   0.350   8.060 -0.4599  2.4462 -1.3723
  168SOPE  H15S18957   4.616   0.305   8.035  0.4297  1.1433 -0.9425
  168SOPE  C21618958   4.672   0.302   8.247 -0.0435  0.2077  0.1768
  168SOPE  H16R18959   4.564   0.311   8.273 -0.4598 -1.9472 -0.6638
  168SOPE  H16S18960   4.732   0.363   8.317  0.9575 -1.0474  0.4336
  168SOPE  C21718961   4.711   0.157   8.254  0.7388 -0.6621 -0.5398
  168SOPE  H17R18962   4.818   0.156   8.225  0.8355  0.7939 -0.2500
  168SOPE  H17S18963   4.654   0.091   8.183  0.8583  0.7326 -1.9600
  168SOPE  C21818964   4.702   0.086   8.389 -0.3905 -0.3321 -0.1604
  168SOPE  H18R18965   4.754  -0.011   8.377  1.8928  1.2121 -3.3138
  168SOPE  H18S18966   4.600   0.058   8.424  0.4846 -0.9579  2.0019
  168SOPE  H18T18967   4.755   0.150   8.464 -0.4576 -1.7805  1.1501
  168SOPE   C3318968   3.950   1.144   6.959  0.1486  0.2291 -0.2157
  168SOPE   H3X18969   3.897   1.242   6.959  1.9019  1.2083  0.3438
  168SOPE   H3Y18970   4.053   1.173   6.931 -0.4969  2.6835 -0.1491
  168SOPE   C3418971   3.940   1.086   7.097 -0.2972 -0.2712  0.1387
  168SOPE   H4X18972   4.004   0.995   7.098 -0.7355 -0.5942 -0.7150
  168SOPE   H4Y18973   3.841   1.039   7.115 -0.4394 -1.2598 -2.8308
  168SOPE   C3518974   3.989   1.187   7.202 -0.0427  0.4791  0.3794
  168SOPE   H5X18975   3.917   1.271   7.191  1.3361  1.7465  0.9448
  168SOPE   H5Y18976   4.088   1.233   7.184 -1.8222  3.5983 -2.1258
  168SOPE   C3618977   3.997   1.125   7.340 -0.2769  0.3046  0.4046
  168SOPE   H6X18978   4.071   1.045   7.365  0.8460  2.3206  3.8911
  168SOPE   H6Y18979   3.896   1.084   7.360  0.6821 -1.1912  2.4230
  168SOPE   C3718980   4.029   1.228   7.459 -0.5237  0.0607 -0.1927
  168SOPE   H7X18981   3.963   1.317   7.452  0.1202  0.4126 -2.1532
  168SOPE   H7Y18982   4.138   1.249   7.447 -0.9347  1.5496 -1.4585
  168SOPE   C3818983   4.013   1.166   7.598  0.0240  0.1246 -0.1186
  168SOPE   H8X18984   4.069   1.071   7.615 -1.4128 -0.9570 -1.3251
  168SOPE   H8Y18985   3.907   1.133   7.602  0.0582  0.0752  0.3751
  168SOPE   C3918986   4.037   1.261   7.721  0.7070 -0.2737  0.3554
  168SOPE   H9X18987   3.968   1.348   7.719  0.6676 -0.3241 -0.5968
  168SOPE   H9Y18988   4.144   1.292   7.718  0.5271  0.2412 -1.3600
  168SOPE  C31018989   3.998   1.195   7.849 -0.2266 -0.7196 -0.2379
  168SOPE  H10X18990   4.062   1.104   7.851 -0.0202 -0.5497  1.0948
  168SOPE  H10Y18991   3.893   1.159   7.849 -0.8584  0.8689 -3.6456
  168SOPE  C31118992   4.037   1.276   7.966 -0.0498 -0.3200 -0.5082
  168SOPE  H11X18993   3.971   1.364   7.984 -0.9984 -0.6736 -2.0877
  168SOPE  H11Y18994   4.141   1.312   7.950 -0.1769 -0.2453 -1.2142
  168SOPE  C31218995   4.038   1.183   8.086 -0.3694  0.1204  0.4185
  168SOPE  H12X18996   4.122   1.112   8.071 -0.5083  0.2509 -1.0064
  168SOPE  H12Y18997   3.944   1.125   8.089 -0.3088  0.0742  1.5456
  168SOPE  C31318998   4.073   1.262   8.215  0.1965  0.5778  0.2851
  168SOPE  H13X18999   3.984   1.309   8.263  0.5482  1.1497  0.3841
  168SOPE  H13Y19000   4.127   1.355   8.190  0.4830  0.4949  0.5880
  168SOPE  C31419001   4.157   1.189   8.321  0.2635  0.2270 -0.2845
  168SOPE  H14X19002   4.217   1.109   8.272  0.4859  0.4274 -0.3389
  168SOPE  H14Y19003   4.091   1.132   8.389  1.8278 -0.2458  0.8566
  168SOPE  C31519004   4.250   1.271   8.398  0.2024  0.0894 -0.6548
  168SOPE  H15X19005   4.189   1.343   8.456  0.0835  0.5390 -1.3229
  168SOPE  H15Y19006   4.322   1.326   8.333  0.8613  0.4401  0.3694
  168SOPE  C31619007   4.340   1.178   8.487  0.1445 -0.7573 -0.2716
  168SOPE  H16X19008   4.426   1.239   8.521  0.0410  0.1009 -1.5089
  168SOPE  H16Y19009   4.391   1.101   8.425  1.5560  2.9094 -3.8744
  168SOPE  C31719010   4.256   1.126   8.599  1.0229  0.1606  0.3348
  168SOPE  H17X19011   4.266   1.016   8.590 -1.1915 -0.0439  0.1397
  168SOPE  H17Y19012   4.146   1.143   8.597  0.8557 -0.9117 -0.3144
  168SOPE  C31819013   4.311   1.181   8.729  0.3464  0.5205  0.3995
  168SOPE  H18X19014   4.260   1.153   8.824  0.7140  0.5558  0.6062
  168SOPE  H18Y19015   4.312   1.292   8.725 -1.8337  0.5910  1.1278
  168SOPE  H18Z19016   4.412   1.137   8.742  0.3623  0.1454 -0.8808
  169SOPE     N19017   6.135   2.776   6.335  0.0541 -0.2820 -0.0281
  169SOPE   HN119018   6.194   2.821   6.262  0.0692  0.7392  0.5949
  169SOPE   HN219019   6.131   2.674   6.317 -2.4485 -0.4639  1.3018
  169SOPE   HN319020   6.038   2.812   6.323 -0.1726 -0.4819  1.0843
  169SOPE   C1219021   6.189   2.792   6.477 -0.9319 -0.0608 -0.7557
  169SOPE  H12A19022   6.130   2.727   6.545 -0.5088  1.6487  1.2862
  169SOPE  H12B19023   6.192   2.899   6.509 -3.3714  0.0850 -0.8769
  169SOPE   C1119024   6.333   2.734   6.470  0.1845 -0.1175  0.0573
  169SOPE  H11A19025   6.333   2.624   6.453  0.4511 -0.2652  0.9582
  169SOPE  H11B19026   6.381   2.734   6.571  0.7701 -0.2352 -0.2212
  169SOPE     P19027   6.557   2.827   6.376  0.0806 -0.0153 -0.0517
  169SOPE   O1319028   6.581   2.924   6.268 -0.1239  0.3895 -0.0767
  169SOPE   O1419029   6.622   2.697   6.376 -0.1948  0.0438  0.2265
  169SOPE   O1219030   6.405   2.816   6.382 -0.4930 -0.6118  0.3831
  169SOPE   O1119031   6.603   2.899   6.503  0.3148  0.5649 -0.7387
  169SOPE    C119032   6.535   3.013   6.556  0.4031  0.3641  0.0406
  169SOPE    HA19033   6.429   2.986   6.573  0.7925 -1.9613 -0.9978
  169SOPE    HB19034   6.532   3.094   6.480 -0.4804 -1.0319 -1.4588
  169SOPE    C219035   6.598   3.080   6.680 -0.5951  0.0787  0.5660
  169SOPE    HS19036   6.683   3.142   6.646 -1.5292  0.8248 -0.4334
  169SOPE   O2119037   6.635   2.971   6.769 -0.9176 -0.0225 -0.2248
  169SOPE   C2119038   6.752   2.913   6.731 -0.1913  0.3998 -0.0088
  169SOPE   O2219039   6.843   2.976   6.677 -0.2928 -0.1040  0.0871
  169SOPE   C2219040   6.742   2.765   6.750 -0.6706  0.3023 -0.1410
  169SOPE   H2R19041   6.814   2.713   6.684 -0.3413  2.0021 -1.1532
  169SOPE   H2S19042   6.635   2.745   6.730 -1.1276  0.8415  1.7144
  169SOPE    C319043   6.509   3.180   6.738 -0.0674 -0.7875 -0.1381
  169SOPE    HX19044   6.404   3.144   6.738 -0.6691  0.8828 -1.9001
  169SOPE    HY19045   6.500   3.263   6.665  1.5915 -2.9675 -2.9354
  169SOPE   O3119046   6.539   3.215   6.869 -0.5229  0.2772 -0.1476
  169SOPE   C3119047   6.655   3.280   6.892  0.3170  0.0330 -0.4310
  169SOPE   O3219048   6.729   3.322   6.805  0.3010  0.3317  0.3893
  169SOPE   C3219049   6.677   3.281   7.042 -0.4011 -0.5851  0.4700
  169SOPE   H2X19050   6.713   3.383   7.068 -1.5764 -0.1383  0.3584
  169SOPE   H2Y19051   6.747   3.203   7.080  1.3319  0.4347 -0.5383
  169SOPE   C2319052   6.786   2.742   6.897 -0.3515 -1.2404 -0.8995
  169SOPE   H3R19053   6.742   2.821   6.961  1.0707 -0.5904 -0.7241
  169SOPE   H3S19054   6.897   2.744   6.896 -0.3841  0.9768 -1.5890
  169SOPE   C2419055   6.737   2.609   6.960  0.7488 -0.6331 -0.1871
  169SOPE   H4R19056   6.626   2.607   6.965  0.7862  0.0070  1.1290
  169SOPE   H4S19057   6.767   2.518   6.904 -0.1414 -0.2180 -1.3659
  169SOPE   C2519058   6.788   2.586   7.106 -0.1767 -0.0384  0.0263
  169SOPE   H5R19059   6.897   2.608   7.115 -0.5882  1.8785  0.3987
  169SOPE   H5S19060   6.750   2.667   7.172  0.7435 -1.2593  2.1300
  169SOPE   C2619061   6.770   2.448   7.167 -0.6872 -0.1556  0.2056
  169SOPE   H6R19062   6.686   2.408   7.108  1.0945 -0.6396 -2.0624
  169SOPE   H6S19063   6.860   2.383   7.156  1.1225  1.8943  2.1874
  169SOPE   C2719064   6.710   2.457   7.306  0.1949 -0.4398 -0.1191
  169SOPE   H7R19065   6.636   2.539   7.295  0.2668 -0.1585  1.3596
  169SOPE   H7S19066   6.665   2.361   7.341  1.3997 -0.7386  0.6423
  169SOPE   C2819067   6.811   2.505   7.412 -0.1224 -0.6635  0.0995
  169SOPE   H8R19068   6.842   2.607   7.382 -0.6470 -0.8290 -1.0249
  169SOPE   H8S19069   6.752   2.529   7.503 -0.4038  1.7182 -0.6816
  169SOPE   C2919070   6.933   2.418   7.440  0.6232  0.3508  0.0086
  169SOPE   H9119071   6.982   2.399   7.344 -2.8919  2.2409 -2.2914
  169SOPE  C21019072   6.977   2.370   7.559 -1.0394  0.1076  0.1435
  169SOPE  H10119073   7.080   2.332   7.557 -0.9785  0.2919 -0.2785
  169SOPE  C21119074   6.915   2.399   7.693 -0.4723 -0.1354 -0.1273
  169SOPE  H11R19075   6.806   2.382   7.689 -0.2717 -1.7332  0.6360
  169SOPE  H11S19076   6.928   2.506   7.723  1.4744 -0.4945  0.3998
  169SOPE  C21219077   6.974   2.310   7.792  0.0011  0.3963 -0.3869
  169SOPE  H12R19078   7.081   2.331   7.811  0.2977 -2.3369  1.3303
  169SOPE  H12S19079   6.956   2.205   7.760 -0.6112  0.1078  0.8747
  169SOPE  C21319080   6.901   2.317   7.928  1.1622 -0.2818  0.3983
  169SOPE  H13R19081   6.793   2.294   7.921  0.5155  2.5068  0.7693
  169SOPE  H13S19082   6.918   2.421   7.964  0.8585  0.1732 -0.7451
  169SOPE  C21419083   6.956   2.219   8.033  0.2330  0.3250 -0.3539
  169SOPE  H14R19084   7.058   2.250   8.065 -0.4829  2.5874 -0.1205
  169SOPE  H14S19085   6.975   2.123   7.981 -1.7874 -1.1919  1.6268
  169SOPE  C21519086   6.869   2.196   8.155  0.8790  0.1571 -0.6443
  169SOPE  H15R19087   6.776   2.144   8.124  0.7473 -0.9487  1.5147
  169SOPE  H15S19088   6.834   2.289   8.203 -0.2447 -0.5319 -0.1194
  169SOPE  C21619089   6.931   2.106   8.266  0.6364 -0.4093  0.4082
  169SOPE  H16R19090   7.013   2.164   8.314 -0.5888  0.9956  0.8586
  169SOPE  H16S19091   6.978   2.016   8.221  2.5235 -1.4521  4.2442
  169SOPE  C21719092   6.838   2.061   8.375 -0.6187  0.1300 -0.6670
  169SOPE  H17R19093   6.758   2.016   8.314  0.9911 -1.2509 -1.8091
  169SOPE  H17S19094   6.794   2.155   8.415  1.1110  0.2625  1.0383
  169SOPE  C21819095   6.902   1.976   8.471  0.0118  0.6965 -0.1618
  169SOPE  H18R19096   6.924   1.873   8.436  1.0027  0.7222  0.3606
  169SOPE  H18S19097   6.835   1.964   8.558  0.0058  0.2071 -0.2360
  169SOPE  H18T19098   6.996   2.021   8.510 -0.0045 -0.2122  0.9251
  169SOPE   C3319099   6.555   3.274   7.134 -0.1125 -0.1983 -0.3040
  169SOPE   H3X19100   6.507   3.174   7.132 -2.6835  0.9828 -0.9693
  169SOPE   H3Y19101   6.476   3.348   7.107  0.1726 -0.2576 -1.3021
  169SOPE   C3419102   6.596   3.299   7.279 -0.2044  0.3238  0.4347
  169SOPE   H4X19103   6.665   3.384   7.301  2.4448 -1.4525 -0.6641
  169SOPE   H4Y19104   6.651   3.205   7.304 -0.6459  0.2058  0.9775
  169SOPE   C3519105   6.487   3.295   7.388  0.0803 -0.1264  0.5824
  169SOPE   H5X19106   6.419   3.208   7.378  1.0239 -0.6369 -1.9091
  169SOPE   H5Y19107   6.431   3.391   7.385 -0.7628 -0.6440 -0.3328
  169SOPE   C3619108   6.553   3.278   7.530  0.0935 -0.6109  0.5565
  169SOPE   H6X19109   6.632   3.355   7.543 -1.4838  1.0397  0.5194
  169SOPE   H6Y19110   6.608   3.181   7.526  0.8463 -0.2556  2.1284
  169SOPE   C3719111   6.456   3.274   7.649  0.4072 -0.6081  0.2208
  169SOPE   H7X19112   6.398   3.182   7.628  0.5771 -0.5127 -0.6752
  169SOPE   H7Y19113   6.384   3.358   7.643 -1.9930 -2.5597  0.7276
  169SOPE   C3819114   6.519   3.256   7.788  0.5756  0.0940  0.2270
  169SOPE   H8X19115   6.530   3.149   7.815  0.9433  0.3035  0.8985
  169SOPE   H8Y19116   6.621   3.299   7.783 -0.0017  1.4027 -0.8227
  169SOPE   C3919117   6.431   3.310   7.897 -0.8551  0.2504 -0.2950
  169SOPE   H9X19118   6.333   3.257   7.903 -0.9156  0.5668  2.0114
  169SOPE   H9Y19119   6.402   3.417   7.896 -2.0236 -0.0371 -3.8705
  169SOPE  C31019120   6.489   3.283   8.040 -0.4605 -0.4896 -0.0978
  169SOPE  H10X19121   6.556   3.368   8.062 -2.5040  0.6713  1.8703
  169SOPE  H10Y19122   6.542   3.186   8.053  0.1258 -0.4306 -1.9481
  169SOPE  C31119123   6.384   3.279   8.147  0.4762  0.1207  0.1613
  169SOPE  H11X19124   6.420   3.262   8.251 -1.3280  0.7114  0.9106
  169SOPE  H11Y19125   6.315   3.195   8.123  0.7631 -0.4466  1.2507
  169SOPE  C31219126   6.294   3.406   8.160  0.2481 -0.4012  0.2250
  169SOPE  H12X19127   6.225   3.403   8.073  1.7681 -0.5368 -0.9946
  169SOPE  H12Y19128   6.362   3.493   8.159  0.5506 -0.6442 -0.6315
  169SOPE  C31319129   6.208   3.405   8.283  0.9288  0.4294 -0.2775
  169SOPE  H13X19130   6.276   3.439   8.365  1.5137  0.5218 -0.7918
  169SOPE  H13Y19131   6.190   3.298   8.306 -1.9636  1.2725  1.6238
  169SOPE  C31419132   6.075   3.484   8.277  0.8722 -0.5340 -1.3907
  169SOPE  H14X19133   6.015   3.469   8.369 -0.8526  2.9520 -1.8535
  169SOPE  H14Y19134   6.015   3.451   8.189 -1.3622 -2.0819  0.6419
  169SOPE  C31519135   6.096   3.635   8.266  0.6278 -0.5577 -0.2715
  169SOPE  H15X19136   6.121   3.651   8.159 -0.7353 -0.9333 -0.6524
  169SOPE  H15Y19137   6.183   3.672   8.324  0.4393 -0.4659 -0.0471
  169SOPE  C31619138   5.979   3.719   8.303  0.6331 -0.6054 -0.3082
  169SOPE  H16X19139   5.904   3.721   8.220 -1.0334 -1.9445  1.1293
  169SOPE  H16Y19140   6.015   3.824   8.312 -1.0097 -0.1583  1.5930
  169SOPE  C31719141   5.905   3.693   8.441 -0.0672  0.5821 -0.0319
  169SOPE  H17X19142   5.860   3.592   8.434  0.4116  0.4128 -0.8481
  169SOPE  H17Y19143   5.823   3.768   8.450 -0.9372  0.0553 -2.9298
  169SOPE  C31819144   5.995   3.707   8.564 -0.6460  0.1188  0.3143
  169SOPE  H18X19145   5.938   3.699   8.659 -1.5958 -3.4452 -0.4999
  169SOPE  H18Y19146   6.051   3.803   8.558 -0.6480  0.2313  1.7626
  169SOPE  H18Z19147   6.071   3.627   8.553  1.2651  1.4536  3.2288
  170SOPE     N19148   1.052   1.031   6.175  0.6234  0.0249 -0.0358
  170SOPE   HN119149   1.102   0.987   6.095 -0.5083 -1.2004 -0.0851
  170SOPE   HN219150   1.081   1.128   6.198 -0.2908 -0.7488  4.9404
  170SOPE   HN319151   1.064   0.975   6.262  2.1246 -0.5900 -0.6050
  170SOPE   C1219152   0.903   1.037   6.135 -0.6411  0.0650 -0.3286
  170SOPE  H12A19153   0.872   0.932   6.117 -0.7576 -0.2957  1.8214
  170SOPE  H12B19154   0.891   1.097   6.042  0.3239  2.6729  1.1736
  170SOPE   C1119155   0.818   1.100   6.250 -0.2526  0.4800  0.5217
  170SOPE  H11A19156   0.710   1.082   6.232  0.0030 -0.1065 -0.4352
  170SOPE  H11B19157   0.835   1.210   6.251  3.6777 -0.0350 -0.8885
  170SOPE     P19158   0.793   0.933   6.445  0.0254 -0.0351  0.5299
  170SOPE   O1319159   0.878   0.898   6.558  0.4926  0.1003 -0.3472
  170SOPE   O1419160   0.759   0.829   6.351 -0.1470  0.1286 -0.7707
  170SOPE   O1219161   0.859   1.051   6.380  0.4366 -0.0477  0.3623
  170SOPE   O1119162   0.658   0.988   6.499 -0.3886  0.0844  0.3907
  170SOPE    C119163   0.633   1.126   6.535 -0.6506  0.3643  0.2710
  170SOPE    HA19164   0.567   1.179   6.463 -2.1561  1.7229  2.5821
  170SOPE    HB19165   0.731   1.177   6.548 -0.8526  0.6199  0.8206
  170SOPE    C219166   0.551   1.145   6.673 -0.2381 -0.2232 -0.6220
  170SOPE    HS19167   0.589   1.243   6.708 -1.6050  0.2188 -0.3546
  170SOPE   O2119168   0.591   1.042   6.770 -0.5831  0.0514 -0.0124
  170SOPE   C2119169   0.718   1.047   6.813  0.6082 -0.3207  0.2187
  170SOPE   O2219170   0.793   1.141   6.801  0.5749  0.4752  0.3647
  170SOPE   C2219171   0.740   0.920   6.890 -0.1141 -0.5857 -0.2441
  170SOPE   H2R19172   0.851   0.908   6.891 -0.0117  0.3374 -0.2349
  170SOPE   H2S19173   0.699   0.836   6.830 -1.2529  0.6270 -1.1845
  170SOPE    C319174   0.398   1.157   6.645 -0.2596 -0.4110  0.1859
  170SOPE    HX19175   0.374   1.059   6.597 -0.1371  0.7164 -2.2962
  170SOPE    HY19176   0.370   1.231   6.567  0.3552 -1.3625 -0.9677
  170SOPE   O3119177   0.323   1.171   6.769 -0.2862 -0.4157 -0.0817
  170SOPE   C3119178   0.285   1.292   6.789  0.8038 -0.2708  0.1167
  170SOPE   O3219179   0.330   1.393   6.733 -0.4685  0.4067  0.6545
  170SOPE   C3219180   0.196   1.292   6.913  0.3076  0.2683  0.4392
  170SOPE   H2X19181   0.254   1.229   6.984  2.0308  0.8290 -0.4470
  170SOPE   H2Y19182   0.108   1.226   6.900  0.0800  0.7229 -0.3852
  170SOPE   C2319183   0.673   0.927   7.029 -1.0449 -0.2322 -0.1999
  170SOPE   H3R19184   0.564   0.949   7.020 -1.3983 -1.5971  0.5656
  170SOPE   H3S19185   0.715   1.019   7.076 -0.3340 -0.8954  0.4646
  170SOPE   C2419186   0.709   0.811   7.118 -0.9720  0.3523  0.7135
  170SOPE   H4R19187   0.706   0.714   7.063  0.1233 -1.3334  3.4910
  170SOPE   H4S19188   0.814   0.823   7.150 -1.4665  0.7282  2.2339
  170SOPE   C2519189   0.612   0.797   7.235  0.1228  0.0403  0.5412
  170SOPE   H5R19190   0.506   0.799   7.202  0.7539 -1.5095 -1.6088
  170SOPE   H5S19191   0.630   0.704   7.293  0.5275  0.9460  1.9100
  170SOPE   C2619192   0.616   0.920   7.341 -0.1584  0.0387  0.5929
  170SOPE   H6R19193   0.712   0.917   7.395  1.5619  0.0815 -2.3454
  170SOPE   H6S19194   0.603   1.018   7.290 -2.3548 -0.5747 -0.1117
  170SOPE   C2719195   0.513   0.892   7.460  1.0006  0.2753 -0.0865
  170SOPE   H7R19196   0.409   0.871   7.425  0.5242  0.0352  1.4242
  170SOPE   H7S19197   0.541   0.792   7.498  2.1016  1.0374  1.1347
  170SOPE   C2819198   0.515   1.003   7.572 -0.2701 -0.0492  0.2598
  170SOPE   H8R19199   0.620   1.006   7.608  0.7141  0.7675 -2.5317
  170SOPE   H8S19200   0.494   1.103   7.528  1.1011  0.1766  0.1145
  170SOPE   C2919201   0.424   0.963   7.686  0.5292 -0.1324 -0.0036
  170SOPE   H9119202   0.457   0.869   7.733 -1.1854 -0.5622  0.3831
  170SOPE  C21019203   0.311   1.028   7.721  0.2926  0.5096  0.5193
  170SOPE  H10119204   0.254   0.989   7.807  2.1027 -2.7013  0.3701
  170SOPE  C21119205   0.254   1.154   7.656  0.1239  0.3110 -0.0442
  170SOPE  H11R19206   0.179   1.117   7.583  0.4312 -0.2202 -0.0952
  170SOPE  H11S19207   0.324   1.223   7.606  0.8277  0.2020  0.7764
  170SOPE  C21219208   0.161   1.242   7.757  0.4591 -0.3627 -0.1645
  170SOPE  H12R19209   0.072   1.181   7.783  2.0095 -2.0740  1.2651
  170SOPE  H12S19210   0.126   1.327   7.695  2.0701  0.0008 -0.5890
  170SOPE  C21319211   0.222   1.305   7.879 -0.8720 -0.1888  0.1446
  170SOPE  H13R19212   0.321   1.354   7.865 -0.4878 -0.4404  1.9286
  170SOPE  H13S19213   0.249   1.220   7.945 -1.5009 -0.5052 -0.0001
  170SOPE  C21419214   0.128   1.400   7.952  0.2097  0.1861 -0.2603
  170SOPE  H14R19215   0.029   1.352   7.964  0.3863 -0.5072 -1.4580
  170SOPE  H14S19216   0.104   1.488   7.888 -1.9545 -0.4026 -0.2786
  170SOPE  C21519217   0.185   1.439   8.087  0.8001 -0.2038 -0.1940
  170SOPE  H15R19218   0.275   1.503   8.070  0.8721 -0.7596 -2.0046
  170SOPE  H15S19219   0.206   1.354   8.156  1.0671  1.9522  2.4983
  170SOPE  C21619220   0.088   1.517   8.169 -0.2031 -0.0295 -0.6023
  170SOPE  H16R19221   0.006   1.443   8.180 -0.6596  0.2353 -2.1939
  170SOPE  H16S19222   0.042   1.601   8.113  0.4259 -0.3007 -1.5170
  170SOPE  C21719223   0.127   1.572   8.308  0.7382  0.5433 -0.4840
  170SOPE  H17R19224   0.210   1.644   8.299  0.0216  1.4415  0.0579
  170SOPE  H17S19225   0.160   1.481   8.363  1.4743  0.4271 -1.1189
  170SOPE  C21819226   0.011   1.635   8.382  0.5975 -0.2781 -0.3726
  170SOPE  H18R19227  -0.020   1.731   8.336 -0.4091  0.0555  0.9473
  170SOPE  H18S19228   0.043   1.665   8.484 -0.0026 -0.3717 -0.1526
  170SOPE  H18T19229  -0.060   1.549   8.391  1.2327 -0.7716 -0.0250
  170SOPE   C3319230   0.169   1.430   6.971 -0.2899 -0.2457 -0.8198
  170SOPE   H3X19231   0.132   1.492   6.887 -0.1846 -0.5523 -1.0954
  170SOPE   H3Y19232   0.261   1.481   7.006 -1.7236  0.7908  1.5450
  170SOPE   C3419233   0.067   1.423   7.085  0.2613 -0.5118  0.5294
  170SOPE   H4X19234   0.105   1.358   7.167  1.2551  1.0855  1.3669
  170SOPE   H4Y19235  -0.024   1.373   7.046  1.0271 -0.6748 -1.0863
  170SOPE   C3519236   0.020   1.562   7.141  0.0315  0.4395 -0.3101
  170SOPE   H5X19237  -0.068   1.547   7.207  1.2886 -0.4822  1.1906
  170SOPE   H5Y19238  -0.012   1.640   7.068 -1.5068  0.3066  0.2025
  170SOPE   C3619239   0.135   1.633   7.215  0.1969  0.6581 -0.3981
  170SOPE   H6X19240   0.087   1.726   7.252 -1.7492  0.4450 -2.2623
  170SOPE   H6Y19241   0.217   1.664   7.147  0.9959 -2.9249 -1.2160
  170SOPE   C3719242   0.185   1.553   7.339 -0.2168  0.0730  0.6523
  170SOPE   H7X19243   0.214   1.449   7.311 -0.0535  0.5587 -1.0116
  170SOPE   H7Y19244   0.118   1.562   7.427  1.1789 -2.2387  2.0192
  170SOPE   C3819245   0.326   1.602   7.378  0.0894  0.3695  0.0786
  170SOPE   H8X19246   0.321   1.710   7.406  2.8537  0.0344  2.1189
  170SOPE   H8Y19247   0.397   1.593   7.294 -0.2097 -1.9026  0.0425
  170SOPE   C3919248   0.392   1.517   7.490 -0.5816 -0.4771  0.6847
  170SOPE   H9X19249   0.392   1.410   7.460  0.3306  0.4419 -2.7860
  170SOPE   H9Y19250   0.317   1.542   7.569  1.0482  2.0351  1.5018
  170SOPE  C31019251   0.539   1.558   7.509  0.3903  0.2168 -0.1644
  170SOPE  H10X19252   0.550   1.668   7.525  2.6160  0.0149 -0.0771
  170SOPE  H10Y19253   0.587   1.533   7.412  0.0260 -2.3904  0.2841
  170SOPE  C31119254   0.607   1.492   7.625  0.2820  0.0711  0.1213
  170SOPE  H11X19255   0.715   1.500   7.599  0.0221 -0.3661 -1.1121
  170SOPE  H11Y19256   0.582   1.384   7.613  1.6442  0.0060 -2.4807
  170SOPE  C31219257   0.552   1.531   7.767 -0.4635  0.1951  0.3977
  170SOPE  H12X19258   0.445   1.503   7.767 -0.2376 -0.7380 -1.5551
  170SOPE  H12Y19259   0.561   1.641   7.781 -0.1683 -0.0488  2.3475
  170SOPE  C31319260   0.629   1.458   7.883 -0.3525  0.1813 -0.0604
  170SOPE  H13X19261   0.582   1.488   7.979  1.7328 -0.6222  1.2504
  170SOPE  H13Y19262   0.732   1.499   7.883 -0.6570  0.9584  0.3759
  170SOPE  C31419263   0.641   1.308   7.859  0.2211 -0.0450  0.3728
  170SOPE  H14X19264   0.687   1.285   7.761  0.1555 -0.0714  0.3489
  170SOPE  H14Y19265   0.544   1.254   7.862  0.4904 -0.6720 -1.5836
  170SOPE  C31519266   0.742   1.237   7.952  0.1314  0.0170 -0.6968
  170SOPE  H15X19267   0.754   1.297   8.044  1.2328 -0.9479 -0.2107
  170SOPE  H15Y19268   0.841   1.247   7.904 -0.4639  1.3430 -1.6905
  170SOPE  C31619269   0.706   1.095   7.986 -0.0469  0.2060 -0.2834
  170SOPE  H16X19270   0.689   1.033   7.896  0.5170  0.9750 -0.9218
  170SOPE  H16Y19271   0.615   1.099   8.049  0.0041 -0.0627 -0.1924
  170SOPE  C31719272   0.821   1.025   8.056  0.1565 -0.3285  0.0969
  170SOPE  H17X19273   0.771   0.938   8.103 -0.4206  0.0437  0.1796
  170SOPE  H17Y19274   0.860   1.084   8.143 -2.6240  0.7430  0.6539
  170SOPE  C31819275   0.939   0.993   7.972  0.4171  0.1355  0.0841
  170SOPE  H18X19276   0.905   0.920   7.896  2.1290 -1.6448  0.9794
  170SOPE  H18Y19277   1.030   0.960   8.028  1.2713  1.8653 -0.2552
  170SOPE  H18Z19278   0.952   1.089   7.918 -1.8570 -0.3032 -1.2981
  171SOPE     N19279   0.379   4.710   6.428  0.1647  0.3333 -0.0890
  171SOPE   HN119280   0.313   4.668   6.360  1.1546 -0.3665 -0.6301
  171SOPE   HN219281   0.316   4.743   6.504 -0.6415  1.2403 -1.1536
  171SOPE   HN319282   0.425   4.796   6.391  0.1967  0.7685  0.9397
  171SOPE   C1219283   0.484   4.616   6.478  0.0618 -0.4055  0.0662
  171SOPE  H12A19284   0.534   4.566   6.392 -0.0811  1.9792 -1.4412
  171SOPE  H12B19285   0.451   4.543   6.555  3.4075 -0.2225  1.7814
  171SOPE   C1119286   0.581   4.713   6.549 -0.5928 -0.6145  0.1469
  171SOPE  H11A19287   0.652   4.645   6.601 -0.0600 -0.0610  0.1591
  171SOPE  H11B19288   0.518   4.757   6.629 -0.2451  0.9207 -0.3992
  171SOPE     P19289   0.769   4.770   6.375 -0.2032 -0.2612 -0.2836
  171SOPE   O1319290   0.848   4.892   6.338  0.6719 -0.0132  0.1677
  171SOPE   O1419291   0.743   4.670   6.267 -0.4820  0.1872 -0.3487
  171SOPE   O1219292   0.643   4.807   6.461  0.8792 -0.3609  0.0352
  171SOPE   O1119293   0.849   4.693   6.482  0.3899  0.1908 -0.3614
  171SOPE    C119294   0.885   4.745   6.611 -0.5958  0.6824  0.6582
  171SOPE    HA19295   0.808   4.815   6.649 -2.7500 -2.0831  1.5724
  171SOPE    HB19296   0.982   4.799   6.609  0.5009 -1.2376  0.3389
  171SOPE    C219297   0.892   4.635   6.725 -0.4520  0.4354  0.5327
  171SOPE    HS19298   0.795   4.582   6.722  0.8784 -1.9573 -0.9428
  171SOPE   O2119299   0.907   4.705   6.852  0.3789 -0.1673  0.3042
  171SOPE   C2119300   0.803   4.761   6.906 -0.1099  0.1264 -0.1488
  171SOPE   O2219301   0.687   4.774   6.861 -0.5277 -0.2931 -0.1847
  171SOPE   C2219302   0.849   4.824   7.040  0.2119  0.3012 -0.2920
  171SOPE   H2R19303   0.822   4.931   7.036  0.1797  0.3434  1.0098
  171SOPE   H2S19304   0.960   4.830   7.041  0.2129  0.1252  1.1890
  171SOPE    C319305   0.997   4.522   6.713 -0.2637  0.1726  0.5556
  171SOPE    HX19306   1.101   4.560   6.703 -0.6564  1.1771  0.2347
  171SOPE    HY19307   0.978   4.481   6.611 -0.5562 -3.6543  2.0554
  171SOPE   O3119308   0.969   4.409   6.804 -0.2027 -0.2132  0.1100
  171SOPE   C3119309   1.077   4.371   6.874 -0.2169 -0.2407 -0.0544
  171SOPE   O3219310   1.187   4.426   6.873 -0.5071  0.2025  0.4835
  171SOPE   C3219311   1.049   4.234   6.939  0.6017  0.2376 -0.3517
  171SOPE   H2X19312   1.148   4.189   6.962  0.5493 -0.6684 -1.7964
  171SOPE   H2Y19313   1.001   4.180   6.854  1.5300 -0.3187 -0.5394
  171SOPE   C2319314   0.778   4.772   7.170 -0.5152 -0.1951  0.6778
  171SOPE   H3R19315   0.793   4.662   7.180  1.9514  0.0177 -0.2518
  171SOPE   H3S19316   0.670   4.798   7.165 -0.4260  0.3141  1.4059
  171SOPE   C2419317   0.830   4.835   7.306  0.2597  0.0010  0.1095
  171SOPE   H4R19318   0.921   4.775   7.327  0.4348 -0.1609 -1.0989
  171SOPE   H4S19319   0.855   4.942   7.289 -0.1621  0.2267  0.8697
  171SOPE   C2519320   0.728   4.822   7.418 -0.2788  0.0174  0.0245
  171SOPE   H5R19321   0.638   4.886   7.412 -1.7374 -1.8340  1.5757
  171SOPE   H5S19322   0.695   4.716   7.420 -0.4261  0.0481 -0.7739
  171SOPE   C2619323   0.798   4.858   7.545 -0.5324  0.2804  0.3594
  171SOPE   H6R19324   0.903   4.823   7.557 -0.2154  1.2138  0.3015
  171SOPE   H6S19325   0.805   4.969   7.543 -0.1783  0.2630  0.6611
  171SOPE   C2719326   0.722   4.824   7.677 -0.0364 -0.1450  0.7373
  171SOPE   H7R19327   0.635   4.893   7.673 -0.1654 -0.4167 -2.1164
  171SOPE   H7S19328   0.692   4.717   7.670  0.7363 -0.2322 -1.8797
  171SOPE   C2819329   0.812   4.854   7.802  0.7321  0.5723  0.0366
  171SOPE   H8R19330   0.907   4.796   7.810 -1.1342 -2.5075  0.5707
  171SOPE   H8S19331   0.852   4.958   7.799  0.2130  0.7833  0.3646
  171SOPE   C2919332   0.717   4.850   7.916  0.4045  0.5080 -0.1682
  171SOPE   H9119333   0.631   4.919   7.912 -1.4494 -1.8229 -1.1890
  171SOPE  C21019334   0.730   4.768   8.030  0.3792  0.5657  0.0054
  171SOPE  H10119335   0.644   4.758   8.098 -0.3821 -1.3167 -1.1958
  171SOPE  C21119336   0.846   4.679   8.068  0.3313  0.1429  1.1691
  171SOPE  H11R19337   0.885   4.724   8.162 -0.0789 -0.0054  1.4125
  171SOPE  H11S19338   0.918   4.706   7.988 -0.5840  3.9327  1.4998
  171SOPE  C21219339   0.817   4.534   8.067 -0.3256  0.0792 -0.0076
  171SOPE  H12R19340   0.915   4.481   8.081 -0.2180 -0.1528 -1.5241
  171SOPE  H12S19341   0.770   4.484   7.980 -0.7785  0.3558  0.0818
  171SOPE  C21319342   0.727   4.483   8.179 -0.1800  1.0305  0.4640
  171SOPE  H13R19343   0.620   4.509   8.169 -0.2275  0.9566  0.7681
  171SOPE  H13S19344   0.751   4.543   8.269 -1.8486  1.5536  0.5721
  171SOPE  C21419345   0.744   4.335   8.215  0.4148 -0.3718 -0.1547
  171SOPE  H14R19346   0.848   4.303   8.240  0.9698  0.5915 -1.2081
  171SOPE  H14S19347   0.713   4.269   8.132 -2.6853 -0.0984  0.7302
  171SOPE  C21519348   0.649   4.281   8.328  0.0247 -0.5059  0.2315
  171SOPE  H15R19349   0.594   4.192   8.291 -1.5030 -0.3375  2.0193
  171SOPE  H15S19350   0.565   4.354   8.332  0.0691 -0.5512  3.9194
  171SOPE  C21619351   0.708   4.253   8.465  0.2037  0.1581 -0.0786
  171SOPE  H16R19352   0.768   4.346   8.484 -1.1447  1.4904 -2.1133
  171SOPE  H16S19353   0.779   4.168   8.477  1.1208  1.3869  3.9096
  171SOPE  C21719354   0.595   4.245   8.575  0.3717  0.6560 -0.4059
  171SOPE  H17R19355   0.525   4.162   8.549  1.8726 -0.4451 -1.0250
  171SOPE  H17S19356   0.556   4.347   8.560  1.1085  1.2066  1.3247
  171SOPE  C21819357   0.658   4.230   8.717 -0.3402  0.0390  0.2100
  171SOPE  H18R19358   0.726   4.143   8.732  1.4568  0.9139 -2.5097
  171SOPE  H18S19359   0.581   4.239   8.797  0.6375 -2.0774  1.4604
  171SOPE  H18T19360   0.731   4.312   8.736  0.0457  0.1672 -1.7723
  171SOPE   C3319361   0.973   4.241   7.074  0.5437 -0.0507  0.1471
  171SOPE   H3X19362   0.951   4.136   7.104  0.1952  0.1817  0.7005
  171SOPE   H3Y19363   0.884   4.303   7.054  0.2755  0.4262  2.6880
  171SOPE   C3419364   1.047   4.314   7.193 -0.3270 -0.5436  0.7359
  171SOPE   H4X19365   1.155   4.301   7.173 -0.3622  0.2703 -0.0326
  171SOPE   H4Y19366   1.012   4.272   7.289 -2.0258 -2.4236 -0.6470
  171SOPE   C3519367   1.035   4.464   7.194  0.3575  0.3130  0.1163
  171SOPE   H5X19368   0.943   4.497   7.247 -0.0273 -2.0407  0.9778
  171SOPE   H5Y19369   1.033   4.509   7.093  0.1646 -0.7303 -0.3558
  171SOPE   C3619370   1.154   4.529   7.268 -1.0734  0.3842  0.0731
  171SOPE   H6X19371   1.147   4.640   7.279  2.0497  0.4888  1.5957
  171SOPE   H6Y19372   1.252   4.504   7.224 -0.8968  1.8639 -0.3870
  171SOPE   C3719373   1.161   4.484   7.420  0.0116  0.0264 -0.2608
  171SOPE   H7X19374   1.271   4.488   7.439 -0.1455 -0.0296  0.6890
  171SOPE   H7Y19375   1.144   4.375   7.434 -2.3303  0.6673  2.3888
  171SOPE   C3819376   1.067   4.560   7.502  0.3699 -0.0945 -0.1471
  171SOPE   H8X19377   0.962   4.541   7.472  0.4152 -2.0576  0.8749
  171SOPE   H8Y19378   1.092   4.667   7.484  2.0063 -0.6324 -1.2851
  171SOPE   C3919379   1.078   4.530   7.650  0.3291  0.4143  0.0187
  171SOPE   H9X19380   0.999   4.571   7.717  0.2279  3.0850 -1.7201
  171SOPE   H9Y19381   1.169   4.574   7.696  1.0622 -0.2152 -0.8192
  171SOPE  C31019382   1.090   4.375   7.670 -0.4219  1.0141 -0.0967
  171SOPE  H10X19383   1.188   4.339   7.630 -1.0387  1.2477 -1.8254
  171SOPE  H10Y19384   1.005   4.324   7.621  1.3109 -1.0406 -1.0698
  171SOPE  C31119385   1.108   4.357   7.822 -0.0841  0.3737 -0.3920
  171SOPE  H11X19386   1.029   4.411   7.879 -0.1301 -0.8916  0.7665
  171SOPE  H11Y19387   1.206   4.403   7.845 -0.3524  0.8189 -0.1351
  171SOPE  C31219388   1.127   4.211   7.869  0.1382  0.5506 -0.5696
  171SOPE  H12X19389   1.171   4.146   7.790 -2.4883 -2.0140 -0.0005
  171SOPE  H12Y19390   1.025   4.172   7.889 -0.0638  0.6828 -1.3414
  171SOPE  C31319391   1.201   4.197   8.004  0.9722 -0.4288 -0.7238
  171SOPE  H13X19392   1.309   4.225   8.002  1.0555 -0.6225  0.7105
  171SOPE  H13Y19393   1.204   4.087   8.023 -0.8067  0.1302  3.2195
  171SOPE  C31419394   1.121   4.260   8.123 -0.6851  0.0942  0.8552
  171SOPE  H14X19395   1.019   4.217   8.117 -1.3540  1.7849 -0.3304
  171SOPE  H14Y19396   1.123   4.370   8.111 -1.8558  0.1611  1.2706
  171SOPE  C31519397   1.194   4.228   8.251 -0.3371 -0.5019 -0.0431
  171SOPE  H15X19398   1.299   4.265   8.247 -0.6265  0.4584  1.2207
  171SOPE  H15Y19399   1.210   4.118   8.249 -0.5781 -0.5434  0.4318
  171SOPE  C31619400   1.131   4.277   8.383  0.5415 -0.8328  0.5118
  171SOPE  H16X19401   1.032   4.227   8.379  0.6826 -1.0050 -1.4885
  171SOPE  H16Y19402   1.114   4.387   8.384 -0.9994 -1.0361 -0.5823
  171SOPE  C31719403   1.199   4.249   8.516 -0.3658 -0.2679 -0.6730
  171SOPE  H17X19404   1.286   4.318   8.522 -0.7667  0.3652 -2.0614
  171SOPE  H17Y19405   1.224   4.141   8.512  1.0320  0.0887 -2.0612
  171SOPE  C31819406   1.104   4.293   8.637 -0.7923  0.4527  0.0640
  171SOPE  H18X19407   1.088   4.402   8.632 -2.4616  0.1353 -2.1301
  171SOPE  H18Y19408   1.146   4.263   8.736 -2.0697  0.0076  0.4856
  171SOPE  H18Z19409   1.006   4.241   8.630  0.0822 -0.9545 -2.4357
  172SOPE     N19410   1.672   6.403   6.485 -0.6631  0.2374  0.7144
  172SOPE   HN119411   1.693   6.311   6.441 -1.4756 -0.2484  1.3146
  172SOPE   HN219412   1.585   6.442   6.444  0.6838  1.4712 -1.0206
  172SOPE   HN319413   1.741   6.478   6.466 -1.0015  0.5990  0.9022
  172SOPE   C1219414   1.642   6.389   6.629 -0.2861  0.2593  0.0036
  172SOPE  H12A19415   1.597   6.484   6.663  1.0044  0.7091  0.4728
  172SOPE  H12B19416   1.733   6.363   6.687  1.5644  2.9325 -1.6009
  172SOPE   C1119417   1.536   6.280   6.645 -0.7788 -0.1395 -0.6356
  172SOPE  H11A19418   1.524   6.270   6.755  2.3151  1.8066 -0.0313
  172SOPE  H11B19419   1.587   6.190   6.605  1.0804  1.3874 -1.7818
  172SOPE     P19420   1.297   6.228   6.559 -0.0934  0.0805 -0.2127
  172SOPE   O1319421   1.341   6.099   6.499 -0.1265 -0.0416 -0.7001
  172SOPE   O1419422   1.202   6.311   6.482  0.5232  0.2029  0.0736
  172SOPE   O1219423   1.418   6.324   6.579 -0.7087  0.0785 -0.1380
  172SOPE   O1119424   1.244   6.204   6.707  0.3402 -0.5741  0.2227
  172SOPE    C119425   1.165   6.289   6.782 -0.1116  0.2795 -0.1526
  172SOPE    HA19426   1.102   6.227   6.849 -0.4749 -0.9735 -1.6267
  172SOPE    HB19427   1.103   6.354   6.717  1.2292 -0.0153 -1.7817
  172SOPE    C219428   1.251   6.374   6.881  0.1780 -0.4818  0.3127
  172SOPE    HS19429   1.328   6.429   6.823 -0.3467  0.1294  0.1918
  172SOPE   O2119430   1.312   6.287   6.978 -0.5471 -0.4406 -0.7088
  172SOPE   C2119431   1.422   6.319   7.033 -0.3505  0.2764  0.0806
  172SOPE   O2219432   1.486   6.421   7.004  0.7766  0.7980  0.7399
  172SOPE   C2219433   1.475   6.210   7.135 -0.4975 -0.4481  0.1655
  172SOPE   H2R19434   1.538   6.139   7.076 -0.9872  0.6166 -1.6661
  172SOPE   H2S19435   1.380   6.157   7.158 -1.6056  1.4175 -0.0343
  172SOPE    C319436   1.167   6.478   6.963  0.7511 -0.6795 -0.4008
  172SOPE    HX19437   1.080   6.424   7.005  1.2716 -0.5437  0.8601
  172SOPE    HY19438   1.123   6.551   6.891  1.9766 -0.5280 -1.0089
  172SOPE   O3119439   1.244   6.550   7.064  0.1417  0.3671  0.1287
  172SOPE   C3119440   1.197   6.569   7.184  0.4956 -0.3135  0.1426
  172SOPE   O3219441   1.080   6.550   7.221 -0.5402 -0.1060  0.6737
  172SOPE   C3219442   1.306   6.639   7.261 -0.1494 -0.2677  0.5127
  172SOPE   H2X19443   1.308   6.746   7.233  2.2719 -0.2230  0.7525
  172SOPE   H2Y19444   1.404   6.591   7.240  0.3406  0.3767  1.2972
  172SOPE   C2319445   1.534   6.264   7.264 -1.0787  0.4040  0.1918
  172SOPE   H3R19446   1.468   6.347   7.295  0.6236  2.2226 -0.9585
  172SOPE   H3S19447   1.639   6.299   7.251 -0.1514 -2.4908 -0.6047
  172SOPE   C2419448   1.527   6.163   7.379 -0.2440 -0.2595  0.3969
  172SOPE   H4R19449   1.430   6.126   7.419 -2.5442  3.3845 -1.5438
  172SOPE   H4S19450   1.589   6.075   7.351 -0.2968 -0.0020 -0.5478
  172SOPE   C2519451   1.606   6.218   7.498 -0.5310  0.2782  0.6014
  172SOPE   H5R19452   1.715   6.217   7.476 -0.9427  2.2752 -1.9432
  172SOPE   H5S19453   1.580   6.326   7.504  1.4180  0.7676  0.6646
  172SOPE   C2619454   1.585   6.159   7.635  0.1080  0.0112  0.0326
  172SOPE   H6R19455   1.474   6.167   7.646  0.1736  1.2902 -0.1861
  172SOPE   H6S19456   1.614   6.053   7.619  1.9694  0.5993 -0.5302
  172SOPE   C2719457   1.663   6.232   7.734  0.6184 -0.1968  0.1672
  172SOPE   H7R19458   1.762   6.240   7.685 -2.1326 -0.8263 -5.9137
  172SOPE   H7S19459   1.617   6.333   7.741 -1.9723 -1.0155 -3.7528
  172SOPE   C2819460   1.676   6.167   7.868 -0.2293 -0.7134  0.4174
  172SOPE   H8R19461   1.736   6.075   7.848  0.8238  0.0413  0.1009
  172SOPE   H8S19462   1.736   6.233   7.933 -1.5474  0.0439  0.8726
  172SOPE   C2919463   1.545   6.125   7.931 -0.1382  0.5448  0.9841
  172SOPE   H9119464   1.466   6.117   7.856 -0.7295 -2.9031  1.8947
  172SOPE  C21019465   1.516   6.105   8.061 -0.9844 -0.4741 -0.2972
  172SOPE  H10119466   1.414   6.071   8.085 -0.3363 -1.6732  0.8389
  172SOPE  C21119467   1.617   6.108   8.173  0.0940 -0.0048 -0.2589
  172SOPE  H11R19468   1.719   6.127   8.131  0.1593 -0.7155 -0.4153
  172SOPE  H11S19469   1.621   6.003   8.207  0.1289 -0.1813 -0.8075
  172SOPE  C21219470   1.580   6.192   8.288 -1.0037 -0.3264 -0.2506
  172SOPE  H12R19471   1.488   6.151   8.335 -1.3323  1.7252  1.0153
  172SOPE  H12S19472   1.554   6.299   8.272  0.7674  0.2025  0.2467
  172SOPE  C21319473   1.682   6.191   8.400 -0.3307 -0.6838 -0.7141
  172SOPE  H13R19474   1.769   6.235   8.347  0.4560 -0.5861  0.6460
  172SOPE  H13S19475   1.707   6.086   8.427 -0.4638  0.1946  3.1453
  172SOPE  C21419476   1.639   6.268   8.520  0.7081  0.5882 -0.3947
  172SOPE  H14R19477   1.557   6.216   8.575 -0.2796  0.3555 -2.0584
  172SOPE  H14S19478   1.606   6.367   8.482  0.1498  0.0936 -1.2279
  172SOPE  C21519479   1.756   6.291   8.618  0.0336 -0.0547 -0.1697
  172SOPE  H15R19480   1.739   6.374   8.690  0.9118  2.4232 -2.6902
  172SOPE  H15S19481   1.845   6.320   8.557  0.2676  0.5477  0.4603
  172SOPE  C21619482   1.800   6.154   8.684  0.5882  0.6637  0.3637
  172SOPE  H16R19483   1.815   6.077   8.605  1.2612  0.8212  0.3330
  172SOPE  H16S19484   1.713   6.126   8.746 -0.1197  0.4494 -0.7052
  172SOPE  C21719485   1.924   6.183   8.768 -0.0510  0.1297  0.5594
  172SOPE  H17R19486   1.922   6.278   8.825  1.4069  0.6359 -0.1976
  172SOPE  H17S19487   2.014   6.184   8.702  0.4882 -0.2328  1.2882
  172SOPE  C21819488   1.947   6.066   8.862 -0.1694 -0.2101  0.3663
  172SOPE  H18R19489   1.968   5.972   8.806  2.0998 -0.9357  2.3350
  172SOPE  H18S19490   1.850   6.043   8.913 -0.9136  0.1209 -0.8763
  172SOPE  H18T19491   2.032   6.090   8.929  1.6220  0.2043 -1.9849
  172SOPE   C3319492   1.276   6.638   7.407 -0.1658  0.0102  0.2372
  172SOPE   H3X19493   1.173   6.676   7.421 -0.2358  0.5030 -1.5749
  172SOPE   H3Y19494   1.343   6.712   7.456  2.5467 -0.9244 -1.9370
  172SOPE   C3419495   1.290   6.498   7.477 -0.0633 -0.1849  0.9063
  172SOPE   H4X19496   1.392   6.454   7.477 -0.6264 -1.6713 -3.1258
  172SOPE   H4Y19497   1.214   6.427   7.439  2.6743 -2.8175  0.1660
  172SOPE   C3519498   1.250   6.522   7.619  0.2474  0.1289  0.5243
  172SOPE   H5X19499   1.245   6.420   7.663 -2.6005  0.2934  0.6521
  172SOPE   H5Y19500   1.155   6.577   7.637 -0.9276 -1.6314 -0.1716
  172SOPE   C3619501   1.366   6.588   7.707  0.1097  0.4733  0.1438
  172SOPE   H6X19502   1.367   6.696   7.682  0.1390  0.4877  0.2042
  172SOPE   H6Y19503   1.463   6.540   7.682 -0.2740 -0.0433 -0.3600
  172SOPE   C3719504   1.334   6.558   7.854 -0.1499 -1.0703  0.0142
  172SOPE   H7X19505   1.350   6.451   7.880 -2.0138 -1.7157 -1.4335
  172SOPE   H7Y19506   1.230   6.581   7.886 -0.1150 -1.0773  0.1339
  172SOPE   C3819507   1.431   6.629   7.963  0.7537 -0.5556 -0.4858
  172SOPE   H8X19508   1.533   6.590   7.947  0.8567 -0.1018 -0.9289
  172SOPE   H8Y19509   1.399   6.599   8.065  0.8088  0.2089 -0.2398
  172SOPE   C3919510   1.428   6.785   7.957 -0.1978 -0.0421 -0.2716
  172SOPE   H9X19511   1.489   6.812   7.868 -0.3603  0.7308 -0.1520
  172SOPE   H9Y19512   1.472   6.838   8.043  0.8206  1.8104 -1.9029
  172SOPE  C31019513   1.284   6.852   7.960  0.5898 -0.3167  0.4533
  172SOPE  H10X19514   1.236   6.835   7.862  2.4596  2.6631 -1.0482
  172SOPE  H10Y19515   1.286   6.963   7.967 -4.3513 -0.0214 -1.1676
  172SOPE  C31119516   1.185   6.794   8.068 -0.8668  0.6247  0.4462
  172SOPE  H11X19517   1.242   6.766   8.159  1.4832  1.0987 -0.8406
  172SOPE  H11Y19518   1.129   6.707   8.027 -0.2511  0.9152 -1.0318
  172SOPE  C31219519   1.072   6.895   8.114  0.2473  0.2284  0.6919
  172SOPE  H12X19520   0.992   6.829   8.154 -0.4458 -0.0461 -1.1294
  172SOPE  H12Y19521   1.031   6.962   8.036 -0.7887  1.0404  1.9025
  172SOPE  C31319522   1.120   6.994   8.223 -0.3471  0.0531 -0.2492
  172SOPE  H13X19523   1.221   7.034   8.200 -0.0623 -2.0675 -2.9575
  172SOPE  H13Y19524   1.129   6.936   8.317 -1.3407 -1.2598 -0.9503
  172SOPE  C31419525   1.029   7.108   8.248  0.8712 -0.4878 -0.1981
  172SOPE  H14X19526   0.922   7.078   8.247  0.5090  0.7686  0.1612
  172SOPE  H14Y19527   1.024   7.187   8.170  0.7293 -0.1972  0.1052
  172SOPE  C31519528   1.058   7.185   8.378  0.3052  0.9159  0.2853
  172SOPE  H15X19529   1.155   7.236   8.363  1.2646 -0.4417  1.7443
  172SOPE  H15Y19530   1.060   7.109   8.459 -2.3958 -0.6246 -1.0019
  172SOPE  C31619531   0.950   7.287   8.415  0.7888  0.1809  0.0278
  172SOPE  H16X19532   0.971   7.352   8.502  0.9074  1.2495 -0.7805
  172SOPE  H16Y19533   0.873   7.219   8.457  2.0598  0.0123  2.1795
  172SOPE  C31719534   0.899   7.367   8.300  0.8334 -0.2126  0.8333
  172SOPE  H17X19535   0.840   7.300   8.234 -0.5485  3.9019 -2.3459
  172SOPE  H17Y19536   0.979   7.398   8.228 -0.4934 -0.6550 -0.8586
  172SOPE  C31819537   0.820   7.496   8.339 -0.3011 -0.1763  0.0635
  172SOPE  H18X19538   0.731   7.466   8.398 -0.2534  1.3280  0.9161
  172SOPE  H18Y19539   0.780   7.545   8.248 -0.1673 -1.8533 -0.9241
  172SOPE  H18Z19540   0.890   7.569   8.385 -1.1522  0.3363  0.5392
  173SAPI   C1219541   3.479   3.551  11.149  0.0320 -0.1063  0.1746
  173SAPI    H219542   3.381   3.603  11.146 -0.0513 -0.2722  0.0163
  173SAPI    O219543   3.581   3.649  11.160 -0.1571 -0.0267  0.4323
  173SAPI   HO219544   3.551   3.736  11.132  2.2491  0.7757  0.1819
  173SAPI   C1319545   3.481   3.465  11.266  0.2229  0.8930 -0.0558
  173SAPI    H319546   3.397   3.393  11.265 -1.3336  2.6479  1.0933
  173SAPI    O319547   3.449   3.537  11.381 -0.1636 -0.6044 -0.0717
  173SAPI   HO319548   3.418   3.621  11.346 -3.7345 -1.7051  0.2475
  173SAPI   C1419549   3.615   3.395  11.277  0.1873 -0.1044  0.4309
  173SAPI    H419550   3.687   3.479  11.282 -0.5753  0.7263 -1.9457
  173SAPI    O419551   3.626   3.314  11.397 -0.2086  0.2940  0.1846
  173SAPI   HO419552   3.549   3.259  11.414  0.5479 -0.6058  0.7364
  173SAPI   C1519553   3.640   3.304  11.151  0.3032  0.2030  0.1199
  173SAPI    H519554   3.571   3.217  11.152  0.9470 -0.3366 -1.0592
  173SAPI    O519555   3.775   3.246  11.154  0.0128 -0.8880 -0.3629
  173SAPI   HO519556   3.782   3.174  11.217  0.0436 -1.5911 -1.1716
  173SAPI   C1619557   3.618   3.382  11.021  0.0014  0.0457 -0.0385
  173SAPI    H619558   3.710   3.443  11.011  0.8811 -1.1142  0.8321
  173SAPI    O619559   3.617   3.288  10.919  0.2971  0.4634 -0.0184
  173SAPI   HO619560   3.672   3.211  10.935  2.5162  1.8443 -0.8855
  173SAPI   C1119561   3.490   3.460  11.021  0.6310  0.0933 -0.3193
  173SAPI    H119562   3.412   3.380  11.020 -2.6426  3.1767 -0.2032
  173SAPI     P19563   3.324   3.567  10.829  0.5539 -0.2485  0.4220
  173SAPI   O1319564   3.327   3.704  10.770  0.7196  0.6119  0.8908
  173SAPI   O1419565   3.216   3.547  10.929 -0.0792  0.8808 -0.4605
  173SAPI   O1219566   3.469   3.531  10.893  0.4055 -0.2341 -0.0265
  173SAPI   O1119567   3.297   3.467  10.713 -0.4223 -0.2442  0.1042
  173SAPI    C119568   3.321   3.330  10.725  0.1840  0.2459 -0.7287
  173SAPI    HA19569   3.428   3.308  10.703 -0.0495 -2.0065  0.3104
  173SAPI    HB19570   3.306   3.296  10.830  0.6336 -2.7149 -1.5789
  173SAPI    C219571   3.244   3.251  10.621  0.4205 -0.1622 -0.1202
  173SAPI    HS19572   3.268   3.146  10.647 -2.0440 -1.4004 -2.6550
  173SAPI   O2119573   3.286   3.298  10.494  0.0882  0.5987 -0.0450
  173SAPI   C2119574   3.306   3.196  10.407  0.5714  0.1150  0.8903
  173SAPI   O2219575   3.295   3.076  10.429  0.4246  0.2322 -0.2249
  173SAPI   C2219576   3.359   3.256  10.269  0.2106  0.2312  0.2370
  173SAPI   H2R19577   3.450   3.194  10.250 -0.3237 -0.0427 -1.4460
  173SAPI   H2S19578   3.293   3.235  10.183  1.9276  1.1768 -1.3444
  173SAPI    C319579   3.091   3.279  10.637  0.2798  0.2311  0.1505
  173SAPI    HX19580   3.066   3.386  10.618 -0.7268 -0.2435 -1.2977
  173SAPI    HY19581   3.063   3.253  10.741  1.8175  0.5427  0.6442
  173SAPI   O3119582   3.006   3.212  10.537 -0.1093  0.2886  0.3970
  173SAPI   C3119583   2.988   3.087  10.541 -0.1878 -0.3436  0.3557
  173SAPI   O3219584   3.023   3.012  10.629 -0.0178  0.3239  0.3109
  173SAPI   C3219585   2.914   3.045  10.415  0.6096 -0.1909  0.5874
  173SAPI   H2X19586   2.968   3.089  10.328 -0.4416  2.5593  1.2732
  173SAPI   H2Y19587   2.809   3.081  10.420  1.1983  1.6043  0.2569
  173SAPI   C2319588   3.419   3.403  10.276  0.3886  0.4688 -1.0445
  173SAPI   H3R19589   3.507   3.403  10.344  0.5415  3.6023 -1.2028
  173SAPI   H3S19590   3.340   3.467  10.321  0.0512  0.4165 -1.5594
  173SAPI   C2419591   3.439   3.450  10.136 -0.6189  0.4208 -0.2868
  173SAPI   H4R19592   3.468   3.557  10.133  2.3939 -0.3218  1.0494
  173SAPI   H4S19593   3.344   3.446  10.078 -0.3125  2.3289 -0.9559
  173SAPI   C2519594   3.539   3.362  10.058  0.2736  0.9848 -0.5848
  173SAPI   H5R19595   3.611   3.305  10.119 -0.3113 -0.8746 -1.5915
  173SAPI   C2619596   3.549   3.334   9.931 -0.7327 -0.5974  0.6584
  173SAPI   H6R19597   3.612   3.248   9.903  0.9144  0.7690  0.0899
  173SAPI   C2719598   3.454   3.398   9.833 -0.4667 -0.4646  0.0899
  173SAPI   H7R19599   3.430   3.500   9.869  0.5080  0.5249 -1.9680
  173SAPI   H7S19600   3.366   3.331   9.827 -1.4293  0.6986  0.8780
  173SAPI   C2819601   3.512   3.402   9.691 -0.4353 -0.8246 -0.5132
  173SAPI   H8R19602   3.543   3.498   9.647 -0.5516 -0.9564 -0.8875
  173SAPI   C2919603   3.535   3.290   9.618 -0.0903  0.0685 -0.0909
  173SAPI   H9R19604   3.576   3.309   9.517 -0.4388 -0.6264 -0.3626
  173SAPI  C21019605   3.510   3.145   9.651  0.4152 -0.2794  0.3738
  173SAPI  H10R19606   3.444   3.102   9.572  1.5000 -2.7739  0.8040
  173SAPI  H10S19607   3.454   3.123   9.744  0.4095 -3.1335 -0.2672
  173SAPI  C21119608   3.638   3.061   9.655 -0.0429 -0.3284  0.1739
  173SAPI  H11R19609   3.678   3.041   9.756  3.0351 -0.9336 -1.1058
  173SAPI  C21219610   3.703   3.015   9.548  1.0149  0.1679 -0.2873
  173SAPI  H12R19611   3.803   2.972   9.561  1.5491  1.5073  0.1361
  173SAPI  C21319612   3.663   3.038   9.410 -0.1561  0.0350  0.4188
  173SAPI  H13R19613   3.754   3.062   9.352  0.3764 -1.2894  0.7083
  173SAPI  H13S19614   3.597   3.127   9.394  1.5864  1.4784  1.1478
  173SAPI  C21419615   3.593   2.915   9.358 -0.6707  0.2952 -0.6484
  173SAPI  H14R19616   3.536   2.859   9.434  0.6129  0.2057  0.2468
  173SAPI  C21519617   3.569   2.890   9.228 -0.7043 -1.0442  0.2617
  173SAPI  H15R19618   3.505   2.804   9.202 -1.3734  0.0849 -1.9018
  173SAPI  C21619619   3.614   2.979   9.112  0.1156  0.6284 -0.4312
  173SAPI  H16R19620   3.607   3.087   9.136  0.3389  0.7539 -0.9200
  173SAPI  H16S19621   3.539   2.979   9.031 -0.3673  2.5920 -0.0066
  173SAPI  C21719622   3.764   2.946   9.070  0.0560 -0.1204  0.0545
  173SAPI  H17R19623   3.828   2.953   9.161 -1.9347  0.1852  1.4419
  173SAPI  H17S19624   3.799   3.014   8.990  0.7937 -1.1299 -0.5008
  173SAPI  C21819625   3.772   2.798   9.029 -1.2668  0.1556  0.1558
  173SAPI  H18R19626   3.710   2.740   9.100 -0.2458 -0.3042  0.6851
  173SAPI  H18S19627   3.876   2.762   9.050 -0.6215 -0.2838 -3.4236
  173SAPI  C21919628   3.728   2.768   8.888  0.1680 -0.0115  0.4860
  173SAPI  H19R19629   3.796   2.824   8.821 -1.4210  0.4031 -0.7994
  173SAPI  H19S19630   3.622   2.795   8.871 -0.7121 -5.0711 -2.9407
  173SAPI  C22019631   3.742   2.621   8.865  0.0446 -0.3687 -0.3195
  173SAPI  H20R19632   3.848   2.588   8.869  0.4237  0.7029 -1.3215
  173SAPI  H20S19633   3.724   2.599   8.757 -0.6067  1.2736 -0.5566
  173SAPI  H20T19634   3.682   2.556   8.933  0.7079  0.7059  1.3007
  173SAPI   C3319635   2.904   2.889  10.393  0.1774 -0.4313 -0.7551
  173SAPI   H3X19636   2.876   2.852  10.495  1.6804  2.8527  0.9236
  173SAPI   H3Y19637   3.005   2.843  10.387 -0.3951 -1.4227 -2.9756
  173SAPI   C3419638   2.796   2.849  10.292 -0.1552  1.1375  0.6115
  173SAPI   H4X19639   2.698   2.898  10.310 -1.3014 -0.4475 -1.1852
  173SAPI   H4Y19640   2.776   2.740  10.300  0.2023  1.0247  0.0092
  173SAPI   C3519641   2.852   2.859  10.148  0.1902 -0.8556 -0.2877
  173SAPI   H5X19642   2.933   2.792  10.112  1.1513 -0.0381  0.2946
  173SAPI   H5Y19643   2.897   2.961  10.143  1.8421 -1.5706 -0.4178
  173SAPI   C3619644   2.738   2.855  10.044  0.0946  0.6342  0.0751
  173SAPI   H6X19645   2.675   2.943  10.068 -0.6907 -0.1008  0.7430
  173SAPI   H6Y19646   2.681   2.762  10.065 -0.0014  0.7690  0.4061
  173SAPI   C3719647   2.782   2.862   9.892 -0.1721 -0.2581  0.2120
  173SAPI   H7X19648   2.852   2.776   9.892  0.7796  0.4548  2.5192
  173SAPI   H7Y19649   2.830   2.959   9.864 -0.9014 -0.4044 -1.5539
  173SAPI   C3819650   2.661   2.825   9.800 -0.3150  0.2844 -0.3167
  173SAPI   H8X19651   2.587   2.908   9.794 -0.2082  0.5515  1.7270
  173SAPI   H8Y19652   2.613   2.731   9.833  2.4152 -1.8178 -2.0935
  173SAPI   C3919653   2.722   2.793   9.658 -0.5864 -0.2126  0.1714
  173SAPI   H9X19654   2.638   2.755   9.596 -2.1961 -0.1564  2.2924
  173SAPI   H9Y19655   2.795   2.709   9.655  2.9895  2.7864 -0.9926
  173SAPI  C31019656   2.781   2.910   9.577 -0.1884  0.5338  0.3679
  173SAPI  H10X19657   2.866   2.962   9.626  0.6509  1.8971 -2.3740
  173SAPI  H10Y19658   2.712   2.993   9.552  1.9136  2.3332  0.4180
  173SAPI  C31119659   2.840   2.859   9.449 -0.1895 -0.3276 -0.5712
  173SAPI  H11X19660   2.767   2.814   9.378 -0.0016  0.9294 -1.5839
  173SAPI  H11Y19661   2.909   2.774   9.463 -1.0778 -0.8857  0.4782
  173SAPI  C31219662   2.932   2.965   9.376 -0.0502 -0.5806 -0.1792
  173SAPI  H12X19663   3.017   2.988   9.443 -1.2768  0.4059  1.0875
  173SAPI  H12Y19664   2.880   3.061   9.356  1.1864  0.2687  0.6766
  173SAPI  C31319665   2.999   2.913   9.253  0.0130 -0.1985  0.0823
  173SAPI  H13X19666   2.918   2.881   9.184 -0.8710  0.9974  0.5593
  173SAPI  H13Y19667   3.067   2.826   9.267  3.5347  2.3579 -0.4710
  173SAPI  C31419668   3.077   3.016   9.175  0.1095  0.3520  0.1448
  173SAPI  H14X19669   3.157   3.052   9.244  1.3977 -1.5802 -0.3070
  173SAPI  H14Y19670   3.012   3.106   9.163 -2.2738 -1.0759  1.8677
  173SAPI  C31519671   3.137   2.976   9.044 -0.0849  0.2963 -0.0738
  173SAPI  H15X19672   3.171   2.871   9.059 -0.6979 -0.0328 -0.9456
  173SAPI  H15Y19673   3.225   3.035   9.012 -1.4547  1.6974 -1.3159
  173SAPI  C31619674   3.032   2.977   8.929  0.4920 -0.6249 -0.1404
  173SAPI  H16X19675   2.954   3.051   8.959 -0.6902 -1.7700 -0.3039
  173SAPI  H16Y19676   2.993   2.873   8.928  1.0593 -0.8452  0.5223
  173SAPI  C31719677   3.079   3.018   8.788  0.7066  0.1923 -0.1636
  173SAPI  H17X19678   3.145   2.936   8.751 -1.2970 -1.5401 -0.0135
  173SAPI  H17Y19679   3.139   3.112   8.791  1.2892 -0.1397 -1.1423
  173SAPI  C31819680   2.962   3.037   8.691 -0.2230  0.0142 -0.0177
  173SAPI  H18X19681   2.995   3.043   8.585 -2.0751  2.3024 -0.5077
  173SAPI  H18Y19682   2.898   3.126   8.708 -1.0028 -0.6376  0.4828
  173SAPI  H18Z19683   2.899   2.946   8.697  1.7915 -1.6399 -2.4954
  174SAPI   C1219684   6.326   4.190  11.074 -0.1808  0.5386 -1.0882
  174SAPI    H219685   6.244   4.164  11.003 -0.7319  0.8032 -0.5498
  174SAPI    O219686   6.358   4.333  11.059  0.2229  0.5572  0.4669
  174SAPI   HO219687   6.414   4.329  10.981  0.8642  1.1364  0.8948
  174SAPI   C1319688   6.279   4.164  11.219 -0.5627 -0.2488 -0.8978
  174SAPI    H319689   6.275   4.055  11.240  3.0145  0.1662  2.6719
  174SAPI    O319690   6.162   4.233  11.253  0.4562 -1.0138 -0.2104
  174SAPI   HO319691   6.133   4.298  11.189 -0.1431 -1.7044 -0.6463
  174SAPI   C1419692   6.397   4.203  11.311  0.1260  0.4347 -0.3062
  174SAPI    H419693   6.419   4.310  11.287  4.4805 -0.3765 -0.2996
  174SAPI    O419694   6.363   4.197  11.450  0.2039  0.2384  0.0704
  174SAPI   HO419695   6.356   4.291  11.470  3.7020  0.4611  0.6960
  174SAPI   C1519696   6.522   4.116  11.282  0.1810 -0.1601 -0.1855
  174SAPI    H519697   6.496   4.010  11.302  0.2697  0.3736  2.8885
  174SAPI    O519698   6.632   4.161  11.361  0.2103  0.7094  0.2309
  174SAPI   HO519699   6.618   4.136  11.453  1.6960 -0.8063  0.0628
  174SAPI   C1619700   6.556   4.131  11.133 -0.2186 -0.1927  0.6999
  174SAPI    H619701   6.586   4.237  11.123 -0.3921 -0.2444 -0.4670
  174SAPI    O619702   6.665   4.038  11.104  0.0592  0.1098  0.2236
  174SAPI   HO619703   6.686   4.042  11.011  0.0025  1.8568  0.2715
  174SAPI   C1119704   6.443   4.112  11.036 -0.5577  0.2814 -0.2566
  174SAPI    H119705   6.418   4.003  11.040  0.7491 -0.0285 -0.2626
  174SAPI     P19706   6.388   4.091  10.769 -0.1814  0.4837  0.2003
  174SAPI   O1319707   6.300   3.985  10.816  0.4696 -0.3746 -0.5593
  174SAPI   O1419708   6.489   4.051  10.675 -0.3684  0.0395  0.0159
  174SAPI   O1219709   6.473   4.150  10.899  0.5327 -0.0782  0.1804
  174SAPI   O1119710   6.298   4.207  10.719  0.1498  0.0605  0.4876
  174SAPI    C119711   6.335   4.344  10.710  0.7533  0.1938 -0.1545
  174SAPI    HA19712   6.265   4.407  10.769 -0.4825  0.1059 -1.4667
  174SAPI    HB19713   6.438   4.360  10.747  0.5951  2.4979 -0.6751
  174SAPI    C219714   6.341   4.389  10.562  0.3459 -0.3289  0.1029
  174SAPI    HS19715   6.255   4.341  10.510 -1.5967  4.1163 -1.0356
  174SAPI   O2119716   6.468   4.343  10.526  0.0900  0.1876  0.3243
  174SAPI   C2119717   6.479   4.292  10.404 -0.1208  0.1473 -0.1362
  174SAPI   O2219718   6.385   4.289  10.320  0.3431 -0.1542  0.0938
  174SAPI   C2219719   6.622   4.235  10.386  0.3365  0.7443 -0.4702
  174SAPI   H2R19720   6.687   4.325  10.380  0.0621  1.0660  1.1463
  174SAPI   H2S19721   6.654   4.172  10.472  0.1057 -0.4314 -1.2282
  174SAPI    C319722   6.341   4.542  10.541 -0.0131  0.3290 -0.4402
  174SAPI    HX19723   6.434   4.577  10.590 -0.3174 -0.2071  0.5293
  174SAPI    HY19724   6.251   4.584  10.590  0.5639  2.2014 -0.9276
  174SAPI   O3119725   6.361   4.580  10.404  0.2153 -0.4496 -0.0260
  174SAPI   C3119726   6.251   4.564  10.322 -0.0563  0.1034  0.8308
  174SAPI   O3219727   6.139   4.537  10.356 -0.3785  0.3803  0.3797
  174SAPI   C3219728   6.305   4.607  10.183  0.1472 -0.1323 -0.0042
  174SAPI   H2X19729   6.384   4.531  10.163 -0.8488 -0.6823 -1.8917
  174SAPI   H2Y19730   6.349   4.707  10.202  0.5755 -0.1620 -0.8282
  174SAPI   C2319731   6.642   4.159  10.252  0.1027  0.1217  0.2465
  174SAPI   H3R19732   6.562   4.082  10.248  1.3003 -1.1874  1.2179
  174SAPI   H3S19733   6.740   4.107  10.258 -0.4310 -1.1234 -1.3144
  174SAPI   C2419734   6.633   4.250  10.129  0.4821 -0.1522 -0.2635
  174SAPI   H4R19735   6.534   4.298  10.114  0.9790  0.3308 -2.1362
  174SAPI   H4S19736   6.642   4.176  10.046 -3.7758 -0.5192 -0.4982
  174SAPI   C2519737   6.748   4.346  10.115 -0.0186  0.4664 -0.0792
  174SAPI   H5R19738   6.825   4.331  10.192 -3.3369 -0.6477  3.1675
  174SAPI   C2619739   6.750   4.442  10.009 -0.2983 -0.0647  0.4886
  174SAPI   H6R19740   6.835   4.508   9.989 -1.4325  1.5802  1.0444
  174SAPI   C2719741   6.642   4.454   9.912  0.3171  0.7848 -0.1168
  174SAPI   H7R19742   6.646   4.554   9.864  0.0365  0.8148 -0.0775
  174SAPI   H7S19743   6.546   4.457   9.966  0.9382  2.1295  0.9389
  174SAPI   C2819744   6.656   4.338   9.820  0.1295  0.2552  0.0487
  174SAPI   H8R19745   6.682   4.244   9.871 -3.5201 -0.5403  0.5865
  174SAPI   C2919746   6.639   4.350   9.686  0.3460  0.6212 -0.2689
  174SAPI   H9R19747   6.660   4.257   9.630  0.9285 -0.1035  1.1221
  174SAPI  C21019748   6.601   4.464   9.601 -0.4541  0.1571  0.2099
  174SAPI  H10R19749   6.687   4.504   9.541 -0.5368 -0.8658 -0.6030
  174SAPI  H10S19750   6.565   4.552   9.659  0.3063 -0.2056  1.2478
  174SAPI  C21119751   6.490   4.430   9.505 -0.7125 -0.3186  0.4507
  174SAPI  H11R19752   6.395   4.432   9.561 -1.0936 -0.1246 -0.1976
  174SAPI  C21219753   6.498   4.394   9.372 -0.6978  0.4512 -0.8747
  174SAPI  H12R19754   6.401   4.373   9.324 -1.4875  1.2823  0.3039
  174SAPI  C21319755   6.623   4.382   9.285  0.6966  0.6661 -0.3802
  174SAPI  H13R19756   6.633   4.279   9.244 -1.6208 -1.4912  4.1330
  174SAPI  H13S19757   6.714   4.399   9.346 -0.3173 -0.0409  1.3703
  174SAPI  C21419758   6.605   4.474   9.169 -0.5373  0.3396  0.6591
  174SAPI  H14R19759   6.618   4.582   9.188 -0.5762  0.8403 -1.9977
  174SAPI  C21519760   6.587   4.442   9.037 -0.5508 -0.0883  0.1107
  174SAPI  H15R19761   6.560   4.528   8.974  0.4686  1.6304  1.9433
  174SAPI  C21619762   6.562   4.304   8.977  0.2614  0.0736  0.2329
  174SAPI  H16R19763   6.635   4.223   8.998 -0.3686 -0.4563  0.3760
  174SAPI  H16S19764   6.548   4.313   8.867 -0.3506  0.0605  0.3033
  174SAPI  C21719765   6.424   4.231   9.006  0.1690 -0.5443  0.8316
  174SAPI  H17R19766   6.336   4.297   8.993  0.6147  0.1303  1.2153
  174SAPI  H17S19767   6.421   4.218   9.116 -1.3477  1.9094  1.1205
  174SAPI  C21819768   6.406   4.098   8.940  0.1514 -0.6047  0.0725
  174SAPI  H18R19769   6.504   4.046   8.949 -0.5834 -1.4554  3.8078
  174SAPI  H18S19770   6.388   4.109   8.831  0.1403  4.5198  0.4665
  174SAPI  C21919771   6.295   4.014   9.004 -0.2430 -0.0919 -0.2643
  174SAPI  H19R19772   6.207   4.081   9.012 -1.0255 -1.3099  1.6322
  174SAPI  H19S19773   6.325   3.988   9.107  3.8515  0.2308 -1.2920
  174SAPI  C22019774   6.263   3.901   8.907  0.2369  0.5711  0.2525
  174SAPI  H20R19775   6.187   3.823   8.929  2.6887 -2.5339 -1.8361
  174SAPI  H20S19776   6.360   3.851   8.885 -0.4154 -0.7178  0.2643
  174SAPI  H20T19777   6.244   3.924   8.800 -0.9027  0.7474  0.4905
  174SAPI   C3319778   6.200   4.625  10.073 -0.8126  0.1006  0.3916
  174SAPI   H3X19779   6.125   4.698  10.111  0.7566  2.6215 -1.1724
  174SAPI   H3Y19780   6.153   4.532  10.037 -1.9675  0.6343  0.5092
  174SAPI   C3419781   6.281   4.672   9.948  0.6793 -0.8655  0.3311
  174SAPI   H4X19782   6.372   4.613   9.928  2.2021  1.3954  0.3836
  174SAPI   H4Y19783   6.301   4.782   9.947 -1.7700 -0.3865 -0.0258
  174SAPI   C3519784   6.197   4.663   9.818 -0.5303 -0.9877 -0.0185
  174SAPI   H5X19785   6.110   4.731   9.831 -1.8505 -3.0011  2.1000
  174SAPI   H5Y19786   6.152   4.563   9.802 -0.0197 -1.0669 -0.9664
  174SAPI   C3619787   6.276   4.702   9.697 -0.1407  0.2157  1.0760
  174SAPI   H6X19788   6.351   4.621   9.686 -0.2973  0.4484 -2.3003
  174SAPI   H6Y19789   6.333   4.795   9.716  2.3345 -0.5862 -1.8468
  174SAPI   C3719790   6.182   4.699   9.578 -0.4934  0.0342  0.1102
  174SAPI   H7X19791   6.099   4.770   9.600 -0.5132 -0.3099  1.1926
  174SAPI   H7Y19792   6.135   4.599   9.571 -1.6892  0.5585  0.4198
  174SAPI   C3819793   6.246   4.738   9.441  0.5413 -0.2414  0.1270
  174SAPI   H8X19794   6.330   4.666   9.431 -1.2280 -2.0753 -2.1938
  174SAPI   H8Y19795   6.287   4.840   9.452 -0.2802 -0.1567  2.6675
  174SAPI   C3919796   6.142   4.721   9.334  0.1840 -0.0560  0.4874
  174SAPI   H9X19797   6.065   4.799   9.350  0.4725  0.3906 -0.2660
  174SAPI   H9Y19798   6.106   4.616   9.342 -1.9746  0.6043 -0.1630
  174SAPI  C31019799   6.205   4.749   9.195 -0.2208 -0.1331 -0.3455
  174SAPI  H10X19800   6.311   4.717   9.206 -0.3121 -0.0850  0.7778
  174SAPI  H10Y19801   6.214   4.859   9.188  0.3168 -0.0240  1.7214
  174SAPI  C31119802   6.143   4.686   9.067  0.0740 -0.0846  0.4191
  174SAPI  H11X19803   6.054   4.741   9.028 -0.4367 -0.9374  0.3779
  174SAPI  H11Y19804   6.104   4.587   9.098  2.8457 -0.9165  1.3314
  174SAPI  C31219805   6.238   4.653   8.949  0.1136  0.1699  0.7675
  174SAPI  H12X19806   6.305   4.572   8.986  1.2002  1.1497  0.9733
  174SAPI  H12Y19807   6.305   4.738   8.925 -1.1520  0.7278 -0.8313
  174SAPI  C31319808   6.165   4.608   8.820 -0.3087  0.2360  0.5743
  174SAPI  H13X19809   6.109   4.700   8.792 -1.2754 -0.6340 -0.4221
  174SAPI  H13Y19810   6.105   4.516   8.838 -1.5116  0.6513 -1.2107
  174SAPI  C31419811   6.264   4.582   8.701 -0.0557 -0.2868 -0.6329
  174SAPI  H14X19812   6.321   4.494   8.738 -0.5166 -0.1640  0.3980
  174SAPI  H14Y19813   6.331   4.669   8.686  0.7843 -0.6594  0.8515
  174SAPI  C31519814   6.189   4.552   8.561  0.2127  0.0810 -0.3494
  174SAPI  H15X19815   6.137   4.642   8.523  0.4277  0.9875  1.4467
  174SAPI  H15Y19816   6.116   4.470   8.577 -1.7273  1.9478  0.6476
  174SAPI  C31619817   6.287   4.502   8.449  0.1174  0.1628  0.1100
  174SAPI  H16X19818   6.351   4.426   8.499 -1.7513 -0.7508  1.1398
  174SAPI  H16Y19819   6.343   4.593   8.417 -1.1739  1.0886  0.4745
  174SAPI  C31719820   6.216   4.443   8.325 -0.0003  0.4446  0.2579
  174SAPI  H17X19821   6.161   4.354   8.360 -0.4396  0.6844  0.1828
  174SAPI  H17Y19822   6.300   4.413   8.259 -1.8743  1.9934 -2.9605
  174SAPI  C31819823   6.129   4.552   8.253 -0.3074 -0.3373  0.6448
  174SAPI  H18X19824   6.082   4.502   8.166  1.2589 -1.3874  0.3794
  174SAPI  H18Y19825   6.189   4.643   8.234  0.7611 -1.3007 -0.7541
  174SAPI  H18Z19826   6.045   4.579   8.320 -0.0560  0.1397  0.7714
  175SAPI   C1219827   2.486   3.132   6.109 -0.4297 -0.3344  0.4183
  175SAPI    H219828   2.488   3.090   6.212 -0.3659 -0.1955  0.4733
  175SAPI    O219829   2.594   3.225   6.104 -0.2643 -0.5616  0.3094
  175SAPI   HO219830   2.559   3.311   6.129  0.6303 -0.4356  1.1456
  175SAPI   C1319831   2.510   3.010   6.013 -0.6133  0.3620  0.2095
  175SAPI    H319832   2.419   2.947   6.018  1.1157 -2.0934  1.5949
  175SAPI    O319833   2.604   2.916   6.071 -0.0347 -0.7557 -0.3523
  175SAPI   HO319834   2.686   2.966   6.063 -0.6235  0.1207 -1.1758
  175SAPI   C1419835   2.544   3.062   5.879 -0.3658  0.3838 -0.3232
  175SAPI    H419836   2.624   3.137   5.892 -0.0979 -0.0830  0.7690
  175SAPI    O419837   2.591   2.961   5.786 -0.1188 -0.0649  0.4379
  175SAPI   HO419838   2.626   3.010   5.711  0.0545 -1.4940 -0.4322
  175SAPI   C1519839   2.405   3.129   5.834 -0.1941  0.5787 -0.1389
  175SAPI    H519840   2.325   3.053   5.839 -1.8284  2.1912 -1.2445
  175SAPI    O519841   2.414   3.171   5.697  0.0423 -0.2324 -0.5177
  175SAPI   HO519842   2.325   3.160   5.664 -0.5630  0.7077  0.7390
  175SAPI   C1619843   2.360   3.245   5.923  0.0170 -0.8812 -0.8823
  175SAPI    H619844   2.431   3.326   5.898 -0.6912  0.2755  0.7293
  175SAPI    O619845   2.237   3.294   5.881 -0.0678  0.3853  0.7569
  175SAPI   HO619846   2.252   3.388   5.866  1.5994 -0.0681 -0.6130
  175SAPI   C1119847   2.355   3.201   6.071 -0.4426 -0.1476  0.7961
  175SAPI    H119848   2.272   3.130   6.090 -0.2069 -1.1657 -1.9103
  175SAPI     P19849   2.240   3.317   6.281  0.0589  0.4055  0.3060
  175SAPI   O1319850   2.258   3.190   6.346 -0.0615  0.2490  0.0982
  175SAPI   O1419851   2.106   3.365   6.246  0.2060 -0.0108  0.4776
  175SAPI   O1219852   2.342   3.316   6.150  0.3003 -0.7266  0.0073
  175SAPI   O1119853   2.300   3.432   6.368  0.0803  0.1496 -0.3993
  175SAPI    C119854   2.408   3.402   6.458  0.1406 -0.2076 -0.0902
  175SAPI    HA19855   2.485   3.340   6.408 -0.1970  0.0058 -0.8876
  175SAPI    HB19856   2.451   3.504   6.472  0.1457  0.1403 -2.4593
  175SAPI    C219857   2.378   3.341   6.594  0.0280 -0.6543 -0.7888
  175SAPI    HS19858   2.393   3.231   6.580 -1.9328 -0.8192 -1.8538
  175SAPI   O2119859   2.243   3.374   6.647 -0.0766 -0.4174 -0.0021
  175SAPI   C2119860   2.186   3.288   6.730 -0.6779  0.0465  0.1231
  175SAPI   O2219861   2.222   3.175   6.752  0.5066 -0.1355  0.1829
  175SAPI   C2219862   2.076   3.371   6.802  0.1604  0.0981 -0.3704
  175SAPI   H2R19863   2.105   3.478   6.812 -0.7488  0.2348  0.9978
  175SAPI   H2S19864   1.992   3.356   6.731  1.1604  0.3285 -1.6182
  175SAPI    C319865   2.488   3.399   6.692  0.4283 -1.0442 -0.5627
  175SAPI    HX19866   2.472   3.509   6.698 -1.5311 -1.3779  0.4962
  175SAPI    HY19867   2.589   3.380   6.649  0.7997 -1.6492  0.5656
  175SAPI   O3119868   2.467   3.344   6.829 -0.5147 -0.6355 -0.2261
  175SAPI   C3119869   2.544   3.232   6.859 -0.2550  0.0735 -0.0034
  175SAPI   O3219870   2.634   3.188   6.782 -0.3608 -0.8287 -0.0132
  175SAPI   C3219871   2.502   3.174   6.988 -0.1795  0.2916  0.1261
  175SAPI   H2X19872   2.415   3.107   6.969 -0.9111  1.3868 -0.4272
  175SAPI   H2Y19873   2.470   3.255   7.057  0.5826  0.2859  0.5006
  175SAPI   C2319874   2.047   3.306   6.937  0.2339  0.3598  0.3894
  175SAPI   H3R19875   2.046   3.197   6.917  0.5616  0.4019  0.1367
  175SAPI   H3S19876   1.947   3.332   6.979 -0.5827 -0.8566 -0.7924
  175SAPI   C2419877   2.161   3.335   7.037  0.2934  0.0280 -0.3590
  175SAPI   H4R19878   2.148   3.442   7.065 -3.4207 -0.0395 -1.5857
  175SAPI   H4S19879   2.261   3.319   6.991  0.0052 -1.6036 -0.4359
  175SAPI   C2519880   2.156   3.240   7.151 -0.2402 -0.0062 -0.3605
  175SAPI   H5R19881   2.199   3.145   7.116 -0.6848 -0.3602  0.0526
  175SAPI   C2619882   2.125   3.254   7.278 -0.5185  0.0173 -0.4803
  175SAPI   H6R19883   2.125   3.163   7.339  0.3825 -0.0974 -0.6505
  175SAPI   C2719884   2.082   3.377   7.354 -0.4248 -0.3299  0.4241
  175SAPI   H7R19885   1.984   3.412   7.316  0.5669  0.5414 -1.4159
  175SAPI   H7S19886   2.159   3.454   7.335  1.3812 -2.8943 -3.3842
  175SAPI   C2819887   2.085   3.351   7.497  0.0782  0.5311  0.1821
  175SAPI   H8R19888   2.168   3.398   7.552  1.6003 -0.4093 -1.2529
  175SAPI   C2919889   2.004   3.272   7.570 -0.4046 -1.0272  0.8119
  175SAPI   H9R19890   2.009   3.261   7.679  1.1693 -0.8645  0.7684
  175SAPI  C21019891   1.890   3.201   7.502 -0.0718 -0.6502 -0.2035
  175SAPI  H10R19892   1.867   3.236   7.399  0.5199  0.4646  0.0356
  175SAPI  H10S19893   1.796   3.237   7.548 -0.1296 -2.5297  1.1842
  175SAPI  C21119894   1.894   3.054   7.517 -0.2054 -0.2722  0.5356
  175SAPI  H11R19895   1.924   3.000   7.426 -0.0625 -1.0003  1.0117
  175SAPI  C21219896   1.868   2.991   7.639 -0.7318 -0.4292  0.2035
  175SAPI  H12R19897   1.866   2.882   7.651 -3.1105 -0.1142  3.6410
  175SAPI  C21319898   1.816   3.067   7.763 -0.0253 -0.0959 -0.4408
  175SAPI  H13R19899   1.751   3.155   7.741 -1.0466 -0.3441  1.4822
  175SAPI  H13S19900   1.908   3.107   7.810  0.4010  0.4409 -1.7094
  175SAPI  C21419901   1.749   2.977   7.861 -0.4455 -0.2260  0.2798
  175SAPI  H14R19902   1.639   2.975   7.862 -0.4408 -2.3552 -0.0599
  175SAPI  C21519903   1.815   2.897   7.945 -0.2350 -0.9045  0.0034
  175SAPI  H15R19904   1.749   2.843   8.014  0.8803 -0.5205  1.4022
  175SAPI  C21619905   1.961   2.868   7.963 -0.2486  0.0229  0.1741
  175SAPI  H16R19906   1.997   2.877   8.068  0.0698  1.7096 -0.0568
  175SAPI  H16S19907   2.034   2.929   7.905  0.9092 -1.7009 -0.2182
  175SAPI  C21719908   1.980   2.727   7.914 -0.1403 -0.4014 -0.3372
  175SAPI  H17R19909   2.086   2.713   7.885  0.1944  0.3981  0.4340
  175SAPI  H17S19910   1.927   2.711   7.818  1.7058 -1.0701 -1.2677
  175SAPI  C21819911   1.942   2.617   8.014 -0.0302  0.2594 -0.1682
  175SAPI  H18R19912   1.940   2.518   7.962 -0.1264  0.4199 -0.4710
  175SAPI  H18S19913   1.838   2.643   8.041  0.1938 -0.3781  1.3404
  175SAPI  C21919914   2.024   2.617   8.141 -1.1594 -0.3975  0.5064
  175SAPI  H19R19915   2.027   2.723   8.176 -1.6945  0.4863 -2.0410
  175SAPI  H19S19916   2.126   2.573   8.135 -1.3807 -0.7713 -0.6002
  175SAPI  C22019917   1.956   2.545   8.260  0.1029 -0.7046 -0.2697
  175SAPI  H20R19918   2.005   2.571   8.356  0.8914  1.8641 -1.3197
  175SAPI  H20S19919   1.945   2.434   8.252 -0.8032 -0.6525  0.1460
  175SAPI  H20T19920   1.852   2.582   8.268  0.3497  0.1560 -0.9914
  175SAPI   C3319921   2.607   3.088   7.062  0.1008 -0.0141 -0.3208
  175SAPI   H3X19922   2.700   3.147   7.078  0.3984 -0.1187 -1.6500
  175SAPI   H3Y19923   2.627   2.990   7.013  0.8246 -1.5825  2.9455
  175SAPI   C3419924   2.548   3.060   7.203  0.1793  0.0269 -0.4489
  175SAPI   H4X19925   2.512   3.145   7.266 -1.4979  0.1984 -1.6015
  175SAPI   H4Y19926   2.631   3.011   7.260 -1.1694 -1.4532  0.2930
  175SAPI   C3519927   2.436   2.963   7.208  0.4480  0.6749  0.3316
  175SAPI   H5X19928   2.456   2.872   7.148 -3.9394 -0.0352 -0.2422
  175SAPI   H5Y19929   2.339   3.006   7.174  0.3871  0.7124  0.5511
  175SAPI   C3619930   2.399   2.927   7.357 -0.2995 -0.5122 -0.3656
  175SAPI   H6X19931   2.366   3.019   7.410 -1.0492  0.1382 -1.9225
  175SAPI   H6Y19932   2.487   2.892   7.415  0.7707 -0.5098 -1.9495
  175SAPI   C3719933   2.282   2.826   7.374 -0.3108 -0.3204 -0.4103
  175SAPI   H7X19934   2.299   2.721   7.344 -0.8058 -0.3753 -0.4993
  175SAPI   H7Y19935   2.204   2.857   7.302 -0.3436 -0.9082 -0.6233
  175SAPI   C3819936   2.237   2.819   7.517 -0.5188  0.0421 -0.5048
  175SAPI   H8X19937   2.162   2.899   7.538 -1.3298 -0.8645  0.1009
  175SAPI   H8Y19938   2.318   2.838   7.591 -1.8377 -1.7219  1.4826
  175SAPI   C3919939   2.176   2.684   7.553  0.5122 -0.0120 -0.6388
  175SAPI   H9X19940   2.134   2.699   7.655  0.6867 -1.0295 -0.4027
  175SAPI   H9Y19941   2.262   2.615   7.572  0.7148  0.5665  0.6065
  175SAPI  C31019942   2.072   2.627   7.459 -0.1451 -0.5699 -0.5100
  175SAPI  H10X19943   2.121   2.618   7.359  0.2864 -1.0358 -0.2551
  175SAPI  H10Y19944   1.986   2.694   7.437 -0.5492 -0.2159  2.0197
  175SAPI  C31119945   2.011   2.482   7.489 -0.5937 -0.0583 -0.0853
  175SAPI  H11X19946   1.948   2.487   7.581  1.8235  1.8426  1.5333
  175SAPI  H11Y19947   2.093   2.411   7.514 -1.7265 -0.7749  1.7130
  175SAPI  C31219948   1.919   2.447   7.375 -0.5531  0.2886 -0.2526
  175SAPI  H12X19949   1.970   2.456   7.277 -1.1348  1.4903 -0.4628
  175SAPI  H12Y19950   1.835   2.520   7.377  0.3060  1.2650  0.6990
  175SAPI  C31319951   1.871   2.301   7.385  0.1449  0.5125  0.0512
  175SAPI  H13X19952   1.789   2.304   7.460  0.5995  3.7213  0.4820
  175SAPI  H13Y19953   1.947   2.233   7.431  0.7614  1.0632 -0.1530
  175SAPI  C31419954   1.829   2.262   7.245  0.2283  0.4696 -0.1820
  175SAPI  H14X19955   1.916   2.244   7.178 -0.1231 -1.1031 -0.2322
  175SAPI  H14Y19956   1.769   2.344   7.200  0.3685 -0.3957 -1.9666
  175SAPI  C31519957   1.754   2.128   7.234  0.3744  0.2137 -0.4876
  175SAPI  H15X19958   1.659   2.128   7.292  1.0482  0.7891  0.6312
  175SAPI  H15Y19959   1.819   2.059   7.292 -0.8626 -2.0662 -1.7399
  175SAPI  C31619960   1.729   2.085   7.086  0.4331  0.3708  0.5232
  175SAPI  H16X19961   1.817   2.081   7.018  0.9395  0.9664  1.1360
  175SAPI  H16Y19962   1.662   2.155   7.032 -0.2003  0.5273  1.5196
  175SAPI  C31719963   1.672   1.947   7.069 -0.4884  0.4220 -0.4082
  175SAPI  H17X19964   1.746   1.870   7.100  0.1494  0.9732 -0.5481
  175SAPI  H17Y19965   1.654   1.923   6.962 -0.3579  0.7070 -0.4959
  175SAPI  C31819966   1.540   1.921   7.141  0.5385  0.1222 -0.6569
  175SAPI  H18X19967   1.514   1.818   7.111  0.0840  0.2608 -0.7460
  175SAPI  H18Y19968   1.463   1.992   7.104 -0.9014  0.0657  2.0256
  175SAPI  H18Z19969   1.539   1.915   7.252 -1.2423 -2.6311 -0.7762
  176SAPI   C1219970   1.456   1.850   6.650  0.0885  0.1716  0.4967
  176SAPI    H219971   1.559   1.888   6.664  0.1036  0.2672  0.1456
  176SAPI    O219972   1.420   1.760   6.753 -0.0093  0.5794  0.3602
  176SAPI   HO219973   1.487   1.691   6.750 -1.2148 -0.7585  2.8442
  176SAPI   C1319974   1.361   1.976   6.651  0.1533 -0.4645 -0.1894
  176SAPI    H319975   1.382   2.044   6.566  1.0337  1.2328  1.3252
  176SAPI    O319976   1.383   2.052   6.765  0.4310  0.0380  0.1877
  176SAPI   HO319977   1.342   2.009   6.840  1.2308 -3.6377 -1.3520
  176SAPI   C1419978   1.210   1.933   6.639  0.5805  1.2852  0.0176
  176SAPI    H419979   1.182   1.858   6.716 -0.3904  1.1084 -0.4977
  176SAPI    O419980   1.128   2.049   6.646 -0.0971  0.2960  0.1753
  176SAPI   HO419981   1.034   2.028   6.638  0.2037 -1.0642  0.1733
  176SAPI   C1519982   1.191   1.857   6.512 -0.0944  0.7587  0.3712
  176SAPI    H519983   1.203   1.934   6.432 -1.4795 -1.2754 -1.8590
  176SAPI    O519984   1.054   1.822   6.513 -0.4824 -0.1271 -0.2375
  176SAPI   HO519985   1.052   1.727   6.523 -0.0435 -0.1540 -0.4203
  176SAPI   C1619986   1.290   1.747   6.481 -0.0785 -0.2556  1.1343
  176SAPI    H619987   1.263   1.658   6.542 -2.9977  0.2608  0.6573
  176SAPI    O619988   1.279   1.702   6.351  0.3408 -0.0498  0.5234
  176SAPI   HO619989   1.317   1.614   6.355 -0.3177 -0.2816  2.7405
  176SAPI   C1119990   1.434   1.785   6.510  0.6992  0.5826  0.5623
  176SAPI    H119991   1.460   1.862   6.434  1.3339  0.9726  1.1720
  176SAPI     P19992   1.682   1.687   6.467  0.1046  0.1341 -0.0926
  176SAPI   O1319993   1.722   1.826   6.443  0.1765  0.3046 -0.3646
  176SAPI   O1419994   1.737   1.587   6.373  0.3216  0.2463  0.0686
  176SAPI   O1219995   1.517   1.675   6.483  0.4216 -0.2929  0.1377
  176SAPI   O1119996   1.729   1.649   6.612  0.2454  0.5432 -0.4323
  176SAPI    C119997   1.724   1.516   6.652 -0.0504 -0.0881  0.2093
  176SAPI    HA19998   1.636   1.466   6.606  0.3686 -0.0040 -0.7109
  176SAPI    HB19999   1.815   1.458   6.627 -1.4182 -1.8092 -0.8983
  176SAPI    C220000   1.712   1.502   6.805 -0.8841  0.0745  0.0919
  176SAPI    HS20001   1.756   1.403   6.828  0.0149  0.5342  0.4125
  176SAPI   O2120002   1.570   1.524   6.847 -0.1594  0.3135 -0.0746
  176SAPI   C2120003   1.501   1.411   6.865  0.2114 -0.2336  0.3082
  176SAPI   O2220004   1.542   1.295   6.842  0.1200 -0.0471  0.2780
  176SAPI   C2220005   1.372   1.440   6.941  0.7445 -0.1303 -0.4017
  176SAPI   H2R20006   1.375   1.548   6.965  0.2387 -0.1254 -0.3596
  176SAPI   H2S20007   1.289   1.432   6.867  0.7213  1.3011 -0.5466
  176SAPI    C320008   1.805   1.605   6.878  0.1769  0.7780 -0.5394
  176SAPI    HX20009   1.758   1.705   6.867 -0.3412  0.3796 -2.0174
  176SAPI    HY20010   1.908   1.606   6.835  0.7482  1.0223  0.7852
  176SAPI   O3120011   1.817   1.562   7.015  0.2730 -0.2827  0.2367
  176SAPI   C3120012   1.886   1.646   7.090  0.7712  0.0657  0.7635
  176SAPI   O3220013   1.955   1.737   7.051 -0.4553 -0.2871 -0.2163
  176SAPI   C3220014   1.870   1.614   7.237 -0.7070 -0.2803 -0.2943
  176SAPI   H2X20015   1.879   1.503   7.243 -1.2312 -0.2480  1.4836
  176SAPI   H2Y20016   1.771   1.653   7.271  0.1513 -0.1945  2.2327
  176SAPI   C2320017   1.363   1.363   7.076  0.4784  0.4775  0.1377
  176SAPI   H3R20018   1.355   1.256   7.045 -2.0970 -0.1511  2.7886
  176SAPI   H3S20019   1.275   1.391   7.137 -0.5707  2.7274 -2.2958
  176SAPI   C2420020   1.494   1.392   7.163  0.5089 -0.0772 -0.0969
  176SAPI   H4R20021   1.583   1.355   7.108 -0.4518  0.4193 -1.9995
  176SAPI   H4S20022   1.472   1.327   7.251 -1.0946  3.2616  2.1166
  176SAPI   C2520023   1.511   1.537   7.196  0.0843  0.6491  0.1967
  176SAPI   H5R20024   1.537   1.592   7.105 -0.5599  0.7335  0.0650
  176SAPI   C2620025   1.504   1.590   7.313  0.2704 -0.8166  0.0104
  176SAPI   H6R20026   1.519   1.698   7.327 -2.0894 -0.6057  1.1840
  176SAPI   C2720027   1.473   1.518   7.447 -0.1242  0.6495 -1.1937
  176SAPI   H7R20028   1.470   1.408   7.428  0.3576  0.2964  0.7004
  176SAPI   H7S20029   1.374   1.549   7.486 -0.7226 -1.5209 -0.9435
  176SAPI   C2820030   1.578   1.545   7.554 -0.3943  0.4241 -0.1029
  176SAPI   H8R20031   1.662   1.606   7.519 -1.8439  1.9637 -0.9819
  176SAPI   C2920032   1.585   1.486   7.676 -0.3801  0.6337 -0.2642
  176SAPI   H9R20033   1.661   1.514   7.750 -1.0716 -0.3626  0.8631
  176SAPI  C21020034   1.485   1.392   7.736 -0.3107  0.3553 -0.6158
  176SAPI  H10R20035   1.423   1.351   7.654  0.1086 -0.7778 -0.3867
  176SAPI  H10S20036   1.428   1.452   7.809  0.1760  1.5708 -1.2318
  176SAPI  C21120037   1.555   1.272   7.791  0.4081  0.1824 -0.6899
  176SAPI  H11R20038   1.605   1.211   7.715 -0.1132  0.7959 -1.5349
  176SAPI  C21220039   1.583   1.246   7.922  0.2035 -0.3145  0.1465
  176SAPI  H12R20040   1.614   1.147   7.956 -0.1229 -0.5524 -0.2487
  176SAPI  C21320041   1.555   1.340   8.035 -0.2364  0.5213  0.4275
  176SAPI  H13R20042   1.490   1.426   8.012  1.4416  0.8935 -3.2570
  176SAPI  H13S20043   1.653   1.392   8.038 -0.1340  0.4848 -1.4217
  176SAPI  C21420044   1.526   1.278   8.165 -0.6032  0.3197  0.5143
  176SAPI  H14R20045   1.419   1.255   8.173 -0.3182 -1.6955 -1.1461
  176SAPI  C21520046   1.610   1.247   8.266  0.5709 -0.0749 -0.4601
  176SAPI  H15R20047   1.578   1.197   8.359  0.7752  2.0788  0.7826
  176SAPI  C21620048   1.762   1.254   8.264  0.2889 -0.0445  0.5225
  176SAPI  H16R20049   1.799   1.277   8.162  1.0306  2.5337  1.3414
  176SAPI  H16S20050   1.811   1.161   8.299 -0.0584 -0.0824  0.9247
  176SAPI  C21720051   1.810   1.362   8.360 -0.9415  0.7119  0.0474
  176SAPI  H17R20052   1.921   1.354   8.368 -0.9217 -1.8986 -2.2870
  176SAPI  H17S20053   1.766   1.338   8.459  0.4438  3.6522  1.4472
  176SAPI  C21820054   1.779   1.507   8.306 -0.0621 -0.3793 -0.3907
  176SAPI  H18R20055   1.672   1.514   8.276 -0.0511 -1.1900 -0.6471
  176SAPI  H18S20056   1.843   1.523   8.217  0.4478  1.5726  0.2926
  176SAPI  C21920057   1.804   1.601   8.424 -1.0405  0.1516  0.3246
  176SAPI  H19R20058   1.913   1.616   8.441 -1.4495  2.4778  1.0318
  176SAPI  H19S20059   1.764   1.555   8.517 -0.3009  1.6247  1.3983
  176SAPI  C22020060   1.730   1.740   8.416 -0.1800 -0.0259  0.7297
  176SAPI  H20R20061   1.781   1.806   8.342 -2.4356  1.1904  0.2239
  176SAPI  H20S20062   1.727   1.785   8.518  0.5006 -2.1615  1.7063
  176SAPI  H20T20063   1.625   1.716   8.389  0.5025 -0.0497 -2.0737
  176SAPI   C3320064   1.977   1.677   7.324 -0.4110  0.3152  0.3407
  176SAPI   H3X20065   2.077   1.656   7.279 -0.7270 -0.0593 -0.1868
  176SAPI   H3Y20066   1.965   1.626   7.422 -1.6014 -1.7727 -0.8553
  176SAPI   C3420067   1.956   1.828   7.355  0.8784 -0.2048  0.3792
  176SAPI   H4X20068   1.853   1.856   7.326  0.9296  1.6214  1.8899
  176SAPI   H4Y20069   2.010   1.901   7.290  2.8973  0.0260  2.2468
  176SAPI   C3520070   1.992   1.869   7.501  0.5984 -0.6039 -0.6136
  176SAPI   H5X20071   1.964   1.975   7.518 -0.9280 -1.1652  0.3717
  176SAPI   H5Y20072   2.102   1.862   7.515  0.5545 -0.0971  0.0037
  176SAPI   C3620073   1.920   1.796   7.619 -0.5865 -0.0857  0.0918
  176SAPI   H6X20074   1.948   1.689   7.611  0.9398  0.1603  1.7346
  176SAPI   H6Y20075   1.813   1.824   7.611 -0.4646  0.3386 -0.0659
  176SAPI   C3720076   1.977   1.825   7.760 -0.4296  1.1888 -0.1144
  176SAPI   H7X20077   1.977   1.935   7.780 -0.0685  1.0592  0.6034
  176SAPI   H7Y20078   2.075   1.775   7.766 -0.5947  0.8377 -0.3577
  176SAPI   C3820079   1.885   1.770   7.867 -0.1213 -0.5167  0.4719
  176SAPI   H8X20080   1.865   1.661   7.851 -1.8785 -0.5070  2.4400
  176SAPI   H8Y20081   1.789   1.826   7.866 -0.3904 -0.9799 -0.6767
  176SAPI   C3920082   1.939   1.793   8.009  0.3773  0.0337 -0.0660
  176SAPI   H9X20083   1.857   1.771   8.080  0.0518 -2.4209 -1.1557
  176SAPI   H9Y20084   1.969   1.900   8.019  2.5010 -0.7389  2.2158
  176SAPI  C31020085   2.064   1.713   8.044 -0.1278  0.3299 -0.0824
  176SAPI  H10X20086   2.142   1.761   7.982  0.2681 -0.5799 -0.3004
  176SAPI  H10Y20087   2.059   1.604   8.024  0.2625  0.0558  1.2261
  176SAPI  C31120088   2.101   1.725   8.197  0.2192 -0.7455  0.3125
  176SAPI  H11X20089   2.018   1.672   8.249  0.1350 -0.4297  0.5044
  176SAPI  H11Y20090   2.108   1.830   8.233  0.1973 -0.6351 -0.0018
  176SAPI  C31220091   2.241   1.665   8.223 -0.6791 -0.2867  0.4085
  176SAPI  H12X20092   2.304   1.738   8.168 -1.8961  1.0586  0.7620
  176SAPI  H12Y20093   2.247   1.561   8.185  0.9184  0.1501 -0.5936
  176SAPI  C31320094   2.270   1.657   8.373  0.9425  0.7032  0.1472
  176SAPI  H13X20095   2.209   1.584   8.430  0.6692  0.0839 -0.9290
  176SAPI  H13Y20096   2.235   1.748   8.428 -1.0714 -1.0862  1.9420
  176SAPI  C31420097   2.416   1.647   8.409 -0.1816 -1.0060  0.4415
  176SAPI  H14X20098   2.456   1.550   8.375 -1.2410 -1.0052 -0.8539
  176SAPI  H14Y20099   2.422   1.645   8.520 -1.8446 -2.1231  0.5318
  176SAPI  C31520100   2.502   1.770   8.365 -0.3975  0.1055 -0.0228
  176SAPI  H15X20101   2.444   1.862   8.388  0.4487  0.8777 -0.9028
  176SAPI  H15Y20102   2.509   1.772   8.254  0.0804 -0.7854 -0.0126
  176SAPI  C31620103   2.635   1.764   8.421 -0.6028 -0.4806  0.1749
  176SAPI  H16X20104   2.687   1.678   8.374  0.5806  0.0897  0.3953
  176SAPI  H16Y20105   2.621   1.754   8.531 -1.7059 -1.4156 -0.0494
  176SAPI  C31720106   2.729   1.889   8.396  1.0533 -0.3134 -0.1833
  176SAPI  H17X20107   2.726   1.965   8.477  2.2238 -2.0009  1.4778
  176SAPI  H17Y20108   2.713   1.927   8.293  0.2678 -0.7625 -0.2239
  176SAPI  C31820109   2.876   1.850   8.412  0.5719  0.0310 -0.0304
  176SAPI  H18X20110   2.907   1.772   8.339  2.7758 -1.1567  2.1005
  176SAPI  H18Y20111   2.880   1.785   8.502 -1.8490  1.0080  0.8363
  176SAPI  H18Z20112   2.940   1.940   8.417  0.2880  0.2852 -0.8410
  177SLPC     N20113   1.287   4.473  11.188 -0.0094  0.2274 -0.6880
  177SLPC   C1320114   1.298   4.323  11.215  0.1369  0.3688  0.1473
  177SLPC  H13A20115   1.352   4.281  11.131  0.4940  1.7244 -0.3125
  177SLPC  H13B20116   1.358   4.305  11.303  2.4645 -0.5496 -1.5528
  177SLPC  H13C20117   1.199   4.284  11.232  0.2665  0.4761  1.1550
  177SLPC   C1420118   1.423   4.528  11.163  0.3367  0.4777  0.0930
  177SLPC  H14A20119   1.450   4.513  11.059  1.4465 -1.1177  0.6022
  177SLPC  H14B20120   1.431   4.633  11.186 -0.4002  0.8719 -1.3549
  177SLPC  H14C20121   1.492   4.478  11.229 -0.1314  1.3994  1.3057
  177SLPC   C1520122   1.235   4.529  11.316 -0.4294 -0.1936 -0.3085
  177SLPC  H15A20123   1.314   4.520  11.389  0.8175  0.5836 -1.5590
  177SLPC  H15B20124   1.210   4.633  11.306  1.8931  0.2789 -1.4645
  177SLPC  H15C20125   1.143   4.483  11.350 -0.7424  0.7263  0.1104
  177SLPC   C1220126   1.195   4.491  11.068  0.1551 -0.8435  0.1329
  177SLPC  H12A20127   1.169   4.595  11.057 -0.1175 -0.9169  0.0821
  177SLPC  H12B20128   1.104   4.439  11.095 -1.1129  0.6414 -1.1277
  177SLPC   C1120129   1.248   4.451  10.925  0.0675  0.6265  0.2777
  177SLPC  H11A20130   1.154   4.456  10.867 -0.7109  1.0695  1.5485
  177SLPC  H11B20131   1.287   4.347  10.928 -0.5848  0.3108 -1.7034
  177SLPC     P20132   1.353   4.573  10.723  0.4459 -0.1055  0.8414
  177SLPC   O1320133   1.237   4.650  10.676 -0.5761 -0.0807 -0.4674
  177SLPC   O1420134   1.483   4.646  10.702 -0.1808  0.2508 -0.5021
  177SLPC   O1220135   1.339   4.548  10.879  0.2075  0.2372 -0.4335
  177SLPC   O1120136   1.351   4.435  10.660  0.2042 -0.3676 -0.2423
  177SLPC    C120137   1.464   4.337  10.669  0.1996 -0.4060  0.1909
  177SLPC    HA20138   1.549   4.380  10.725 -0.4771  2.3877 -0.8312
  177SLPC    HB20139   1.424   4.259  10.738  0.7808  0.0830  1.0917
  177SLPC    C220140   1.497   4.291  10.524 -0.2136  0.1195 -0.0070
  177SLPC    HS20141   1.591   4.232  10.534  0.3202  1.2465  2.0170
  177SLPC   O2120142   1.513   4.405  10.429 -0.4211 -0.2254 -0.3254
  177SLPC   C2120143   1.625   4.467  10.443 -0.1112  0.4014 -0.0963
  177SLPC   O2220144   1.717   4.434  10.518 -0.3167 -0.7490 -0.7387
  177SLPC   C2220145   1.620   4.592  10.369 -0.3351  0.2931  0.0214
  177SLPC   H2R20146   1.526   4.580  10.312  0.1770 -1.4133 -0.4869
  177SLPC   H2S20147   1.624   4.672  10.446 -0.9918  0.8423 -0.5125
  177SLPC    C320148   1.384   4.201  10.466  0.0596 -0.3868 -0.2248
  177SLPC    HX20149   1.296   4.266  10.451  0.6168  0.5103  0.3413
  177SLPC    HY20150   1.354   4.124  10.541 -1.3813  0.3844 -0.0026
  177SLPC   O3120151   1.428   4.141  10.343  0.9447 -0.0594  0.1166
  177SLPC   C3120152   1.342   4.063  10.273 -0.3227 -0.1307 -0.2279
  177SLPC   O3220153   1.224   4.049  10.297 -0.5376 -0.8893  0.0406
  177SLPC   C3220154   1.409   4.002  10.146  0.3582 -0.0584 -0.6301
  177SLPC   H2X20155   1.428   3.894  10.162  0.3206 -0.1244 -1.0270
  177SLPC   H2Y20156   1.510   4.047  10.135  1.2742 -1.3603  1.9812
  177SLPC   C2320157   1.740   4.614  10.264 -0.5347 -0.6310  0.3267
  177SLPC   H3R20158   1.704   4.594  10.161 -0.1931  1.3844 -0.2077
  177SLPC   H3S20159   1.830   4.553  10.288  1.1610  0.8471 -2.0502
  177SLPC   C2420160   1.784   4.756  10.252 -0.4172 -0.1226  0.6914
  177SLPC   H4R20161   1.827   4.792  10.348  3.7404 -0.8742 -0.7457
  177SLPC   H4S20162   1.694   4.811  10.221  0.2682 -0.1002 -1.3063
  177SLPC   C2520163   1.891   4.758  10.140 -0.2458 -0.4688 -0.1435
  177SLPC   H5R20164   1.844   4.737  10.042 -0.2396 -0.4737 -0.1464
  177SLPC   H5S20165   1.975   4.685  10.141 -0.5781 -0.8828 -1.8164
  177SLPC   C2620166   1.970   4.886  10.134  0.4113  0.4158 -0.0331
  177SLPC   H6R20167   2.051   4.870  10.060 -0.4352  1.1746 -1.1529
  177SLPC   H6S20168   2.001   4.936  10.228 -0.5153  2.6597 -0.8704
  177SLPC   C2720169   1.889   4.999  10.067  0.0321 -0.3116  0.0874
  177SLPC   H7R20170   1.799   5.031  10.124  0.6777 -2.2373  2.2805
  177SLPC   H7S20171   1.857   4.975   9.964 -0.2193 -1.5388  0.4449
  177SLPC   C2820172   1.984   5.120  10.041 -0.3278 -0.0892 -0.4760
  177SLPC   H8R20173   2.068   5.091   9.975  1.5521 -1.0134  2.2370
  177SLPC   H8S20174   2.044   5.140  10.133 -1.3394  2.7650 -0.3785
  177SLPC   C2920175   1.907   5.232   9.976  0.2625  0.2275 -0.2680
  177SLPC   H9R20176   1.857   5.301  10.047  2.0164  0.9667  0.2870
  177SLPC  C21020177   1.875   5.248   9.849 -0.3366 -0.0928  0.2500
  177SLPC  H10R20178   1.841   5.342   9.804  0.5377  1.2154  2.2726
  177SLPC  C21120179   1.914   5.156   9.739 -0.5948  0.0669  0.7076
  177SLPC  H11R20180   1.957   5.223   9.662  0.3373  0.5761  1.6620
  177SLPC  H11S20181   1.994   5.083   9.765 -1.9153 -0.8471  2.3179
  177SLPC  C21220182   1.805   5.070   9.668 -0.2972 -0.2174 -0.2083
  177SLPC  H12R20183   1.705   5.081   9.710 -0.2306  0.7768 -0.3114
  177SLPC  C21320184   1.827   4.989   9.565 -0.5066 -0.4334 -0.1205
  177SLPC  H13R20185   1.744   4.935   9.517  0.4402 -0.8752 -1.3038
  177SLPC  C21420186   1.966   4.962   9.506  0.2574  0.0415  0.6504
  177SLPC  H14R20187   2.007   4.879   9.567 -1.9363  0.0691  2.2164
  177SLPC  H14S20188   2.024   5.056   9.501  0.8371 -0.3432  0.1467
  177SLPC  C21520189   1.943   4.921   9.361 -0.1274 -0.2300 -1.0735
  177SLPC  H15R20190   1.877   4.993   9.307 -0.2621  0.3391 -0.1455
  177SLPC  H15S20191   1.895   4.821   9.356 -1.9148  0.6962 -3.3932
  177SLPC  C21620192   2.083   4.913   9.287  0.3003  0.5912  0.7655
  177SLPC  H16R20193   2.144   4.851   9.356 -1.5369 -0.0398  1.8357
  177SLPC  H16S20194   2.130   5.013   9.292 -2.1276  1.7792  0.4847
  177SLPC  C21720195   2.086   4.860   9.140  0.0376 -0.1963 -0.5765
  177SLPC  H17R20196   2.037   4.761   9.150  0.1487 -0.0081  2.1628
  177SLPC  H17S20197   2.188   4.846   9.098 -0.4722 -0.4412 -1.7563
  177SLPC  C21820198   2.006   4.944   9.045  0.0617 -0.2823  0.5733
  177SLPC  H18R20199   2.074   5.023   9.009  1.2813 -1.7351 -0.3871
  177SLPC  H18S20200   1.906   4.981   9.075  0.2687  0.9276 -0.2123
  177SLPC  H18T20201   1.990   4.874   8.960  0.2889  1.5750 -1.0127
  177SLPC   C3320202   1.319   4.028  10.022 -0.3587  0.0059 -0.2968
  177SLPC   H3X20203   1.315   4.136   9.994 -0.7168 -0.1615 -0.9077
  177SLPC   H3Y20204   1.212   4.001  10.032 -0.0298 -1.0873  0.2961
  177SLPC   C3420205   1.381   3.963   9.900 -0.4665 -1.3683  0.4295
  177SLPC   H4X20206   1.401   3.855   9.916 -0.5597 -1.5458 -0.5835
  177SLPC   H4Y20207   1.481   4.009   9.882 -1.1503 -0.4195 -1.0931
  177SLPC   C3520208   1.287   3.975   9.775  0.3297 -0.2552  0.3467
  177SLPC   H5X20209   1.251   4.080   9.769  0.9487 -0.0521  0.0950
  177SLPC   H5Y20210   1.202   3.907   9.797 -1.4146  1.5034 -0.8023
  177SLPC   C3620211   1.347   3.924   9.645  0.1861 -0.0180  0.6969
  177SLPC   H6X20212   1.409   3.835   9.669 -1.7876 -2.2887 -2.1390
  177SLPC   H6Y20213   1.408   4.000   9.592  3.0696 -1.5367  1.7744
  177SLPC   C3720214   1.251   3.874   9.540  0.1986  0.2496  0.2224
  177SLPC   H7X20215   1.197   3.959   9.494 -0.9983  0.1545  1.4097
  177SLPC   H7Y20216   1.181   3.811   9.600  1.0460 -1.1503 -0.2331
  177SLPC   C3820217   1.312   3.793   9.428 -0.7702  0.5493 -0.4857
  177SLPC   H8X20218   1.226   3.758   9.368  0.6864 -1.3640 -1.5499
  177SLPC   H8Y20219   1.356   3.696   9.460  0.5601  1.0405 -0.8011
  177SLPC   C3920220   1.421   3.861   9.338 -0.3005  0.5839 -0.2193
  177SLPC   H9X20221   1.514   3.878   9.396  0.1836  0.1557 -0.8609
  177SLPC   H9Y20222   1.386   3.965   9.320  2.5214  1.5283 -0.5001
  177SLPC  C31020223   1.440   3.786   9.206 -1.1473  0.1118  0.5941
  177SLPC  H10X20224   1.494   3.843   9.127 -1.3102 -2.1569 -1.2464
  177SLPC  H10Y20225   1.343   3.762   9.157 -0.1914  0.8516 -1.7088
  177SLPC  C31120226   1.520   3.650   9.217 -0.7063 -0.0057  0.1289
  177SLPC  H11X20227   1.518   3.595   9.120 -1.0317  2.2607 -1.1799
  177SLPC  H11Y20228   1.486   3.589   9.303 -0.1647 -0.5236 -0.0264
  177SLPC  C31220229   1.675   3.679   9.218 -0.5119  0.3643 -0.4881
  177SLPC  H12X20230   1.708   3.704   9.321 -0.0180 -2.2263  0.0163
  177SLPC  H12Y20231   1.703   3.758   9.145  0.1445  1.7875  1.2586
  177SLPC  C31320232   1.763   3.552   9.183 -0.6470 -0.4938  0.5148
  177SLPC  H13X20233   1.748   3.515   9.080  2.9141  1.2910 -0.7457
  177SLPC  H13Y20234   1.743   3.476   9.261  0.6478  0.0122  1.3717
  177SLPC  C31420235   1.916   3.590   9.192  0.2979  0.5393 -0.7761
  177SLPC  H14X20236   1.929   3.675   9.122  0.6215 -0.3525 -1.8082
  177SLPC  H14Y20237   1.981   3.507   9.157 -0.3492 -0.0535 -0.5719
  177SLPC  C31520238   1.963   3.631   9.333 -0.3355 -0.3149  1.0347
  177SLPC  H15X20239   1.922   3.556   9.404 -0.0657 -2.1980 -0.7730
  177SLPC  H15Y20240   1.935   3.737   9.354  1.2899  0.3117  0.1166
  177SLPC  C31620241   2.110   3.616   9.350  0.4732 -0.4204 -0.6222
  177SLPC  H16X20242   2.157   3.682   9.273  0.8016 -0.1405 -0.1875
  177SLPC  H16Y20243   2.141   3.510   9.337  0.3385 -0.4699 -0.5393
  177SLPC  C31720244   2.149   3.664   9.494 -0.1329  0.1591  0.8490
  177SLPC  H17X20245   2.130   3.773   9.501  1.4586  0.4598  0.6360
  177SLPC  H17Y20246   2.259   3.656   9.501 -0.1224  1.3231  2.3191
  177SLPC  C31820247   2.070   3.599   9.604 -0.4516 -0.2672  0.5905
  177SLPC  H18X20248   2.076   3.489   9.590  3.3506 -0.0978  0.1994
  177SLPC  H18Y20249   1.973   3.650   9.622 -0.0559 -0.0625  2.2072
  177SLPC  H18Z20250   2.129   3.604   9.699 -1.9176 -0.9452  1.5509
  178SLPC     N20251   3.395   0.342  11.312 -0.3865 -0.2561 -0.7284
  178SLPC   C1320252   3.313   0.441  11.236  0.0371 -0.1732  0.3922
  178SLPC  H13A20253   3.319   0.433  11.128  1.4943  0.1463  0.4332
  178SLPC  H13B20254   3.211   0.449  11.270 -0.3105  0.0362 -0.6749
  178SLPC  H13C20255   3.354   0.538  11.258 -2.4476  1.0911 -0.2958
  178SLPC   C1420256   3.378   0.360  11.460  0.0841 -0.0450 -0.7435
  178SLPC  H14A20257   3.406   0.268  11.508 -1.0710 -0.2956 -0.5184
  178SLPC  H14B20258   3.439   0.442  11.495 -0.0930 -0.5869  0.8779
  178SLPC  H14C20259   3.276   0.391  11.481  0.5361 -0.1126  1.6344
  178SLPC   C1520260   3.540   0.348  11.275 -0.1163  0.5318  0.0270
  178SLPC  H15A20261   3.547   0.327  11.170  1.4479 -0.3023  0.2772
  178SLPC  H15B20262   3.597   0.438  11.294  0.6750  0.1000 -0.2869
  178SLPC  H15C20263   3.599   0.274  11.327 -1.8317  0.6524  2.2343
  178SLPC   C1220264   3.342   0.208  11.272 -0.1721  0.7260  0.1410
  178SLPC  H12A20265   3.249   0.185  11.323  1.0129  0.7408  2.3721
  178SLPC  H12B20266   3.409   0.135  11.314 -2.7690 -1.7328  0.1770
  178SLPC   C1120267   3.324   0.169  11.124  0.2476 -0.2292 -0.9452
  178SLPC  H11A20268   3.222   0.201  11.093  0.5292  1.5321 -0.1406
  178SLPC  H11B20269   3.321   0.058  11.115 -1.3017 -0.3070  0.1591
  178SLPC     P20270   3.401   0.287  10.903  0.1001 -0.3031 -0.0638
  178SLPC   O1320271   3.343   0.419  10.925 -0.0608 -0.0476 -0.3138
  178SLPC   O1420272   3.528   0.275  10.820 -0.2727 -0.6764 -0.2402
  178SLPC   O1220273   3.421   0.219  11.037  0.2483  0.4830  0.2418
  178SLPC   O1120274   3.292   0.209  10.823 -0.6047 -0.2887 -0.1544
  178SLPC    C120275   3.156   0.255  10.813 -0.7495  0.0484  0.5009
  178SLPC    HA20276   3.101   0.224  10.904 -0.2373  0.2782  0.8901
  178SLPC    HB20277   3.144   0.363  10.792 -0.7380 -0.3174 -1.5524
  178SLPC    C220278   3.086   0.185  10.691 -0.3070 -0.0296 -0.0414
  178SLPC    HS20279   3.116   0.078  10.685  0.7807  0.3567 -1.7498
  178SLPC   O2120280   3.118   0.257  10.572 -0.2606  0.4957  0.0740
  178SLPC   C2120281   3.126   0.188  10.466  0.6638  0.2713 -0.1942
  178SLPC   O2220282   3.120   0.065  10.459 -0.3102 -0.0139  0.2467
  178SLPC   C2220283   3.122   0.271  10.340 -0.4695 -0.9341 -0.1039
  178SLPC   H2R20284   3.027   0.329  10.337  0.3178  0.4160  0.6943
  178SLPC   H2S20285   3.207   0.343  10.345 -0.6580 -0.6066 -1.3773
  178SLPC    C320286   2.931   0.178  10.705 -0.1058  0.0067 -0.0336
  178SLPC    HX20287   2.901   0.283  10.685  1.6432  0.6461  0.6059
  178SLPC    HY20288   2.894   0.161  10.808 -1.5654 -0.7457 -0.6665
  178SLPC   O3120289   2.872   0.093  10.600 -0.0594  0.0056 -0.5045
  178SLPC   C3120290   2.821  -0.020  10.647  0.3154  0.3493 -0.7906
  178SLPC   O3220291   2.826  -0.053  10.763 -0.0831 -0.5677 -0.2637
  178SLPC   C3220292   2.741  -0.102  10.539  0.2224  0.7285  0.2279
  178SLPC   H2X20293   2.664  -0.162  10.591  2.0281 -1.3120  0.6146
  178SLPC   H2Y20294   2.812  -0.166  10.482  0.0168 -0.5784  1.4407
  178SLPC   C2320295   3.151   0.187  10.214  0.1510 -0.4495 -0.1288
  178SLPC   H3R20296   3.100   0.088  10.219 -0.9968  0.1321 -0.1448
  178SLPC   H3S20297   3.261   0.171  10.206  0.4141  0.2525  1.6756
  178SLPC   C2420298   3.101   0.266  10.092 -0.3838 -0.5499  0.3178
  178SLPC   H4R20299   3.158   0.361  10.085  0.7034 -1.2283 -0.2099
  178SLPC   H4S20300   2.994   0.288  10.111 -0.6483 -3.0103  1.9331
  178SLPC   C2520301   3.095   0.183   9.965 -0.2007 -0.2410 -0.1199
  178SLPC   H5R20302   3.004   0.120   9.973 -0.9187  0.6404 -1.0422
  178SLPC   H5S20303   3.183   0.116   9.966  2.1059  2.7185  0.3633
  178SLPC   C2620304   3.103   0.272   9.845  0.0267 -1.6356 -0.2735
  178SLPC   H6R20305   3.208   0.310   9.844 -0.6691  0.3262 -0.4037
  178SLPC   H6S20306   3.023   0.348   9.844  1.9667  0.4591 -0.5170
  178SLPC   C2720307   3.079   0.195   9.708 -0.4422 -0.5325 -0.3755
  178SLPC   H7R20308   2.989   0.130   9.709 -0.8414 -0.0142 -1.3523
  178SLPC   H7S20309   3.170   0.140   9.680  0.0970  0.2901 -0.2630
  178SLPC   C2820310   3.055   0.298   9.598  0.6783 -0.3829  0.4765
  178SLPC   H8R20311   3.149   0.344   9.562  0.8412 -2.0186 -1.2835
  178SLPC   H8S20312   2.977   0.370   9.630 -0.7950 -1.9127  0.4239
  178SLPC   C2920313   2.992   0.238   9.477  0.1758  0.5758 -0.7176
  178SLPC   H9R20314   2.882   0.231   9.475 -0.1660  3.5749  2.3663
  178SLPC  C21020315   3.055   0.217   9.367 -0.3217 -0.8688  0.4689
  178SLPC  H10R20316   2.994   0.178   9.284 -2.2992  1.1035  0.9309
  178SLPC  C21120317   3.201   0.257   9.329  0.3817  0.0488 -0.0891
  178SLPC  H11R20318   3.253   0.324   9.400 -0.0819 -2.4255  2.6585
  178SLPC  H11S20319   3.203   0.315   9.233 -0.0778  0.3933  0.1060
  178SLPC  C21220320   3.284   0.140   9.306  1.0593  0.0656  0.3636
  178SLPC  H12R20321   3.324   0.101   9.401  0.4156 -2.4484 -0.3491
  178SLPC  C21320322   3.301   0.078   9.190  0.3734 -0.2892 -0.1244
  178SLPC  H13R20323   3.360  -0.015   9.193  2.3633  0.9675  1.8639
  178SLPC  C21420324   3.247   0.113   9.054 -0.1407  0.0695  0.3250
  178SLPC  H14R20325   3.332   0.109   8.983  0.0613  1.5463  0.4583
  178SLPC  H14S20326   3.212   0.218   9.048 -0.9100 -0.1678  0.6306
  178SLPC  C21520327   3.126   0.021   9.028  0.6273 -0.3160  0.4070
  178SLPC  H15R20328   3.033   0.064   9.072 -0.1505 -1.5663  0.0055
  178SLPC  H15S20329   3.149  -0.079   9.071 -0.1934  0.1225  1.9177
  178SLPC  C21620330   3.100  -0.010   8.881 -0.1746 -0.8560 -0.3931
  178SLPC  H16R20331   3.199  -0.036   8.838 -0.3374 -3.0819  0.5227
  178SLPC  H16S20332   3.054   0.077   8.829  1.0046 -0.1609 -0.2839
  178SLPC  C21720333   2.999  -0.121   8.853  0.0179  0.5335  0.3023
  178SLPC  H17R20334   3.022  -0.216   8.905 -0.2959  0.3415  0.0923
  178SLPC  H17S20335   2.998  -0.139   8.743  1.4069  0.8195  0.2347
  178SLPC  C21820336   2.856  -0.086   8.900  0.6090  0.0037  0.3012
  178SLPC  H18R20337   2.810  -0.001   8.845  1.5110  0.2257 -0.1173
  178SLPC  H18S20338   2.850  -0.067   9.009 -0.9579 -0.8572  0.3794
  178SLPC  H18T20339   2.791  -0.173   8.878 -0.0855  1.1030 -2.2250
  178SLPC   C3320340   2.675  -0.013  10.432 -0.7949 -0.2923  0.2156
  178SLPC   H3X20341   2.747   0.043  10.369  0.9730 -2.5818  0.1388
  178SLPC   H3Y20342   2.611   0.061  10.484  2.6794  1.5645  2.0366
  178SLPC   C3420343   2.581  -0.090  10.339 -0.1805 -0.4193  0.6360
  178SLPC   H4X20344   2.513  -0.021  10.284  0.9906 -0.0522 -0.3712
  178SLPC   H4Y20345   2.505  -0.160  10.380 -0.0636 -0.2465  1.1448
  178SLPC   C3520346   2.654  -0.191  10.245  0.6926 -0.2655 -0.1442
  178SLPC   H5X20347   2.570  -0.248  10.202  0.4003 -1.1780  1.6151
  178SLPC   H5Y20348   2.727  -0.254  10.301  0.4131 -1.0708 -0.6830
  178SLPC   C3620349   2.718  -0.113  10.138  0.3329  0.5658 -1.2418
  178SLPC   H6X20350   2.824  -0.087  10.159  0.6225 -1.7699  0.4211
  178SLPC   H6Y20351   2.676  -0.011  10.129  1.1274  1.2604  2.1021
  178SLPC   C3720352   2.706  -0.176   9.999  0.0413  0.4415  0.0228
  178SLPC   H7X20353   2.599  -0.202   9.984  0.1337 -0.7097  1.2189
  178SLPC   H7Y20354   2.750  -0.278  10.007 -1.6933 -0.3298 -0.1474
  178SLPC   C3820355   2.751  -0.101   9.879  0.2737  0.1259  0.6178
  178SLPC   H8X20356   2.862  -0.091   9.882  0.4854 -1.7886 -0.0687
  178SLPC   H8Y20357   2.718   0.005   9.890  3.3242  1.4511 -2.0099
  178SLPC   C3920358   2.698  -0.168   9.750  0.1016 -0.0199  0.1629
  178SLPC   H9X20359   2.588  -0.178   9.759 -0.0985  0.8898 -1.1321
  178SLPC   H9Y20360   2.750  -0.266   9.745  1.2414  0.4576  1.8830
  178SLPC  C31020361   2.738  -0.082   9.626  0.5654  0.0125  0.8830
  178SLPC  H10X20362   2.847  -0.071   9.608  0.4673 -2.8132 -1.8523
  178SLPC  H10Y20363   2.724   0.025   9.652 -4.0471  0.3779 -2.4382
  178SLPC  C31120364   2.661  -0.117   9.495  1.2543  0.6673  0.1513
  178SLPC  H11X20365   2.551  -0.122   9.506  1.3379 -1.3356  0.3076
  178SLPC  H11Y20366   2.691  -0.216   9.454  0.1589  1.0876 -1.7176
  178SLPC  C31220367   2.689  -0.009   9.396 -0.1426 -0.4497  0.2005
  178SLPC  H12X20368   2.797  -0.006   9.369 -0.4194 -1.7221 -1.1441
  178SLPC  H12Y20369   2.655   0.086   9.441 -1.8099 -1.0349  0.2298
  178SLPC  C31320370   2.624  -0.027   9.255 -0.3174 -0.5469  0.3449
  178SLPC  H13X20371   2.671  -0.121   9.221 -1.5532 -1.4671  1.1665
  178SLPC  H13Y20372   2.656   0.060   9.193 -1.6523  0.9468  1.6963
  178SLPC  C31420373   2.474  -0.039   9.261 -1.0779  0.1096  0.0995
  178SLPC  H14X20374   2.435   0.017   9.349  1.8016  1.7903  0.3779
  178SLPC  H14Y20375   2.462  -0.147   9.283  1.6356 -0.2342 -0.0118
  178SLPC  C31520376   2.394   0.020   9.142  0.3081 -0.0879  0.3105
  178SLPC  H15X20377   2.286   0.005   9.163  0.8206 -0.9710  2.4296
  178SLPC  H15Y20378   2.407   0.130   9.138  1.3891 -0.2107  0.2483
  178SLPC  C31620379   2.432  -0.025   9.004 -0.5013  0.1552  1.4226
  178SLPC  H16X20380   2.425  -0.136   8.999 -2.0764  0.2768  0.8850
  178SLPC  H16Y20381   2.537   0.012   9.000 -0.4786  0.0133  0.6762
  178SLPC  C31720382   2.350   0.052   8.900 -0.3680  0.2986 -0.4920
  178SLPC  H17X20383   2.362   0.158   8.932  0.6762 -0.5901  2.1901
  178SLPC  H17Y20384   2.246   0.021   8.920  0.2854 -1.0024  0.9469
  178SLPC  C31820385   2.388   0.040   8.753  0.0174  0.0182  0.0759
  178SLPC  H18X20386   2.396  -0.068   8.731 -0.2930  0.3778 -1.9557
  178SLPC  H18Y20387   2.484   0.095   8.742 -0.5952  1.7890  2.9412
  178SLPC  H18Z20388   2.308   0.076   8.684  1.4116 -2.3902 -2.8862
  179SLPC     N20389   4.776   3.841  10.488 -0.0127  0.0400  0.4958
  179SLPC   C1320390   4.722   3.897  10.615  0.3511  0.2557 -0.2452
  179SLPC  H13A20391   4.679   3.994  10.593  0.2430 -0.3030 -2.6563
  179SLPC  H13B20392   4.651   3.825  10.653  1.8596  0.0061  2.1683
  179SLPC  H13C20393   4.803   3.910  10.685 -0.4227  1.6547  0.4142
  179SLPC   C1420394   4.875   3.942  10.428  0.0738 -0.2097 -0.1454
  179SLPC  H14A20395   4.832   4.041  10.418 -2.5637 -1.1280  1.5833
  179SLPC  H14B20396   4.957   3.955  10.498 -0.8049  0.5633  0.7715
  179SLPC  H14C20397   4.915   3.907  10.334 -1.7248  0.0987 -1.0468
  179SLPC   C1520398   4.659   3.826  10.383  0.2319 -0.3324  0.0245
  179SLPC  H15A20399   4.586   3.756  10.421  0.8607 -0.2638  1.4033
  179SLPC  H15B20400   4.608   3.916  10.356 -0.4650 -0.5387  0.6458
  179SLPC  H15C20401   4.705   3.783  10.295  1.0509  2.3403 -0.9067
  179SLPC   C1220402   4.849   3.711  10.515 -0.1725  0.0593  0.5000
  179SLPC  H12A20403   4.779   3.636  10.549  0.7966 -1.1042  0.0049
  179SLPC  H12B20404   4.918   3.736  10.595 -0.1318  0.8258  0.2264
  179SLPC   C1120405   4.925   3.648  10.394  0.4740 -0.5701  0.5372
  179SLPC  H11A20406   4.996   3.574  10.438 -1.3187 -0.4948  3.6783
  179SLPC  H11B20407   4.989   3.721  10.339 -0.2773 -1.4284 -1.5402
  179SLPC     P20408   4.880   3.534  10.163  0.5914  0.0486  0.0610
  179SLPC   O1320409   4.978   3.429  10.184 -0.7420 -0.3777 -0.1825
  179SLPC   O1420410   4.760   3.494  10.085 -0.0365 -0.4967  0.6635
  179SLPC   O1220411   4.835   3.596  10.296  0.5312  0.2131 -0.2059
  179SLPC   O1120412   4.943   3.655  10.084 -0.7632  0.2564 -0.2918
  179SLPC    C120413   4.859   3.755  10.033  0.0769  0.5475  0.4376
  179SLPC    HA20414   4.765   3.762  10.093 -1.2166  0.9123 -1.5690
  179SLPC    HB20415   4.908   3.854  10.050 -0.6025  1.2012 -1.3307
  179SLPC    C220416   4.828   3.735   9.885 -0.0214 -0.3478  0.9613
  179SLPC    HS20417   4.767   3.643   9.876  0.4858 -0.5404 -0.6354
  179SLPC   O2120418   4.945   3.716   9.808  0.9679 -0.0058 -0.5254
  179SLPC   C2120419   5.030   3.822   9.794 -0.2577 -0.7308 -0.0410
  179SLPC   O2220420   5.020   3.932   9.843  0.3771 -0.1360 -0.0216
  179SLPC   C2220421   5.138   3.784   9.693  0.1801 -0.4653 -0.1504
  179SLPC   H2R20422   5.227   3.850   9.707 -0.2888 -0.1515  1.4611
  179SLPC   H2S20423   5.165   3.680   9.723 -1.2664 -0.6814  0.4329
  179SLPC    C320424   4.737   3.849   9.829  1.0842 -0.0661 -1.2890
  179SLPC    HX20425   4.783   3.948   9.852  0.0918 -0.3088  2.0596
  179SLPC    HY20426   4.646   3.855   9.892  1.9928 -0.4966  0.1078
  179SLPC   O3120427   4.700   3.833   9.695 -0.2082  0.1654  0.0645
  179SLPC   C3120428   4.631   3.720   9.663 -0.4733  0.1547 -0.2612
  179SLPC   O3220429   4.570   3.649   9.740  0.0521 -0.2340  0.7296
  179SLPC   C3220430   4.647   3.692   9.516  0.0547 -0.0888 -0.8501
  179SLPC   H2X20431   4.622   3.588   9.484  2.2707 -0.9607  0.1396
  179SLPC   H2Y20432   4.752   3.690   9.480  0.8155  0.7201  1.2921
  179SLPC   C2320433   5.085   3.784   9.553  0.2873  0.8253  0.3180
  179SLPC   H3R20434   4.985   3.736   9.549  0.4337  0.4820  0.6735
  179SLPC   H3S20435   5.153   3.733   9.482 -1.0488  1.6132 -1.5876
  179SLPC   C2420436   5.057   3.921   9.490  0.1162  0.3102  0.3730
  179SLPC   H4R20437   5.156   3.968   9.478  0.6166 -0.4924  1.2407
  179SLPC   H4S20438   5.000   3.980   9.565  1.0661  1.8656 -0.1214
  179SLPC   C2520439   4.976   3.925   9.366  0.7168  0.2709  0.2227
  179SLPC   H5R20440   4.961   4.032   9.344 -2.0020 -0.1432 -0.2105
  179SLPC   H5S20441   4.870   3.898   9.386  0.6152 -0.0453 -0.7075
  179SLPC   C2620442   5.039   3.844   9.253 -0.3983 -0.1451  0.0890
  179SLPC   H6R20443   5.052   3.738   9.286  0.2004  0.1734  0.9015
  179SLPC   H6S20444   5.136   3.890   9.225 -0.4145 -0.7290 -0.9681
  179SLPC   C2720445   4.956   3.847   9.126 -0.3949  0.0633 -0.2017
  179SLPC   H7R20446   5.004   3.787   9.046 -1.4815 -1.5528  0.3326
  179SLPC   H7S20447   4.947   3.953   9.092 -0.4579 -0.3942 -1.6520
  179SLPC   C2820448   4.812   3.793   9.151 -0.3162 -0.4335 -0.1881
  179SLPC   H8R20449   4.763   3.867   9.218 -0.3169  0.3988 -1.0988
  179SLPC   H8S20450   4.812   3.688   9.186  1.0422 -0.7168 -0.9765
  179SLPC   C2920451   4.739   3.799   9.015  0.0200 -0.8572 -0.3812
  179SLPC   H9R20452   4.785   3.880   8.957 -0.0329  0.9412  1.9923
  179SLPC  C21020453   4.635   3.721   8.980  0.2201  0.2989  0.3252
  179SLPC  H10R20454   4.584   3.744   8.885  0.8417  0.5296  0.0472
  179SLPC  C21120455   4.570   3.607   9.066 -0.1327 -0.0265  0.1548
  179SLPC  H11R20456   4.464   3.629   9.089 -0.3257  0.5983 -1.2642
  179SLPC  H11S20457   4.625   3.594   9.161 -1.5540 -0.2150  0.9591
  179SLPC  C21220458   4.583   3.470   9.007 -0.3823 -0.2661  0.6900
  179SLPC  H12R20459   4.666   3.465   8.935 -0.3221 -1.2240  0.8166
  179SLPC  C21320460   4.493   3.372   9.026  0.7905  0.1748  0.0874
  179SLPC  H13R20461   4.493   3.287   8.957  1.5962  1.4885 -1.5730
  179SLPC  C21420462   4.369   3.370   9.115 -0.2404 -0.3348 -0.4517
  179SLPC  H14R20463   4.285   3.328   9.056 -2.0092 -0.7798  2.2718
  179SLPC  H14S20464   4.341   3.468   9.159  1.8028 -0.4059  1.1230
  179SLPC  C21520465   4.388   3.280   9.236  0.1126  0.1326  0.6595
  179SLPC  H15R20466   4.399   3.176   9.198 -0.1126  0.8314 -1.4187
  179SLPC  H15S20467   4.297   3.266   9.298 -0.0523 -0.3058  0.3244
  179SLPC  C21620468   4.493   3.319   9.338 -0.2512  0.8899  0.2138
  179SLPC  H16R20469   4.468   3.418   9.381  3.0038  2.1412 -0.6367
  179SLPC  H16S20470   4.585   3.342   9.282 -1.0685  2.5569 -0.4643
  179SLPC  C21720471   4.508   3.221   9.451 -0.2938 -0.2951 -0.0659
  179SLPC  H17R20472   4.515   3.124   9.398 -1.7793  0.0095 -0.8673
  179SLPC  H17S20473   4.413   3.209   9.509 -1.8331 -1.1026 -2.6808
  179SLPC  C21820474   4.621   3.251   9.555 -0.5766  0.9121 -0.1229
  179SLPC  H18R20475   4.668   3.351   9.549 -2.1430  1.6708  0.0464
  179SLPC  H18S20476   4.704   3.178   9.541  0.1045  1.4283  1.1177
  179SLPC  H18T20477   4.597   3.223   9.660 -2.7747  1.0538 -0.5586
  179SLPC   C3320478   4.560   3.790   9.427  0.7630  0.4202  0.7872
  179SLPC   H3X20479   4.575   3.762   9.321  2.1456  1.9266  0.5724
  179SLPC   H3Y20480   4.592   3.895   9.442  0.0046  0.6282  0.9245
  179SLPC   C3420481   4.412   3.768   9.444 -0.0611 -1.0432  0.2559
  179SLPC   H4X20482   4.386   3.794   9.549  0.0027 -1.7574  0.4488
  179SLPC   H4Y20483   4.382   3.666   9.412  0.8548 -0.2290 -3.3477
  179SLPC   C3520484   4.338   3.859   9.342 -0.4891  0.5432 -0.5775
  179SLPC   H5X20485   4.365   3.837   9.236 -0.8735  0.6086 -0.6896
  179SLPC   H5Y20486   4.366   3.965   9.359 -1.1687  0.3755  1.7829
  179SLPC   C3620487   4.183   3.844   9.341 -0.0974  0.4385  0.0269
  179SLPC   H6X20488   4.137   3.852   9.442  0.1617 -0.9056  0.2626
  179SLPC   H6Y20489   4.159   3.739   9.311  0.4824  0.3504 -0.1435
  179SLPC   C3720490   4.116   3.954   9.255 -0.2418 -1.0034  0.0594
  179SLPC   H7X20491   4.137   3.933   9.149 -0.2337 -1.5953  0.1771
  179SLPC   H7Y20492   4.169   4.050   9.273 -0.3217 -0.5716 -1.8985
  179SLPC   C3820493   3.963   3.985   9.269  0.1078 -0.0186 -0.4754
  179SLPC   H8X20494   3.941   4.008   9.375  1.2250  0.6459 -0.3756
  179SLPC   H8Y20495   3.905   3.894   9.242  0.0707 -0.3294  0.6322
  179SLPC   C3920496   3.920   4.095   9.174 -0.2664 -0.0656 -0.1060
  179SLPC   H9X20497   3.956   4.086   9.070  0.4387  0.9522  0.0530
  179SLPC   H9Y20498   3.965   4.188   9.214 -1.2022 -0.1931  1.2967
  179SLPC  C31020499   3.770   4.119   9.182  0.1391  0.3666 -0.6103
  179SLPC  H10X20500   3.747   4.127   9.290  0.8588  1.1012 -0.5106
  179SLPC  H10Y20501   3.719   4.031   9.136 -1.1158  2.2136 -2.8781
  179SLPC  C31120502   3.713   4.256   9.139 -0.1546 -0.1782  0.3624
  179SLPC  H11X20503   3.758   4.340   9.196  0.2089 -2.2052  3.1970
  179SLPC  H11Y20504   3.606   4.248   9.167 -0.3559 -3.5295 -1.0396
  179SLPC  C31220505   3.731   4.290   8.997  0.1550  0.4420  0.5039
  179SLPC  H12X20506   3.832   4.274   8.954  0.1475  0.1405  0.5968
  179SLPC  H12Y20507   3.733   4.401   8.999 -0.4138  0.4611 -0.0965
  179SLPC  C31320508   3.631   4.227   8.897 -0.0054 -0.5441  0.4006
  179SLPC  H13X20509   3.528   4.232   8.939 -0.4124  0.7225 -0.7134
  179SLPC  H13Y20510   3.654   4.119   8.883 -0.8760 -0.4598 -1.8915
  179SLPC  C31420511   3.616   4.308   8.767 -0.0096 -0.4466  0.1382
  179SLPC  H14X20512   3.564   4.254   8.685 -0.0339  0.6141 -0.5594
  179SLPC  H14Y20513   3.716   4.330   8.724  0.4179  1.1449  1.8869
  179SLPC  C31520514   3.533   4.437   8.791 -0.0282  0.0256 -0.0448
  179SLPC  H15X20515   3.570   4.509   8.868 -1.9988  1.9003 -0.7958
  179SLPC  H15Y20516   3.429   4.405   8.811  0.3606 -1.7708 -0.8260
  179SLPC  C31620517   3.534   4.526   8.664 -0.1249  0.1549  0.5912
  179SLPC  H16X20518   3.485   4.471   8.581 -0.3343 -1.8786  2.0247
  179SLPC  H16Y20519   3.640   4.540   8.633 -0.1750  0.8012  0.7056
  179SLPC  C31720520   3.468   4.665   8.680 -0.3899  0.6649 -0.4896
  179SLPC  H17X20521   3.521   4.745   8.737  0.0847 -0.3374  0.5060
  179SLPC  H17Y20522   3.373   4.651   8.737 -0.7096 -2.9130 -1.7609
  179SLPC  C31820523   3.431   4.715   8.539 -0.1031  0.6413  0.5170
  179SLPC  H18X20524   3.339   4.663   8.504  0.2197 -0.3505  1.1122
  179SLPC  H18Y20525   3.505   4.691   8.460 -2.4493 -1.4224 -1.1661
  179SLPC  H18Z20526   3.419   4.825   8.537 -0.7689  0.6021  1.9269
  180SLPC     N20527   6.157   1.382  11.164 -0.4384  0.0135  0.0834
  180SLPC   C1320528   6.281   1.454  11.130  0.6764  0.3956  0.1060
  180SLPC  H13A20529   6.265   1.514  11.042  0.2562  0.3406  0.1438
  180SLPC  H13B20530   6.302   1.519  11.214  0.8819  0.1583  0.2390
  180SLPC  H13C20531   6.363   1.386  11.112  0.5092  0.7752 -2.1571
  180SLPC   C1420532   6.053   1.483  11.187  0.0748  0.4922 -0.2677
  180SLPC  H14A20533   6.030   1.538  11.096 -1.7291  4.0323  2.2201
  180SLPC  H14B20534   5.961   1.440  11.222  0.5261  0.6865  1.1685
  180SLPC  H14C20535   6.091   1.550  11.262  0.4152 -0.1309  0.1172
  180SLPC   C1520536   6.187   1.319  11.295 -0.9845  0.2613  0.7512
  180SLPC  H15A20537   6.212   1.397  11.365 -2.5920  0.8415  0.7081
  180SLPC  H15B20538   6.104   1.261  11.332 -0.8529 -0.3704  0.0811
  180SLPC  H15C20539   6.273   1.257  11.275 -1.6676  0.6289 -4.1546
  180SLPC   C1220540   6.117   1.283  11.056 -0.1214  0.1562 -0.1337
  180SLPC  H12A20541   6.020   1.243  11.080  0.8298 -0.2898  3.2047
  180SLPC  H12B20542   6.182   1.197  11.051  0.5328  0.7326 -2.2900
  180SLPC   C1120543   6.112   1.345  10.911 -0.1116  0.0467 -0.4986
  180SLPC  H11A20544   6.079   1.276  10.830  2.6007 -0.5790 -1.1550
  180SLPC  H11B20545   6.215   1.373  10.879 -0.0223  0.5759  0.2463
  180SLPC     P20546   6.034   1.563  10.781 -0.1698  0.4214 -0.3538
  180SLPC   O1320547   5.937   1.669  10.798  0.1598 -0.6066  0.1306
  180SLPC   O1420548   6.173   1.610  10.761  0.2589 -0.2440 -0.1499
  180SLPC   O1220549   6.033   1.466  10.900  0.7901 -0.3571  0.6489
  180SLPC   O1120550   5.993   1.467  10.658 -1.0462  0.3265  0.3846
  180SLPC    C120551   6.090   1.473  10.549 -0.3693 -0.1589  0.1030
  180SLPC    HA20552   6.109   1.576  10.511  1.6999  0.0447  1.6289
  180SLPC    HB20553   6.189   1.438  10.585 -0.2005  0.3950  0.1884
  180SLPC    C220554   6.054   1.367  10.428 -0.0873  0.1804 -0.2286
  180SLPC    HS20555   6.135   1.375  10.352  2.0995  0.0605  2.0060
  180SLPC   O2120556   5.929   1.401  10.377 -0.1837 -0.7685  0.3660
  180SLPC   C2120557   5.924   1.519  10.320 -0.0175 -0.0618  0.3514
  180SLPC   O2220558   6.016   1.594  10.299 -0.6709 -0.2711 -1.0056
  180SLPC   C2220559   5.775   1.552  10.286 -0.0870  0.4810  0.3552
  180SLPC   H2R20560   5.734   1.467  10.228 -0.3901  0.1922  0.9794
  180SLPC   H2S20561   5.725   1.549  10.386 -1.5493 -0.3434 -0.3826
  180SLPC    C320562   6.051   1.214  10.491 -0.6045 -0.0837  0.6848
  180SLPC    HX20563   5.952   1.201  10.540 -1.5661 -0.7429 -1.3498
  180SLPC    HY20564   6.133   1.203  10.564  0.8806 -0.5583 -1.0242
  180SLPC   O3120565   6.074   1.117  10.391 -0.9719  0.4805 -0.0173
  180SLPC   C3120566   6.199   1.116  10.339  0.1604  0.0219  0.2193
  180SLPC   O3220567   6.290   1.182  10.384 -0.2029 -0.6727  0.6005
  180SLPC   C3220568   6.194   1.051  10.202 -0.6448  0.4496 -0.3202
  180SLPC   H2X20569   6.134   1.122  10.142 -0.3174  0.7168 -0.3322
  180SLPC   H2Y20570   6.145   0.952  10.213 -2.7329  1.6492  1.4557
  180SLPC   C2320571   5.769   1.685  10.220 -0.3604  0.0510 -0.3031
  180SLPC   H3R20572   5.827   1.749  10.290 -0.9722 -0.3966  0.6216
  180SLPC   H3S20573   5.665   1.721  10.226  0.5632  2.5277  1.2253
  180SLPC   C2420574   5.822   1.696  10.076 -0.2221 -0.3643 -0.2206
  180SLPC   H4R20575   5.926   1.656  10.074  0.3395  0.8024  2.9551
  180SLPC   H4S20576   5.824   1.804  10.049  1.7490  0.2549  2.2333
  180SLPC   C2520577   5.740   1.624   9.969  0.4458  0.4617 -0.0922
  180SLPC   H5R20578   5.636   1.662   9.978  0.9410  1.7859  0.1881
  180SLPC   H5S20579   5.749   1.516   9.993 -0.9461  0.7069  1.6180
  180SLPC   C2620580   5.795   1.651   9.830  0.3354  0.1719  0.5243
  180SLPC   H6R20581   5.901   1.617   9.826  0.9221  1.9613  0.3483
  180SLPC   H6S20582   5.786   1.759   9.806  0.7608 -0.3264 -2.0805
  180SLPC   C2720583   5.719   1.572   9.722  0.3787  0.0392 -0.0084
  180SLPC   H7R20584   5.621   1.621   9.705 -0.3255 -1.6596 -0.9702
  180SLPC   H7S20585   5.700   1.472   9.766  0.5079  0.9368  2.1487
  180SLPC   C2820586   5.786   1.559   9.585 -0.1723  0.7419 -0.5201
  180SLPC   H8R20587   5.889   1.525   9.610 -0.3163  0.4868 -0.2688
  180SLPC   H8S20588   5.783   1.648   9.519  0.2257  0.1888 -1.2816
  180SLPC   C2920589   5.723   1.447   9.501 -0.2424  0.1122 -0.4360
  180SLPC   H9R20590   5.772   1.349   9.502 -0.7910 -0.1621  0.0368
  180SLPC  C21020591   5.604   1.452   9.435 -0.5134  0.2752  0.5391
  180SLPC  H10R20592   5.567   1.364   9.380  3.1781 -0.3950 -1.0778
  180SLPC  C21120593   5.519   1.570   9.438  0.2767 -0.3837 -0.3088
  180SLPC  H11R20594   5.568   1.660   9.480 -1.6153 -0.1194  1.4166
  180SLPC  H11S20595   5.449   1.547   9.521  0.4948  2.8613  0.8372
  180SLPC  C21220596   5.449   1.610   9.316  0.7126  0.6147 -0.4221
  180SLPC  H12R20597   5.508   1.607   9.223  0.0853  1.0684 -0.8409
  180SLPC  C21320598   5.329   1.668   9.315 -0.0845  0.2232  0.6412
  180SLPC  H13R20599   5.282   1.676   9.216 -0.4246  0.8261  0.8468
  180SLPC  C21420600   5.237   1.714   9.427 -0.0314  0.3412 -0.0903
  180SLPC  H14R20601   5.216   1.822   9.416  2.3140  0.8199 -0.3094
  180SLPC  H14S20602   5.282   1.685   9.524 -2.1977  0.2996  0.9253
  180SLPC  C21520603   5.108   1.626   9.423 -0.0199  0.1031  0.1557
  180SLPC  H15R20604   5.124   1.518   9.443  0.2383 -0.0352 -0.7977
  180SLPC  H15S20605   5.059   1.648   9.326 -2.5231 -1.3679  1.0260
  180SLPC  C21620606   5.002   1.686   9.526  0.3938  1.2582 -0.1205
  180SLPC  H16R20607   4.975   1.788   9.492 -0.2768  0.7778 -1.0463
  180SLPC  H16S20608   5.055   1.700   9.623  0.5810  0.8809 -0.1643
  180SLPC  C21720609   4.870   1.612   9.540 -0.5512 -0.2145 -0.1163
  180SLPC  H17R20610   4.828   1.590   9.439  0.4113  1.6190 -0.9398
  180SLPC  H17S20611   4.801   1.675   9.599  0.4141  1.0835 -0.3575
  180SLPC  C21820612   4.885   1.476   9.610 -0.1398 -0.5446 -0.4855
  180SLPC  H18R20613   4.789   1.419   9.607 -0.1543 -0.5871  0.7353
  180SLPC  H18S20614   4.903   1.476   9.719 -1.8227 -0.4019 -0.1959
  180SLPC  H18T20615   4.969   1.417   9.568 -0.4768 -2.9708  2.1207
  180SLPC   C3320616   6.332   1.029  10.132  0.2413 -0.4728  0.1640
  180SLPC   H3X20617   6.396   0.969  10.200  0.8516  0.5766  0.5343
  180SLPC   H3Y20618   6.382   1.127  10.118 -1.2284  0.2043 -0.4538
  180SLPC   C3420619   6.306   0.972   9.995  0.0822 -0.1261 -0.3005
  180SLPC   H4X20620   6.220   1.031   9.956  0.5781  0.9630  0.2588
  180SLPC   H4Y20621   6.277   0.866  10.013  1.5153 -0.8971 -2.3814
  180SLPC   C3520622   6.417   0.963   9.889  0.0837 -0.0320  0.8953
  180SLPC   H5X20623   6.510   0.908   9.915  1.8360  2.4738  0.1444
  180SLPC   H5Y20624   6.441   1.068   9.863  0.9305  0.1562  2.3496
  180SLPC   C3620625   6.374   0.903   9.750 -0.1685 -0.0997 -0.3418
  180SLPC   H6X20626   6.299   0.972   9.707 -0.1391 -0.6160 -1.2446
  180SLPC   H6Y20627   6.330   0.805   9.779 -2.0672  0.8693  0.1481
  180SLPC   C3720628   6.490   0.895   9.657  0.5586 -0.0749  0.0706
  180SLPC   H7X20629   6.561   0.829   9.709  2.1404  1.5976  0.0840
  180SLPC   H7Y20630   6.532   0.998   9.654  0.6510 -0.1638 -2.0521
  180SLPC   C3820631   6.472   0.844   9.515 -0.4088  1.0280 -0.0804
  180SLPC   H8X20632   6.410   0.752   9.522 -0.8003  1.2309 -0.8422
  180SLPC   H8Y20633   6.568   0.808   9.474  0.2056 -0.2303  2.3510
  180SLPC   C3920634   6.405   0.957   9.437 -0.4636  0.2998 -0.0978
  180SLPC   H9X20635   6.459   1.053   9.451  0.8029  0.0158 -2.7360
  180SLPC   H9Y20636   6.299   0.952   9.470 -0.7063  0.1438 -0.8903
  180SLPC  C31020637   6.400   0.926   9.286  0.3424 -0.6847 -0.1615
  180SLPC  H10X20638   6.353   0.825   9.280 -0.2849 -0.6930  3.6229
  180SLPC  H10Y20639   6.505   0.922   9.250  0.5662 -1.2383  0.5390
  180SLPC  C31120640   6.325   1.022   9.193 -0.4972  0.0112 -0.2971
  180SLPC  H11X20641   6.370   1.121   9.214  1.0656 -0.2726 -2.1319
  180SLPC  H11Y20642   6.221   1.017   9.231 -0.0333 -3.6187  0.6698
  180SLPC  C31220643   6.348   0.974   9.053  0.2388  0.2914  0.0678
  180SLPC  H12X20644   6.290   0.881   9.035 -0.7446  0.5643  1.7875
  180SLPC  H12Y20645   6.456   0.948   9.037  1.0054  3.3979 -0.0554
  180SLPC  C31320646   6.319   1.073   8.944 -0.3104 -0.3421 -0.1739
  180SLPC  H13X20647   6.378   1.164   8.970 -0.0458 -0.4828 -0.2789
  180SLPC  H13Y20648   6.212   1.103   8.949 -0.0212  0.4099  2.1400
  180SLPC  C31420649   6.362   1.038   8.798 -0.2193  0.0162  0.3460
  180SLPC  H14X20650   6.280   0.985   8.744 -1.7561  1.2994  1.3775
  180SLPC  H14Y20651   6.450   0.971   8.786 -0.0112  0.1438  1.1638
  180SLPC  C31520652   6.393   1.165   8.722 -0.0970 -0.2803  0.3180
  180SLPC  H15X20653   6.485   1.213   8.761  1.0126 -0.9366 -1.4245
  180SLPC  H15Y20654   6.312   1.237   8.748 -3.0349 -2.6304 -1.9508
  180SLPC  C31620655   6.406   1.142   8.574 -0.2957  0.2338  0.6539
  180SLPC  H16X20656   6.329   1.073   8.534 -0.8368 -0.0137  2.0818
  180SLPC  H16Y20657   6.497   1.097   8.529 -0.1964  2.3581 -1.3259
  180SLPC  C31720658   6.392   1.271   8.486 -0.1486  0.1559  0.4163
  180SLPC  H17X20659   6.308   1.329   8.529 -1.0771 -0.5264 -0.4609
  180SLPC  H17Y20660   6.371   1.234   8.383  0.7829  0.5264  0.0831
  180SLPC  C31820661   6.515   1.356   8.487  0.8824  0.0106 -0.7072
  180SLPC  H18X20662   6.497   1.452   8.435  1.5979 -0.1513 -1.2586
  180SLPC  H18Y20663   6.592   1.294   8.436 -0.3250 -0.0617 -2.4835
  180SLPC  H18Z20664   6.562   1.378   8.585 -0.6765 -2.3379  0.6036
  181SLPC     N20665   1.636   5.352  11.050  0.2595  1.2621 -0.5808
  181SLPC   C1320666   1.715   5.387  11.175  0.3218  0.2375  0.2206
  181SLPC  H13A20667   1.650   5.366  11.259  0.4584 -0.2173  0.2154
  181SLPC  H13B20668   1.805   5.329  11.188  0.0162  0.4016  3.6081
  181SLPC  H13C20669   1.755   5.487  11.175 -0.6884  0.6457  0.4877
  181SLPC   C1420670   1.518   5.451  11.044  0.4430 -0.4803  0.2055
  181SLPC  H14A20671   1.457   5.430  10.958 -1.4815  1.0739  1.1639
  181SLPC  H14B20672   1.453   5.441  11.130  1.0469 -4.0186  0.3340
  181SLPC  H14C20673   1.562   5.549  11.032 -1.4951  0.0535 -3.2257
  181SLPC   C1520674   1.598   5.207  11.056  0.1975  0.4334  0.4781
  181SLPC  H15A20675   1.560   5.164  10.965 -1.5270  0.0957  1.3360
  181SLPC  H15B20676   1.691   5.155  11.075 -0.6861 -0.6506  1.9806
  181SLPC  H15C20677   1.549   5.168  11.145  2.0799 -2.7677  0.1692
  181SLPC   C1220678   1.721   5.370  10.925 -0.3226  0.0621  0.6772
  181SLPC  H12A20679   1.759   5.471  10.924 -2.4070  0.8842 -1.6896
  181SLPC  H12B20680   1.655   5.361  10.840 -1.7105  1.0383  1.6250
  181SLPC   C1120681   1.837   5.263  10.897 -0.7267 -1.0100  0.2608
  181SLPC  H11A20682   1.877   5.283  10.795 -1.4940 -0.3043  0.0908
  181SLPC  H11B20683   1.791   5.163  10.885  1.9245 -2.3707  1.1928
  181SLPC     P20684   2.027   5.399  11.020 -0.2169  0.1101  0.3598
  181SLPC   O1320685   1.962   5.529  11.037 -0.5874  0.5356  0.1614
  181SLPC   O1420686   2.133   5.369  11.115 -0.2984 -0.1776  0.1719
  181SLPC   O1220687   1.935   5.267  10.999 -0.0274  0.3639 -0.1708
  181SLPC   O1120688   2.104   5.400  10.886 -0.0085 -0.6392  0.2632
  181SLPC    C120689   2.186   5.296  10.828 -0.0979  0.2043 -0.0447
  181SLPC    HA20690   2.280   5.280  10.885 -0.3851  0.9041  0.6112
  181SLPC    HB20691   2.136   5.199  10.848  1.1152 -0.0432  1.8733
  181SLPC    C220692   2.218   5.310  10.676  0.6159 -0.0936 -0.4252
  181SLPC    HS20693   2.271   5.405  10.652 -2.0892  1.4033 -0.7123
  181SLPC   O2120694   2.094   5.303  10.605  0.1931  0.3735 -0.2164
  181SLPC   C2120695   2.034   5.407  10.560 -0.2903  0.0112  0.1602
  181SLPC   O2220696   2.069   5.523  10.585 -0.0096 -0.2381 -0.2688
  181SLPC   C2220697   1.918   5.376  10.473  0.1949 -0.8140  0.6718
  181SLPC   H2R20698   1.924   5.282  10.415  0.8319  0.1053 -0.7834
  181SLPC   H2S20699   1.836   5.356  10.546  0.1695 -2.0119  0.3240
  181SLPC    C320700   2.305   5.186  10.628 -0.4037 -0.2081 -0.1445
  181SLPC    HX20701   2.235   5.100  10.626 -0.3646 -0.2730  1.2781
  181SLPC    HY20702   2.387   5.152  10.695 -0.2642 -1.4677 -0.9456
  181SLPC   O3120703   2.359   5.227  10.496 -0.3340 -0.2759  0.1543
  181SLPC   C3120704   2.301   5.164  10.388 -0.1640 -0.0581  0.9531
  181SLPC   O3220705   2.207   5.091  10.397 -0.1781 -0.2257  0.2864
  181SLPC   C3220706   2.373   5.202  10.250 -0.1482 -0.6263  0.3730
  181SLPC   H2X20707   2.340   5.128  10.174  1.8640 -1.4357  0.2660
  181SLPC   H2Y20708   2.481   5.182  10.261  0.0092  0.1432  0.2615
  181SLPC   C2320709   1.880   5.490  10.382  0.0980 -0.6761  0.1607
  181SLPC   H3R20710   1.887   5.585  10.439  3.6367 -0.9257  0.2633
  181SLPC   H3S20711   1.785   5.484  10.323  0.8511  0.8097 -1.2686
  181SLPC   C2420712   1.980   5.502  10.267 -0.6205  0.0145  0.3820
  181SLPC   H4R20713   1.978   5.407  10.209 -1.7930  3.0335 -4.8472
  181SLPC   H4S20714   2.083   5.514  10.306  0.0992  0.0623 -1.5116
  181SLPC   C2520715   1.953   5.608  10.167 -0.3476 -0.1305  1.2302
  181SLPC   H5R20716   1.930   5.701  10.222  0.8134  0.6045  0.4983
  181SLPC   H5S20717   1.862   5.580  10.109  1.2186 -0.1656 -1.3043
  181SLPC   C2620718   2.067   5.628  10.064  0.0678 -0.7149  0.1838
  181SLPC   H6R20719   2.091   5.526  10.026 -0.4137 -0.7398 -0.0639
  181SLPC   H6S20720   2.164   5.658  10.109 -0.8441 -0.0063  1.7037
  181SLPC   C2720721   2.016   5.725   9.952  0.2768  0.3311  0.3520
  181SLPC   H7R20722   1.973   5.820   9.991  0.0447  0.7779 -0.9537
  181SLPC   H7S20723   1.928   5.673   9.909  1.3607 -0.4630 -0.9220
  181SLPC   C2820724   2.119   5.753   9.845  0.0967  0.1128 -0.2658
  181SLPC   H8R20725   2.145   5.658   9.794 -2.8236  0.2199 -2.0483
  181SLPC   H8S20726   2.219   5.775   9.889  1.2734 -2.5192 -1.4790
  181SLPC   C2920727   2.092   5.871   9.764  0.6389  0.2264 -0.0199
  181SLPC   H9R20728   2.076   5.960   9.827  1.0425 -0.5432  1.2098
  181SLPC  C21020729   2.067   5.877   9.632  0.0558 -0.1634 -0.2714
  181SLPC  H10R20730   2.052   5.976   9.587  1.6122  1.0359  1.7765
  181SLPC  C21120731   2.063   5.767   9.533 -0.6865  0.9501  0.0053
  181SLPC  H11R20732   2.029   5.670   9.575 -1.1061  0.3875 -1.5944
  181SLPC  H11S20733   2.168   5.754   9.502  0.0268  2.5626  1.6266
  181SLPC  C21220734   1.983   5.796   9.407 -0.0558 -0.2533 -0.5107
  181SLPC  H12R20735   1.879   5.810   9.440  0.1924 -0.4639  0.3577
  181SLPC  C21320736   2.029   5.833   9.282  0.2494  0.1750 -0.2520
  181SLPC  H13R20737   1.957   5.858   9.203 -0.7076 -1.5901  0.0310
  181SLPC  C21420738   2.174   5.831   9.240  0.3956 -0.0051  0.3229
  181SLPC  H14R20739   2.211   5.733   9.202  1.5701  0.0197  1.3774
  181SLPC  H14S20740   2.238   5.859   9.326  0.9390 -0.9657  0.2337
  181SLPC  C21520741   2.202   5.938   9.126  0.0283 -0.5220  0.2574
  181SLPC  H15R20742   2.153   6.033   9.157  0.7338  0.1832 -0.7723
  181SLPC  H15S20743   2.155   5.912   9.028 -3.9617  2.8053  1.1080
  181SLPC  C21620744   2.352   5.955   9.101  0.2868 -0.0808 -0.7078
  181SLPC  H16R20745   2.393   5.989   9.199 -2.0371 -0.9677  0.6246
  181SLPC  H16S20746   2.366   6.029   9.019  1.2775  0.0142 -0.4611
  181SLPC  C21720747   2.422   5.827   9.053 -0.4553 -0.6553  0.4859
  181SLPC  H17R20748   2.348   5.768   8.995  1.2619 -0.5497 -1.8957
  181SLPC  H17S20749   2.459   5.761   9.134  1.5638  0.9917  0.9549
  181SLPC  C21820750   2.540   5.860   8.954  0.2434  0.0490 -0.4692
  181SLPC  H18R20751   2.598   5.766   8.941 -0.0290 -0.2555  0.4638
  181SLPC  H18S20752   2.611   5.938   8.990  1.3079 -1.4165  0.6967
  181SLPC  H18T20753   2.497   5.898   8.859  2.1221 -0.5542 -1.5857
  181SLPC   C3320754   2.336   5.340  10.191  0.3996 -0.3375 -0.5484
  181SLPC   H3X20755   2.377   5.422  10.254 -1.0495 -0.3473  0.4379
  181SLPC   H3Y20756   2.225   5.347  10.193  0.4896  1.1967  0.1028
  181SLPC   C3420757   2.389   5.369  10.049  0.7280 -0.1960  0.4520
  181SLPC   H4X20758   2.496   5.347  10.030  1.4771 -2.3153  6.0395
  181SLPC   H4Y20759   2.374   5.478  10.037 -1.3048 -0.5273 -0.2753
  181SLPC   C3520760   2.309   5.313   9.943 -0.4248  0.8252  1.0049
  181SLPC   H5X20761   2.204   5.347   9.946 -0.3904  1.0335 -0.0597
  181SLPC   H5Y20762   2.305   5.202   9.948 -0.4174  0.7369 -0.7339
  181SLPC   C3620763   2.358   5.355   9.808  0.0902 -0.1767 -0.1799
  181SLPC   H6X20764   2.463   5.326   9.782  0.7061  0.6929  1.2950
  181SLPC   H6Y20765   2.343   5.465   9.807  0.2410 -0.0133  5.0224
  181SLPC   C3720766   2.265   5.298   9.692 -0.3394 -0.4426  0.2580
  181SLPC   H7X20767   2.165   5.330   9.729 -0.7350 -1.0458 -0.2832
  181SLPC   H7Y20768   2.278   5.188   9.683  0.5804 -0.4863  1.8516
  181SLPC   C3820769   2.302   5.381   9.564 -0.5980 -0.5363 -0.3463
  181SLPC   H8X20770   2.408   5.362   9.539 -0.5600  0.8882 -1.2926
  181SLPC   H8Y20771   2.292   5.490   9.586  1.3627 -0.8706  2.5296
  181SLPC   C3920772   2.223   5.346   9.443 -0.1523 -0.5296  0.0747
  181SLPC   H9X20773   2.114   5.348   9.467 -0.1769  2.7369 -0.0627
  181SLPC   H9Y20774   2.254   5.241   9.425 -0.0798 -0.0792 -2.5814
  181SLPC  C31020775   2.261   5.421   9.321  0.3620 -0.1679 -0.7689
  181SLPC  H10X20776   2.365   5.403   9.286  0.6153  1.1440 -0.7074
  181SLPC  H10Y20777   2.263   5.531   9.338 -0.5401 -0.2425 -0.1688
  181SLPC  C31120778   2.175   5.401   9.194  0.0815  0.7403  0.3450
  181SLPC  H11X20779   2.178   5.293   9.168 -0.2158  0.3935  1.6916
  181SLPC  H11Y20780   2.211   5.462   9.109 -2.1154  0.8114 -0.5446
  181SLPC  C31220781   2.037   5.462   9.213  0.3298  0.4460 -0.7029
  181SLPC  H12X20782   2.027   5.550   9.281  0.0996  0.6912 -1.0521
  181SLPC  H12Y20783   1.961   5.391   9.250  0.5441  0.2221 -0.6928
  181SLPC  C31320784   1.961   5.521   9.089 -0.5092  1.0507  0.6452
  181SLPC  H13X20785   2.005   5.617   9.057  0.6957  0.9598  2.0128
  181SLPC  H13Y20786   1.855   5.542   9.115 -0.8454  1.3714 -0.9233
  181SLPC  C31420787   1.949   5.416   8.981  0.1824  0.8741  0.2037
  181SLPC  H14X20788   1.896   5.333   9.033  1.1677  0.9903  1.3961
  181SLPC  H14Y20789   2.051   5.387   8.949 -0.3725  0.1199 -0.9445
  181SLPC  C31520790   1.870   5.456   8.856 -0.0994 -0.1751  0.1447
  181SLPC  H15X20791   1.772   5.481   8.901 -0.1879 -0.5630  0.1694
  181SLPC  H15Y20792   1.843   5.363   8.800  2.9404 -0.2497 -1.2696
  181SLPC  C31620793   1.929   5.567   8.774 -0.7893 -0.1231 -0.4561
  181SLPC  H16X20794   2.008   5.516   8.715 -0.8682 -0.2670 -0.4371
  181SLPC  H16Y20795   1.970   5.637   8.850 -1.7993 -0.1724  0.1505
  181SLPC  C31720796   1.821   5.641   8.693 -0.0586  0.6946 -0.2153
  181SLPC  H17X20797   1.874   5.715   8.629  0.5607 -0.1369 -0.6685
  181SLPC  H17Y20798   1.744   5.695   8.753 -3.0669 -1.7290 -1.7465
  181SLPC  C31820799   1.760   5.551   8.589  0.3840 -0.4381 -0.4921
  181SLPC  H18X20800   1.844   5.523   8.521  0.9415 -1.5231  0.6388
  181SLPC  H18Y20801   1.681   5.597   8.526 -1.3351 -1.0058  1.2475
  181SLPC  H18Z20802   1.719   5.458   8.633 -0.7809  0.8785  1.2534
  182SLPC     N20803   0.525   6.556  11.107  0.3833  0.3026 -0.0112
  182SLPC   C1320804   0.391   6.559  11.167 -0.3725 -0.0243  0.1514
  182SLPC  H13A20805   0.396   6.534  11.272  0.1320 -0.3364  0.0512
  182SLPC  H13B20806   0.356   6.661  11.161  0.6220  0.2857 -0.4292
  182SLPC  H13C20807   0.322   6.491  11.118  0.6637 -1.5962  0.8314
  182SLPC   C1420808   0.598   6.434  11.150  0.5182 -0.6549  0.1200
  182SLPC  H14A20809   0.704   6.443  11.129  0.2985 -2.8615 -2.3008
  182SLPC  H14B20810   0.594   6.417  11.256 -1.9710 -2.0615 -0.1737
  182SLPC  H14C20811   0.554   6.354  11.093  0.3712  0.9252 -2.0476
  182SLPC   C1520812   0.603   6.675  11.165  0.0301  0.1388  0.0068
  182SLPC  H15A20813   0.564   6.771  11.137 -1.3781  0.0842  1.7503
  182SLPC  H15B20814   0.597   6.681  11.272 -0.8662 -0.0981 -0.0243
  182SLPC  H15C20815   0.703   6.674  11.123 -0.0126 -1.3288 -0.1008
  182SLPC   C1220816   0.512   6.572  10.958 -0.4252 -0.1727  0.5207
  182SLPC  H12A20817   0.610   6.580  10.912 -1.6615  1.6835 -1.8703
  182SLPC  H12B20818   0.476   6.672  10.942 -0.2870  0.2083  2.4871
  182SLPC   C1120819   0.428   6.473  10.872 -1.0425  0.0716 -0.7719
  182SLPC  H11A20820   0.467   6.369  10.884 -1.5339 -0.0528 -0.2418
  182SLPC  H11B20821   0.430   6.493  10.763  1.5208  0.3666 -0.7199
  182SLPC     P20822   0.174   6.403  10.856 -0.1350 -0.0129 -0.1982
  182SLPC   O1320823   0.152   6.276  10.924 -0.2085 -0.8441  0.2328
  182SLPC   O1420824   0.063   6.497  10.855 -0.0013 -0.4281 -0.5683
  182SLPC   O1220825   0.296   6.471  10.922 -0.3888 -0.1386  0.0399
  182SLPC   O1120826   0.214   6.374  10.705 -0.1562 -0.5711  0.6932
  182SLPC    C120827   0.122   6.295  10.622 -0.7026 -0.5556 -0.2545
  182SLPC    HA20828   0.023   6.290  10.671 -0.2149 -0.5345  0.7471
  182SLPC    HB20829   0.110   6.339  10.521 -2.1709  0.4243  0.3412
  182SLPC    C220830   0.178   6.149  10.608 -0.0504 -0.0824  0.5096
  182SLPC    HS20831   0.183   6.097  10.706 -1.0158 -1.8225 -0.3517
  182SLPC   O2120832   0.306   6.169  10.550 -0.5588 -0.9376 -0.6416
  182SLPC   C2120833   0.413   6.142  10.607 -0.3679 -0.4581  0.4195
  182SLPC   O2220834   0.425   6.085  10.715  0.2463 -0.1487 -0.0322
  182SLPC   C2220835   0.525   6.198  10.529 -0.3333  0.3695  0.0203
  182SLPC   H2R20836   0.497   6.291  10.476 -0.6883  0.0910 -0.2876
  182SLPC   H2S20837   0.609   6.226  10.596  1.4736  0.2633 -2.1296
  182SLPC    C320838   0.101   6.071  10.512 -0.6975  0.3379  0.0903
  182SLPC    HX20839  -0.006   6.065  10.542 -0.4801  1.2806  1.1032
  182SLPC    HY20840   0.137   5.967  10.501  1.4286  1.2046 -1.5800
  182SLPC   O3120841   0.107   6.128  10.378  0.2479  0.0583 -0.8680
  182SLPC   C3120842   0.038   6.057  10.288 -0.3542  0.2455  0.0245
  182SLPC   O3220843  -0.009   5.947  10.308  0.9484  0.4119 -0.0327
  182SLPC   C3220844   0.051   6.123  10.152 -1.1356 -0.1059  0.1666
  182SLPC   H2X20845   0.125   6.206  10.156 -0.3521 -0.7055 -1.4681
  182SLPC   H2Y20846  -0.051   6.163  10.135 -1.0392 -0.0143 -0.2044
  182SLPC   C2320847   0.559   6.103  10.402  0.1151  0.2529  0.4479
  182SLPC   H3R20848   0.536   5.997  10.427  0.9884  0.1150  0.6701
  182SLPC   H3S20849   0.665   6.108  10.369 -0.1137  0.9321 -0.2058
  182SLPC   C2420850   0.458   6.140  10.289 -0.0497 -0.2965 -0.1203
  182SLPC   H4R20851   0.464   6.244  10.251 -0.4356 -0.1253  0.2823
  182SLPC   H4S20852   0.353   6.138  10.324 -1.1810 -0.2328 -3.3708
  182SLPC   C2520853   0.480   6.051  10.161  0.0649  0.1408  0.0631
  182SLPC   H5R20854   0.383   6.058  10.107 -0.5460  1.5250  1.2904
  182SLPC   H5S20855   0.501   5.949  10.199 -0.2773 -0.7127 -1.9543
  182SLPC   C2620856   0.598   6.103  10.076  0.3534 -0.1974 -0.3036
  182SLPC   H6R20857   0.674   6.136  10.149 -1.0568  1.9411  0.2129
  182SLPC   H6S20858   0.575   6.196  10.020  0.6819  1.8010  2.8096
  182SLPC   C2720859   0.658   6.004   9.975  0.0852 -0.2746 -0.2301
  182SLPC   H7R20860   0.587   5.965   9.898  1.3361  1.2179 -2.1685
  182SLPC   H7S20861   0.692   5.925  10.045  1.8258  1.0159  0.4026
  182SLPC   C2820862   0.772   6.050   9.887  0.5207  0.0482 -0.2671
  182SLPC   H8R20863   0.848   6.104   9.947 -0.0169 -0.6237  1.0221
  182SLPC   H8S20864   0.742   6.132   9.818 -0.2543  0.1513  0.1934
  182SLPC   C2920865   0.835   5.937   9.808 -0.5302 -0.3865  0.6361
  182SLPC   H9R20866   0.869   5.849   9.864  1.6131 -0.8557 -1.3427
  182SLPC  C21020867   0.852   5.931   9.670  1.0719 -0.0326 -0.0512
  182SLPC  H10R20868   0.898   5.836   9.637  0.6376  0.1712 -1.2805
  182SLPC  C21120869   0.813   6.024   9.555  0.3742  0.0697 -0.1151
  182SLPC  H11R20870   0.893   6.015   9.479 -0.6487 -0.4280 -1.1523
  182SLPC  H11S20871   0.822   6.128   9.593  1.8699 -0.4857  1.0821
  182SLPC  C21220872   0.680   6.012   9.493  0.2944 -0.5073  1.3413
  182SLPC  H12R20873   0.607   6.074   9.548  0.2434  2.4750 -1.9456
  182SLPC  C21320874   0.645   5.940   9.386  0.3789 -0.7100  0.3539
  182SLPC  H13R20875   0.542   5.952   9.347  0.5313 -1.7621 -0.3996
  182SLPC  C21420876   0.740   5.848   9.312  0.2021  0.3150 -0.4434
  182SLPC  H14R20877   0.689   5.750   9.319 -0.9398  0.7486 -2.1796
  182SLPC  H14S20878   0.844   5.844   9.352 -0.3740 -1.3180  0.9501
  182SLPC  C21520879   0.760   5.877   9.162 -0.7118 -0.2958 -0.5348
  182SLPC  H15R20880   0.658   5.871   9.117 -0.5577 -0.6861 -0.8376
  182SLPC  H15S20881   0.826   5.791   9.138 -1.4898 -1.4677  1.3937
  182SLPC  C21620882   0.817   6.011   9.123 -0.4157  0.6490  0.4373
  182SLPC  H16R20883   0.925   5.994   9.148 -0.0111  2.0290 -0.3152
  182SLPC  H16S20884   0.769   6.084   9.192 -0.9626 -2.0039  2.9741
  182SLPC  C21720885   0.789   6.035   8.977 -0.4339 -0.5832  0.6527
  182SLPC  H17R20886   0.853   6.119   8.943 -0.7412 -0.3218  0.7113
  182SLPC  H17S20887   0.684   6.053   8.943 -0.7411  0.5893  2.1618
  182SLPC  C21820888   0.834   5.920   8.886 -0.6332 -0.2198  0.0926
  182SLPC  H18R20889   0.822   5.821   8.935 -2.4678  1.0773  2.3175
  182SLPC  H18S20890   0.944   5.930   8.872 -0.4539 -4.6777 -2.8491
  182SLPC  H18T20891   0.792   5.932   8.783  1.5039  0.3929 -0.7336
  182SLPC   C3320892   0.093   6.034  10.031 -0.1220  0.4873  0.6446
  182SLPC   H3X20893   0.013   5.959  10.015  1.5572 -1.5946  1.7865
  182SLPC   H3Y20894   0.192   5.987  10.052 -0.6892  0.1845  2.7786
  182SLPC   C3420895   0.117   6.118   9.901 -0.6007 -0.2984 -0.3097
  182SLPC   H4X20896   0.177   6.211   9.916 -0.1412 -0.8263  1.1714
  182SLPC   H4Y20897   0.013   6.141   9.869 -0.6268  0.9783  0.6564
  182SLPC   C3520898   0.193   6.032   9.799 -0.2154  0.4100  0.1304
  182SLPC   H5X20899   0.144   5.937   9.770 -1.0813  1.0848 -0.6335
  182SLPC   H5Y20900   0.276   6.001   9.867 -0.1796 -3.4042 -1.5323
  182SLPC   C3620901   0.230   6.105   9.677 -0.4202  0.1099 -0.2148
  182SLPC   H6X20902   0.318   6.051   9.634 -0.6283  0.5123 -1.1574
  182SLPC   H6Y20903   0.281   6.200   9.702  1.0964 -1.3564  2.4311
  182SLPC   C3720904   0.116   6.112   9.581 -0.2177 -0.2392 -0.5117
  182SLPC   H7X20905   0.032   6.170   9.625 -0.7524 -1.8836  0.7219
  182SLPC   H7Y20906   0.076   6.009   9.570  1.3529 -0.9491  0.2870
  182SLPC   C3820907   0.150   6.165   9.442 -0.6704  0.4749  0.8130
  182SLPC   H8X20908   0.220   6.088   9.401 -1.2333 -0.2930  1.2877
  182SLPC   H8Y20909   0.199   6.265   9.447 -0.5533  0.4991 -0.6380
  182SLPC   C3920910   0.033   6.168   9.351  0.3032  0.0929  0.1655
  182SLPC   H9X20911  -0.041   6.239   9.394 -0.8584 -0.4149 -0.9606
  182SLPC   H9Y20912   0.001   6.062   9.353 -0.2031  0.2459  0.0879
  182SLPC  C31020913   0.074   6.206   9.201  0.0000 -0.1725 -0.7488
  182SLPC  H10X20914   0.159   6.143   9.168 -0.1694 -2.2955  2.5568
  182SLPC  H10Y20915   0.117   6.308   9.201  1.4260 -0.7420  0.9841
  182SLPC  C31120916  -0.037   6.184   9.098 -0.2158  0.2079 -0.0007
  182SLPC  H11X20917  -0.124   6.252   9.114 -0.4374 -0.5185  2.1527
  182SLPC  H11Y20918  -0.075   6.079   9.095 -1.1870  0.4235  2.7257
  182SLPC  C31220919   0.008   6.218   8.956  0.3295  0.0032 -0.0585
  182SLPC  H12X20920   0.095   6.151   8.938  0.0534 -0.3324 -0.1504
  182SLPC  H12Y20921   0.040   6.320   8.929 -0.7766  0.3874  0.0709
  182SLPC  C31320922  -0.103   6.175   8.862  0.2663 -0.6918 -0.8230
  182SLPC  H13X20923  -0.179   6.253   8.885  1.9796  0.2293  1.9419
  182SLPC  H13Y20924  -0.142   6.075   8.891  0.7054 -0.8175 -0.6695
  182SLPC  C31420925  -0.061   6.169   8.719 -0.3633 -0.2002  0.7923
  182SLPC  H14X20926   0.043   6.130   8.715 -0.6571 -0.9637  0.4626
  182SLPC  H14Y20927  -0.049   6.272   8.680 -0.4083 -1.0666 -1.6122
  182SLPC  C31520928  -0.153   6.092   8.621  0.0947  0.3011  0.0819
  182SLPC  H15X20929  -0.234   6.166   8.600 -0.8178 -1.3702 -2.5976
  182SLPC  H15Y20930  -0.187   6.009   8.686 -0.7186  0.9615  0.5173
  182SLPC  C31620931  -0.067   6.026   8.515 -0.1612  0.1271  0.7390
  182SLPC  H16X20932   0.009   5.953   8.552  0.5903  0.5089 -0.0431
  182SLPC  H16Y20933  -0.007   6.102   8.461 -0.1259  0.6078  1.4571
  182SLPC  C31720934  -0.142   5.947   8.395  0.1703 -0.0186  0.5328
  182SLPC  H17X20935  -0.072   5.928   8.310  0.5240  1.0449  0.5839
  182SLPC  H17Y20936  -0.229   6.009   8.365 -1.5391 -1.5219  2.2560
  182SLPC  C31820937  -0.185   5.801   8.434  0.0002 -0.8079 -0.0347
  182SLPC  H18X20938  -0.234   5.745   8.352  0.6124 -0.0219 -0.9559
  182SLPC  H18Y20939  -0.263   5.803   8.513 -1.1520 -2.4339 -1.1051
  182SLPC  H18Z20940  -0.098   5.745   8.475 -0.1663 -1.6957 -0.8814
  183SLPC     N20941   2.109   1.377  10.674  0.3889 -0.9939 -0.2255
  183SLPC   C1320942   2.243   1.324  10.709 -0.2186 -0.0566  0.2029
  183SLPC  H13A20943   2.273   1.379  10.797 -0.8546  0.6346  0.0029
  183SLPC  H13B20944   2.232   1.221  10.740 -1.3356  0.0325  0.1409
  183SLPC  H13C20945   2.310   1.324  10.625 -0.3921 -0.2297  0.0667
  183SLPC   C1420946   2.060   1.304  10.553  0.1612 -0.9596  0.5926
  183SLPC  H14A20947   1.960   1.330  10.522  0.3024 -2.8784 -1.6046
  183SLPC  H14B20948   2.126   1.336  10.473 -0.7263 -1.5346 -0.3919
  183SLPC  H14C20949   2.075   1.197  10.551 -1.3662 -1.1693 -1.7383
  183SLPC   C1520950   2.124   1.526  10.638  0.1903 -0.0084  0.0078
  183SLPC  H15A20951   2.182   1.537  10.548 -0.9126 -1.1809 -0.8598
  183SLPC  H15B20952   2.027   1.561  10.607 -0.7663 -0.9181  1.8719
  183SLPC  H15C20953   2.170   1.581  10.719 -0.0055  0.9652 -0.5348
  183SLPC   C1220954   2.011   1.370  10.795  0.1186 -0.4322  0.2527
  183SLPC  H12A20955   1.922   1.430  10.782 -0.3050 -0.8341  1.2818
  183SLPC  H12B20956   2.057   1.433  10.870  3.0058 -0.5027 -1.3751
  183SLPC   C1120957   1.956   1.235  10.835 -0.2123  0.2789  0.4833
  183SLPC  H11A20958   1.897   1.189  10.753  1.0011  0.8781 -0.7286
  183SLPC  H11B20959   1.884   1.251  10.919 -1.2116  0.0630 -0.3286
  183SLPC     P20960   2.078   1.004  10.845 -0.2989 -0.1593 -0.0387
  183SLPC   O1320961   2.203   0.957  10.901 -0.2410 -0.2342 -0.0304
  183SLPC   O1420962   1.956   0.922  10.872  0.4155  0.4059  0.4216
  183SLPC   O1220963   2.061   1.154  10.885  0.2034 -0.2291  0.9052
  183SLPC   O1120964   2.097   1.017  10.686 -0.0812 -0.1555  0.1392
  183SLPC    C120965   2.053   0.908  10.591 -0.0363  0.3458 -0.6167
  183SLPC    HA20966   2.107   0.922  10.495 -1.1330  1.0928 -1.1287
  183SLPC    HB20967   2.079   0.809  10.634  1.4575  1.6861  1.7269
  183SLPC    C220968   1.900   0.903  10.560 -0.2733  0.5435 -0.1327
  183SLPC    HS20969   1.850   0.883  10.657 -1.8452  2.0422 -0.6169
  183SLPC   O2120970   1.892   0.783  10.481  0.1867  0.5363 -0.4414
  183SLPC   C2120971   1.779   0.725  10.491 -0.4029  0.2260 -0.0959
  183SLPC   O2220972   1.684   0.759  10.565  0.3084 -0.3378 -0.6655
  183SLPC   C2220973   1.786   0.597  10.420 -0.4626  0.0135  0.8467
  183SLPC   H2R20974   1.863   0.611  10.341 -0.2762 -2.5120  0.5194
  183SLPC   H2S20975   1.825   0.516  10.486 -1.5668  0.0392  1.5463
  183SLPC    C320976   1.842   1.019  10.481  1.1803 -0.0067  0.3789
  183SLPC    HX20977   1.849   1.101  10.555  1.7263  1.3036 -1.0820
  183SLPC    HY20978   1.738   0.992  10.453  2.1588 -0.8563 -2.6657
  183SLPC   O3120979   1.919   1.061  10.366  0.3515  0.2542  0.2374
  183SLPC   C3120980   1.866   1.018  10.248  0.0999 -0.4764 -0.2996
  183SLPC   O3220981   1.759   0.963  10.230 -0.7321 -0.1459 -0.4399
  183SLPC   C3220982   1.937   1.091  10.133  0.2691  0.1870 -0.4850
  183SLPC   H2X20983   2.009   1.169  10.166 -1.9243  1.2121  2.1273
  183SLPC   H2Y20984   1.853   1.151  10.091 -0.0908 -1.1814 -1.7635
  183SLPC   C2320985   1.656   0.568  10.341  0.2269 -0.1118 -0.5748
  183SLPC   H3R20986   1.564   0.586  10.401 -0.9405 -1.7628 -1.8267
  183SLPC   H3S20987   1.662   0.460  10.317 -0.6172 -0.5148  0.9569
  183SLPC   C2420988   1.661   0.626  10.203 -0.2346 -0.0223  0.3071
  183SLPC   H4R20989   1.760   0.606  10.156 -0.8020  0.7661 -1.2394
  183SLPC   H4S20990   1.656   0.736  10.212  1.9269  0.2488 -1.2859
  183SLPC   C2520991   1.559   0.575  10.102  0.4092  0.0578 -0.2205
  183SLPC   H5R20992   1.463   0.624  10.127  0.8192 -0.6672  3.0033
  183SLPC   H5S20993   1.537   0.466  10.113 -3.8176  0.9492  1.0127
  183SLPC   C2620994   1.591   0.611   9.958 -0.1616 -0.0665 -0.0714
  183SLPC   H6R20995   1.506   0.580   9.893  0.8696 -0.9771 -1.0088
  183SLPC   H6S20996   1.675   0.549   9.921  1.5790  1.3053  1.5224
  183SLPC   C2720997   1.631   0.755   9.933  0.2686 -0.5343  0.2392
  183SLPC   H7R20998   1.717   0.783   9.998 -1.2553 -0.2958  2.2067
  183SLPC   H7S20999   1.550   0.820   9.970  0.7101 -0.9344  1.9924
  183SLPC   C2821000   1.667   0.800   9.788  0.2214  0.4854 -0.3769
  183SLPC   H8R21001   1.738   0.727   9.743  1.4833  1.7653 -0.4993
  183SLPC   H8S21002   1.725   0.895   9.794  2.2972 -0.7783  0.2450
  183SLPC   C2921003   1.548   0.808   9.698  0.4069 -0.4074  0.2951
  183SLPC   H9R21004   1.453   0.822   9.751 -0.5288 -0.4351 -1.3532
  183SLPC  C21021005   1.543   0.765   9.569 -0.4094  0.2208 -0.1436
  183SLPC  H10R21006   1.451   0.783   9.512  0.8757 -1.0774 -2.7186
  183SLPC  C21121007   1.657   0.704   9.495 -0.1225 -0.5965 -0.7695
  183SLPC  H11R21008   1.612   0.647   9.411  0.1040  1.1707 -2.1078
  183SLPC  H11S21009   1.705   0.624   9.556  0.7286  2.0931  2.2187
  183SLPC  C21221010   1.761   0.800   9.441  0.4258 -0.1556  0.8439
  183SLPC  H12R21011   1.845   0.825   9.507 -0.6274  0.6001  1.9137
  183SLPC  C21321012   1.769   0.847   9.316 -0.4377  0.1253  0.5325
  183SLPC  H13R21013   1.857   0.906   9.289  0.9842 -2.3628 -0.4779
  183SLPC  C21421014   1.672   0.818   9.206  0.3006 -1.0128  0.6237
  183SLPC  H14R21015   1.628   0.910   9.162  3.0218 -1.0707 -2.3899
  183SLPC  H14S21016   1.590   0.757   9.248 -3.3729  1.7067 -2.2836
  183SLPC  C21521017   1.721   0.736   9.085 -0.0313 -0.0291  1.3543
  183SLPC  H15R21018   1.643   0.683   9.026  1.4032  0.7581 -1.3114
  183SLPC  H15S21019   1.774   0.646   9.122 -1.1226 -1.1132  0.3480
  183SLPC  C21621020   1.809   0.826   8.991  0.8409 -0.5055 -0.1434
  183SLPC  H16R21021   1.854   0.758   8.916 -0.0374 -1.1380 -0.1052
  183SLPC  H16S21022   1.885   0.878   9.053  1.5319  1.6920 -2.7495
  183SLPC  C21721023   1.727   0.920   8.899  0.3235 -0.8604  0.1052
  183SLPC  H17R21024   1.791   0.981   8.832 -0.3776  0.6001  0.7377
  183SLPC  H17S21025   1.674   0.990   8.967  1.4329  0.2333 -0.1476
  183SLPC  C21821026   1.620   0.852   8.808  0.1026  0.0836  0.2641
  183SLPC  H18R21027   1.566   0.934   8.756 -2.0927 -1.0935  0.6411
  183SLPC  H18S21028   1.556   0.780   8.864 -0.3836  0.2954 -0.0201
  183SLPC  H18T21029   1.675   0.793   8.731  2.1752  2.7207 -0.3617
  183SLPC   C3321030   1.981   0.991  10.018 -0.4494  0.4420 -0.1108
  183SLPC   H3X21031   1.912   0.917   9.973  1.2661 -0.3364 -1.5684
  183SLPC   H3Y21032   2.054   0.913  10.048 -2.0832 -1.9847 -2.2461
  183SLPC   C3421033   2.045   1.057   9.897 -0.2733  0.0220  0.1226
  183SLPC   H4X21034   2.134   1.115   9.931  0.2828  0.0888 -1.4229
  183SLPC   H4Y21035   1.971   1.125   9.852 -0.7449 -0.8542 -0.4386
  183SLPC   C3521036   2.084   0.959   9.785  0.3356  0.0019 -0.2017
  183SLPC   H5X21037   1.994   0.902   9.755  1.7482 -2.7192  0.5207
  183SLPC   H5Y21038   2.168   0.902   9.830 -1.6774 -0.8480  2.6569
  183SLPC   C3621039   2.136   1.035   9.662  0.8663  0.5230  0.0635
  183SLPC   H6X21040   2.238   1.074   9.685  0.8580  1.1100 -0.8455
  183SLPC   H6Y21041   2.064   1.112   9.628  1.4980  0.8409 -0.5812
  183SLPC   C3721042   2.166   0.944   9.537  0.8098 -0.5285 -0.0837
  183SLPC   H7X21043   2.075   0.884   9.515  0.6991 -0.5182  0.3354
  183SLPC   H7Y21044   2.252   0.879   9.562  0.5380 -0.7041  0.3915
  183SLPC   C3821045   2.188   1.026   9.397 -0.2645 -1.1743 -1.0315
  183SLPC   H8X21046   2.289   1.073   9.395 -0.3494 -0.9387  0.0570
  183SLPC   H8Y21047   2.103   1.096   9.389  0.7754  0.3799  1.0708
  183SLPC   C3921048   2.177   0.936   9.280  0.2211  0.1599 -0.0580
  183SLPC   H9X21049   2.073   0.897   9.272 -0.2218  1.4332 -0.7145
  183SLPC   H9Y21050   2.236   0.843   9.290 -1.7071 -1.1657 -0.6021
  183SLPC  C31021051   2.206   1.013   9.147  0.6213  0.6724 -0.3854
  183SLPC  H10X21052   2.304   1.065   9.156 -0.2027  2.4130 -1.1104
  183SLPC  H10Y21053   2.131   1.089   9.117  1.2840  0.6208 -2.2761
  183SLPC  C31121054   2.210   0.916   9.030  0.9536  0.0688  0.0445
  183SLPC  H11X21055   2.103   0.889   9.013  0.4065  0.9071  1.9751
  183SLPC  H11Y21056   2.268   0.828   9.064  1.6807  1.4477  2.4718
  183SLPC  C31221057   2.264   0.988   8.907  0.1442 -0.1491 -0.2462
  183SLPC  H12X21058   2.368   1.012   8.937 -0.6800  2.8971  0.3940
  183SLPC  H12Y21059   2.210   1.083   8.887  0.0642  0.4648  2.6757
  183SLPC  C31321060   2.245   0.893   8.793 -0.2412 -0.0313  0.2219
  183SLPC  H13X21061   2.255   0.941   8.694 -2.5027  0.9187  0.4416
  183SLPC  H13Y21062   2.151   0.833   8.794  1.4568 -2.9101 -2.4319
  183SLPC  C31421063   2.367   0.795   8.793  0.4881  0.0262  0.2369
  183SLPC  H14X21064   2.356   0.727   8.880  1.3125  0.0235  0.3479
  183SLPC  H14Y21065   2.458   0.860   8.798 -2.5604  4.6389 -0.5508
  183SLPC  C31521066   2.379   0.701   8.671  0.1378 -1.1584 -0.3359
  183SLPC  H15X21067   2.486   0.671   8.669  0.2131 -0.9312  0.0725
  183SLPC  H15Y21068   2.342   0.760   8.585 -1.1103 -0.2047  0.8274
  183SLPC  C31621069   2.291   0.582   8.701 -0.2640  0.4863 -0.1028
  183SLPC  H16X21070   2.183   0.607   8.706 -0.9816 -2.7895  2.7916
  183SLPC  H16Y21071   2.315   0.548   8.803  0.9182  0.0247 -0.5258
  183SLPC  C31721072   2.311   0.463   8.603 -0.7458  0.0001  0.5855
  183SLPC  H17X21073   2.419   0.438   8.592 -1.1533 -0.9636 -1.3801
  183SLPC  H17Y21074   2.276   0.518   8.513  1.4722 -1.1027 -0.9901
  183SLPC  C31821075   2.207   0.347   8.623  0.3104 -0.2256  0.4615
  183SLPC  H18X21076   2.198   0.311   8.727 -2.0562  1.6467  0.9411
  183SLPC  H18Y21077   2.220   0.259   8.557 -1.3809  1.4976 -2.2687
  183SLPC  H18Z21078   2.107   0.386   8.594  0.2359 -0.9179 -0.2437
  184SLPC     N21079   4.190   5.459  10.773  0.1727 -0.6909  0.3169
  184SLPC   C1321080   4.174   5.604  10.804 -0.3931  0.5074 -0.3004
  184SLPC  H13A21081   4.088   5.637  10.748  0.4816  1.5211 -1.0700
  184SLPC  H13B21082   4.150   5.613  10.909  0.7218 -0.1344  0.0184
  184SLPC  H13C21083   4.266   5.652  10.773  1.4175 -1.3756  1.9377
  184SLPC   C1421084   4.065   5.391  10.814 -0.8609 -1.1578  0.2237
  184SLPC  H14A21085   4.034   5.423  10.912 -1.0287 -0.2046 -0.1320
  184SLPC  H14B21086   3.982   5.417  10.750 -1.1225 -1.3893  0.4716
  184SLPC  H14C21087   4.073   5.284  10.816  1.8136 -1.0215 -1.3234
  184SLPC   C1521088   4.300   5.406  10.861 -0.3422  1.2142  0.1982
  184SLPC  H15A21089   4.324   5.303  10.839  2.7008  1.3448  2.5827
  184SLPC  H15B21090   4.386   5.466  10.836 -0.9118  1.2893 -1.5989
  184SLPC  H15C21091   4.279   5.416  10.967  0.5992 -1.0036  0.6243
  184SLPC   C1221092   4.223   5.441  10.626 -0.1836 -0.0443 -0.3148
  184SLPC  H12A21093   4.325   5.467  10.600 -0.1507 -0.2030 -0.3441
  184SLPC  H12B21094   4.152   5.500  10.571 -0.0835 -1.5288 -2.0672
  184SLPC   C1121095   4.208   5.290  10.571 -0.4944 -0.2519 -0.2440
  184SLPC  H11A21096   4.246   5.290  10.467  1.6138 -3.1871  0.4829
  184SLPC  H11B21097   4.098   5.274  10.561 -1.0255  3.4735 -1.1278
  184SLPC     P21098   4.219   5.062  10.707  0.1713 -0.0169  0.0707
  184SLPC   O1321099   4.328   4.995  10.786 -0.1320  0.0851 -0.7440
  184SLPC   O1421100   4.098   5.082  10.772  0.3870 -0.2556  0.3406
  184SLPC   O1221101   4.274   5.190  10.650 -0.1972  0.0066  0.2876
  184SLPC   O1121102   4.189   4.971  10.580  0.1518  0.6929 -0.0746
  184SLPC    C121103   4.297   4.893  10.514 -0.6934  0.4277 -0.3515
  184SLPC    HA21104   4.395   4.900  10.565 -0.1784 -1.4347 -1.0524
  184SLPC    HB21105   4.276   4.785  10.524  1.5968 -0.0137 -0.1106
  184SLPC    C221106   4.317   4.942  10.366 -0.0869 -0.6301  0.5504
  184SLPC    HS21107   4.388   4.880  10.307  0.4258  0.4198  0.0417
  184SLPC   O2121108   4.357   5.078  10.368  0.0524 -0.6553  0.3215
  184SLPC   C2121109   4.495   5.095  10.369  0.6800  0.0803 -0.5590
  184SLPC   O2221110   4.575   5.003  10.384  0.6403 -0.1653  0.2748
  184SLPC   C2221111   4.520   5.242  10.386  0.3219 -0.0841 -0.6374
  184SLPC   H2R21112   4.423   5.295  10.395  1.0364  1.3084 -0.9871
  184SLPC   H2S21113   4.583   5.260  10.476  1.4007 -0.2854 -1.3355
  184SLPC    C321114   4.191   4.946  10.275  0.0064  0.3097 -0.1850
  184SLPC    HX21115   4.122   5.013  10.331 -0.0639  1.6256 -1.8057
  184SLPC    HY21116   4.160   4.839  10.276 -1.0899  0.6242  0.3945
  184SLPC   O3121117   4.213   4.985  10.142  0.5030  0.0024 -0.0031
  184SLPC   C3121118   4.187   5.112  10.111  0.1156  0.2434  0.1314
  184SLPC   O3221119   4.157   5.199  10.189  0.2133 -0.5099 -1.2561
  184SLPC   C3221120   4.176   5.122   9.964 -0.1888  0.3429 -0.8534
  184SLPC   H2X21121   4.206   5.029   9.911  1.5349  0.9426 -0.9637
  184SLPC   H2Y21122   4.251   5.197   9.929  1.5013 -0.1675  1.5371
  184SLPC   C2321123   4.598   5.303  10.266  0.4939  0.0131 -0.2509
  184SLPC   H3R21124   4.703   5.267  10.271  0.9417  1.3189 -0.1042
  184SLPC   H3S21125   4.604   5.413  10.278 -1.2450  0.0027  0.7951
  184SLPC   C2421126   4.543   5.263  10.129  0.8049  0.3297  0.0534
  184SLPC   H4R21127   4.433   5.276  10.115  0.9817  0.9834 -0.7284
  184SLPC   H4S21128   4.576   5.158  10.119  2.8459  1.0059 -0.4343
  184SLPC   C2521129   4.614   5.339  10.016 -0.3547  0.0854 -1.3774
  184SLPC   H5R21130   4.723   5.318  10.010 -0.2632 -0.5573  2.0058
  184SLPC   H5S21131   4.584   5.445  10.028 -1.7616 -0.4816  0.3407
  184SLPC   C2621132   4.559   5.306   9.879  0.6851 -0.0536  0.7226
  184SLPC   H6R21133   4.450   5.327   9.878  0.9820  1.7012 -1.6354
  184SLPC   H6S21134   4.575   5.199   9.858  0.0261 -0.1466  0.7052
  184SLPC   C2721135   4.630   5.382   9.763  0.1714 -0.6344 -0.9412
  184SLPC   H7R21136   4.731   5.334   9.762  1.5600  2.1153  1.1963
  184SLPC   H7S21137   4.641   5.491   9.780 -3.1782 -0.2831 -0.7451
  184SLPC   C2821138   4.554   5.355   9.633  0.1855  0.6176  0.0451
  184SLPC   H8R21139   4.556   5.454   9.583 -1.0522  1.0520  0.8214
  184SLPC   H8S21140   4.445   5.340   9.651 -0.0293  0.1714 -1.5900
  184SLPC   C2921141   4.610   5.246   9.541 -0.4013 -0.9650  0.6128
  184SLPC   H9R21142   4.705   5.282   9.499 -1.4826 -1.1300 -2.0245
  184SLPC  C21021143   4.561   5.125   9.512  0.0783  0.3422  0.6416
  184SLPC  H10R21144   4.616   5.052   9.451  0.2763 -0.9358  2.3227
  184SLPC  C21121145   4.429   5.081   9.550 -0.6487 -0.8421  0.0132
  184SLPC  H11R21146   4.349   5.158   9.559 -1.6399 -1.9311  0.8357
  184SLPC  H11S21147   4.438   5.033   9.650 -0.9269  0.1672  0.5328
  184SLPC  C21221148   4.370   4.997   9.437 -0.4912  0.7040 -0.5635
  184SLPC  H12R21149   4.399   5.033   9.337  1.1098  0.7945 -0.0696
  184SLPC  C21321150   4.299   4.885   9.449  0.7481 -0.2661  0.5541
  184SLPC  H13R21151   4.268   4.832   9.358 -2.5793  0.9181  0.9433
  184SLPC  C21421152   4.254   4.811   9.564 -0.0816  0.2376 -0.1603
  184SLPC  H14R21153   4.153   4.773   9.537  0.5755  1.0508 -4.1937
  184SLPC  H14S21154   4.219   4.886   9.638 -0.4508 -1.9791  1.9361
  184SLPC  C21521155   4.353   4.711   9.623  0.9186  0.0819  0.2223
  184SLPC  H15R21156   4.451   4.753   9.656  1.2963 -0.8190  0.2604
  184SLPC  H15S21157   4.373   4.633   9.547 -0.4786  1.2753 -1.4131
  184SLPC  C21621158   4.299   4.635   9.737 -0.6844 -0.0926 -0.2597
  184SLPC  H16R21159   4.365   4.548   9.758 -0.6373 -0.1563 -0.6588
  184SLPC  H16S21160   4.195   4.603   9.717  0.2441 -2.8262 -0.8951
  184SLPC  C21721161   4.300   4.720   9.863  0.4746 -0.9246  0.6107
  184SLPC  H17R21162   4.254   4.664   9.948  1.8925 -1.9417  0.7162
  184SLPC  H17S21163   4.236   4.808   9.839  1.6625  0.5784  2.7275
  184SLPC  C21821164   4.428   4.780   9.909  0.5633  0.0328 -0.4405
  184SLPC  H18R21165   4.511   4.706   9.919  1.9493  1.1360 -3.0894
  184SLPC  H18S21166   4.412   4.834  10.004  0.4168  0.7612 -0.8748
  184SLPC  H18T21167   4.456   4.848   9.825  0.4703  0.6625  0.0388
  184SLPC   C3321168   4.031   5.166   9.926 -0.5316 -0.2458 -0.2806
  184SLPC   H3X21169   4.025   5.276   9.915  1.5388 -0.3194 -2.8658
  184SLPC   H3Y21170   3.961   5.132  10.005  0.1293  1.0779  0.8813
  184SLPC   C3421171   3.973   5.106   9.796 -0.1520  0.2492  0.8731
  184SLPC   H4X21172   3.862   5.099   9.792 -0.1772  1.2462 -0.7174
  184SLPC   H4Y21173   4.010   5.002   9.784  2.1067  1.3244 -1.9313
  184SLPC   C3521174   4.003   5.174   9.664  0.0384 -0.2206  0.5131
  184SLPC   H5X21175   4.112   5.191   9.649 -0.4717  1.1401 -2.0199
  184SLPC   H5Y21176   3.936   5.262   9.655 -0.8239 -0.5583  3.2805
  184SLPC   C3621177   3.974   5.091   9.541 -0.4985  0.3343 -0.1714
  184SLPC   H6X21178   3.866   5.071   9.525 -0.4206 -0.7281  0.5526
  184SLPC   H6Y21179   4.040   5.002   9.551  0.4342  0.9769 -0.4583
  184SLPC   C3721180   4.014   5.170   9.416 -0.3130  0.0226 -0.7163
  184SLPC   H7X21181   4.117   5.142   9.388  0.7282  1.5072  1.4836
  184SLPC   H7Y21182   4.016   5.275   9.452  0.6369  0.4778 -2.0941
  184SLPC   C3821183   3.921   5.163   9.297  0.1695 -0.6234 -0.3894
  184SLPC   H8X21184   3.821   5.189   9.339  0.2584  2.0202 -1.7279
  184SLPC   H8Y21185   3.916   5.057   9.262 -3.8943  0.0827 -2.3519
  184SLPC   C3921186   3.959   5.257   9.181 -0.2222 -0.1623 -0.0748
  184SLPC   H9X21187   4.058   5.231   9.137 -0.4346 -0.5897 -0.3091
  184SLPC   H9Y21188   3.957   5.364   9.208 -0.0536 -0.3861  0.8335
  184SLPC  C31021189   3.855   5.243   9.063 -0.9304  0.8718  0.0883
  184SLPC  H10X21190   3.755   5.280   9.094 -1.8982 -2.0296  0.6053
  184SLPC  H10Y21191   3.844   5.132   9.056 -0.6837  0.6725  2.5085
  184SLPC  C31121192   3.902   5.324   8.940 -0.2832 -0.4555  0.2898
  184SLPC  H11X21193   3.990   5.270   8.899 -0.3824 -0.4430  0.0608
  184SLPC  H11Y21194   3.925   5.431   8.961 -1.0432 -0.0965 -0.6987
  184SLPC  C31221195   3.792   5.325   8.831 -0.2086 -0.4562 -0.9285
  184SLPC  H12X21196   3.708   5.397   8.842  2.8738  2.8863  1.8607
  184SLPC  H12Y21197   3.759   5.219   8.839 -0.1822 -0.3761  0.3691
  184SLPC  C31321198   3.851   5.351   8.691 -0.8927 -0.0155  0.2714
  184SLPC  H13X21199   3.953   5.310   8.673  0.0298  2.0441  0.6163
  184SLPC  H13Y21200   3.860   5.462   8.686 -1.2559  0.0433  0.9087
  184SLPC  C31421201   3.761   5.310   8.570 -0.4844 -0.2349 -0.2062
  184SLPC  H14X21202   3.721   5.207   8.583  0.1190 -0.3017  1.1686
  184SLPC  H14Y21203   3.819   5.314   8.475 -0.0406 -0.6036  0.0511
  184SLPC  C31521204   3.629   5.393   8.546  0.3041 -0.0516  0.4684
  184SLPC  H15X21205   3.657   5.501   8.550  1.5631 -0.2376 -2.1945
  184SLPC  H15Y21206   3.558   5.387   8.631  1.7588  3.5072  2.0624
  184SLPC  C31621207   3.557   5.356   8.417  0.3994  0.6349  0.2282
  184SLPC  H16X21208   3.488   5.271   8.435  1.2434 -0.0263  0.3659
  184SLPC  H16Y21209   3.634   5.312   8.350 -2.6394  0.0503 -3.0110
  184SLPC  C31721210   3.489   5.477   8.356 -0.5824  0.4355  0.5915
  184SLPC  H17X21211   3.561   5.561   8.354  1.3604 -1.1954 -0.0181
  184SLPC  H17Y21212   3.411   5.516   8.424 -0.0841  2.5980 -0.0462
  184SLPC  C31821213   3.421   5.462   8.214  0.0341 -0.0154 -0.3034
  184SLPC  H18X21214   3.338   5.389   8.214  0.1144 -0.1157  1.0310
  184SLPC  H18Y21215   3.504   5.447   8.142  1.5995 -0.3216  1.5294
  184SLPC  H18Z21216   3.371   5.559   8.191  1.0872  1.1784  2.2236
  185SLPC     N21217   2.146   0.898   6.332 -0.4437 -0.1068 -0.1062
  185SLPC   C1321218   2.205   0.968   6.208  0.0075  0.2483  0.0047
  185SLPC  H13A21219   2.153   1.061   6.190  1.9403  2.0580  3.2248
  185SLPC  H13B21220   2.310   0.990   6.216  0.0300 -0.4136  1.9964
  185SLPC  H13C21221   2.185   0.916   6.115  1.2766  2.2627 -1.4305
  185SLPC   C1421222   2.219   0.763   6.350  0.2655 -0.2693 -0.8767
  185SLPC  H14A21223   2.327   0.758   6.350  0.3985  1.7387  0.4938
  185SLPC  H14B21224   2.193   0.733   6.451 -1.7078 -0.2816 -1.3668
  185SLPC  H14C21225   2.180   0.693   6.279 -4.1875  1.2012 -0.0552
  185SLPC   C1521226   2.003   0.869   6.298  0.0221 -0.6712  0.1006
  185SLPC  H15A21227   1.952   0.952   6.252  0.1469  0.5428  2.1245
  185SLPC  H15B21228   2.011   0.801   6.214 -0.9678  0.3835 -0.8650
  185SLPC  H15C21229   1.946   0.837   6.384  0.5616 -0.2585  0.6195
  185SLPC   C1221230   2.144   0.990   6.451 -0.6924 -0.2164 -0.2930
  185SLPC  H12A21231   2.080   0.947   6.526 -3.7965  0.8253 -2.2821
  185SLPC  H12B21232   2.106   1.088   6.427  0.5733  0.6454  1.1111
  185SLPC   C1121233   2.289   1.006   6.516 -0.8313  0.4956  0.7930
  185SLPC  H11A21234   2.337   0.909   6.540 -0.2868  0.2700 -1.1435
  185SLPC  H11B21235   2.284   1.055   6.616 -0.7037  2.0908  0.0339
  185SLPC     P21236   2.351   1.237   6.417  0.3773 -0.3028  0.1483
  185SLPC   O1321237   2.466   1.296   6.335  0.2303 -0.0757 -0.7420
  185SLPC   O1421238   2.218   1.283   6.375 -0.1624  0.5511 -0.0662
  185SLPC   O1221239   2.372   1.075   6.425 -0.4110 -0.8984 -0.5106
  185SLPC   O1121240   2.367   1.282   6.567  0.5599 -0.0441 -0.3285
  185SLPC    C121241   2.491   1.257   6.636  0.9448  0.2113  0.2556
  185SLPC    HA21242   2.484   1.156   6.682 -0.0974 -0.8336 -2.1286
  185SLPC    HB21243   2.584   1.274   6.578 -0.5313 -0.0342 -2.2523
  185SLPC    C221244   2.506   1.362   6.757  0.2247  0.0279  0.3957
  185SLPC    HS21245   2.612   1.362   6.788  0.6122 -0.5894 -0.8688
  185SLPC   O2121246   2.419   1.326   6.865  0.3706  0.4207  0.2830
  185SLPC   C2121247   2.458   1.365   6.987 -0.1579 -0.3891  0.3617
  185SLPC   O2221248   2.568   1.421   7.012 -0.0552 -0.4831 -0.3328
  185SLPC   C2221249   2.354   1.341   7.095 -0.9863 -0.0475 -0.2502
  185SLPC   H2R21250   2.255   1.379   7.060 -1.4897 -1.3832 -0.2973
  185SLPC   H2S21251   2.345   1.231   7.105  1.9155 -0.5231 -2.1537
  185SLPC    C321252   2.482   1.503   6.702  0.1736 -0.2418 -0.0381
  185SLPC    HX21253   2.381   1.502   6.656  0.1526 -3.3569  0.0254
  185SLPC    HY21254   2.559   1.514   6.623 -1.9648 -0.4021 -2.1967
  185SLPC   O3121255   2.510   1.609   6.795  0.2610 -0.4192 -0.2171
  185SLPC   C3121256   2.411   1.681   6.826  0.2209  0.1202 -0.0209
  185SLPC   O3221257   2.298   1.685   6.781  0.1554  0.2840  0.8673
  185SLPC   C3221258   2.461   1.762   6.945 -1.1009  0.4531 -0.3136
  185SLPC   H2X21259   2.562   1.799   6.917 -1.1164 -0.1316 -1.1508
  185SLPC   H2Y21260   2.484   1.692   7.028 -0.6707  0.1541 -0.6836
  185SLPC   C2321261   2.379   1.415   7.223 -0.1551  0.1068  0.1784
  185SLPC   H3R21262   2.387   1.525   7.207 -0.3995 -0.4309 -4.3306
  185SLPC   H3S21263   2.479   1.384   7.260  0.6811  1.2081 -1.1055
  185SLPC   C2421264   2.276   1.384   7.337 -0.3452  0.6620  1.0133
  185SLPC   H4R21265   2.285   1.274   7.350 -1.9892  0.2168 -1.2995
  185SLPC   H4S21266   2.172   1.397   7.301 -0.4592 -0.9889  0.7118
  185SLPC   C2521267   2.299   1.436   7.479 -0.0200 -0.0612  0.4996
  185SLPC   H5R21268   2.395   1.397   7.520 -0.5956  1.6479  3.5696
  185SLPC   H5S21269   2.214   1.403   7.543  0.3215 -0.9968  0.4772
  185SLPC   C2621270   2.298   1.590   7.495  0.2778  0.4084 -0.1443
  185SLPC   H6R21271   2.241   1.642   7.414 -0.0802 -0.1167 -0.2329
  185SLPC   H6S21272   2.401   1.622   7.469  1.0173 -0.5774  1.5211
  185SLPC   C2721273   2.250   1.647   7.629  0.2790  0.3616  0.0529
  185SLPC   H7R21274   2.158   1.593   7.661 -1.8306  2.4196 -2.3344
  185SLPC   H7S21275   2.231   1.756   7.624  0.5682  0.3894 -0.4050
  185SLPC   C2821276   2.351   1.620   7.743 -0.3659  0.3455  0.2350
  185SLPC   H8R21277   2.385   1.514   7.746 -0.7791  0.1917 -0.2568
  185SLPC   H8S21278   2.290   1.641   7.833 -0.8064  1.3947 -0.3000
  185SLPC   C2921279   2.475   1.705   7.723 -0.0890 -1.2796  0.7812
  185SLPC   H9R21280   2.526   1.679   7.629 -1.4507 -4.5456  0.9071
  185SLPC  C21021281   2.516   1.808   7.794 -0.0183 -0.8379 -0.4401
  185SLPC  H10R21282   2.605   1.866   7.765  1.2685 -1.4065  2.1921
  185SLPC  C21121283   2.465   1.859   7.923 -0.0705  0.2773 -0.1863
  185SLPC  H11R21284   2.501   1.796   8.007 -0.0944 -1.2809 -1.3270
  185SLPC  H11S21285   2.354   1.852   7.926 -0.0425  0.1146  0.5614
  185SLPC  C21221286   2.518   2.002   7.969 -0.2473 -0.1026 -0.4372
  185SLPC  H12R21287   2.614   2.030   7.924 -0.0385 -0.3303 -0.1333
  185SLPC  C21321288   2.459   2.080   8.064 -0.1265 -0.3683 -0.1200
  185SLPC  H13R21289   2.511   2.172   8.093 -2.0289  0.6183  0.2394
  185SLPC  C21421290   2.333   2.050   8.135 -0.3998  0.0157 -0.1163
  185SLPC  H14R21291   2.346   2.057   8.245 -2.8059  2.3824  0.0637
  185SLPC  H14S21292   2.290   1.955   8.096  0.3452 -0.7761  0.9635
  185SLPC  C21521293   2.223   2.146   8.097 -0.0401 -0.0442 -0.1021
  185SLPC  H15R21294   2.253   2.249   8.127  1.9996 -0.8795  0.8013
  185SLPC  H15S21295   2.132   2.122   8.156 -1.2458 -0.1229 -1.9439
  185SLPC  C21621296   2.183   2.146   7.948 -0.3845  0.4018  0.3014
  185SLPC  H16R21297   2.172   2.044   7.905  0.6855 -0.5447  2.2259
  185SLPC  H16S21298   2.267   2.184   7.886 -0.0219  0.9100  1.0908
  185SLPC  C21721299   2.077   2.254   7.923 -0.1865 -0.6501 -0.1860
  185SLPC  H17R21300   2.109   2.353   7.963  0.4272 -0.3902 -1.3122
  185SLPC  H17S21301   1.993   2.221   7.988 -0.7031 -0.3002 -0.6758
  185SLPC  C21821302   2.020   2.270   7.784 -0.2277 -0.2063  0.2586
  185SLPC  H18R21303   2.104   2.281   7.712 -1.0687 -0.6353 -0.7985
  185SLPC  H18S21304   1.963   2.365   7.788 -1.8150 -1.1799  0.8426
  185SLPC  H18T21305   1.949   2.192   7.750  1.2851 -1.1080 -0.9175
  185SLPC   C3321306   2.358   1.874   6.981  0.1186  0.1589 -0.0155
  185SLPC   H3X21307   2.254   1.837   6.994  0.4080  0.0183  2.0689
  185SLPC   H3Y21308   2.362   1.954   6.904 -0.6461 -0.0954 -0.3254
  185SLPC   C3421309   2.401   1.953   7.109  0.0504  0.3305 -0.5355
  185SLPC   H4X21310   2.346   2.050   7.106 -0.5618  0.0060  0.1063
  185SLPC   H4Y21311   2.507   1.986   7.105 -0.3222  1.5303 -0.7717
  185SLPC   C3521312   2.369   1.882   7.240  0.5594  0.0554 -0.1249
  185SLPC   H5X21313   2.418   1.782   7.245 -0.4270 -0.2989  4.2728
  185SLPC   H5Y21314   2.259   1.868   7.236  0.6312 -0.8789  0.7256
  185SLPC   C3621315   2.406   1.945   7.376  0.0687  0.1493  0.8011
  185SLPC   H6X21316   2.514   1.969   7.385  0.2246 -0.2150 -0.0496
  185SLPC   H6Y21317   2.365   1.879   7.456  1.5181 -0.5201  1.0119
  185SLPC   C3721318   2.312   2.075   7.381 -0.2377  0.0318  0.2188
  185SLPC   H7X21319   2.204   2.049   7.374 -0.4076  0.1351  2.3251
  185SLPC   H7Y21320   2.337   2.140   7.294 -0.3199  0.0544  0.2118
  185SLPC   C3821321   2.322   2.160   7.508 -0.4552  0.3587 -1.6133
  185SLPC   H8X21322   2.291   2.100   7.595 -0.0597  0.3005 -1.5086
  185SLPC   H8Y21323   2.263   2.254   7.493  2.0430  2.2157 -0.2109
  185SLPC   C3921324   2.467   2.192   7.530 -0.0778  0.0675 -0.3761
  185SLPC   H9X21325   2.499   2.264   7.452 -2.5074  1.6444  0.0297
  185SLPC   H9Y21326   2.528   2.101   7.512 -1.8283 -1.6475  2.0323
  185SLPC  C31021327   2.493   2.231   7.677  0.5893  0.2161  0.8457
  185SLPC  H10X21328   2.598   2.265   7.693  0.5255  0.5702  0.5396
  185SLPC  H10Y21329   2.479   2.156   7.757  1.4250 -2.7195 -1.6925
  185SLPC  C31121330   2.409   2.356   7.718 -0.7130 -0.4733 -0.3132
  185SLPC  H11X21331   2.301   2.336   7.731 -0.7238 -0.9573 -1.1007
  185SLPC  H11Y21332   2.417   2.419   7.627 -2.0676  0.2339  0.0479
  185SLPC  C31221333   2.454   2.426   7.842 -0.1972  0.4638  0.2467
  185SLPC  H12X21334   2.552   2.475   7.823  0.4829 -0.3382  1.6041
  185SLPC  H12Y21335   2.462   2.350   7.922  0.3462 -0.4971 -0.7024
  185SLPC  C31321336   2.375   2.551   7.880 -0.1497  1.3595  0.2127
  185SLPC  H13X21337   2.265   2.535   7.867 -0.3080  0.6947  2.1801
  185SLPC  H13Y21338   2.415   2.623   7.807  0.4339 -0.1951 -1.0236
  185SLPC  C31421339   2.405   2.608   8.020 -0.2765  0.3025 -0.3874
  185SLPC  H14X21340   2.509   2.581   8.048 -0.1776  0.2845 -0.7690
  185SLPC  H14Y21341   2.335   2.563   8.093  0.7355  1.0548  1.0738
  185SLPC  C31521342   2.384   2.764   8.030 -0.2747  0.5767  0.7992
  185SLPC  H15X21343   2.280   2.783   7.998 -0.8904 -1.5047  1.5091
  185SLPC  H15Y21344   2.452   2.790   7.945  0.3387 -1.9727  0.4568
  185SLPC  C31621345   2.420   2.828   8.168 -0.3721 -0.1076 -0.5113
  185SLPC  H16X21346   2.518   2.787   8.201 -1.8684 -1.4024  2.5109
  185SLPC  H16Y21347   2.348   2.786   8.241 -1.9764  1.3153 -1.2374
  185SLPC  C31721348   2.422   2.981   8.175  0.8611  0.2274  0.0670
  185SLPC  H17X21349   2.427   3.011   8.282 -0.5689 -0.9220  0.4736
  185SLPC  H17Y21350   2.328   3.032   8.147  0.8393 -0.8875 -2.0044
  185SLPC  C31821351   2.537   3.034   8.083  0.7537 -0.2492 -0.2219
  185SLPC  H18X21352   2.525   3.020   7.974  1.4733  0.5008 -0.4046
  185SLPC  H18Y21353   2.635   2.987   8.109 -0.0193 -0.5111  2.3484
  185SLPC  H18Z21354   2.561   3.141   8.102 -0.8253  0.8174 -3.8616
  186SLPC     N21355   2.827   4.604   6.090 -0.4224 -0.7774 -0.1727
  186SLPC   C1321356   2.685   4.588   6.042 -0.3332 -0.4235 -0.4459
  186SLPC  H13A21357   2.622   4.668   6.079  1.3280  0.7843 -0.1647
  186SLPC  H13B21358   2.698   4.585   5.935 -0.5190 -3.8350 -0.4224
  186SLPC  H13C21359   2.644   4.493   6.071 -2.9833  0.1507 -2.1239
  186SLPC   C1421360   2.880   4.739   6.049  0.1886 -0.7457 -0.2613
  186SLPC  H14A21361   2.881   4.822   6.118  3.5755 -0.3870 -0.6540
  186SLPC  H14B21362   2.986   4.726   6.035 -0.0869 -1.0198 -2.2833
  186SLPC  H14C21363   2.850   4.767   5.949  1.8921  1.7870 -0.1132
  186SLPC   C1521364   2.918   4.507   6.019 -0.2751  0.9814 -0.2639
  186SLPC  H15A21365   2.895   4.406   6.049  2.0084 -0.0319 -1.7766
  186SLPC  H15B21366   2.899   4.512   5.912  0.8840 -1.4212 -0.6239
  186SLPC  H15C21367   3.019   4.529   6.049 -0.2844  1.6199 -0.6868
  186SLPC   C1221368   2.828   4.595   6.242  0.2293  0.4352 -0.0959
  186SLPC  H12A21369   2.786   4.499   6.267 -0.9405  1.0711  0.4126
  186SLPC  H12B21370   2.769   4.673   6.287  0.0018  0.2942 -0.1481
  186SLPC   C1121371   2.975   4.597   6.311 -0.3593  0.0556 -0.2522
  186SLPC  H11A21372   2.961   4.580   6.420  1.3068  1.5815  0.2322
  186SLPC  H11B21373   3.018   4.699   6.306  1.9481 -0.7990  1.4283
  186SLPC     P21374   3.079   4.366   6.278 -0.4416 -0.0167 -0.4966
  186SLPC   O1321375   2.946   4.304   6.275  0.3738  0.4074 -0.8706
  186SLPC   O1421376   3.182   4.307   6.185  0.1318  0.1949  0.2159
  186SLPC   O1221377   3.076   4.521   6.253 -0.0195 -0.0004  0.1824
  186SLPC   O1121378   3.121   4.355   6.430 -0.7683  0.5602  0.1446
  186SLPC    C121379   3.237   4.426   6.478  0.0734  0.3431 -0.1757
  186SLPC    HA21380   3.325   4.382   6.426 -0.4665  1.4281 -2.0320
  186SLPC    HB21381   3.227   4.535   6.463  0.3970  0.9153  3.3324
  186SLPC    C221382   3.248   4.417   6.633 -0.6633 -0.7682 -0.2359
  186SLPC    HS21383   3.291   4.516   6.663 -1.5316 -0.1491 -1.0092
  186SLPC   O2121384   3.329   4.308   6.664  0.4956  0.1611 -0.4647
  186SLPC   C2121385   3.379   4.291   6.780 -0.1905 -0.1200 -0.1583
  186SLPC   O2221386   3.375   4.373   6.874  0.6256  0.8335  0.4160
  186SLPC   C2221387   3.467   4.164   6.777  0.0752 -0.2174 -0.1288
  186SLPC   H2R21388   3.424   4.088   6.708 -1.2160  1.6540 -1.4092
  186SLPC   H2S21389   3.566   4.197   6.739  0.5243 -0.1698  1.0480
  186SLPC    C321390   3.106   4.411   6.702  0.2579 -0.6008  0.7177
  186SLPC    HX21391   3.069   4.306   6.697  1.6505 -1.1069  0.8918
  186SLPC    HY21392   3.042   4.474   6.636  1.0555  0.4103  0.8939
  186SLPC   O3121393   3.109   4.464   6.833  0.0807 -0.4664 -1.0781
  186SLPC   C3121394   3.082   4.379   6.932 -0.5617 -0.1293  0.4827
  186SLPC   O3221395   3.034   4.268   6.926  0.3574  0.1672 -0.3202
  186SLPC   C3221396   3.102   4.449   7.067 -0.7392 -0.0507 -0.4146
  186SLPC   H2X21397   3.009   4.499   7.102 -0.0994  0.3939  0.6594
  186SLPC   H2Y21398   3.181   4.524   7.046  0.8613 -1.4381  0.5507
  186SLPC   C2321399   3.492   4.100   6.913  0.1672  0.5544 -0.4817
  186SLPC   H3R21400   3.521   3.993   6.900 -0.3146  0.5208 -1.2968
  186SLPC   H3S21401   3.393   4.091   6.963  0.0288  1.0256 -0.6746
  186SLPC   C2421402   3.605   4.162   7.005 -0.5666 -0.1209  0.3086
  186SLPC   H4R21403   3.565   4.262   7.033  0.9472  0.2554  1.2147
  186SLPC   H4S21404   3.697   4.185   6.947  0.1815 -0.4836  1.3397
  186SLPC   C2521405   3.632   4.081   7.135 -0.2292  0.4885 -0.9414
  186SLPC   H5R21406   3.678   3.981   7.116  0.8493  0.8353 -0.2019
  186SLPC   H5S21407   3.532   4.056   7.176  1.3223 -2.6698  1.1233
  186SLPC   C2621408   3.732   4.149   7.231 -0.1317  0.4607  0.4886
  186SLPC   H6R21409   3.692   4.242   7.278 -0.0550  0.7665 -0.0433
  186SLPC   H6S21410   3.828   4.162   7.176  0.9888 -1.2294  1.9802
  186SLPC   C2721411   3.770   4.070   7.359  0.4039  0.7448 -0.5635
  186SLPC   H7R21412   3.798   3.965   7.334 -1.3113 -0.4692  2.4097
  186SLPC   H7S21413   3.677   4.065   7.420  0.0844  0.0701 -1.0915
  186SLPC   C2821414   3.874   4.132   7.453 -0.2334  0.1040 -0.5029
  186SLPC   H8R21415   3.855   4.083   7.551 -0.1800  0.7324 -0.1758
  186SLPC   H8S21416   3.851   4.240   7.443  0.6552  0.4824  1.2408
  186SLPC   C2921417   4.014   4.129   7.414 -0.0175  0.4327 -0.4288
  186SLPC   H9R21418   4.041   4.157   7.311  1.9360  0.8659  0.1725
  186SLPC  C21021419   4.120   4.099   7.493 -0.5049  0.2341 -0.1945
  186SLPC  H10R21420   4.222   4.083   7.456 -0.0896 -0.2565  1.1138
  186SLPC  C21121421   4.096   4.067   7.642  0.1647  0.4049  0.1627
  186SLPC  H11R21422   4.018   3.988   7.645 -0.2723  0.8586  0.8217
  186SLPC  H11S21423   4.067   4.161   7.694 -0.0762 -0.1733  1.0865
  186SLPC  C21221424   4.217   4.002   7.710  0.2839 -0.2817 -0.1101
  186SLPC  H12R21425   4.222   3.893   7.697 -2.2078 -0.5932  1.4176
  186SLPC  C21321426   4.309   4.056   7.792  0.0697  0.1169 -0.2516
  186SLPC  H13R21427   4.393   3.993   7.826  1.1563  2.2923  1.2330
  186SLPC  C21421428   4.301   4.197   7.847  0.5596  0.2866  0.6161
  186SLPC  H14R21429   4.224   4.253   7.789  1.4825  1.5456  0.5711
  186SLPC  H14S21430   4.398   4.251   7.835 -0.2228  1.1447 -2.4716
  186SLPC  C21521431   4.261   4.197   7.995 -0.7133 -0.0033  0.4833
  186SLPC  H15R21432   4.166   4.143   8.012 -2.0811  2.8666  2.4652
  186SLPC  H15S21433   4.254   4.300   8.036  1.0803  0.9210 -1.4607
  186SLPC  C21621434   4.376   4.130   8.080  0.9895  0.9907  0.3324
  186SLPC  H16R21435   4.473   4.178   8.056  3.1129 -2.4974  1.5629
  186SLPC  H16S21436   4.397   4.025   8.052  0.3606  1.7183 -3.0713
  186SLPC  C21721437   4.349   4.143   8.230  0.8811  0.1983 -0.1333
  186SLPC  H17R21438   4.337   4.251   8.254 -0.5490  0.0509 -0.1106
  186SLPC  H17S21439   4.436   4.104   8.286 -0.9174 -2.2594  1.0672
  186SLPC  C21821440   4.240   4.056   8.291 -0.1287  0.2867  0.7487
  186SLPC  H18R21441   4.138   4.073   8.250  0.1884  0.2292 -0.0649
  186SLPC  H18S21442   4.235   4.071   8.401 -2.2221  0.0087  0.7222
  186SLPC  H18T21443   4.259   3.949   8.272  1.4000  0.7570 -0.5040
  186SLPC   C3321444   3.158   4.355   7.179  0.1012  0.4908 -1.2494
  186SLPC   H3X21445   3.249   4.299   7.149  0.9182  1.8884 -1.4279
  186SLPC   H3Y21446   3.080   4.276   7.189  1.3799 -0.8026 -1.4149
  186SLPC   C3421447   3.174   4.432   7.307  0.3229  0.4868  0.8209
  186SLPC   H4X21448   3.079   4.486   7.327 -1.5648 -2.0195 -0.9959
  186SLPC   H4Y21449   3.248   4.513   7.285  1.9605 -1.2328 -0.1853
  186SLPC   C3521450   3.225   4.368   7.440  0.4034  1.1471 -0.1224
  186SLPC   H5X21451   3.234   4.436   7.527  0.5259 -0.5692  1.2181
  186SLPC   H5Y21452   3.325   4.328   7.412  0.0106  1.2868 -1.7757
  186SLPC   C3621453   3.137   4.262   7.493 -0.3428  0.5505 -0.4532
  186SLPC   H6X21454   3.122   4.183   7.416 -0.5344  1.7454 -1.6696
  186SLPC   H6Y21455   3.038   4.310   7.511 -0.1063  0.5547  0.8433
  186SLPC   C3721456   3.184   4.185   7.616 -0.2576 -0.2822 -0.1484
  186SLPC   H7X21457   3.251   4.254   7.672  0.4728 -1.5836  0.5996
  186SLPC   H7Y21458   3.246   4.098   7.584 -1.7458 -0.9979 -1.0987
  186SLPC   C3821459   3.072   4.133   7.702  0.0042 -0.2629 -0.0938
  186SLPC   H8X21460   3.011   4.060   7.644 -0.7013 -0.8555  1.3728
  186SLPC   H8Y21461   3.000   4.215   7.723  0.6598  0.2477  0.1750
  186SLPC   C3921462   3.112   4.059   7.830 -0.0417  0.7429 -0.3312
  186SLPC   H9X21463   3.162   3.964   7.802 -2.2540 -1.1420  1.8110
  186SLPC   H9Y21464   3.016   4.023   7.875  0.9459 -0.9182  0.5082
  186SLPC  C31021465   3.196   4.138   7.930  0.3077 -0.3041 -0.0093
  186SLPC  H10X21466   3.142   4.234   7.948  1.8228  1.2485 -3.3694
  186SLPC  H10Y21467   3.288   4.159   7.872  1.0889 -1.2209  0.8625
  186SLPC  C31121468   3.227   4.065   8.061 -0.2713 -0.3083 -0.5706
  186SLPC  H11X21469   3.283   3.974   8.031 -0.2330  0.0127 -1.4987
  186SLPC  H11Y21470   3.132   4.035   8.109 -1.2299  0.1509 -2.1466
  186SLPC  C31221471   3.308   4.155   8.154  0.3195  0.2753 -0.0651
  186SLPC  H12X21472   3.249   4.248   8.164 -0.1275  0.1410 -1.3446
  186SLPC  H12Y21473   3.400   4.180   8.098  2.5205 -4.3558  1.1814
  186SLPC  C31321474   3.353   4.089   8.284  0.7699  0.3224  0.0247
  186SLPC  H13X21475   3.457   4.122   8.304  0.8205  0.9310 -1.2106
  186SLPC  H13Y21476   3.346   3.978   8.276 -0.3090  0.3839 -0.0222
  186SLPC  C31421477   3.254   4.124   8.401 -0.1429 -0.1166  0.1563
  186SLPC  H14X21478   3.152   4.084   8.382 -0.1216 -0.1993  0.2196
  186SLPC  H14Y21479   3.253   4.235   8.408 -1.0247 -0.1589  0.9249
  186SLPC  C31521480   3.288   4.050   8.532 -0.1971  0.6680  0.8451
  186SLPC  H15X21481   3.390   4.080   8.562  0.3027  0.3111 -0.4714
  186SLPC  H15Y21482   3.285   3.940   8.519  1.3913  0.8578 -1.3546
  186SLPC  C31621483   3.200   4.088   8.650 -0.6476 -0.4771  0.2169
  186SLPC  H16X21484   3.107   4.103   8.592 -1.7223 -0.4914  1.8895
  186SLPC  H16Y21485   3.228   4.184   8.698 -2.7569 -0.0594  0.6527
  186SLPC  C31721486   3.196   3.980   8.758  0.4107 -0.0428  0.2021
  186SLPC  H17X21487   3.267   3.895   8.744  0.1222 -0.1512 -0.6017
  186SLPC  H17Y21488   3.102   3.922   8.746  0.9737 -0.7582 -0.7148
  186SLPC  C31821489   3.224   4.030   8.901 -0.2413  0.4286  0.7368
  186SLPC  H18X21490   3.222   3.948   8.976 -0.3252 -0.7620 -0.5461
  186SLPC  H18Y21491   3.147   4.107   8.925 -0.0233  0.6594  0.7029
  186SLPC  H18Z21492   3.324   4.077   8.908 -0.6051  1.5533 -1.0598
  187SLPC     N21493   3.789   0.900   6.161  0.7929 -0.1431  0.4638
  187SLPC   C1321494   3.838   0.801   6.061 -0.0572 -0.6823  0.2105
  187SLPC  H13A21495   3.763   0.730   6.030 -0.3093 -0.9970  1.5150
  187SLPC  H13B21496   3.873   0.844   5.968 -2.1117 -0.9342 -0.7021
  187SLPC  H13C21497   3.919   0.749   6.110  0.3791 -0.5074 -0.3115
  187SLPC   C1421498   3.678   0.972   6.082 -0.4602 -0.4202 -0.3762
  187SLPC  H14A21499   3.608   0.903   6.039  1.6411 -2.1069 -1.1939
  187SLPC  H14B21500   3.623   1.031   6.154  2.6232  1.8486  0.2233
  187SLPC  H14C21501   3.716   1.037   6.005 -0.8135 -0.0177 -0.2159
  187SLPC   C1521502   3.893   0.998   6.205  0.3015  0.6109 -0.5006
  187SLPC  H15A21503   3.983   0.950   6.242 -0.3119  0.8364  1.3099
  187SLPC  H15B21504   3.921   1.067   6.126  1.2275  0.6503 -0.1443
  187SLPC  H15C21505   3.860   1.053   6.291 -2.0280  1.2735 -1.7722
  187SLPC   C1221506   3.729   0.819   6.278  0.2855 -0.1975 -0.2087
  187SLPC  H12A21507   3.798   0.743   6.312  1.6711  0.4810 -1.4397
  187SLPC  H12B21508   3.637   0.771   6.250 -0.1589  1.4389 -1.6572
  187SLPC   C1121509   3.680   0.908   6.400  0.3058 -0.1273 -0.7656
  187SLPC  H11A21510   3.776   0.937   6.447  1.5138 -3.0098 -1.3725
  187SLPC  H11B21511   3.619   0.843   6.466 -0.4840 -0.2477 -1.6119
  187SLPC     P21512   3.631   1.165   6.434 -0.3155  0.4518 -0.4489
  187SLPC   O1321513   3.778   1.193   6.444 -0.3277 -0.0795 -0.1616
  187SLPC   O1421514   3.555   1.275   6.373  0.0532 -0.5234 -0.5662
  187SLPC   O1221515   3.606   1.031   6.360  0.1642  0.0182 -0.7544
  187SLPC   O1121516   3.581   1.154   6.578  0.2358  0.5350 -0.0035
  187SLPC    C121517   3.449   1.114   6.623 -0.0271 -0.6580 -0.0702
  187SLPC    HA21518   3.390   1.206   6.641 -1.0274 -1.1718 -0.6609
  187SLPC    HB21519   3.404   1.055   6.540  0.1035 -1.1040  0.1733
  187SLPC    C221520   3.447   1.023   6.751  0.8240 -0.6180 -0.2624
  187SLPC    HS21521   3.343   0.988   6.767  1.0741 -1.9140 -1.3948
  187SLPC   O2121522   3.493   1.101   6.863 -0.2911 -0.1012 -0.3424
  187SLPC   C2121523   3.428   1.198   6.900  0.3462  0.2215  0.2290
  187SLPC   O2221524   3.318   1.239   6.869 -0.4854 -0.1837 -0.2165
  187SLPC   C2221525   3.513   1.270   7.006 -0.0966 -0.5400 -0.3642
  187SLPC   H2R21526   3.614   1.226   7.024  1.8456  4.0294  0.6803
  187SLPC   H2S21527   3.533   1.372   6.968  1.6697 -0.4259  0.8106
  187SLPC    C321528   3.540   0.902   6.715  0.1591  0.8097  0.0625
  187SLPC    HX21529   3.638   0.946   6.687 -0.8103  2.2383 -1.1837
  187SLPC    HY21530   3.494   0.848   6.630 -1.0530  1.5664  0.2237
  187SLPC   O3121531   3.551   0.823   6.825  0.5024  0.4441 -0.5115
  187SLPC   C3121532   3.625   0.713   6.813 -0.4901  0.5802 -0.3835
  187SLPC   O3221533   3.664   0.668   6.703  0.2919 -0.0446 -0.0842
  187SLPC   C3221534   3.667   0.665   6.953  0.3695  0.5562 -0.2561
  187SLPC   H2X21535   3.579   0.616   6.999  0.0066  1.9871  0.5702
  187SLPC   H2Y21536   3.707   0.751   7.010 -1.9346 -0.3460  2.8294
  187SLPC   C2321537   3.431   1.282   7.137 -0.7544 -0.3695 -0.0537
  187SLPC   H3R21538   3.391   1.181   7.160 -0.4813 -0.4466  0.0881
  187SLPC   H3S21539   3.348   1.356   7.134  0.5444  1.1290  0.2678
  187SLPC   C2421540   3.537   1.318   7.247 -0.4106 -0.1291 -0.0166
  187SLPC   H4R21541   3.582   1.418   7.234  0.4205 -0.3873  0.8399
  187SLPC   H4S21542   3.627   1.253   7.246  0.4966  1.0931  1.6191
  187SLPC   C2521543   3.478   1.325   7.386 -0.0323 -0.1075  0.4252
  187SLPC   H5R21544   3.429   1.226   7.398  0.9518 -0.7342 -0.6968
  187SLPC   H5S21545   3.399   1.403   7.391  0.7901  0.8339 -1.1333
  187SLPC   C2621546   3.586   1.360   7.492  1.0333 -0.1942  0.2157
  187SLPC   H6R21547   3.615   1.467   7.475 -1.7368  0.7195  1.0919
  187SLPC   H6S21548   3.676   1.296   7.476 -0.7204 -3.0786  1.5861
  187SLPC   C2721549   3.538   1.333   7.637 -0.3388  0.4869  0.4233
  187SLPC   H7R21550   3.509   1.226   7.633  1.5190  0.0276 -1.2533
  187SLPC   H7S21551   3.436   1.377   7.651 -1.7968 -1.4905 -3.2560
  187SLPC   C2821552   3.625   1.364   7.749  0.1328  0.4553 -0.0530
  187SLPC   H8R21553   3.649   1.473   7.744  2.4304  0.0158  0.7681
  187SLPC   H8S21554   3.712   1.302   7.720 -2.0064 -2.0878 -1.2480
  187SLPC   C2921555   3.581   1.311   7.878  0.1692 -0.2168 -0.7942
  187SLPC   H9R21556   3.541   1.209   7.874 -0.4092 -0.0813  0.9112
  187SLPC  C21021557   3.573   1.389   7.984  0.2935  0.5250  0.4037
  187SLPC  H10R21558   3.528   1.341   8.072  1.3811  1.0858  1.2862
  187SLPC  C21121559   3.619   1.534   7.988  1.1795  0.2033 -0.4297
  187SLPC  H11R21560   3.575   1.604   7.913 -0.7443 -1.3327 -0.7880
  187SLPC  H11S21561   3.730   1.536   7.980  1.1889  0.5916 -0.2382
  187SLPC  C21221562   3.586   1.589   8.127 -0.2655  0.2795  0.2739
  187SLPC  H12R21563   3.517   1.674   8.138  0.7253  0.9347  1.6317
  187SLPC  C21321564   3.631   1.543   8.244  0.0818  0.3420  0.5044
  187SLPC  H13R21565   3.594   1.602   8.329  0.2247  0.1726  0.6854
  187SLPC  C21421566   3.735   1.431   8.267 -0.4206  0.1879  0.5282
  187SLPC  H14R21567   3.822   1.478   8.318  0.1862 -0.9826  0.5898
  187SLPC  H14S21568   3.773   1.386   8.173 -0.2703  2.2766 -0.4309
  187SLPC  C21521569   3.674   1.315   8.357 -0.6376  0.1940  0.6488
  187SLPC  H15R21570   3.761   1.253   8.389  0.4115  0.9982 -0.5625
  187SLPC  H15S21571   3.614   1.244   8.296 -2.4599 -0.1173  2.7524
  187SLPC  C21621572   3.605   1.360   8.485  0.0540  0.0350 -1.0208
  187SLPC  H16R21573   3.505   1.404   8.462  0.0447  0.0693 -0.9125
  187SLPC  H16S21574   3.664   1.435   8.542 -0.2791 -0.7282  0.3509
  187SLPC  C21721575   3.587   1.238   8.582  0.0656 -0.3284  0.2684
  187SLPC  H17R21576   3.535   1.157   8.527 -1.6547 -0.0030  1.3718
  187SLPC  H17S21577   3.521   1.276   8.663 -0.3432 -0.2875 -0.0827
  187SLPC  C21821578   3.712   1.185   8.644  0.9042  1.2397 -0.4276
  187SLPC  H18R21579   3.746   1.123   8.558  0.1054 -0.0052  0.1371
  187SLPC  H18S21580   3.694   1.111   8.725 -0.8450  2.2808  0.1567
  187SLPC  H18T21581   3.789   1.257   8.677  1.9405  0.2591 -0.6685
  187SLPC   C3321582   3.776   0.557   6.936  0.1995 -0.5909 -0.1955
  187SLPC   H3X21583   3.865   0.611   6.896  0.3054 -2.0626 -2.0121
  187SLPC   H3Y21584   3.742   0.492   6.853 -0.8761  1.0893 -1.1024
  187SLPC   C3421585   3.792   0.459   7.048  0.8207 -0.4233  0.3574
  187SLPC   H4X21586   3.877   0.392   7.022  2.7022  1.8949  0.4420
  187SLPC   H4Y21587   3.694   0.407   7.052 -0.3546  1.6802 -0.5808
  187SLPC   C3521588   3.827   0.522   7.180  0.0613  0.0370 -0.3260
  187SLPC   H5X21589   3.831   0.443   7.258 -1.4193 -2.1070 -2.3555
  187SLPC   H5Y21590   3.752   0.592   7.224  0.0775 -0.2920  0.2268
  187SLPC   C3621591   3.970   0.594   7.179 -0.1452 -0.8196  0.5230
  187SLPC   H6X21592   3.947   0.683   7.117  2.6204 -0.7666 -0.5305
  187SLPC   H6Y21593   4.039   0.531   7.119 -0.1525  1.3970 -1.9212
  187SLPC   C3721594   4.028   0.637   7.316  0.0363  0.2307  0.0752
  187SLPC   H7X21595   4.048   0.545   7.376  1.1718 -0.1086 -0.8207
  187SLPC   H7Y21596   4.123   0.691   7.300  1.6383 -2.7034 -0.6473
  187SLPC   C3821597   3.929   0.713   7.400 -0.2155 -0.4290  0.0715
  187SLPC   H8X21598   3.842   0.644   7.411  1.1567 -2.0610  0.9998
  187SLPC   H8Y21599   3.905   0.802   7.338 -0.6899 -0.6944 -0.1275
  187SLPC   C3921600   3.985   0.749   7.536 -0.9817 -0.0859 -0.0408
  187SLPC   H9X21601   3.897   0.794   7.586 -1.1498  2.3399 -2.3923
  187SLPC   H9Y21602   4.061   0.828   7.521 -0.3274 -0.8645 -0.8995
  187SLPC  C31021603   4.045   0.637   7.618  0.9294  0.7595 -0.0199
  187SLPC  H10X21604   4.110   0.674   7.700  0.3069  0.9913  0.3769
  187SLPC  H10Y21605   4.116   0.575   7.559  0.3078 -1.2632  1.2817
  187SLPC  C31121606   3.935   0.542   7.675 -0.5489 -0.4141  0.5244
  187SLPC  H11X21607   3.869   0.506   7.594  2.7445 -0.2827 -2.2959
  187SLPC  H11Y21608   3.870   0.594   7.750 -0.1001 -1.2483  1.5017
  187SLPC  C31221609   3.998   0.421   7.748 -0.2739  0.5808 -0.5119
  187SLPC  H12X21610   4.073   0.375   7.680 -0.5404 -3.6682  1.8936
  187SLPC  H12Y21611   3.929   0.336   7.760  0.6256  0.0223  0.8551
  187SLPC  C31321612   4.065   0.457   7.879  0.2892  0.2936 -0.8795
  187SLPC  H13X21613   3.983   0.484   7.950  2.1416  2.6591  0.4466
  187SLPC  H13Y21614   4.128   0.548   7.868  0.4138  0.3751  0.4169
  187SLPC  C31421615   4.147   0.342   7.931 -1.0351  0.1817  0.2475
  187SLPC  H14X21616   4.228   0.312   7.861  1.0202 -1.0840  3.0758
  187SLPC  H14Y21617   4.087   0.252   7.954 -0.2735 -1.0703 -2.5055
  187SLPC  C31521618   4.231   0.368   8.062  0.4685 -0.1508  0.4406
  187SLPC  H15X21619   4.160   0.403   8.139 -0.9461 -1.3546 -0.2868
  187SLPC  H15Y21620   4.299   0.454   8.049  0.4121  0.2384  2.5433
  187SLPC  C31621621   4.311   0.250   8.118 -0.6120  0.0156  0.1277
  187SLPC  H16X21622   4.347   0.277   8.220 -2.6230 -0.4180  0.9817
  187SLPC  H16Y21623   4.396   0.231   8.051 -1.3175 -0.5921 -0.6046
  187SLPC  C31721624   4.223   0.116   8.147 -0.3274  0.0756  0.3622
  187SLPC  H17X21625   4.169   0.097   8.051 -1.0913 -1.3444  1.0499
  187SLPC  H17Y21626   4.151   0.140   8.227  0.2449 -1.9174  1.5200
  187SLPC  C31821627   4.306  -0.008   8.181 -0.2880 -0.1282  0.5562
  187SLPC  H18X21628   4.247  -0.101   8.196  0.7801 -1.1348 -1.2688
  187SLPC  H18Y21629   4.369   0.007   8.271 -0.7297  0.2594  0.7993
  187SLPC  H18Z21630   4.377  -0.027   8.097 -1.2303  2.0291 -0.7496
  188SLPC     N21631   4.713   2.690   6.374  0.3009 -0.2555 -0.4138
  188SLPC   C1321632   4.642   2.659   6.244  0.0314  0.3851  0.2478
  188SLPC  H13A21633   4.535   2.660   6.255 -0.0021 -1.8061  0.2956
  188SLPC  H13B21634   4.684   2.721   6.165  0.8170 -1.2537 -0.6570
  188SLPC  H13C21635   4.681   2.562   6.218 -0.9599  0.0136  0.1498
  188SLPC   C1421636   4.862   2.694   6.356  0.3682  0.2317  0.9139
  188SLPC  H14A21637   4.894   2.694   6.460  2.2498 -0.4345  0.3484
  188SLPC  H14B21638   4.899   2.605   6.307 -0.3483  0.5238 -0.1606
  188SLPC  H14C21639   4.898   2.786   6.312 -0.6654  1.6727  2.9645
  188SLPC   C1521640   4.681   2.576   6.473  0.7015  0.7623  0.2895
  188SLPC  H15A21641   4.712   2.596   6.574  2.5496 -1.1418  0.1424
  188SLPC  H15B21642   4.574   2.558   6.476  0.1936  3.5616  0.7948
  188SLPC  H15C21643   4.726   2.483   6.443 -3.1489 -0.0133 -3.7520
  188SLPC   C1221644   4.652   2.818   6.432  0.3806  0.0642 -0.0022
  188SLPC  H12A21645   4.664   2.831   6.539 -1.0750  0.3798  0.1268
  188SLPC  H12B21646   4.545   2.822   6.420  0.5691  0.9235 -1.5892
  188SLPC   C1121647   4.689   2.956   6.373  0.7428  0.3104  0.0659
  188SLPC  H11A21648   4.622   3.038   6.407  2.4159  1.3704  0.8674
  188SLPC  H11B21649   4.675   2.935   6.265  0.0172  1.5587 -0.0859
  188SLPC     P21650   4.881   3.013   6.549  0.3707  0.2991  0.4602
  188SLPC   O1321651   4.953   2.886   6.586 -0.2812 -0.0664  0.0234
  188SLPC   O1421652   4.963   3.136   6.569 -0.4230 -0.2082 -0.2641
  188SLPC   O1221653   4.823   3.000   6.403  0.7989 -0.6415  0.4156
  188SLPC   O1121654   4.760   3.026   6.646  0.0426 -0.0495  0.0297
  188SLPC    C121655   4.664   3.136   6.651  0.3500  0.2479 -0.3173
  188SLPC    HA21656   4.646   3.194   6.558  0.4116  0.8181  0.0244
  188SLPC    HB21657   4.569   3.081   6.667  1.1925 -1.6136 -1.4265
  188SLPC    C221658   4.705   3.235   6.764  0.3310 -0.2996  0.4856
  188SLPC    HS21659   4.805   3.275   6.737 -0.0926 -0.2131 -1.0065
  188SLPC   O2121660   4.696   3.161   6.890  0.3654 -0.2163  0.5710
  188SLPC   C2121661   4.767   3.219   6.991 -0.2352  0.1611  0.0419
  188SLPC   O2221662   4.856   3.302   6.975 -0.7898 -0.4482 -0.2950
  188SLPC   C2221663   4.716   3.159   7.127 -0.0820  0.3554 -0.0575
  188SLPC   H2R21664   4.605   3.166   7.130 -0.1999 -0.6642 -1.6175
  188SLPC   H2S21665   4.742   3.051   7.124 -1.9641 -0.0468 -3.7814
  188SLPC    C321666   4.601   3.351   6.754 -0.3011 -0.0599 -0.3545
  188SLPC    HX21667   4.505   3.295   6.751  0.2812 -1.0381 -0.8780
  188SLPC    HY21668   4.618   3.400   6.656 -2.0089 -0.4168 -0.8508
  188SLPC   O3121669   4.605   3.441   6.872 -0.4511 -0.0036  0.6796
  188SLPC   C3121670   4.627   3.569   6.838  0.7783  0.8272 -0.7880
  188SLPC   O3221671   4.671   3.610   6.736  0.0299  0.4404 -0.1200
  188SLPC   C3221672   4.601   3.656   6.962 -0.7022 -0.3096 -0.0273
  188SLPC   H2X21673   4.496   3.692   6.968 -0.5425 -0.0909  1.5624
  188SLPC   H2Y21674   4.657   3.752   6.952 -1.5609  0.2066  0.0517
  188SLPC   C2321675   4.784   3.227   7.246 -0.3527  0.4763 -0.4770
  188SLPC   H3R21676   4.771   3.337   7.243  3.2172  0.9832  0.4458
  188SLPC   H3S21677   4.891   3.195   7.240 -0.3899  0.2857 -0.1192
  188SLPC   C2421678   4.752   3.172   7.387  0.9302  0.4552 -0.5211
  188SLPC   H4R21679   4.751   3.061   7.394 -2.3921  0.5647  1.9546
  188SLPC   H4S21680   4.649   3.205   7.412  1.6215  1.4597  1.1279
  188SLPC   C2521681   4.847   3.228   7.501  0.5013  0.9727 -0.5947
  188SLPC   H5R21682   4.854   3.339   7.501 -0.6466  1.0461 -1.3644
  188SLPC   H5S21683   4.948   3.186   7.482 -0.3412 -1.0333 -0.7371
  188SLPC   C2621684   4.796   3.184   7.634  0.2109 -0.0420 -0.2206
  188SLPC   H6R21685   4.796   3.073   7.636 -1.0205 -0.0603 -0.6719
  188SLPC   H6S21686   4.692   3.221   7.649 -0.0643 -0.8838 -0.0713
  188SLPC   C2721687   4.869   3.235   7.760  0.3037  0.7856 -0.5403
  188SLPC   H7R21688   4.883   3.344   7.746  2.4345  0.5056 -0.6766
  188SLPC   H7S21689   4.962   3.174   7.765 -0.9008 -1.1900 -1.4269
  188SLPC   C2821690   4.801   3.213   7.902 -0.5555  0.1978  0.5553
  188SLPC   H8R21691   4.703   3.266   7.894  0.5866  2.8474  3.3928
  188SLPC   H8S21692   4.867   3.263   7.976  2.3834  0.3424 -2.0825
  188SLPC   C2921693   4.784   3.068   7.936  0.4552  0.1557 -0.2743
  188SLPC   H9R21694   4.715   3.018   7.867  0.6955 -1.3389  0.5471
  188SLPC  C21021695   4.837   2.996   8.042 -0.7714 -0.1627 -0.4663
  188SLPC  H10R21696   4.826   2.887   8.055  0.6992 -0.3790 -0.8522
  188SLPC  C21121697   4.931   3.059   8.146  0.0213 -0.4779 -0.4888
  188SLPC  H11R21698   4.937   3.170   8.133  0.1597 -0.3220  0.8992
  188SLPC  H11S21699   5.035   3.022   8.135  0.0071 -0.9034  0.7907
  188SLPC  C21221700   4.893   3.028   8.290  0.5995  0.0848  0.4309
  188SLPC  H12R21701   4.846   3.114   8.340 -0.8059  0.6921 -1.8520
  188SLPC  C21321702   4.915   2.911   8.360  0.8095 -0.1539 -0.0101
  188SLPC  H13R21703   4.853   2.901   8.451  0.9425  0.0414  0.1032
  188SLPC  C21421704   4.979   2.786   8.312 -0.2737  0.3668 -0.0568
  188SLPC  H14R21705   5.039   2.795   8.219 -1.4816  1.0094 -0.8038
  188SLPC  H14S21706   4.902   2.711   8.280 -1.3033  1.1535  0.5498
  188SLPC  C21521707   5.068   2.699   8.403  0.1517  0.1723  0.0593
  188SLPC  H15R21708   5.011   2.686   8.498 -1.3266  0.0329 -0.8370
  188SLPC  H15S21709   5.159   2.756   8.435 -1.3419  2.4111  0.4247
  188SLPC  C21621710   5.091   2.566   8.340  0.3745  0.7126  0.1991
  188SLPC  H16R21711   5.121   2.582   8.234  0.2939 -0.1188  0.0472
  188SLPC  H16S21712   4.997   2.506   8.344  0.2335  1.0277  1.9619
  188SLPC  C21721713   5.189   2.475   8.416  0.6492  0.3910  0.4691
  188SLPC  H17R21714   5.183   2.375   8.366  1.8503  0.6556 -0.2063
  188SLPC  H17S21715   5.152   2.466   8.520  0.1413 -1.9201  0.1239
  188SLPC  C21821716   5.335   2.528   8.404  0.3913  1.2610  0.0961
  188SLPC  H18R21717   5.410   2.448   8.419 -0.1367  0.9266  1.0373
  188SLPC  H18S21718   5.358   2.604   8.482  0.1401  0.4856  0.9434
  188SLPC  H18T21719   5.342   2.574   8.303  0.2078  1.7018  0.2812
  188SLPC   C3321720   4.652   3.597   7.089  0.4122  0.5052 -0.1338
  188SLPC   H3X21721   4.761   3.613   7.104  0.5837 -3.6704  4.3515
  188SLPC   H3Y21722   4.647   3.486   7.090  0.5883  0.4928 -0.7888
  188SLPC   C3421723   4.577   3.648   7.213  0.1840  0.5247 -0.0728
  188SLPC   H4X21724   4.471   3.615   7.209  0.7632 -1.3589 -0.2203
  188SLPC   H4Y21725   4.580   3.759   7.214 -1.5489  0.6993 -4.7797
  188SLPC   C3521726   4.630   3.591   7.348 -0.6687 -0.4505  0.5813
  188SLPC   H5X21727   4.734   3.631   7.352  0.1014 -2.2458 -0.8477
  188SLPC   H5Y21728   4.645   3.481   7.343 -0.8757 -0.5243  1.4907
  188SLPC   C3621729   4.548   3.631   7.472  0.3923  1.1731 -0.5320
  188SLPC   H6X21730   4.449   3.582   7.462  0.6564  0.7773 -1.1608
  188SLPC   H6Y21731   4.528   3.740   7.463  1.3467  1.3119 -0.9743
  188SLPC   C3721732   4.617   3.597   7.613 -0.0054 -0.7616 -0.1852
  188SLPC   H7X21733   4.707   3.661   7.623  0.1051  0.0255 -4.9424
  188SLPC   H7Y21734   4.657   3.493   7.611  2.2448  0.0027  2.1101
  188SLPC   C3821735   4.513   3.625   7.723  0.9448 -0.8864  0.0705
  188SLPC   H8X21736   4.430   3.553   7.712  0.1133  0.2365 -1.1198
  188SLPC   H8Y21737   4.486   3.730   7.700  2.1108 -0.1197  2.0927
  188SLPC   C3921738   4.584   3.623   7.859  0.1877 -0.1229  0.0593
  188SLPC   H9X21739   4.676   3.685   7.860 -1.5355  2.8016 -4.2001
  188SLPC   H9Y21740   4.614   3.516   7.861  1.6443  0.2542 -0.7098
  188SLPC  C31021741   4.494   3.656   7.984  0.4046  0.0314  0.5637
  188SLPC  H10X21742   4.399   3.602   8.001  0.2081 -0.1180 -0.9738
  188SLPC  H10Y21743   4.452   3.759   7.978  0.2032 -0.2088 -3.4104
  188SLPC  C31121744   4.582   3.657   8.110 -0.1734  0.7227  0.2663
  188SLPC  H11X21745   4.662   3.732   8.087  0.5390 -1.0926 -3.5790
  188SLPC  H11Y21746   4.631   3.559   8.127 -0.9720  0.2843  0.0240
  188SLPC  C31221747   4.515   3.713   8.245  0.2783 -0.0585 -0.6494
  188SLPC  H12X21748   4.443   3.637   8.283  1.4594 -1.0546 -0.3704
  188SLPC  H12Y21749   4.460   3.804   8.213 -1.6953 -1.1386 -0.4651
  188SLPC  C31321750   4.619   3.726   8.354 -0.0856 -0.1703 -0.3927
  188SLPC  H13X21751   4.718   3.760   8.315  0.2787  0.7329  1.3195
  188SLPC  H13Y21752   4.647   3.631   8.405  0.8881  0.0834 -0.4401
  188SLPC  C31421753   4.555   3.823   8.454  0.3898 -0.1355 -0.6645
  188SLPC  H14X21754   4.511   3.916   8.413 -0.5550  0.1146  0.8687
  188SLPC  H14Y21755   4.640   3.858   8.517 -0.3284  0.2410  0.1040
  188SLPC  C31521756   4.445   3.757   8.543 -0.7681 -0.6283  1.4112
  188SLPC  H15X21757   4.499   3.686   8.609  0.3605  1.1384  2.4062
  188SLPC  H15Y21758   4.385   3.683   8.487  0.4834 -1.0150  0.5588
  188SLPC  C31621759   4.366   3.851   8.633 -0.8619  0.2476 -0.0754
  188SLPC  H16X21760   4.298   3.917   8.574  1.4321  2.2354 -0.5860
  188SLPC  H16Y21761   4.445   3.913   8.679 -0.1513 -0.2044 -0.6697
  188SLPC  C31721762   4.285   3.785   8.747 -0.2001  0.1216 -0.2502
  188SLPC  H17X21763   4.337   3.697   8.789 -0.2331 -0.4638 -1.4096
  188SLPC  H17Y21764   4.188   3.742   8.712 -1.2570  1.2636  1.2078
  188SLPC  C31821765   4.262   3.884   8.858 -0.4027  0.1641  0.4680
  188SLPC  H18X21766   4.203   3.968   8.815 -0.2214 -0.2822 -0.6566
  188SLPC  H18Y21767   4.358   3.919   8.902  0.2745  0.0459 -0.9039
  188SLPC  H18Z21768   4.192   3.837   8.930  0.4211 -0.8208  0.6269
  189SLPC     N21769   0.662   5.436   6.179  0.0902 -0.0455  0.5448
  189SLPC   C1321770   0.539   5.462   6.258 -0.0789 -0.1307 -0.1536
  189SLPC  H13A21771   0.467   5.505   6.190  0.5735  1.6306  0.2514
  189SLPC  H13B21772   0.506   5.369   6.301  1.9818  0.8054  3.6585
  189SLPC  H13C21773   0.578   5.535   6.327  3.4899 -1.0044 -1.1184
  189SLPC   C1421774   0.779   5.414   6.283  1.3904 -0.2997  0.0180
  189SLPC  H14A21775   0.751   5.336   6.353 -0.5015  0.1614 -0.2134
  189SLPC  H14B21776   0.862   5.375   6.226  1.7952  0.4088  0.1204
  189SLPC  H14C21777   0.801   5.504   6.338  0.2714 -0.2426  0.3924
  189SLPC   C1521778   0.700   5.546   6.093 -0.0841 -1.2697  0.9464
  189SLPC  H15A21779   0.628   5.573   6.018  2.7055 -0.8254 -1.6348
  189SLPC  H15B21780   0.730   5.632   6.152 -0.3876  0.3592 -1.2280
  189SLPC  H15C21781   0.784   5.513   6.034  2.5936 -1.9565  4.8719
  189SLPC   C1221782   0.644   5.313   6.100  0.1140 -0.7322 -0.1735
  189SLPC  H12A21783   0.735   5.304   6.043  0.0313 -1.2013 -0.2366
  189SLPC  H12B21784   0.561   5.331   6.033 -0.5419  0.9440  1.0701
  189SLPC   C1121785   0.619   5.179   6.170  0.0663 -0.4061  0.0975
  189SLPC  H11A21786   0.701   5.155   6.241 -1.1109  0.7245  1.9079
  189SLPC  H11B21787   0.628   5.097   6.096  0.4204  0.7461 -1.1571
  189SLPC     P21788   0.373   5.081   6.204 -0.1133 -0.2255  0.0264
  189SLPC   O1321789   0.335   5.085   6.060  0.7284 -0.0320  0.4732
  189SLPC   O1421790   0.420   4.950   6.259  0.4647  0.0657 -0.0904
  189SLPC   O1221791   0.494   5.183   6.235 -0.2340  0.1891 -0.3759
  189SLPC   O1121792   0.259   5.128   6.297  0.4114 -0.1545 -0.3038
  189SLPC    C121793   0.287   5.197   6.426  0.9964 -0.2392  0.8341
  189SLPC    HA21794   0.396   5.212   6.442  0.7637  1.4001  0.9289
  189SLPC    HB21795   0.241   5.298   6.422 -0.1496 -0.8066 -1.2763
  189SLPC    C221796   0.226   5.115   6.539  0.5009  0.3779 -0.2704
  189SLPC    HS21797   0.161   5.179   6.603  1.0363  1.4344 -0.7697
  189SLPC   O2121798   0.325   5.045   6.609  0.2923 -0.1432 -0.1182
  189SLPC   C2121799   0.392   5.127   6.687 -0.1338 -0.4301  0.3955
  189SLPC   O2221800   0.388   5.249   6.693 -0.7960 -0.4826  0.5161
  189SLPC   C2221801   0.495   5.047   6.770  0.2701 -0.3473  0.4184
  189SLPC   H2R21802   0.520   4.952   6.718 -3.9958 -0.1304 -2.2961
  189SLPC   H2S21803   0.582   5.116   6.778 -1.4668  2.0874 -0.7920
  189SLPC    C321804   0.121   5.006   6.480  0.0307 -0.0741 -0.4098
  189SLPC    HX21805   0.179   4.937   6.414 -1.9959 -0.0093 -2.3189
  189SLPC    HY21806   0.054   5.065   6.415 -0.1607  0.4166  0.2271
  189SLPC   O3121807   0.042   4.942   6.580 -0.4508 -0.1824 -0.4620
  189SLPC   C3121808   0.106   4.848   6.650  0.8205  0.3647 -0.1221
  189SLPC   O3221809   0.214   4.799   6.629  0.2174 -0.1141  0.7214
  189SLPC   C3221810   0.007   4.798   6.754 -0.3123 -0.9146  0.3992
  189SLPC   H2X21811  -0.093   4.798   6.706 -0.7196  2.1987  1.1463
  189SLPC   H2Y21812   0.006   4.877   6.832 -2.4574 -1.5503  1.0651
  189SLPC   C2321813   0.455   5.023   6.914 -0.0766  0.2208 -0.6056
  189SLPC   H3R21814   0.445   5.118   6.970  0.1689  1.1721 -2.1281
  189SLPC   H3S21815   0.551   4.977   6.946  0.9113  1.4187 -1.7751
  189SLPC   C2421816   0.342   4.928   6.942  0.6267 -0.0240  0.5093
  189SLPC   H4R21817   0.368   4.827   6.904  3.0830  0.6764  0.2301
  189SLPC   H4S21818   0.252   4.951   6.882  0.9933 -0.1601 -0.0903
  189SLPC   C2521819   0.293   4.916   7.086 -0.0823  0.7899 -0.3489
  189SLPC   H5R21820   0.375   4.913   7.162 -1.9688  1.4386  1.7797
  189SLPC   H5S21821   0.236   4.822   7.103  1.4118  0.3120  2.3368
  189SLPC   C2621822   0.197   5.024   7.136  1.4229  0.1952  0.3471
  189SLPC   H6R21823   0.112   5.042   7.068 -0.8164 -1.2909  2.6551
  189SLPC   H6S21824   0.253   5.120   7.149  0.5461  1.0215 -1.7866
  189SLPC   C2721825   0.128   4.989   7.274 -0.2885 -0.1191  0.1713
  189SLPC   H7R21826   0.142   4.882   7.300  0.9019  0.2103  0.9686
  189SLPC   H7S21827   0.021   5.010   7.255 -0.7491 -0.2980  2.4438
  189SLPC   C2821828   0.169   5.083   7.385  0.2708 -0.4929  0.0172
  189SLPC   H8R21829   0.144   5.182   7.341 -0.7797  0.4738  2.7227
  189SLPC   H8S21830   0.278   5.069   7.398  0.9393  2.5351 -1.9235
  189SLPC   C2921831   0.093   5.056   7.508  1.0726 -0.6111  0.2557
  189SLPC   H9R21832  -0.009   5.014   7.507  1.0535 -0.5987  1.3023
  189SLPC  C21021833   0.134   5.086   7.632  0.3193  0.0612 -0.1644
  189SLPC  H10R21834   0.069   5.045   7.710 -0.0337  0.6478 -0.1528
  189SLPC  C21121835   0.263   5.146   7.673  0.0102 -0.5937  0.2104
  189SLPC  H11R21836   0.302   5.192   7.579 -1.4076  1.9070  0.7930
  189SLPC  H11S21837   0.332   5.060   7.688  1.6176  0.4784 -0.9025
  189SLPC  C21221838   0.265   5.241   7.801 -0.0645  0.1868  0.0376
  189SLPC  H12R21839   0.221   5.342   7.802  0.1733  0.2941 -0.2301
  189SLPC  C21321840   0.316   5.195   7.918 -0.0642  0.3584 -0.2256
  189SLPC  H13R21841   0.306   5.259   8.007  3.3708  0.7688 -0.0569
  189SLPC  C21421842   0.370   5.057   7.949  0.1371  0.0660 -0.7665
  189SLPC  H14R21843   0.450   5.028   7.878 -0.7899 -2.3502 -0.8750
  189SLPC  H14S21844   0.283   4.988   7.937 -0.5878  0.4869  1.6685
  189SLPC  C21521845   0.416   5.037   8.101  0.0900  0.9252  0.7801
  189SLPC  H15R21846   0.482   5.121   8.134  1.2455  0.2499  0.2077
  189SLPC  H15S21847   0.474   4.944   8.087 -0.9365  0.0270  2.3732
  189SLPC  C21621848   0.295   5.031   8.197 -0.8600  0.3178 -0.0817
  189SLPC  H16R21849   0.212   4.965   8.163 -0.6102 -0.3803  0.6667
  189SLPC  H16S21850   0.254   5.130   8.226  1.3494  1.4034 -0.5475
  189SLPC  C21721851   0.345   4.963   8.325  0.2466 -0.4746 -0.3040
  189SLPC  H17R21852   0.435   5.009   8.372 -1.2678  2.3453 -0.0108
  189SLPC  H17S21853   0.375   4.860   8.299  0.8601 -0.1974 -0.7046
  189SLPC  C21821854   0.233   4.950   8.426 -0.3459  0.3322 -0.1490
  189SLPC  H18R21855   0.265   4.886   8.511 -0.7664 -0.1437 -0.3493
  189SLPC  H18S21856   0.145   4.902   8.378 -1.5950  1.1625  1.2861
  189SLPC  H18T21857   0.193   5.050   8.455 -0.8917  0.8923 -2.6950
  189SLPC   C3321858   0.027   4.662   6.816 -0.0685 -0.3183  0.0117
  189SLPC   H3X21859   0.131   4.642   6.848  0.6545 -0.6598 -2.5013
  189SLPC   H3Y21860   0.007   4.583   6.741 -0.1376 -0.5129  0.2356
  189SLPC   C3421861  -0.062   4.637   6.942 -0.9109 -0.1075  0.2924
  189SLPC   H4X21862  -0.044   4.531   6.970 -0.2684 -0.2297 -0.5516
  189SLPC   H4Y21863  -0.169   4.649   6.915 -0.7715 -0.0453 -0.2301
  189SLPC   C3521864  -0.038   4.726   7.071 -0.1750  0.1493 -0.6974
  189SLPC   H5X21865  -0.065   4.832   7.049  1.3192  0.6580 -0.1249
  189SLPC   H5Y21866   0.067   4.713   7.103 -1.2329 -2.5427  1.8137
  189SLPC   C3621867  -0.131   4.672   7.182 -0.6247 -0.0960 -0.2893
  189SLPC   H6X21868  -0.105   4.565   7.202 -0.6704  0.0104  0.3421
  189SLPC   H6Y21869  -0.235   4.681   7.146 -0.8698  0.1539  0.4839
  189SLPC   C3721870  -0.110   4.744   7.317 -0.4851  1.3075  0.1640
  189SLPC   H7X21871  -0.129   4.853   7.305 -2.2388  0.8473 -1.6520
  189SLPC   H7Y21872  -0.006   4.729   7.351 -0.4116  0.8769 -0.2439
  189SLPC   C3821873  -0.195   4.681   7.432 -0.7825  0.2625  0.0505
  189SLPC   H8X21874  -0.146   4.584   7.454 -2.1198 -0.4011  0.0922
  189SLPC   H8Y21875  -0.300   4.659   7.403 -0.8302  1.0768 -0.4068
  189SLPC   C3921876  -0.179   4.765   7.557 -0.6854 -0.4175 -0.0185
  189SLPC   H9X21877  -0.216   4.870   7.557  0.9942  0.1881 -0.3011
  189SLPC   H9Y21878  -0.069   4.769   7.571 -0.7753  1.6934  0.3306
  189SLPC  C31021879  -0.234   4.690   7.683  0.0855 -0.0141  0.9642
  189SLPC  H10X21880  -0.227   4.580   7.666 -0.0727 -0.1655  1.8662
  189SLPC  H10Y21881  -0.341   4.711   7.701  0.0914  0.1323  0.8299
  189SLPC  C31121882  -0.153   4.716   7.814  0.1208  0.1720 -0.5372
  189SLPC  H11X21883  -0.135   4.825   7.825  0.2399  0.0268  0.9121
  189SLPC  H11Y21884  -0.057   4.661   7.804 -0.6330 -1.0458 -1.1632
  189SLPC  C31221885  -0.230   4.674   7.937  0.0374  0.0824 -0.5561
  189SLPC  H12X21886  -0.280   4.575   7.930  2.1077 -0.9364 -1.3111
  189SLPC  H12Y21887  -0.309   4.752   7.938 -0.1586 -0.1108 -0.9911
  189SLPC  C31321888  -0.156   4.688   8.076 -0.3903  0.2510  0.0713
  189SLPC  H13X21889  -0.094   4.780   8.070  0.1102 -0.1574 -1.0933
  189SLPC  H13Y21890  -0.093   4.598   8.092 -1.1037 -0.5732 -1.5818
  189SLPC  C31421891  -0.262   4.679   8.190  0.2899  0.8328  0.0488
  189SLPC  H14X21892  -0.320   4.585   8.181  1.5556 -0.0584  1.1285
  189SLPC  H14Y21893  -0.326   4.767   8.168 -0.4684 -0.3924 -2.8807
  189SLPC  C31521894  -0.197   4.692   8.333  0.4342 -0.5933  0.0985
  189SLPC  H15X21895  -0.271   4.733   8.405 -0.1832 -0.3570 -0.6617
  189SLPC  H15Y21896  -0.114   4.765   8.336 -0.3370  0.2614  0.6256
  189SLPC  C31621897  -0.153   4.550   8.387  0.8843 -0.6716  0.7085
  189SLPC  H16X21898  -0.074   4.509   8.319  0.2430 -2.7021  1.1405
  189SLPC  H16Y21899  -0.242   4.484   8.373  1.7517 -2.0818  1.6426
  189SLPC  C31721900  -0.101   4.542   8.534  0.1856  0.3808 -0.3996
  189SLPC  H17X21901  -0.015   4.606   8.564  0.2700 -0.1493  0.5170
  189SLPC  H17Y21902  -0.095   4.434   8.559  0.1816 -0.2201 -2.8889
  189SLPC  C31821903  -0.206   4.599   8.627 -0.2477 -0.6732 -0.2728
  189SLPC  H18X21904  -0.177   4.576   8.732  1.5679  0.1773 -0.5638
  189SLPC  H18Y21905  -0.302   4.556   8.592 -1.0841 -0.2069  1.4308
  189SLPC  H18Z21906  -0.219   4.709   8.625 -0.3017 -0.6335  1.6334
  190SLPC     N21907   1.019   4.331   6.266  0.0533 -0.1766 -0.2769
  190SLPC   C1321908   1.137   4.260   6.330  0.5023 -0.1905 -0.0706
  190SLPC  H13A21909   1.135   4.156   6.303 -0.7398 -0.2719  0.3221
  190SLPC  H13B21910   1.233   4.301   6.302  1.2526 -2.0888 -0.3915
  190SLPC  H13C21911   1.126   4.277   6.436 -0.2111 -2.4963  0.2529
  190SLPC   C1421912   1.053   4.327   6.122 -0.2638  0.3645  0.7457
  190SLPC  H14A21913   1.050   4.228   6.078 -1.5845  0.4588  0.5874
  190SLPC  H14B21914   0.975   4.375   6.066 -0.3092  1.1023  1.4342
  190SLPC  H14C21915   1.153   4.363   6.105 -0.4548  0.6066  0.1260
  190SLPC   C1521916   1.014   4.472   6.318  0.3339  0.5297 -0.2703
  190SLPC  H15A21917   0.953   4.538   6.259 -0.9688 -0.3730  0.0545
  190SLPC  H15B21918   0.986   4.475   6.422  1.9022 -1.2768  0.2323
  190SLPC  H15C21919   1.117   4.507   6.313  0.5178 -0.2244 -2.5177
  190SLPC   C1221920   0.887   4.264   6.291  0.4911 -0.0237 -0.4776
  190SLPC  H12A21921   0.807   4.314   6.239  0.3001  1.3310  1.0960
  190SLPC  H12B21922   0.863   4.280   6.395  1.4764  2.9646 -0.6504
  190SLPC   C1121923   0.856   4.114   6.257  0.6055  0.6947  0.5441
  190SLPC  H11A21924   0.898   4.104   6.154 -1.9560 -0.0430 -0.4761
  190SLPC  H11B21925   0.746   4.103   6.256  0.5499  1.1698  1.6299
  190SLPC     P21926   0.966   3.881   6.290 -0.3136 -0.0580 -0.4008
  190SLPC   O1321927   0.908   3.862   6.158  0.6459 -0.0944  0.0170
  190SLPC   O1421928   1.116   3.886   6.300  0.2659 -0.4111  0.3932
  190SLPC   O1221929   0.908   4.016   6.349  0.0228  0.2635  0.5445
  190SLPC   O1121930   0.902   3.781   6.393 -0.3936  0.4513  0.2383
  190SLPC    C121931   0.758   3.756   6.395 -0.3396  0.1064 -0.2501
  190SLPC    HA21932   0.708   3.764   6.297 -0.8087 -0.9328 -0.1096
  190SLPC    HB21933   0.742   3.650   6.427 -0.1736  0.7168  1.9156
  190SLPC    C221934   0.687   3.842   6.503 -0.2279 -0.5358  0.0660
  190SLPC    HS21935   0.721   3.944   6.476 -0.3639 -0.4888  0.0682
  190SLPC   O2121936   0.743   3.808   6.626 -1.0047  0.0042  0.1891
  190SLPC   C2121937   0.727   3.896   6.724 -0.3578 -0.1462 -0.1910
  190SLPC   O2221938   0.662   4.000   6.725  0.5539  0.0318  0.3120
  190SLPC   C2221939   0.793   3.834   6.848  0.8586 -0.1801 -0.4405
  190SLPC   H2R21940   0.736   3.741   6.872  2.3297 -0.7568  0.9783
  190SLPC   H2S21941   0.899   3.815   6.818  1.7620  2.4690  0.9203
  190SLPC    C321942   0.535   3.829   6.496  0.1173 -0.0260  0.0540
  190SLPC    HX21943   0.482   3.844   6.399 -2.7417  1.0208  1.7088
  190SLPC    HY21944   0.489   3.911   6.554 -1.6992 -1.6527  0.9760
  190SLPC   O3121945   0.495   3.698   6.548 -0.3669  0.5006 -0.0807
  190SLPC   C3121946   0.443   3.605   6.475 -0.0132 -0.5376 -0.7520
  190SLPC   O3221947   0.418   3.621   6.359 -0.8271 -0.3377 -0.2323
  190SLPC   C3221948   0.414   3.475   6.557 -0.7238  0.7412 -0.1974
  190SLPC   H2X21949   0.470   3.482   6.652 -0.7208  1.2885 -0.2362
  190SLPC   H2Y21950   0.451   3.391   6.495  1.9301  0.1176  2.1714
  190SLPC   C2321951   0.802   3.922   6.980  0.2375  0.2941  0.5131
  190SLPC   H3R21952   0.727   4.004   6.985  0.6388  0.7371 -0.5508
  190SLPC   H3S21953   0.901   3.971   6.989  0.4950 -0.0595 -0.3637
  190SLPC   C2421954   0.783   3.828   7.104  0.4789  0.3914  0.4715
  190SLPC   H4R21955   0.858   3.746   7.106  0.7096  0.6077  0.5736
  190SLPC   H4S21956   0.681   3.784   7.091  0.3929  0.8486 -0.4038
  190SLPC   C2521957   0.777   3.907   7.234 -0.3318 -0.4465 -0.2177
  190SLPC   H5R21958   0.712   3.994   7.214  1.0473  0.6798  0.1160
  190SLPC   H5S21959   0.880   3.932   7.269 -1.9363  0.3995  4.2595
  190SLPC   C2621960   0.733   3.824   7.352  0.2142  0.2615 -0.2074
  190SLPC   H6R21961   0.802   3.739   7.371  0.1586  0.6583  1.9193
  190SLPC   H6S21962   0.628   3.796   7.331  1.0630 -2.3175 -1.1531
  190SLPC   C2721963   0.727   3.896   7.482  0.4999 -1.0016 -0.2096
  190SLPC   H7R21964   0.678   3.821   7.549 -3.0420  2.4464  1.2837
  190SLPC   H7S21965   0.669   3.990   7.494  0.3261 -0.6839 -3.1583
  190SLPC   C2821966   0.874   3.930   7.542 -0.3719  0.0376  0.5248
  190SLPC   H8R21967   0.930   3.984   7.462 -2.9273  1.9098 -0.0558
  190SLPC   H8S21968   0.920   3.832   7.565 -1.0455 -0.2431  0.6868
  190SLPC   C2921969   0.875   4.025   7.654  0.6576  0.0056 -0.1813
  190SLPC   H9R21970   0.882   4.132   7.634 -1.4716  0.1514 -0.3266
  190SLPC  C21021971   0.851   3.984   7.777 -0.1953 -0.7250 -0.6051
  190SLPC  H10R21972   0.857   4.059   7.858 -1.3900 -2.6459  1.3313
  190SLPC  C21121973   0.822   3.846   7.831  1.2662  0.1278  0.3563
  190SLPC  H11R21974   0.820   3.780   7.742  2.9449  2.7775 -1.7331
  190SLPC  H11S21975   0.720   3.852   7.873  0.9133  2.0157 -0.7209
  190SLPC  C21221976   0.924   3.796   7.927 -0.2000  0.4144 -0.5922
  190SLPC  H12R21977   0.986   3.710   7.898 -0.8224  0.1665 -1.1726
  190SLPC  C21321978   0.947   3.848   8.050  0.1362  0.4841  0.4348
  190SLPC  H13R21979   1.025   3.807   8.117  0.1572  0.3144  0.3059
  190SLPC  C21421980   0.867   3.966   8.107 -0.7104  0.3756 -0.4647
  190SLPC  H14R21981   0.766   3.954   8.061  0.2868 -1.4426 -2.2143
  190SLPC  H14S21982   0.914   4.059   8.068  1.0798 -0.1196  0.4909
  190SLPC  C21521983   0.852   3.967   8.263  0.0198 -0.3927  0.4474
  190SLPC  H15R21984   0.768   4.036   8.283 -0.8296 -1.5291  0.8621
  190SLPC  H15S21985   0.942   4.025   8.291 -1.5816  2.9125 -1.0732
  190SLPC  C21621986   0.850   3.842   8.350  0.0181 -0.2387 -0.4364
  190SLPC  H16R21987   0.944   3.786   8.333  0.2907  0.0804  0.0086
  190SLPC  H16S21988   0.763   3.782   8.316 -0.2721 -1.5563  2.4368
  190SLPC  C21721989   0.854   3.871   8.504  0.2181  0.1002 -0.3179
  190SLPC  H17R21990   0.857   3.773   8.556 -0.9817 -0.5547 -1.4485
  190SLPC  H17S21991   0.763   3.928   8.532 -0.4063 -0.3823 -1.3204
  190SLPC  C21821992   0.974   3.957   8.562  0.0164  0.3405 -0.0391
  190SLPC  H18R21993   1.055   3.886   8.588  0.7792  0.9757 -0.6819
  190SLPC  H18S21994   0.923   4.014   8.643 -0.5019  0.8852 -0.7335
  190SLPC  H18T21995   1.013   4.033   8.491 -0.3349  0.2973 -0.2825
  190SLPC   C3321996   0.259   3.446   6.581  0.0194 -0.3401  0.1198
  190SLPC   H3X21997   0.254   3.341   6.617  1.5349  0.0409  1.5104
  190SLPC   H3Y21998   0.205   3.439   6.484  0.8947  1.1613 -0.4963
  190SLPC   C3421999   0.190   3.546   6.666  0.2667  0.5555 -0.5323
  190SLPC   H4X22000   0.079   3.532   6.664  0.2215  0.7292  0.5808
  190SLPC   H4Y22001   0.208   3.647   6.621  1.0383  0.6354 -0.0539
  190SLPC   C3522002   0.244   3.547   6.805  0.8888  0.4144 -0.1202
  190SLPC   H5X22003   0.353   3.570   6.809  1.1055 -0.6128  0.1317
  190SLPC   H5Y22004   0.236   3.441   6.837 -2.3218  0.3492 -1.0396
  190SLPC   C3622005   0.148   3.632   6.892  0.0034 -0.1054 -0.5364
  190SLPC   H6X22006   0.044   3.599   6.872  0.2933 -1.8336  0.7222
  190SLPC   H6Y22007   0.148   3.743   6.885  0.2285  0.0497  1.5097
  190SLPC   C3722008   0.172   3.599   7.044  0.2240 -0.1648 -0.6649
  190SLPC   H7X22009   0.278   3.624   7.067  0.0454 -0.2892  0.3113
  190SLPC   H7Y22010   0.162   3.490   7.063 -0.6728  0.1454  0.7512
  190SLPC   C3822011   0.065   3.671   7.131  0.5901  0.1697  0.0275
  190SLPC   H8X22012  -0.040   3.640   7.108  1.4705 -1.6628 -1.6823
  190SLPC   H8Y22013   0.062   3.782   7.122 -2.9648 -0.0428 -2.5597
  190SLPC   C3922014   0.105   3.652   7.279 -0.1496  0.0732 -0.1443
  190SLPC   H9X22015   0.173   3.734   7.309 -0.9449  0.0682  1.8131
  190SLPC   H9Y22016   0.161   3.557   7.295 -1.2982 -0.7406 -0.8790
  190SLPC  C31022017  -0.008   3.668   7.387  0.2220 -0.0636 -0.2126
  190SLPC  H10X22018  -0.082   3.592   7.353 -0.1053 -0.6216  1.7020
  190SLPC  H10Y22019  -0.058   3.765   7.365  2.7473  0.9747 -1.5996
  190SLPC  C31122020   0.025   3.652   7.536  0.1292 -0.2045  0.6566
  190SLPC  H11X22021   0.090   3.735   7.568 -2.2853  1.2500  1.9614
  190SLPC  H11Y22022   0.070   3.552   7.554  0.1734 -0.3471 -0.2243
  190SLPC  C31222023  -0.107   3.676   7.622  0.3676 -0.2935 -0.4306
  190SLPC  H12X22024  -0.185   3.597   7.616 -1.8748  1.9216 -1.0091
  190SLPC  H12Y22025  -0.158   3.767   7.584  1.5293  0.8109  0.6132
  190SLPC  C31322026  -0.064   3.687   7.770  0.0422  0.2644  0.7303
  190SLPC  H13X22027  -0.154   3.711   7.831 -1.0311  2.9035 -1.7875
  190SLPC  H13Y22028   0.022   3.757   7.769 -1.7667  2.5425 -0.4298
  190SLPC  C31422029  -0.002   3.554   7.832 -0.2230  0.7706  0.6223
  190SLPC  H14X22030   0.077   3.516   7.764  0.2323  2.5776  0.1094
  190SLPC  H14Y22031  -0.085   3.481   7.841  0.1333  0.1751 -0.8136
  190SLPC  C31522032   0.053   3.567   7.982  0.0270 -0.1008  0.3562
  190SLPC  H15X22033   0.122   3.654   7.985 -0.3566  0.2700 -1.1423
  190SLPC  H15Y22034   0.113   3.477   8.005  0.3733  0.2346  0.7603
  190SLPC  C31622035  -0.047   3.586   8.085  0.5134  0.1353  0.0584
  190SLPC  H16X22036  -0.101   3.489   8.082  0.5242  0.1363 -0.1448
  190SLPC  H16Y22037  -0.130   3.656   8.065 -1.8074 -2.2518  1.0192
  190SLPC  C31722038   0.025   3.609   8.219  0.0210 -0.0836  0.2779
  190SLPC  H17X22039   0.125   3.564   8.205 -0.2321 -0.0751 -1.6801
  190SLPC  H17Y22040  -0.020   3.555   8.306  0.9203 -1.2371  0.0437
  190SLPC  C31822041   0.041   3.758   8.242 -0.3383 -0.4081 -0.3223
  190SLPC  H18X22042   0.108   3.763   8.331  1.6116  2.1014 -1.8507
  190SLPC  H18Y22043  -0.055   3.812   8.262  0.5139  1.3580 -0.8598
  190SLPC  H18Z22044   0.098   3.811   8.163 -0.0739 -2.0007 -1.1995
  191SLPC     N22045   6.431   5.715   5.720 -0.2726  0.5828 -0.2859
  191SLPC   C1322046   6.465   5.841   5.639  0.0541  0.3589  0.8505
  191SLPC  H13A22047   6.536   5.906   5.688  0.6483  2.5661 -2.7520
  191SLPC  H13B22048   6.528   5.808   5.558  1.2039 -1.7438  2.5367
  191SLPC  H13C22049   6.375   5.894   5.611  0.1278 -0.4513 -1.0141
  191SLPC   C1422050   6.568   5.661   5.759 -0.3225  0.1398  0.0165
  191SLPC  H14A22051   6.615   5.730   5.827  2.0069  0.0591 -1.4662
  191SLPC  H14B22052   6.567   5.559   5.796 -1.0937 -0.3439 -1.2785
  191SLPC  H14C22053   6.635   5.653   5.674  0.4576  0.2247  0.6167
  191SLPC   C1522054   6.357   5.617   5.636 -0.7245 -0.4619 -0.3001
  191SLPC  H15A22055   6.253   5.644   5.626 -0.9894 -1.2543  0.3564
  191SLPC  H15B22056   6.402   5.612   5.538 -0.9701 -2.3254 -0.3337
  191SLPC  H15C22057   6.352   5.518   5.678 -0.4296  0.7960  2.8637
  191SLPC   C1222058   6.343   5.757   5.829  0.4995 -0.1726 -0.1565
  191SLPC  H12A22059   6.285   5.671   5.859  0.6493 -0.0502  0.4871
  191SLPC  H12B22060   6.259   5.815   5.794  0.5201 -0.3584 -0.5232
  191SLPC   C1122061   6.395   5.819   5.959  0.1147 -0.4919 -0.6447
  191SLPC  H11A22062   6.471   5.750   6.001  1.0416  1.3996  0.8917
  191SLPC  H11B22063   6.309   5.819   6.029  0.6833  2.0576  0.1331
  191SLPC     P22064   6.327   6.071   5.966  0.0789  0.1247  0.4378
  191SLPC   O1322065   6.398   6.197   5.948  0.0756 -0.7504  0.0800
  191SLPC   O1422066   6.217   6.048   5.874  0.2040 -0.5362 -0.2582
  191SLPC   O1222067   6.437   5.951   5.957  0.7294 -0.2096 -0.7453
  191SLPC   O1122068   6.280   6.058   6.124  0.0853 -0.5027 -0.5278
  191SLPC    C122069   6.158   5.991   6.163 -0.4688 -0.0137 -0.2874
  191SLPC    HA22070   6.085   6.074   6.176  0.3770  0.8027 -0.7359
  191SLPC    HB22071   6.111   5.923   6.088  0.6662 -2.6027  1.2719
  191SLPC    C222072   6.166   5.912   6.294  0.7998  0.0297 -0.2775
  191SLPC    HS22073   6.067   5.865   6.313 -0.0502  2.1370  0.7340
  191SLPC   O2122074   6.214   6.007   6.402  0.1218  0.2144  0.1831
  191SLPC   C2122075   6.132   6.063   6.476 -0.2847  0.2277 -0.0400
  191SLPC   O2222076   6.012   6.042   6.485 -0.4501  0.3480  0.3608
  191SLPC   C2222077   6.201   6.171   6.566  0.1017  0.3825  0.1144
  191SLPC   H2R22078   6.289   6.126   6.617  0.2423  1.4389  0.8339
  191SLPC   H2S22079   6.235   6.248   6.494  1.1608  0.4128  0.6344
  191SLPC    C322080   6.267   5.795   6.281 -0.3988 -0.3818 -0.3004
  191SLPC    HX22081   6.364   5.838   6.250 -0.0897  0.6086  1.9344
  191SLPC    HY22082   6.229   5.741   6.192 -0.2731  0.1038 -0.6521
  191SLPC   O3122083   6.276   5.719   6.403  0.5832  0.0056 -0.4442
  191SLPC   C3122084   6.390   5.699   6.461  0.7475  0.6812  0.0919
  191SLPC   O3222085   6.498   5.700   6.406 -0.2266 -0.8837 -0.0610
  191SLPC   C3222086   6.379   5.686   6.611  0.0025 -0.3222  0.1120
  191SLPC   H2X22087   6.324   5.590   6.620 -0.5784 -0.0150 -0.1075
  191SLPC   H2Y22088   6.313   5.765   6.653  0.2868  0.1634 -0.3437
  191SLPC   C2322089   6.114   6.232   6.682 -0.2444 -0.4103  0.2558
  191SLPC   H3R22090   6.055   6.153   6.734 -1.9059  0.1949 -0.6849
  191SLPC   H3S22091   6.037   6.298   6.637  0.9410 -0.6363 -2.1981
  191SLPC   C2422092   6.193   6.300   6.795  1.4141  0.2752 -0.3116
  191SLPC   H4R22093   6.248   6.387   6.753  0.8009  0.5355 -0.5789
  191SLPC   H4S22094   6.270   6.231   6.834 -1.5338 -1.8244  2.0724
  191SLPC   C2522095   6.101   6.343   6.908 -0.4510  0.5129 -0.2980
  191SLPC   H5R22096   6.052   6.252   6.947  1.0547  0.1461  0.7789
  191SLPC   H5S22097   6.019   6.414   6.883 -0.9416 -0.3890 -1.2689
  191SLPC   C2622098   6.203   6.420   7.005  0.6212  0.9193  0.3124
  191SLPC   H6R22099   6.215   6.517   6.953 -3.2311  1.2002 -0.1765
  191SLPC   H6S22100   6.299   6.365   7.007  1.7092  2.8019  1.0543
  191SLPC   C2722101   6.155   6.449   7.148 -0.1702 -1.0489 -0.0340
  191SLPC   H7R22102   6.067   6.515   7.131 -0.7314 -1.6572  0.4563
  191SLPC   H7S22103   6.231   6.513   7.198 -0.5698 -1.0909  0.6293
  191SLPC   C2822104   6.121   6.344   7.244  0.3001 -0.2931 -0.1211
  191SLPC   H8R22105   6.043   6.273   7.209  1.7221 -1.3357 -1.2983
  191SLPC   H8S22106   6.068   6.395   7.327 -0.7186  2.7195 -2.5291
  191SLPC   C2922107   6.243   6.268   7.273  0.0393 -0.1123  0.5113
  191SLPC   H9R22108   6.306   6.243   7.187 -0.1961  1.8877 -0.2770
  191SLPC  C21022109   6.280   6.223   7.395 -0.0340  0.5708 -0.4441
  191SLPC  H10R22110   6.383   6.186   7.395  0.4030  1.7506  1.4622
  191SLPC  C21122111   6.209   6.244   7.526  1.0816 -0.1398 -0.0020
  191SLPC  H11R22112   6.198   6.144   7.573  0.8725 -1.3073 -2.4634
  191SLPC  H11S22113   6.113   6.298   7.513  0.9998  0.1001  1.5131
  191SLPC  C21222114   6.302   6.322   7.612  0.3541 -0.4224 -0.5714
  191SLPC  H12R22115   6.348   6.413   7.569  2.2727 -0.6272  1.0008
  191SLPC  C21322116   6.349   6.293   7.731  0.0885 -0.1276 -0.2026
  191SLPC  H13R22117   6.425   6.364   7.768 -0.5533  0.8436 -0.7323
  191SLPC  C21422118   6.324   6.166   7.813 -0.0386  0.6076 -0.2864
  191SLPC  H14R22119   6.224   6.119   7.802  1.4295 -2.1981 -2.3650
  191SLPC  H14S22120   6.340   6.201   7.918 -0.8355  1.0983 -0.3278
  191SLPC  C21522121   6.440   6.063   7.791  0.0941 -0.0222 -0.5225
  191SLPC  H15R22122   6.448   6.030   7.685  1.5866 -1.8331  0.1270
  191SLPC  H15S22123   6.404   5.986   7.863 -0.8908  0.3646 -0.5956
  191SLPC  C21622124   6.575   6.097   7.852  0.5523 -0.7131 -0.1900
  191SLPC  H16R22125   6.564   6.134   7.956 -0.5292  0.7283 -0.7979
  191SLPC  H16S22126   6.619   6.170   7.781  0.2394 -1.2892 -0.9863
  191SLPC  C21722127   6.663   5.974   7.872  0.3559 -0.6995  0.0271
  191SLPC  H17R22128   6.681   5.930   7.772 -0.7855 -1.6097  0.2111
  191SLPC  H17S22129   6.596   5.911   7.934  0.3861 -0.2273  0.5415
  191SLPC  C21822130   6.789   6.011   7.933  0.4562  0.0919 -0.0172
  191SLPC  H18R22131   6.853   6.076   7.869  1.6965 -1.0808 -0.0045
  191SLPC  H18S22132   6.850   5.918   7.943 -1.4794 -1.0425  1.5719
  191SLPC  H18T22133   6.772   6.044   8.038  0.2046 -0.5470  0.1493
  191SLPC   C3322134   6.514   5.705   6.682  0.0403  0.5000  0.4361
  191SLPC   H3X22135   6.561   5.806   6.677  2.1835 -0.6087 -2.3955
  191SLPC   H3Y22136   6.584   5.633   6.636 -1.5468 -1.2102  0.6659
  191SLPC   C3422137   6.507   5.677   6.831  0.4003  0.5893  0.3286
  191SLPC   H4X22138   6.478   5.771   6.883 -0.2565  1.4337 -1.5427
  191SLPC   H4Y22139   6.609   5.642   6.857  0.0082 -0.1673  0.8896
  191SLPC   C3522140   6.412   5.553   6.868  0.6208 -1.7064  0.3827
  191SLPC   H5X22141   6.407   5.484   6.781 -0.7514 -0.3979 -0.5859
  191SLPC   H5Y22142   6.317   5.608   6.886  2.5198  2.1076 -0.5838
  191SLPC   C3622143   6.453   5.485   6.996 -0.2885  0.1944  0.5051
  191SLPC   H6X22144   6.547   5.431   6.974 -0.5952  0.7878 -2.3668
  191SLPC   H6Y22145   6.375   5.412   7.029  0.0315 -0.7725 -0.8466
  191SLPC   C3722146   6.441   5.582   7.114 -0.1140 -0.5505 -0.9002
  191SLPC   H7X22147   6.343   5.634   7.106  0.7548  1.0309 -1.5659
  191SLPC   H7Y22148   6.524   5.655   7.114 -0.3210 -0.3153 -0.2174
  191SLPC   C3822149   6.427   5.504   7.245  0.1019  0.2249  0.1128
  191SLPC   H8X22150   6.521   5.444   7.249 -0.0302  0.0047 -0.1167
  191SLPC   H8Y22151   6.338   5.440   7.260  0.5634 -0.7486 -1.1634
  191SLPC   C3922152   6.435   5.605   7.361  0.3983 -0.5255 -0.8819
  191SLPC   H9X22153   6.349   5.674   7.374  0.1849 -1.2487  1.9154
  191SLPC   H9Y22154   6.529   5.663   7.352  1.0158 -1.5758 -1.2490
  191SLPC  C31022155   6.434   5.522   7.488 -0.6455 -0.1811 -0.2770
  191SLPC  H10X22156   6.513   5.444   7.492 -0.0161  0.3827 -1.3962
  191SLPC  H10Y22157   6.336   5.475   7.509 -1.0915  1.2552  0.9761
  191SLPC  C31122158   6.463   5.597   7.619  0.6465 -0.3236 -0.2306
  191SLPC  H11X22159   6.415   5.698   7.619  0.8823 -0.1241  3.7643
  191SLPC  H11Y22160   6.571   5.605   7.644  0.7948 -0.5394 -0.8052
  191SLPC  C31222161   6.407   5.527   7.745 -0.4516 -0.5276 -0.1127
  191SLPC  H12X22162   6.442   5.421   7.743 -0.9865 -0.7469  1.6548
  191SLPC  H12Y22163   6.296   5.523   7.738 -0.4394 -1.8853  0.2758
  191SLPC  C31322164   6.455   5.589   7.876 -0.0313  0.6934  0.0521
  191SLPC  H13X22165   6.420   5.692   7.896 -2.4384 -0.2446  0.7541
  191SLPC  H13Y22166   6.566   5.602   7.883 -0.2493  1.8574  1.4303
  191SLPC  C31422167   6.414   5.513   7.997  0.4531  0.4864 -0.1065
  191SLPC  H14X22168   6.454   5.409   7.999 -0.2668  0.2351  1.5437
  191SLPC  H14Y22169   6.303   5.506   7.987  0.4822  0.2594 -0.2881
  191SLPC  C31522170   6.455   5.568   8.129  0.0995 -0.1035 -0.2978
  191SLPC  H15X22171   6.445   5.679   8.136 -1.0505 -0.2859  1.0133
  191SLPC  H15Y22172   6.560   5.538   8.145 -0.1321 -0.1232  1.2046
  191SLPC  C31622173   6.384   5.495   8.246  0.7972  0.7055  0.0604
  191SLPC  H16X22174   6.417   5.543   8.341 -2.8897  2.4750  0.5117
  191SLPC  H16Y22175   6.400   5.385   8.250  1.0813  0.7283 -0.3377
  191SLPC  C31722176   6.230   5.517   8.251  0.0701  0.5959 -0.5176
  191SLPC  H17X22177   6.216   5.500   8.360  1.2134  0.2835 -0.4153
  191SLPC  H17Y22178   6.168   5.447   8.191 -0.6470 -0.2097  1.1100
  191SLPC  C31822179   6.174   5.660   8.225  0.0928  0.5172  0.1914
  191SLPC  H18X22180   6.068   5.662   8.261 -0.5334  1.6269 -1.6338
  191SLPC  H18Y22181   6.184   5.681   8.116 -0.6832 -0.5918 -0.1060
  191SLPC  H18Z22182   6.230   5.733   8.287 -0.7852 -0.4581  2.1872
  192SLPC     N22183   0.357   0.051   6.175 -0.5963  0.1815 -1.0191
  192SLPC   C1322184   0.370  -0.087   6.115  0.6152 -0.2372  0.4609
  192SLPC  H13A22185   0.282  -0.119   6.061 -0.0740  0.0180  1.4160
  192SLPC  H13B22186   0.444  -0.086   6.037 -0.6634  0.6061 -0.7757
  192SLPC  H13C22187   0.404  -0.164   6.183  1.2627  0.7492  1.2617
  192SLPC   C1422188   0.292   0.141   6.075 -0.1944 -0.3651  0.1159
  192SLPC  H14A22189   0.271   0.243   6.106 -1.2621  0.4982 -3.1452
  192SLPC  H14B22190   0.341   0.139   5.978  0.5101  2.2911  0.3788
  192SLPC  H14C22191   0.190   0.111   6.053 -0.3740  0.4678 -0.2121
  192SLPC   C1522192   0.498   0.104   6.201  0.8530  0.2199  0.0961
  192SLPC  H15A22193   0.480   0.209   6.220  2.4494  0.1071  2.3930
  192SLPC  H15B22194   0.548   0.071   6.291  0.7112  0.9342  0.4436
  192SLPC  H15C22195   0.559   0.090   6.113 -0.4874 -1.5784 -0.5897
  192SLPC   C1222196   0.265   0.044   6.297  0.5468 -0.2013  0.2159
  192SLPC  H12A22197   0.320  -0.019   6.366  0.9890  2.9288  2.8335
  192SLPC  H12B22198   0.172   0.001   6.263 -0.3868  0.8026  1.4475
  192SLPC   C1122199   0.234   0.161   6.391 -0.5572  0.4085 -0.0478
  192SLPC  H11A22200   0.313   0.215   6.447 -0.5997  0.3366  0.0829
  192SLPC  H11B22201   0.188   0.118   6.483 -0.6684 -0.5939 -0.5681
  192SLPC     P22202  -0.012   0.260   6.376  0.1477  0.0673 -0.0100
  192SLPC   O1322203  -0.088   0.332   6.270  0.1836 -0.1496  0.1677
  192SLPC   O1422204  -0.057   0.121   6.415 -0.4240  0.2416 -0.1421
  192SLPC   O1222205   0.140   0.255   6.325 -0.7841 -0.1166 -0.0033
  192SLPC   O1122206  -0.001   0.351   6.503  0.1729 -0.0556 -0.1925
  192SLPC    C122207   0.060   0.481   6.491  0.0775  0.3815 -0.2707
  192SLPC    HA22208   0.094   0.501   6.387  3.3940  1.5115  0.9385
  192SLPC    HB22209  -0.008   0.564   6.517  2.0872  1.7200  0.8816
  192SLPC    C222210   0.188   0.498   6.581 -0.7983 -0.0576  0.3796
  192SLPC    HS22211   0.245   0.405   6.556  0.5417  1.9471 -4.4061
  192SLPC   O2122212   0.151   0.515   6.720  0.0566  0.1680 -0.1599
  192SLPC   C2122213   0.138   0.394   6.776  0.8260  0.3809  0.5669
  192SLPC   O2222214   0.192   0.289   6.732 -0.1979 -0.0429 -0.0185
  192SLPC   C2222215   0.060   0.405   6.902  0.2950 -0.3251  0.2116
  192SLPC   H2R22216   0.133   0.457   6.967  1.2265 -0.6979 -0.5201
  192SLPC   H2S22217  -0.029   0.471   6.890 -0.2870 -0.7986  1.8275
  192SLPC    C322218   0.268   0.616   6.526  0.1181 -0.2207 -0.0691
  192SLPC    HX22219   0.206   0.706   6.544 -2.1902 -1.5359 -1.1634
  192SLPC    HY22220   0.279   0.613   6.415  0.6050  0.5411 -0.0418
  192SLPC   O3122221   0.393   0.629   6.594 -0.0636  0.3403  0.7661
  192SLPC   C3122222   0.484   0.564   6.549  0.1095 -0.4674  0.7803
  192SLPC   O3222223   0.481   0.494   6.447  0.2555  0.3879 -0.2078
  192SLPC   C3222224   0.608   0.587   6.641 -0.1472 -0.0283 -0.0660
  192SLPC   H2X22225   0.666   0.670   6.595  0.6881 -0.7999 -0.4177
  192SLPC   H2Y22226   0.661   0.490   6.630  1.0156  0.7286 -1.2663
  192SLPC   C2322227  -0.002   0.266   6.943  0.3358  0.0474  0.0208
  192SLPC   H3R22228   0.081   0.193   6.945  1.2237  1.0672  1.0769
  192SLPC   H3S22229  -0.072   0.228   6.865 -1.0584 -0.5879  1.5429
  192SLPC   C2422230  -0.068   0.279   7.079  0.5473  0.3485  0.3104
  192SLPC   H4R22231  -0.126   0.185   7.092 -0.5662  0.3631 -3.7771
  192SLPC   H4S22232  -0.139   0.364   7.090  0.0322  0.0195 -0.4140
  192SLPC   C2522233   0.038   0.301   7.187 -0.1246  0.3223  0.2569
  192SLPC   H5R22234   0.117   0.377   7.171  0.2439  0.7131  3.5107
  192SLPC   H5S22235   0.088   0.204   7.210 -1.1745 -0.6220 -1.3166
  192SLPC   C2622236  -0.025   0.337   7.319  0.2446 -0.5306  0.4351
  192SLPC   H6R22237  -0.086   0.428   7.307  0.0942 -0.5912  0.7257
  192SLPC   H6S22238   0.058   0.358   7.390 -0.1920 -0.5848  0.9697
  192SLPC   C2722239  -0.116   0.225   7.383 -0.3816 -0.5924 -0.3827
  192SLPC   H7R22240  -0.058   0.131   7.393  0.2203 -0.2470 -0.5989
  192SLPC   H7S22241  -0.197   0.211   7.308  0.3752 -0.9620 -1.1363
  192SLPC   C2822242  -0.181   0.277   7.508  0.2787 -0.1497 -0.2920
  192SLPC   H8R22243  -0.277   0.230   7.536 -0.5065  0.0425 -2.5561
  192SLPC   H8S22244  -0.212   0.383   7.498  0.4270  0.0592  1.4481
  192SLPC   C2922245  -0.089   0.272   7.631  0.2804 -0.3268 -0.2798
  192SLPC   H9R22246   0.015   0.303   7.609 -0.3676 -0.3104 -3.5663
  192SLPC  C21022247  -0.129   0.237   7.758 -0.2858  0.2336  0.2237
  192SLPC  H10R22248  -0.054   0.238   7.838 -0.2807 -3.9890  0.3842
  192SLPC  C21122249  -0.263   0.179   7.803  0.6255 -0.7257 -0.2838
  192SLPC  H11R22250  -0.274   0.094   7.732 -3.3557  0.7471 -1.5571
  192SLPC  H11S22251  -0.347   0.241   7.764 -0.6185 -1.3619  1.3281
  192SLPC  C21222252  -0.275   0.147   7.947  0.0501  0.1302  0.0605
  192SLPC  H12R22253  -0.228   0.226   8.007  1.8892 -0.5192 -0.4797
  192SLPC  C21322254  -0.324   0.037   8.000 -0.3471  0.2488  0.3251
  192SLPC  H13R22255  -0.343   0.024   8.107 -1.7309  1.3758  0.2267
  192SLPC  C21422256  -0.380  -0.081   7.922  0.2989 -0.2925 -0.1310
  192SLPC  H14R22257  -0.393  -0.055   7.814  1.5674 -2.3424 -0.8110
  192SLPC  H14S22258  -0.471  -0.122   7.968  0.7332 -0.3654  0.6655
  192SLPC  C21522259  -0.274  -0.208   7.919 -0.2236 -0.5143 -0.2154
  192SLPC  H15R22260  -0.182  -0.179   7.864 -0.6644 -0.2297 -0.8051
  192SLPC  H15S22261  -0.317  -0.276   7.843 -0.5071  0.6176 -1.0754
  192SLPC  C21622262  -0.262  -0.277   8.052  0.2388 -0.3112  0.0602
  192SLPC  H16R22263  -0.358  -0.316   8.091 -1.0488  1.0402 -1.6648
  192SLPC  H16S22264  -0.217  -0.210   8.128  1.6961 -1.0496 -0.1240
  192SLPC  C21722265  -0.166  -0.392   8.064  0.2719  0.4655  0.1500
  192SLPC  H17R22266  -0.216  -0.475   8.010 -2.1799  0.9654  1.5915
  192SLPC  H17S22267  -0.069  -0.376   8.012 -1.3656  1.0583 -2.8312
  192SLPC  C21822268  -0.147  -0.446   8.203 -1.2443  0.5324  0.0791
  192SLPC  H18R22269  -0.244  -0.466   8.254 -0.8610  4.3697  2.4873
  192SLPC  H18S22270  -0.099  -0.367   8.264  0.2766  0.3066 -0.8108
  192SLPC  H18T22271  -0.080  -0.533   8.215 -0.4429  1.5271  3.3028
  192SLPC   C3322272   0.579   0.608   6.791 -0.0606 -0.1516  0.7821
  192SLPC   H3X22273   0.509   0.688   6.824 -1.2428 -0.5380 -0.7327
  192SLPC   H3Y22274   0.679   0.621   6.836 -0.0996 -4.3386  2.3853
  192SLPC   C3422275   0.513   0.482   6.856  0.1798  0.5242  1.0065
  192SLPC   H4X22276   0.575   0.393   6.832 -3.2047 -1.4065 -0.9072
  192SLPC   H4Y22277   0.416   0.473   6.803  1.5271 -1.6096 -1.2113
  192SLPC   C3522278   0.499   0.485   7.010 -0.3681 -0.0895  0.1852
  192SLPC   H5X22279   0.449   0.577   7.047  0.9452  0.1824  1.3555
  192SLPC   H5Y22280   0.600   0.503   7.053 -0.4303  0.9142 -0.0994
  192SLPC   C3622281   0.438   0.351   7.065 -0.0428 -0.2562  0.2695
  192SLPC   H6X22282   0.502   0.263   7.045  0.5972  0.3497 -0.3829
  192SLPC   H6Y22283   0.341   0.325   7.017 -1.2615  3.9286  0.2130
  192SLPC   C3722284   0.413   0.357   7.214 -0.3927 -0.0622  0.0482
  192SLPC   H7X22285   0.335   0.283   7.243  0.2521 -0.0926  1.7916
  192SLPC   H7Y22286   0.375   0.455   7.248 -1.4211 -0.7290  0.8855
  192SLPC   C3822287   0.535   0.317   7.300 -0.6684 -0.5507 -0.0220
  192SLPC   H8X22288   0.627   0.358   7.254  0.4038 -2.4826  0.3533
  192SLPC   H8Y22289   0.554   0.208   7.302  1.4636 -0.1924  2.1442
  192SLPC   C3922290   0.524   0.359   7.449  0.1824  0.2734  0.0383
  192SLPC   H9X22291   0.497   0.467   7.455 -2.9856 -0.5142  0.7684
  192SLPC   H9Y22292   0.623   0.343   7.496  0.2224 -2.3603 -0.8701
  192SLPC  C31022293   0.430   0.264   7.531  0.1492 -0.5309  0.1348
  192SLPC  H10X22294   0.448   0.156   7.512  1.1188 -0.1367 -1.2911
  192SLPC  H10Y22295   0.328   0.294   7.500 -0.2315 -0.9690  0.9312
  192SLPC  C31122296   0.442   0.281   7.683 -0.0479 -0.2966  0.0490
  192SLPC  H11X22297   0.405   0.381   7.714 -2.0694 -0.8000 -0.6475
  192SLPC  H11Y22298   0.552   0.281   7.695  0.0035  2.0066 -0.2135
  192SLPC  C31222299   0.376   0.178   7.771  0.8184  0.2007 -0.8006
  192SLPC  H12X22300   0.410   0.181   7.877 -3.7795 -1.6603  0.8811
  192SLPC  H12Y22301   0.412   0.082   7.728  1.8375  1.8332 -3.7215
  192SLPC  C31322302   0.223   0.163   7.774 -1.0039 -0.1350  0.1578
  192SLPC  H13X22303   0.187   0.154   7.669  3.0485 -1.2186 -1.2370
  192SLPC  H13Y22304   0.179   0.259   7.807  0.6741  1.4668 -2.0705
  192SLPC  C31422305   0.165   0.044   7.856  0.2957  0.2261 -0.0782
  192SLPC  H14X22306   0.223  -0.051   7.857  0.0308  0.0666 -0.0360
  192SLPC  H14Y22307   0.068   0.010   7.815 -0.3663  2.2973 -0.2614
  192SLPC  C31522308   0.136   0.085   8.002 -0.5158 -0.4712 -0.3447
  192SLPC  H15X22309   0.058   0.164   8.000 -1.0057 -0.9094  0.7517
  192SLPC  H15Y22310   0.227   0.135   8.040 -0.7149 -0.9408  0.7889
  192SLPC  C31622311   0.110  -0.035   8.101 -0.2400  0.7097 -0.3956
  192SLPC  H16X22312   0.194  -0.107   8.114 -1.7101 -0.6698  1.8085
  192SLPC  H16Y22313   0.020  -0.087   8.063  0.7890 -0.4487 -1.2761
  192SLPC  C31722314   0.070   0.013   8.240  0.0219  0.2669 -0.6367
  192SLPC  H17X22315  -0.035   0.049   8.238  0.4730  1.6117 -0.3873
  192SLPC  H17Y22316   0.141   0.089   8.280  1.2418 -1.2051  0.0637
  192SLPC  C31822317   0.067  -0.099   8.347  0.0654 -0.6803  0.7803
  192SLPC  H18X22318   0.006  -0.068   8.435 -3.1286 -1.0811 -1.1988
  192SLPC  H18Y22319   0.164  -0.131   8.389 -0.2866 -0.4640  1.7879
  192SLPC  H18Z22320   0.031  -0.193   8.301  0.3031  0.5313 -1.9885
  193SOD    SOD22321   0.439   6.087  17.110  0.0332  0.3865 -0.0003
  194SOD    SOD22322   1.235   2.786   4.804 -0.2630 -0.6154  0.0830
  195SOD    SOD22323   2.776   6.751   1.136  0.0804  0.1937  0.1304
  196SOD    SOD22324   4.804   3.380   1.965 -0.3491  0.1988  0.1005
  197SOD    SOD22325   2.986   6.436  12.526 -0.0004  0.0263  0.1356
  198SOD    SOD22326   3.685   4.163   2.049 -0.1458 -0.1493  0.3877
  199SOD    SOD22327   4.274   1.977   2.183 -0.1423 -0.0504  0.1430
  200SOD    SOD22328   4.759   4.449  13.346  0.0693  0.1639  0.1401
  201SOD    SOD22329   0.017   4.285   2.890 -0.6915  0.1457  0.0928
  202SOD    SOD22330   2.343   5.948  12.459  0.5022 -0.6482  0.2147
  203SOD    SOD22331   1.079   5.295  13.835 -0.1232  0.4699 -0.0514
  204SOD    SOD22332   6.085   3.117   6.106 -0.0370  0.1309 -0.0096
  205SOD    SOD22333   1.793   1.764   2.763 -0.6303  0.0006 -0.5612
  206SOD    SOD22334   1.989   5.459   1.776 -0.0166  0.2264  0.3398
  207SOD    SOD22335   2.168   1.301   5.903  0.3824  0.0552 -0.4008
  208SOD    SOD22336   4.430   5.251   5.382  0.2898 -0.3413 -0.5918
  209SOD    SOD22337   0.389   0.092  13.233  0.0898  0.5128 -0.1563
  210SOD    SOD22338   4.891   3.690  15.702 -0.3242 -0.1056 -0.3382
  211SOD    SOD22339   4.354   3.461  11.499 -0.0982  0.1262 -0.4112
  212SOD    SOD22340   3.763   5.832   6.118  0.5702 -0.5106 -0.7134
  213SOD    SOD22341   3.396   5.999  16.619  0.4938 -0.1549  0.1548
  214SOD    SOD22342   4.128   4.025  17.151 -0.1403  0.5293  0.5113
  215SOD    SOD22343   6.369   1.961  13.202  0.2851 -0.2307 -0.0360
  216SOD    SOD22344   2.062   6.698  16.510 -0.0727 -0.5900  0.3567
  217SOD    SOD22345   4.476   5.726   1.448  0.0056  0.5143 -0.4602
  218SOD    SOD22346   0.201   4.349   1.947  0.1665  0.2732 -0.3196
  219SOD    SOD22347   2.608   6.231   6.355 -0.0332  0.2489 -0.0711
  220SOD    SOD22348   3.941   0.691  14.338  0.4438 -0.0137 -0.0939
  221SOD    SOD22349   1.894   2.834   6.715  0.5425  0.0927 -0.1878
  222SOD    SOD22350   3.009   3.590   4.328 -0.0122  0.1494 -0.3666
  223SOD    SOD22351   1.069   6.135   2.846  0.0675  0.0940 -0.2154
  224SOD    SOD22352   1.462   1.383  11.196 -0.1302 -0.2226 -0.3216
  225SOD    SOD22353   1.137   2.757   6.162 -0.1655 -0.1092 -0.0478
  226SOD    SOD22354   4.015   2.271  15.665 -0.6582  0.0960 -0.1039
  227SOD    SOD22355   2.351   1.901   2.917  0.1973 -0.6592 -0.5648
  228SOD    SOD22356   0.172   6.439  12.980  0.1909  0.1876  0.1508
  229SOD    SOD22357   4.002   2.181  12.854  0.1425 -0.4479 -0.3585
  230SOD    SOD22358   3.539   4.564  11.143 -0.2919 -0.4943  0.0454
  231SOD    SOD22359   4.106   3.323  15.405 -0.0830 -0.4952  0.3212
  232SOD    SOD22360   0.480   4.270  11.072 -0.1549  0.2357 -0.1186
  233SOD    SOD22361   3.903   6.685   5.505 -0.8656 -0.8866  0.1903
  234SOD    SOD22362   3.833   1.352   4.033 -0.2171 -0.1593 -0.3412
  235SOD    SOD22363   4.287   2.491  12.327 -0.4413 -0.2721 -0.0511
  236SOD    SOD22364   6.414   3.525  14.310 -0.0865 -0.0050  0.1167
  237SOD    SOD22365   5.000   5.253  12.922  0.0951  0.4475 -0.5648
  238SOD    SOD22366   0.223   5.301  11.318  0.1909  0.6781  0.7894
  239SOD    SOD22367   2.715   4.308  14.769  0.3908 -0.5259 -0.1059
  240SOD    SOD22368   3.269   3.119  15.873  0.0636 -0.2890 -0.4095
  241SOD    SOD22369   0.600   6.454   5.852  0.1685 -0.2916 -0.5488
  242SOD    SOD22370   5.387   4.851  14.866 -0.3589 -0.0595  0.0788
  243SOD    SOD22371   6.631   0.980  15.311  0.4741 -0.3872  0.3165
  244SOD    SOD22372   2.256   6.412   1.806 -0.3040 -0.6201 -0.1643
  245SOD    SOD22373   0.947   5.174  14.557 -0.6413 -0.3814  0.0121
  246SOD    SOD22374   3.689   6.481   1.813 -0.3719  0.4320 -0.2141
  247SOD    SOD22375   3.478   5.226  11.352 -0.2971  0.4059 -0.0773
  248SOD    SOD22376   5.006   4.545   4.653  0.4015  0.0260 -0.0963
  249SOD    SOD22377   5.681   6.004   3.319  0.2322  0.1632 -0.4621
  250SOD    SOD22378   1.944   3.305  12.317 -0.0427  0.0632  0.1544
  251SOD    SOD22379   3.631   3.503   1.148  0.0203 -0.5314  0.1547
  252SOD    SOD22380   1.945   6.584  11.534  0.3229  0.0030  0.5298
  253SOD    SOD22381   6.061   4.871   5.739  0.1170  0.2234 -0.1460
  254SOD    SOD22382   4.327   4.966   3.402 -0.1803  0.1226 -0.5379
  255SOD    SOD22383   6.111   3.579   4.646  0.2574  0.3575  0.4907
  256SOD    SOD22384   2.633   6.590   4.691 -0.6778  0.5843  0.4523
  257SOD    SOD22385   1.394   1.750   1.520 -0.0649  0.4473  0.2014
  258SOD    SOD22386   4.593   0.348  11.859 -0.1602  0.1274 -0.6198
  259SOD    SOD22387   3.916   0.642  16.867  0.1872  0.2025 -0.0609
  260SOD    SOD22388   3.192   4.587   3.347  0.1143  0.0874 -0.2151
  261SOD    SOD22389   2.596   3.998  11.352 -0.2989  0.2427 -0.2812
  262SOD    SOD22390   6.593   1.569   5.666 -0.3423  0.1370 -0.4990
  263SOD    SOD22391   1.509   3.670   0.341  0.0740  0.0786 -0.3779
  264SOD    SOD22392   1.886   0.210   3.421 -0.0579 -0.3388 -0.1149
  265SOD    SOD22393   0.079   5.987   3.420 -0.6087 -0.3589  0.0878
  266CLA    CLA22394   4.084   6.145   4.130  0.1821  0.4729 -0.0789
  267CLA    CLA22395   2.178   3.732  17.079  0.6422 -0.0438 -0.1558
  268CLA    CLA22396   6.463   2.821  12.792 -0.1047  0.0227 -0.5001
  269CLA    CLA22397   0.003   1.134  15.792  0.0217  0.3419 -0.1308
  270CLA    CLA22398   6.387   6.294  17.278 -0.4506  0.1778 -0.1819
  271CLA    CLA22399   1.685   4.959  13.337  0.0783 -0.0660  0.1041
  272CLA    CLA22400   6.117   6.733  12.112  0.0184 -0.3379 -0.3385
  273CLA    CLA22401   3.357   1.275   1.298 -0.2607 -0.6388 -0.1405
  274CLA    CLA22402   4.642   6.209  14.068  0.1254 -0.3896 -0.0217
  275CLA    CLA22403   0.281   3.867   1.777 -0.0883 -0.2242 -0.3607
  276CLA    CLA22404   1.881   2.499   0.547  0.1480 -0.1050 -0.1525
  277CLA    CLA22405   1.714   2.511   2.287 -0.2504  0.2156  0.2089
  278CLA    CLA22406   6.714   1.809   2.220  0.0261  0.3233 -0.3904
  279CLA    CLA22407   0.589   4.221  11.968  0.3742 -0.3140  0.4110
  280CLA    CLA22408   1.709   1.617   5.241 -0.0589  0.1006  0.0398
  281CLA    CLA22409   5.578   1.870   4.796  0.2686  0.1390 -0.1958
  282CLA    CLA22410   2.924   3.286  14.312 -0.4030  0.0588 -0.2023
  283CLA    CLA22411   2.004   4.923   2.119  0.1937  0.0291  0.2533
  284CLA    CLA22412   3.120   5.835   0.566 -0.1979 -0.2312 -0.0982
  285CLA    CLA22413   5.736   1.673  12.763 -0.2358 -0.1777 -0.1048
  286CLA    CLA22414   6.180   0.006  16.646 -0.1251 -0.0169  0.0988
  287CLA    CLA22415   4.879   4.744   2.503  0.4445  0.2900  0.2785
  288CLA    CLA22416   5.613   6.220  12.180 -0.4105 -0.2358 -0.2449
  289CLA    CLA22417   3.846   4.947  15.955  0.1440 -0.3013 -0.1743
  290CLA    CLA22418   5.998   6.217  14.662  0.1778  0.0339 -0.0350
  291CLA    CLA22419   2.786   3.479  15.423 -0.5277  0.5734 -0.3316
  292CLA    CLA22420   5.411   2.999  14.286  0.0624 -0.0651 -0.2019
  293CLA    CLA22421   2.726   3.302  11.795  0.2875  0.1062  0.6746
  294CLA    CLA22422   0.041   6.214   2.970 -0.4058 -0.1205  0.4300
  295CLA    CLA22423   2.518   5.737  13.850 -0.1561 -0.1638  0.1008
  296CLA    CLA22424   6.318   0.789  13.623  0.1289  0.5710  0.2345
  297CLA    CLA22425   4.042   1.036  15.034  0.1641  0.0554  0.1428
  298CLA    CLA22426   6.131   5.006   5.498  0.1411 -0.0096  0.1422
  299CLA    CLA22427   3.543   4.551   1.897 -0.4092  0.2923  0.2661
  300CLA    CLA22428   3.444   0.649  13.747 -0.1550 -0.0526 -0.3626
  301CLA    CLA22429   5.734   0.478   4.094  0.3734  0.2002 -0.0562
  302CLA    CLA22430   1.507   0.479   1.978 -0.5766  0.0560  0.0050
  303CLA    CLA22431   3.022   6.613   2.979  0.0567 -0.3550 -0.0138
  304CLA    CLA22432   1.363   5.597   3.118  0.0241 -0.0107 -0.0543
  305CLA    CLA22433   4.310   6.023  13.326 -0.1860 -0.3123  0.0194
  306CLA    CLA22434   5.777   4.399  13.877 -0.1926 -0.1048 -0.4054
  307CLA    CLA22435   3.136   4.741   1.381 -0.2306 -0.3830 -0.4515
  308CLA    CLA22436   4.611   5.083   4.772  0.0548  0.1163 -0.1711
  309CLA    CLA22437   4.678   3.499   0.744 -0.5097 -0.1168 -0.2633
  310CLA    CLA22438   6.123   2.611  15.099 -0.0629 -0.1924 -0.1005
  311CLA    CLA22439   1.042   1.668  12.445 -0.2548  0.0082  0.6787
  312CLA    CLA22440   3.745   4.028   2.539 -0.6138 -0.0702 -0.1311
  313CLA    CLA22441   2.242   1.277   2.365  0.0462  0.1252  0.0717
  314CLA    CLA22442   0.827   2.417   2.188 -0.5273 -0.2854 -0.0111
  315CLA    CLA22443   6.020   4.990   3.270  0.1670 -0.1343 -0.1873
  316CLA    CLA22444   1.341   6.007   3.391  0.0243  0.0586 -0.2094
  317CLA    CLA22445   5.627   4.509   0.824  0.0613  0.0105 -0.2043
  318CLA    CLA22446   6.475   3.719   3.427  0.0263  0.1725 -0.0446
  319TIP3   OH222447   4.072   5.028  15.388  0.1546  0.2151 -0.5683
  319TIP3    H122448   4.067   4.970  15.464  0.4950  1.4984  0.4393
  319TIP3    H222449   4.164   5.050  15.381 -0.1073  1.3685 -0.3927
  320TIP3   OH222450   5.744   2.585   0.660 -0.2228  0.4472  0.1229
  320TIP3    H122451   5.703   2.662   0.700  1.0504  0.8067  0.7574
  320TIP3    H222452   5.777   2.535   0.735 -2.0634 -1.3247 -0.2023
  321TIP3   OH222453   6.390   4.309   4.908  0.1790  0.2272 -0.9590
  321TIP3    H122454   6.341   4.365   4.969 -1.4234 -0.3127 -1.7267
  321TIP3    H222455   6.339   4.313   4.827  1.8515  0.2791 -2.0107
  322TIP3   OH222456   0.155   1.805   1.601  0.7193  0.1819  0.2106
  322TIP3    H122457   0.135   1.867   1.531 -0.7131 -0.5177 -0.0141
  322TIP3    H222458   0.130   1.851   1.682 -1.2755 -0.4253 -0.0199
  323TIP3   OH222459   0.637   1.731  10.835 -0.5915 -0.4223 -0.3364
  323TIP3    H122460   0.617   1.807  10.891 -1.7005 -1.2665  0.4248
  323TIP3    H222461   0.585   1.745  10.757 -1.9906 -1.1550  0.4432
  324TIP3   OH222462   4.536   5.143   2.245 -0.2465  0.4391 -0.4595
  324TIP3    H122463   4.567   5.060   2.281  1.2866  0.5944 -1.3731
  324TIP3    H222464   4.566   5.209   2.306  0.0297  0.4695 -0.6275
  325TIP3   OH222465   0.905   4.949  13.362  0.1785  0.1273  0.4874
  325TIP3    H122466   0.824   4.968  13.316  1.2630 -0.0147 -1.5259
  325TIP3    H222467   0.925   5.030  13.410 -0.4665  0.6126 -0.0548
  326TIP3   OH222468   1.998   1.291  11.873  0.3508 -0.3924 -1.1958
  326TIP3    H122469   1.972   1.321  11.785  0.4571  0.9239 -0.7785
  326TIP3    H222470   2.091   1.309  11.878 -0.0602  1.4657 -0.0409
  327TIP3   OH222471   0.178   3.819   4.528 -0.3509 -0.1800 -0.0217
  327TIP3    H122472   0.257   3.830   4.581  0.3760 -0.2759 -1.0795
  327TIP3    H222473   0.107   3.817   4.592  0.5545 -0.7555  0.9923
  328TIP3   OH222474   6.145   3.529   4.127 -0.7703  0.3604  0.2189
  328TIP3    H122475   6.169   3.438   4.140  2.0023  0.8913 -0.8202
  328TIP3    H222476   6.161   3.546   4.034 -1.1465  1.9397  0.4184
  329TIP3   OH222477   4.787   5.418   6.389  0.2388  0.5647 -0.4509
  329TIP3    H122478   4.741   5.334   6.383  2.1731 -0.4556 -1.7125
  329TIP3    H222479   4.860   5.401   6.449  0.2438  1.5312 -0.1724
  330TIP3   OH222480   6.257   5.464  13.499 -0.3293  0.1421  0.0812
  330TIP3    H122481   6.315   5.501  13.565  0.2056  3.1185 -1.9674
  330TIP3    H222482   6.169   5.478  13.533 -0.0485  1.2486  0.3591
  331TIP3   OH222483   6.373   5.068   4.770 -0.2909 -0.3350 -0.1542
  331TIP3    H122484   6.343   4.983   4.803  0.2803 -0.9396 -1.1399
  331TIP3    H222485   6.449   5.046   4.716  0.0701  0.8504 -0.1293
  332TIP3   OH222486   6.260   2.668   5.366 -0.1361 -0.1036  0.1566
  332TIP3    H122487   6.240   2.705   5.452  0.3438  2.1673 -0.6821
  332TIP3    H222488   6.183   2.615   5.344 -1.4218  1.4636  0.8108
  333TIP3   OH222489   2.833   1.583  13.385  0.5989 -0.3249  0.6332
  333TIP3    H122490   2.802   1.648  13.448 -1.5155  1.9219 -2.5580
  333TIP3    H222491   2.847   1.632  13.304  0.6632 -3.5225 -1.4136
  334TIP3   OH222492   4.000   6.006  16.372  0.1757 -0.2152 -0.4435
  334TIP3    H122493   4.064   6.072  16.398 -0.5655  0.8820 -1.3413
  334TIP3    H222494   3.915   6.049  16.383 -0.2933 -0.8933 -1.3450
  335TIP3   OH222495   6.216   3.201  11.900  0.1852  0.0888 -0.5550
  335TIP3    H122496   6.128   3.226  11.927  0.0360  2.0408 -2.6983
  335TIP3    H222497   6.224   3.110  11.929 -2.3871 -0.0214 -0.0007
  336TIP3   OH222498   0.818   1.136  12.682 -0.0655 -0.3986  0.3353
  336TIP3    H122499   0.732   1.136  12.640  0.0704  0.7959  0.0397
  336TIP3    H222500   0.872   1.080  12.625 -0.9161 -2.0992  1.1476
  337TIP3   OH222501   3.689   0.473  15.177 -0.1021  0.4495  0.2914
  337TIP3    H122502   3.773   0.471  15.222 -0.0931  2.1817  0.3611
  337TIP3    H222503   3.627   0.437  15.241  0.6336 -1.2799  0.0681
  338TIP3   OH222504   1.500   2.337  17.021  0.0471 -0.2852  0.1690
  338TIP3    H122505   1.416   2.299  16.996 -0.2782 -0.1671  1.0665
  338TIP3    H222506   1.517   2.402  16.952 -0.2629 -0.7812 -0.3872
  339TIP3   OH222507   2.243   5.587   5.329  0.6189 -0.1631  0.6204
  339TIP3    H122508   2.294   5.596   5.248  1.0714  0.4950  0.9758
  339TIP3    H222509   2.227   5.492   5.337  1.4231 -0.3304  0.2869
  340TIP3   OH222510   1.574   1.298   2.964 -0.1352 -0.1788 -0.4238
  340TIP3    H122511   1.603   1.280   2.874 -0.5030  1.8377 -0.9630
  340TIP3    H222512   1.497   1.243   2.976  0.1923 -0.8166 -1.1657
  341TIP3   OH222513   4.460   1.001   5.908  0.1471  0.2618 -0.8144
  341TIP3    H122514   4.492   0.929   5.962  0.5287  1.8016  1.0806
  341TIP3    H222515   4.539   1.042   5.874  0.0126  0.9920 -0.2551
  342TIP3   OH222516   6.777   0.884   2.276  0.4310  0.1678 -0.0242
  342TIP3    H122517   6.785   0.791   2.255  0.7264  0.0999  0.4056
  342TIP3    H222518   6.735   0.886   2.362 -2.3122  0.4717 -1.3059
  343TIP3   OH222519   1.852   2.427  16.440  0.0261 -0.2731  0.1284
  343TIP3    H122520   1.948   2.431  16.440  0.0398 -0.4680 -0.9062
  343TIP3    H222521   1.826   2.497  16.380 -0.5985  1.9399  2.8347
  344TIP3   OH222522   4.644   6.317   3.248  0.0778  0.1119  0.0617
  344TIP3    H122523   4.657   6.246   3.185  3.6880  1.0169 -0.3336
  344TIP3    H222524   4.725   6.368   3.243 -1.3439  2.7059  2.3010
  345TIP3   OH222525   1.387   5.104  14.909  0.2018 -0.3493 -0.5504
  345TIP3    H122526   1.370   5.056  14.828  1.6241  1.3607 -1.8957
  345TIP3    H222527   1.470   5.069  14.940  0.0056 -0.4972 -0.1807
  346TIP3   OH222528   1.821   5.618  12.646  0.0113  0.1394 -0.0315
  346TIP3    H122529   1.881   5.564  12.698 -0.2563 -0.3631 -0.2413
  346TIP3    H222530   1.845   5.708  12.668 -0.2271 -0.0625  1.1245
  347TIP3   OH222531   0.259   6.390   4.784 -0.4667  0.1254  0.0109
  347TIP3    H122532   0.287   6.300   4.801 -1.5506 -0.4003 -0.9161
  347TIP3    H222533   0.167   6.392   4.811  0.3443  1.8014  2.9036
  348TIP3   OH222534   4.019   5.273  14.024  0.1454  0.2449 -0.1487
  348TIP3    H122535   4.087   5.206  14.018  0.8130  1.0295 -1.7008
  348TIP3    H222536   4.037   5.318  14.107 -0.9298 -2.1231  1.4057
  349TIP3   OH222537   0.174   2.047   3.785  0.6494 -0.4695 -0.2217
  349TIP3    H122538   0.185   2.090   3.870  0.6246 -2.4091  0.7847
  349TIP3    H222539   0.091   2.080   3.751  0.3110 -0.2251  0.8416
  350TIP3   OH222540   1.352   1.870   4.809 -0.2265  0.3239 -0.5447
  350TIP3    H122541   1.319   1.836   4.726  0.5251  1.7310 -1.4413
  350TIP3    H222542   1.275   1.907   4.852 -0.5383 -0.0255 -0.8021
  351TIP3   OH222543   3.927   3.217  14.771 -0.2256  0.6892 -0.2828
  351TIP3    H122544   3.954   3.309  14.773  0.9992  0.4687 -3.5782
  351TIP3    H222545   4.009   3.168  14.781 -0.5593 -0.0366 -1.0406
  352TIP3   OH222546   3.716   3.279  12.975  0.1897 -0.2641 -0.1221
  352TIP3    H122547   3.710   3.234  13.059 -0.3224 -0.1257 -0.0825
  352TIP3    H222548   3.628   3.313  12.959  0.2814 -0.2865 -0.7107
  353TIP3   OH222549   5.434   1.084   1.830  0.1147  0.2985  0.1032
  353TIP3    H122550   5.491   1.043   1.765 -0.2849 -0.2181  0.0741
  353TIP3    H222551   5.359   1.024   1.837  0.0040  0.5141  0.7983
  354TIP3   OH222552   0.402   0.646  11.214  0.7550  0.5498 -0.1062
  354TIP3    H122553   0.338   0.695  11.267  0.0281  1.3460 -1.6998
  354TIP3    H222554   0.428   0.707  11.146  1.7675 -0.4464 -0.6226
  355TIP3   OH222555   1.867   2.835   3.083  0.0598 -0.1787  0.2289
  355TIP3    H122556   1.918   2.754   3.090  4.0904  2.2900  1.1321
  355TIP3    H222557   1.826   2.830   2.997  1.1116 -2.6878 -0.1742
  356TIP3   OH222558   4.720   3.348   1.017 -0.0533  0.4490  0.6092
  356TIP3    H122559   4.814   3.351   1.036  0.0566 -2.1748  0.6792
  356TIP3    H222560   4.710   3.398   0.936  1.3502  1.0969  0.8197
  357TIP3   OH222561   6.261   0.442   0.730 -0.1546  0.5604 -0.3442
  357TIP3    H122562   6.169   0.450   0.757 -0.4814  0.2834 -1.3323
  357TIP3    H222563   6.307   0.510   0.779 -1.1044  1.5308 -0.7600
  358TIP3   OH222564   2.638   4.718  13.297 -0.0753 -0.5067  0.5070
  358TIP3    H122565   2.572   4.661  13.259 -2.3253  1.5785  1.1825
  358TIP3    H222566   2.650   4.788  13.233  2.4339 -1.5082 -0.1788
  359TIP3   OH222567   2.076   3.324   0.507 -0.2613 -0.1623  0.1941
  359TIP3    H122568   2.163   3.301   0.474 -1.1984 -0.6562 -2.0063
  359TIP3    H222569   2.024   3.245   0.493 -1.5188  0.7113 -0.1160
  360TIP3   OH222570   2.620   0.947   1.259  0.1135  0.0286  0.0492
  360TIP3    H122571   2.681   1.015   1.287  0.2786  0.8505 -2.1658
  360TIP3    H222572   2.566   0.990   1.192  2.3354 -2.8640 -3.7704
  361TIP3   OH222573   5.058   0.302   3.070 -0.0381 -0.3428 -0.1896
  361TIP3    H122574   5.138   0.281   3.023 -0.1628  1.0950 -1.0593
  361TIP3    H222575   5.088   0.349   3.148  0.0121 -0.4239 -0.1604
  362TIP3   OH222576   5.270   4.995   3.219  0.5848  0.1102  0.2249
  362TIP3    H122577   5.261   5.090   3.231  1.8262  0.2166  0.3714
  362TIP3    H222578   5.306   4.986   3.130 -0.3228 -0.2629 -0.1026
  363TIP3   OH222579   3.741   2.321   5.661 -0.4850 -0.1190 -0.0667
  363TIP3    H122580   3.752   2.362   5.747 -0.1295  0.8613 -0.5805
  363TIP3    H222581   3.683   2.380   5.613  0.6583  0.1915 -1.0821
  364TIP3   OH222582   2.719   0.222   2.698 -0.3709 -0.0541 -0.4246
  364TIP3    H122583   2.802   0.263   2.674  1.0481 -1.1181  2.4863
  364TIP3    H222584   2.709   0.240   2.791 -1.7239 -2.7800 -0.0024
  365TIP3   OH222585   0.551   4.176  10.649  0.2686  0.9428  0.3608
  365TIP3    H122586   0.533   4.084  10.631 -0.4333  1.3092 -0.9484
  365TIP3    H222587   0.646   4.181  10.661  0.1318 -0.1788  1.9255
  366TIP3   OH222588   6.280   4.609  10.937  0.4319  0.0199 -0.0155
  366TIP3    H122589   6.207   4.652  10.891  0.8468 -2.1574 -2.8567
  366TIP3    H222590   6.358   4.656  10.907  0.6020 -0.7078 -0.7414
  367TIP3   OH222591   2.463   0.834   3.231 -0.0767 -0.1994  0.2731
  367TIP3    H122592   2.531   0.902   3.225 -0.6955  0.3370 -0.8182
  367TIP3    H222593   2.428   0.828   3.142 -1.8486 -0.0602  0.9464
  368TIP3   OH222594   0.160   4.240   6.267 -0.4571  0.4418  0.2609
  368TIP3    H122595   0.135   4.155   6.305 -0.7312  1.0934  1.5656
  368TIP3    H222596   0.243   4.223   6.223  0.6364 -0.0103  2.4257
  369TIP3   OH222597   5.679   0.926   2.844 -0.2782  0.6137  0.0781
  369TIP3    H122598   5.674   0.948   2.937 -2.3883 -1.5075  0.5131
  369TIP3    H222599   5.704   1.009   2.802 -1.0187  2.0528  2.3504
  370TIP3   OH222600   1.868   6.355  14.854 -0.0706  0.1699  0.4052
  370TIP3    H122601   1.942   6.342  14.796  0.2647 -0.9653  1.0620
  370TIP3    H222602   1.889   6.303  14.932 -1.3749  0.1281  0.7511
  371TIP3   OH222603   0.651   1.934  14.976  0.1439 -0.1739 -0.2550
  371TIP3    H122604   0.558   1.944  14.993 -0.2031  0.2944 -2.2524
  371TIP3    H222605   0.675   2.013  14.929  1.6294 -0.1535  0.5157
  372TIP3   OH222606   1.955   2.515   2.499 -0.4449  0.0056 -0.3960
  372TIP3    H122607   1.896   2.485   2.430 -1.2080  1.1186 -0.2438
  372TIP3    H222608   1.936   2.459   2.574 -0.2713 -0.5996 -0.8034
  373TIP3   OH222609   2.183   0.311  12.933  0.4626 -0.2014 -0.1372
  373TIP3    H122610   2.147   0.315  13.021  0.3300 -0.7643 -0.1609
  373TIP3    H222611   2.187   0.217  12.913  0.2543 -0.0717 -0.8224
  374TIP3   OH222612   2.373   6.690  16.774 -0.2772 -0.1641  0.1802
  374TIP3    H122613   2.434   6.691  16.847  0.3596 -0.6383 -0.3373
  374TIP3    H222614   2.345   6.598  16.768 -0.2516 -0.1490 -0.2264
  375TIP3   OH222615   5.125   2.886   2.765 -0.2346  0.2058  0.2225
  375TIP3    H122616   5.203   2.936   2.788 -0.3776  1.5745 -2.0952
  375TIP3    H222617   5.085   2.863   2.849  1.5589  1.2325  1.3817
  376TIP3   OH222618   2.803   4.166  13.511  0.0993 -0.0983  0.0828
  376TIP3    H122619   2.777   4.249  13.472  1.4952  0.4272  0.2570
  376TIP3    H222620   2.818   4.187  13.603 -0.8597 -0.8371  0.4193
  377TIP3   OH222621   1.662   2.231   4.432 -0.1193  0.4440 -0.1676
  377TIP3    H122622   1.593   2.290   4.403  0.7960 -0.0968 -3.7365
  377TIP3    H222623   1.624   2.144   4.425  0.0306  0.3060  0.6144
  378TIP3   OH222624   0.853   3.241   2.403  0.5205 -0.7484  0.1563
  378TIP3    H122625   0.804   3.176   2.453 -0.0840 -0.6991 -0.3709
  378TIP3    H222626   0.800   3.321   2.408  0.6579 -0.6314 -0.2196
  379TIP3   OH222627   2.156   4.030   5.882  0.4068  0.2530  0.0167
  379TIP3    H122628   2.245   4.049   5.914 -0.2854 -0.6594  2.6124
  379TIP3    H222629   2.114   4.115   5.877  0.4157  0.4124  2.0377
  380TIP3   OH222630   6.038   2.578  15.413 -0.0602  0.6085  0.1097
  380TIP3    H122631   6.004   2.488  15.410  1.6273 -0.1233  1.6590
  380TIP3    H222632   6.062   2.597  15.323  0.2757 -0.8157 -0.1225
  381TIP3   OH222633   3.614   1.180   1.453 -0.7687  0.5919  0.2089
  381TIP3    H122634   3.637   1.096   1.412 -0.2132  0.1259  1.4767
  381TIP3    H222635   3.540   1.211   1.401  1.1556  0.9871 -2.4708
  382TIP3   OH222636   6.171   2.597   2.202 -0.0341  0.1208 -0.1339
  382TIP3    H122637   6.258   2.556   2.198  0.0043 -0.0135  1.9356
  382TIP3    H222638   6.110   2.525   2.185  0.2207  0.0802 -0.8991
  383TIP3   OH222639   2.197   0.744  16.412  0.1960 -0.2862  0.1955
  383TIP3    H122640   2.182   0.748  16.506 -0.7451  1.3800 -0.0059
  383TIP3    H222641   2.222   0.833  16.388  1.2070 -0.8856 -1.0116
  384TIP3   OH222642   4.452   5.841  14.229 -0.0423  0.3243 -0.4720
  384TIP3    H122643   4.513   5.782  14.184 -0.1615  0.7658 -1.2369
  384TIP3    H222644   4.443   5.915  14.169 -0.1398  0.9701  0.3298
  385TIP3   OH222645   1.205   6.031   5.812  0.2369 -0.0861  0.0083
  385TIP3    H122646   1.287   6.080   5.818 -0.1448  0.5818 -0.1619
  385TIP3    H222647   1.207   5.972   5.888  1.1144 -0.4601 -0.3005
  386TIP3   OH222648   2.125   1.557   6.404 -0.2966  0.3401  0.2218
  386TIP3    H122649   2.152   1.465   6.395 -0.4346  0.3245 -0.0322
  386TIP3    H222650   2.078   1.560   6.487 -0.9482  0.0252 -0.1302
  387TIP3   OH222651   3.131   5.022   1.219  0.0299 -0.5322  0.2702
  387TIP3    H122652   3.134   4.938   1.265 -1.4292 -0.2371  0.9401
  387TIP3    H222653   3.191   5.078   1.269 -0.9179 -0.4519  1.3424
  388TIP3   OH222654   3.760   3.085   3.630  0.2338  0.6342 -0.3058
  388TIP3    H122655   3.799   3.172   3.618  1.2724  0.2699  0.4004
  388TIP3    H222656   3.713   3.091   3.713  1.1293  0.2314  0.2372
  389TIP3   OH222657   5.758   0.412  10.388 -0.5952  0.1932 -0.1813
  389TIP3    H122658   5.768   0.339  10.328 -0.8534  0.0052  0.0045
  389TIP3    H222659   5.705   0.378  10.460  1.8450 -0.3410  1.4254
  390TIP3   OH222660   2.538   1.113   6.156 -0.1569  0.7098  0.5584
  390TIP3    H122661   2.579   1.155   6.081  0.4601 -0.9777 -0.0697
  390TIP3    H222662   2.522   1.184   6.218 -0.7550  2.1146 -1.2031
  391TIP3   OH222663   2.740   1.769   1.984  0.0762 -0.0388  0.8619
  391TIP3    H122664   2.801   1.800   1.917 -1.2783  5.0090  1.7183
  391TIP3    H222665   2.761   1.822   2.061 -3.5703 -0.0978  1.9835
  392TIP3   OH222666   5.765   0.686  14.986  0.4945  0.3041 -0.1377
  392TIP3    H122667   5.765   0.715  14.895  3.6131 -0.2402 -0.3513
  392TIP3    H222668   5.766   0.590  14.980  0.2354  0.2610  0.4798
  393TIP3   OH222669   6.154   4.145  14.166 -0.0882 -0.0460  0.3798
  393TIP3    H122670   6.081   4.143  14.228 -0.3872 -1.2220  0.0045
  393TIP3    H222671   6.120   4.196  14.091 -0.0265  0.6231  0.8019
  394TIP3   OH222672   1.752   2.487   5.732  0.0265  0.1105 -0.1518
  394TIP3    H122673   1.697   2.414   5.761 -1.4282  1.1458 -0.1994
  394TIP3    H222674   1.815   2.500   5.802  0.4900 -1.3833 -0.2839
  395TIP3   OH222675   2.630   6.508  14.089 -0.1974 -0.3085 -0.5807
  395TIP3    H122676   2.722   6.528  14.072  0.0361 -0.6394  0.2688
  395TIP3    H222677   2.609   6.437  14.027  0.7170 -1.6726  0.6390
  396TIP3   OH222678   0.546   3.214   3.601  0.3114 -0.3438  0.3512
  396TIP3    H122679   0.515   3.131   3.563 -0.7472  0.5978 -0.8798
  396TIP3    H222680   0.475   3.241   3.660 -0.3487  0.7788 -0.9210
  397TIP3   OH222681   3.074   0.422   0.220 -0.6216 -0.3532  0.0388
  397TIP3    H122682   3.041   0.359   0.155 -0.9267  1.0915 -1.2365
  397TIP3    H222683   3.137   0.475   0.172 -0.1031  0.1041  1.2050
  398TIP3   OH222684   1.361   4.977  14.667  0.2991 -0.3652 -0.3797
  398TIP3    H122685   1.384   4.893  14.705 -0.7144 -1.5292 -2.2775
  398TIP3    H222686   1.328   4.956  14.579 -3.0122  1.6896  0.2861
  399TIP3   OH222687   5.092   0.405  13.004 -0.6469  0.0505  0.0241
  399TIP3    H122688   5.080   0.376  12.914 -2.8604 -2.9262  1.1990
  399TIP3    H222689   5.142   0.335  13.045 -1.3475  0.4607  1.5988
  400TIP3   OH222690   3.057   3.221  15.883  0.1518 -0.2960 -0.2887
  400TIP3    H122691   2.984   3.162  15.897  1.1304 -1.5052 -0.2363
  400TIP3    H222692   3.025   3.306  15.913 -1.1190 -0.8691  0.0064
  401TIP3   OH222693   4.048   6.781  12.343 -0.6816 -0.0609  0.0037
  401TIP3    H122694   3.999   6.772  12.425 -1.4655 -0.0193 -0.4559
  401TIP3    H222695   4.041   6.874  12.321 -1.9369 -0.3757 -0.9974
  402TIP3   OH222696   6.479   3.479  14.516  0.8267 -0.5736 -0.5753
  402TIP3    H122697   6.450   3.511  14.601 -3.0177 -1.6227 -1.3689
  402TIP3    H222698   6.551   3.419  14.536  0.4613 -0.2606  1.8459
  403TIP3   OH222699   2.775   4.297   6.528  0.3647 -0.7104 -0.2194
  403TIP3    H122700   2.755   4.207   6.503 -1.3372 -0.2472 -0.5519
  403TIP3    H222701   2.830   4.330   6.457 -1.9758 -0.3668 -1.9398
  404TIP3   OH222702   3.199   4.928   4.528  0.3566 -0.4058 -0.1197
  404TIP3    H122703   3.162   4.988   4.593 -0.0791 -0.7330 -0.0602
  404TIP3    H222704   3.124   4.900   4.476  0.6462 -0.4498 -0.5161
  405TIP3   OH222705   6.165   2.847  11.365  0.0912  0.1172 -0.3789
  405TIP3    H122706   6.126   2.892  11.440 -1.3997 -0.5867 -0.6980
  405TIP3    H222707   6.218   2.913  11.321 -0.6803  1.0868  0.1381
  406TIP3   OH222708   1.820   1.976   6.636  0.6537  0.3821 -0.1563
  406TIP3    H122709   1.880   1.940   6.701  0.8239 -0.4239 -0.7469
  406TIP3    H222710   1.773   1.900   6.602  1.3336  0.6375 -1.7437
  407TIP3   OH222711   6.105   3.938   3.038  0.3963  0.9194  0.6821
  407TIP3    H122712   6.013   3.944   3.065  0.2642  1.7222  0.0893
  407TIP3    H222713   6.151   3.910   3.117 -0.7025 -2.2117  0.2683
  408TIP3   OH222714   4.532   1.811   0.745 -0.0987 -0.4185 -0.4861
  408TIP3    H122715   4.485   1.836   0.666 -1.2172 -0.6958  0.0862
  408TIP3    H222716   4.587   1.887   0.766 -0.7494  0.1392 -0.8102
  409TIP3   OH222717   5.529   3.007  12.843 -0.2164  0.2782 -0.4236
  409TIP3    H122718   5.586   2.991  12.767 -1.7769  1.1242 -1.8001
  409TIP3    H222719   5.538   2.928  12.897  3.7469  1.1621  0.3882
  410TIP3   OH222720   2.790   5.745   0.587  1.1154  0.5087 -0.2922
  410TIP3    H122721   2.807   5.662   0.630  0.0485 -0.1161 -1.0534
  410TIP3    H222722   2.875   5.774   0.555  1.6245  0.1252  0.7182
  411TIP3   OH222723   5.353   2.796   5.308  0.1083 -0.5410  0.2523
  411TIP3    H122724   5.272   2.829   5.345  0.5757  1.3003 -0.3220
  411TIP3    H222725   5.326   2.727   5.248 -0.9683 -0.5268  0.7157
  412TIP3   OH222726   2.354   0.289  15.620  0.0393 -0.0707  0.5532
  412TIP3    H122727   2.431   0.297  15.564 -0.6930 -2.2492 -0.8329
  412TIP3    H222728   2.284   0.334  15.571  0.1528  0.9401  1.2975
  413TIP3   OH222729   1.699   4.717  13.127  0.5137 -0.0333 -0.5187
  413TIP3    H122730   1.649   4.785  13.172  0.1572  0.1459 -1.1726
  413TIP3    H222731   1.772   4.697  13.186 -1.7044 -2.1164  1.6158
  414TIP3   OH222732   2.507   1.322  14.874  0.2514 -0.0317  0.0033
  414TIP3    H122733   2.412   1.327  14.870  0.2826  1.2714  0.5102
  414TIP3    H222734   2.528   1.339  14.965  1.0925  2.4916 -0.6103
  415TIP3   OH222735   1.583   4.337  12.379  0.7719  0.0414 -0.3775
  415TIP3    H122736   1.609   4.250  12.408  1.4073 -0.5473 -2.5851
  415TIP3    H222737   1.499   4.323  12.335  1.0085  0.4704 -0.9837
  416TIP3   OH222738   0.483   2.784   5.456  0.7286  0.4758  0.1060
  416TIP3    H122739   0.449   2.737   5.380 -0.9921 -0.8161  1.6275
  416TIP3    H222740   0.418   2.852   5.473 -0.3536 -0.9912  2.0608
  417TIP3   OH222741   1.091   2.416   1.702 -0.0461 -0.0261 -0.7666
  417TIP3    H122742   1.106   2.390   1.793  0.1724  1.0989 -0.4682
  417TIP3    H222743   1.133   2.347   1.650 -0.6415 -0.9578 -0.0286
  418TIP3   OH222744   4.894   4.781  16.488 -0.6039  0.1915  0.4851
  418TIP3    H122745   4.969   4.730  16.456 -1.4784 -1.3459  0.8052
  418TIP3    H222746   4.836   4.715  16.526 -1.1073  1.6318  2.2321
  419TIP3   OH222747   3.497   1.875   0.469 -0.1210 -0.8032 -0.4233
  419TIP3    H122748   3.419   1.920   0.502 -0.1487 -0.9070 -0.3471
  419TIP3    H222749   3.466   1.787   0.447  0.1160 -1.0561  0.2259
  420TIP3   OH222750   2.740   2.781  13.864 -0.6818  0.2680  0.1322
  420TIP3    H122751   2.829   2.813  13.848 -0.5611  0.6693  1.5346
  420TIP3    H222752   2.752   2.697  13.908 -1.0110 -0.2421 -0.7280
  421TIP3   OH222753   3.318   6.382  16.580 -0.2951  0.3301  0.1704
  421TIP3    H122754   3.376   6.324  16.531 -2.2390 -0.8787 -0.8058
  421TIP3    H222755   3.264   6.424  16.513 -0.4995  1.4740  1.0472
  422TIP3   OH222756   3.950   2.153  17.167 -0.5856  0.3003 -0.7732
  422TIP3    H122757   4.012   2.134  17.238  1.0450  0.5562 -2.0985
  422TIP3    H222758   3.965   2.245  17.146 -2.1572  0.6529 -0.4378
  423TIP3   OH222759   5.245   3.575  14.246 -0.3281  0.6209 -0.1128
  423TIP3    H122760   5.182   3.591  14.316 -0.0798  0.2891  0.1896
  423TIP3    H222761   5.248   3.479  14.238  0.2597  0.6270 -0.0090
  424TIP3   OH222762   1.029   3.808   5.750 -0.5281  0.7512 -0.1713
  424TIP3    H122763   0.981   3.872   5.697 -1.7344  0.2712  0.3035
  424TIP3    H222764   0.964   3.740   5.769  1.2461 -1.6195 -2.2772
  425TIP3   OH222765   1.773   5.070   3.866 -0.2075  0.2659  0.3797
  425TIP3    H122766   1.690   5.035   3.897 -0.5011  0.8735  0.3009
  425TIP3    H222767   1.821   4.995   3.832 -0.1196 -0.3164  1.7739
  426TIP3   OH222768   4.491   0.524   0.560 -0.0621  0.4352 -0.3573
  426TIP3    H122769   4.472   0.489   0.473  1.8902 -1.0312 -0.2166
  426TIP3    H222770   4.563   0.471   0.592 -0.8983  0.8107  2.2726
  427TIP3   OH222771   5.403   1.071   3.969 -0.3469 -0.7629 -0.1945
  427TIP3    H122772   5.316   1.108   3.961 -0.8546 -1.8850  0.0697
  427TIP3    H222773   5.395   1.003   4.035  0.7155 -0.9213 -0.2106
  428TIP3   OH222774   5.965   0.042   1.280  0.2762  0.2757 -0.5696
  428TIP3    H122775   5.977  -0.012   1.202  0.4537  0.7608 -0.8871
  428TIP3    H222776   5.879   0.018   1.314 -0.0480  0.4613 -1.2437
  429TIP3   OH222777   3.230   3.978   0.666 -0.2042 -0.2059  0.0817
  429TIP3    H122778   3.265   4.064   0.689  0.7551 -0.3044 -0.9698
  429TIP3    H222779   3.135   3.989   0.668 -0.1064  0.3735  1.8108
  430TIP3   OH222780   6.255   1.518  12.562  0.1784 -0.0636 -0.0447
  430TIP3    H122781   6.170   1.487  12.594 -0.5167  1.0165 -0.8412
  430TIP3    H222782   6.302   1.438  12.539 -0.8231 -0.6314 -0.1224
  431TIP3   OH222783   6.466   1.558  11.887  0.0218 -0.4040 -0.2604
  431TIP3    H122784   6.457   1.466  11.912 -0.0826 -0.3624 -0.1474
  431TIP3    H222785   6.408   1.605  11.947  3.2586  0.2110  2.5258
  432TIP3   OH222786   1.281   5.657   2.814  0.7950  0.1868 -0.4242
  432TIP3    H122787   1.322   5.641   2.899 -0.7887  0.7822  0.4663
  432TIP3    H222788   1.207   5.598   2.811  1.3323 -0.4334 -1.7683
  433TIP3   OH222789   6.816   6.554   3.787 -0.3290  0.2052  0.2428
  433TIP3    H122790   6.793   6.627   3.845 -0.8071  0.8342 -0.7233
  433TIP3    H222791   6.843   6.596   3.706  0.7557 -0.6641  0.1513
  434TIP3   OH222792   2.219   0.696  14.558 -0.2015  1.2096  0.5515
  434TIP3    H122793   2.232   0.641  14.480 -1.0836  0.1064  1.1723
  434TIP3    H222794   2.201   0.784  14.522 -0.6384  0.7047 -0.4938
  435TIP3   OH222795   5.940   0.516   1.903 -0.1067 -0.2880 -0.5680
  435TIP3    H122796   6.016   0.491   1.851 -1.6658 -2.5431 -1.8860
  435TIP3    H222797   5.903   0.432   1.933 -1.5518  0.8026  0.8118
  436TIP3   OH222798   4.103   1.253   6.043 -0.0158 -0.3205 -0.0323
  436TIP3    H122799   4.192   1.288   6.042 -0.0576 -0.0513  2.3102
  436TIP3    H222800   4.114   1.159   6.060 -0.2128  0.0278  2.2034
  437TIP3   OH222801   2.715   1.880  17.062 -0.2053  0.2702 -0.2755
  437TIP3    H122802   2.799   1.834  17.067 -1.3161 -1.8070 -0.1054
  437TIP3    H222803   2.687   1.889  17.153 -0.4982  0.3512 -0.3770
  438TIP3   OH222804   6.357   4.568   3.112  0.3578  0.8106  0.0361
  438TIP3    H122805   6.299   4.602   3.044  1.3071  1.6090 -0.3822
  438TIP3    H222806   6.327   4.612   3.192  1.9643  3.1566 -0.6009
  439TIP3   OH222807   0.369   5.469  16.443  0.1898 -0.2120  0.3883
  439TIP3    H122808   0.427   5.503  16.375 -0.8986  2.2363  0.6057
  439TIP3    H222809   0.324   5.547  16.476 -3.2842 -2.0114  0.1354
  440TIP3   OH222810   4.741   0.432   2.682  0.2144  0.1252  0.6762
  440TIP3    H122811   4.651   0.463   2.667  0.2030  0.2048  0.9095
  440TIP3    H222812   4.737   0.339   2.662  0.2880  0.3034 -0.1893
  441TIP3   OH222813   2.369   2.227  15.532  0.1509  0.3578 -0.1178
  441TIP3    H122814   2.368   2.156  15.597 -0.1518  0.3627 -0.1144
  441TIP3    H222815   2.331   2.302  15.579 -1.1996  0.0365 -0.6574
  442TIP3   OH222816   5.125   5.292   1.693  0.4054  0.1185  0.1737
  442TIP3    H122817   5.065   5.217   1.693 -0.7781  1.0367  0.3634
  442TIP3    H222818   5.152   5.301   1.784  1.0711 -0.4728  0.0401
  443TIP3   OH222819   1.026   0.193  17.142 -0.4992  0.0622  0.4094
  443TIP3    H122820   1.082   0.156  17.211  0.4774 -0.1669 -0.4975
  443TIP3    H222821   1.020   0.123  17.077  0.4839  1.1057 -0.8267
  444TIP3   OH222822   1.914   2.154   1.194 -0.3989  0.1742 -0.2641
  444TIP3    H122823   1.889   2.196   1.276 -2.2350 -1.4321  0.0121
  444TIP3    H222824   1.865   2.201   1.127 -1.2120 -0.4583 -0.1201
  445TIP3   OH222825   1.853   6.235  17.219 -0.1299 -0.3339 -0.4582
  445TIP3    H122826   1.767   6.216  17.182  0.1785 -1.8418 -0.4494
  445TIP3    H222827   1.899   6.151  17.215  0.8325  0.1145  0.8677
  446TIP3   OH222828   3.959   3.931  16.601  0.5519  0.1852  0.1318
  446TIP3    H122829   3.971   4.026  16.596  0.5875  0.0938 -2.3485
  446TIP3    H222830   3.878   3.914  16.553  0.0260 -0.9488  1.4019
  447TIP3   OH222831   0.050   4.310  13.137 -0.1588 -0.5198 -0.2435
  447TIP3    H122832  -0.014   4.332  13.070 -0.0103 -1.9923 -0.8976
  447TIP3    H222833   0.134   4.332  13.098 -0.2264  0.9126  0.4087
  448TIP3   OH222834   5.455   4.202   0.407 -0.6559 -0.0649 -0.0119
  448TIP3    H122835   5.453   4.244   0.493  0.2342  1.1518 -0.5644
  448TIP3    H222836   5.511   4.259   0.354  1.1233 -2.2752 -0.6217
  449TIP3   OH222837   1.844   5.132  15.442 -0.6364 -0.4431  0.0918
  449TIP3    H122838   1.836   5.092  15.356  1.7627  1.4245 -1.0508
  449TIP3    H222839   1.765   5.185  15.452 -0.3529  0.2897 -1.4739
  450TIP3   OH222840   5.414   3.197   2.291  0.1799  0.4346  0.1540
  450TIP3    H122841   5.473   3.271   2.277  1.5166 -0.3222  1.6904
  450TIP3    H222842   5.445   3.131   2.229 -0.3316  0.7611 -0.4553
  451TIP3   OH222843   6.752   5.846   4.266 -0.2999 -0.3379  0.2956
  451TIP3    H122844   6.735   5.909   4.195 -0.3964  0.4298  0.9993
  451TIP3    H222845   6.668   5.801   4.278  0.2253 -1.8613 -1.4076
  452TIP3   OH222846   1.506   2.892  16.607 -0.2654  0.4189  0.5595
  452TIP3    H122847   1.586   2.899  16.658 -0.4276  1.9196  0.6273
  452TIP3    H222848   1.446   2.955  16.648 -0.2220  2.0668 -1.7971
  453TIP3   OH222849   0.115   6.071   1.901 -0.2317  0.2961 -0.2758
  453TIP3    H122850   0.058   6.025   1.963  0.1840  1.2769  0.8306
  453TIP3    H222851   0.129   6.007   1.831 -0.2540 -1.0180  0.8930
  454TIP3   OH222852   2.794   4.739  15.250 -0.1307  0.8523  0.1184
  454TIP3    H122853   2.724   4.761  15.188 -0.8957 -2.1171 -0.1922
  454TIP3    H222854   2.748   4.725  15.333  0.3819  0.9561  0.4180
  455TIP3   OH222855   2.267   5.393   4.435 -0.0584 -0.3361 -0.0944
  455TIP3    H122856   2.313   5.476   4.424 -2.0055  0.8384  0.4051
  455TIP3    H222857   2.307   5.355   4.514 -0.4193  1.0005  0.7601
  456TIP3   OH222858   4.347   2.786  15.170  0.4738  0.0507 -0.4352
  456TIP3    H122859   4.311   2.714  15.117 -0.9453  0.4282 -0.0134
  456TIP3    H222860   4.392   2.842  15.106  1.2273 -0.9947 -0.8280
  457TIP3   OH222861   4.481   2.147   3.610  0.6204 -0.7476  0.3157
  457TIP3    H122862   4.394   2.115   3.584  0.0063  0.5224  0.7739
  457TIP3    H222863   4.519   2.074   3.659 -0.8201 -0.7457  1.4724
  458TIP3   OH222864   4.810   0.588  13.348  0.3656 -0.0775  0.2478
  458TIP3    H122865   4.826   0.512  13.292  0.0807  1.5424 -2.0468
  458TIP3    H222866   4.717   0.607  13.337  0.6593  1.2273  0.0481
  459TIP3   OH222867   0.306   4.476   2.136 -0.2947  0.3031  0.4557
  459TIP3    H122868   0.227   4.470   2.190 -0.2235 -0.8541  0.4513
  459TIP3    H222869   0.377   4.450   2.194  0.3253  3.0350  0.9505
  460TIP3   OH222870   4.609   3.975  12.735 -0.0303 -0.5167  0.5441
  460TIP3    H122871   4.580   3.917  12.805 -0.2147  0.1512  1.0305
  460TIP3    H222872   4.704   3.964  12.732 -0.0969 -1.0477  0.4537
  461TIP3   OH222873   5.130   4.530   5.333  0.2416  0.3085  0.5103
  461TIP3    H122874   5.057   4.488   5.378  0.9293  0.3435  1.6841
  461TIP3    H222875   5.197   4.541   5.401  1.3355  0.2846 -0.5358
  462TIP3   OH222876   6.764   4.998   6.176 -0.0522 -0.0239  0.5705
  462TIP3    H122877   6.765   5.091   6.150 -0.0546 -0.4628 -1.0744
  462TIP3    H222878   6.674   4.982   6.202 -0.3400  0.1280 -0.3220
  463TIP3   OH222879   5.549   3.559   1.288  0.0615  0.0473 -0.1543
  463TIP3    H122880   5.628   3.596   1.249  0.9723 -0.9375  0.7059
  463TIP3    H222881   5.543   3.471   1.251  1.3456 -1.1754  2.4149
  464TIP3   OH222882   0.926   6.454  12.857 -0.2807 -0.4105 -0.2934
  464TIP3    H122883   0.970   6.453  12.772  0.2106 -1.4368 -0.0357
  464TIP3    H222884   0.850   6.396  12.846 -0.1874 -0.5866 -0.0198
  465TIP3   OH222885   5.189   1.146  13.396 -0.6160  0.0841  0.5355
  465TIP3    H122886   5.206   1.176  13.486 -0.8000  2.5011 -0.2111
  465TIP3    H222887   5.197   1.050  13.401 -1.6788  0.0911  3.3504
  466TIP3   OH222888   3.247   3.134  11.840 -0.3555  0.5751 -0.4244
  466TIP3    H122889   3.176   3.123  11.778 -0.4863 -0.0775 -0.1592
  466TIP3    H222890   3.250   3.051  11.888  0.5496  0.6230 -0.4021
  467TIP3   OH222891   3.224   4.970   5.911 -0.4024  0.2524 -0.0148
  467TIP3    H122892   3.258   5.050   5.951 -2.5628  0.8644  0.6385
  467TIP3    H222893   3.141   4.996   5.872 -0.0831 -1.1974 -1.7047
  468TIP3   OH222894   1.981   1.725   6.248  0.6331 -0.5049 -0.0185
  468TIP3    H122895   1.898   1.691   6.281 -0.3286  1.6575 -0.1145
  468TIP3    H222896   2.047   1.665   6.283 -0.8934 -1.7556  0.7689
  469TIP3   OH222897   0.138   4.342  14.888 -0.1210  0.1678  0.0628
  469TIP3    H122898   0.125   4.423  14.938  0.8655  0.1842  0.3026
  469TIP3    H222899   0.054   4.296  14.896 -0.7989  1.3083 -0.3384
  470TIP3   OH222900   4.639   2.550   3.569 -0.0786  0.0926 -0.7359
  470TIP3    H122901   4.723   2.506   3.554 -0.1796 -0.1055 -0.7306
  470TIP3    H222902   4.597   2.498   3.638 -0.4928 -0.1971 -1.2069
  471TIP3   OH222903   4.973   2.508  11.889 -0.2948 -0.2572 -0.0360
  471TIP3    H122904   5.056   2.551  11.909 -0.4302 -0.0780  0.1514
  471TIP3    H222905   4.918   2.578  11.853  0.4346 -0.8871 -2.4303
  472TIP3   OH222906   0.462   5.544  14.391 -0.2234  0.1879  0.1419
  472TIP3    H122907   0.505   5.596  14.459  1.3775 -2.6552  1.3625
  472TIP3    H222908   0.533   5.498  14.347 -1.8483 -4.4211  2.0604
  473TIP3   OH222909   5.145   0.886  13.840  0.3296  0.2180 -0.0054
  473TIP3    H122910   5.155   0.948  13.768  0.8579  1.4104  1.0763
  473TIP3    H222911   5.213   0.910  13.902  0.7086 -1.6230  0.3323
  474TIP3   OH222912   4.983   3.832  15.543 -0.2344 -0.3499 -0.3855
  474TIP3    H122913   5.055   3.802  15.487  1.1104  2.6562 -0.4084
  474TIP3    H222914   4.940   3.901  15.492 -1.8602 -0.7041  0.4737
  475TIP3   OH222915   2.635   6.495  13.449 -0.1219  0.0288 -0.1082
  475TIP3    H122916   2.653   6.498  13.543  1.9356 -0.0974 -0.4683
  475TIP3    H222917   2.557   6.548  13.438  0.3551  1.1170  1.5306
  476TIP3   OH222918   4.851   0.458   4.456 -0.3890 -0.0142 -0.4838
  476TIP3    H122919   4.922   0.416   4.407 -0.8185 -0.4728 -0.7108
  476TIP3    H222920   4.896   0.504   4.528  0.1516 -0.1793 -0.7113
  477TIP3   OH222921   0.641   2.040  14.170  0.4153 -0.5985 -0.4365
  477TIP3    H122922   0.610   1.986  14.097  0.5017 -0.5754 -0.4901
  477TIP3    H222923   0.639   1.980  14.246  0.0038 -0.5269 -0.3889
  478TIP3   OH222924   4.276   3.969  13.276 -0.3086  0.9286  0.3795
  478TIP3    H122925   4.206   3.976  13.341 -1.6552  0.1844 -0.9507
  478TIP3    H222926   4.239   4.006  13.196 -0.5131 -2.6195 -1.3055
  479TIP3   OH222927   2.193   3.222   4.884  0.0216  0.2990  0.8029
  479TIP3    H122928   2.278   3.182   4.901 -0.6151 -1.3953  0.1746
  479TIP3    H222929   2.152   3.229   4.971 -0.1447 -1.1440  0.8613
  480TIP3   OH222930   0.424   2.865   3.109  0.6276  0.2734  0.4106
  480TIP3    H122931   0.426   2.881   3.015 -0.1472 -0.8428  0.2089
  480TIP3    H222932   0.447   2.950   3.148 -0.1525  1.0226 -0.7489
  481TIP3   OH222933   1.392   2.432   5.636  0.4762 -0.2268 -0.2914
  481TIP3    H122934   1.364   2.361   5.693  0.0381  0.5426  0.4625
  481TIP3    H222935   1.422   2.389   5.556 -0.1179 -1.2305  0.0249
  482TIP3   OH222936   0.113   0.721   2.001 -0.4004 -0.0142  0.5462
  482TIP3    H122937   0.203   0.753   2.006 -0.0450 -1.1741  1.7168
  482TIP3    H222938   0.059   0.799   2.013  0.4335  0.8005 -0.8337
  483TIP3   OH222939   1.845   0.709   2.759 -0.2983 -0.7350  0.0025
  483TIP3    H122940   1.836   0.617   2.782 -0.3476 -0.5261  0.8403
  483TIP3    H222941   1.756   0.744   2.765 -0.1176 -0.3932  0.7501
  484TIP3   OH222942   2.195   6.575   5.371 -0.2082  0.8421 -0.3042
  484TIP3    H122943   2.211   6.483   5.349 -0.2567  0.6970  0.2670
  484TIP3    H222944   2.128   6.572   5.439  0.6370  1.2467  0.5568
  485TIP3   OH222945   2.834   2.952   1.902 -0.2185  0.2571 -0.0278
  485TIP3    H122946   2.840   2.944   1.997 -1.2674  1.1525  0.1272
  485TIP3    H222947   2.746   2.921   1.881  0.1824 -0.3918 -0.7567
  486TIP3   OH222948   5.043   5.702   3.128  0.3650  0.0593  0.4662
  486TIP3    H122949   5.090   5.669   3.205  1.0240  0.5555  0.2829
  486TIP3    H222950   4.971   5.753   3.165  0.7043  0.3345  0.7658
  487TIP3   OH222951   4.251   1.834  16.040  0.0303 -0.1211 -0.6793
  487TIP3    H122952   4.327   1.782  16.067  0.8061  0.5618 -1.5308
  487TIP3    H222953   4.189   1.769  16.007 -0.5493 -0.8804  1.7570
  488TIP3   OH222954   2.978   4.853  14.367  0.2490 -0.3889  0.3815
  488TIP3    H122955   3.055   4.904  14.342  0.5711 -0.5788  0.9888
  488TIP3    H222956   2.950   4.890  14.450 -1.4732  0.9565 -0.7511
  489TIP3   OH222957   0.866   4.821  14.771  0.5148  0.2138  0.8143
  489TIP3    H122958   0.927   4.839  14.842  2.6340 -0.5346 -0.7869
  489TIP3    H222959   0.885   4.731  14.745 -0.0764  0.5578 -0.8577
  490TIP3   OH222960   4.775   5.655   1.204  0.1275  0.0689  0.1958
  490TIP3    H122961   4.802   5.574   1.248 -1.0335  0.4013  1.5425
  490TIP3    H222962   4.855   5.686   1.161  0.3778 -2.2985 -1.1622
  491TIP3   OH222963   2.536   5.097   3.852  0.6953  0.9306 -0.0276
  491TIP3    H122964   2.566   5.132   3.936 -0.7289  2.1896 -0.0309
  491TIP3    H222965   2.476   5.026   3.875  1.7643  0.0050 -0.0150
  492TIP3   OH222966   5.955   2.142  17.082 -0.4052  0.2869 -0.0816
  492TIP3    H122967   5.955   2.087  17.003  0.5929  1.1255 -0.6731
  492TIP3    H222968   5.863   2.165  17.094 -0.9105 -1.8270  0.3983
  493TIP3   OH222969   5.405   1.172   5.012 -0.6917  0.0227  0.2352
  493TIP3    H122970   5.361   1.238   5.066 -0.3186 -0.5362  1.2298
  493TIP3    H222971   5.344   1.099   5.009 -0.6325 -0.0186  0.0654
  494TIP3   OH222972   0.247   6.337   1.322  0.1234  0.3633  0.2111
  494TIP3    H122973   0.166   6.286   1.311 -0.0920  0.9049 -0.8017
  494TIP3    H222974   0.231   6.391   1.399 -0.2841  0.0910  0.3223
  495TIP3   OH222975   2.601   2.684   6.267  0.1595  0.4656  0.2037
  495TIP3    H122976   2.583   2.754   6.205  0.7974  0.9440  0.5579
  495TIP3    H222977   2.661   2.626   6.221 -0.5112  0.0467 -0.1568
  496TIP3   OH222978   1.907   6.266   0.257  0.1701  0.1085 -0.3192
  496TIP3    H122979   1.854   6.230   0.186 -1.0051  0.5199  0.3536
  496TIP3    H222980   1.974   6.318   0.213 -2.0159  2.3721 -1.0623
  497TIP3   OH222981   5.937   6.419  10.672 -0.4636  0.0271 -0.4969
  497TIP3    H122982   6.004   6.402  10.738 -0.4897  0.8512 -0.2602
  497TIP3    H222983   5.895   6.334  10.659  0.4385 -0.4394 -0.4438
  498TIP3   OH222984   1.748   5.754  17.025 -0.7035  0.1842  0.0699
  498TIP3    H122985   1.801   5.704  17.086 -1.6694  0.9087  1.5375
  498TIP3    H222986   1.805   5.768  16.949  0.1213 -1.6964  0.3110
  499TIP3   OH222987   3.573   6.620   0.701  0.1359 -0.3618  0.4504
  499TIP3    H122988   3.505   6.660   0.756  0.2283  2.7738 -1.5381
  499TIP3    H222989   3.655   6.645   0.742  0.1529 -0.0373  0.2257
  500TIP3   OH222990   4.303   5.749  12.490 -0.0337 -0.4016  0.1412
  500TIP3    H122991   4.210   5.768  12.476 -0.3307 -1.5786  0.4261
  500TIP3    H222992   4.312   5.747  12.586  0.1094 -1.0963  0.1135
  501TIP3   OH222993   2.946   6.693  13.389 -0.5192 -0.9368 -0.1657
  501TIP3    H122994   3.030   6.646  13.396  0.4686  0.3138 -2.9965
  501TIP3    H222995   2.941   6.744  13.469  2.0803 -0.0275 -0.5334
  502TIP3   OH222996   4.238   0.088   0.158 -0.4651 -0.3364 -0.0727
  502TIP3    H122997   4.258   0.058   0.247 -1.6949  0.9980  0.6880
  502TIP3    H222998   4.215   0.180   0.169  0.8819  0.2621 -2.0150
  503TIP3   OH222999   1.405   3.984  15.722  0.0068 -0.4550  0.3699
  503TIP3    H123000   1.455   3.917  15.770 -0.7940 -0.8970  0.5916
  503TIP3    H223001   1.390   4.053  15.786 -0.6005 -0.8066  0.6092
  504TIP3   OH223002   2.677   0.383   5.099 -0.0140  0.0277  0.3896
  504TIP3    H123003   2.610   0.449   5.081 -1.5813 -0.8304  2.8294
  504TIP3    H223004   2.718   0.412   5.180 -0.4768 -1.8022  1.2927
  505TIP3   OH223005   6.474   1.092  15.173 -0.2838  0.3355  0.2581
  505TIP3    H123006   6.380   1.096  15.155 -0.2101  0.1843 -0.1580
  505TIP3    H223007   6.506   1.180  15.151  0.1728 -0.4491 -2.4374
  506TIP3   OH223008   3.600   5.496  16.364 -0.3421 -0.3217  0.1133
  506TIP3    H123009   3.677   5.503  16.307 -0.2781 -3.3152 -0.2590
  506TIP3    H223010   3.622   5.551  16.439  0.7906  1.4065 -1.4067
  507TIP3   OH223011   4.679   5.979  12.304 -0.1356 -0.1434  0.6011
  507TIP3    H123012   4.649   5.933  12.226  1.2384 -1.4362  0.8180
  507TIP3    H223013   4.764   5.940  12.324 -1.1286 -0.8857  3.6015
  508TIP3   OH223014   6.775   5.692   4.517  0.1197 -0.5444 -0.2711
  508TIP3    H123015   6.737   5.608   4.490 -0.6659  0.1746 -1.3962
  508TIP3    H223016   6.829   5.719   4.443  0.6186 -0.1972  0.2145
  509TIP3   OH223017   2.555   0.566  13.680 -0.3048  0.2379  0.4369
  509TIP3    H123018   2.608   0.487  13.691 -2.0321 -0.9379  0.4785
  509TIP3    H223019   2.469   0.534  13.652 -1.0210  2.1067  0.4208
  510TIP3   OH223020   5.599   1.713  10.568  0.0692  0.0537 -0.4274
  510TIP3    H123021   5.542   1.688  10.495 -0.5812  0.9585 -0.2343
  510TIP3    H223022   5.549   1.691  10.647  0.5499 -0.4181 -0.2519
  511TIP3   OH223023   1.311   6.408   5.139  0.1392 -0.4839 -0.8788
  511TIP3    H123024   1.236   6.354   5.114 -1.9725  1.2655  1.3813
  511TIP3    H223025   1.306   6.414   5.234  1.3121  2.2656 -0.9351
  512TIP3   OH223026   0.005   5.339   5.102 -0.3356  0.4269  0.1237
  512TIP3    H123027   0.083   5.284   5.100  0.5176  1.6479 -0.6014
  512TIP3    H223028  -0.005   5.364   5.194 -0.8607 -1.0956  0.5014
  513TIP3   OH223029   6.365   5.484  14.815  0.4949  0.0154 -0.1097
  513TIP3    H123030   6.454   5.454  14.833  0.7814  0.6845 -0.3972
  513TIP3    H223031   6.316   5.404  14.798  1.3985 -0.2710 -1.4753
  514TIP3   OH223032   3.749   3.950   5.155  0.1293 -0.0091  0.3373
  514TIP3    H123033   3.682   3.977   5.092 -0.7782 -0.2236  1.2013
  514TIP3    H223034   3.831   3.983   5.117 -0.5663  1.0989 -0.2586
  515TIP3   OH223035   2.805   5.721   4.790  0.6296  0.1409 -0.1210
  515TIP3    H123036   2.808   5.817   4.789  0.7976  0.1493  0.4767
  515TIP3    H223037   2.891   5.695   4.823  0.2553 -0.1843  0.6080
  516TIP3   OH223038   5.654   5.754  10.651 -0.2190  0.1545  0.0213
  516TIP3    H123039   5.741   5.772  10.685 -0.6678  1.5557  0.4777
  516TIP3    H223040   5.632   5.832  10.600 -0.7519 -0.6717 -1.0357
  517TIP3   OH223041   4.593   3.822   1.237  0.1661  0.2173  0.0959
  517TIP3    H123042   4.594   3.789   1.147 -1.6206 -0.3773  0.2751
  517TIP3    H223043   4.670   3.879   1.243  1.4571 -1.3445 -1.1909
  518TIP3   OH223044   1.481   4.694   0.263 -0.1237 -0.0938 -0.0878
  518TIP3    H123045   1.574   4.710   0.278 -0.1212  0.3254 -0.5516
  518TIP3    H223046   1.437   4.743   0.333  0.0406 -1.1740  0.7944
  519TIP3   OH223047   6.516   5.130  14.638  0.7989  0.2032 -0.2417
  519TIP3    H123048   6.596   5.182  14.628  0.0729  1.5107  0.6302
  519TIP3    H223049   6.487   5.147  14.728  0.3825 -1.4846 -0.0412
  520TIP3   OH223050   4.626   3.878   4.321  0.2133  0.2363 -0.4349
  520TIP3    H123051   4.623   3.971   4.297 -0.0549  0.6221  1.0317
  520TIP3    H223052   4.543   3.842   4.289 -0.1701  0.7540 -0.0338
  521TIP3   OH223053   5.692   5.466   2.533  0.2924  0.5645 -0.2277
  521TIP3    H123054   5.741   5.496   2.609 -1.1810  1.2033  0.4892
  521TIP3    H223055   5.728   5.517   2.460 -0.1296  1.9119  0.4949
  522TIP3   OH223056   3.492   0.999  17.253  0.7923  0.6185  0.0838
  522TIP3    H123057   3.533   0.924  17.210  0.5657  0.8081 -0.4588
  522TIP3    H223058   3.458   0.963  17.336 -1.6062 -0.4659 -1.3270
  523TIP3   OH223059   0.792   5.024   4.783  0.7533 -0.0168 -0.0101
  523TIP3    H123060   0.881   5.058   4.774 -0.0276  2.7133  1.9222
  523TIP3    H223061   0.783   5.006   4.877 -1.1265  0.8832  0.0044
  524TIP3   OH223062   0.573   2.726   2.573 -0.1296 -0.1715  0.0345
  524TIP3    H123063   0.587   2.820   2.589  0.8687 -0.1092 -1.1698
  524TIP3    H223064   0.570   2.717   2.478  1.0026 -1.5186  0.0968
  525TIP3   OH223065   2.490   3.128   2.942  0.5992 -0.6384  0.2998
  525TIP3    H123066   2.523   3.112   2.854  2.0926 -1.5347  0.9988
  525TIP3    H223067   2.494   3.223   2.952  0.3004 -0.5227 -0.6419
  526TIP3   OH223068   3.176   2.108   3.965 -0.4717  0.0503  0.3705
  526TIP3    H123069   3.192   2.134   3.875 -0.7711 -1.4509 -0.1344
  526TIP3    H223070   3.086   2.138   3.983 -0.8429 -0.6927 -0.2266
  527TIP3   OH223071   2.469   1.848  12.061 -0.2148  0.2109 -0.5186
  527TIP3    H123072   2.518   1.924  12.030 -0.8160  1.1092  0.7235
  527TIP3    H223073   2.381   1.861  12.027 -0.0011 -0.6225 -1.4298
  528TIP3   OH223074   1.353   4.734   0.746  0.3761 -0.3257  0.2456
  528TIP3    H123075   1.264   4.701   0.731  0.3320  0.7073 -1.9228
  528TIP3    H223076   1.384   4.759   0.659  2.8983 -0.9090  0.9353
  529TIP3   OH223077   6.323   3.450   6.211  0.2801  0.3483 -0.2007
  529TIP3    H123078   6.339   3.542   6.229 -0.1104  0.3804 -0.0126
  529TIP3    H223079   6.392   3.404   6.260 -0.1554  0.4902  0.5628
  530TIP3   OH223080   6.132   3.679  12.433  0.1260  0.4061 -0.3577
  530TIP3    H123081   6.078   3.716  12.502 -1.0688  0.7667 -1.4714
  530TIP3    H223082   6.072   3.665  12.359  1.3105 -0.2477 -1.2235
  531TIP3   OH223083   6.381   4.193   4.365  0.0387 -0.1137  0.6735
  531TIP3    H123084   6.458   4.152   4.325  0.4998  2.2034 -0.9289
  531TIP3    H223085   6.394   4.182   4.459  2.7253  0.9023  0.4577
  532TIP3   OH223086   2.598   6.023  13.787  0.2694  0.3084 -0.1606
  532TIP3    H123087   2.660   6.000  13.718 -0.0449 -0.3041 -0.2470
  532TIP3    H223088   2.567   5.938  13.820  0.4785  0.5983  0.7796
  533TIP3   OH223089   6.461   1.461  14.838 -0.1486 -0.2760  0.4943
  533TIP3    H123090   6.423   1.401  14.901  0.0971  0.5028  1.3950
  533TIP3    H223091   6.410   1.448  14.758 -1.4299 -0.1754  1.2980
  534TIP3   OH223092   3.483   1.206  11.583 -0.7219 -0.2734  0.5992
  534TIP3    H123093   3.531   1.129  11.552  2.3806  0.8691  2.3873
  534TIP3    H223094   3.550   1.273  11.595 -2.6906  1.2530  3.6198
  535TIP3   OH223095   6.045   0.898  17.110 -1.2708 -0.2659  0.3183
  535TIP3    H123096   6.134   0.931  17.117 -1.4254 -0.1890  2.2002
  535TIP3    H223097   6.021   0.913  17.018 -0.4935  2.6983  0.5331
  536TIP3   OH223098   6.116   2.176  13.380  0.4633 -0.4126 -0.1046
  536TIP3    H123099   6.184   2.237  13.408  0.1766 -0.5712  0.9599
  536TIP3    H223100   6.162   2.112  13.326  0.7426  0.7934 -1.3063
  537TIP3   OH223101   0.950   4.581   5.114 -0.1251 -0.1704  0.2972
  537TIP3    H123102   0.889   4.590   5.040 -3.0110 -2.1143  2.3249
  537TIP3    H223103   0.996   4.499   5.096  0.9770  0.6196 -0.5581
  538TIP3   OH223104   0.347   3.416   1.563  1.3680 -0.5960 -0.4098
  538TIP3    H123105   0.270   3.388   1.513  0.2050  0.3553  0.7887
  538TIP3    H223106   0.344   3.363   1.643  0.2399  1.4433  0.9895
  539TIP3   OH223107   2.412   6.197   1.256 -0.5075 -0.3202 -0.1650
  539TIP3    H123108   2.347   6.129   1.274 -1.5655  0.9252  0.7257
  539TIP3    H223109   2.366   6.279   1.270  0.7708  0.5927 -1.2560
  540TIP3   OH223110   1.635   2.027   3.826 -0.7152  0.1656  0.3365
  540TIP3    H123111   1.632   2.110   3.778 -0.4423  0.5631  1.0021
  540TIP3    H223112   1.585   1.966   3.772 -0.7019  0.6998 -0.2814
  541TIP3   OH223113   0.298   5.618  14.035 -0.1822 -0.4054 -0.3125
  541TIP3    H123114   0.356   5.653  14.102  0.1688 -1.8340  0.1601
  541TIP3    H223115   0.304   5.680  13.962 -0.0049  0.7674  0.6978
  542TIP3   OH223116   0.538   6.260  12.316 -0.1408 -0.1772  0.6870
  542TIP3    H123117   0.528   6.183  12.259 -0.5279 -0.8287  1.6096
  542TIP3    H223118   0.464   6.254  12.376  0.3837  0.3720  1.3929
  543TIP3   OH223119   5.729   0.339   5.896  0.0931  0.7305 -0.1417
  543TIP3    H123120   5.711   0.382   5.812 -1.3824  0.7002  0.1535
  543TIP3    H223121   5.793   0.395   5.939  0.0962  1.2733 -0.8476
  544TIP3   OH223122   1.244   4.495  14.205  0.9917  0.0570 -0.4455
  544TIP3    H123123   1.272   4.517  14.116  0.0505 -2.3817 -1.3959
  544TIP3    H223124   1.152   4.471  14.196  0.4932  1.1686  1.4512
  545TIP3   OH223125   4.314   4.508  11.523 -0.2032  0.7757  0.4200
  545TIP3    H123126   4.379   4.577  11.508 -0.1381  0.9087  1.2994
  545TIP3    H223127   4.242   4.531  11.464  0.5339  0.6322 -0.5426
  546TIP3   OH223128   1.343   3.807  12.794  0.5010 -0.3519 -0.4222
  546TIP3    H123129   1.314   3.876  12.734  1.6047 -0.8685 -1.5926
  546TIP3    H223130   1.423   3.842  12.833 -0.7731  0.4173  1.5887
  547TIP3   OH223131   3.982   3.503   2.116  0.4969  0.1452  0.4238
  547TIP3    H123132   4.071   3.534   2.098  1.0420 -1.9914 -0.7485
  547TIP3    H223133   3.947   3.479   2.030 -1.1159  0.6715  0.9126
  548TIP3   OH223134   2.977   1.670  14.570  0.4327 -0.1105  0.4397
  548TIP3    H123135   2.943   1.718  14.494  0.0145 -1.5608 -0.3081
  548TIP3    H223136   3.032   1.602  14.532 -1.3287 -2.0944  1.3220
  549TIP3   OH223137   3.041   5.554  12.352  0.9512 -0.2039 -0.0376
  549TIP3    H123138   2.973   5.511  12.403  0.6356  0.1280 -0.1756
  549TIP3    H223139   3.097   5.482  12.320  0.9907 -0.4292  0.5378
  550TIP3   OH223140   1.152   6.732  15.617 -0.1802  0.5426  0.0613
  550TIP3    H123141   1.214   6.700  15.682  1.0872  2.4808 -0.1349
  550TIP3    H223142   1.164   6.674  15.542 -0.2475 -0.4884  0.8391
  551TIP3   OH223143   4.814   3.925  16.177  0.2351  0.3369  0.0878
  551TIP3    H123144   4.770   4.008  16.158  0.1481  0.4706  0.8600
  551TIP3    H223145   4.897   3.931  16.131  0.3466  0.9664  0.3696
  552TIP3   OH223146   1.963   4.475  10.611  0.2109  0.5301 -0.2850
  552TIP3    H123147   1.992   4.405  10.669  2.2716 -0.1609 -2.1213
  552TIP3    H223148   1.879   4.443  10.576  0.4626 -0.3968 -0.0624
  553TIP3   OH223149   1.334   4.546   4.852 -0.1073 -0.3035  0.4320
  553TIP3    H123150   1.303   4.456   4.846 -0.2965 -0.3664  2.1038
  553TIP3    H223151   1.419   4.546   4.808 -1.4535 -0.5955 -2.3412
  554TIP3   OH223152   3.731   4.632   5.357  0.1054  0.7536  0.2242
  554TIP3    H123153   3.765   4.549   5.388  0.2458  1.2012  1.2757
  554TIP3    H223154   3.709   4.616   5.265  1.1338 -0.1366  0.1271
  555TIP3   OH223155   4.973   1.256   2.921 -0.2961  0.0016  0.3088
  555TIP3    H123156   4.963   1.180   2.977 -0.1147  0.7323  1.3374
  555TIP3    H223157   4.884   1.283   2.900 -0.3603 -0.5621 -0.1752
  556TIP3   OH223158   3.842   1.830  15.729  0.2650  0.5069  0.1795
  556TIP3    H123159   3.886   1.812  15.813 -1.3186 -0.3360  0.8423
  556TIP3    H223160   3.900   1.892  15.685  2.6840 -1.3521  0.5864
  557TIP3   OH223161   0.462   0.577   4.537  0.2317  0.2573  0.4114
  557TIP3    H123162   0.501   0.494   4.564 -1.5437 -0.4234  0.9626
  557TIP3    H223163   0.421   0.559   4.453  1.7272  1.1642 -0.5268
  558TIP3   OH223164   4.996   3.660  16.388  0.3434  0.1414  0.3111
  558TIP3    H123165   5.056   3.623  16.453 -1.0932 -0.2008  1.4801
  558TIP3    H223166   4.961   3.738  16.430  0.2635  0.5515 -0.5190
  559TIP3   OH223167   1.557   2.229  15.134 -0.2255  0.0148 -0.0499
  559TIP3    H123168   1.494   2.163  15.104 -0.5321 -0.5420  1.7350
  559TIP3    H223169   1.605   2.254  15.056 -1.9763 -0.3102 -1.2521
  560TIP3   OH223170   4.926   3.486   6.180 -0.0315  0.0338 -0.1092
  560TIP3    H123171   4.832   3.475   6.194 -0.0961  1.0600  0.2574
  560TIP3    H223172   4.965   3.459   6.263  0.0191 -0.6507 -0.3522
  561TIP3   OH223173   2.583   5.019  12.253  0.0509 -0.3800 -0.2313
  561TIP3    H123174   2.647   5.090  12.244 -0.6306  0.1702 -0.7868
  561TIP3    H223175   2.612   4.953  12.191  0.6411 -0.5658  0.2274
  562TIP3   OH223176   2.191   3.590   4.404 -0.3123 -0.1958 -0.0229
  562TIP3    H123177   2.147   3.651   4.345 -0.8745 -0.2896  0.2922
  562TIP3    H223178   2.144   3.600   4.487  0.3067 -0.2471  0.3394
  563TIP3   OH223179   1.451   2.292   2.930  0.1604 -0.4137 -0.7225
  563TIP3    H123180   1.507   2.346   2.874  0.4170  0.1102  0.0380
  563TIP3    H223181   1.392   2.354   2.972 -0.7728 -0.9283 -1.2561
  564TIP3   OH223182   0.766   1.008  16.049  0.2600  0.4063  0.1162
  564TIP3    H123183   0.695   1.002  15.985  0.6501 -0.1098 -0.2695
  564TIP3    H223184   0.739   1.078  16.108  0.2018  1.3503 -1.0013
  565TIP3   OH223185   3.114   1.174  13.966 -0.3049  0.2843 -0.6735
  565TIP3    H123186   3.108   1.174  13.871 -0.2308 -3.8579 -0.7646
  565TIP3    H223187   3.053   1.105  13.994 -0.1545  1.2700  2.2833
  566TIP3   OH223188   6.610   1.845   1.002  0.0985 -0.9827 -0.2993
  566TIP3    H123189   6.670   1.824   0.930  0.1437 -2.4098  0.1323
  566TIP3    H223190   6.585   1.760   1.037 -1.6810 -0.3727 -0.0506
  567TIP3   OH223191   4.539   2.504   0.950  0.1991  0.7203 -0.3500
  567TIP3    H123192   4.565   2.520   1.041  0.0542 -0.1868 -0.1420
  567TIP3    H223193   4.618   2.523   0.899  0.2545  1.3211 -0.0471
  568TIP3   OH223194   1.686   2.135   3.534  0.0440 -0.2132 -0.7630
  568TIP3    H123195   1.666   2.043   3.552 -1.3942  0.4720  1.2837
  568TIP3    H223196   1.601   2.180   3.538  0.9609  1.5067  0.1708
  569TIP3   OH223197   0.825   1.559   4.429 -0.2488  0.2908 -0.0158
  569TIP3    H123198   0.894   1.513   4.382  2.6828  1.4490  2.9407
  569TIP3    H223199   0.814   1.509   4.510 -1.7747  1.0340  0.2494
  570TIP3   OH223200   1.520   5.146   3.726  0.2610 -0.1696 -0.1803
  570TIP3    H123201   1.490   5.153   3.635 -0.2627  0.0517  0.0090
  570TIP3    H223202   1.567   5.228   3.742  1.9725 -0.9778 -0.8311
  571TIP3   OH223203   1.212   6.789  12.300 -0.4151  0.8002 -0.4196
  571TIP3    H123204   1.272   6.861  12.321 -0.9122  0.6744  1.5278
  571TIP3    H223205   1.269   6.714  12.282  0.0446  0.6749  1.4422
  572TIP3   OH223206   3.368   0.004  10.549  0.0338 -0.3259  0.0209
  572TIP3    H123207   3.361   0.079  10.609  1.6537 -0.5066  0.4702
  572TIP3    H223208   3.279  -0.009  10.516 -0.1607  2.2440 -0.6107
  573TIP3   OH223209   1.831   0.663  16.558  0.2998  0.2157  0.3631
  573TIP3    H123210   1.870   0.594  16.506  0.5590  1.7073 -1.4836
  573TIP3    H223211   1.737   0.653  16.546  0.3403  0.2121  0.0392
  574TIP3   OH223212   5.211   3.614   2.320 -0.2402  0.5841 -0.4127
  574TIP3    H123213   5.249   3.528   2.333 -0.6559  0.8446  3.0885
  574TIP3    H223214   5.282   3.675   2.338 -0.7160  1.0022  0.0644
  575TIP3   OH223215   6.396   3.859   2.876 -0.1045  0.4745  0.0359
  575TIP3    H123216   6.346   3.940   2.881 -1.1376 -0.1715  0.4124
  575TIP3    H223217   6.412   3.836   2.968 -0.0161  0.1334 -0.0651
  576TIP3   OH223218   2.255   2.586   0.830 -0.0910  0.2196 -0.0986
  576TIP3    H123219   2.209   2.660   0.790 -0.2001 -1.0130 -2.3937
  576TIP3    H223220   2.196   2.512   0.818  1.4588 -0.9094 -0.9468
  577TIP3   OH223221   3.447   1.796   3.656 -0.2884 -0.2606 -0.3466
  577TIP3    H123222   3.469   1.813   3.564  0.8236  0.4758  0.0398
  577TIP3    H223223   3.381   1.862   3.677  1.1236  1.0941  0.0098
  578TIP3   OH223224   2.859   2.703   1.601  0.5274  0.2645 -0.1830
  578TIP3    H123225   2.783   2.731   1.550 -0.9567 -0.7863  1.3956
  578TIP3    H223226   2.902   2.785   1.626 -0.6511  0.9352 -0.2723
  579TIP3   OH223227   4.693   5.594  12.418  0.1294 -0.1398 -0.3483
  579TIP3    H123228   4.602   5.570  12.434  0.4613 -1.7712 -0.8128
  579TIP3    H223229   4.693   5.632  12.330 -0.0234 -0.5923 -0.5445
  580TIP3   OH223230   2.167   1.212  14.028 -0.2677 -0.4897 -0.4321
  580TIP3    H123231   2.232   1.276  13.999  1.4780 -1.7378  0.6349
  580TIP3    H223232   2.102   1.211  13.958  0.5787  1.1773 -1.2719
  581TIP3   OH223233   3.010   5.708   3.270  0.6886  0.0912  0.2747
  581TIP3    H123234   3.053   5.793   3.277  1.6305 -0.4771  1.7190
  581TIP3    H223235   2.916   5.728   3.273  0.9111  0.9603  2.3707
  582TIP3   OH223236   6.213   2.952  10.653 -0.2080  0.1422  0.1334
  582TIP3    H123237   6.256   3.037  10.654  0.1157 -0.0167 -0.2663
  582TIP3    H223238   6.171   2.947  10.567  0.1656 -0.2952 -0.0306
  583TIP3   OH223239   4.738   0.827   3.037 -0.5205 -0.0871 -0.3170
  583TIP3    H123240   4.736   0.800   2.945 -0.6544 -0.6071 -0.1647
  583TIP3    H223241   4.676   0.900   3.042  1.6992  1.9310 -1.2483
  584TIP3   OH223242   4.401   6.117   0.202  0.4180  0.1975 -0.0794
  584TIP3    H123243   4.367   6.068   0.277  1.7844 -0.3191  0.2099
  584TIP3    H223244   4.332   6.180   0.181 -0.0049  0.2845  1.5542
  585TIP3   OH223245   4.573   6.669   2.498 -1.0400  0.0117 -0.0516
  585TIP3    H123246   4.604   6.759   2.489  0.2593 -0.5780 -1.5474
  585TIP3    H223247   4.598   6.645   2.588 -0.4384  0.7763 -0.0041
  586TIP3   OH223248   5.002   0.355   4.249  0.5369  0.3497  0.7546
  586TIP3    H123249   4.974   0.368   4.158 -0.5917  1.1971  1.2064
  586TIP3    H223250   4.985   0.262   4.265 -0.7941  0.5445  0.5854
  587TIP3   OH223251   1.685   6.549   6.902  0.0754 -0.1478  0.1996
  587TIP3    H123252   1.634   6.510   6.973 -0.9242 -1.5228 -1.2241
  587TIP3    H223253   1.775   6.551   6.935 -0.6312  0.8494  2.1419
  588TIP3   OH223254   5.361   3.099  16.858 -0.3221  0.1943 -0.3734
  588TIP3    H123255   5.403   3.013  16.861  0.8494  0.7634 -0.3856
  588TIP3    H223256   5.330   3.114  16.947 -0.1963 -0.0774 -0.2830
  589TIP3   OH223257   3.872   1.488   3.305  0.3754  0.6027  0.6938
  589TIP3    H123258   3.851   1.463   3.395 -2.2269  0.5279  0.1162
  589TIP3    H223259   3.891   1.406   3.261 -0.8328  0.3750  0.5832
  590TIP3   OH223260   6.448   6.523   1.052  0.0767  0.4588 -0.1959
  590TIP3    H123261   6.380   6.569   1.101 -0.4066  0.4631 -0.8695
  590TIP3    H223262   6.439   6.431   1.078  0.2421  0.5608  0.2162
  591TIP3   OH223263   3.606   6.413  13.750  0.1890 -0.1015 -0.5261
  591TIP3    H123264   3.644   6.326  13.738 -0.8850 -0.6638  0.1157
  591TIP3    H223265   3.671   6.460  13.802  0.2896 -0.8710  0.0521
  592TIP3   OH223266   5.755   0.354   1.564 -0.3373  0.6640 -0.2542
  592TIP3    H123267   5.839   0.331   1.603 -0.0702 -2.1044 -2.3103
  592TIP3    H223268   5.775   0.377   1.473 -1.7633  0.1813 -0.7161
  593TIP3   OH223269   1.883   1.029   1.764 -0.1906 -0.3064 -0.1555
  593TIP3    H123270   1.877   0.933   1.768 -0.7601 -0.3499 -1.7123
  593TIP3    H223271   1.976   1.048   1.778 -0.0331 -1.0983 -0.0862
  594TIP3   OH223272   1.476   1.924  16.576 -0.6170  0.6504  0.6529
  594TIP3    H123273   1.567   1.923  16.605  0.7318  0.1644 -3.2219
  594TIP3    H223274   1.466   2.009  16.532 -1.3845 -0.1215 -0.7153
  595TIP3   OH223275   6.156   1.745  17.114 -0.0952  0.4260 -0.0021
  595TIP3    H123276   6.213   1.701  17.050  1.1839 -1.0869  2.1285
  595TIP3    H223277   6.087   1.681  17.132 -0.8168  1.1018 -0.3348
  596TIP3   OH223278   2.971   1.533  15.533  0.1029 -0.2594 -0.3855
  596TIP3    H123279   3.036   1.463  15.523  0.7979  0.1576  1.1087
  596TIP3    H223280   3.001   1.583  15.609 -1.1234  0.8642 -0.6283
  597TIP3   OH223281   6.745   3.198   3.742 -0.0088 -0.0857 -0.4936
  597TIP3    H123282   6.685   3.265   3.775 -3.3365 -1.9714 -2.5462
  597TIP3    H223283   6.767   3.227   3.653 -0.1354 -0.8960 -0.7867
  598TIP3   OH223284   6.724   1.159  12.037 -0.0835 -0.2367 -0.3512
  598TIP3    H123285   6.658   1.127  11.976 -1.8065  0.0652  1.2955
  598TIP3    H223286   6.717   1.255  12.032 -1.7003 -0.1952  1.7748
  599TIP3   OH223287   5.322   1.726  12.587 -0.4419 -0.2555  0.0320
  599TIP3    H123288   5.271   1.646  12.581 -1.1224  0.3444 -3.2634
  599TIP3    H223289   5.259   1.796  12.572  0.9447  0.5998 -2.0995
  600TIP3   OH223290   6.400   2.606  12.585  0.2186 -0.3334 -0.3898
  600TIP3    H123291   6.424   2.528  12.636  0.7906 -0.4142 -0.7687
  600TIP3    H223292   6.432   2.679  12.636 -1.5702 -0.2602  0.6564
  601TIP3   OH223293   2.268   5.330   6.001 -0.1754  0.7972  0.3587
  601TIP3    H123294   2.183   5.310   6.041  0.3002 -0.6814  0.6731
  601TIP3    H223295   2.329   5.336   6.074 -0.0781  2.2826  0.1647
  602TIP3   OH223296   4.643   3.199   1.586  0.1678 -0.4839  0.0609
  602TIP3    H123297   4.716   3.242   1.541 -0.2343  1.4305  1.2046
  602TIP3    H223298   4.644   3.236   1.674 -1.6388 -1.1090  0.3667
  603TIP3   OH223299   4.237   3.663  10.827  0.4237 -0.7497 -0.3203
  603TIP3    H123300   4.269   3.742  10.784  0.6020 -0.1828  0.8456
  603TIP3    H223301   4.218   3.602  10.755  0.2150  0.3745 -1.2269
  604TIP3   OH223302   1.884   5.204   4.077  0.1546 -0.3026  0.3586
  604TIP3    H123303   1.852   5.139   4.015  1.6176 -0.8254  0.1389
  604TIP3    H223304   1.971   5.227   4.046 -0.1501  1.4187  0.7160
  605TIP3   OH223305   2.399   5.506  15.744  0.4178 -0.0575 -0.1379
  605TIP3    H123306   2.379   5.557  15.823 -0.5897 -0.9663  0.1973
  605TIP3    H223307   2.368   5.418  15.764  3.1782 -1.1074 -0.2740
  606TIP3   OH223308   1.412   1.956  17.256 -0.1285 -0.7826 -0.4712
  606TIP3    H123309   1.497   1.920  17.230  0.0709  0.0528 -0.9817
  606TIP3    H223310   1.406   1.938  17.350  0.2043 -1.6519 -0.6093
  607TIP3   OH223311   3.953   0.163  16.257  0.1972  0.0435  0.3985
  607TIP3    H123312   3.912   0.078  16.274  0.5563  0.2347  2.2856
  607TIP3    H223313   4.036   0.159  16.304  1.1851  0.6510 -1.2622
  608TIP3   OH223314   6.433   2.885   4.684 -0.3269  0.0249  0.2290
  608TIP3    H123315   6.382   2.870   4.764 -1.8544 -1.1452 -0.9445
  608TIP3    H223316   6.382   2.844   4.615  2.1541 -1.0563 -1.0175
  609TIP3   OH223317   2.412   4.167   6.526  0.1023 -0.3627 -0.3003
  609TIP3    H123318   2.331   4.134   6.486 -0.5118 -0.4458  0.9959
  609TIP3    H223319   2.441   4.096   6.584  0.1445  0.3802  0.5902
  610TIP3   OH223320   3.300   4.544  15.056 -0.5400 -0.0865 -0.3868
  610TIP3    H123321   3.292   4.613  15.122  0.3339 -0.2059 -0.1559
  610TIP3    H223322   3.394   4.526  15.052 -0.5298  0.2928 -2.0548
  611TIP3   OH223323   6.268   2.307  16.458  0.1514  0.3352 -0.0492
  611TIP3    H123324   6.345   2.363  16.450 -0.1169  0.6786 -0.2486
  611TIP3    H223325   6.279   2.240  16.391 -0.4830  1.2892 -1.1212
  612TIP3   OH223326   4.684   5.318  16.780  0.4238 -0.8074 -0.0408
  612TIP3    H123327   4.739   5.297  16.705 -0.1347 -0.1987 -0.6281
  612TIP3    H223328   4.639   5.399  16.755  0.0148 -0.7600  0.8285
  613TIP3   OH223329   6.367   3.320   1.326  0.0526  0.0512  0.1180
  613TIP3    H123330   6.353   3.325   1.420  0.1892 -1.8915  0.2596
  613TIP3    H223331   6.281   3.303   1.289 -0.2155  2.0714 -0.2391
  614TIP3   OH223332   3.108   3.619  12.775 -0.2170  0.6561  0.1079
  614TIP3    H123333   3.072   3.638  12.862 -1.2510 -0.2824 -0.1023
  614TIP3    H223334   3.047   3.661  12.714 -1.1776 -1.2044 -0.2608
  615TIP3   OH223335   6.017   4.893   4.747  1.0605  0.2218  0.2067
  615TIP3    H123336   6.082   4.826   4.727 -0.0905 -0.7403 -0.3793
  615TIP3    H223337   6.068   4.969   4.774  2.3635 -1.2374  1.9806
  616TIP3   OH223338   3.118   5.649   0.308  0.2808 -0.1256 -0.1231
  616TIP3    H123339   3.126   5.712   0.379  2.3264 -0.6569  0.1541
  616TIP3    H223340   3.189   5.586   0.324 -0.0858 -1.0005 -1.8614
  617TIP3   OH223341   4.386   0.357  15.777 -0.1963  0.1721  0.5540
  617TIP3    H123342   4.380   0.261  15.778  0.4798  0.0579 -2.0430
  617TIP3    H223343   4.315   0.385  15.719  0.6700  1.1189 -0.0699
  618TIP3   OH223344   6.684   6.558   0.949 -1.1439  0.0560  0.2337
  618TIP3    H123345   6.689   6.650   0.973 -1.2633 -0.0455  0.6524
  618TIP3    H223346   6.600   6.528   0.983 -0.3798 -0.6271  1.6079
  619TIP3   OH223347   3.238   4.591  16.291 -0.0465 -0.1670 -0.3798
  619TIP3    H123348   3.143   4.598  16.281 -0.2395  0.2157  1.5721
  619TIP3    H223349   3.251   4.528  16.362  1.0788  1.7894  1.2238
  620TIP3   OH223350   4.522   2.532  13.222  0.1225  0.1502 -0.0743
  620TIP3    H123351   4.594   2.579  13.180  0.5206 -1.1080 -0.8331
  620TIP3    H223352   4.547   2.440  13.215 -0.9803 -0.2139  0.7552
  621TIP3   OH223353   1.822   5.455   5.368 -0.2112  0.2515  0.0964
  621TIP3    H123354   1.884   5.478   5.300  0.4627  3.3077  1.6597
  621TIP3    H223355   1.741   5.499   5.343 -0.2536  0.5502  0.7370
  622TIP3   OH223356   2.795   5.625   1.474  0.6173 -0.2186 -0.1063
  622TIP3    H123357   2.835   5.651   1.392 -1.0564 -0.1283 -0.9139
  622TIP3    H223358   2.778   5.532   1.465  0.2691 -0.1748  0.0567
  623TIP3   OH223359   0.143   4.810  15.051  0.0640 -0.0865  0.3102
  623TIP3    H123360   0.182   4.843  15.132  0.6388  1.1654 -0.4602
  623TIP3    H223361   0.188   4.859  14.982  1.1185 -2.6700 -0.8864
  624TIP3   OH223362   6.566   3.554  15.452 -0.0282  0.5384 -0.3218
  624TIP3    H123363   6.610   3.628  15.409 -1.8172  1.0088 -1.3682
  624TIP3    H223364   6.475   3.560  15.423 -0.2017 -2.0777 -0.4235
  625TIP3   OH223365   4.708   2.779  16.719  0.1426 -0.1424 -0.2256
  625TIP3    H123366   4.757   2.861  16.709 -1.0297  0.6473  0.4203
  625TIP3    H223367   4.759   2.715  16.671  1.8391  0.6645  0.4550
  626TIP3   OH223368   1.853   3.395  15.251  0.4296 -0.6024  0.2199
  626TIP3    H123369   1.817   3.480  15.224 -0.7689 -1.2749 -0.3154
  626TIP3    H223370   1.910   3.369  15.179 -0.8955 -1.2633 -0.6061
  627TIP3   OH223371   2.463   6.688   2.792  0.2455  0.4721 -0.3584
  627TIP3    H123372   2.508   6.611   2.756  0.9931  1.0558 -0.6694
  627TIP3    H223373   2.434   6.737   2.715  1.2174  1.3456 -0.1825
  628TIP3   OH223374   6.444   4.080   3.234 -0.2404 -0.0291 -0.5312
  628TIP3    H123375   6.355   4.092   3.268  0.0563  0.9933 -0.0890
  628TIP3    H223376   6.452   4.148   3.167  0.0628 -0.3991 -0.8696
  629TIP3   OH223377   3.686   6.134   3.182 -0.1424 -0.4032 -0.5886
  629TIP3    H123378   3.775   6.117   3.151 -0.4110 -0.6190 -1.2445
  629TIP3    H223379   3.690   6.224   3.216  0.4786 -0.6290 -0.0435
  630TIP3   OH223380   0.400   4.628   4.814  0.1528 -0.1125  0.4569
  630TIP3    H123381   0.456   4.618   4.737  1.7261  0.6247  1.4674
  630TIP3    H223382   0.373   4.720   4.813 -1.2584 -0.5279 -0.1638
  631TIP3   OH223383   0.538   0.268  11.517 -0.1698 -0.4273 -0.5544
  631TIP3    H123384   0.526   0.341  11.456 -1.9460 -0.3083 -0.0966
  631TIP3    H223385   0.490   0.195  11.478 -0.8310 -0.5172  0.4027
  632TIP3   OH223386   5.457   3.417  13.220 -0.5418 -0.0131 -0.4911
  632TIP3    H123387   5.456   3.356  13.146 -0.6388 -0.6659  0.0485
  632TIP3    H223388   5.371   3.459  13.216 -0.1524  0.7081 -1.3737
  633TIP3   OH223389   0.527   4.260  17.007  0.1389 -0.5249 -0.5601
  633TIP3    H123390   0.456   4.299  17.057 -0.1890 -0.2448 -1.2340
  633TIP3    H223391   0.567   4.196  17.067  0.7430  0.9120  0.5864
  634TIP3   OH223392   6.540   4.699  12.086  0.2455  0.4232 -0.4803
  634TIP3    H123393   6.489   4.758  12.142  0.2985 -1.1856  1.3489
  634TIP3    H223394   6.475   4.642  12.045  0.3636  0.1101 -0.2399
  635TIP3   OH223395   4.195   1.138  11.783  0.1012  0.2693  0.0486
  635TIP3    H123396   4.137   1.111  11.854  0.8820  1.0751  1.0218
  635TIP3    H223397   4.150   1.113  11.703 -2.5015  2.6406  0.7034
  636TIP3   OH223398   3.175   3.785  14.930  0.0563  0.1910  0.5493
  636TIP3    H123399   3.271   3.788  14.922  0.0493  1.8040  0.8517
  636TIP3    H223400   3.143   3.837  14.856 -0.6102 -0.7910  0.1402
  637TIP3   OH223401   4.233   3.922  14.038 -0.0247 -0.0331 -0.0944
  637TIP3    H123402   4.301   3.890  14.097  0.6688  2.8127  0.7212
  637TIP3    H223403   4.170   3.850  14.032  2.0131 -1.9398  0.7378
  638TIP3   OH223404   6.381   4.760  12.828 -0.1894 -0.9983  0.5314
  638TIP3    H123405   6.442   4.741  12.757 -1.0560  0.1154 -0.5322
  638TIP3    H223406   6.433   4.807  12.892  0.2962 -0.8726  0.0529
  639TIP3   OH223407   3.518   2.901  11.776 -0.1409  0.1198 -0.2507
  639TIP3    H123408   3.518   2.992  11.746 -0.6170  0.4579  0.7542
  639TIP3    H223409   3.501   2.907  11.870  0.2954 -0.9836 -0.0999
  640TIP3   OH223410   0.577   1.437  14.124  0.7079 -0.2867  0.0074
  640TIP3    H123411   0.632   1.511  14.149 -0.0475  1.6003 -3.4929
  640TIP3    H223412   0.639   1.371  14.093  1.3462 -0.9015  2.5081
  641TIP3   OH223413   0.254   2.562  14.771  0.3837 -0.4158  0.0412
  641TIP3    H123414   0.199   2.639  14.753  0.4007 -0.1337  1.1869
  641TIP3    H223415   0.291   2.539  14.686  0.7553  1.1400 -0.2347
  642TIP3   OH223416   6.196   4.345   1.806 -0.5027 -0.0350 -0.8955
  642TIP3    H123417   6.292   4.349   1.806 -0.5131  0.2671  0.4300
  642TIP3    H223418   6.170   4.413   1.744  0.0980  1.1157  0.0999
  643TIP3   OH223419   5.422   1.164   1.384 -0.2984 -0.4251  0.0534
  643TIP3    H123420   5.420   1.258   1.366 -0.5703 -0.4534 -0.0683
  643TIP3    H223421   5.458   1.125   1.304  2.0781 -0.2206  0.9753
  644TIP3   OH223422   2.687   3.127  13.030  0.0645  0.2843  0.1555
  644TIP3    H123423   2.707   3.181  12.953  1.2283 -0.8259 -0.3459
  644TIP3    H223424   2.682   3.189  13.102 -0.5769  1.2927 -0.7340
  645TIP3   OH223425   4.344   3.314   0.526  0.3719  0.0934 -0.3405
  645TIP3    H123426   4.264   3.263   0.513  0.7902 -0.8962  0.8845
  645TIP3    H223427   4.313   3.399   0.558 -0.2720  0.2791 -1.4475
  646TIP3   OH223428   4.601   5.850   1.276 -0.7166 -0.0838  0.0046
  646TIP3    H123429   4.640   5.935   1.252 -1.6755 -0.1118 -1.7220
  646TIP3    H223430   4.673   5.788   1.267  0.3073  0.6777  2.4101
  647TIP3   OH223431   2.820   0.396  14.062  0.0332  0.4527 -1.2089
  647TIP3    H123432   2.904   0.372  14.102  0.1586 -0.0300 -1.7463
  647TIP3    H223433   2.805   0.486  14.089 -0.0597  0.0240  0.2261
  648TIP3   OH223434   0.070   3.588   5.234 -0.1037  1.0347  0.5592
  648TIP3    H123435  -0.010   3.575   5.284 -1.0214  2.1144 -0.5727
  648TIP3    H223436   0.118   3.506   5.241 -1.4871  0.2611  0.9659
  649TIP3   OH223437   4.322   2.668  12.176  0.2784  0.5348  0.3858
  649TIP3    H123438   4.248   2.662  12.115 -0.0352  1.0339  0.7141
  649TIP3    H223439   4.398   2.645  12.122 -0.1924 -0.7055  0.2308
  650TIP3   OH223440   3.460   0.165   5.778 -0.3429  0.2236 -0.2213
  650TIP3    H123441   3.477   0.096   5.713 -0.0250 -0.4362  0.5638
  650TIP3    H223442   3.365   0.171   5.783 -0.3720 -0.4937  0.0688
  651TIP3   OH223443   0.070   3.326   1.166  0.0940  0.1467 -0.2514
  651TIP3    H123444  -0.024   3.340   1.151  0.1750 -0.3709 -1.3040
  651TIP3    H223445   0.112   3.362   1.088  0.8137  0.8422  0.4537
  652TIP3   OH223446   4.717   6.555   1.568  0.1290  0.2145 -0.2528
  652TIP3    H123447   4.776   6.624   1.599  0.3424  0.4928 -1.2760
  652TIP3    H223448   4.704   6.499   1.645 -0.5424  1.7287  0.7588
  653TIP3   OH223449   2.147   6.727  11.201 -0.1412  0.1466  0.1024
  653TIP3    H123450   2.079   6.793  11.185  0.1530  0.6311  0.8362
  653TIP3    H223451   2.099   6.646  11.217 -0.5057  0.1860 -0.8025
  654TIP3   OH223452   1.193   5.740  13.873  0.1470 -0.1335 -0.4318
  654TIP3    H123453   1.208   5.721  13.781  1.5696 -1.5911  0.0842
  654TIP3    H223454   1.167   5.832  13.874 -0.9367 -0.3817 -2.3695
  655TIP3   OH223455   1.203   2.733   1.325 -0.0346 -0.1115  0.2872
  655TIP3    H123456   1.162   2.688   1.399  0.5052 -0.9685  0.0657
  655TIP3    H223457   1.131   2.749   1.263 -0.1284 -1.1464  0.1265
  656TIP3   OH223458   2.073   4.113   1.620  0.1371 -0.1397 -0.2025
  656TIP3    H123459   2.066   4.191   1.566 -0.6329 -0.2442 -0.2562
  656TIP3    H223460   2.125   4.141   1.696  2.6833 -0.4113 -1.7585
  657TIP3   OH223461   4.208   4.126  12.148 -0.1505  0.4142 -0.3637
  657TIP3    H123462   4.205   4.205  12.201 -0.1378  0.3273 -0.2308
  657TIP3    H223463   4.298   4.095  12.156 -0.1644  0.3661 -0.3828
  658TIP3   OH223464   0.991   2.320   2.929  0.6669  0.0574 -0.1747
  658TIP3    H123465   0.976   2.250   2.993  0.0283 -0.2415 -0.6409
  658TIP3    H223466   0.928   2.388   2.953 -0.1188 -0.3813 -0.9498
  659TIP3   OH223467   3.575   4.486   3.020  0.6229  0.1704 -0.0814
  659TIP3    H123468   3.507   4.437   2.974  1.4660 -1.4406  0.3403
  659TIP3    H223469   3.537   4.505   3.105  0.2924  0.2263 -0.2405
  660TIP3   OH223470   4.046   4.180   4.211  0.2504 -0.1600 -0.4136
  660TIP3    H123471   4.042   4.258   4.156  0.9148 -0.5034 -0.9566
  660TIP3    H223472   4.092   4.115   4.158  1.6424 -0.2381  0.8765
  661TIP3   OH223473   2.021   2.935  13.469 -0.0111 -0.7428 -0.3652
  661TIP3    H123474   1.946   2.955  13.413  0.9781  0.4344 -1.2771
  661TIP3    H223475   1.982   2.889  13.544 -2.3334  3.9043  1.5317
  662TIP3   OH223476   3.127   4.166   3.420  0.0711  0.1457 -0.5414
  662TIP3    H123477   3.144   4.189   3.329  0.9344  0.2514 -0.3631
  662TIP3    H223478   3.102   4.249   3.462 -2.6031 -0.3015 -1.1698
  663TIP3   OH223479   1.887   2.530  14.486 -0.2386  0.0161 -0.1267
  663TIP3    H123480   1.959   2.550  14.545 -0.4460 -0.8605  0.4376
  663TIP3    H223481   1.811   2.572  14.525 -0.4330 -0.8086  0.3974
  664TIP3   OH223482   3.460   5.652  13.739  0.5177 -0.2385 -0.0417
  664TIP3    H123483   3.555   5.646  13.726  0.4020  1.1893 -1.6665
  664TIP3    H223484   3.450   5.721  13.804  0.7192 -2.5523  2.5453
  665TIP3   OH223485   2.841   1.662  14.983 -0.2312  0.3252 -0.0852
  665TIP3    H123486   2.773   1.729  14.993  1.5658  2.2695 -0.5321
  665TIP3    H223487   2.841   1.644  14.889  1.2168  1.8255 -0.3985
  666TIP3   OH223488   1.141   0.265   0.916  0.4284  0.3698 -0.3159
  666TIP3    H123489   1.054   0.303   0.904  0.1283 -1.0563 -3.0237
  666TIP3    H223490   1.198   0.317   0.859  1.0929  0.3415  0.3059
  667TIP3   OH223491   1.431   0.934  16.556  0.9357 -0.5959  0.0251
  667TIP3    H123492   1.505   0.972  16.510 -0.6429 -0.3729 -2.3780
  667TIP3    H223493   1.356   0.988  16.532  0.0227 -0.5899  2.7224
  668TIP3   OH223494   1.900   3.033  15.493  0.4572 -0.0513  0.7491
  668TIP3    H123495   1.864   3.115  15.526  1.3280  0.6151  0.0935
  668TIP3    H223496   1.986   3.058  15.458  0.1603 -0.9937 -0.6810
  669TIP3   OH223497   3.935   1.747  14.017  0.2618  0.3020 -0.1235
  669TIP3    H123498   3.999   1.676  14.010  0.7613  0.6921  0.4616
  669TIP3    H223499   3.877   1.719  14.087 -0.2117 -0.0479 -0.6480
  670TIP3   OH223500   0.902   1.009  13.844  0.6363  0.2685 -0.0897
  670TIP3    H123501   0.811   1.035  13.862  0.8056  1.3042 -0.6968
  670TIP3    H223502   0.944   1.089  13.814  2.1122  0.1220  1.4830
  671TIP3   OH223503   5.852   0.070  13.444  0.3945 -1.0258  0.3678
  671TIP3    H123504   5.794   0.055  13.368  1.9153  0.9511 -1.2234
  671TIP3    H223505   5.893   0.155  13.427  1.0793 -0.7315  3.2385
  672TIP3   OH223506   3.609   5.929   5.355 -0.1420 -0.4904  0.5042
  672TIP3    H123507   3.546   5.859   5.338 -0.6276  0.2887 -0.9111
  672TIP3    H223508   3.620   5.928   5.451 -0.5212 -2.1607  0.5428
  673TIP3   OH223509   2.738   4.257   5.998  0.1298 -0.1567  0.3550
  673TIP3    H123510   2.822   4.214   6.015 -0.4301 -1.6050 -0.5319
  673TIP3    H223511   2.675   4.208   6.051 -0.8741 -1.8601 -2.3391
  674TIP3   OH223512   6.473   1.752   2.549 -0.1407  0.2947 -0.0749
  674TIP3    H123513   6.504   1.668   2.517  0.7018  1.0903 -1.3858
  674TIP3    H223514   6.414   1.784   2.481 -1.2765  0.3145  0.8882
  675TIP3   OH223515   1.699   4.384  16.942 -0.2240  0.5275 -0.2900
  675TIP3    H123516   1.734   4.437  16.870 -0.7580  0.4029 -0.6421
  675TIP3    H223517   1.775   4.370  16.999  0.4637 -0.2923 -1.3772
  676TIP3   OH223518   1.771   4.507  11.262  0.0199 -0.3034 -0.3524
  676TIP3    H123519   1.828   4.534  11.190 -0.5478  0.4371 -0.5273
  676TIP3    H223520   1.768   4.411  11.256 -0.2532 -0.2270 -1.4944
  677TIP3   OH223521   2.965   3.754   2.459  0.1871  0.5131 -0.3631
  677TIP3    H123522   3.054   3.781   2.435  0.4571 -0.6021 -0.6461
  677TIP3    H223523   2.911   3.830   2.438  1.1297  1.3676  0.2426
  678TIP3   OH223524   1.366   4.515   1.554  0.1502  0.0107 -0.3634
  678TIP3    H123525   1.375   4.579   1.483  1.8994  1.3306  1.0063
  678TIP3    H223526   1.338   4.566   1.630 -1.8785 -1.4132 -0.0996
  679TIP3   OH223527   6.034   3.332   2.143  0.2677  0.4674  0.7217
  679TIP3    H123528   6.079   3.289   2.215 -2.8657 -1.1711  1.7911
  679TIP3    H223529   5.985   3.403   2.184  0.3889  1.0749 -0.1597
  680TIP3   OH223530   2.653   4.997  11.083  0.6155  0.9228  0.5825
  680TIP3    H123531   2.561   4.972  11.077  0.8424 -0.3194  1.9868
  680TIP3    H223532   2.699   4.914  11.094  1.7756  1.6464  1.2826
  681TIP3   OH223533   1.101   4.026  12.940 -0.0283  0.4419 -0.1797
  681TIP3    H123534   1.195   4.027  12.919 -0.4032  0.5075 -1.9511
  681TIP3    H223535   1.078   4.118  12.951  0.0730  0.4350  0.1025
  682TIP3   OH223536   1.433   2.766  12.422  0.0174  0.3448  0.6189
  682TIP3    H123537   1.379   2.764  12.500 -0.1440  0.2471  0.5058
  682TIP3    H223538   1.435   2.858  12.396  0.5262  0.4595  1.0506
  683TIP3   OH223539   1.500   5.886   5.243 -0.2807  0.6556  0.2913
  683TIP3    H123540   1.409   5.873   5.269 -0.1280  0.1232  0.5460
  683TIP3    H223541   1.523   5.971   5.280 -0.3408  0.3085  1.1310
  684TIP3   OH223542   1.505   2.294  13.926 -0.3118  0.3359  0.0284
  684TIP3    H123543   1.596   2.265  13.911 -0.7268 -0.4525 -1.0390
  684TIP3    H223544   1.498   2.377  13.879  0.0601  0.7755  0.7314
  685TIP3   OH223545   3.810   2.849   5.017 -0.4545  0.4133 -0.1117
  685TIP3    H123546   3.860   2.930   5.021  1.5033 -0.8015  0.9085
  685TIP3    H223547   3.718   2.877   5.018  0.1900  2.5863  0.4376
  686TIP3   OH223548   4.984   2.956  15.143  0.1429  0.6444  0.1281
  686TIP3    H123549   4.994   3.000  15.058 -2.3709  2.5147  0.7383
  686TIP3    H223550   5.070   2.963  15.184  0.5859  2.3705 -1.0467
  687TIP3   OH223551   1.494   5.458   4.574  0.0625 -0.4623 -0.4923
  687TIP3    H123552   1.428   5.396   4.606 -0.1875 -0.1623 -0.4215
  687TIP3    H223553   1.464   5.480   4.485  0.4261 -0.8310 -0.7058
  688TIP3   OH223554   5.439   6.820  14.753 -0.1278 -0.2407 -0.5888
  688TIP3    H123555   5.390   6.818  14.671  1.3419 -0.1889 -1.4836
  688TIP3    H223556   5.513   6.877  14.736  0.6371 -0.8727  0.5264
  689TIP3   OH223557   4.101   0.320   3.409 -0.3607 -0.2282 -0.8283
  689TIP3    H123558   4.116   0.278   3.494 -1.4436 -3.4273 -2.1658
  689TIP3    H223559   4.006   0.323   3.400 -0.2409 -0.9196 -2.4122
  690TIP3   OH223560   4.885   4.117  11.407  0.1146 -0.2119 -0.2871
  690TIP3    H123561   4.817   4.177  11.377  0.4266  0.8438  1.0735
  690TIP3    H223562   4.966   4.169  11.403  0.4855 -0.7344  0.3098
  691TIP3   OH223563   1.055   1.334   3.815  0.1583  0.3313 -0.3283
  691TIP3    H123564   1.007   1.278   3.876 -1.0296  2.6468  0.9520
  691TIP3    H223565   1.146   1.328   3.843 -0.4758  1.9879  2.2634
  692TIP3   OH223566   3.350   3.858  12.651  0.2598 -0.4003  0.5598
  692TIP3    H123567   3.435   3.897  12.630 -0.8068  1.1755 -1.0207
  692TIP3    H223568   3.365   3.764  12.652  1.5543 -0.2700 -2.0674
  693TIP3   OH223569   3.362   5.804  14.861  0.2037  0.1161  0.3934
  693TIP3    H123570   3.306   5.879  14.842  2.7478  2.3372  1.3757
  693TIP3    H223571   3.333   5.773  14.947 -0.5734  0.2068  0.1683
  694TIP3   OH223572   0.364   1.938   4.502  0.2566 -0.4429 -0.0432
  694TIP3    H123573   0.320   2.022   4.488 -0.5536 -1.0543 -1.2866
  694TIP3    H223574   0.449   1.948   4.460 -1.1071 -1.3324 -3.1861
  695TIP3   OH223575   0.421   0.175  14.601  0.2060  0.2756  0.2158
  695TIP3    H123576   0.466   0.230  14.664  1.8675 -1.5132  0.6380
  695TIP3    H223577   0.483   0.104  14.582 -1.8023 -1.3802 -0.3968
  696TIP3   OH223578   3.846   6.413   2.892 -0.0409  0.0928  0.2516
  696TIP3    H123579   3.867   6.348   2.959  0.8566  0.6305  0.4991
  696TIP3    H223580   3.752   6.401   2.876  0.4770 -2.6688 -1.2131
  697TIP3   OH223581   6.114   2.322   3.315 -0.2284  0.6014 -0.8935
  697TIP3    H123582   6.183   2.272   3.356 -0.6127  0.2662 -0.6523
  697TIP3    H223583   6.085   2.384   3.382  0.5051  1.4089 -1.3159
  698TIP3   OH223584   5.335   1.404  14.205  0.6430  0.3067 -0.1706
  698TIP3    H123585   5.324   1.402  14.110 -1.7256 -1.8805  0.1023
  698TIP3    H223586   5.318   1.314  14.233  1.1871  0.9624  2.3431
  699TIP3   OH223587   6.784   1.596  16.148 -0.0256 -0.1659 -0.1311
  699TIP3    H123588   6.770   1.583  16.241  0.7174 -0.0293  0.0022
  699TIP3    H223589   6.868   1.641  16.142  0.3040 -0.8689 -0.9046
  700TIP3   OH223590   1.933   3.030  14.218 -0.1741  0.4511  0.2633
  700TIP3    H123591   1.962   3.101  14.274  1.4559  0.5737 -0.6987
  700TIP3    H223592   2.001   2.964  14.225 -1.2204 -0.6281  0.4199
  701TIP3   OH223593   0.657   6.708   5.315  0.4003 -0.1474 -0.2832
  701TIP3    H123594   0.722   6.716   5.384 -0.4684  0.4865  0.4847
  701TIP3    H223595   0.605   6.788   5.322 -2.2342 -1.8818  0.9710
  702TIP3   OH223596   2.873   3.780  12.711  0.0926 -0.2193 -0.5902
  702TIP3    H123597   2.786   3.761  12.675 -0.8434  0.8497  1.0558
  702TIP3    H223598   2.904   3.854  12.659  0.3313 -1.0615 -1.6587
  703TIP3   OH223599   2.007   0.916   0.331  0.2994  1.2781  0.0339
  703TIP3    H123600   1.938   0.867   0.375  0.5564 -0.8807 -1.8750
  703TIP3    H223601   2.088   0.876   0.362  0.6013  2.1187  0.3303
  704TIP3   OH223602   3.305   2.408  16.191  0.4319 -0.0999  0.4221
  704TIP3    H123603   3.394   2.414  16.157  1.1511  0.4149  2.3443
  704TIP3    H223604   3.282   2.498  16.215 -0.0487 -0.4526  1.3092
  705TIP3   OH223605   0.821   2.897  14.624  0.1909 -0.3995  0.1764
  705TIP3    H123606   0.883   2.835  14.586 -0.0707 -0.6849  0.2164
  705TIP3    H223607   0.822   2.879  14.718  0.0128 -0.4340  0.1719
  706TIP3   OH223608   2.240   2.765   6.962 -0.4708 -0.2331  0.0374
  706TIP3    H123609   2.290   2.684   6.976 -1.3809 -0.6699  0.7975
  706TIP3    H223610   2.248   2.782   6.868 -1.7532 -2.1780 -0.4536
  707TIP3   OH223611   1.721   0.419  12.373  0.2223 -0.2255  0.3983
  707TIP3    H123612   1.755   0.504  12.398  1.0825 -0.8709  1.4641
  707TIP3    H223613   1.791   0.380  12.319 -0.4593  0.0179 -0.6847
  708TIP3   OH223614   5.053   5.118   3.663  0.0443 -0.3089 -0.1891
  708TIP3    H123615   5.077   5.029   3.689  0.7477  0.1819  0.8386
  708TIP3    H223616   5.023   5.109   3.573  3.8667 -0.9978 -1.4950
  709TIP3   OH223617   1.750   0.866   4.962  0.3677  0.4273 -0.0356
  709TIP3    H123618   1.702   0.783   4.971  0.0219  0.6221 -0.0559
  709TIP3    H223619   1.682   0.930   4.938  0.4446  0.9395  1.0885
  710TIP3   OH223620   0.115   2.140  12.081 -0.0442 -0.3018  0.1294
  710TIP3    H123621   0.208   2.129  12.098 -0.3487 -1.9349  0.8835
  710TIP3    H223622   0.104   2.112  11.990  0.0610 -1.0119  0.3317
  711TIP3   OH223623   6.266   2.732   5.643 -0.1567 -0.7802 -0.9117
  711TIP3    H123624   6.299   2.705   5.729 -1.3828 -0.4066 -0.3130
  711TIP3    H223625   6.183   2.776   5.662  0.2736  0.6185 -2.1470
  712TIP3   OH223626   0.508   4.670  16.303  0.2435 -0.5335 -0.1847
  712TIP3    H123627   0.527   4.761  16.327 -1.3085 -0.1077 -0.5007
  712TIP3    H223628   0.594   4.629  16.294  1.0807  1.6126 -2.7502
  713TIP3   OH223629   0.419   4.915   4.767  0.4978 -0.2125  0.6997
  713TIP3    H123630   0.338   4.940   4.723  0.2438 -0.7227  0.8722
  713TIP3    H223631   0.479   4.892   4.696  0.6036  0.4812  0.5556
  714TIP3   OH223632   2.643   0.049  12.547  0.4150  0.1273  0.4266
  714TIP3    H123633   2.611  -0.040  12.564  0.3938  0.2494  1.0575
  714TIP3    H223634   2.706   0.038  12.475 -1.3060 -0.0559 -1.0809
  715TIP3   OH223635   1.731   2.893  16.785 -0.0519 -0.0882 -0.2967
  715TIP3    H123636   1.770   2.973  16.819  0.0435  0.7318 -2.2409
  715TIP3    H223637   1.782   2.875  16.705 -1.8315 -0.5595 -1.3400
  716TIP3   OH223638   4.270   6.217   4.544 -0.3074  0.6524 -0.3755
  716TIP3    H123639   4.360   6.240   4.568 -0.5157  0.4021  0.7091
  716TIP3    H223640   4.264   6.234   4.451  1.5838 -1.6111 -0.9542
  717TIP3   OH223641   2.580   5.303  14.542 -0.4686  0.1264  0.3270
  717TIP3    H123642   2.501   5.347  14.572 -0.3168  0.5771  0.0599
  717TIP3    H223643   2.549   5.239  14.478 -0.6711 -0.0462  0.5970
  718TIP3   OH223644   3.558   6.010   1.071  0.1616 -0.5587 -0.2645
  718TIP3    H123645   3.636   5.959   1.051  0.7427  0.3894 -0.4078
  718TIP3    H223646   3.519   6.029   0.986  0.5898  0.2486 -0.2829
  719TIP3   OH223647   4.407   3.506  11.014 -0.5919 -0.2638  0.0050
  719TIP3    H123648   4.395   3.587  10.965 -0.7218 -0.6593 -0.6169
  719TIP3    H223649   4.368   3.438  10.960 -0.2952 -0.7780  0.4215
  720TIP3   OH223650   5.919   1.305  14.954 -0.0155 -0.2946  0.3530
  720TIP3    H123651   5.921   1.212  14.933  0.0980  0.1818 -1.8723
  720TIP3    H223652   5.843   1.339  14.906  0.1924  0.8302  0.8012
  721TIP3   OH223653   4.376   4.021   5.016 -0.4136 -0.3290 -0.5454
  721TIP3    H123654   4.456   3.968   5.010 -0.4258 -0.7483  2.3524
  721TIP3    H223655   4.344   4.006   5.105 -1.4999  3.0754 -0.3112
  722TIP3   OH223656   3.495   2.343   3.638 -0.1653  0.4457  0.9007
  722TIP3    H123657   3.477   2.252   3.615 -0.8292  0.6860  0.4669
  722TIP3    H223658   3.518   2.340   3.731  1.7396 -0.4215  0.4195
  723TIP3   OH223659   0.858   1.289   1.466  0.6830  0.1109 -0.0850
  723TIP3    H123660   0.819   1.350   1.403  0.7301  1.3909  1.1025
  723TIP3    H223661   0.784   1.254   1.515  0.7343 -0.0808 -0.1442
  724TIP3   OH223662   5.765   6.521  11.203  0.1977 -0.4131 -0.2123
  724TIP3    H123663   5.803   6.593  11.152  1.2334 -0.2512  0.7722
  724TIP3    H223664   5.734   6.563  11.283  0.1578 -0.9506  0.0539
  725TIP3   OH223665   1.380   5.225  12.080  0.5850  0.4713  0.0085
  725TIP3    H123666   1.380   5.238  12.175 -1.2442  1.0248 -0.0448
  725TIP3    H223667   1.327   5.298  12.047  4.2364  2.4365 -1.7729
  726TIP3   OH223668   0.903   3.277  13.565  0.2871 -0.5795  0.1504
  726TIP3    H123669   0.881   3.233  13.483  3.7518 -0.1067 -1.1544
  726TIP3    H223670   0.829   3.334  13.582 -0.5534 -0.7257 -2.6657
  727TIP3   OH223671   3.876   6.220   3.715  0.4144  0.2515 -0.8144
  727TIP3    H123672   3.802   6.280   3.726  1.2124  1.2420 -0.8422
  727TIP3    H223673   3.940   6.247   3.781  0.9580 -0.2932 -1.1097
  728TIP3   OH223674   3.301   2.217   0.651 -0.0093 -0.7012 -0.6864
  728TIP3    H123675   3.396   2.213   0.661 -0.4068 -2.4656  3.3792
  728TIP3    H223676   3.276   2.127   0.629 -0.9032 -0.6410  0.0953
  729TIP3   OH223677   2.156   4.105   6.468  0.2273  0.2703 -0.0714
  729TIP3    H123678   2.082   4.107   6.529 -0.1576  1.7244 -0.5587
  729TIP3    H223679   2.117   4.116   6.381  0.9346  0.1033 -0.4187
  730TIP3   OH223680   5.769   6.233  13.826 -0.1859  1.0986 -0.4660
  730TIP3    H123681   5.727   6.252  13.910  1.8533  0.6436  0.6824
  730TIP3    H223682   5.833   6.303  13.814  0.9834  0.0377 -0.6092
  731TIP3   OH223683   4.907   2.932  11.579  0.5745 -0.2201 -0.1313
  731TIP3    H123684   4.902   3.009  11.522  1.1189  0.9439  1.3562
  731TIP3    H223685   4.990   2.891  11.556 -0.1402 -0.8994 -1.5715
  732TIP3   OH223686   5.176   0.141  13.055  0.4589 -0.0860  0.4644
  732TIP3    H123687   5.157   0.111  12.967  1.0136  1.3428 -0.1667
  732TIP3    H223688   5.124   0.085  13.112 -0.8338 -0.2359 -0.8406
  733TIP3   OH223689   2.464   2.522   2.716  0.2675  0.1232  0.1915
  733TIP3    H123690   2.437   2.593   2.775 -0.4212  0.3833 -0.4279
  733TIP3    H223691   2.382   2.490   2.678  0.5721 -0.9887  0.4382
  734TIP3   OH223692   3.231   3.323   5.043  0.9187 -0.2173 -0.7566
  734TIP3    H123693   3.205   3.344   4.953 -0.4505  0.9221 -0.1064
  734TIP3    H223694   3.153   3.340   5.096  2.0659  0.3149  0.8161
  735TIP3   OH223695   5.102   3.979  10.129 -0.2902 -0.1937  0.3260
  735TIP3    H123696   5.056   4.062  10.122  0.8333  0.4528  0.4463
  735TIP3    H223697   5.077   3.931  10.050 -1.9071 -0.2403  0.8656
  736TIP3   OH223698   2.483   1.971  12.291 -0.4895  0.0603 -0.3443
  736TIP3    H123699   2.472   1.901  12.227  1.1196 -1.0979  0.6043
  736TIP3    H223700   2.422   1.950  12.361  0.2944 -0.6616  0.1376
  737TIP3   OH223701   6.248   4.958  14.402  0.2763 -0.2171 -0.1330
  737TIP3    H123702   6.229   4.896  14.471  1.1611  1.1651  1.3849
  737TIP3    H223703   6.331   4.929  14.365 -0.0777 -0.8142 -0.4719
  738TIP3   OH223704   5.686   1.758   5.609 -0.0170 -0.1912 -0.5963
  738TIP3    H123705   5.742   1.825   5.570  1.1171  0.0211  1.3577
  738TIP3    H223706   5.733   1.676   5.594  0.9439  0.0098  1.2264
  739TIP3   OH223707   2.601   0.472  15.245 -0.5350 -0.3498 -0.1047
  739TIP3    H123708   2.581   0.541  15.307 -0.7195  0.8717 -1.4822
  739TIP3    H223709   2.516   0.437  15.220 -0.4878 -0.5373 -0.0030
  740TIP3   OH223710   0.776   5.231  14.721  0.3411 -0.5072  0.2890
  740TIP3    H123711   0.757   5.323  14.742  1.5172 -0.7145  2.4076
  740TIP3    H223712   0.698   5.184  14.749  1.1270 -0.5433  2.5079
  741TIP3   OH223713   4.387   5.938  15.367  0.1109  0.1908 -0.3956
  741TIP3    H123714   4.349   5.995  15.434 -0.0066 -0.4444  0.0827
  741TIP3    H223715   4.312   5.905  15.317  0.0889 -0.4515  0.0581
  742TIP3   OH223716   1.983   2.746   1.841 -0.2765  0.5763 -0.0361
  742TIP3    H123717   2.016   2.673   1.789  2.8116  0.4486  1.9600
  742TIP3    H223718   1.931   2.705   1.910  1.1957  0.2385  0.8966
  743TIP3   OH223719   3.349   5.042   1.031  0.2142 -0.0945  0.5713
  743TIP3    H123720   3.270   5.025   1.083  0.3082  1.1541  1.1415
  743TIP3    H223721   3.319   5.041   0.940 -0.4355  0.2653  0.7793
  744TIP3   OH223722   2.752   1.062  12.501 -0.2521 -0.5099  0.4065
  744TIP3    H123723   2.827   1.013  12.468  0.4855 -0.0731  1.4017
  744TIP3    H223724   2.790   1.137  12.546 -1.3009 -0.0572  0.5638
  745TIP3   OH223725   4.040   5.753  12.473  0.0407 -0.1308 -0.0649
  745TIP3    H123726   4.001   5.840  12.481 -0.2145 -0.2842  0.4273
  745TIP3    H223727   3.997   5.701  12.542  0.9444 -0.3673  0.3306
  746TIP3   OH223728   6.757   0.882   5.192  0.1306  0.3438  0.4079
  746TIP3    H123729   6.783   0.817   5.127 -0.3154 -1.5807  2.1124
  746TIP3    H223730   6.838   0.927   5.216  0.5856 -0.2312 -0.0582
  747TIP3   OH223731   2.142   4.849   5.709  0.2306  0.0839  0.7195
  747TIP3    H123732   2.151   4.842   5.804 -1.2204 -0.4581  0.8262
  747TIP3    H223733   2.231   4.837   5.675  0.8127  0.6657  2.0218
  748TIP3   OH223734   4.784   3.348  12.164  0.4639  0.9007 -0.6931
  748TIP3    H123735   4.720   3.364  12.095  0.9230 -0.5230 -1.4625
  748TIP3    H223736   4.844   3.284  12.127  1.4642  1.0839  0.5723
  749TIP3   OH223737   0.562   1.125  15.245  0.9224 -0.6665 -0.1130
  749TIP3    H123738   0.506   1.197  15.218 -0.8420 -1.2036  1.9593
  749TIP3    H223739   0.536   1.051  15.190 -0.5400 -0.9501  0.9412
  750TIP3   OH223740   3.416   2.884   3.892  0.3290  1.0143  0.6092
  750TIP3    H123741   3.506   2.873   3.862  0.1847  0.5870  0.3160
  750TIP3    H223742   3.420   2.870   3.987  0.4337  0.0756  0.4769
  751TIP3   OH223743   1.030   1.508   1.121  0.4158  0.4338  0.3013
  751TIP3    H123744   1.001   1.447   1.053  2.0941 -0.0688  0.0068
  751TIP3    H223745   1.066   1.453   1.190 -0.1386  1.0015  1.0603
  752TIP3   OH223746   5.865   6.239  15.531  0.2573  0.3005 -0.2674
  752TIP3    H123747   5.811   6.162  15.547  1.1127 -0.5380 -1.3385
  752TIP3    H223748   5.877   6.278  15.617 -0.7176 -0.3953  0.1971
  753TIP3   OH223749   2.393   5.048   3.560  0.5345  0.3092 -0.1470
  753TIP3    H123750   2.435   4.965   3.580 -0.4990 -0.0857  0.4201
  753TIP3    H223751   2.424   5.071   3.472  2.2772  0.2537  0.4402
  754TIP3   OH223752   3.752   2.532  12.129  0.0680  0.2159 -0.6743
  754TIP3    H123753   3.793   2.563  12.048  1.9507 -0.0637  0.1346
  754TIP3    H223754   3.745   2.437  12.118 -0.8829  0.3259 -1.0345
  755TIP3   OH223755   6.449   3.195   2.944  0.0337 -0.0383  0.0147
  755TIP3    H123756   6.522   3.205   3.005 -0.6187  0.0224  0.7987
  755TIP3    H223757   6.436   3.283   2.909 -0.1414  0.1058  0.4351
  756TIP3   OH223758   2.234   6.444  11.953  0.0149 -0.1595  0.1776
  756TIP3    H123759   2.288   6.377  11.913 -0.4488 -0.5892  0.2644
  756TIP3    H223760   2.147   6.405  11.959  0.2629 -0.4408  2.3861
  757TIP3   OH223761   3.016   4.677   5.777 -0.1581  0.9174  0.1862
  757TIP3    H123762   3.058   4.666   5.692 -0.4580 -1.3592  0.2933
  757TIP3    H223763   3.088   4.687   5.839  0.1863 -0.5923  0.0547
  758TIP3   OH223764   1.808   5.124  14.498  0.4721  0.5258  0.1860
  758TIP3    H123765   1.746   5.185  14.460  1.8989  2.2235  0.5388
  758TIP3    H223766   1.872   5.109  14.429 -0.4705 -1.4923 -0.2996
  759TIP3   OH223767   4.216   0.333   2.873  0.4232  0.1439 -0.3651
  759TIP3    H123768   4.255   0.264   2.820 -1.2705  0.9227 -2.7293
  759TIP3    H223769   4.255   0.414   2.839  2.5838  0.4196  2.5390
  760TIP3   OH223770   5.873   6.387   2.861 -0.2879  0.4434  0.0223
  760TIP3    H123771   5.915   6.438   2.930 -2.1708  0.4313  1.2171
  760TIP3    H223772   5.785   6.424   2.854 -1.0125 -1.3193 -0.5065
  761TIP3   OH223773   5.358   2.427   3.020 -0.3948 -0.2920  0.4199
  761TIP3    H123774   5.364   2.515   3.057 -1.5941  1.2666 -2.9608
  761TIP3    H223775   5.356   2.369   3.097  0.9960  2.5321  2.6880
  762TIP3   OH223776   6.280   2.858   3.914  0.1026 -0.0406  0.0156
  762TIP3    H123777   6.338   2.813   3.975 -1.4687 -1.7130  0.3259
  762TIP3    H223778   6.225   2.913   3.969 -1.6219 -1.8942  0.1957
  763TIP3   OH223779   5.584   3.430   2.912  0.2631  0.0787  0.5298
  763TIP3    H123780   5.592   3.513   2.864 -0.8868  0.3950  0.8648
  763TIP3    H223781   5.489   3.413   2.915  0.5211 -1.4928  0.0574
  764TIP3   OH223782   6.398   2.467  13.725  0.3707  0.1243 -0.1567
  764TIP3    H123783   6.307   2.495  13.732  0.5207  0.1570  2.1206
  764TIP3    H223784   6.446   2.525  13.784  1.5101 -1.3517  0.4262
  765TIP3   OH223785   4.872   1.968   3.412 -0.6645 -1.2244 -0.2320
  765TIP3    H123786   4.843   2.050   3.453  1.7916 -0.0053 -0.8553
  765TIP3    H223787   4.939   1.934   3.471  0.6566 -1.0792 -1.6116
  766TIP3   OH223788   1.598   0.735   5.593  0.4346 -0.4608  0.0976
  766TIP3    H123789   1.686   0.754   5.562  0.7596 -0.2588  1.1193
  766TIP3    H223790   1.541   0.760   5.521  1.2053 -0.4659 -0.5166
  767TIP3   OH223791   1.163   2.336   1.960 -0.1127  0.0898  0.0801
  767TIP3    H123792   1.162   2.269   2.029 -0.1853  0.1474  0.1365
  767TIP3    H223793   1.159   2.418   2.008  1.0121  0.1671  0.0443
  768TIP3   OH223794   0.836   5.798   2.912  0.0987 -0.2593 -0.1860
  768TIP3    H123795   0.840   5.804   2.816 -1.0961 -2.7618 -0.4424
  768TIP3    H223796   0.825   5.888   2.941  0.3950  0.5355 -2.4060
  769TIP3   OH223797   6.020   1.286   3.160 -0.0467 -0.2404 -0.0226
  769TIP3    H123798   5.982   1.223   3.222 -0.6675 -0.1845 -0.3381
  769TIP3    H223799   5.945   1.316   3.109  0.1239  1.3167  0.6189
  770TIP3   OH223800   3.218   6.478   1.578 -0.4390 -0.1885  0.2661
  770TIP3    H123801   3.139   6.504   1.529  0.2697 -0.5289 -1.0694
  770TIP3    H223802   3.192   6.399   1.624 -1.0541  0.0178  0.2886
  771TIP3   OH223803   2.843   5.326   0.344  0.2673 -0.5660 -0.0228
  771TIP3    H123804   2.863   5.316   0.251 -1.0978  1.0907 -0.5186
  771TIP3    H223805   2.871   5.243   0.383  1.3321 -1.0897 -1.8076
  772TIP3   OH223806   5.158   6.162   3.800  0.4243  0.0674 -0.4188
  772TIP3    H123807   5.211   6.175   3.879  0.0832 -0.8507 -0.0244
  772TIP3    H223808   5.095   6.233   3.802 -1.4254 -1.5615  1.6929
  773TIP3   OH223809   5.113   3.014   5.909  0.4944  0.0221 -0.5570
  773TIP3    H123810   5.081   2.970   5.830 -1.0717  1.2727 -0.6588
  773TIP3    H223811   5.097   3.107   5.892  2.5144  0.5167  0.1952
  774TIP3   OH223812   2.696   3.540   0.269 -0.0262  0.3841 -0.0924
  774TIP3    H123813   2.761   3.610   0.273 -1.1972  1.4616  0.7367
  774TIP3    H223814   2.736   3.473   0.215  1.1415  1.7002 -0.9095
  775TIP3   OH223815   3.163   4.846   4.175  0.0080  0.0441 -0.0688
  775TIP3    H123816   3.094   4.881   4.119 -2.4243 -0.6140  2.4559
  775TIP3    H223817   3.154   4.893   4.258  3.0874  0.4900  0.0878
  776TIP3   OH223818   0.607   1.850  14.418 -0.5271 -0.3185  0.2087
  776TIP3    H123819   0.696   1.821  14.439 -1.4394 -1.3391  2.9497
  776TIP3    H223820   0.585   1.912  14.487 -1.6560  0.5719 -0.9182
  777TIP3   OH223821   5.124   1.375  14.673  0.4136  0.5905  0.1233
  777TIP3    H123822   5.168   1.429  14.608  1.6266  0.2870  0.6646
  777TIP3    H223823   5.176   1.387  14.753  0.7490 -1.3853  0.2385
  778TIP3   OH223824   1.584   1.414   0.372 -0.2289 -1.0827 -0.0885
  778TIP3    H123825   1.603   1.350   0.303 -0.4146 -0.7877 -0.4132
  778TIP3    H223826   1.542   1.362   0.441  2.9419 -2.0009  1.2338
  779TIP3   OH223827   2.135   1.780   1.260 -0.3291 -0.2650  0.4265
  779TIP3    H123828   2.172   1.869   1.255 -1.8546  0.3915  0.6113
  779TIP3    H223829   2.054   1.786   1.210 -1.3763 -1.0883  2.0128
  780TIP3   OH223830   6.270   3.181   5.939  0.1066  0.0900 -0.1651
  780TIP3    H123831   6.286   3.147   5.851  0.1773 -1.6784  0.5218
  780TIP3    H223832   6.268   3.276   5.928  0.6277 -0.1010 -1.9894
  781TIP3   OH223833   2.077   4.956   1.488  0.2606 -0.7596 -0.0965
  781TIP3    H123834   2.124   5.019   1.433 -1.0020 -0.4467 -0.8306
  781TIP3    H223835   2.087   4.990   1.577 -0.2696  0.3874 -0.4649
  782TIP3   OH223836   2.649   4.158   1.311  0.1435 -0.4467 -0.0055
  782TIP3    H123837   2.673   4.169   1.403  0.0883  1.5312 -0.2039
  782TIP3    H223838   2.553   4.154   1.312  0.1877 -1.6769  0.1319
  783TIP3   OH223839   3.540   1.042   5.122  0.4318  0.2358  0.0957
  783TIP3    H123840   3.453   1.006   5.142  0.8936 -0.8811  0.1344
  783TIP3    H223841   3.546   1.037   5.026  0.8294 -0.5795  0.1622
  784TIP3   OH223842   2.000   4.769  14.889  0.4231  0.2981 -0.6856
  784TIP3    H123843   2.037   4.734  14.970  0.4258  0.6309 -0.5452
  784TIP3    H223844   1.994   4.693  14.831 -0.4369 -0.1184 -0.0573
  785TIP3   OH223845   3.239   5.217   1.670  0.3019  0.4516 -0.1778
  785TIP3    H123846   3.243   5.126   1.642  1.3673  0.9323 -1.6494
  785TIP3    H223847   3.318   5.229   1.723 -0.1647  0.3619  0.5499
  786TIP3   OH223848   2.811   4.613   1.502 -0.0139 -0.0915  0.4077
  786TIP3    H123849   2.788   4.597   1.593  1.0257 -1.0770  0.4966
  786TIP3    H223850   2.906   4.607   1.499 -0.1750 -2.7640 -1.2348
  787TIP3   OH223851   6.229   1.717   4.978  0.0169  0.3204  0.2420
  787TIP3    H123852   6.303   1.657   4.979 -0.4814 -0.3168 -0.4271
  787TIP3    H223853   6.157   1.666   5.016 -0.4196  0.4770 -0.3683
  788TIP3   OH223854   2.936   3.790   4.396  0.0364 -0.3034  0.8637
  788TIP3    H123855   3.009   3.851   4.410 -0.5693  0.3350  1.2883
  788TIP3    H223856   2.858   3.846   4.390 -0.5114 -1.0232  1.0855
  789TIP3   OH223857   1.572   0.727   1.098  0.3889  0.1740  0.4116
  789TIP3    H123858   1.598   0.646   1.055 -0.2065  0.2816 -0.1568
  789TIP3    H223859   1.501   0.702   1.157  0.6781  0.1618  0.7565
  790TIP3   OH223860   5.926   2.309  15.383  0.0417 -0.5301 -0.0749
  790TIP3    H123861   5.973   2.240  15.429 -1.5821 -1.6486 -0.0180
  790TIP3    H223862   5.871   2.263  15.320  3.3610  1.0439 -4.3194
  791TIP3   OH223863   0.639   2.139  13.014  0.2596  0.1741 -0.2348
  791TIP3    H123864   0.642   2.061  13.070  0.2717  1.0802  1.0396
  791TIP3    H223865   0.553   2.177  13.030 -0.1507 -0.1481 -1.6474
  792TIP3   OH223866   6.698   0.071  15.089 -0.1031  0.8495  0.0177
  792TIP3    H123867   6.669   0.161  15.075 -0.4625  0.5062 -1.4999
  792TIP3    H223868   6.793   0.078  15.099 -0.0293  1.3097 -0.9524
  793TIP3   OH223869   3.662   3.663   5.787  0.3265  0.3370 -0.4551
  793TIP3    H123870   3.674   3.753   5.816  1.1388  0.2933 -0.6453
  793TIP3    H223871   3.731   3.649   5.721  0.6897 -0.6512  0.1190
  794TIP3   OH223872   2.544   6.316  14.447  0.6683  0.3064 -0.1409
  794TIP3    H123873   2.551   6.283  14.357  1.7119  2.0739 -0.7467
  794TIP3    H223874   2.596   6.254  14.499  0.3057 -0.5608 -0.7934
  795TIP3   OH223875   4.354   6.359  15.435  0.3867  0.3720 -0.6192
  795TIP3    H123876   4.352   6.284  15.493 -2.4124  0.6108 -0.3506
  795TIP3    H223877   4.420   6.417  15.473 -0.6660  0.0598  1.7736
  796TIP3   OH223878   6.089   4.732   1.858 -0.2084  0.4944  0.2201
  796TIP3    H123879   6.163   4.743   1.798  0.6300 -1.0218  0.9483
  796TIP3    H223880   6.014   4.769   1.811  0.7843  0.9689 -1.0074
  797TIP3   OH223881   0.116   0.328  12.755 -0.0127  0.1461  0.0077
  797TIP3    H123882   0.097   0.413  12.796  1.0321  0.6710 -0.5797
  797TIP3    H223883   0.112   0.345  12.661 -1.4832 -0.8488 -0.1186
  798TIP3   OH223884   4.834   5.943   2.926  0.1984  0.3588  0.1551
  798TIP3    H123885   4.918   5.979   2.899 -1.2379  2.2377 -1.9453
  798TIP3    H223886   4.785   6.019   2.959 -1.1365 -0.5006  0.1828
  799TIP3   OH223887   3.516   3.872   4.684 -0.3428  0.1792 -0.2667
  799TIP3    H123888   3.608   3.845   4.687 -0.6091 -0.6062  1.2010
  799TIP3    H223889   3.520   3.965   4.660  0.8716  0.3190  0.3981
  800TIP3   OH223890   2.901   5.277  12.855 -0.7116  0.3085  0.7542
  800TIP3    H123891   2.882   5.204  12.914 -0.6759  0.8068  1.3939
  800TIP3    H223892   2.842   5.264  12.780  0.8248 -1.5637 -0.1499
  801TIP3   OH223893   2.541   3.419   0.472  0.5260 -0.5088  0.0922
  801TIP3    H123894   2.520   3.496   0.524 -2.2558  0.1407 -1.9051
  801TIP3    H223895   2.612   3.447   0.414 -1.1102  0.8975 -1.2924
  802TIP3   OH223896   4.570   4.209  15.447  0.0517 -0.1767  0.0977
  802TIP3    H123897   4.600   4.122  15.475 -0.0538 -0.4712 -0.7089
  802TIP3    H223898   4.632   4.234  15.379  0.2476  0.5079  0.5263
  803TIP3   OH223899   3.294   5.648  16.088  0.2296 -0.0855 -0.0595
  803TIP3    H123900   3.221   5.609  16.136  0.5149 -0.5468  0.0010
  803TIP3    H223901   3.335   5.574  16.042  1.5900 -0.0978  1.1202
  804TIP3   OH223902   3.050   2.287   4.958 -0.0339  0.1971  0.2143
  804TIP3    H123903   3.081   2.279   5.049  0.0625 -0.2459  0.1393
  804TIP3    H223904   3.128   2.269   4.905  0.0921  1.1680  0.0434
  805TIP3   OH223905   2.710   4.154  15.424  0.7042  0.1994  0.0899
  805TIP3    H123906   2.758   4.234  15.401 -0.6226  2.0942  3.6456
  805TIP3    H223907   2.635   4.154  15.364  1.7966  0.4949 -1.3162
  806TIP3   OH223908   1.088   0.623   0.241 -0.0500  0.0584  0.2487
  806TIP3    H123909   1.000   0.625   0.278 -1.1207 -0.2209 -2.1695
  806TIP3    H223910   1.135   0.559   0.293 -1.2432  0.2919  1.6391
  807TIP3   OH223911   6.449   4.895  12.325 -0.3791 -0.1750  0.1422
  807TIP3    H123912   6.405   4.811  12.341 -1.1179  0.3827  1.0332
  807TIP3    H223913   6.404   4.957  12.382 -0.8565  1.1594 -1.6301
  808TIP3   OH223914   2.912   5.424  12.063 -0.0468 -0.3338 -0.1090
  808TIP3    H123915   2.846   5.492  12.051  0.3409  0.1267  0.3783
  808TIP3    H223916   2.912   5.376  11.980  0.5229  1.0027 -0.8890
  809TIP3   OH223917   2.244   6.408  13.612  0.5626 -0.2654 -0.4365
  809TIP3    H123918   2.223   6.459  13.534  3.4518 -1.7620 -2.3078
  809TIP3    H223919   2.321   6.451  13.649  0.1959 -0.5235  0.6212
  810TIP3   OH223920   2.325   4.010  15.104  0.5927 -0.1508 -0.2112
  810TIP3    H123921   2.341   3.917  15.121  0.7297 -0.1995 -0.5975
  810TIP3    H223922   2.382   4.055  15.165  1.8114 -0.3269 -1.1937
  811TIP3   OH223923   2.044   1.392  14.184  0.3640  0.7961  0.0516
  811TIP3    H123924   2.107   1.463  14.173  1.4542 -0.1143  0.3414
  811TIP3    H223925   2.080   1.319  14.134 -0.5642  0.3346  0.0452
  812TIP3   OH223926   0.859   1.038  12.999  0.5759  0.1182  0.6029
  812TIP3    H123927   0.874   1.110  12.937  0.9651  0.1493  0.7389
  812TIP3    H223928   0.874   0.959  12.948 -3.0444  0.0085 -0.4953
  813TIP3   OH223929   6.095   3.272  15.170  0.1316  0.1187  0.4326
  813TIP3    H123930   6.089   3.364  15.197 -0.3578 -0.0561  0.9413
  813TIP3    H223931   6.131   3.275  15.082 -2.6374  0.9765 -0.7109
  814TIP3   OH223932   0.989   1.009   0.998  0.2370  0.7194  0.2328
  814TIP3    H123933   0.932   0.932   0.995  1.8631 -0.5166  0.3709
  814TIP3    H223934   1.076   0.974   1.017  0.8812  2.6671  1.0500
  815TIP3   OH223935   1.616   5.060  12.453 -0.9801 -0.0745  0.1685
  815TIP3    H123936   1.685   5.127  12.444 -0.5390 -0.3543  1.3221
  815TIP3    H223937   1.587   5.043  12.363  0.2298  0.2950 -0.3093
  816TIP3   OH223938   3.485   6.770  15.824 -1.0890 -0.1123 -0.3948
  816TIP3    H123939   3.419   6.741  15.761 -0.5755 -1.9657 -0.1061
  816TIP3    H223940   3.546   6.822  15.772 -1.2270 -0.7674 -1.2283
  817TIP3   OH223941   0.577   5.767   1.862  0.3452 -0.1994 -0.2071
  817TIP3    H123942   0.511   5.814   1.912  1.0560 -0.9152  1.4801
  817TIP3    H223943   0.646   5.831   1.847  0.0764  0.0536 -0.3601
  818TIP3   OH223944   0.325   1.274  14.460  0.2785  0.1595  0.0523
  818TIP3    H123945   0.292   1.184  14.456 -1.4210  0.8166 -1.0794
  818TIP3    H223946   0.249   1.327  14.483  0.4714  1.7251 -2.7453
  819TIP3   OH223947   6.509   0.679  12.941 -0.2490 -0.3327  0.2564
  819TIP3    H123948   6.444   0.715  12.881 -0.8985 -1.2204  0.4169
  819TIP3    H223949   6.533   0.595  12.903  0.0612 -0.4557  0.7164
  820TIP3   OH223950   3.779   1.962  16.137  0.7298 -0.1437 -0.6046
  820TIP3    H123951   3.867   1.998  16.124  1.3058 -0.2276  2.6421
  820TIP3    H223952   3.791   1.893  16.203 -2.1538  1.6345  1.9043
  821TIP3   OH223953   0.645   1.558  13.556  0.2499  0.4953 -0.2569
  821TIP3    H123954   0.692   1.574  13.638 -0.5360 -0.3600  0.3772
  821TIP3    H223955   0.699   1.599  13.489  1.4210  0.3233  0.5701
  822TIP3   OH223956   2.235   1.778   0.194  0.0175 -0.1076  0.2255
  822TIP3    H123957   2.148   1.754   0.225  0.1113  1.9956  2.3486
  822TIP3    H223958   2.240   1.873   0.208  1.6065  0.2885 -2.5920
  823TIP3   OH223959   0.101   4.513   2.339  0.4817 -0.6883 -0.3394
  823TIP3    H123960   0.030   4.525   2.402  0.2411 -0.2304 -0.6916
  823TIP3    H223961   0.173   4.475   2.389  0.0226 -1.0606  0.0426
  824TIP3   OH223962   4.384   3.663  16.295 -0.2894 -0.2227 -0.5603
  824TIP3    H123963   4.325   3.633  16.365  0.6564  0.6427  0.6280
  824TIP3    H223964   4.366   3.604  16.222 -3.4360  0.6868 -0.6269
  825TIP3   OH223965   3.953   3.412  16.959  0.5732  0.0472 -0.5654
  825TIP3    H123966   4.012   3.464  16.904  0.0501  2.2560  0.8624
  825TIP3    H223967   4.000   3.404  17.043 -0.4208  0.3987  0.0383
  826TIP3   OH223968   4.321   0.599   2.052 -0.2711 -0.3004  0.4982
  826TIP3    H123969   4.312   0.639   1.966  0.0091 -0.1592  0.5340
  826TIP3    H223970   4.398   0.542   2.045 -0.7644 -0.9572  0.4016
  827TIP3   OH223971   4.489   4.496   0.204  0.4215  0.2596  0.3824
  827TIP3    H123972   4.422   4.521   0.268 -0.0831  0.3128 -0.1550
  827TIP3    H223973   4.571   4.527   0.241 -0.1127  2.1822  0.0170
  828TIP3   OH223974   2.838   0.332  15.244  0.5975 -0.5272  0.4526
  828TIP3    H123975   2.855   0.289  15.327 -0.9996  0.3664  1.2597
  828TIP3    H223976   2.753   0.375  15.255  1.2178  1.1803 -0.9884
  829TIP3   OH223977   4.952   2.499  14.897 -0.3349 -0.5227  0.6634
  829TIP3    H123978   5.001   2.417  14.898 -2.0281 -1.6567 -1.7280
  829TIP3    H223979   4.999   2.554  14.835 -1.2002 -1.0759 -0.5171
  830TIP3   OH223980   2.545   5.447  13.569 -0.2757 -0.1500 -0.1298
  830TIP3    H123981   2.619   5.478  13.621  0.2870  0.8911 -1.5207
  830TIP3    H223982   2.474   5.435  13.632 -0.2369  3.0556  0.5960
  831TIP3   OH223983   2.379   5.569   1.090  0.0604  0.1689 -0.0125
  831TIP3    H123984   2.461   5.587   1.136 -0.9242 -0.1475  1.9119
  831TIP3    H223985   2.404   5.567   0.997  1.8926  1.9080  0.3936
  832TIP3   OH223986   3.295   6.562   0.836 -0.2973 -0.0359  0.2749
  832TIP3    H123987   3.316   6.553   0.929  0.6006 -0.0269  0.0770
  832TIP3    H223988   3.258   6.477   0.811 -0.4055 -0.0856  0.6044
  833TIP3   OH223989   5.480   5.998   3.444 -0.1024  0.0134 -0.5947
  833TIP3    H123990   5.450   6.035   3.527 -1.0574  2.1700 -1.8614
  833TIP3    H223991   5.450   5.907   3.446 -1.2602  0.4155  0.8543
  834TIP3   OH223992   2.736   2.852  16.834 -0.1630 -0.1272 -0.3540
  834TIP3    H123993   2.752   2.936  16.878 -0.1925  0.2537 -1.0682
  834TIP3    H223994   2.704   2.794  16.903  1.1270  0.0695  0.4209
  835TIP3   OH223995   2.692   5.215   3.369 -0.0717  0.0240  0.1330
  835TIP3    H123996   2.641   5.296   3.373  0.1386  0.1293  0.7675
  835TIP3    H223997   2.761   5.227   3.433  1.8671  0.6343 -2.0193
  836TIP3   OH223998   2.342   2.702  12.781  0.3308  0.8024  0.1307
  836TIP3    H123999   2.385   2.780  12.818  2.4595  0.2193 -1.0411
  836TIP3    H224000   2.411   2.657  12.732 -1.1916 -1.1463 -0.3041
  837TIP3   OH224001   5.873   2.563   2.914 -0.3909  0.6641 -0.2529
  837TIP3    H124002   5.793   2.515   2.895  0.4232 -1.1158  0.7055
  837TIP3    H224003   5.924   2.558   2.833  0.0919 -0.9536  0.1227
  838TIP3   OH224004   1.645   0.981   2.575 -0.3873 -0.3200  0.0667
  838TIP3    H124005   1.581   0.929   2.527 -1.2074 -1.0067  1.8548
  838TIP3    H224006   1.725   0.928   2.572 -0.9058 -1.1713  0.8969
  839TIP3   OH224007   4.848   3.509  11.443 -0.4620  0.0312 -0.0173
  839TIP3    H124008   4.889   3.422  11.448 -0.1009  0.1348 -1.1360
  839TIP3    H224009   4.920   3.569  11.426 -0.6676  0.6027  1.1059
  840TIP3   OH224010   3.955   4.222  12.801 -0.3083 -0.5066  0.1143
  840TIP3    H124011   4.028   4.281  12.786 -1.2695  0.5344 -0.5044
  840TIP3    H224012   3.900   4.267  12.866 -1.0175 -0.7195 -0.3259
  841TIP3   OH224013   5.808   0.418   0.981 -0.3295  0.5373  1.0650
  841TIP3    H124014   5.741   0.486   0.989  0.5125  1.4716  0.2541
  841TIP3    H224015   5.871   0.438   1.050 -0.7266 -0.1745  1.6420
  842TIP3   OH224016   2.061   1.684  12.934 -0.0255  0.1406 -0.0528
  842TIP3    H124017   1.985   1.731  12.968  1.7730  1.8812  1.6921
  842TIP3    H224018   2.057   1.698  12.839 -1.4113  0.8811  0.0937
  843TIP3   OH224019   0.215   0.452   5.500  0.0153  1.0600 -0.2650
  843TIP3    H124020   0.270   0.528   5.478  0.1433  0.9014 -0.4934
  843TIP3    H224021   0.276   0.377   5.497  0.0516  1.0461  0.6882
  844TIP3   OH224022   4.640   4.593   6.291 -0.0977  0.1934  0.4360
  844TIP3    H124023   4.613   4.527   6.227  2.8011 -1.5143  0.8697
  844TIP3    H224024   4.705   4.646   6.244 -0.1396  0.8021  1.0515
  845TIP3   OH224025   3.898   6.513  15.133  0.2281 -0.0206 -0.5788
  845TIP3    H124026   3.947   6.432  15.145 -0.6413 -0.6095 -1.0300
  845TIP3    H224027   3.917   6.540  15.043 -0.4645 -0.3767 -0.8327
  846TIP3   OH224028   4.084   3.058  13.658 -0.3940 -0.0656  0.1860
  846TIP3    H124029   4.050   3.044  13.569 -3.1257 -0.0593  1.2096
  846TIP3    H224030   4.162   3.003  13.662 -0.1135  0.0918 -2.2886
  847TIP3   OH224031   3.253   0.151  16.276  1.1819 -0.4124  0.0016
  847TIP3    H124032   3.258   0.231  16.327 -0.5005  0.1481 -0.6745
  847TIP3    H224033   3.293   0.173  16.191 -1.4156  0.4681 -1.0517
  848TIP3   OH224034   2.068   3.504   3.624  0.3700  0.3798 -0.7439
  848TIP3    H124035   2.151   3.458   3.612  0.6281  0.6815 -0.1464
  848TIP3    H224036   2.002   3.444   3.589  0.9651  0.7185 -2.5083
  849TIP3   OH224037   0.631   4.169   1.308 -0.0529  0.4294  0.1699
  849TIP3    H124038   0.709   4.212   1.343  0.8210  0.0488 -1.2499
  849TIP3    H224039   0.576   4.152   1.384  0.4589  2.3047  0.9877
  850TIP3   OH224040   3.255   1.730  14.222 -0.4540  0.1594  0.0080
  850TIP3    H124041   3.246   1.634  14.219 -1.6297  0.2416  0.3609
  850TIP3    H224042   3.336   1.748  14.176  0.4013 -1.1023  0.9886
  851TIP3   OH224043   4.474   0.214  14.030  0.3821  0.5845 -0.0367
  851TIP3    H124044   4.558   0.197  13.988  0.7212  0.9448  0.4817
  851TIP3    H224045   4.474   0.158  14.107 -0.7421 -0.9583 -1.1388
  852TIP3   OH224046   6.398   6.787   1.432  0.3194 -0.2057  0.7555
  852TIP3    H124047   6.493   6.778   1.420  0.1114 -0.4846 -0.8278
  852TIP3    H224048   6.386   6.796   1.526  1.8995 -0.4441  0.9888
  853TIP3   OH224049   2.258   0.537   0.327  0.5553 -0.5431  0.2346
  853TIP3    H124050   2.206   0.512   0.250  1.7587  0.0166 -0.7734
  853TIP3    H224051   2.344   0.496   0.312 -0.0732 -2.9062  2.7081
  854TIP3   OH224052   3.105   6.427   4.558  0.2653  0.3690  0.2567
  854TIP3    H124053   3.120   6.384   4.474  2.0874  2.2082 -0.4021
  854TIP3    H224054   3.035   6.376   4.599  0.8134 -1.8366 -1.4385
  855TIP3   OH224055   2.287   3.774   5.930  0.1760  0.0588 -0.6800
  855TIP3    H124056   2.328   3.723   6.000 -1.5373 -1.2683 -0.6220
  855TIP3    H224057   2.253   3.852   5.974  0.7257  0.1257 -0.3643
  856TIP3   OH224058   3.828   0.874  15.635 -0.3977 -0.1842 -0.2621
  856TIP3    H124059   3.910   0.829  15.658  0.0253 -0.2727 -1.8568
  856TIP3    H224060   3.857   0.949  15.582 -1.2282  0.8924  0.7927
  857TIP3   OH224061   4.947   0.755   4.896  0.3933  0.4845 -0.7731
  857TIP3    H124062   5.000   0.723   4.969 -0.3971  1.9456  0.4804
  857TIP3    H224063   4.972   0.847   4.887  0.9304  0.1650 -2.7702
  858TIP3   OH224064   6.439   4.851   6.074  0.0055  0.5572 -0.0762
  858TIP3    H124065   6.452   4.944   6.089 -0.1983  0.4751  0.6301
  858TIP3    H224066   6.400   4.819   6.155  3.3256 -0.8262  1.0775
  859TIP3   OH224067   5.300   1.282   3.167 -0.0692  0.2476  0.2443
  859TIP3    H124068   5.224   1.231   3.137 -1.1818  2.0066  0.0101
  859TIP3    H224069   5.317   1.249   3.255 -0.4396 -0.8977 -0.1015
  860TIP3   OH224070   2.759   1.169   1.325 -0.0061 -0.4457  0.0055
  860TIP3    H124071   2.783   1.194   1.414 -0.0664 -0.9605  0.1637
  860TIP3    H224072   2.826   1.211   1.270 -0.2744  0.3053  0.2535
  861TIP3   OH224073   5.112   5.276   6.113 -0.2286  0.6163 -0.0643
  861TIP3    H124074   5.167   5.354   6.111  0.8909 -0.1781 -1.2025
  861TIP3    H224075   5.174   5.203   6.124 -1.1890 -0.1660  0.2612
  862TIP3   OH224076   3.833   1.562  11.113 -0.0296  0.4396  0.0167
  862TIP3    H124077   3.737   1.567  11.113 -0.0644  0.0340 -1.3427
  862TIP3    H224078   3.852   1.471  11.138  0.1110  1.3493  3.5605
  863TIP3   OH224079   1.893   3.708  12.071 -0.1871 -0.8566 -0.0556
  863TIP3    H124080   1.895   3.752  12.156 -2.1060 -0.4193 -0.2079
  863TIP3    H224081   1.982   3.715  12.038  0.4483 -0.5232  1.6657
  864TIP3   OH224082   6.782   5.304   5.376 -0.2134 -0.3085  0.0621
  864TIP3    H124083   6.865   5.258   5.390  0.9604  1.3890 -1.0502
  864TIP3    H224084   6.760   5.340   5.462 -0.1721 -1.3548  0.5208
  865TIP3   OH224085   0.536   1.898   6.237  0.4232  0.0015 -0.3741
  865TIP3    H124086   0.450   1.861   6.219  1.4772 -1.3820 -2.7925
  865TIP3    H224087   0.536   1.983   6.193  0.5941 -0.3968 -1.1535
  866TIP3   OH224088   3.793   1.668  16.961  0.5786  0.6860 -0.1424
  866TIP3    H124089   3.732   1.689  16.890 -0.5896 -3.4444 -0.4538
  866TIP3    H224090   3.739   1.627  17.028  2.3967  0.6544  1.3270
  867TIP3   OH224091   2.875   1.464   2.575  0.8647  0.6200 -0.4302
  867TIP3    H124092   2.855   1.507   2.658 -0.0013 -1.4518  0.4581
  867TIP3    H224093   2.794   1.469   2.525  0.4512 -0.8827  0.0834
  868TIP3   OH224094   6.163   5.307  14.746 -0.0782  0.2323 -0.4519
  868TIP3    H124095   6.092   5.370  14.758 -0.0888  0.4377 -1.5034
  868TIP3    H224096   6.143   5.266  14.661  0.2960 -0.7006 -0.0894
  869TIP3   OH224097   2.208   0.549   1.780 -0.3328  0.0155  0.4991
  869TIP3    H124098   2.255   0.620   1.736 -1.6519  0.5456 -0.0691
  869TIP3    H224099   2.123   0.545   1.736  0.8894 -4.0796 -1.6863
  870TIP3   OH224100   2.895   0.365   6.881  0.5353  0.5440 -0.5413
  870TIP3    H124101   2.933   0.359   6.794  1.9403  0.6498  0.0444
  870TIP3    H224102   2.845   0.285   6.892  0.6728  0.3542 -1.2940
  871TIP3   OH224103   1.012   2.772   5.766 -1.1197  0.2505 -0.5159
  871TIP3    H124104   0.954   2.828   5.818  0.8470  0.6465  1.2731
  871TIP3    H224105   1.065   2.832   5.715 -1.2646 -0.0929 -1.0868
  872TIP3   OH224106   2.943   3.535   3.906 -0.1147  0.2226 -0.0714
  872TIP3    H124107   2.933   3.507   3.997 -0.4635 -0.3397 -0.2821
  872TIP3    H224108   2.861   3.579   3.885 -0.5897 -0.8995 -0.5596
  873TIP3   OH224109   5.047   3.901  16.582 -0.2601  0.5385  0.1289
  873TIP3    H124110   5.099   3.965  16.630 -0.2136  0.5685  0.0372
  873TIP3    H224111   4.964   3.897  16.630  0.3072 -0.5107  1.0780
  874TIP3   OH224112   0.798   3.099  12.108  0.2757 -0.2036 -0.0155
  874TIP3    H124113   0.873   3.132  12.058  0.2458 -2.7948 -1.8394
  874TIP3    H224114   0.836   3.039  12.171 -0.2603 -1.7843 -1.1688
  875TIP3   OH224115   1.914   5.524   6.028 -0.6714 -0.2157  0.0147
  875TIP3    H124116   1.901   5.567   6.112 -1.8028 -1.3996  0.4628
  875TIP3    H224117   1.878   5.436   6.040  2.4480 -1.6444 -0.5820
  876TIP3   OH224118   3.074   4.152  13.420 -0.2826 -0.0839  0.1282
  876TIP3    H124119   2.998   4.172  13.475  0.1863  1.6820  0.1552
  876TIP3    H224120   3.037   4.104  13.345 -1.4443  0.8305  0.0983
  877TIP3   OH224121   5.635   2.160   3.687 -0.5365 -0.1765 -0.0467
  877TIP3    H124122   5.692   2.118   3.622  0.4474 -0.0075  0.6990
  877TIP3    H224123   5.695   2.193   3.754 -1.2103  3.3659 -1.1314
  878TIP3   OH224124   6.178   2.038   0.537  0.3462  0.4877  0.2348
  878TIP3    H124125   6.105   2.077   0.490 -0.5526 -0.5457  0.7451
  878TIP3    H224126   6.174   2.077   0.624 -0.3379 -0.4536  0.6348
  879TIP3   OH224127   2.032   2.129   2.700  0.5486 -0.1238  0.2444
  879TIP3    H124128   2.088   2.117   2.776 -1.5122 -2.3253  1.4511
  879TIP3    H224129   1.943   2.116   2.732 -0.5294  1.0173 -2.1156
  880TIP3   OH224130   1.120   4.346  12.564  0.0137 -0.0541  0.1241
  880TIP3    H124131   1.049   4.286  12.586  0.9607 -1.3514 -0.2881
  880TIP3    H224132   1.116   4.414  12.632 -2.2046  0.4071 -0.4522
  881TIP3   OH224133   0.008   2.549  11.525  0.0703  0.2348 -0.1987
  881TIP3    H124134   0.082   2.605  11.548  1.0809 -0.6711 -1.1694
  881TIP3    H224135  -0.038   2.598  11.457  0.0369  0.5970  0.0822
  882TIP3   OH224136   3.345   1.537   4.871  0.3213 -0.1642  0.5519
  882TIP3    H124137   3.307   1.505   4.952  0.2677  1.9460  1.3908
  882TIP3    H224138   3.315   1.475   4.804 -1.0585 -0.9375  1.8655
  883TIP3   OH224139   5.873   5.121   0.880 -0.5207  0.2831 -0.1114
  883TIP3    H124140   5.938   5.164   0.935  0.9592  0.5967 -2.0509
  883TIP3    H224141   5.857   5.183   0.809  0.1820 -1.5286 -1.8856
  884TIP3   OH224142   6.162   3.900  13.221  0.0948  0.0865 -0.1664
  884TIP3    H124143   6.173   3.934  13.310  0.0033  2.3888 -1.0075
  884TIP3    H224144   6.140   3.808  13.233  0.4705  0.2725  2.1825
  885TIP3   OH224145   3.918   4.661  16.929  0.4050  0.5331 -0.0345
  885TIP3    H124146   3.920   4.680  16.835 -1.4427 -0.2061 -0.2299
  885TIP3    H224147   3.987   4.716  16.965  0.9468  1.0442 -1.7854
  886TIP3   OH224148   4.751   0.484   3.647 -0.1343 -0.0640 -0.2077
  886TIP3    H124149   4.777   0.575   3.663 -1.0622  0.3820 -1.1911
  886TIP3    H224150   4.794   0.461   3.565  0.8628 -0.8255  0.5268
  887TIP3   OH224151   5.748   4.504  14.515 -0.3755 -0.6212 -0.1280
  887TIP3    H124152   5.676   4.538  14.462 -0.8814 -1.8334 -0.2351
  887TIP3    H224153   5.811   4.470  14.451  0.1988  0.2441 -0.0279
  888TIP3   OH224154   3.762   2.940  10.603  0.9165 -0.2829  0.0155
  888TIP3    H124155   3.785   3.026  10.567 -1.1428 -0.0758 -0.8400
  888TIP3    H224156   3.834   2.883  10.574 -0.6773 -0.1494 -4.5942
  889TIP3   OH224157   1.064   3.841  15.202 -0.3470 -1.2876  0.2790
  889TIP3    H124158   1.004   3.896  15.253 -0.5143 -1.5111  0.3245
  889TIP3    H224159   1.066   3.758  15.250 -1.1244 -1.7757 -0.5194
  890TIP3   OH224160   5.791   4.304  15.447  0.7358 -0.2569 -0.0247
  890TIP3    H124161   5.819   4.217  15.476 -0.0006 -0.9335 -1.2529
  890TIP3    H224162   5.712   4.287  15.394  0.4772  1.1759 -0.1232
  891TIP3   OH224163   2.533   3.950   4.254  0.0739 -0.0409 -0.3998
  891TIP3    H124164   2.439   3.955   4.270  0.0580  1.6583 -0.9417
  891TIP3    H224165   2.544   3.870   4.203 -0.9643 -0.6845  0.3484
  892TIP3   OH224166   3.345   4.459   4.037 -0.3004 -0.3042  0.4398
  892TIP3    H124167   3.290   4.492   4.109  0.1657  2.8188 -0.5741
  892TIP3    H224168   3.407   4.530   4.020 -0.0325 -1.2158 -2.6531
  893TIP3   OH224169   5.120   6.016  12.250 -0.2926 -0.8689  0.2609
  893TIP3    H124170   5.155   6.008  12.339 -1.1367 -0.3910  0.6500
  893TIP3    H224171   5.186   5.976  12.194  0.1810 -1.3029  1.1221
  894TIP3   OH224172   0.931   0.947  11.531  0.3381 -0.3946 -0.3005
  894TIP3    H124173   1.006   0.935  11.590 -0.2434  1.2212  0.8105
  894TIP3    H224174   0.857   0.962  11.590 -0.5401 -0.2720 -1.4281
  895TIP3   OH224175   4.341   3.166  14.258 -0.1704  0.2503  0.4964
  895TIP3    H124176   4.345   3.163  14.162  2.4829 -2.6519  0.6056
  895TIP3    H224177   4.248   3.157  14.279 -0.6489 -0.4784 -1.7914
  896TIP3   OH224178   2.592   0.265  12.690 -0.6744  0.0729 -0.0950
  896TIP3    H124179   2.599   0.189  12.632 -1.7331  0.1325 -0.3049
  896TIP3    H224180   2.559   0.229  12.773 -1.8211  0.4005 -0.4060
  897TIP3   OH224181   1.908   3.858  12.318  0.0385 -0.1423 -0.1400
  897TIP3    H124182   1.881   3.949  12.304 -1.0869 -0.6313 -1.2697
  897TIP3    H224183   1.901   3.845  12.412 -1.1973  0.5279 -0.1248
  898TIP3   OH224184   1.541   6.687  11.493  0.2212  0.0729  0.3741
  898TIP3    H124185   1.532   6.712  11.585 -0.2218 -0.6247  0.5236
  898TIP3    H224186   1.465   6.726  11.451 -0.8231 -1.5586  0.7253
  899TIP3   OH224187   6.290   1.524  13.039 -0.0874  0.2568  0.5094
  899TIP3    H124188   6.263   1.545  12.950  0.6655 -0.8641  0.0074
  899TIP3    H224189   6.223   1.465  13.072 -0.7302  1.2145  0.9403
  900TIP3   OH224190   6.457   2.362   5.956  0.1159 -0.0897  0.2794
  900TIP3    H124191   6.534   2.322   5.997  1.7969  1.2136 -1.5300
  900TIP3    H224192   6.463   2.454   5.980 -1.5418 -0.1726  1.0795
  901TIP3   OH224193   2.599   1.447  15.848  0.1755 -0.3086  0.3000
  901TIP3    H124194   2.525   1.480  15.796  0.5947 -0.3606 -0.3351
  901TIP3    H224195   2.638   1.380  15.793  0.3800 -0.6526  0.8623
  902TIP3   OH224196   3.284   2.873  14.448  0.2434 -0.1318  0.0429
  902TIP3    H124197   3.293   2.809  14.519  1.3721 -0.8520 -0.7236
  902TIP3    H224198   3.375   2.897  14.427 -0.1351  1.0147 -0.3208
  903TIP3   OH224199   0.392   4.927   0.092  0.1407  0.1085  0.1057
  903TIP3    H124200   0.452   4.986   0.138 -1.0870  0.4272  1.3453
  903TIP3    H224201   0.349   4.878   0.162  2.2183 -3.3581 -0.9725
  904TIP3   OH224202   3.957   6.195   5.736 -0.5000  0.3086 -0.9271
  904TIP3    H124203   3.994   6.221   5.651 -0.5599  1.8654 -0.4916
  904TIP3    H224204   4.015   6.126   5.767  1.5993  2.1534 -0.6386
  905TIP3   OH224205   1.495   0.167  17.271  0.4631 -0.1975 -0.2819
  905TIP3    H124206   1.455   0.243  17.228 -0.5269 -0.7421 -0.3078
  905TIP3    H224207   1.445   0.092  17.240  0.8861 -0.7789  0.4402
  906TIP3   OH224208   5.266   5.707   4.220 -0.2275  0.3953  0.4558
  906TIP3    H124209   5.318   5.766   4.165  3.7274 -3.7248 -0.5928
  906TIP3    H224210   5.291   5.729   4.309  1.1589  0.4159  0.0768
  907TIP3   OH224211   3.640   6.633  12.384 -0.3888  0.5502  0.6908
  907TIP3    H124212   3.713   6.652  12.443 -1.1798  2.5294  1.0894
  907TIP3    H224213   3.595   6.559  12.424  0.3005  0.5403  1.4650
  908TIP3   OH224214   2.492   6.466   6.677 -0.3029 -0.0511 -0.1707
  908TIP3    H124215   2.534   6.530   6.619 -0.5122  0.1301 -0.1251
  908TIP3    H224216   2.400   6.492   6.678 -0.3999 -0.3933 -0.2010
  909TIP3   OH224217   5.760   3.959   0.938 -0.1292 -0.0239  0.2286
  909TIP3    H124218   5.854   3.956   0.954 -0.0512 -0.0557 -0.2098
  909TIP3    H224219   5.736   4.050   0.952 -0.2190 -0.2158  1.3435
  910TIP3   OH224220   6.210   6.609   5.050  0.1194  0.1272 -0.0604
  910TIP3    H124221   6.171   6.667   4.986  2.3782  0.8884 -0.7682
  910TIP3    H224222   6.238   6.666   5.121 -1.2481 -0.5746  1.0869
  911TIP3   OH224223   6.470   4.401  11.715  0.2510 -0.1533 -0.2243
  911TIP3    H124224   6.410   4.458  11.667  0.1085  0.2985  0.4880
  911TIP3    H224225   6.557   4.433  11.693  0.1549  0.6583  0.5733
  912TIP3   OH224226   5.001   1.011   1.275 -0.1620  0.7400 -0.0444
  912TIP3    H124227   4.953   1.060   1.341  0.8093  1.3690  0.2064
  912TIP3    H224228   4.956   1.032   1.193 -1.1024  0.2965  0.3485
  913TIP3   OH224229   6.274   4.477   1.365  0.2352  0.5674  0.0608
  913TIP3    H124230   6.354   4.476   1.417  1.3826  1.4352 -1.6644
  913TIP3    H224231   6.228   4.397   1.391  1.2787  0.4627  1.6380
  914TIP3   OH224232   2.396   6.752   2.543  0.0718  0.4002 -1.0055
  914TIP3    H124233   2.440   6.830   2.509  1.8510 -0.1654 -0.0460
  914TIP3    H224234   2.427   6.681   2.488 -0.6255  0.1858 -1.1240
  915TIP3   OH224235   2.708   6.389  12.243  0.8069 -0.5328 -0.1985
  915TIP3    H124236   2.722   6.471  12.291  1.2911 -0.3235 -0.6910
  915TIP3    H224237   2.659   6.414  12.165 -1.1477 -1.0670  0.8328
  916TIP3   OH224238   3.419   6.618  14.176  0.1488  0.6243 -0.0443
  916TIP3    H124239   3.465   6.696  14.145  0.4669  0.9283  1.1420
  916TIP3    H224240   3.425   6.556  14.103  1.6661  0.9821 -0.2568
  917TIP3   OH224241   6.577   6.184  14.318  0.3223  0.0943  0.0548
  917TIP3    H124242   6.585   6.275  14.348  2.6897 -0.6312  1.8049
  917TIP3    H224243   6.484   6.173  14.297  0.0658  3.0002 -0.4929
  918TIP3   OH224244   0.460   6.348  13.309 -0.4328  0.2687 -0.2419
  918TIP3    H124245   0.464   6.368  13.402 -0.7895 -0.5406 -0.0513
  918TIP3    H224246   0.437   6.256  13.305  0.2407  0.1321 -1.1321
  919TIP3   OH224247   3.945   3.742  13.134 -0.5327 -0.7750  0.0836
  919TIP3    H124248   3.893   3.816  13.165  0.7135  0.3611 -0.4654
  919TIP3    H224249   3.881   3.676  13.107 -1.6613 -0.5174  2.0167
  920TIP3   OH224250   6.333   0.614   4.762  0.3386 -0.6407 -0.8319
  920TIP3    H124251   6.363   0.691   4.810 -2.1512  0.1703 -0.4603
  920TIP3    H224252   6.389   0.543   4.793  1.3906  0.6391  0.2954
  921TIP3   OH224253   1.295   4.462   5.421 -0.7643 -0.1610 -0.1163
  921TIP3    H124254   1.228   4.493   5.360 -1.9878 -2.2158  0.1205
  921TIP3    H224255   1.358   4.417   5.365 -1.0137 -0.5916 -0.0547
  922TIP3   OH224256   2.726   4.461   4.809  0.7837  0.2836 -0.1469
  922TIP3    H124257   2.707   4.368   4.797 -1.0880  0.7860 -1.2476
  922TIP3    H224258   2.643   4.499   4.838  1.8092  1.4325  1.3093
  923TIP3   OH224259   2.511   3.575  10.767 -0.1150  0.4786 -0.4854
  923TIP3    H124260   2.581   3.521  10.730 -0.5381 -1.3727  1.3185
  923TIP3    H224261   2.434   3.518  10.768 -0.2966  0.6733  2.5282
  924TIP3   OH224262   4.669   3.670  16.190  0.2685  0.0226 -0.1800
  924TIP3    H124263   4.645   3.693  16.280 -0.6952  1.4768 -0.7835
  924TIP3    H224264   4.730   3.739  16.164 -1.7142  1.3019 -1.6027
  925TIP3   OH224265   1.650   6.780   1.820  0.2433  0.3721 -0.2304
  925TIP3    H124266   1.684   6.771   1.731 -0.0640 -0.6499 -0.2540
  925TIP3    H224267   1.727   6.778   1.876  0.4202  0.7735 -0.4617
  926TIP3   OH224268   5.071   6.267  13.869 -0.1448 -0.2752 -0.2801
  926TIP3    H124269   5.023   6.199  13.822 -0.5686  0.4616 -0.9259
  926TIP3    H224270   5.163   6.243  13.857 -0.2946 -0.7579 -0.4743
  927TIP3   OH224271   4.363   3.404  11.887  0.4838  0.6027 -0.0913
  927TIP3    H124272   4.294   3.424  11.823  0.7701  1.6183 -0.0871
  927TIP3    H224273   4.318   3.355  11.956 -0.2810  1.4997  0.0457
  928TIP3   OH224274   0.715   2.926  11.058 -0.5040 -0.1705 -0.3750
  928TIP3    H124275   0.625   2.941  11.027 -0.7022  0.6898  0.5957
  928TIP3    H224276   0.707   2.859  11.125 -0.6219  0.8791  0.6892
  929TIP3   OH224277   0.938   6.717   6.044  0.0093 -0.1412  0.2851
  929TIP3    H124278   0.987   6.635   6.040 -0.8198 -0.6561  0.5386
  929TIP3    H224279   1.002   6.781   6.075  1.4202 -0.0640 -2.5994
  930TIP3   OH224280   5.568   0.746  14.620  0.1820  0.9494 -0.1430
  930TIP3    H124281   5.526   0.733  14.535 -0.6272  1.0385  0.2416
  930TIP3    H224282   5.500   0.726  14.684  0.2933  2.5047  0.4871
  931TIP3   OH224283   2.559   0.867  16.544  0.3748 -0.2760 -0.5457
  931TIP3    H124284   2.619   0.895  16.613 -0.2550  0.4991 -0.3139
  931TIP3    H224285   2.586   0.777  16.524 -1.9433 -2.0116  3.4617
  932TIP3   OH224286   6.427   1.530  16.577  0.0590  0.6025 -0.0244
  932TIP3    H124287   6.509   1.533  16.625 -0.5409  0.4986  1.0278
  932TIP3    H224288   6.363   1.569  16.636 -0.9539 -0.7741 -0.1733
  933TIP3   OH224289   6.473   6.352  14.729 -0.9481  0.5811 -0.5593
  933TIP3    H124290   6.461   6.387  14.817 -1.2693 -0.5598 -0.1395
  933TIP3    H224291   6.392   6.374  14.683 -0.9879  0.7351 -0.4125
  934TIP3   OH224292   2.619   6.031   2.332 -0.3206  0.1893 -0.1834
  934TIP3    H124293   2.708   6.042   2.366 -0.7719  1.3338  0.6408
  934TIP3    H224294   2.564   6.019   2.410 -1.0714  0.8500 -0.5964
  935TIP3   OH224295   3.819   4.073  13.506  0.7207  0.6666  0.1281
  935TIP3    H124296   3.771   4.153  13.528  2.4162  1.1175  2.3908
  935TIP3    H224297   3.857   4.044  13.589  1.0719 -1.8811 -0.8704
  936TIP3   OH224298   3.423   4.790   5.140 -0.4371  0.5232  0.2536
  936TIP3    H124299   3.461   4.832   5.217 -1.3060 -1.8088  2.0043
  936TIP3    H224300   3.473   4.709   5.130 -1.5740 -0.0928 -0.5261
  937TIP3   OH224301   2.614   5.974   1.865  0.0777 -0.1966  0.9422
  937TIP3    H124302   2.685   6.024   1.904  0.7271 -0.7302  0.4513
  937TIP3    H224303   2.639   5.964   1.773 -0.8577  0.0216  0.6547
  938TIP3   OH224304   2.108   5.008   2.809 -0.9165 -0.2185  0.2211
  938TIP3    H124305   2.158   4.928   2.794  0.2286  0.5645 -0.2516
  938TIP3    H224306   2.159   5.056   2.875 -1.0249  0.5862 -0.2657
  939TIP3   OH224307   1.203   6.408  16.405  0.0289  0.0897  0.3424
  939TIP3    H124308   1.279   6.396  16.348 -0.9040  0.8787 -1.0828
  939TIP3    H224309   1.165   6.491  16.377 -1.5827 -0.4876  0.8025
  940TIP3   OH224310   1.085   4.267   1.909 -0.7139  0.0563 -0.3378
  940TIP3    H124311   1.166   4.312   1.885 -2.0848  2.4898 -0.6065
  940TIP3    H224312   1.039   4.255   1.825 -0.9218 -0.7439 -0.1148
  941TIP3   OH224313   4.810   5.291  15.946  0.3047  0.2065 -0.1101
  941TIP3    H124314   4.764   5.340  15.878 -0.0594 -1.2513 -0.9198
  941TIP3    H224315   4.796   5.342  16.026  2.9314  3.3859 -1.5517
  942TIP3   OH224316   6.762   1.250   0.404 -0.7466  0.2237 -0.3112
  942TIP3    H124317   6.846   1.209   0.421 -0.7576 -0.3893 -1.6812
  942TIP3    H224318   6.776   1.301   0.324 -1.0896  1.8659  0.6338
  943TIP3   OH224319   3.459   6.497   4.421  0.1746  0.6481 -0.0806
  943TIP3    H124320   3.424   6.412   4.448 -0.0137  1.2569  1.6325
  943TIP3    H224321   3.496   6.481   4.334  0.6514 -1.3183  0.4598
  944TIP3   OH224322   5.065   6.621   5.502  0.0494 -0.1588  0.1626
  944TIP3    H124323   5.035   6.685   5.567 -0.4009 -0.4084  0.1977
  944TIP3    H224324   5.120   6.561   5.552  0.3404  0.1052  0.1619
  945TIP3   OH224325   5.503   0.753  12.541  0.2112 -0.1862  0.5422
  945TIP3    H124326   5.448   0.702  12.601  0.5916 -0.7684  0.4001
  945TIP3    H224327   5.493   0.709  12.457 -0.3577  0.6604  0.1619
  946TIP3   OH224328   3.066   1.557  15.081  0.1540  0.0209 -0.2052
  946TIP3    H124329   3.109   1.614  15.017 -1.0987  2.6023  1.2039
  946TIP3    H224330   2.974   1.581  15.077 -0.1720 -0.8905  1.4687
  947TIP3   OH224331   6.737   3.960  10.750 -0.1987 -0.0390 -0.1152
  947TIP3    H124332   6.699   3.881  10.787  1.0187  0.0553  1.3958
  947TIP3    H224333   6.662   4.017  10.732 -0.8906 -0.4565  1.3563
  948TIP3   OH224334   2.084   4.853  15.559  0.2748 -0.2954  0.1520
  948TIP3    H124335   1.989   4.867  15.560  0.0737 -1.5881  2.1795
  948TIP3    H224336   2.106   4.846  15.466 -1.3769  1.3943 -0.4186
  949TIP3   OH224337   3.273   3.055  13.203  0.2515  0.4300 -0.1208
  949TIP3    H124338   3.343   3.062  13.138  0.8657  0.9100  0.5829
  949TIP3    H224339   3.299   2.980  13.257 -0.7269 -0.5464 -0.9783
  950TIP3   OH224340   6.601   0.281   6.047  0.4125 -0.0628 -0.0666
  950TIP3    H124341   6.642   0.291   6.133  0.1860 -0.7084  0.1154
  950TIP3    H224342   6.657   0.219   6.000 -0.6138 -1.3118  0.3487
  951TIP3   OH224343   5.734   2.538  15.596  0.2721  0.2367 -0.4230
  951TIP3    H124344   5.729   2.461  15.540  0.9361  0.8754 -1.3736
  951TIP3    H224345   5.689   2.607  15.546 -0.1101  0.5323  0.3164
  952TIP3   OH224346   5.085   2.857   6.141  1.0126 -0.0636  0.2577
  952TIP3    H124347   5.084   2.794   6.069  0.3075  0.7967 -0.4962
  952TIP3    H224348   5.086   2.942   6.098 -1.8207  0.5085  1.2534
  953TIP3   OH224349   4.108   6.615   0.265  0.2153  0.3049  0.1003
  953TIP3    H124350   4.100   6.597   0.171  1.3467  0.8595 -0.1157
  953TIP3    H224351   4.201   6.631   0.278 -0.1506  1.7114  1.0512
  954TIP3   OH224352   3.343   2.515  15.441 -0.9232 -0.2475 -0.1531
  954TIP3    H124353   3.250   2.526  15.460 -1.0666 -0.7182 -0.5807
  954TIP3    H224354   3.349   2.522  15.346 -0.0610  3.2229  0.0913
  955TIP3   OH224355   2.903   2.982  14.356  0.0632 -0.3480  0.4207
  955TIP3    H124356   2.905   3.077  14.343  0.0639 -0.4814 -0.6475
  955TIP3    H224357   2.960   2.948  14.286 -1.8084 -1.2712 -0.6741
  956TIP3   OH224358   3.392   1.885   5.806 -0.0880  0.1996  0.0945
  956TIP3    H124359   3.453   1.843   5.747  0.3554 -0.1615  0.8064
  956TIP3    H224360   3.306   1.874   5.764  0.2006 -0.1912 -0.3918
  957TIP3   OH224361   6.091   3.626  13.304 -0.1755  0.4612  0.1476
  957TIP3    H124362   6.001   3.598  13.321  0.1796 -0.6881  0.1848
  957TIP3    H224363   6.138   3.607  13.386  0.0166  1.4261  0.2647
  958TIP3   OH224364   5.415   4.116  13.889 -0.3654  0.1606 -0.0895
  958TIP3    H124365   5.502   4.095  13.924 -1.3549 -1.4373  1.4725
  958TIP3    H224366   5.360   4.127  13.967 -1.9239 -0.4125 -1.0957
  959TIP3   OH224367   2.051   5.766  11.118  0.2983 -0.5050  0.1695
  959TIP3    H124368   2.040   5.691  11.060  1.0538 -1.2527  0.9871
  959TIP3    H224369   2.146   5.779  11.123  0.4583 -2.5602  3.8849
  960TIP3   OH224370   1.387   6.590  12.202 -0.8969  0.5335  0.1770
  960TIP3    H124371   1.451   6.520  12.203 -0.0948  1.1101 -3.0021
  960TIP3    H224372   1.306   6.549  12.169 -1.3109  0.4498  1.2859
  961TIP3   OH224373   0.025   3.679  17.177 -0.4929  0.6435  0.3577
  961TIP3    H124374  -0.045   3.656  17.238  0.2831  1.5208  1.6138
  961TIP3    H224375   0.060   3.761  17.212  1.5234 -0.0716  0.0705
  962TIP3   OH224376   6.516   1.867  16.724  0.3165 -0.2243 -0.4195
  962TIP3    H124377   6.446   1.893  16.785 -0.1060  0.2778 -1.1173
  962TIP3    H224378   6.594   1.909  16.759  0.1947 -0.4366  0.1229
  963TIP3   OH224379   5.207   3.958  11.254 -0.3559  0.1446 -0.4974
  963TIP3    H124380   5.264   4.000  11.190  1.6603  0.3999  1.4097
  963TIP3    H224381   5.121   3.954  11.211  0.5131  1.9652 -2.4823
  964TIP3   OH224382   3.133   6.675   3.288  0.5894  0.2542  0.2632
  964TIP3    H124383   3.191   6.705   3.218 -0.4670  0.1059 -0.6948
  964TIP3    H224384   3.064   6.626   3.243 -0.1973  0.2977  1.3948
  965TIP3   OH224385   3.577   3.818  13.753 -0.3370  0.0876  0.7824
  965TIP3    H124386   3.628   3.804  13.833  0.3609 -1.5301  0.0829
  965TIP3    H224387   3.640   3.802  13.682 -0.6916  2.4409 -0.1211
  966TIP3   OH224388   1.737   5.924   1.389 -0.0116 -0.0129 -0.4358
  966TIP3    H124389   1.766   5.905   1.300 -0.5486 -0.6750 -0.4815
  966TIP3    H224390   1.684   5.848   1.413 -0.7149  0.6282  0.0722
  967TIP3   OH224391   2.654   6.365   5.201  0.2431  0.5002 -0.4010
  967TIP3    H124392   2.713   6.435   5.173 -0.3368  1.2720  0.2871
  967TIP3    H224393   2.617   6.331   5.119  1.7931 -0.1285 -0.8503
  968TIP3   OH224394   6.123   0.555   0.465  0.1618  0.3813 -0.3587
  968TIP3    H124395   6.115   0.568   0.370  1.1117  1.0581 -0.3479
  968TIP3    H224396   6.128   0.460   0.476  0.0193  0.3009 -0.9799
  969TIP3   OH224397   6.727   4.878  14.213  0.1079  0.2506 -0.1244
  969TIP3    H124398   6.744   4.846  14.124  0.6143 -1.4529  0.5689
  969TIP3    H224399   6.724   4.973  14.204  1.5731  0.1761 -1.7350
  970TIP3   OH224400   1.971   1.915   5.779  0.0508 -0.6853  0.3468
  970TIP3    H124401   1.880   1.933   5.755  0.8288 -0.4693 -2.5178
  970TIP3    H224402   1.965   1.842   5.841 -2.0055 -1.4041 -0.6557
  971TIP3   OH224403   5.991   4.201   1.115 -0.5128 -0.1291 -0.3051
  971TIP3    H124404   6.068   4.145   1.127 -1.0080 -0.3124  2.4630
  971TIP3    H224405   5.943   4.161   1.042  1.1580 -0.9713 -0.9644
  972TIP3   OH224406   4.100   4.221  12.511 -0.2451  0.1859  0.1734
  972TIP3    H124407   4.046   4.267  12.575 -1.2323 -0.2816 -0.3100
  972TIP3    H224408   4.160   4.287  12.477  0.9000  0.2354  2.2283
  973TIP3   OH224409   0.325   3.140   4.936  0.1732  0.0853  0.0488
  973TIP3    H124410   0.408   3.101   4.907 -0.3933  0.5486 -2.2876
  973TIP3    H224411   0.268   3.065   4.952  0.7533 -0.2095  0.7331
  974TIP3   OH224412   5.880   0.918   0.601  0.6075 -0.1099 -0.3789
  974TIP3    H124413   5.827   0.874   0.535 -1.0804  0.1450  0.7798
  974TIP3    H224414   5.895   1.006   0.565 -0.8302  0.2335 -0.1759
  975TIP3   OH224415   1.493   3.553   0.557  0.1682 -0.1607 -0.1282
  975TIP3    H124416   1.495   3.569   0.652 -2.1118 -1.0257  0.0815
  975TIP3    H224417   1.471   3.460   0.549  0.5642 -0.1426 -1.5288
  976TIP3   OH224418   1.142   2.939  16.530  0.0011 -0.4396  0.8564
  976TIP3    H124419   1.194   2.878  16.477 -0.9282 -0.4842 -0.0035
  976TIP3    H224420   1.207   2.983  16.585  0.7683 -1.7303  1.0227
  977TIP3   OH224421   0.291   5.297  10.725 -0.5053 -0.0543  0.0311
  977TIP3    H124422   0.218   5.292  10.664 -2.0340 -3.4050  2.0227
  977TIP3    H224423   0.337   5.213  10.715  3.0201  1.9011 -1.0438
  978TIP3   OH224424   2.553   0.822   5.083 -0.0045 -0.4397 -0.1784
  978TIP3    H124425   2.624   0.779   5.036 -0.1475 -0.5670 -0.2792
  978TIP3    H224426   2.479   0.762   5.075 -0.8677  0.8271 -2.2481
  979TIP3   OH224427   0.254   6.536  16.007  0.4403  0.4491 -0.0049
  979TIP3    H124428   0.183   6.523  15.944 -0.0021  0.2557  0.5301
  979TIP3    H224429   0.270   6.448  16.042  0.1368  0.6924  0.7436
  980TIP3   OH224430   3.909   5.618   1.606  0.9985 -0.5327  0.3718
  980TIP3    H124431   3.876   5.651   1.690 -1.1762  1.5400 -1.2205
  980TIP3    H224432   3.853   5.543   1.586  1.0526 -0.5874  0.4216
  981TIP3   OH224433   3.860   3.202  14.134  0.7472 -0.0881  0.3212
  981TIP3    H124434   3.852   3.196  14.039  0.1972  2.0118  0.2094
  981TIP3    H224435   3.904   3.286  14.149 -0.6388  0.3572  1.9772
  982TIP3   OH224436   5.489   3.852   0.989 -0.6071  0.0539  0.0926
  982TIP3    H124437   5.583   3.868   0.989 -0.9624  2.3220 -0.3518
  982TIP3    H224438   5.450   3.940   0.997 -2.6782 -0.8081 -0.3082
  983TIP3   OH224439   2.169   2.362   2.949  0.3316  0.0940 -0.5630
  983TIP3    H124440   2.204   2.383   3.035 -3.8117  0.1445  1.2466
  983TIP3    H224441   2.185   2.440   2.896  3.5341 -0.1959 -0.1125
  984TIP3   OH224442   0.316   4.716  13.648 -0.1992  0.3581  0.2940
  984TIP3    H124443   0.353   4.797  13.611 -0.2470  0.1887 -0.1265
  984TIP3    H224444   0.368   4.646  13.609  1.0617  0.2675  2.0876
  985TIP3   OH224445   0.235   4.472  15.973  0.3268 -0.0013 -0.6835
  985TIP3    H124446   0.264   4.398  15.920 -2.1292 -0.4987 -1.3910
  985TIP3    H224447   0.185   4.527  15.912 -1.8072 -0.1424  0.8896
  986TIP3   OH224448   5.193   2.791  13.159  0.1761  0.1520  0.3885
  986TIP3    H124449   5.244   2.711  13.167 -1.4041 -0.9042  0.0565
  986TIP3    H224450   5.129   2.772  13.091 -1.9584  0.7473  2.1911
  987TIP3   OH224451   1.556   6.303   0.507  0.2021 -0.3509 -0.1688
  987TIP3    H124452   1.484   6.260   0.462  0.2356  0.2320 -0.7864
  987TIP3    H224453   1.523   6.318   0.596 -0.1461 -0.7887 -0.2193
  988TIP3   OH224454   2.880   2.897  11.445 -0.2905 -0.0703 -0.0558
  988TIP3    H124455   2.909   2.988  11.444 -1.3439  0.2768  0.2440
  988TIP3    H224456   2.786   2.902  11.464 -0.1579 -1.2691  0.9395
  989TIP3   OH224457   5.439   3.957   3.184  0.1502 -0.2978 -0.4034
  989TIP3    H124458   5.487   3.954   3.267  0.2519  0.0438 -0.4488
  989TIP3    H224459   5.351   3.927   3.207  0.4301 -1.0954 -0.3573
  990TIP3   OH224460   1.490   0.361  16.087 -0.2222  0.1263 -0.0158
  990TIP3    H124461   1.485   0.273  16.124  2.2907  0.3605  0.9712
  990TIP3    H224462   1.495   0.419  16.163  1.0031  0.9041 -0.6822
  991TIP3   OH224463   1.531   2.685   5.790 -0.1965  0.2212 -0.6407
  991TIP3    H124464   1.450   2.696   5.740 -0.3004 -0.1356 -0.5494
  991TIP3    H224465   1.543   2.590   5.796  0.6954  0.2886 -1.3991
  992TIP3   OH224466   2.554   2.386  13.829 -0.3035 -0.2196 -0.1173
  992TIP3    H124467   2.538   2.400  13.735 -1.2425  1.1173  0.2221
  992TIP3    H224468   2.646   2.360  13.834  0.2180  1.2910 -1.2816
  993TIP3   OH224469   6.158   6.000  15.486  0.5627 -0.1241 -0.2883
  993TIP3    H124470   6.109   6.075  15.454 -0.2281 -0.5589 -0.1083
  993TIP3    H224471   6.219   6.037  15.550 -1.8347  0.0167  1.9992
  994TIP3   OH224472   3.000   6.290   2.981  0.0597  0.0691  0.0453
  994TIP3    H124473   2.977   6.285   2.888 -1.4048 -0.3632  0.4189
  994TIP3    H224474   3.013   6.383   2.997  0.9503  0.0900 -0.7426
  995TIP3   OH224475   3.464   6.463  11.625 -0.5251  0.0527  0.1469
  995TIP3    H124476   3.370   6.480  11.612 -0.1822  2.6424  0.7955
  995TIP3    H224477   3.470   6.427  11.713 -0.8428  0.5800  0.3887
  996TIP3   OH224478   4.463   0.785   2.761  0.0659  0.5087 -0.5001
  996TIP3    H124479   4.454   0.775   2.667 -0.5902  0.7572 -0.4650
  996TIP3    H224480   4.555   0.768   2.778 -0.0660 -0.8134 -1.0279
  997TIP3   OH224481   5.966   4.494  16.556  0.3182  0.1913 -0.4462
  997TIP3    H124482   6.017   4.501  16.475  0.5805 -1.9881 -0.5067
  997TIP3    H224483   5.920   4.578  16.563  2.8159  1.6763 -1.1097
  998TIP3   OH224484   3.066   3.601   2.827 -0.2769 -0.3275 -0.2403
  998TIP3    H124485   3.038   3.559   2.745  0.1942  0.7867 -0.9780
  998TIP3    H224486   3.157   3.626   2.810 -0.0676 -0.4022  0.7572
  999TIP3   OH224487   0.709   4.867  17.249  0.5933 -0.2743  0.1584
  999TIP3    H124488   0.628   4.915  17.269  1.3160  0.6001  1.0069
  999TIP3    H224489   0.692   4.826  17.164 -0.6151  0.1878  0.1707
 1000TIP3   OH224490   6.689   4.428   6.591 -0.3808  0.3255 -0.1787
 1000TIP3    H124491   6.627   4.447   6.662  0.3854  0.1853  0.5228
 1000TIP3    H224492   6.637   4.380   6.527 -1.0051  0.2127  0.4031
 1001TIP3   OH224493   0.515   3.864   3.755 -0.2047  0.3852 -0.5016
 1001TIP3    H124494   0.519   3.934   3.690 -0.3838  0.2122 -0.7012
 1001TIP3    H224495   0.543   3.785   3.708  1.6381  0.6245  0.1644
 1002TIP3   OH224496   0.866   2.339   3.256  0.1423  0.9502 -0.0380
 1002TIP3    H124497   0.814   2.414   3.224 -0.7906  0.5130  0.4212
 1002TIP3    H224498   0.935   2.379   3.309  1.7018  1.6815 -2.5534
 1003TIP3   OH224499   3.543   2.496   2.649  0.4661  0.4770  0.8169
 1003TIP3    H124500   3.487   2.489   2.727  1.0566  2.9345  1.5174
 1003TIP3    H224501   3.482   2.521   2.579  0.3155  0.8525  1.0751
 1004TIP3   OH224502   1.949   0.758   1.489 -0.1375  0.5521  0.6587
 1004TIP3    H124503   1.992   0.843   1.493  0.2059  0.5035 -1.2029
 1004TIP3    H224504   1.881   0.769   1.422  0.4010 -0.8167 -0.1462
 1005TIP3   OH224505   3.982   0.351   2.319 -0.0043  0.2966 -0.4879
 1005TIP3    H124506   3.999   0.419   2.253  0.8641  0.9671  0.4088
 1005TIP3    H224507   3.982   0.399   2.402 -1.4813 -0.4781 -0.0283
 1006TIP3   OH224508   2.828   2.471   1.727 -0.4567 -0.2832 -0.3238
 1006TIP3    H124509   2.851   2.550   1.677 -0.4118  0.4804  0.8820
 1006TIP3    H224510   2.747   2.494   1.772 -0.7657 -1.1392 -0.4318
 1007TIP3   OH224511   3.931   4.837   0.130 -0.5171 -0.0134  0.1437
 1007TIP3    H124512   3.862   4.772   0.145 -0.4227 -0.1625 -0.0766
 1007TIP3    H224513   3.928   4.892   0.209  0.3635 -1.1529  1.0001
 1008TIP3   OH224514   4.699   3.871   5.645  0.3791  0.2075  0.2440
 1008TIP3    H124515   4.657   3.936   5.588  1.6590  0.1419 -0.7938
 1008TIP3    H224516   4.667   3.787   5.613  2.7337  0.0376 -1.8015
 1009TIP3   OH224517   3.823   3.853   3.035 -0.2740  0.0348  0.3830
 1009TIP3    H124518   3.837   3.921   2.969  0.0535  0.8264  1.2768
 1009TIP3    H224519   3.870   3.777   3.000 -0.3184  0.3711 -0.4249
 1010TIP3   OH224520   5.317   2.456   3.706 -0.3838 -0.1214  0.0792
 1010TIP3    H124521   5.354   2.542   3.685  2.5340 -1.3312 -0.0672
 1010TIP3    H224522   5.223   2.471   3.714  0.2171  3.3243  1.3900
 1011TIP3   OH224523   1.474   6.183  14.858  0.3295 -0.6540 -0.4422
 1011TIP3    H124524   1.426   6.265  14.872  0.8696 -0.2990 -0.6391
 1011TIP3    H224525   1.514   6.193  14.772 -1.0879 -1.8790 -1.2626
 1012TIP3   OH224526   3.664   0.950  11.171 -0.2724  0.1979  0.0948
 1012TIP3    H124527   3.699   1.015  11.111  0.2588  0.5055  0.7369
 1012TIP3    H224528   3.661   0.995  11.256 -1.4297 -0.0857  0.2129
 1013TIP3   OH224529   0.091   6.536  14.537  0.6216  0.2241  0.1953
 1013TIP3    H124530   0.076   6.529  14.442  1.3948  0.3021  0.0598
 1013TIP3    H224531   0.062   6.452  14.573 -0.7726  0.6291  0.0407
 1014TIP3   OH224532   3.290   6.279  14.331  0.4087  0.3925  0.3348
 1014TIP3    H124533   3.282   6.349  14.267 -1.8440 -0.0527  0.0995
 1014TIP3    H224534   3.251   6.202  14.289  0.0428 -0.2208  1.7374
 1015TIP3   OH224535   6.150   4.938  12.898 -0.1864 -0.4183  0.5853
 1015TIP3    H124536   6.099   4.906  12.824  0.6907  0.7220 -0.5474
 1015TIP3    H224537   6.208   4.866  12.921  1.3395  0.0617 -1.5356
 1016TIP3   OH224538   4.450   0.156  11.913  0.4419  0.6058  0.0024
 1016TIP3    H124539   4.474   0.068  11.941  1.3250  1.7026  2.8739
 1016TIP3    H224540   4.400   0.143  11.832  1.1189 -2.4606  0.0213
 1017TIP3   OH224541   4.095   6.357   5.530  0.2936 -0.0397 -0.2927
 1017TIP3    H124542   4.132   6.433   5.485  0.5029 -0.2890 -0.5565
 1017TIP3    H224543   4.153   6.285   5.503  1.1899  0.0292  1.4007
 1018TIP3   OH224544   3.424   1.127   4.069 -0.7376 -0.5981  0.2889
 1018TIP3    H124545   3.382   1.132   3.983 -0.1253 -1.7342 -0.0812
 1018TIP3    H224546   3.360   1.165   4.129 -1.0927  0.3808 -0.6869
 1019TIP3   OH224547   0.510   5.402   3.670 -0.3055 -0.1345  0.2534
 1019TIP3    H124548   0.533   5.367   3.756 -0.6389 -2.0301 -0.4055
 1019TIP3    H224549   0.593   5.400   3.621 -0.3606 -0.1686  0.1622
 1020TIP3   OH224550   4.079   2.238   0.123 -0.3092 -0.1322 -0.2654
 1020TIP3    H124551   3.987   2.224   0.145 -0.6850  1.2642 -0.9617
 1020TIP3    H224552   4.101   2.323   0.160  0.7420 -0.5021 -0.0034
 1021TIP3   OH224553   1.408   0.857  14.411  0.4137 -0.0311  0.0877
 1021TIP3    H124554   1.354   0.822  14.481  0.2687 -0.1383 -0.0767
 1021TIP3    H224555   1.488   0.888  14.454 -0.2854  1.2453  0.4850
 1022TIP3   OH224556   2.988   2.322  16.819  0.2413 -0.1403 -0.2303
 1022TIP3    H124557   3.052   2.292  16.753  0.1065  0.4634 -0.6446
 1022TIP3    H224558   2.940   2.243  16.843 -0.2911 -0.2188 -1.5013
 1023TIP3   OH224559   4.544   0.655  13.241 -0.0083  0.3154 -0.0215
 1023TIP3    H124560   4.590   0.708  13.177  0.3634 -1.7449 -1.5093
 1023TIP3    H224561   4.485   0.600  13.189  1.3234 -2.4103  1.2356
 1024TIP3   OH224562   5.982   5.764   5.860 -0.2161  0.2708  0.4977
 1024TIP3    H124563   5.888   5.753   5.847 -0.2935  1.4068  0.0632
 1024TIP3    H224564   6.020   5.748   5.773  0.0163 -0.3698  0.7110
 1025TIP3   OH224565   4.442   4.852  17.252  0.1899  0.0409 -0.2773
 1025TIP3    H124566   4.482   4.873  17.337  0.6706  0.8110 -0.6872
 1025TIP3    H224567   4.440   4.936  17.205 -2.9050  0.2698  0.1365
 1026TIP3   OH224568   2.607   1.240  11.367  0.0912 -0.5068  0.5555
 1026TIP3    H124569   2.684   1.230  11.423  1.2857 -0.9369 -1.1447
 1026TIP3    H224570   2.626   1.187  11.290 -1.2152  0.6860 -0.6117
 1027TIP3   OH224571   2.042   3.574   5.960 -0.1045 -0.5677 -0.1305
 1027TIP3    H124572   2.028   3.508   6.026 -0.7509 -0.1483  0.1513
 1027TIP3    H224573   2.106   3.634   5.999 -0.7134 -0.1526  0.2380
 1028TIP3   OH224574   6.587   2.174   1.614  0.0610  0.2959 -0.8862
 1028TIP3    H124575   6.677   2.150   1.636 -0.1059  0.8250  0.3768
 1028TIP3    H224576   6.559   2.232   1.685 -1.6856 -0.8135 -0.6566
 1029TIP3   OH224577   3.456   0.207   0.063 -0.4255  0.0839  0.5010
 1029TIP3    H124578   3.399   0.223  -0.012 -1.1055 -0.9637  0.7768
 1029TIP3    H224579   3.532   0.161   0.026 -0.1842  0.6571  0.2747
 1030TIP3   OH224580   4.152   4.968   1.879  0.2653 -0.2042 -0.0785
 1030TIP3    H124581   4.247   4.959   1.891  0.2602  0.2384  0.3038
 1030TIP3    H224582   4.115   4.895   1.928  0.4246 -0.6370 -0.5902
 1031TIP3   OH224583   2.792   5.181  15.972  0.2450 -0.4434  0.0893
 1031TIP3    H124584   2.778   5.124  16.047  1.1402 -0.0071  0.5960
 1031TIP3    H224585   2.822   5.264  16.009  1.4617 -0.4772 -0.7852
 1032TIP3   OH224586   3.276   5.497   4.975 -0.1013 -0.1981  0.5505
 1032TIP3    H124587   3.283   5.461   4.887 -0.9361  0.0596  0.3713
 1032TIP3    H224588   3.335   5.444   5.028 -0.7047 -1.3065  0.1320
 1033TIP3   OH224589   5.584   2.584  16.086  0.1268  0.2910 -0.2799
 1033TIP3    H124590   5.523   2.510  16.094 -0.2190  0.4151 -1.6400
 1033TIP3    H224591   5.664   2.554  16.130 -0.6195 -0.1973  0.7558
 1034TIP3   OH224592   1.461   2.951   4.485  0.1320  0.5505 -0.0013
 1034TIP3    H124593   1.481   3.044   4.484  0.3308  0.5185  1.2099
 1034TIP3    H224594   1.543   2.909   4.511 -0.0425  0.0554 -0.2439
 1035TIP3   OH224595   0.138   0.331   3.040 -0.2237 -0.0733  0.8164
 1035TIP3    H124596   0.135   0.412   3.091  0.1629 -0.6153  1.7164
 1035TIP3    H224597   0.051   0.293   3.051  0.0538 -0.5004  1.6043
 1036TIP3   OH224598   3.402   2.974   2.323  0.0903 -0.8597 -0.2411
 1036TIP3    H124599   3.427   2.881   2.321 -1.8831 -1.4164 -0.4199
 1036TIP3    H224600   3.353   2.984   2.405  1.0035  0.2298  0.1823
 1037TIP3   OH224601   1.795   5.913   4.268 -0.3902  0.0367 -0.5513
 1037TIP3    H124602   1.889   5.921   4.253 -0.6171  0.9823 -1.4622
 1037TIP3    H224603   1.763   6.003   4.274 -0.7238 -0.2218  3.1976
 1038TIP3   OH224604   0.946   5.664   6.306 -0.1212 -0.1505 -0.3695
 1038TIP3    H124605   0.897   5.718   6.368 -1.8491 -1.1068 -0.8715
 1038TIP3    H224606   0.988   5.597   6.360  0.9504  0.8904  0.1046
 1039TIP3   OH224607   0.705   2.753  13.567  0.0457  0.1267  0.6088
 1039TIP3    H124608   0.700   2.822  13.633  1.2371 -0.9670  1.8664
 1039TIP3    H224609   0.648   2.684  13.600  0.4152 -0.3005  0.3662
 1040TIP3   OH224610   3.330   5.216  12.010 -0.3962 -0.4843 -0.3384
 1040TIP3    H124611   3.415   5.178  12.034 -0.1282  0.2379 -0.1289
 1040TIP3    H224612   3.352   5.299  11.969 -1.0011 -0.3627 -0.4127
 1041TIP3   OH224613   2.328   4.821   1.058 -0.8694  0.3811 -0.1112
 1041TIP3    H124614   2.292   4.788   1.140 -0.6444 -0.8916 -0.5133
 1041TIP3    H224615   2.345   4.743   1.006  1.1856  1.0434 -0.4661
 1042TIP3   OH224616   5.377   6.003   0.531 -0.2585  0.3836  0.6867
 1042TIP3    H124617   5.375   5.936   0.462  0.4078  1.6549 -0.6013
 1042TIP3    H224618   5.288   6.038   0.533 -0.5660 -0.4200  1.2512
 1043TIP3   OH224619   2.209   4.382   0.937  0.3028  0.2621 -0.6076
 1043TIP3    H124620   2.245   4.294   0.928  1.5883  0.6676  0.4590
 1043TIP3    H224621   2.129   4.371   0.989  0.0345 -0.3742 -1.1613
 1044TIP3   OH224622   6.699   3.732  13.481  0.0809 -0.0044  0.3263
 1044TIP3    H124623   6.619   3.725  13.428  2.0708 -1.4783 -2.6469
 1044TIP3    H224624   6.738   3.816  13.455 -0.0888  0.3548  1.2074
 1045TIP3   OH224625   6.646   3.183  11.053 -0.0329 -0.1381 -0.0405
 1045TIP3    H124626   6.600   3.262  11.026  1.8610  0.6293 -1.1340
 1045TIP3    H224627   6.737   3.198  11.028  0.3596 -2.7014 -0.3285
 1046TIP3   OH224628   6.686   1.330   1.654 -0.2520  0.2539  0.1321
 1046TIP3    H124629   6.758   1.393   1.648  0.3835 -0.6120 -2.2087
 1046TIP3    H224630   6.702   1.269   1.582 -2.7246 -0.6073  0.2532
 1047TIP3   OH224631   3.504   1.520   3.060 -1.1079 -0.7272 -0.6478
 1047TIP3    H124632   3.526   1.480   3.144 -0.7666  0.6685 -0.0517
 1047TIP3    H224633   3.589   1.531   3.016 -1.1121  0.0270 -0.4807
 1048TIP3   OH224634   4.352   4.837   2.043 -0.3547  0.7092 -0.2026
 1048TIP3    H124635   4.443   4.807   2.050 -0.4148  1.0230  2.3531
 1048TIP3    H224636   4.304   4.759   2.015  0.3191 -0.1925  1.0614
 1049TIP3   OH224637   4.077   2.668  11.506  0.0474  0.3055 -0.0344
 1049TIP3    H124638   4.025   2.725  11.451 -1.1741 -0.4047  0.3672
 1049TIP3    H224639   4.085   2.587  11.456 -1.0614 -0.3418  0.8129
 1050TIP3   OH224640   5.445   2.019  13.551 -0.4810 -0.0948  0.2288
 1050TIP3    H124641   5.432   1.949  13.615 -0.2838  0.8648  1.3595
 1050TIP3    H224642   5.493   2.086  13.600  0.6268  0.2093 -1.2515
 1051TIP3   OH224643   4.034   3.469  14.746 -0.0384  0.0654 -0.6472
 1051TIP3    H124644   4.098   3.535  14.721  0.2516  0.0176 -0.0532
 1051TIP3    H224645   3.962   3.519  14.786  1.9581 -0.1901  3.5754
 1052TIP3   OH224646   4.830   3.819  12.662 -0.0036  0.2088 -0.0391
 1052TIP3    H124647   4.768   3.770  12.717 -0.4986  0.6179 -0.2247
 1052TIP3    H224648   4.893   3.754  12.633 -0.8512 -0.3949 -0.5623
 1053TIP3   OH224649   5.771   5.515  13.753 -0.4907  1.2954 -0.2143
 1053TIP3    H124650   5.694   5.481  13.708 -0.0262  0.2421 -0.2271
 1053TIP3    H224651   5.737   5.579  13.815 -1.5006 -0.1348  0.7215
 1054TIP3   OH224652   1.555   2.994  11.140 -0.4295 -0.5761 -0.3612
 1054TIP3    H124653   1.512   2.921  11.183  1.1383 -0.2094  1.8997
 1054TIP3    H224654   1.649   2.972  11.142 -0.0300  0.9945 -0.5762
 1055TIP3   OH224655   5.168   2.060  14.271  0.0579 -0.7257 -0.6001
 1055TIP3    H124656   5.196   1.972  14.243  1.0215 -0.3311 -0.8949
 1055TIP3    H224657   5.087   2.076  14.222  0.8056 -0.7516 -1.8536
 1056TIP3   OH224658   6.536   2.715  14.311 -0.5872  0.3730 -0.3064
 1056TIP3    H124659   6.468   2.687  14.251 -1.8386  2.3621  0.1151
 1056TIP3    H224660   6.542   2.645  14.376 -1.2498 -0.4534 -1.1318
 1057TIP3   OH224661   1.196   4.090   5.940 -0.0882  0.3408  0.2725
 1057TIP3    H124662   1.185   4.037   6.019 -0.1532  2.5391  1.8106
 1057TIP3    H224663   1.114   4.079   5.891 -0.0828 -0.9719  0.5618
 1058TIP3   OH224664   4.162   2.988  16.144  0.0302  0.4432  0.1196
 1058TIP3    H124665   4.185   2.904  16.105 -2.5605 -0.1930 -0.1442
 1058TIP3    H224666   4.209   2.990  16.227 -0.2589 -1.4863  0.3452
 1059TIP3   OH224667   6.763   0.536  13.564 -0.5445 -0.4731 -0.7008
 1059TIP3    H124668   6.704   0.561  13.636 -1.0230 -1.1848 -0.8454
 1059TIP3    H224669   6.830   0.605  13.564 -0.5505 -0.4545  0.4143
 1060TIP3   OH224670   2.943   2.808   6.315  0.7701 -0.2988  0.4680
 1060TIP3    H124671   2.885   2.825   6.241 -0.4730 -0.6282  1.3513
 1060TIP3    H224672   2.974   2.894   6.342  1.5999 -0.2077 -0.7022
 1061TIP3   OH224673   0.122   1.706  13.743 -0.6488  0.2435 -0.2832
 1061TIP3    H124674   0.074   1.624  13.741  2.5240 -1.6835 -1.2420
 1061TIP3    H224675   0.188   1.693  13.811  1.0264  1.2958 -1.6674
 1062TIP3   OH224676   5.613   6.113   1.172 -0.2301 -0.2134 -0.1772
 1062TIP3    H124677   5.572   6.030   1.148 -2.6732  0.5682  1.1540
 1062TIP3    H224678   5.540   6.174   1.182  1.5679  2.3021 -1.7920
 1063TIP3   OH224679   2.261   1.515  13.691  0.2846  0.3628 -0.1638
 1063TIP3    H124680   2.348   1.528  13.653  0.3420  1.7822  0.4493
 1063TIP3    H224681   2.277   1.472  13.775  0.2877 -0.7694 -0.7292
 1064TIP3   OH224682   4.497   5.549  10.533 -0.3852  0.0812 -0.3448
 1064TIP3    H124683   4.516   5.593  10.615  0.2012  0.6352 -0.7710
 1064TIP3    H224684   4.457   5.616  10.478 -3.2407 -0.9797  0.3948
 1065TIP3   OH224685   4.607   2.227   5.356  0.3726  0.0254  0.2642
 1065TIP3    H124686   4.684   2.283   5.346  0.3109  0.4234  1.9133
 1065TIP3    H224687   4.540   2.284   5.395 -0.4795 -0.5611 -0.3000
 1066TIP3   OH224688   6.090   3.352   6.130  0.2044 -0.0632 -0.0006
 1066TIP3    H124689   6.173   3.368   6.175 -0.6751 -0.1722  1.6636
 1066TIP3    H224690   6.050   3.438   6.120  0.5248 -0.0060 -0.8406
 1067TIP3   OH224691   1.649   5.161   4.571 -0.3336 -0.2044  0.0673
 1067TIP3    H124692   1.649   5.245   4.526 -2.4365 -0.7748 -1.0553
 1067TIP3    H224693   1.737   5.154   4.609  0.9762  1.0154 -2.5939
 1068TIP3   OH224694   0.521   5.560   2.026  0.0423 -0.6841 -0.2602
 1068TIP3    H124695   0.549   5.597   1.942  2.2186  1.4711  1.3559
 1068TIP3    H224696   0.598   5.512   2.058 -0.2695 -0.2162  1.2068
 1069TIP3   OH224697   6.157   3.566  17.224 -0.2622  0.1365  0.1769
 1069TIP3    H124698   6.223   3.517  17.175  0.9362 -0.8455  2.6575
 1069TIP3    H224699   6.113   3.500  17.278 -0.6155  1.3405  1.4016
 1070TIP3   OH224700   1.869   2.104  12.788 -0.1041  0.0125 -0.3223
 1070TIP3    H124701   1.842   2.039  12.853  2.0542  0.7432  1.3707
 1070TIP3    H224702   1.926   2.164  12.837  0.5210  1.3292 -2.6048
 1071TIP3   OH224703   5.267   0.955   1.299 -0.2511 -0.1623 -0.0992
 1071TIP3    H124704   5.316   1.018   1.351 -1.7708 -0.6702  1.9985
 1071TIP3    H224705   5.179   0.992   1.291 -1.1524 -1.9332  1.1154
 1072TIP3   OH224706   0.427   4.441   0.440 -0.1968  0.4014 -0.2163
 1072TIP3    H124707   0.353   4.381   0.447  1.0691 -1.1025  0.8811
 1072TIP3    H224708   0.398   4.522   0.482 -1.0432 -0.3448  0.6577
 1073TIP3   OH224709   6.779   2.692  13.838 -0.0270  0.0520 -0.8327
 1073TIP3    H124710   6.854   2.672  13.894  1.0074  0.9065 -1.8988
 1073TIP3    H224711   6.813   2.687  13.749 -1.6224 -1.1228 -1.4091
 1074TIP3   OH224712   3.226   3.035   5.340 -0.2343  0.1470 -0.4069
 1074TIP3    H124713   3.149   3.091   5.330  0.3450  1.1847  0.7674
 1074TIP3    H224714   3.282   3.083   5.401 -0.2782 -2.3173  1.6420
 1075TIP3   OH224715   5.302   1.644  11.406  0.1369 -0.0549 -0.7422
 1075TIP3    H124716   5.213   1.672  11.388 -0.2574 -0.8949 -0.1156
 1075TIP3    H224717   5.304   1.629  11.500  0.8191 -0.4453 -0.8135
 1076TIP3   OH224718   3.706   3.639  15.452 -0.3240  0.6448 -0.1171
 1076TIP3    H124719   3.745   3.719  15.415  0.3989  0.1323 -0.4908
 1076TIP3    H224720   3.631   3.621  15.396 -0.0143  0.6168 -0.5262
 1077TIP3   OH224721   4.002   0.770  13.862 -0.2568  0.0963  0.5438
 1077TIP3    H124722   3.982   0.854  13.821 -1.6177 -0.6188 -0.3116
 1077TIP3    H224723   3.990   0.706  13.793 -1.9458 -1.0689  1.8679
 1078TIP3   OH224724   1.306   4.674  12.964 -0.2865 -0.0336 -0.0761
 1078TIP3    H124725   1.363   4.714  13.029 -0.8475  0.4789  0.1056
 1078TIP3    H224726   1.223   4.722  12.972 -0.4744 -0.2161 -0.9072
 1079TIP3   OH224727   4.512   6.587  10.516  0.3723  0.8274  0.1336
 1079TIP3    H124728   4.510   6.676  10.551  0.3611  0.7140  0.4268
 1079TIP3    H224729   4.420   6.567  10.497  0.0119 -0.0640  2.5269
 1080TIP3   OH224730   2.188   0.016  12.937  0.3623 -0.7390  0.0188
 1080TIP3    H124731   2.188  -0.057  12.874 -0.2481  1.1289 -2.2462
 1080TIP3    H224732   2.106   0.006  12.985  0.1688 -1.4254 -0.4343
 1081TIP3   OH224733   4.935   4.283   1.319 -0.2701 -0.2038 -0.1966
 1081TIP3    H124734   4.850   4.324   1.333 -0.7842 -1.3452  0.1129
 1081TIP3    H224735   4.949   4.229   1.397  1.6192  1.4260  0.6418
 1082TIP3   OH224736   3.419   5.649  11.719  0.7298 -0.2351  0.0634
 1082TIP3    H124737   3.346   5.587  11.725 -0.1416  0.6666 -1.0307
 1082TIP3    H224738   3.496   5.598  11.743 -0.4213 -0.8779  2.5075
 1083TIP3   OH224739   6.357   2.993  12.562 -0.0514  0.7111 -0.0657
 1083TIP3    H124740   6.376   2.955  12.648  0.5542  0.4589 -0.3139
 1083TIP3    H224741   6.356   2.919  12.502 -0.6830  0.8613 -0.2468
 1084TIP3   OH224742   1.017   5.650  16.714  0.0808  0.6408 -0.2648
 1084TIP3    H124743   1.005   5.603  16.796 -1.7467 -1.8257 -1.8484
 1084TIP3    H224744   0.965   5.729  16.723  0.2821  0.6263  1.1200
 1085TIP3   OH224745   2.395   6.477  11.517 -0.0293  0.2653  0.3948
 1085TIP3    H124746   2.308   6.436  11.510 -0.1238  0.4905  0.2312
 1085TIP3    H224747   2.378   6.571  11.513  0.1220  0.3456  1.6020
 1086TIP3   OH224748   5.897   3.534  11.475 -0.2900  0.4847  0.2412
 1086TIP3    H124749   5.942   3.450  11.479 -0.3148  0.4591 -0.0333
 1086TIP3    H224750   5.963   3.596  11.444 -0.0605  0.7139  1.1609
 1087TIP3   OH224751   4.603   0.519   4.025  0.2403  0.1510  0.8648
 1087TIP3    H124752   4.584   0.452   4.091 -0.9961  0.8388  1.2205
 1087TIP3    H224753   4.693   0.501   3.997  0.6072 -0.4250  2.4051
 1088TIP3   OH224754   2.758   3.007   3.518 -0.2890 -0.1665 -0.0945
 1088TIP3    H124755   2.842   2.976   3.484  0.9253  1.1065  1.6004
 1088TIP3    H224756   2.775   3.099   3.542 -1.6623 -0.3728  1.8050
 1089TIP3   OH224757   0.757   4.250  14.882 -0.4753  0.0758 -0.5150
 1089TIP3    H124758   0.704   4.247  14.802  0.2444 -0.5833 -0.9755
 1089TIP3    H224759   0.836   4.201  14.860 -0.2561 -0.0772  0.6009
 1090TIP3   OH224760   6.530   6.365   5.418  0.0147  0.1935 -0.0691
 1090TIP3    H124761   6.525   6.455   5.385  1.8403  0.7714  1.1436
 1090TIP3    H224762   6.586   6.371   5.495 -1.5179 -1.6744  1.2185
 1091TIP3   OH224763   2.673   5.629  11.946 -0.4279 -0.0658 -0.7659
 1091TIP3    H124764   2.649   5.595  11.859  0.1916 -0.1382 -0.9109
 1091TIP3    H224765   2.733   5.701  11.927  0.9602 -1.0929 -0.3523
 1092TIP3   OH224766   5.330   5.375   2.298 -0.3683 -0.0720  0.0769
 1092TIP3    H124767   5.272   5.388   2.373 -0.8035 -0.0013 -0.2732
 1092TIP3    H224768   5.375   5.459   2.288  0.6608 -0.4984  1.0802
 1093TIP3   OH224769   0.238   3.971   5.476 -0.0612  0.1148 -0.3212
 1093TIP3    H124770   0.302   3.989   5.408  1.3426 -1.0528  0.6515
 1093TIP3    H224771   0.232   4.052   5.526  0.8150  0.1777 -0.3107
 1094TIP3   OH224772   5.397   1.820  16.068  0.3994  0.1033 -0.5554
 1094TIP3    H124773   5.401   1.768  15.987  0.7203 -0.4787 -0.1699
 1094TIP3    H224774   5.325   1.780  16.118  0.4443  0.2239 -0.3929
 1095TIP3   OH224775   5.798   1.581   0.208  0.3659  0.0797  0.6086
 1095TIP3    H124776   5.793   1.657   0.267 -0.9619  0.7453 -0.3352
 1095TIP3    H224777   5.739   1.603   0.136 -1.7931 -2.7788  1.3903
 1096TIP3   OH224778   4.990   5.693  13.065 -0.2362 -0.2569 -0.5817
 1096TIP3    H124779   5.047   5.740  13.126  1.0805 -0.6175 -1.5080
 1096TIP3    H224780   4.902   5.704  13.101  0.2955  1.1728  0.3197
 1097TIP3   OH224781   0.482   2.915   2.837 -0.1183  0.1502 -0.5707
 1097TIP3    H124782   0.539   2.975   2.884  2.2111 -1.0267 -1.8381
 1097TIP3    H224783   0.457   2.963   2.758  1.3146 -0.3191 -1.3254
 1098TIP3   OH224784   2.561   5.113   4.896 -0.3663 -0.3979 -0.0267
 1098TIP3    H124785   2.498   5.049   4.863 -0.8293 -0.4582  0.9311
 1098TIP3    H224786   2.508   5.171   4.952 -0.6617  2.9881 -3.6010
 1099TIP3   OH224787   3.541   6.568   2.720  0.8267 -0.0767  0.7059
 1099TIP3    H124788   3.582   6.511   2.785 -0.1475  0.2279  1.6010
 1099TIP3    H224789   3.451   6.580   2.752  0.3066  0.0046 -0.7375
 1100TIP3   OH224790   3.429   1.630   4.455  0.7938  0.0785 -0.3685
 1100TIP3    H124791   3.341   1.615   4.420  0.4437 -1.3505  1.0961
 1100TIP3    H224792   3.416   1.651   4.547  1.9796 -0.1686 -0.1314
 1101TIP3   OH224793   4.168   2.949  11.496  0.0411 -0.0732 -0.3993
 1101TIP3    H124794   4.213   2.992  11.569  1.6804 -2.1599 -0.1415
 1101TIP3    H224795   4.085   2.919  11.534 -0.6759  1.9198 -0.3254
 1102TIP3   OH224796   5.127   1.002   3.944  0.4240 -0.4729 -0.1303
 1102TIP3    H124797   5.120   1.058   4.022  0.5210 -0.3603 -0.2016
 1102TIP3    H224798   5.061   1.035   3.884  0.0987 -0.7955  0.0503
 1103TIP3   OH224799   3.133   5.173  12.721  0.9015 -0.0670  0.4012
 1103TIP3    H124800   3.074   5.196  12.793 -0.7149 -0.0787 -0.8839
 1103TIP3    H224801   3.117   5.240  12.655  1.3227 -0.8526 -0.5093
 1104TIP3   OH224802   3.775   4.752   4.624 -0.1626 -0.3765  0.0189
 1104TIP3    H124803   3.685   4.779   4.604 -0.0502  2.0793  2.5017
 1104TIP3    H224804   3.785   4.770   4.718  2.8891 -0.7117 -0.1815
 1105TIP3   OH224805   2.642   5.725   5.115  0.2882  0.2597 -0.3661
 1105TIP3    H124806   2.579   5.789   5.083  0.9669  0.0363 -2.1968
 1105TIP3    H224807   2.720   5.776   5.138  0.8545  0.1039 -1.8921
 1106TIP3   OH224808   1.769   2.648   6.584  0.4728 -0.3719  0.0548
 1106TIP3    H124809   1.678   2.631   6.559  0.2414  0.1470  0.5084
 1106TIP3    H224810   1.819   2.576   6.546  0.1063  0.2583 -1.6596
 1107TIP3   OH224811   2.416   6.181  11.324 -0.1748 -0.1846 -0.2585
 1107TIP3    H124812   2.382   6.197  11.413  1.8098  0.6304  0.3779
 1107TIP3    H224813   2.507   6.153  11.338 -0.2161 -1.2244 -1.9837
 1108TIP3   OH224814   4.469   3.465   1.125 -0.1632  0.1474  0.4691
 1108TIP3    H124815   4.453   3.418   1.207 -1.5875 -0.3666 -0.0872
 1108TIP3    H224816   4.515   3.401   1.070 -2.0246 -0.6106 -0.2569
 1109TIP3   OH224817   3.292   2.756  14.087 -0.5144  0.3140  0.7108
 1109TIP3    H124818   3.364   2.800  14.132 -0.6340  1.2322  0.0162
 1109TIP3    H224819   3.214   2.802  14.116 -0.4998  1.6592 -1.2682
 1110TIP3   OH224820   4.233   2.251  14.963 -0.5228 -0.1314  0.2170
 1110TIP3    H124821   4.202   2.191  15.031 -0.0251  0.6762  1.1759
 1110TIP3    H224822   4.320   2.217  14.940 -0.6423 -0.3365  0.0659
 1111TIP3   OH224823   6.188   4.187   2.990  0.0495 -0.0408 -0.4687
 1111TIP3    H124824   6.119   4.252   2.976  0.3629 -0.0211 -1.9784
 1111TIP3    H224825   6.141   4.104   2.998 -0.0514 -0.3667 -3.8211
 1112TIP3   OH224826   4.514   1.067   0.313 -0.7314  0.2258  0.0446
 1112TIP3    H124827   4.559   1.113   0.384  1.2270 -1.0933 -0.2853
 1112TIP3    H224828   4.498   0.980   0.348  1.4813 -0.8784 -1.5412
 1113TIP3   OH224829   4.219   3.481  15.551 -0.1929 -0.6998  0.1173
 1113TIP3    H124830   4.306   3.447  15.532  1.5893  1.1643  4.4708
 1113TIP3    H224831   4.225   3.574  15.528 -1.2634 -0.6969 -0.1647
 1114TIP3   OH224832   1.133   3.312  15.993  0.0395  0.2655  0.1407
 1114TIP3    H124833   1.069   3.290  16.061  0.6785 -0.7954  0.4170
 1114TIP3    H224834   1.084   3.362  15.929 -0.4984  1.6116  1.5674
 1115TIP3   OH224835   5.435   0.622  11.723 -0.2111  0.2896 -0.0147
 1115TIP3    H124836   5.347   0.654  11.703 -0.2010  1.6504  1.9468
 1115TIP3    H224837   5.430   0.593  11.813  1.0335 -0.8526 -0.3022
 1116TIP3   OH224838   3.154   3.248  14.504  0.1396 -0.3055  0.3358
 1116TIP3    H124839   3.124   3.190  14.574  0.1934 -0.4995  0.1951
 1116TIP3    H224840   3.080   3.254  14.444 -0.0861  0.2570  0.6608
 1117TIP3   OH224841   3.577   2.764   5.539  1.3350 -0.7610  0.2827
 1117TIP3    H124842   3.525   2.826   5.590  1.8633 -0.6467  0.6752
 1117TIP3    H224843   3.576   2.799   5.450  1.6170 -0.2035  0.4997
 1118TIP3   OH224844   1.300   0.558  14.914 -0.0967 -0.1315  0.0267
 1118TIP3    H124845   1.230   0.509  14.869  0.9091 -0.2935 -1.3878
 1118TIP3    H224846   1.316   0.634  14.858  0.9674 -0.1793  0.2653
 1119TIP3   OH224847   1.924   5.007  11.069  0.2775 -0.5150 -0.1739
 1119TIP3    H124848   1.847   4.959  11.037  0.4540 -0.0735 -1.2929
 1119TIP3    H224849   1.906   5.098  11.046  0.7927 -0.3002  0.2577
 1120TIP3   OH224850   3.602   0.995   3.742 -0.0345  0.2961 -0.1455
 1120TIP3    H124851   3.650   0.916   3.770  0.6025  1.6606  2.8678
 1120TIP3    H224852   3.514   0.963   3.722  0.8471 -1.5334 -1.3100
 1121TIP3   OH224853   1.245   4.658   5.128  0.5107  0.6809 -0.4174
 1121TIP3    H124854   1.150   4.646   5.126  0.4488  1.4081 -2.3989
 1121TIP3    H224855   1.278   4.602   5.058  1.3803  1.7663 -0.8955
 1122TIP3   OH224856   6.802   1.587  16.844 -0.2628 -0.4261  0.7486
 1122TIP3    H124857   6.810   1.569  16.938  1.0552  0.6240  0.8491
 1122TIP3    H224858   6.882   1.552  16.806  0.6175  1.8471  0.4502
 1123TIP3   OH224859   6.338   3.043  11.232 -0.0737  0.2692 -0.1551
 1123TIP3    H124860   6.282   3.007  11.164 -0.6060 -2.5178  1.7147
 1123TIP3    H224861   6.427   3.032  11.197 -0.3639 -0.6549 -0.6299
 1124TIP3   OH224862   3.194   5.202  11.307 -0.0368  0.4091 -0.3014
 1124TIP3    H124863   3.115   5.167  11.267 -1.1058  1.2836  1.0136
 1124TIP3    H224864   3.199   5.293  11.276  1.0155  0.0718 -1.1803
 1125TIP3   OH224865   1.597   4.804   4.118 -0.0967  0.0409  0.5059
 1125TIP3    H124866   1.685   4.767   4.126 -0.4445 -1.1524 -0.9238
 1125TIP3    H224867   1.583   4.811   4.024 -0.5926  2.5683  0.7274
 1126TIP3   OH224868   1.891   3.641  14.545 -0.4670  0.6637  0.3898
 1126TIP3    H124869   1.862   3.607  14.460 -1.6484  1.0581  0.6202
 1126TIP3    H224870   1.883   3.736  14.537 -0.9414  0.6881  1.0535
 1127TIP3   OH224871   0.911   4.922   0.153 -0.3289 -0.4060 -0.1584
 1127TIP3    H124872   0.906   4.887   0.242 -1.0063 -2.1683 -0.8755
 1127TIP3    H224873   0.827   4.899   0.113  0.0301  0.2216 -1.3082
 1128TIP3   OH224874   2.904   5.917   0.262  0.0886  0.5036 -0.1350
 1128TIP3    H124875   2.940   5.844   0.313 -1.8245 -0.8874 -0.7341
 1128TIP3    H224876   2.980   5.956   0.219  1.5485  0.8181  2.6323
 1129TIP3   OH224877   2.431   4.956  12.741 -0.1532 -0.4608  0.1415
 1129TIP3    H124878   2.466   4.973  12.654  0.3088  2.4227  0.8462
 1129TIP3    H224879   2.507   4.933  12.794  0.2691  2.3011  0.8215
 1130TIP3   OH224880   3.381   1.301   5.779  0.5417  0.2823  0.0263
 1130TIP3    H124881   3.367   1.393   5.755 -1.3625 -0.3448 -1.3305
 1130TIP3    H224882   3.356   1.297   5.871 -1.7263  0.6389 -0.5474
 1131TIP3   OH224883   3.114   3.982   4.268 -0.0257 -0.2904 -0.0306
 1131TIP3    H124884   3.196   4.030   4.268  0.4040 -1.0013  1.0882
 1131TIP3    H224885   3.111   3.939   4.182  0.3609  0.4178 -0.3998
 1132TIP3   OH224886   0.409   0.877  13.866  0.2472 -0.0795 -0.2758
 1132TIP3    H124887   0.324   0.869  13.910 -0.2252  1.2044 -0.9345
 1132TIP3    H224888   0.448   0.955  13.905  1.2769 -0.8657  0.2717
 1133TIP3   OH224889   6.650   4.528   0.381  0.3397  0.1903 -1.0079
 1133TIP3    H124890   6.563   4.559   0.407  1.4100  1.2967  1.3534
 1133TIP3    H224891   6.681   4.593   0.318  0.3154  0.9386 -0.2559
 1134TIP3   OH224892   2.789   4.560  14.113  0.2041  0.0724 -0.2859
 1134TIP3    H124893   2.833   4.566  14.028 -1.6229  0.2000 -1.2549
 1134TIP3    H224894   2.777   4.652  14.140  1.0407  0.0243  0.2433
 1135TIP3   OH224895   3.579   3.728   2.782 -0.0585 -0.2227 -0.0856
 1135TIP3    H124896   3.656   3.754   2.732  0.5802 -1.2343  0.3584
 1135TIP3    H224897   3.543   3.811   2.816  0.6560  0.2736 -0.5334
 1136TIP3   OH224898   4.119   4.404   1.012 -0.2685  0.0955  0.0438
 1136TIP3    H124899   4.132   4.482   0.958  0.5583  0.6930  1.0772
 1136TIP3    H224900   4.171   4.336   0.968  0.5474  0.6244  0.1672
 1137TIP3   OH224901   2.567   2.201  14.726  0.0040 -0.9333 -0.5304
 1137TIP3    H124902   2.500   2.135  14.710 -1.0628 -0.3057  1.1675
 1137TIP3    H224903   2.571   2.251  14.645 -0.5891 -1.8453 -1.1309
 1138TIP3   OH224904   3.642   3.089   0.080 -0.2177  0.0852  0.4733
 1138TIP3    H124905   3.570   3.099   0.142 -1.8171  1.8256 -1.5616
 1138TIP3    H224906   3.625   3.007   0.035 -0.9716  0.5128 -0.0292
 1139TIP3   OH224907   5.374   3.113  16.371 -0.6253  0.3639  0.2605
 1139TIP3    H124908   5.328   3.118  16.455  2.0477  0.5474  1.7524
 1139TIP3    H224909   5.381   3.203  16.342 -2.9578  0.1807 -0.9889
 1140TIP3   OH224910   1.885   0.929  16.553  0.4474 -0.3320 -0.3862
 1140TIP3    H124911   1.862   0.837  16.538 -3.9961  0.7701 -1.0256
 1140TIP3    H224912   1.837   0.954  16.632  2.2409  1.2469  0.2405
 1141TIP3   OH224913   0.537   2.729   1.685 -0.2889 -0.8412 -0.5546
 1141TIP3    H124914   0.529   2.662   1.752 -1.4066  1.8884  2.1527
 1141TIP3    H224915   0.491   2.805   1.721  1.7652  1.7023 -3.0576
 1142TIP3   OH224916   0.549   0.474  11.352 -0.0068 -0.1645 -0.8280
 1142TIP3    H124917   0.490   0.539  11.313 -1.0299 -0.5769  0.0150
 1142TIP3    H224918   0.635   0.516  11.351 -0.6244  1.1248 -0.4616
 1143TIP3   OH224919   0.517   0.554   1.905  0.3353 -0.6675 -0.0766
 1143TIP3    H124920   0.451   0.487   1.890  1.5169 -2.2186  1.4572
 1143TIP3    H224921   0.567   0.522   1.980  0.9047  1.9497  0.7191
 1144TIP3   OH224922   0.518   5.195  11.705  0.1105 -0.0374 -0.5841
 1144TIP3    H124923   0.586   5.127  11.703  0.1725 -0.0215  0.5448
 1144TIP3    H224924   0.490   5.198  11.797  0.0882  1.4390 -0.6280
 1145TIP3   OH224925   5.244   1.109  12.279 -0.1154  0.1717 -0.1843
 1145TIP3    H124926   5.202   1.056  12.347 -0.2063 -0.2461 -0.5694
 1145TIP3    H224927   5.335   1.082  12.280 -0.3231 -0.5462 -0.9187
 1146TIP3   OH224928   0.273   5.727   6.202  0.5657  0.5450 -0.3882
 1146TIP3    H124929   0.339   5.777   6.154 -0.1075 -0.1888 -2.1517
 1146TIP3    H224930   0.199   5.787   6.210  0.6747  0.6653 -0.2818
 1147TIP3   OH224931   1.429   4.304  17.066 -0.1477 -0.3451 -0.1907
 1147TIP3    H124932   1.383   4.261  16.994  1.9865 -2.6420 -0.2537
 1147TIP3    H224933   1.492   4.361  17.024  0.1586 -0.6488 -0.1474
 1148TIP3   OH224934   2.863   5.238   0.075  0.4452  0.1301 -0.5206
 1148TIP3    H124935   2.916   5.241  -0.004  2.0467  0.5014  0.5258
 1148TIP3    H224936   2.865   5.146   0.102 -0.5742 -0.1005 -1.2060
 1149TIP3   OH224937   1.729   4.826   1.548  0.5203 -0.1261 -0.1644
 1149TIP3    H124938   1.824   4.826   1.554  0.4847  0.6620  0.4862
 1149TIP3    H224939   1.702   4.744   1.589  0.9927 -1.0539 -1.6912
 1150TIP3   OH224940   3.489   1.325  12.502 -0.0719 -0.4174 -0.1340
 1150TIP3    H124941   3.446   1.267  12.564  0.8996  1.9446  2.8974
 1150TIP3    H224942   3.439   1.407  12.507  0.1836 -0.1147 -2.2936
 1151TIP3   OH224943   2.297   0.834   5.356 -0.0565  0.2396  0.0993
 1151TIP3    H124944   2.363   0.900   5.334 -0.2382 -0.1330 -1.5800
 1151TIP3    H224945   2.214   0.879   5.345 -0.1195  0.7952  2.4919
 1152TIP3   OH224946   1.794   4.512   6.037  0.0217 -0.2744  0.5048
 1152TIP3    H124947   1.742   4.543   6.112 -0.2466  0.7967 -0.1129
 1152TIP3    H224948   1.738   4.527   5.961  2.0346  3.0395 -0.4421
 1153TIP3   OH224949   0.868   4.717   0.384  0.6154 -0.6251 -0.4178
 1153TIP3    H124950   0.907   4.633   0.358  0.3917 -0.5471 -1.0206
 1153TIP3    H224951   0.786   4.721   0.336 -1.1198 -1.6818  2.3401
 1154TIP3   OH224952   3.880   5.078   5.909 -0.3477  0.7377  0.6024
 1154TIP3    H124953   3.835   5.035   5.982  1.1434 -1.9679 -0.0427
 1154TIP3    H224954   3.939   5.140   5.951  0.6099 -0.9061  1.7181
 1155TIP3   OH224955   3.558   4.857  10.579 -0.0464 -0.2780 -0.0763
 1155TIP3    H124956   3.619   4.895  10.643  0.5076  0.1719 -0.8594
 1155TIP3    H224957   3.560   4.918  10.505 -0.7969 -0.7145 -0.4652
 1156TIP3   OH224958   1.418   4.069   1.554 -0.0677  0.7171 -0.0778
 1156TIP3    H124959   1.502   4.024   1.543  0.5625  2.1525 -1.3446
 1156TIP3    H224960   1.381   4.031   1.633  1.3188 -0.6559 -0.0608
 1157TIP3   OH224961   2.226   6.283  14.478  0.0303 -0.3318  0.0761
 1157TIP3    H124962   2.301   6.239  14.519 -0.5562 -0.2600  1.2681
 1157TIP3    H224963   2.248   6.288  14.385  0.8730 -1.5790  0.2012
 1158TIP3   OH224964   0.981   3.268  13.862 -0.0245 -0.1036 -0.1621
 1158TIP3    H124965   0.949   3.310  13.782  1.9651  1.4819 -0.1515
 1158TIP3    H224966   0.902   3.247  13.911 -1.0925  4.6874  0.3510
 1159TIP3   OH224967   0.408   1.731   1.559  0.0200 -0.3009 -0.4797
 1159TIP3    H124968   0.334   1.744   1.619 -1.3455  0.3718 -2.2670
 1159TIP3    H224969   0.373   1.677   1.488  1.2984 -0.1509 -1.2499
 1160TIP3   OH224970   6.282   2.887  15.037 -0.1203  0.3524  0.0196
 1160TIP3    H124971   6.236   2.809  15.069 -1.8816  0.7725 -1.4020
 1160TIP3    H224972   6.269   2.953  15.106 -0.0503 -0.0905  0.4598
 1161TIP3   OH224973   4.941   4.500  13.233 -0.1030  0.5843  0.0075
 1161TIP3    H124974   4.976   4.585  13.262  2.2760 -0.0842 -0.7982
 1161TIP3    H224975   4.974   4.490  13.144 -1.2384 -0.7278 -0.2735
 1162TIP3   OH224976   1.180   3.685  13.024  0.3796 -1.0065  0.3959
 1162TIP3    H124977   1.218   3.709  12.939  0.7015 -1.0167  0.5357
 1162TIP3    H224978   1.220   3.601  13.045 -0.0358 -1.2140  0.3511
 1163TIP3   OH224979   6.574   3.184  15.771 -0.4325 -0.3374 -0.4179
 1163TIP3    H124980   6.609   3.123  15.705  0.2437 -1.6239  1.1041
 1163TIP3    H224981   6.574   3.269  15.727 -0.6379 -1.2864 -2.3100
 1164TIP3   OH224982   2.218   2.748   5.871  0.6207 -0.0539 -0.0030
 1164TIP3    H124983   2.148   2.794   5.825  0.1460 -2.9109 -2.3032
 1164TIP3    H224984   2.196   2.758   5.964 -0.8001  2.1751 -0.5342
 1165TIP3   OH224985   5.234   4.743   5.181 -0.1333  0.0494  0.1311
 1165TIP3    H124986   5.241   4.754   5.086  0.4753  0.4667  0.2283
 1165TIP3    H224987   5.248   4.649   5.194 -0.9568 -0.1339 -0.2596
 1166TIP3   OH224988   2.802   4.881   4.152  0.0229  0.0238 -0.2286
 1166TIP3    H124989   2.727   4.859   4.096  1.0226 -2.1016 -0.7413
 1166TIP3    H224990   2.870   4.909   4.091  0.2366  0.3040  0.1350
 1167TIP3   OH224991   1.233   2.472  12.347  1.0595 -0.4434 -0.6610
 1167TIP3    H124992   1.193   2.423  12.275  1.2968 -1.7699  0.0958
 1167TIP3    H224993   1.192   2.558  12.342 -0.6429 -1.2371 -0.9683
 1168TIP3   OH224994   1.014   0.977  11.216  0.3679  0.2996  0.2306
 1168TIP3    H124995   0.974   0.987  11.129  1.5828 -1.6922 -0.5838
 1168TIP3    H224996   1.047   0.887  11.217  3.1734  1.2933  1.5635
 1169TIP3   OH224997   5.654   5.030  12.201  0.3063  0.5312 -0.1564
 1169TIP3    H124998   5.676   5.103  12.259 -2.1808  0.9433  0.3184
 1169TIP3    H224999   5.588   5.066  12.141  0.3828 -0.8359 -1.0952
 1170TIP3   OH225000   0.324   5.301  12.332 -0.3089  0.4783  0.7930
 1170TIP3    H125001   0.411   5.313  12.293  0.9285 -0.5769  3.1468
 1170TIP3    H225002   0.264   5.317  12.260  1.8616  0.2826 -1.1328
 1171TIP3   OH225003   5.826   4.308  11.148 -0.3267  0.4180  0.4140
 1171TIP3    H125004   5.912   4.349  11.137 -1.0112  2.4567  2.3068
 1171TIP3    H225005   5.768   4.358  11.090 -0.9728  1.5486  1.9973
 1172TIP3   OH225006   3.467   2.926   5.732  0.4396 -0.4079 -0.5784
 1172TIP3    H125007   3.531   2.882   5.788  0.7004 -1.1061 -1.4071
 1172TIP3    H225008   3.453   3.011   5.772  0.8660 -0.7816  0.3651
 1173TIP3   OH225009   1.863   1.084  12.999  0.0830  0.0193 -0.0005
 1173TIP3    H125010   1.791   1.124  12.951  0.5983  1.3589  0.3079
 1173TIP3    H225011   1.939   1.139  12.979  0.6507 -0.3692  1.0288
 1174TIP3   OH225012   6.216   3.835  11.022  0.3915  0.1623  0.0339
 1174TIP3    H125013   6.175   3.757  10.985 -0.2605 -0.3319  1.7182
 1174TIP3    H225014   6.242   3.887  10.947  0.5475 -1.5374 -1.1091
 1175TIP3   OH225015   3.005   4.719  15.416  0.7555 -0.2744  0.3119
 1175TIP3    H125016   3.086   4.766  15.398  0.4541  0.1182 -0.0242
 1175TIP3    H225017   2.943   4.752  15.351  0.0632  0.1091  1.1601
 1176TIP3   OH225018   1.456   2.020   3.316  0.3049 -0.3384 -0.1312
 1176TIP3    H125019   1.405   2.100   3.326  0.9396  0.2747 -1.5437
 1176TIP3    H225020   1.433   1.966   3.392 -0.5426  0.9509  0.5406
 1177TIP3   OH225021   3.199   0.697   4.898  0.0695 -0.8117  0.0275
 1177TIP3    H125022   3.142   0.719   4.973 -0.5733  0.3459 -0.7838
 1177TIP3    H225023   3.283   0.736   4.921 -0.8085  1.8252 -0.9686
 1178TIP3   OH225024   1.853   5.995  15.027 -0.3990 -0.1133  0.0199
 1178TIP3    H125025   1.837   6.072  15.082  0.0309  0.4098 -0.5842
 1178TIP3    H225026   1.778   5.991  14.968 -0.9163 -0.7403  0.7160
 1179TIP3   OH225027   4.566   1.692  12.944 -0.0960 -0.0744  0.7273
 1179TIP3    H125028   4.611   1.755  12.888 -1.9819 -0.4825 -1.3300
 1179TIP3    H225029   4.625   1.677  13.018  1.1019  2.7993  0.3724
 1180TIP3   OH225030   1.522   0.037  10.773 -0.6109  0.2161 -0.2045
 1180TIP3    H125031   1.576   0.074  10.842 -0.1271 -0.2183 -0.3427
 1180TIP3    H225032   1.457   0.104  10.754  0.2319  0.9843 -0.4328
 1181TIP3   OH225033   6.583   5.383   3.669  0.3419 -0.1826 -0.3787
 1181TIP3    H125034   6.653   5.424   3.720  0.0155  0.6150 -0.5671
 1181TIP3    H225035   6.608   5.395   3.578 -0.0537  0.1198 -0.4476
 1182TIP3   OH225036   1.042   3.441   1.103  0.1195  0.1799 -0.5272
 1182TIP3    H125037   0.968   3.494   1.073  0.0173  0.3535  0.0124
 1182TIP3    H225038   1.005   3.387   1.173  0.6903  0.8900  0.3460
 1183TIP3   OH225039   4.216   6.666  11.865  0.7810 -0.4066  0.1794
 1183TIP3    H125040   4.276   6.682  11.938 -0.6450 -1.7612  1.6665
 1183TIP3    H225041   4.266   6.692  11.787  2.4545  0.6694  1.5882
 1184TIP3   OH225042   5.746   5.786  13.817  0.1028 -0.7355  0.5045
 1184TIP3    H125043   5.838   5.812  13.815 -0.2630  0.5802  0.5788
 1184TIP3    H225044   5.718   5.787  13.725 -0.5422  1.4836  0.6894
 1185TIP3   OH225045   1.149   6.038  17.156  0.5137  0.3146 -0.0144
 1185TIP3    H125046   1.214   5.974  17.127 -1.5054 -2.2648  1.0325
 1185TIP3    H225047   1.167   6.051  17.249  0.6385  0.9327 -0.1228
 1186TIP3   OH225048   1.348   2.983  15.718  0.0819  0.8863  0.0321
 1186TIP3    H125049   1.341   3.026  15.803 -0.1460  0.6443  0.1370
 1186TIP3    H225050   1.257   2.969  15.691  0.1478  0.1263  0.1768
 1187TIP3   OH225051   4.033   1.262   1.035 -0.4116  0.6208 -0.4768
 1187TIP3    H125052   4.088   1.340   1.042  1.2422 -0.6148  0.4812
 1187TIP3    H225053   3.943   1.296   1.036  0.2945  2.5165 -0.2987
 1188TIP3   OH225054   3.099   4.535  16.838 -0.1810 -0.9240  0.4955
 1188TIP3    H125055   3.028   4.480  16.870  0.0500 -0.6475  1.4847
 1188TIP3    H225056   3.179   4.485  16.857 -0.0359 -0.6984  0.4827
 1189TIP3   OH225057   1.277   1.206   1.032 -0.4911  0.0171 -0.3303
 1189TIP3    H125058   1.183   1.194   1.044 -0.4844 -1.1110 -1.2912
 1189TIP3    H225059   1.293   1.176   0.942  0.7257  0.5333 -0.2869
 1190TIP3   OH225060   2.221   3.496  11.837  0.7763  0.1954 -0.5167
 1190TIP3    H125061   2.244   3.444  11.914 -0.2270 -0.0957 -0.4139
 1190TIP3    H225062   2.171   3.436  11.781  2.0438  0.2105 -1.6924
 1191TIP3   OH225063   1.567   6.211  14.267 -0.2491  0.0301  0.0830
 1191TIP3    H125064   1.660   6.204  14.247 -0.3326 -0.7689 -0.0432
 1191TIP3    H225065   1.533   6.273  14.203  0.3969  1.1259  0.7961
 1192TIP3   OH225066   1.787   4.783  15.586  0.1723 -0.1839 -0.1940
 1192TIP3    H125067   1.758   4.709  15.638  0.3591 -0.7427 -0.8743
 1192TIP3    H225068   1.765   4.759  15.496  1.9505 -0.2381 -0.6356
 1193TIP3   OH225069   4.190   3.446   3.917 -0.0414 -0.1143  0.5056
 1193TIP3    H125070   4.231   3.531   3.901 -0.2689  0.3195  2.1661
 1193TIP3    H225071   4.204   3.397   3.835 -2.5162  2.5285 -1.6178
 1194TIP3   OH225072   4.423   4.931   3.177 -0.0818 -0.4391  0.2021
 1194TIP3    H125073   4.345   4.933   3.123  0.1707 -0.9741 -0.1938
 1194TIP3    H225074   4.486   4.989   3.133  0.1699 -0.9785 -0.1600
 1195TIP3   OH225075   5.747   4.265  13.590  0.1779 -0.0253 -0.7342
 1195TIP3    H125076   5.697   4.316  13.653 -1.0748  2.0313 -3.2707
 1195TIP3    H225077   5.838   4.292  13.603 -0.1553  0.8756 -0.2571
 1196TIP3   OH225078   1.726   0.541   0.490 -0.0029 -0.6914 -0.0673
 1196TIP3    H125079   1.650   0.526   0.434 -1.4855  1.7639  1.1989
 1196TIP3    H225080   1.723   0.471   0.554 -2.5007  0.5824  1.2787
 1197TIP3   OH225081   5.079   1.194  15.848  0.4592 -0.5823 -0.0743
 1197TIP3    H125082   5.144   1.147  15.900 -0.8878 -0.6413  1.5933
 1197TIP3    H225083   5.110   1.284  15.847  0.3792 -0.5363  1.0254
 1198TIP3   OH225084   1.626   5.602   5.036  0.6377  0.4017 -0.0562
 1198TIP3    H125085   1.627   5.685   4.988  1.2071  0.5056  0.1390
 1198TIP3    H225086   1.680   5.617   5.113 -1.2638  0.6123  1.2853
 1199TIP3   OH225087   0.855   3.011   3.211 -0.2558 -0.2637  0.2894
 1199TIP3    H125088   0.798   3.017   3.288  1.2006 -0.8107  1.4290
 1199TIP3    H225089   0.902   3.095   3.209 -0.4543 -0.1593 -0.1409
 1200TIP3   OH225090   2.352   2.903   1.072 -0.1932  0.8629  0.5414
 1200TIP3    H125091   2.266   2.868   1.049  1.2734 -1.3637 -1.9427
 1200TIP3    H225092   2.357   2.895   1.167 -0.9892 -3.3667  0.3191
 1201TIP3   OH225093   2.336   6.401   6.941 -0.4820 -0.1758 -0.2563
 1201TIP3    H125094   2.412   6.406   7.000 -1.9191 -1.2222  1.7201
 1201TIP3    H225095   2.375   6.397   6.853  1.7772 -1.4149  0.7482
 1202TIP3   OH225096   4.815   6.755  16.498  0.1600  0.1857 -0.3353
 1202TIP3    H125097   4.750   6.823  16.478  0.7739  1.2280  1.1467
 1202TIP3    H225098   4.835   6.768  16.591  3.5618  0.7951 -1.1064
 1203TIP3   OH225099   6.136   2.673  14.783 -0.2160 -0.0629 -0.2982
 1203TIP3    H125100   6.104   2.760  14.806  1.8847  0.8764 -0.7493
 1203TIP3    H225101   6.145   2.628  14.868  1.5339  1.2334  0.2516
 1204TIP3   OH225102   0.218   3.309   4.346 -0.2179  0.0265 -0.3758
 1204TIP3    H125103   0.162   3.287   4.272 -0.8536  0.8828 -0.1597
 1204TIP3    H225104   0.249   3.225   4.380 -0.6770 -0.4032 -1.0351
 1205TIP3   OH225105   3.370   5.565  13.420 -0.3184 -0.5248 -0.0115
 1205TIP3    H125106   3.362   5.508  13.497 -4.5001 -2.3716 -1.5981
 1205TIP3    H225107   3.433   5.520  13.364  1.1975 -0.2432  1.4344
 1206TIP3   OH225108   6.660   4.503   3.507  0.0369 -0.3437 -0.3599
 1206TIP3    H125109   6.721   4.577   3.504 -0.2421 -0.1370 -1.1120
 1206TIP3    H225110   6.606   4.520   3.584 -0.4987  0.6253 -0.9326
 1207TIP3   OH225111   3.502   4.220   2.677  0.0339 -0.6426 -0.1449
 1207TIP3    H125112   3.549   4.157   2.622 -0.2431 -2.3471  1.5284
 1207TIP3    H225113   3.462   4.280   2.614  1.2572 -1.4309 -1.7408
 1208TIP3   OH225114   1.245   4.601  10.373 -0.2359 -0.0363  0.0048
 1208TIP3    H125115   1.222   4.591  10.465 -0.1507  1.4963  0.1930
 1208TIP3    H225116   1.323   4.546  10.361  1.1591  1.6200  1.3946
 1209TIP3   OH225117   5.085   5.403  14.967 -0.1590 -0.1016  0.0667
 1209TIP3    H125118   5.084   5.428  15.060  1.2780  3.1715 -0.7289
 1209TIP3    H225119   5.172   5.365  14.954 -0.2835 -0.3651  0.0069
 1210TIP3   OH225120   4.617   4.127  16.124 -0.5609  0.4355 -0.0899
 1210TIP3    H125121   4.660   4.192  16.178 -0.4178 -0.8319  1.3654
 1210TIP3    H225122   4.523   4.140  16.141 -0.5543  0.5844 -0.1711
 1211TIP3   OH225123   1.636   1.758  13.334 -0.2992  0.4739  0.9465
 1211TIP3    H125124   1.650   1.846  13.367 -0.1756  1.0029 -0.4650
 1211TIP3    H225125   1.719   1.713  13.350 -0.0600  0.8809  0.8620
 1212TIP3   OH225126   6.713   0.495  17.002  0.5872 -0.8070  0.2782
 1212TIP3    H125127   6.719   0.401  17.021  2.2929 -0.3459  2.1384
 1212TIP3    H225128   6.735   0.501  16.909 -0.6822 -2.3636 -0.1472
 1213TIP3   OH225129   4.359   0.492  15.308 -0.1819 -0.4035  0.2375
 1213TIP3    H125130   4.336   0.565  15.365  0.5922  1.6973 -2.0844
 1213TIP3    H225131   4.432   0.449  15.354  0.1233  0.9719  1.0877
 1214TIP3   OH225132   2.106   6.620   3.419  0.2400 -0.3427  0.2357
 1214TIP3    H125133   2.167   6.594   3.351  0.1869  1.4110 -0.5129
 1214TIP3    H225134   2.036   6.556   3.415  1.5917 -1.8640  0.5139
 1215TIP3   OH225135   0.499   2.716   0.234 -0.0494  0.4520 -0.0712
 1215TIP3    H125136   0.540   2.699   0.319  1.8516  0.3211 -0.9872
 1215TIP3    H225137   0.562   2.682   0.170 -1.9183 -0.3937 -1.5121
 1216TIP3   OH225138   6.202   2.430   1.882  0.4374 -0.5054 -0.3000
 1216TIP3    H125139   6.245   2.396   1.960  0.6816 -3.0939 -1.4904
 1216TIP3    H225140   6.273   2.447   1.820  0.0751 -1.0433 -0.8799
 1217TIP3   OH225141   2.129   1.038   3.537  0.0591  0.0772 -0.1625
 1217TIP3    H125142   2.204   1.077   3.581  0.4295  0.3007 -0.9895
 1217TIP3    H225143   2.156   0.948   3.518  0.8096  0.6802 -2.0741
 1218TIP3   OH225144   1.644   3.197   4.555 -0.3089  0.0060  0.2255
 1218TIP3    H125145   1.724   3.244   4.577 -0.9636  0.3630  1.9272
 1218TIP3    H225146   1.662   3.106   4.579  0.0657 -0.1595 -0.6795
 1219TIP3   OH225147   6.203   3.790   1.052  0.0935  0.4257  0.2218
 1219TIP3    H125148   6.158   3.715   1.013  0.0572  0.9712 -0.7908
 1219TIP3    H225149   6.285   3.753   1.085  1.3681  0.4414 -2.7890
 1220TIP3   OH225150   6.201   6.359   2.447  0.1030  0.6164  0.6931
 1220TIP3    H125151   6.179   6.446   2.414  1.0881 -0.2227 -2.3518
 1220TIP3    H225152   6.229   6.374   2.537  0.2730  3.4506  0.2123
 1221TIP3   OH225153   3.353   4.345   2.482 -0.2207  0.3902 -0.0895
 1221TIP3    H125154   3.281   4.312   2.428 -1.4469  1.6978  0.7133
 1221TIP3    H225155   3.375   4.430   2.444 -0.2156  0.7396  0.6893
 1222TIP3   OH225156   4.137   0.299   3.710 -0.0100 -0.1459  0.3507
 1222TIP3    H125157   4.160   0.207   3.693 -0.3718 -0.0136 -0.9633
 1222TIP3    H225158   4.172   0.317   3.797  1.5532 -1.0458 -0.0633
 1223TIP3   OH225159   4.411   4.651  11.255  0.6028 -0.0832 -0.6181
 1223TIP3    H125160   4.366   4.592  11.195  0.7427 -0.2394 -0.5739
 1223TIP3    H225161   4.498   4.662  11.216  2.2140 -3.5839  1.6455
 1224TIP3   OH225162   0.102   5.844   3.240  0.1341  0.1351 -0.5279
 1224TIP3    H125163   0.024   5.849   3.185 -0.1860  0.3185 -0.0525
 1224TIP3    H225164   0.102   5.754   3.274  0.3551  0.0087 -0.8563
 1225TIP3   OH225165   5.193   0.721  10.885  0.2662 -0.2236 -0.1132
 1225TIP3    H125166   5.196   0.641  10.833  1.1409 -1.2940  1.5591
 1225TIP3    H225167   5.273   0.768  10.861 -0.6703  0.5808 -1.7354
 1226TIP3   OH225168   1.436   2.687  16.448  0.0420 -0.1092  0.5745
 1226TIP3    H125169   1.361   2.644  16.488  0.0052  0.3264  0.9792
 1226TIP3    H225170   1.487   2.721  16.522 -0.0821  0.7849  0.2626
 1227TIP3   OH225171   4.655   2.614  12.129  0.4267 -0.1961 -0.4769
 1227TIP3    H125172   4.684   2.700  12.101 -0.1896  0.1611 -0.0264
 1227TIP3    H225173   4.643   2.622  12.224 -0.1509 -0.6180 -0.5110
 1228TIP3   OH225174   0.779   2.288  15.247  0.0010  0.3737  0.3639
 1228TIP3    H125175   0.758   2.308  15.338  0.1281 -1.3194  0.7885
 1228TIP3    H225176   0.700   2.312  15.198 -1.2074 -1.5040  1.3371
 1229TIP3   OH225177   2.567   3.626   1.677  0.1843  0.2270  0.2403
 1229TIP3    H125178   2.513   3.670   1.611  0.2514 -0.4345 -0.2763
 1229TIP3    H225179   2.615   3.559   1.627 -0.4091 -0.8579  1.0969
 1230TIP3   OH225180   2.110   3.931  14.084  0.0550  0.1348 -0.0466
 1230TIP3    H125181   2.113   3.951  13.990 -0.1986  0.4605  0.0135
 1230TIP3    H225182   2.024   3.890  14.097  0.8469 -1.6935 -0.3038
 1231TIP3   OH225183   1.199   6.065   1.182 -0.9645 -0.9036 -0.0868
 1231TIP3    H125184   1.116   6.112   1.188 -0.9124 -0.7906 -0.2511
 1231TIP3    H225185   1.264   6.133   1.165 -0.6657 -0.8405  1.2265
 1232TIP3   OH225186   5.713   3.422  17.085  0.0919  0.0556 -0.3502
 1232TIP3    H125187   5.753   3.435  17.171 -0.7437  1.4091 -0.1549
 1232TIP3    H225188   5.624   3.455  17.095 -0.1750 -0.2813 -1.5929
 1233TIP3   OH225189   6.412   0.030  12.162  1.0238  0.0401  0.2194
 1233TIP3    H125190   6.327   0.001  12.128  0.8589  0.9839 -0.1817
 1233TIP3    H225191   6.472  -0.041  12.139  0.0927 -1.2678  1.7001
 1234TIP3   OH225192   5.334   0.686   0.783  0.2057 -0.0087  0.1522
 1234TIP3    H125193   5.381   0.658   0.705  1.0440  0.8210  0.3543
 1234TIP3    H225194   5.384   0.760   0.817 -0.4623  0.0007  1.1597
 1235TIP3   OH225195   2.652   2.058   6.877 -0.0742 -0.1818  0.3260
 1235TIP3    H125196   2.715   2.084   6.944  1.4613 -1.6494 -0.4910
 1235TIP3    H225197   2.681   1.971   6.850 -1.5523 -0.2335 -1.1715
 1236TIP3   OH225198   0.140   3.310   1.418  0.1414 -0.8040  0.4759
 1236TIP3    H125199   0.112   3.266   1.337  1.4102 -0.1577 -0.3220
 1236TIP3    H225200   0.135   3.242   1.485 -0.0534 -1.5845 -0.3217
 1237TIP3   OH225201   1.240   4.724  15.501 -0.6056  0.2862 -0.2421
 1237TIP3    H125202   1.205   4.807  15.469 -2.3750 -0.6971 -0.9314
 1237TIP3    H225203   1.253   4.672  15.422  0.5703 -0.0722  0.1837
 1238TIP3   OH225204   6.814   6.651  15.936 -0.5538 -0.0471 -0.6333
 1238TIP3    H125205   6.756   6.726  15.922  0.7840  1.2368  0.5986
 1238TIP3    H225206   6.792   6.621  16.024  1.0809  0.8480  0.0969
 1239TIP3   OH225207   4.416   3.686   2.036  0.5249 -0.2937  0.0171
 1239TIP3    H125208   4.329   3.719   2.012  0.9689 -0.1815 -1.4288
 1239TIP3    H225209   4.400   3.634   2.115 -0.8697 -0.3284 -0.2718
 1240TIP3   OH225210   1.328   4.223  12.720  0.0321 -0.7478  0.2776
 1240TIP3    H125211   1.304   4.131  12.707  0.4654 -0.9125  0.6589
 1240TIP3    H225212   1.287   4.268  12.646 -0.2509 -1.2338  0.1324
 1241TIP3   OH225213   2.042   0.850  11.594  0.0756  0.4434 -0.1504
 1241TIP3    H125214   2.069   0.939  11.574  1.5170  0.5486  2.0820
 1241TIP3    H225215   2.106   0.795  11.550  1.0226  0.5959  1.0104
 1242TIP3   OH225216   4.276   2.839   3.462  0.6249 -0.1394 -0.3577
 1242TIP3    H125217   4.211   2.776   3.433  0.3947  0.0270 -0.2139
 1242TIP3    H225218   4.235   2.924   3.447  0.5947 -0.0485  0.2268
 1243TIP3   OH225219   3.932   6.034   3.084  0.1105 -0.1941 -0.2108
 1243TIP3    H125220   3.943   6.126   3.061  0.0639  0.0045  0.5317
 1243TIP3    H225221   4.003   6.016   3.146 -0.1314 -0.5378 -0.0283
 1244TIP3   OH225222   2.211   0.500  12.430  0.0844 -0.3361 -0.1795
 1244TIP3    H125223   2.269   0.536  12.497  1.0266 -1.4448 -0.3972
 1244TIP3    H225224   2.219   0.561  12.356 -0.8555  0.8155  0.6476
 1245TIP3   OH225225   4.462   2.990  12.526 -0.0793  0.3595 -0.2532
 1245TIP3    H125226   4.485   3.077  12.561 -0.8531 -0.1214  1.5094
 1245TIP3    H225227   4.412   2.949  12.596  1.7678 -2.1970 -0.3837
 1246TIP3   OH225228   1.700   5.672   5.942 -0.4522  0.5508  0.0395
 1246TIP3    H125229   1.726   5.729   6.014 -0.7341  1.3577 -0.4890
 1246TIP3    H225230   1.770   5.607   5.937  0.3571  1.4082  0.0397
 1247TIP3   OH225231   1.140   1.635  15.584 -0.4912  0.6132 -0.2360
 1247TIP3    H125232   1.184   1.617  15.667 -0.5327 -1.2202 -0.5937
 1247TIP3    H225233   1.196   1.595  15.517 -0.6419  1.7624 -1.0732
 1248TIP3   OH225234   1.756   1.101  15.616 -0.0344  0.4974  0.0119
 1248TIP3    H125235   1.713   1.134  15.695  1.4146  2.5094  0.0250
 1248TIP3    H225236   1.849   1.124  15.628  0.2960  0.3412 -1.9999
 1249TIP3   OH225237   2.397   5.552   0.593  0.1978 -0.1143  1.2163
 1249TIP3    H125238   2.396   5.458   0.573 -0.6816  0.2106 -0.4335
 1249TIP3    H225239   2.432   5.593   0.514 -0.2503  1.0026  1.5789
 1250TIP3   OH225240   4.853   5.083  15.321  0.4071 -0.2825  0.2477
 1250TIP3    H125241   4.918   5.064  15.254  1.2436  0.0332  0.9517
 1250TIP3    H225242   4.831   5.175  15.308  0.7298 -0.1624  0.5307
 1251TIP3   OH225243   1.649   3.447  16.947 -0.1313 -0.0956 -0.2542
 1251TIP3    H125244   1.624   3.486  17.030  1.1872  2.1924 -0.8719
 1251TIP3    H225245   1.586   3.483  16.884 -0.5819 -1.1176 -0.3878
 1252TIP3   OH225246   6.375   3.879   1.572 -0.3012  0.2114 -0.1704
 1252TIP3    H125247   6.406   3.868   1.661  0.0511  1.4164 -0.1261
 1252TIP3    H225248   6.321   3.958   1.575 -3.9809 -2.1692 -0.1110
 1253TIP3   OH225249   2.730   4.692  11.531 -0.0539 -0.2884  0.3443
 1253TIP3    H125250   2.677   4.768  11.555 -0.6225  0.0261 -1.7510
 1253TIP3    H225251   2.706   4.675  11.440  2.2037 -1.2018 -0.1108
 1254TIP3   OH225252   6.187   0.040   0.796  0.7274 -0.2578 -0.5113
 1254TIP3    H125253   6.231   0.093   0.729 -1.8875 -0.3332 -2.3489
 1254TIP3    H225254   6.224   0.072   0.879  0.7519  2.9874 -1.6983
 1255TIP3   OH225255   6.696   0.319   1.103  0.6794  0.0530 -0.1013
 1255TIP3    H125256   6.781   0.353   1.133  1.0165 -0.6262 -0.2690
 1255TIP3    H225257   6.712   0.293   1.013  1.0812 -2.7663  0.7459
 1256TIP3   OH225258   0.764   1.478   1.296 -0.2705 -0.3996  0.2110
 1256TIP3    H125259   0.835   1.524   1.251 -0.2934 -1.0538 -0.4923
 1256TIP3    H225260   0.706   1.548   1.327  2.2725  0.3641  3.5701
 1257TIP3   OH225261   1.293   5.382  13.821  0.2009 -0.4031  0.3686
 1257TIP3    H125262   1.339   5.308  13.780  0.8943  0.7014 -0.9185
 1257TIP3    H225263   1.363   5.436  13.858 -0.2074  0.2109  0.2518
 1258TIP3   OH225264   6.247   2.980  14.769 -0.4592  0.2657  0.4758
 1258TIP3    H125265   6.247   2.937  14.855 -1.1291  0.0602  0.3744
 1258TIP3    H225266   6.210   2.914  14.710  2.3792 -0.5570 -0.4535
 1259TIP3   OH225267   5.628   0.546   0.311  0.3345  0.4346 -0.0719
 1259TIP3    H125268   5.552   0.513   0.359 -1.1335  3.4636 -0.2200
 1259TIP3    H225269   5.652   0.474   0.252 -3.0450 -0.2317 -0.7361
 1260TIP3   OH225270   4.065   3.115  16.405  0.0666  0.7171 -0.2482
 1260TIP3    H125271   4.111   3.188  16.446 -0.0737  1.1658 -0.9011
 1260TIP3    H225272   4.019   3.153  16.330  1.2585 -0.3150 -1.5238
 1261TIP3   OH225273   6.552   5.979  12.270  0.0789 -0.1335  0.5056
 1261TIP3    H125274   6.520   6.048  12.211 -2.0294 -0.2539  1.4684
 1261TIP3    H225275   6.634   5.950  12.230 -0.9501  0.2703 -1.9889
 1262TIP3   OH225276   0.077   4.669  14.313  0.0591  0.5540 -0.1399
 1262TIP3    H125277   0.170   4.676  14.290 -0.2829  0.1437 -1.7025
 1262TIP3    H225278   0.039   4.751  14.280 -0.2971  0.3108 -0.3333
 1263TIP3   OH225279   4.019   1.420   4.633 -0.1072  0.5071  0.7898
 1263TIP3    H125280   4.107   1.433   4.598 -0.7116 -0.8287 -1.3479
 1263TIP3    H225281   4.028   1.350   4.697  0.3176 -0.0034  0.1799
 1264TIP3   OH225282   1.365   0.434   6.063  0.2897 -0.1268  1.1218
 1264TIP3    H125283   1.289   0.491   6.071 -0.5729 -1.1333  0.2888
 1264TIP3    H225284   1.333   0.348   6.094  0.7179 -0.8479 -0.3984
 1265TIP3   OH225285   0.276   0.578   3.143  0.1099  0.0876 -0.3082
 1265TIP3    H125286   0.311   0.574   3.054 -1.0070  0.2024 -0.7674
 1265TIP3    H225287   0.340   0.533   3.197  0.3619 -0.7664 -1.3138
 1266TIP3   OH225288   0.849   4.751   4.336 -0.4063  0.4084 -0.1127
 1266TIP3    H125289   0.892   4.835   4.323  1.3416 -0.6287 -1.3396
 1266TIP3    H225290   0.915   4.686   4.309 -1.6744 -1.3436  0.8962
 1267TIP3   OH225291   1.591   5.530  11.924  0.2070 -0.5148 -0.1487
 1267TIP3    H125292   1.607   5.573  12.009  0.8522 -1.9232  0.4589
 1267TIP3    H225293   1.519   5.470  11.942 -1.4388  1.0987 -1.2702
 1268TIP3   OH225294   1.231   6.417  15.242 -0.2645 -0.1582 -0.0079
 1268TIP3    H125295   1.260   6.402  15.332  0.7726 -1.4985 -0.5509
 1268TIP3    H225296   1.311   6.410  15.190 -0.9739 -0.0929 -1.1070
 1269TIP3   OH225297   5.981   5.244  16.565 -0.1986 -0.5250  0.2866
 1269TIP3    H125298   5.901   5.274  16.607  0.5755  0.5613  1.0203
 1269TIP3    H225299   6.051   5.275  16.622  0.6907 -2.8006  0.4693
 1270TIP3   OH225300   4.382   5.419   6.463  0.1262 -0.1420 -1.0674
 1270TIP3    H125301   4.293   5.430   6.429 -0.4042 -0.2872  0.2418
 1270TIP3    H225302   4.388   5.325   6.483  0.2718  0.0261 -0.3335
 1271TIP3   OH225303   1.370   6.601  13.984  0.1090 -0.1760 -0.0312
 1271TIP3    H125304   1.385   6.641  13.899  0.7287 -2.2365 -0.9255
 1271TIP3    H225305   1.393   6.669  14.047 -0.3227  1.3631 -1.4938
 1272TIP3   OH225306   4.750   5.694   5.752 -0.5578  0.5359 -0.8501
 1272TIP3    H125307   4.809   5.689   5.676 -0.5157 -0.4905 -0.7623
 1272TIP3    H225308   4.717   5.604   5.762  0.0541  0.4799  0.8418
 1273TIP3   OH225309   0.115   1.024  12.157  0.0944  0.4416 -0.2777
 1273TIP3    H125310   0.064   0.995  12.232  2.2573 -1.8175  0.4219
 1273TIP3    H225311   0.053   1.068  12.100 -2.1939 -0.5145  1.4225
 1274TIP3   OH225312   6.357   0.215   5.618 -0.6100  0.4912  0.2160
 1274TIP3    H125313   6.300   0.157   5.565 -1.0270  3.2165 -2.4603
 1274TIP3    H225314   6.321   0.302   5.604  0.7893  1.5823  3.1824
 1275TIP3   OH225315   0.034   0.471  14.934  0.0395  0.1953 -0.0875
 1275TIP3    H125316   0.086   0.525  14.994 -0.6168  2.1735 -1.2860
 1275TIP3    H225317   0.094   0.400  14.909  1.0981  0.6527  1.0557
 1276TIP3   OH225318   5.430   5.459  11.166  0.4077 -0.7774  0.1409
 1276TIP3    H125319   5.432   5.434  11.258  2.6538 -2.4185 -0.3044
 1276TIP3    H225320   5.482   5.392  11.122 -0.2318  0.2504 -2.2596
 1277TIP3   OH225321   3.593   4.659  16.958 -0.3222  0.1230 -0.3334
 1277TIP3    H125322   3.540   4.634  17.034 -1.2854 -0.3323 -1.1371
 1277TIP3    H225323   3.682   4.630  16.981 -0.7087 -0.5533  0.3744
 1278TIP3   OH225324   4.073   4.824   4.655  0.0093 -0.1043 -0.0405
 1278TIP3    H125325   4.028   4.808   4.572  0.6680  2.2881 -0.8766
 1278TIP3    H225326   4.138   4.891   4.636  0.7360 -0.1000  2.2353
 1279TIP3   OH225327   5.655   5.323   1.919 -0.9859 -0.4901 -0.0954
 1279TIP3    H125328   5.712   5.337   1.994 -1.5795  0.9014  0.1018
 1279TIP3    H225329   5.586   5.266   1.951 -0.3325 -1.2597 -0.0375
 1280TIP3   OH225330   5.435   0.257   3.109  0.2517  0.1260 -0.3486
 1280TIP3    H125331   5.471   0.313   3.178  0.3252 -0.2519 -0.0749
 1280TIP3    H225332   5.498   0.185   3.103  0.1383  0.0559 -0.6699
 1281TIP3   OH225333   0.348   2.120   5.051 -0.3926 -0.1484 -0.7564
 1281TIP3    H125334   0.443   2.119   5.062 -0.5981  1.5527  1.5427
 1281TIP3    H225335   0.317   2.178   5.120 -3.1654 -1.0959 -1.1677
 1282TIP3   OH225336   2.799   2.724  15.240  0.5658 -0.7776 -0.6946
 1282TIP3    H125337   2.871   2.788  15.245  0.1203 -0.2732 -0.6390
 1282TIP3    H225338   2.727   2.773  15.199  0.0170 -1.0576 -0.0707
 1283TIP3   OH225339   3.040   2.867  16.211 -0.5295 -0.4367  0.1830
 1283TIP3    H125340   2.976   2.938  16.201 -0.0010 -0.1803 -1.4986
 1283TIP3    H225341   2.991   2.798  16.257 -1.7072  0.1770 -0.1138
 1284TIP3   OH225342   1.523   4.155  15.304  0.1802 -0.3473 -0.5643
 1284TIP3    H125343   1.523   4.165  15.399 -0.9787  0.9567 -0.6742
 1284TIP3    H225344   1.491   4.066  15.288  1.2762 -0.8920  0.2893
 1285TIP3   OH225345   4.600   5.526  14.552 -0.5991  0.1282 -0.1151
 1285TIP3    H125346   4.628   5.592  14.489  1.5394  0.3532  1.0300
 1285TIP3    H225347   4.618   5.443  14.508 -1.7717  0.2687 -0.9010
 1286TIP3   OH225348   0.834   0.367   5.562 -0.0693  0.7105 -0.7179
 1286TIP3    H125349   0.858   0.298   5.624 -2.6339  2.2106  2.0767
 1286TIP3    H225350   0.916   0.411   5.541  1.4375 -2.3557 -1.5999
 1287TIP3   OH225351   1.742   2.141  13.861  0.3767 -0.0817  0.7371
 1287TIP3    H125352   1.769   2.069  13.803  1.7692  0.4906  0.6643
 1287TIP3    H225353   1.771   2.113  13.948 -0.1434 -0.1477  0.8879
 1288TIP3   OH225354   1.050   6.249   3.395  0.5940 -0.2158 -0.5390
 1288TIP3    H125355   1.136   6.241   3.354  1.9342  0.8442  1.9758
 1288TIP3    H225356   1.051   6.335   3.435 -2.4444  0.6452 -2.1935
 1289TIP3   OH225357   5.707   4.632   2.074 -0.7146  0.1690  0.0331
 1289TIP3    H125358   5.652   4.643   1.996 -1.2203  0.2394  0.3944
 1289TIP3    H225359   5.771   4.703   2.069 -0.9264  0.3479 -0.1725
 1290TIP3   OH225360   3.601   4.821   1.673  0.1196 -0.3163 -0.8516
 1290TIP3    H125361   3.567   4.731   1.672 -1.4472  0.2430  0.6853
 1290TIP3    H225362   3.553   4.864   1.743 -0.9731  2.4430 -3.2228
 1291TIP3   OH225363   6.315   2.365   5.329  0.6595 -0.9710 -0.8054
 1291TIP3    H125364   6.238   2.406   5.289  0.3038 -1.5553 -0.7335
 1291TIP3    H225365   6.373   2.438   5.349 -0.4370 -0.3855  0.3422
 1292TIP3   OH225366   3.602   3.282  14.577 -0.0394 -0.5231  0.0249
 1292TIP3    H125367   3.523   3.308  14.625  0.1830 -0.3280  0.2885
 1292TIP3    H225368   3.618   3.355  14.516  0.0208 -0.4962  0.0736
 1293TIP3   OH225369   1.776   2.889  13.623 -0.2244 -0.3844 -0.0347
 1293TIP3    H125370   1.738   2.975  13.604 -0.8453 -0.6216  0.1416
 1293TIP3    H225371   1.716   2.849  13.685  0.2767 -0.7893  0.1902
 1294TIP3   OH225372   0.999   6.158   6.312  0.4075  0.1046 -0.4132
 1294TIP3    H125373   0.964   6.158   6.401 -0.8524  0.3519 -0.9003
 1294TIP3    H225374   1.050   6.077   6.307  1.8774  0.9116  1.0575
 1295TIP3   OH225375   5.525   3.308   5.520  0.1549 -0.0542 -0.0153
 1295TIP3    H125376   5.571   3.370   5.577 -0.2175  1.4043 -1.2625
 1295TIP3    H225377   5.527   3.225   5.568  2.8177  0.3257  0.5943
 1296TIP3   OH225378   6.080   5.488   1.459  0.0025  0.4504  0.5121
 1296TIP3    H125379   6.154   5.470   1.517 -0.1089 -1.1413  0.1840
 1296TIP3    H225380   6.114   5.470   1.371 -0.3985  0.9807  0.2420
 1297TIP3   OH225381   6.404   4.427  11.992  0.3305  0.0333 -0.3855
 1297TIP3    H125382   6.424   4.401  11.902 -0.6555 -0.5219 -0.4524
 1297TIP3    H225383   6.328   4.485  11.983 -1.2805 -1.9115  0.2784
 1298TIP3   OH225384   5.523   2.480  16.395 -0.2854  0.4931  0.1612
 1298TIP3    H125385   5.490   2.467  16.307  0.3469 -1.3188  0.1657
 1298TIP3    H225386   5.607   2.434  16.397  0.4877  1.8940  1.2279
 1299TIP3   OH225387   4.937   2.290  14.339  0.0603  0.0646  0.4126
 1299TIP3    H125388   4.924   2.253  14.426  0.5876 -0.9193  0.0759
 1299TIP3    H225389   5.014   2.346  14.348 -0.9584  1.4045  1.0125
 1300TIP3   OH225390   5.452   1.290  13.664  0.1312  0.1917  0.5683
 1300TIP3    H125391   5.489   1.212  13.622  1.7683  0.2459  1.8727
 1300TIP3    H225392   5.441   1.266  13.756 -1.7719  0.6665  0.4956
 1301TIP3   OH225393   3.927   4.979  16.338  0.0681  0.3861 -0.0338
 1301TIP3    H125394   3.870   4.902  16.333 -0.2087  0.4944  1.4633
 1301TIP3    H225395   3.986   4.961  16.411 -0.7506  2.1089  1.0705
 1302TIP3   OH225396   6.607   6.806   5.057 -0.0236 -0.2438 -0.1986
 1302TIP3    H125397   6.617   6.774   4.967 -0.4253  0.9462 -0.6671
 1302TIP3    H225398   6.533   6.866   5.054  0.7508  0.7755  0.6771
 1303TIP3   OH225399   2.974   6.332  12.102 -0.1703 -0.0303  0.0710
 1303TIP3    H125400   2.931   6.418  12.101  0.3106  0.2089 -0.4844
 1303TIP3    H225401   2.987   6.313  12.195 -0.5093  0.3838  0.2048
 1304TIP3   OH225402   2.269   5.482  11.699  0.5121 -0.1961  0.5377
 1304TIP3    H125403   2.326   5.558  11.692 -1.6427  1.2848 -1.7876
 1304TIP3    H225404   2.208   5.504  11.769 -0.8600  0.8019 -0.9242
 1305TIP3   OH225405   3.502   1.251   4.689 -0.8152  0.2033  0.6582
 1305TIP3    H125406   3.472   1.203   4.767 -1.9964  1.0578  0.7380
 1305TIP3    H225407   3.596   1.263   4.704 -0.9833  0.1516  1.8554
 1306TIP3   OH225408   3.001   0.851   5.096 -0.0974  0.4462  0.2808
 1306TIP3    H125409   2.950   0.912   5.044 -1.1759 -0.1828  0.5946
 1306TIP3    H225410   2.958   0.851   5.182 -2.3722 -3.5354 -0.7708
 1307TIP3   OH225411   4.860   1.495  11.335  0.3794  0.2288  0.3147
 1307TIP3    H125412   4.925   1.433  11.368  1.0741 -0.9009 -2.9082
 1307TIP3    H225413   4.908   1.576  11.321  0.9355 -0.3509 -1.2417
 1308TIP3   OH225414   2.326   3.976  13.185  0.5161  0.4098  0.5814
 1308TIP3    H125415   2.388   4.029  13.234  1.8383  0.7769 -1.4326
 1308TIP3    H225416   2.379   3.931  13.119 -1.2207  0.0762 -0.6452
 1309TIP3   OH225417   2.007   0.614   2.282  0.3657 -0.1951  0.4621
 1309TIP3    H125418   2.049   0.654   2.206  0.3402 -2.0621 -0.5660
 1309TIP3    H225419   2.079   0.592   2.341  0.4260  0.8477  0.7726
 1310TIP3   OH225420   2.972   2.856  12.303  0.4655 -0.1599  0.6910
 1310TIP3    H125421   3.019   2.898  12.230 -0.7137 -0.7895 -0.4533
 1310TIP3    H225422   2.947   2.929  12.360 -1.0093  0.6748 -0.9579
 1311TIP3   OH225423   6.474   5.255   2.271 -0.5757 -0.4541  0.4908
 1311TIP3    H125424   6.399   5.288   2.221 -0.0548 -0.3228 -0.2053
 1311TIP3    H225425   6.455   5.280   2.362 -2.3396 -2.1634  0.6218
 1312TIP3   OH225426   6.387   0.448   3.159  0.2332  0.4251  0.3262
 1312TIP3    H125427   6.348   0.523   3.114  1.0558 -0.1256 -1.3385
 1312TIP3    H225428   6.312   0.401   3.195 -0.5018  0.5249 -1.0252
 1313TIP3   OH225429   1.803   1.842  12.883  0.6765  0.1585 -0.1083
 1313TIP3    H125430   1.743   1.906  12.921  0.5552  0.4674 -0.8181
 1313TIP3    H225431   1.745   1.772  12.851  0.5407  1.2446 -2.3382
 1314TIP3   OH225432   4.637   4.584  13.152  0.5766 -0.8452  0.1963
 1314TIP3    H125433   4.568   4.645  13.179  1.2963 -0.4890  1.2334
 1314TIP3    H225434   4.591   4.519  13.099 -0.1290  0.8522 -1.3484
 1315TIP3   OH225435   1.864   2.646   4.487  0.1194 -0.2529 -0.2852
 1315TIP3    H125436   1.934   2.692   4.534  0.1364 -0.2611 -0.3025
 1315TIP3    H225437   1.810   2.608   4.556 -1.5843  2.2554 -0.1685
 1316TIP3   OH225438   0.681   2.541  11.429  0.2232 -0.3167  0.6173
 1316TIP3    H125439   0.661   2.447  11.426  0.3397 -0.3246  0.0949
 1316TIP3    H225440   0.717   2.554  11.517  0.6917 -0.8631  0.5158
 1317TIP3   OH225441   0.101   0.616  11.082 -0.2109 -0.4800 -0.0188
 1317TIP3    H125442   0.079   0.705  11.112  2.1726  0.8182 -1.9029
 1317TIP3    H225443   0.035   0.597  11.015  0.2955  0.6370 -0.8708
 1318TIP3   OH225444   6.693   4.057  15.435  0.1362  0.1476 -0.2743
 1318TIP3    H125445   6.607   4.066  15.393  0.5666  5.3912 -0.4342
 1318TIP3    H225446   6.674   4.020  15.521 -1.7270 -2.9034 -1.9328
 1319TIP3   OH225447   4.478   2.250   1.351 -0.3072 -0.1788 -0.7060
 1319TIP3    H125448   4.528   2.172   1.376 -1.3902 -1.0279 -1.2012
 1319TIP3    H225449   4.466   2.242   1.256  0.1890  0.9515 -0.8737
 1320TIP3   OH225450   5.029   5.597   4.126  0.4992  0.4030  0.4106
 1320TIP3    H125451   5.093   5.643   4.180 -1.0319  1.8451  1.0159
 1320TIP3    H225452   4.974   5.667   4.090  0.7055 -0.6228 -2.0119
 1321TIP3   OH225453   3.079   1.420  13.707  0.1274 -0.0391  0.3338
 1321TIP3    H125454   3.019   1.348  13.688  0.7171 -0.3522 -0.3966
 1321TIP3    H225455   3.035   1.498  13.673 -0.4597 -0.0625  1.0185
 1322TIP3   OH225456   4.557   3.316   3.841  0.1390 -0.2203  0.7167
 1322TIP3    H125457   4.501   3.327   3.918  1.0468  3.1589  0.9763
 1322TIP3    H225458   4.498   3.327   3.766  0.0843  1.5809  0.9911
 1323TIP3   OH225459   3.983   5.352   1.529 -0.1603 -0.0252 -0.1839
 1323TIP3    H125460   4.075   5.325   1.522 -0.2129 -0.5422  1.0080
 1323TIP3    H225461   3.986   5.447   1.532  0.2799 -0.0113 -0.8796
 1324TIP3   OH225462   0.951   4.137   5.847  0.2893  0.2361  0.3686
 1324TIP3    H125463   0.967   4.197   5.774 -1.1352  1.1581  0.7931
 1324TIP3    H225464   0.856   4.137   5.858  0.4812  0.1585  2.2450
 1325TIP3   OH225465   3.708   1.609  11.924 -0.0320  0.4413  0.0156
 1325TIP3    H125466   3.690   1.595  11.831  2.9848  0.7064 -0.6479
 1325TIP3    H225467   3.658   1.540  11.968  0.2697 -1.0699 -1.9428
 1326TIP3   OH225468   2.850   1.414  14.477 -0.3344  0.1960 -0.3071
 1326TIP3    H125469   2.872   1.321  14.472  0.4145  0.4418 -1.9670
 1326TIP3    H225470   2.828   1.429  14.569 -0.1620 -1.5523  0.0303
 1327TIP3   OH225471   6.045   6.778  12.555 -0.3153 -0.4652 -0.1625
 1327TIP3    H125472   6.057   6.816  12.468  0.8780 -1.8205 -0.6064
 1327TIP3    H225473   6.061   6.685  12.543 -0.7426 -0.7591  1.4025
 1328TIP3   OH225474   3.754   4.396   2.065  0.6914 -0.1094 -0.2459
 1328TIP3    H125475   3.755   4.436   2.152 -2.3039 -0.4734  0.0289
 1328TIP3    H225476   3.701   4.456   2.012 -0.2919 -1.5574 -0.9370
 1329TIP3   OH225477   5.480   5.116  10.452  0.0664  0.0668 -0.8398
 1329TIP3    H125478   5.515   5.046  10.506 -0.4595  0.6891  0.3321
 1329TIP3    H225479   5.387   5.095  10.443  0.3417 -0.5833 -2.3784
 1330TIP3   OH225480   3.649   0.339   2.373 -0.2595 -0.3009  0.2222
 1330TIP3    H125481   3.714   0.386   2.321 -1.1899  0.4926 -0.2451
 1330TIP3    H225482   3.628   0.262   2.320 -0.3071 -0.1284 -0.0119
 1331TIP3   OH225483   2.031   2.361  13.797  0.2622 -0.8048 -0.0255
 1331TIP3    H125484   2.047   2.279  13.749  0.8554 -0.4957 -0.3690
 1331TIP3    H225485   2.067   2.429  13.740 -3.1573  0.0448 -1.2404
 1332TIP3   OH225486   1.574   3.213   3.476  0.1170  0.5411  0.5706
 1332TIP3    H125487   1.485   3.178   3.472  0.3805 -0.0200 -0.6416
 1332TIP3    H225488   1.586   3.237   3.567 -1.5186  1.2399  0.6217
 1333TIP3   OH225489   2.035   2.388  11.886 -0.2231 -0.3425 -0.5779
 1333TIP3    H125490   1.947   2.352  11.880  0.5583 -2.3317 -0.6169
 1333TIP3    H225491   2.050   2.428  11.800 -0.7633 -0.7826 -0.8831
 1334TIP3   OH225492   5.747   4.296   4.979  0.2300  0.1676 -0.3958
 1334TIP3    H125493   5.752   4.256   4.893 -2.9749 -0.6977 -0.2365
 1334TIP3    H225494   5.746   4.391   4.962  0.8544  0.0400 -1.1867
 1335TIP3   OH225495   4.268   5.512   6.167  0.0834 -0.0854  0.0754
 1335TIP3    H125496   4.360   5.504   6.142  0.3649  0.3638  0.9651
 1335TIP3    H225497   4.246   5.429   6.208  0.2024 -0.0375  0.2332
 1336TIP3   OH225498   0.368   6.602  16.365  0.2443 -1.0558  0.9000
 1336TIP3    H125499   0.408   6.565  16.287  2.7735 -1.1513  2.1974
 1336TIP3    H225500   0.313   6.674  16.332  1.3076 -1.0693 -0.9453
 1337TIP3   OH225501   4.409   0.950  14.770 -0.8988 -1.1321  0.0408
 1337TIP3    H125502   4.410   0.980  14.679  0.4379 -1.9068 -0.2055
 1337TIP3    H225503   4.371   1.024  14.818 -1.6732 -0.7355 -1.1357
 1338TIP3   OH225504   5.717   2.498   4.055 -0.1905  0.1280  0.3966
 1338TIP3    H125505   5.633   2.467   4.091  0.9057 -2.9651  0.5008
 1338TIP3    H225506   5.773   2.508   4.132  0.0544  0.4064  0.1783
 1339TIP3   OH225507   1.507   1.693   4.564 -0.6814  0.5642  0.2977
 1339TIP3    H125508   1.568   1.764   4.585  0.1122  0.7050 -2.3682
 1339TIP3    H225509   1.563   1.615   4.555 -0.8688  0.6797 -2.0755
 1340TIP3   OH225510   5.054   1.867   2.763  0.1502 -0.5187 -0.2366
 1340TIP3    H125511   4.964   1.857   2.796  0.8784 -0.1547  1.8768
 1340TIP3    H225512   5.106   1.887   2.840  1.5384  2.6579 -1.9235
 1341TIP3   OH225513   0.647   2.288  12.333 -0.3517 -0.4514  0.1343
 1341TIP3    H125514   0.658   2.199  12.368 -0.8730 -0.8008 -0.5664
 1341TIP3    H225515   0.646   2.276  12.238  1.3778  0.5198 -0.0197
 1342TIP3   OH225516   0.752   2.869   4.277  0.2280 -0.0702  0.2712
 1342TIP3    H125517   0.713   2.861   4.364  2.5711  0.9811  1.4523
 1342TIP3    H225518   0.723   2.955   4.246 -0.0580 -0.1626  0.2794
 1343TIP3   OH225519   4.355   5.447  12.850  0.4182 -0.2736 -0.1663
 1343TIP3    H125520   4.409   5.373  12.823 -0.6020 -0.7070 -1.0582
 1343TIP3    H225521   4.275   5.440  12.797 -1.3587 -0.7484  2.4417
 1344TIP3   OH225522   5.184   0.358  11.021 -0.2291 -0.1324 -0.2217
 1344TIP3    H125523   5.176   0.367  11.116 -0.1755 -1.0579 -0.1263
 1344TIP3    H225524   5.107   0.402  10.986 -0.6547 -0.4789  0.2806
 1345TIP3   OH225525   2.894   3.927  15.027 -0.3816  0.0745  0.2680
 1345TIP3    H125526   2.799   3.918  15.019 -0.2620 -0.8285 -0.2538
 1345TIP3    H225527   2.927   3.912  14.938  0.2123  0.9615  0.3279
 1346TIP3   OH225528   1.471   3.928   1.069 -0.3130 -0.2691  0.3851
 1346TIP3    H125529   1.532   3.943   1.141  0.0641  0.2122 -0.0264
 1346TIP3    H225530   1.387   3.913   1.112 -0.0745 -0.0785  0.9312
 1347TIP3   OH225531   6.510   2.507   5.167  0.4930 -0.4156  0.4741
 1347TIP3    H125532   6.515   2.574   5.099  0.3157 -0.3867  0.4911
 1347TIP3    H225533   6.433   2.455   5.144  1.2153 -1.2394 -0.1163
 1348TIP3   OH225534   4.157   5.369  12.363 -0.4611  0.5245  0.3310
 1348TIP3    H125535   4.192   5.446  12.318 -1.6451  2.4429  2.5827
 1348TIP3    H225536   4.184   5.381  12.454 -0.0097 -2.1477  0.5988
 1349TIP3   OH225537   3.035   3.319   3.770 -0.2439  0.5729  0.0855
 1349TIP3    H125538   2.991   3.392   3.813  1.3526  1.0144  1.0396
 1349TIP3    H225539   3.127   3.346   3.766  0.1404 -0.7948 -0.8150
 1350TIP3   OH225540   1.775   6.323   4.949  0.2332 -0.4247 -0.3030
 1350TIP3    H125541   1.793   6.381   4.875  2.8258 -0.0083  0.6030
 1350TIP3    H225542   1.714   6.373   5.004  1.3305  0.8853 -0.2390
 1351TIP3   OH225543   5.997   3.933  14.580 -0.6399  0.4872 -0.0668
 1351TIP3    H125544   6.030   4.021  14.599 -1.6841  0.3274  2.7463
 1351TIP3    H225545   5.926   3.920  14.643 -0.5813 -2.3257 -0.5223
 1352TIP3   OH225546   4.979   1.347   0.551  0.2943  0.2160  0.5803
 1352TIP3    H125547   4.898   1.375   0.509  0.4581 -0.0930  0.0599
 1352TIP3    H225548   5.009   1.425   0.599  0.7568  0.9331 -0.8569
 1353TIP3   OH225549   1.712   2.896   4.521 -0.5412  0.1133 -0.2546
 1353TIP3    H125550   1.735   2.803   4.521  0.8157  0.4005  2.9522
 1353TIP3    H225551   1.776   2.936   4.461  0.2386 -0.7170  0.0075
 1354TIP3   OH225552   2.566   5.841  15.577 -0.1292  0.0401  0.1572
 1354TIP3    H125553   2.639   5.806  15.526  0.4769  0.3340  0.8127
 1354TIP3    H225554   2.585   5.813  15.667 -0.0340  1.4001  0.5658
 1355TIP3   OH225555   6.433   5.796  14.487  0.3942 -0.2830 -0.0426
 1355TIP3    H125556   6.476   5.793  14.573  0.9878 -1.8020 -0.3708
 1355TIP3    H225557   6.340   5.805  14.507  0.5708 -0.1959  0.7540
 1356TIP3   OH225558   5.874   3.853  16.412 -0.1835 -0.3729  0.4364
 1356TIP3    H125559   5.969   3.863  16.413 -0.3905  1.9702  0.8857
 1356TIP3    H225560   5.845   3.907  16.337 -1.1365 -1.2035  0.1923
 1357TIP3   OH225561   1.858   0.634  12.741 -0.1991 -0.6923 -0.0436
 1357TIP3    H125562   1.953   0.625  12.735 -0.2183 -0.5414 -0.7006
 1357TIP3    H225563   1.826   0.546  12.757  0.1016 -0.6300  0.9060
 1358TIP3   OH225564   6.528   6.332   6.474 -0.3183 -0.3642  0.4210
 1358TIP3    H125565   6.610   6.313   6.518 -0.9768 -1.2826  1.2792
 1358TIP3    H225566   6.494   6.410   6.518  0.2679  0.2538 -0.1961
 1359TIP3   OH225567   4.969   3.524   1.891  0.0580 -0.2524 -0.0078
 1359TIP3    H125568   5.004   3.598   1.940 -0.5444 -0.1547  0.2769
 1359TIP3    H225569   5.043   3.493   1.839  0.4782  0.1652  0.3324
 1360TIP3   OH225570   1.327   0.991  15.676 -0.4592  0.4414 -0.1696
 1360TIP3    H125571   1.267   0.971  15.749 -0.0681  0.2543  0.1036
 1360TIP3    H225572   1.348   1.083  15.686 -0.2884  0.3794  0.0426
 1361TIP3   OH225573   4.113   4.580   6.273 -0.6077 -0.3690 -0.0077
 1361TIP3    H125574   4.055   4.526   6.220  0.7766 -2.2024  0.2944
 1361TIP3    H225575   4.104   4.668   6.236 -0.7174 -1.3473 -2.3977
 1362TIP3   OH225576   0.249   1.587   4.808 -0.4041  0.0428  0.1785
 1362TIP3    H125577   0.218   1.670   4.843 -0.9354  0.3038 -0.8575
 1362TIP3    H225578   0.314   1.612   4.742 -1.5388 -0.2897 -1.0848
 1363TIP3   OH225579   0.131   0.363   1.228  0.1426  0.1847 -0.1225
 1363TIP3    H125580   0.209   0.417   1.212 -0.3097  0.9381  0.2106
 1363TIP3    H225581   0.163   0.291   1.281  0.8149 -0.0564 -0.8383
 1364TIP3   OH225582   1.898   4.676  12.466 -0.2330  0.4711  0.1340
 1364TIP3    H125583   1.902   4.596  12.414 -0.9667  0.4546  0.0877
 1364TIP3    H225584   1.814   4.670  12.512 -0.0458  0.9581  0.5432
 1365TIP3   OH225585   3.045   4.444   1.683 -0.2056  0.4782 -0.5232
 1365TIP3    H125586   3.079   4.380   1.745 -2.6889  0.7148  1.1493
 1365TIP3    H225587   2.988   4.393   1.625  0.3548  0.6574 -1.2537
 1366TIP3   OH225588   2.456   0.541   5.348 -0.2824 -0.1470  0.4006
 1366TIP3    H125589   2.460   0.636   5.360 -1.4163  0.2317 -1.9776
 1366TIP3    H225590   2.541   0.509   5.380  0.4988  1.7690  0.3076
 1367TIP3   OH225591   5.444   5.061  11.715 -0.2116 -0.0760 -0.1112
 1367TIP3    H125592   5.385   5.134  11.694 -1.6295 -2.0258 -3.1908
 1367TIP3    H225593   5.527   5.086  11.675 -0.6060 -0.0018 -0.8961
 1368TIP3   OH225594   1.130   5.692  11.400  0.3160  0.0131 -0.0933
 1368TIP3    H125595   1.201   5.629  11.387 -0.8539 -1.2686 -0.4259
 1368TIP3    H225596   1.153   5.739  11.480  0.9399 -1.2100  0.4500
 1369TIP3   OH225597   2.867   6.704  16.915  0.6365  0.1733 -0.0876
 1369TIP3    H125598   2.809   6.649  16.863  0.1640  0.8940 -0.3165
 1369TIP3    H225599   2.955   6.674  16.892  0.3496 -1.9519  1.3715
 1370TIP3   OH225600   5.329   2.930  15.665  0.1667 -0.3249  0.1581
 1370TIP3    H125601   5.386   2.990  15.617 -0.6836  0.0263 -0.4158
 1370TIP3    H225602   5.383   2.900  15.738  0.3798  1.6572  0.8584
 1371TIP3   OH225603   2.844   6.812   4.025  0.2180 -0.1259  0.6597
 1371TIP3    H125604   2.937   6.814   4.003  0.2743  1.6853  0.9529
 1371TIP3    H225605   2.817   6.722   4.007  0.9430  0.4386 -3.9514
 1372TIP3   OH225606   3.538   6.646   0.152 -0.8488  0.1841 -0.0153
 1372TIP3    H125607   3.580   6.560   0.142  0.2675  0.7331 -0.1594
 1372TIP3    H225608   3.539   6.661   0.247  1.6338  1.3088 -0.1660
 1373TIP3   OH225609   4.340   1.534  12.941  0.0615 -0.3808  0.2165
 1373TIP3    H125610   4.420   1.587  12.938 -1.5582  2.1416  1.0081
 1373TIP3    H225611   4.289   1.570  13.013 -1.9026 -1.8239 -0.4074
 1374TIP3   OH225612   5.268   3.140  11.948 -0.8463  0.4483 -0.0103
 1374TIP3    H125613   5.222   3.125  11.865  0.1788  0.5550 -0.6040
 1374TIP3    H225614   5.349   3.184  11.923 -0.4804  0.3935  1.0478
 1375TIP3   OH225615   4.559   5.141  16.001  0.2831 -0.0751  0.0424
 1375TIP3    H125616   4.547   5.061  15.949  1.7620 -0.7567  0.7236
 1375TIP3    H225617   4.642   5.178  15.971 -0.4467  1.2666 -0.3396
 1376TIP3   OH225618   1.851   2.122  16.462 -0.3383 -0.0440 -0.4663
 1376TIP3    H125619   1.813   2.101  16.377  2.4702 -2.4041 -1.2151
 1376TIP3    H225620   1.870   2.216  16.457 -2.6971  0.4152 -1.3785
 1377TIP3   OH225621   2.954   2.486  13.068  1.4040 -0.2735  0.0935
 1377TIP3    H125622   2.897   2.496  12.992  0.7325 -2.9168  0.1910
 1377TIP3    H225623   2.934   2.561  13.124 -1.2260 -0.5990 -0.3472
 1378TIP3   OH225624   3.332   0.231   2.812 -0.5270 -0.0796 -0.4162
 1378TIP3    H125625   3.271   0.157   2.809 -0.3651 -0.1856 -1.6093
 1378TIP3    H225626   3.368   0.234   2.723  0.4060  0.6486 -0.0074
 1379TIP3   OH225627   3.422   4.931   1.818 -0.0387  0.1477  0.3635
 1379TIP3    H125628   3.417   5.000   1.884 -0.5528  0.0972  0.3790
 1379TIP3    H225629   3.342   4.879   1.831 -0.9944  1.1284 -1.4101
 1380TIP3   OH225630   6.775   3.642  15.989  0.3917  0.1441  0.4746
 1380TIP3    H125631   6.780   3.667  15.897  0.2977 -0.3106  0.3416
 1380TIP3    H225632   6.818   3.556  15.992 -2.7674 -1.5047  0.2241
 1381TIP3   OH225633   5.712   3.172  11.392  0.0523  0.7183  0.0035
 1381TIP3    H125634   5.672   3.226  11.324  0.0287  0.7272  0.0247
 1381TIP3    H225635   5.682   3.209  11.474  1.1522  1.5390  0.0494
 1382TIP3   OH225636   4.212   1.337  16.124 -0.5249  0.5550  1.1387
 1382TIP3    H125637   4.151   1.267  16.144  0.1871 -1.0065 -1.7794
 1382TIP3    H225638   4.290   1.317  16.177 -0.2663 -1.0032  0.2221
 1383TIP3   OH225639   0.686   0.063  14.587  0.0136  0.2182  0.0040
 1383TIP3    H125640   0.677   0.013  14.668  2.8549  1.0909  0.9346
 1383TIP3    H225641   0.745   0.135  14.611  2.2720 -0.4676 -3.2263
 1384TIP3   OH225642   1.494   2.713  13.295  0.5921  0.5747  0.4366
 1384TIP3    H125643   1.469   2.781  13.357 -1.5589 -0.7513  1.0705
 1384TIP3    H225644   1.416   2.659  13.284  1.4819 -0.3356 -1.9979
 1385TIP3   OH225645   0.192   1.274   3.594 -0.3839  0.0901  0.4393
 1385TIP3    H125646   0.256   1.345   3.588  0.5211 -0.8322 -1.4211
 1385TIP3    H225647   0.107   1.319   3.600  0.1015  1.3668 -1.5553
 1386TIP3   OH225648   6.399   2.568  16.801 -0.2736 -0.2668  0.0086
 1386TIP3    H125649   6.461   2.630  16.763 -0.2417  0.2819  0.9106
 1386TIP3    H225650   6.432   2.553  16.890 -0.5645 -1.1943 -0.0416
 1387TIP3   OH225651   6.137   2.882  11.058 -0.2910  0.1685 -0.2343
 1387TIP3    H125652   6.143   2.790  11.033  0.4482 -0.2464  1.4004
 1387TIP3    H225653   6.083   2.882  11.137 -0.3736  1.1463 -0.2896
 1388TIP3   OH225654   2.286   4.292  11.347 -0.3681  0.2601  0.1457
 1388TIP3    H125655   2.353   4.249  11.400 -0.6027 -1.5615 -1.0024
 1388TIP3    H225656   2.332   4.365  11.306  0.4839  0.0598  0.7131
 1389TIP3   OH225657   4.598   0.105   5.591  0.2763  0.2052 -0.8018
 1389TIP3    H125658   4.693   0.105   5.580  0.2382  0.7456 -1.1024
 1389TIP3    H225659   4.570   0.019   5.559  0.6606  0.0534 -0.7245
 1390TIP3   OH225660   3.893   0.544   3.976 -0.4626  0.6175  0.6469
 1390TIP3    H125661   3.986   0.568   3.982  0.2883 -1.9701 -0.0344
 1390TIP3    H225662   3.870   0.558   3.884  0.3478 -2.3637 -0.0661
 1391TIP3   OH225663   2.820   0.023  12.341 -0.0066 -0.3885  0.2768
 1391TIP3    H125664   2.877   0.100  12.341  1.0883 -1.1558 -2.0351
 1391TIP3    H225665   2.762   0.037  12.266 -0.1364 -1.5495  0.1583
 1392TIP3   OH225666   2.218   2.217  10.932  0.1932 -0.0311  0.1198
 1392TIP3    H125667   2.181   2.270  10.862 -1.2705 -0.0999  0.8015
 1392TIP3    H225668   2.308   2.199  10.905  0.4350  2.0633 -0.5153
 1393TIP3   OH225669   4.946   3.571  12.218  0.2238 -0.1867  0.0094
 1393TIP3    H125670   4.992   3.542  12.297 -1.9804 -0.1164  1.3626
 1393TIP3    H225671   4.884   3.501  12.200 -2.6030  1.9281  1.1651
 1394TIP3   OH225672   2.120   4.462  15.460 -0.2159  0.9372  0.0215
 1394TIP3    H125673   2.048   4.438  15.401 -2.0837  2.6852  1.5001
 1394TIP3    H225674   2.183   4.507  15.403 -0.2467 -0.6635 -1.3138
 1395TIP3   OH225675   3.323   0.905  16.052 -0.1838 -0.1391 -0.2439
 1395TIP3    H125676   3.307   0.819  16.092  0.6129 -0.1120  0.1436
 1395TIP3    H225677   3.418   0.909  16.042 -0.0305  1.5494  1.7000
 1396TIP3   OH225678   5.206   6.734  14.141  0.8202  0.2858 -0.5280
 1396TIP3    H125679   5.167   6.809  14.096 -0.7885 -0.8868 -1.1535
 1396TIP3    H225680   5.144   6.662  14.126  2.6430 -1.3400 -0.5280
 1397TIP3   OH225681   6.047   1.976   4.644 -0.1670  0.2744  0.4038
 1397TIP3    H125682   5.993   1.914   4.693  0.2944  1.9357  3.1074
 1397TIP3    H225683   5.986   2.045   4.618  0.1495  0.8335  1.1526
 1398TIP3   OH225684   5.618   2.791   0.767 -0.2436 -0.1307 -0.0151
 1398TIP3    H125685   5.528   2.799   0.800  0.4780 -1.2555  2.3175
 1398TIP3    H225686   5.670   2.847   0.824  0.5775  0.4024 -1.2659
 1399TIP3   OH225687   1.259   2.933   3.671  0.3088  0.4761  0.2590
 1399TIP3    H125688   1.177   2.911   3.715 -0.8742  2.0700 -1.1179
 1399TIP3    H225689   1.265   2.870   3.599 -0.1648  0.9471 -0.1919
 1400TIP3   OH225690   0.326   4.230   3.993  0.1149  0.1227  0.3374
 1400TIP3    H125691   0.364   4.269   3.915  0.8722 -1.5101 -0.1340
 1400TIP3    H225692   0.305   4.140   3.968  0.4710 -0.4615  2.0412
 1401TIP3   OH225693   2.391   3.635  12.344 -0.1495  0.0046  0.3241
 1401TIP3    H125694   2.308   3.659  12.385 -0.3155 -0.1008  0.0534
 1401TIP3    H225695   2.409   3.547  12.377  0.3669  0.4280  1.1728
 1402TIP3   OH225696   3.877   0.390   0.224 -0.2303 -0.7913  0.1303
 1402TIP3    H125697   3.822   0.412   0.300  2.1270  1.7696  1.1647
 1402TIP3    H225698   3.851   0.452   0.157 -0.5985 -1.4639 -0.3543
 1403TIP3   OH225699   2.158   2.334   5.381  0.1095  0.1150 -0.2649
 1403TIP3    H125700   2.093   2.348   5.450 -1.4444  1.8991 -2.0596
 1403TIP3    H225701   2.200   2.419   5.369 -0.1285 -0.0042 -2.0254
 1404TIP3   OH225702   2.570   4.370  14.309  0.0880 -0.0295 -0.1038
 1404TIP3    H125703   2.513   4.299  14.338 -0.7258  1.0374  0.9596
 1404TIP3    H225704   2.595   4.346  14.220 -2.2903 -0.3621 -0.7067
 1405TIP3   OH225705   0.495   1.721   4.899 -0.4388 -0.3781  0.3633
 1405TIP3    H125706   0.574   1.727   4.953 -1.1192 -0.1564  1.3288
 1405TIP3    H225707   0.462   1.633   4.915 -1.9120  0.4674  2.0881
 1406TIP3   OH225708   5.164   3.085   5.141  0.3767 -0.2139 -0.1612
 1406TIP3    H125709   5.107   3.150   5.099  0.5334 -0.4577 -0.7498
 1406TIP3    H225710   5.133   3.001   5.108  1.2154 -0.3345 -0.6627
 1407TIP3   OH225711   1.158   3.074  14.196 -0.7028  0.0431 -0.1541
 1407TIP3    H125712   1.195   2.986  14.195 -0.9986 -0.0801 -0.6130
 1407TIP3    H225713   1.198   3.119  14.122  0.3615  0.6908  0.7843
 1408TIP3   OH225714   5.680   0.065  13.185 -0.1981  0.4335  0.8403
 1408TIP3    H125715   5.665   0.019  13.102  0.1886 -0.3545  1.2022
 1408TIP3    H225716   5.744   0.132  13.163  1.7790 -1.3358  1.0021
 1409TIP3   OH225717   2.915   1.124  12.920  0.0085  0.1235  0.1721
 1409TIP3    H125718   2.887   1.096  13.007  0.7205  1.1716  0.7438
 1409TIP3    H225719   2.844   1.180  12.889 -0.3791 -0.4849 -0.0439
 1410TIP3   OH225720   0.053   3.546   1.965 -0.3567  0.2044 -0.3531
 1410TIP3    H125721   0.102   3.517   1.889 -0.1666 -1.7716  0.4860
 1410TIP3    H225722   0.114   3.537   2.038 -0.5083  2.1522  0.0418
 1411TIP3   OH225723   5.610   1.125  13.269  0.2841  1.0348  0.1889
 1411TIP3    H125724   5.583   1.206  13.314  0.1048  0.8182  0.4741
 1411TIP3    H225725   5.552   1.120  13.193 -1.7570 -0.3966  1.7916
 1412TIP3   OH225726   4.347   1.233   4.996  0.4245 -0.2512 -0.1899
 1412TIP3    H125727   4.301   1.245   5.079  2.0350  0.4195  0.6346
 1412TIP3    H225728   4.384   1.145   5.001 -0.5351 -0.6955 -0.7471
 1413TIP3   OH225729   0.422   6.478  13.866 -0.0827  0.4440  0.3319
 1413TIP3    H125730   0.395   6.475  13.958 -0.4053 -0.4249  0.2154
 1413TIP3    H225731   0.434   6.386  13.842  3.6982  0.8053  0.5865
 1414TIP3   OH225732   4.694   3.843  13.154  0.2073 -0.0697 -0.1470
 1414TIP3    H125733   4.643   3.900  13.212  0.9260 -0.8374  1.2371
 1414TIP3    H225734   4.727   3.903  13.086 -0.2382  0.9107  0.4792
 1415TIP3   OH225735   6.168   4.506   5.311 -0.2255  0.1981  0.4171
 1415TIP3    H125736   6.132   4.585   5.352 -0.4030 -0.8843  2.3623
 1415TIP3    H225737   6.169   4.441   5.380  0.3566 -1.3966 -1.0623
 1416TIP3   OH225738   2.890   6.043   0.678 -0.3024  0.2913 -0.1304
 1416TIP3    H125739   2.968   5.998   0.646 -1.3859 -0.3540 -1.9808
 1416TIP3    H225740   2.880   6.118   0.620 -0.9461  0.4714  0.2032
 1417TIP3   OH225741   3.496   3.592  15.248 -0.2579  0.6843 -0.2970
 1417TIP3    H125742   3.565   3.535  15.213 -0.0035  1.4319 -1.0159
 1417TIP3    H225743   3.415   3.559  15.207 -0.3645 -0.2795  0.6524
 1418TIP3   OH225744   0.334   5.544  10.919  0.8332 -0.1724 -0.5126
 1418TIP3    H125745   0.323   5.494  10.838 -2.5403 -0.2878 -0.0586
 1418TIP3    H225746   0.320   5.635  10.893  0.0353 -0.1802 -0.1175
 1419TIP3   OH225747   5.836   5.338  14.005  0.2135 -0.6657 -0.3906
 1419TIP3    H125748   5.793   5.346  13.919  0.0244  1.2978 -0.1212
 1419TIP3    H225749   5.795   5.406  14.059 -0.4330 -2.5727  1.6057
 1420TIP3   OH225750   4.802   3.909  16.691 -0.0202  0.0846 -0.4403
 1420TIP3    H125751   4.732   3.917  16.757  0.8351  1.6788  0.2987
 1420TIP3    H225752   4.755   3.900  16.608 -1.1203 -0.0423  0.1777
 1421TIP3   OH225753   6.394   1.933   2.249  0.1330  0.7381  0.0644
 1421TIP3    H125754   6.475   1.896   2.215 -0.6478  0.2627 -1.3208
 1421TIP3    H225755   6.420   1.980   2.328  1.3952 -1.3046  0.8974
 1422TIP3   OH225756   2.061   3.577   4.655  0.4764 -0.1125  0.0308
 1422TIP3    H125757   2.078   3.654   4.709  0.3726  0.1344 -0.2821
 1422TIP3    H225758   1.981   3.539   4.691  0.2358  0.2282 -0.1416
 1423TIP3   OH225759   5.740   4.009   3.665 -0.4868  0.1663 -0.2270
 1423TIP3    H125760   5.664   3.966   3.704 -0.3252 -0.6620 -0.8291
 1423TIP3    H225761   5.742   4.096   3.707 -0.7644 -0.4238  1.0464
 1424TIP3   OH225762   4.469   0.770   5.398  0.7422 -0.1228 -0.6200
 1424TIP3    H125763   4.536   0.790   5.333  1.4151  0.5837  0.2788
 1424TIP3    H225764   4.411   0.846   5.397  0.2689 -0.4837 -0.9901
 1425TIP3   OH225765   1.029   4.951  11.684 -0.1968  0.0031  0.4646
 1425TIP3    H125766   1.003   4.960  11.775 -1.3380 -2.1734  0.4087
 1425TIP3    H225767   0.983   5.021  11.638  0.0460  0.8393  1.4760
 1426TIP3   OH225768   3.555   3.135  12.090  0.6776 -0.5072  0.0167
 1426TIP3    H125769   3.508   3.053  12.078  0.0930 -0.1749  0.0373
 1426TIP3    H225770   3.621   3.115  12.157  0.1306 -0.7939  0.4745
 1427TIP3   OH225771   5.907   0.051  14.751  0.0056 -0.3524 -0.6055
 1427TIP3    H125772   5.972  -0.007  14.790 -0.7302 -1.2853 -0.7497
 1427TIP3    H225773   5.957   0.128  14.724  0.9587 -0.8341 -0.2414
 1428TIP3   OH225774   4.858   5.208   5.218 -0.1592 -0.4969 -0.3564
 1428TIP3    H125775   4.780   5.196   5.272  0.0833 -1.2404 -0.1549
 1428TIP3    H225776   4.835   5.169   5.134 -0.1990 -0.2247 -0.4696
 1429TIP3   OH225777   4.654   3.856   1.881  0.5831  0.2218  0.1657
 1429TIP3    H125778   4.585   3.845   1.946  0.1952 -0.6083 -0.3897
 1429TIP3    H225779   4.704   3.775   1.885  1.3069  0.6606  0.2844
 1430TIP3   OH225780   3.156   0.547  13.554 -0.4724 -0.2329  0.2516
 1430TIP3    H125781   3.240   0.590  13.566  0.6295 -1.2189 -3.4513
 1430TIP3    H225782   3.172   0.456  13.581 -0.7777 -0.0989  0.9098
 1431TIP3   OH225783   5.801   5.805   5.452  0.1565 -0.4953  0.0541
 1431TIP3    H125784   5.829   5.897   5.454 -1.6595  0.0434  1.3905
 1431TIP3    H225785   5.877   5.757   5.484  1.1112  0.5288 -0.6148
 1432TIP3   OH225786   2.955   2.246  12.536 -0.2953  0.5202 -0.6767
 1432TIP3    H125787   3.022   2.192  12.493  1.0885  1.0309  0.7808
 1432TIP3    H225788   2.978   2.243  12.629 -2.6930  0.1890 -0.0603
 1433TIP3   OH225789   2.875   3.307   0.695  0.3332 -0.6366  0.4250
 1433TIP3    H125790   2.799   3.250   0.692 -0.5791  0.6117 -0.3549
 1433TIP3    H225791   2.853   3.375   0.759  0.2226  0.5149 -0.8159
 1434TIP3   OH225792   6.059   0.946  16.836  0.4671  0.1487  0.8823
 1434TIP3    H125793   6.126   1.013  16.822  1.4876 -0.8435  0.9717
 1434TIP3    H225794   6.089   0.871  16.786 -0.1048 -0.6198  1.6777
 1435TIP3   OH225795   4.665   6.009  16.901 -0.1427 -0.0480  0.1145
 1435TIP3    H125796   4.649   6.062  16.978 -1.8566 -0.2403 -0.1064
 1435TIP3    H225797   4.688   6.072  16.833 -3.9972  0.6464 -0.6498
 1436TIP3   OH225798   4.619   3.944  15.231  0.1690 -0.3668  0.0636
 1436TIP3    H125799   4.557   3.924  15.301  0.7958 -0.8539  0.4857
 1436TIP3    H225800   4.624   3.863  15.179  0.5379 -0.3722  0.1040
 1437TIP3   OH225801   1.524   1.313  13.359  0.4719  0.3659  0.0420
 1437TIP3    H125802   1.611   1.304  13.319  0.7256 -0.4669  0.7725
 1437TIP3    H225803   1.542   1.316  13.454 -0.4782 -2.2845  0.3392
 1438TIP3   OH225804   6.572   4.282   0.154 -0.2746 -0.1511  0.1830
 1438TIP3    H125805   6.555   4.376   0.160  1.1684  0.1566 -0.3154
 1438TIP3    H225806   6.535   4.256   0.069  0.8359  0.3203 -0.4579
 1439TIP3   OH225807   4.731   5.023   3.403  1.1357  0.5857  0.2749
 1439TIP3    H125808   4.714   4.981   3.487  1.7082 -0.0061  0.0990
 1439TIP3    H225809   4.707   4.957   3.338  1.1575  0.8658 -0.0189
 1440TIP3   OH225810   5.783   4.084  16.231 -0.3601 -0.8702 -0.1567
 1440TIP3    H125811   5.827   4.169  16.230  0.5091 -1.2893  1.1289
 1440TIP3    H225812   5.704   4.097  16.178  0.3502  0.4141 -0.9375
 1441TIP3   OH225813   6.511   1.124  10.578  0.1610  0.0442 -0.0715
 1441TIP3    H125814   6.475   1.139  10.665  1.4931  0.2258  0.4538
 1441TIP3    H225815   6.434   1.121  10.521 -0.8814 -2.3326  1.3916
 1442TIP3   OH225816   4.681   0.984   2.363  0.0353 -0.2302  0.1642
 1442TIP3    H125817   4.680   0.953   2.273  0.3228 -0.8383  0.3659
 1442TIP3    H225818   4.627   0.920   2.411  0.6890 -0.4653  0.5955
 1443TIP3   OH225819   6.365   4.302  13.222  0.1310 -0.0218  0.1522
 1443TIP3    H125820   6.389   4.222  13.175 -1.1570 -0.4102  0.1371
 1443TIP3    H225821   6.448   4.349  13.233  0.7217 -0.7937 -0.8816
 1444TIP3   OH225822   5.618   5.360   0.526  0.7422 -0.4226 -0.2390
 1444TIP3    H125823   5.676   5.343   0.452 -0.6340  0.5526 -1.5893
 1444TIP3    H225824   5.566   5.436   0.498  1.2813  0.9578  2.3700
 1445TIP3   OH225825   4.814   5.441  10.460  0.1271 -0.2852 -1.2174
 1445TIP3    H125826   4.866   5.515  10.430  1.2599  0.6237  2.6854
 1445TIP3    H225827   4.742   5.480  10.509  0.9062 -1.7183  1.1433
 1446TIP3   OH225828   6.106   3.020  16.296  0.2400  0.0437  1.0430
 1446TIP3    H125829   6.153   3.005  16.378 -0.0457  0.6554  1.3128
 1446TIP3    H225830   6.023   2.975  16.307  0.3370 -0.1619  0.9536
 1447TIP3   OH225831   6.406   1.947   4.819  0.3723 -0.1599 -0.1372
 1447TIP3    H125832   6.348   2.022   4.834 -0.3056 -0.6992 -0.0724
 1447TIP3    H225833   6.425   1.950   4.725 -0.0474 -0.1978 -0.2229
 1448TIP3   OH225834   6.528   3.147   4.144 -0.1939 -0.3639  0.5418
 1448TIP3    H125835   6.478   3.167   4.065  0.3348 -3.0473 -0.5563
 1448TIP3    H225836   6.620   3.151   4.117  0.0360 -0.0659  1.3353
 1449TIP3   OH225837   5.828   0.147   4.710 -0.7334  0.5662  0.5621
 1449TIP3    H125838   5.831   0.052   4.705  1.5600  0.6096  0.5359
 1449TIP3    H225839   5.837   0.176   4.619 -1.6193  0.8201  0.5480
 1450TIP3   OH225840   4.426   0.018   1.768 -0.0798  0.2683  0.4692
 1450TIP3    H125841   4.350  -0.039   1.765 -0.1302  0.1440  2.7638
 1450TIP3    H225842   4.391   0.106   1.757 -0.1221 -0.0346 -2.0061
 1451TIP3   OH225843   0.854   4.564  12.371  0.7830  0.6145 -0.5504
 1451TIP3    H125844   0.883   4.528  12.287 -0.2415 -1.3619 -0.0793
 1451TIP3    H225845   0.788   4.629  12.347 -0.4391 -0.8675 -1.2118
 1452TIP3   OH225846   0.793   3.048   0.531  0.4697  0.3862 -0.6126
 1452TIP3    H125847   0.865   3.110   0.520  1.3416 -0.4215  0.4839
 1452TIP3    H225848   0.750   3.076   0.612 -0.1458  0.5453 -0.9869
 1453TIP3   OH225849   1.796   0.589  14.145 -0.2212  0.0548 -0.0706
 1453TIP3    H125850   1.856   0.664  14.143 -0.1989  0.0181 -0.6838
 1453TIP3    H225851   1.827   0.537  14.219  1.1891 -0.5239 -1.0427
 1454TIP3   OH225852   3.964   2.341   1.953 -0.1164 -0.1139  0.6888
 1454TIP3    H125853   3.982   2.255   1.916 -1.9022 -0.3006  0.1888
 1454TIP3    H225854   3.946   2.324   2.046  0.3146 -0.1801  0.7579
 1455TIP3   OH225855   1.188   0.516  15.325  0.0875 -0.5493  0.3321
 1455TIP3    H125856   1.176   0.499  15.231  2.2988 -1.7717  0.2150
 1455TIP3    H225857   1.166   0.433  15.367  1.8609 -0.9212  0.5976
 1456TIP3   OH225858   0.843   5.184  11.273 -0.1541 -0.6406  0.0328
 1456TIP3    H125859   0.793   5.176  11.354 -0.7995  0.8758 -0.1917
 1456TIP3    H225860   0.792   5.244  11.218  1.2193 -0.1189 -0.7272
 1457TIP3   OH225861   3.564   0.221  16.437 -0.0987 -0.2836 -0.1241
 1457TIP3    H125862   3.562   0.311  16.406 -0.1745 -0.0270  0.6092
 1457TIP3    H225863   3.496   0.218  16.505  0.6030 -0.6224  0.5711
 1458TIP3   OH225864   1.497   1.374   1.964  0.1357  0.5344  0.3925
 1458TIP3    H125865   1.488   1.428   2.042 -0.1771 -0.0666  0.7700
 1458TIP3    H225866   1.546   1.297   1.993 -0.7009 -0.0865  0.1923
 1459TIP3   OH225867   0.002   3.589   4.911  0.5940  0.2335  0.1415
 1459TIP3    H125868  -0.011   3.495   4.894  1.3784  0.1012  0.2493
 1459TIP3    H225869  -0.044   3.605   4.993 -0.2241  0.1187 -0.2869
 1460TIP3   OH225870   6.155   4.264   0.469 -0.4584 -0.3666 -0.4310
 1460TIP3    H125871   6.089   4.237   0.533  0.9203 -1.0629  0.7206
 1460TIP3    H225872   6.220   4.193   0.470 -0.0945 -0.0822 -2.1470
 1461TIP3   OH225873   5.421   0.478  16.408  0.2378  0.6523 -0.1164
 1461TIP3    H125874   5.513   0.498  16.423  0.3163 -0.6370  1.2398
 1461TIP3    H225875   5.422   0.398  16.355 -0.0973  0.2980  0.4087
 1462TIP3   OH225876   6.336   4.093  16.981 -0.3738 -0.1499 -0.0182
 1462TIP3    H125877   6.278   4.158  16.941  1.4133  1.1209 -0.5618
 1462TIP3    H225878   6.356   4.032  16.910  0.3080  0.3550 -0.2574
 1463TIP3   OH225879   6.025   1.078   2.896 -0.2508 -0.1848  0.0947
 1463TIP3    H125880   5.946   1.121   2.863 -0.1218  0.4923  0.6638
 1463TIP3    H225881   6.096   1.118   2.847  0.1190  2.1176  2.4036
 1464TIP3   OH225882   5.489   5.032  14.212 -0.4340 -0.0201 -0.6551
 1464TIP3    H125883   5.436   5.009  14.289 -0.9172 -0.8407 -1.2267
 1464TIP3    H225884   5.557   5.090  14.246 -2.5769  2.2633 -0.1493
 1465TIP3   OH225885   0.217   3.079   1.620 -0.1847 -0.2225  0.1138
 1465TIP3    H125886   0.199   2.994   1.580 -2.0646  0.5607 -0.7665
 1465TIP3    H225887   0.137   3.100   1.668  0.6259  0.6253  1.1207
 1466TIP3   OH225888   3.631   1.374   0.188 -0.3703 -0.2082  0.4651
 1466TIP3    H125889   3.678   1.294   0.165 -0.8540 -0.2851 -0.2590
 1466TIP3    H225890   3.594   1.357   0.275  0.8585 -0.1811  1.0012
 1467TIP3   OH225891   2.423   0.442   0.723 -1.0294  0.3151  0.2639
 1467TIP3    H125892   2.451   0.470   0.810  1.0367 -0.1811 -0.2169
 1467TIP3    H225893   2.504   0.440   0.671 -2.0939 -0.3271 -1.4093
 1468TIP3   OH225894   0.628   1.692   1.356 -0.4794 -0.1779 -0.8857
 1468TIP3    H125895   0.656   1.783   1.343  0.2229 -0.2885 -0.2019
 1468TIP3    H225896   0.565   1.697   1.428 -1.5156 -0.0480 -1.8060
 1469TIP3   OH225897   5.169   1.306  14.943 -0.4128 -0.1037  0.8946
 1469TIP3    H125898   5.074   1.302  14.937 -0.3016 -0.1224 -1.2180
 1469TIP3    H225899   5.187   1.320  15.036 -2.4169 -1.3733  1.4978
 1470TIP3   OH225900   0.726   1.584  14.459 -0.2436  0.0122  0.4144
 1470TIP3    H125901   0.673   1.640  14.403 -0.0822  0.8251  1.0715
 1470TIP3    H225902   0.810   1.577  14.414 -1.0857 -1.8057 -0.9606
 1471TIP3   OH225903   6.608   0.355  15.929  0.3733 -0.0639  0.0761
 1471TIP3    H125904   6.578   0.264  15.917  0.4051 -0.0198 -0.3389
 1471TIP3    H225905   6.674   0.349  15.999 -1.3524 -0.0061  1.7536
 1472TIP3   OH225906   5.465   5.500  16.817  0.2811 -0.3178  0.0097
 1472TIP3    H125907   5.492   5.546  16.738 -1.5389  0.6403 -0.0756
 1472TIP3    H225908   5.405   5.431  16.785 -0.9065  0.4296  0.5781
 1473TIP3   OH225909   5.107   4.733  14.484 -0.2714 -0.0095 -0.0406
 1473TIP3    H125910   5.112   4.638  14.500  0.6360  0.1276  0.5400
 1473TIP3    H225911   5.061   4.768  14.560  0.5321  0.1663  0.3678
 1474TIP3   OH225912   3.187   6.198   3.870  0.1520 -0.1265 -0.3901
 1474TIP3    H125913   3.195   6.111   3.832  2.1874 -0.2424  0.2138
 1474TIP3    H225914   3.181   6.257   3.795 -1.3395 -0.7717 -0.8025
 1475TIP3   OH225915   3.739   2.429  10.669 -0.0848  0.0870 -0.6265
 1475TIP3    H125916   3.675   2.393  10.608 -1.0057  0.1894  0.2516
 1475TIP3    H225917   3.822   2.388  10.645 -0.3307  0.4871 -2.2326
 1476TIP3   OH225918   1.174   6.669  11.678  0.3787 -0.3337  0.9823
 1476TIP3    H125919   1.107   6.700  11.739  0.4416 -0.0546  0.9122
 1476TIP3    H225920   1.180   6.575  11.695 -1.6951 -0.7912 -0.6197
 1477TIP3   OH225921   5.229   1.416  15.799  0.2464  0.2379 -0.2174
 1477TIP3    H125922   5.209   1.461  15.881 -0.0964 -0.9687  0.3659
 1477TIP3    H225923   5.243   1.487  15.736 -1.8469  1.1735  0.3121
 1478TIP3   OH225924   0.853   0.390   3.571  0.4162 -0.0759 -0.4049
 1478TIP3    H125925   0.758   0.405   3.576  0.3967 -0.2603 -0.2478
 1478TIP3    H225926   0.867   0.352   3.484  0.1827 -1.3208  0.1060
 1479TIP3   OH225927   0.190   4.921   2.087 -0.1856  0.2758 -0.3144
 1479TIP3    H125928   0.137   4.842   2.096 -0.1928  0.1685 -1.2461
 1479TIP3    H225929   0.165   4.976   2.161 -0.2972 -0.5326  0.2427
 1480TIP3   OH225930   1.905   0.551  13.101 -0.4295  0.0113  0.0567
 1480TIP3    H125931   1.901   0.640  13.064  0.2165  0.3778  0.8547
 1480TIP3    H225932   1.903   0.494  13.024  0.4820  0.7596 -0.5439
 1481TIP3   OH225933   0.076   3.559  14.386  0.2146 -0.0560 -0.1831
 1481TIP3    H125934   0.069   3.632  14.448 -1.8055  0.4550 -0.9824
 1481TIP3    H225935   0.152   3.582  14.332  1.0661  0.2473  1.1091
 1482TIP3   OH225936   4.586   3.967  15.877 -0.4074 -0.4748 -0.0738
 1482TIP3    H125937   4.653   3.902  15.900 -0.8334 -0.3903  1.4361
 1482TIP3    H225938   4.591   4.032  15.947 -2.4498 -0.7559  0.3555
 1483TIP3   OH225939   4.820   3.117  13.886  0.3099  0.3061  0.4107
 1483TIP3    H125940   4.726   3.120  13.867  0.0415 -1.0582  1.4789
 1483TIP3    H225941   4.829   3.158  13.972  0.9950  2.4684 -0.6359
 1484TIP3   OH225942   1.529   4.276   1.004  0.3821  0.2303  0.2366
 1484TIP3    H125943   1.522   4.307   0.913 -0.6664  0.8857  0.5288
 1484TIP3    H225944   1.478   4.195   1.006 -0.7308  0.9273  0.5484
 1485TIP3   OH225945   1.116   0.950   0.241 -0.5604  0.4213  0.2375
 1485TIP3    H125946   1.179   0.925   0.174 -1.7085 -1.0607 -0.3463
 1485TIP3    H225947   1.129   1.044   0.254  2.4127 -0.0451  0.8617
 1486TIP3   OH225948   0.386   4.803   0.354 -0.3233 -0.0225  0.1697
 1486TIP3    H125949   0.415   4.842   0.436 -2.2444 -0.7729  1.2340
 1486TIP3    H225950   0.345   4.720   0.379  3.0603 -2.5040 -1.9670
 1487TIP3   OH225951   0.494   1.847  13.628 -0.3742 -0.0587 -0.0853
 1487TIP3    H125952   0.507   1.752  13.627 -0.0120 -0.0098 -1.7586
 1487TIP3    H225953   0.417   1.861  13.573  0.4704  0.7265 -1.0731
 1488TIP3   OH225954   3.323   4.397  16.915 -0.5150  0.0505 -0.5730
 1488TIP3    H125955   3.406   4.402  16.962 -0.7342 -0.7016 -0.0888
 1488TIP3    H225956   3.312   4.304  16.896 -1.6333  0.0286  0.0973
 1489TIP3   OH225957   5.133   3.079  12.706 -0.0706  0.5015 -0.6409
 1489TIP3    H125958   5.063   3.093  12.642  0.5077 -0.8091 -1.5720
 1489TIP3    H225959   5.174   2.996  12.680 -0.5959 -0.6925  2.1310
 1490TIP3   OH225960   6.220   1.552   0.319 -0.4413 -0.8364 -0.4229
 1490TIP3    H125961   6.237   1.615   0.390 -0.7599 -2.1550  0.8449
 1490TIP3    H225962   6.269   1.586   0.245 -0.5315  0.8686  0.2691
 1491TIP3   OH225963   5.749   6.242   3.339 -0.1098 -0.1242  0.7165
 1491TIP3    H125964   5.833   6.272   3.374 -0.4311  1.2558  0.3498
 1491TIP3    H225965   5.684   6.297   3.384 -0.8217 -1.2496  1.0687
 1492TIP3   OH225966   0.648   1.074   1.546 -0.5351 -0.4070 -0.1109
 1492TIP3    H125967   0.629   1.131   1.621 -0.3624 -0.2101 -0.2150
 1492TIP3    H225968   0.616   0.988   1.572 -0.2682 -0.3875  0.2787
 1493TIP3   OH225969   2.519   6.398  11.885 -0.2913  0.4812 -0.4871
 1493TIP3    H125970   2.610   6.423  11.902  0.4698 -1.7022 -1.1740
 1493TIP3    H225971   2.511   6.403  11.790 -0.5487 -0.4414 -0.5162
 1494TIP3   OH225972   3.935   2.146  15.473 -0.3558  0.5107  0.1395
 1494TIP3    H125973   3.940   2.051  15.462 -0.2954  0.5669 -0.3454
 1494TIP3    H225974   3.877   2.175  15.403 -0.0661  0.8731  0.0448
 1495TIP3   OH225975   3.605   0.604  12.659 -0.3701 -0.1509  0.4483
 1495TIP3    H125976   3.589   0.515  12.689 -0.2809  0.5884  2.8011
 1495TIP3    H225977   3.526   0.653  12.684  0.5451  0.9218  1.3299
 1496TIP3   OH225978   3.177   5.313  12.444  0.3344 -0.6559 -0.3479
 1496TIP3    H125979   3.202   5.377  12.511 -0.6004 -1.0553  0.3969
 1496TIP3    H225980   3.226   5.234  12.467 -0.8909 -1.1607  0.5829
 1497TIP3   OH225981   4.824   3.697  13.543  0.0561  0.2381 -0.2171
 1497TIP3    H125982   4.869   3.732  13.619  1.8010 -3.4626  0.5931
 1497TIP3    H225983   4.867   3.737  13.468  0.4055  1.5512  0.6713
 1498TIP3   OH225984   6.317   4.424   0.790 -0.4349 -0.2699 -0.2891
 1498TIP3    H125985   6.289   4.512   0.767  1.1309  0.7155  1.4474
 1498TIP3    H225986   6.365   4.393   0.714  0.5789  1.0985 -0.2188
 1499TIP3   OH225987   0.332   4.605  11.341  0.7917 -0.5344 -0.7434
 1499TIP3    H125988   0.396   4.599  11.412  1.3344  1.2321 -1.0610
 1499TIP3    H225989   0.313   4.699  11.334 -1.7573 -1.0105 -0.7203
 1500TIP3   OH225990   2.727   6.114  12.303 -0.3571  0.4571 -0.2589
 1500TIP3    H125991   2.642   6.076  12.281  0.1985 -0.3279 -1.0886
 1500TIP3    H225992   2.729   6.197  12.257 -0.7022  0.5124 -0.1776
 1501TIP3   OH225993   6.534   0.257  14.957  0.5485  0.0951 -0.4856
 1501TIP3    H125994   6.573   0.216  14.879  0.0332  0.6949 -1.0670
 1501TIP3    H225995   6.440   0.242  14.946  0.5043 -0.1380  0.2078
 1502TIP3   OH225996   2.845   5.585   4.164  0.8209 -0.9785  0.5770
 1502TIP3    H125997   2.938   5.571   4.182  1.7577  1.2276 -2.2976
 1502TIP3    H225998   2.831   5.679   4.177 -0.9277 -1.2119  0.5609
 1503TIP3   OH225999   6.197   1.509  13.514 -0.7159 -0.0272 -0.1928
 1503TIP3    H126000   6.258   1.460  13.458 -0.0474 -0.6943  1.1056
 1503TIP3    H226001   6.127   1.446  13.533 -1.1567  0.3321 -0.6115
 1504TIP3   OH226002   3.435   3.422   0.090 -0.5966  0.0807 -0.3357
 1504TIP3    H126003   3.459   3.461   0.007 -0.3268  2.5650  0.8801
 1504TIP3    H226004   3.339   3.427   0.094 -0.5466  0.8077 -0.0869
 1505TIP3   OH226005   3.299   1.084  15.479 -0.1943 -0.6535  0.1660
 1505TIP3    H126006   3.374   1.025  15.472  0.0273 -0.4799  1.0043
 1505TIP3    H226007   3.238   1.038  15.536  0.3812  0.3263  1.6046
 1506TIP3   OH226008   1.871   3.458  11.872  0.7654 -0.0776 -0.0407
 1506TIP3    H126009   1.783   3.481  11.843  1.1501  0.2522 -0.9890
 1506TIP3    H226010   1.889   3.517  11.945  0.9597  1.2691 -1.1426
 1507TIP3   OH226011   2.326   1.471  15.530 -0.7218  0.7851  0.0934
 1507TIP3    H126012   2.368   1.556  15.519  0.3478  0.4472  1.4158
 1507TIP3    H226013   2.348   1.423  15.450 -1.3055  1.7237 -0.6461
 1508TIP3   OH226014   4.816   3.973   3.689  0.4262  0.2947 -0.7450
 1508TIP3    H126015   4.894   4.027   3.704  0.8310  0.1019 -2.0363
 1508TIP3    H226016   4.850   3.885   3.675 -0.2135 -0.2556  1.0355
 1509TIP3   OH226017   0.128   6.025  10.949 -0.2367 -0.4468  0.4745
 1509TIP3    H126018   0.058   6.028  10.883 -3.5754  0.1528  3.8251
 1509TIP3    H226019   0.142   6.116  10.973 -0.1430 -0.7640  1.6465
 1510TIP3   OH226020   4.735   2.045  12.360  0.3610  0.0567  0.1711
 1510TIP3    H126021   4.672   2.080  12.298  0.6146 -0.0571 -0.1565
 1510TIP3    H226022   4.818   2.086  12.335  0.2413  0.9099  1.1789
 1511TIP3   OH226023   3.997   3.468  10.918  0.4170  0.0551 -0.3016
 1511TIP3    H126024   3.940   3.545  10.931 -0.7138 -0.4154 -2.2321
 1511TIP3    H226025   4.081   3.505  10.889  0.2951  0.6347  0.0746
 1512TIP3   OH226026   4.342   2.027  14.598  0.1480  0.3507  0.1020
 1512TIP3    H126027   4.424   1.998  14.560 -0.1032 -0.1986 -0.0273
 1512TIP3    H226028   4.367   2.081  14.673  0.6202 -0.2804  0.4008
 1513TIP3   OH226029   3.329   5.167  14.618  0.5362 -0.3101 -0.2534
 1513TIP3    H126030   3.247   5.201  14.653  1.0107  0.4091  0.1706
 1513TIP3    H226031   3.393   5.236  14.636  1.5267 -1.4442  0.7143
 1514TIP3   OH226032   1.905   5.728   3.144  0.1759 -0.4876 -0.2897
 1514TIP3    H126033   1.905   5.634   3.159 -1.4945 -0.5383 -0.5412
 1514TIP3    H226034   1.975   5.742   3.079 -0.6315 -1.7521 -1.4606
 1515TIP3   OH226035   5.406   3.685  11.842 -0.3395 -0.2772  0.0617
 1515TIP3    H126036   5.369   3.759  11.889  1.6559  0.5489  0.3610
 1515TIP3    H226037   5.466   3.724  11.778  1.8406 -1.6718  1.2047
 1516TIP3   OH226038   0.742   4.480  14.287  0.1084 -0.1735 -0.2189
 1516TIP3    H126039   0.752   4.465  14.381  3.7050 -2.5741 -0.8699
 1516TIP3    H226040   0.662   4.435  14.263  0.1731 -1.1543  1.3789
 1517TIP3   OH226041   0.805   2.979   5.576  0.3855  0.0140 -0.7158
 1517TIP3    H126042   0.784   3.058   5.526  1.2834 -0.0531 -1.1991
 1517TIP3    H226043   0.776   2.999   5.665 -0.2817  0.5173 -1.0460
 1518TIP3   OH226044   3.267   4.330  16.414  0.1089  0.0727  0.6448
 1518TIP3    H126045   3.323   4.330  16.491  1.1204 -1.3966 -0.0551
 1518TIP3    H226046   3.181   4.302  16.446  0.8485 -1.8091  1.0499
 1519TIP3   OH226047   0.952   3.346   1.342 -0.3044 -0.3912 -0.3267
 1519TIP3    H126048   0.991   3.325   1.427  1.7561 -3.4719 -1.9071
 1519TIP3    H226049   0.866   3.304   1.344  0.3767 -1.8077 -0.3206
 1520TIP3   OH226050   0.203   3.935   2.231  0.0411  0.2466 -0.6795
 1520TIP3    H126051   0.138   3.949   2.300  0.8412 -1.1577  0.3795
 1520TIP3    H226052   0.286   3.957   2.272  0.5107 -0.4866 -1.2245
 1521TIP3   OH226053   6.720   3.894   1.204  0.1651  0.1156 -0.2127
 1521TIP3    H126054   6.699   3.891   1.297  1.9504  1.2165  0.2622
 1521TIP3    H226055   6.669   3.823   1.165 -1.0024 -0.0274  1.5126
 1522TIP3   OH226056   4.965   3.395   3.033  0.5656 -0.1165  0.1957
 1522TIP3    H126057   4.908   3.378   2.959  1.0898  1.2639 -0.5447
 1522TIP3    H226058   5.049   3.420   2.994  1.3498 -1.0272  1.2640
 1523TIP3   OH226059   5.363   0.200   5.337 -0.9539  0.3854 -0.0999
 1523TIP3    H126060   5.279   0.192   5.291 -0.9561  0.3987 -0.0976
 1523TIP3    H226061   5.343   0.256   5.412  0.0175  4.0834 -2.4576
 1524TIP3   OH226062   5.858   6.468  16.123  0.3170 -0.2079  0.1212
 1524TIP3    H126063   5.877   6.529  16.194  0.5405  1.1668 -1.0914
 1524TIP3    H226064   5.766   6.445  16.135 -0.2600  1.7400 -0.4102
 1525TIP3   OH226065   2.233   1.934  15.516 -0.0941 -0.3196  0.4664
 1525TIP3    H126066   2.194   1.850  15.489  1.0443 -1.1418  1.3056
 1525TIP3    H226067   2.317   1.909  15.555  0.0943  1.1970  1.0414
 1526TIP3   OH226068   1.761   5.060   0.306  0.0490 -0.7729 -0.0351
 1526TIP3    H126069   1.763   5.045   0.400  0.3487 -0.8006 -0.0440
 1526TIP3    H226070   1.825   4.998   0.271 -1.4888 -2.1624 -0.4556
 1527TIP3   OH226071   2.965   0.227   3.573 -0.2789 -0.0347 -0.6332
 1527TIP3    H126072   2.973   0.206   3.480 -1.8596 -1.7151 -0.4085
 1527TIP3    H226073   2.898   0.296   3.575 -0.1669  0.0780 -0.7622
 1528TIP3   OH226074   4.741   2.847  15.072  0.0186  0.4964 -0.4991
 1528TIP3    H126075   4.829   2.873  15.098  0.9184 -1.0235 -1.9444
 1528TIP3    H226076   4.746   2.835  14.977 -1.3447 -1.0729 -0.3973
 1529TIP3   OH226077   5.486   6.231  16.851 -0.5159 -0.4103  0.3908
 1529TIP3    H126078   5.548   6.303  16.861 -2.2507  1.1437  0.2233
 1529TIP3    H226079   5.477   6.220  16.756 -0.8884 -0.2661  0.4059
 1530TIP3   OH226080   5.304   4.910   2.950 -0.1072 -0.4984  0.0442
 1530TIP3    H126081   5.259   4.838   2.907  0.7653  0.5288 -2.7255
 1530TIP3    H226082   5.259   4.989   2.917  0.1983  0.3084  1.5136
 1531TIP3   OH226083   4.503   1.470   4.961  0.0838 -0.4746  0.0519
 1531TIP3    H126084   4.458   1.517   4.891 -0.3160 -0.2449  0.4613
 1531TIP3    H226085   4.435   1.416   5.002 -0.2487  1.2074  1.8242
 1532TIP3   OH226086   2.798   3.565   0.843  0.0641 -0.2069  0.5952
 1532TIP3    H126087   2.807   3.652   0.883  1.6321 -0.8289  1.6155
 1532TIP3    H226088   2.770   3.583   0.753 -2.2532  1.2533  1.5628
 1533TIP3   OH226089   4.736   4.416  11.111  0.2648  0.2704  0.1868
 1533TIP3    H126090   4.712   4.407  11.018  1.4059 -0.9407 -0.0087
 1533TIP3    H226091   4.673   4.361  11.157  1.6117 -1.6768 -0.1877
 1534TIP3   OH226092   3.051   6.285  12.351  0.3476 -0.0744 -0.8303
 1534TIP3    H126093   3.048   6.203  12.401 -0.5511 -0.3364 -1.3092
 1534TIP3    H226094   3.144   6.297  12.330  0.3530 -1.5448 -1.7180
 1535TIP3   OH226095   5.209   2.282   3.518 -0.1226  0.0965  0.2622
 1535TIP3    H126096   5.258   2.362   3.535  2.0464 -1.0362 -0.4819
 1535TIP3    H226097   5.239   2.220   3.585  0.9738 -1.2167 -1.3868
 1536TIP3   OH226098   2.191   3.908   3.563  0.8386 -0.5988  0.5150
 1536TIP3    H126099   2.168   3.826   3.520 -1.9120 -0.8671  2.3848
 1536TIP3    H226100   2.149   3.976   3.511 -0.7065 -0.7571  1.5350
 1537TIP3   OH226101   1.493   5.529   1.716 -0.2485  0.0292  0.6231
 1537TIP3    H126102   1.411   5.560   1.678 -0.0739 -0.7012 -0.3630
 1537TIP3    H226103   1.493   5.435   1.702  1.6663  0.2606 -1.2244
 1538TIP3   OH226104   6.554   4.830  15.508 -0.1371  0.1061 -0.4346
 1538TIP3    H126105   6.601   4.776  15.572  0.1640  0.4868 -0.3350
 1538TIP3    H226106   6.506   4.767  15.455 -1.9932 -0.1083  1.4278
 1539TIP3   OH226107   3.802   0.278   4.622 -0.3801 -0.5614 -0.4135
 1539TIP3    H126108   3.714   0.279   4.661  0.7630 -0.7954  2.2513
 1539TIP3    H226109   3.817   0.186   4.600 -0.9298 -0.4636 -1.2430
 1540TIP3   OH226110   4.452   3.618   1.713 -0.4446 -0.0158  0.0585
 1540TIP3    H126111   4.420   3.649   1.798 -1.7469  0.0063 -0.4248
 1540TIP3    H226112   4.476   3.698   1.666  0.3616 -0.0341  0.4395
 1541TIP3   OH226113   2.599   4.085  12.653 -0.0412  0.0329 -0.1173
 1541TIP3    H126114   2.650   4.111  12.576  2.5963 -0.3309  1.4464
 1541TIP3    H226115   2.577   4.168  12.695  0.9134  0.1095  0.2305
 1542TIP3   OH226116   1.147   3.633  14.546  0.4011 -0.2764 -0.1262
 1542TIP3    H126117   1.173   3.708  14.599  1.9672 -0.6236 -0.3685
 1542TIP3    H226118   1.176   3.655  14.458  1.4762 -1.4388 -0.0767
 1543TIP3   OH226119   2.392   1.888   3.803 -0.0020 -0.6382 -0.1509
 1543TIP3    H126120   2.484   1.864   3.810 -0.0407 -0.8108 -0.2392
 1543TIP3    H226121   2.368   1.866   3.713 -0.4429 -1.6648  0.2133
 1544TIP3   OH226122   3.012   0.578  17.186 -0.6104  0.3467 -0.1495
 1544TIP3    H126123   3.064   0.612  17.259 -2.3411 -1.2147  1.8904
 1544TIP3    H226124   3.055   0.495  17.163  0.5212  1.3122 -1.6156
 1545TIP3   OH226125   0.774   1.568  12.127  0.0394 -0.1114 -0.3772
 1545TIP3    H126126   0.741   1.493  12.078 -2.1298  0.1585  0.6301
 1545TIP3    H226127   0.869   1.566  12.112  0.1704 -3.5808  0.3736
 1546TIP3   OH226128   3.288   4.900  14.542  0.5409  0.3456  0.1099
 1546TIP3    H126129   3.297   4.981  14.592  1.7023  0.7204 -0.6991
 1546TIP3    H226130   3.296   4.927  14.451 -0.5190 -0.4866 -0.2451
 1547TIP3   OH226131   0.790   6.653  12.212  0.4365 -0.3989 -0.4335
 1547TIP3    H126132   0.868   6.679  12.262 -0.8347  0.3800  1.2218
 1547TIP3    H226133   0.779   6.561  12.233  0.7100 -0.4229 -0.3873
 1548TIP3   OH226134   6.519   4.478   1.511  0.8738 -0.0330 -0.0948
 1548TIP3    H126135   6.583   4.464   1.581  0.1836  0.8788  0.7091
 1548TIP3    H226136   6.572   4.508   1.437  1.7280 -1.8673 -0.2744
 1549TIP3   OH226137   6.054   2.498   5.266  0.0055  0.4726  0.2036
 1549TIP3    H126138   5.972   2.468   5.305 -0.1138 -0.6299 -0.8462
 1549TIP3    H226139   6.028   2.557   5.196  0.0975  0.1100 -0.1409
 1550TIP3   OH226140   4.030   3.298  14.456  0.3249 -0.3116  0.5195
 1550TIP3    H126141   3.959   3.319  14.517  1.0890  0.0894  1.2826
 1550TIP3    H226142   4.105   3.281  14.512  1.1980  0.6766 -0.3337
 1551TIP3   OH226143   5.209   1.259   2.731 -0.4281 -0.0706  0.6131
 1551TIP3    H126144   5.147   1.288   2.664  2.0964  2.5170 -0.7330
 1551TIP3    H226145   5.162   1.270   2.814 -2.5894 -0.5235 -0.5244
 1552TIP3   OH226146   0.865   2.045  14.012  0.1238  0.8311  0.1626
 1552TIP3    H126147   0.800   2.038  14.082  1.2658  0.6363  1.2401
 1552TIP3    H226148   0.842   1.975  13.950 -0.4875  0.5429  0.7109
 1553TIP3   OH226149   4.503   1.677  16.137 -0.3133 -0.7859  0.2755
 1553TIP3    H126150   4.582   1.709  16.180 -0.9463 -1.2838  1.8363
 1553TIP3    H226151   4.524   1.681  16.043  1.0485  0.3879  0.6105
 1554TIP3   OH226152   3.157   1.726  11.630 -0.3103  0.0795  0.2069
 1554TIP3    H126153   3.089   1.659  11.630 -1.6695  1.4390  0.6623
 1554TIP3    H226154   3.205   1.711  11.548 -1.1037 -0.9331 -0.0848
 1555TIP3   OH226155   3.772   4.355   2.693  0.0550 -0.3008  0.4729
 1555TIP3    H126156   3.722   4.285   2.651  0.5704 -1.2177  1.3404
 1555TIP3    H226157   3.777   4.328   2.785 -0.0392  1.0568  0.8845
 1556TIP3   OH226158   1.508   5.354  14.530 -0.4165 -0.1032  0.3963
 1556TIP3    H126159   1.416   5.381  14.532 -0.6901 -0.9564 -0.0769
 1556TIP3    H226160   1.521   5.321  14.441 -0.3453 -2.2692  1.1642
 1557TIP3   OH226161   2.655   2.646   4.995  0.2805 -0.2623  0.2307
 1557TIP3    H126162   2.747   2.668   5.011  0.4571  0.0168 -1.0946
 1557TIP3    H226163   2.658   2.587   4.919 -0.7080  0.6578 -0.5401
 1558TIP3   OH226164   0.016   0.313  11.950  0.3612  0.2778 -0.5954
 1558TIP3    H126165   0.005   0.384  11.886 -0.1092  1.1299  0.4139
 1558TIP3    H226166  -0.071   0.276  11.959  0.1980  0.8795  0.3679
 1559TIP3   OH226167   4.943   6.118  11.612  0.3200 -0.0504  0.7021
 1559TIP3    H126168   4.898   6.072  11.541  0.4921 -0.5202  0.8985
 1559TIP3    H226169   4.941   6.057  11.686  0.2420  0.3895  1.0715
 1560TIP3   OH226170   5.382   4.425  17.229 -0.1592  0.0178  0.2731
 1560TIP3    H126171   5.473   4.450  17.212  0.1652 -0.9790  0.5203
 1560TIP3    H226172   5.335   4.454  17.150  1.1139 -3.3354 -1.8391
 1561TIP3   OH226173   0.485   2.735  12.617 -0.0379 -0.0819  0.0282
 1561TIP3    H126174   0.457   2.823  12.645 -1.3124 -0.5415  0.2267
 1561TIP3    H226175   0.571   2.749  12.577 -0.9087  1.4793 -1.3431
 1562TIP3   OH226176   6.775   2.033  12.283 -0.3606  0.2068 -0.0419
 1562TIP3    H126177   6.848   1.977  12.308  0.0572  1.1799  0.9909
 1562TIP3    H226178   6.813   2.098  12.224 -0.6289  0.0127 -0.4282
 1563TIP3   OH226179   2.865   5.903   2.455 -0.2641 -0.1772 -0.0338
 1563TIP3    H126180   2.937   5.843   2.477 -1.1388 -1.8774 -1.6432
 1563TIP3    H226181   2.809   5.903   2.532  0.8119  0.1770  0.7523
 1564TIP3   OH226182   2.676   5.799  14.651 -0.1303 -0.2593 -0.3487
 1564TIP3    H126183   2.684   5.783  14.557  1.8736 -1.0869 -0.0477
 1564TIP3    H226184   2.733   5.874  14.667 -1.2283  0.4985  0.0568
 1565TIP3   OH226185   2.791   4.499  12.392 -0.0605 -0.0427  0.5147
 1565TIP3    H126186   2.715   4.547  12.425 -0.2448 -0.4527  0.6940
 1565TIP3    H226187   2.855   4.504  12.463  0.5731  1.4166 -0.1446
 1566TIP3   OH226188   4.107   2.992  11.204  0.0380 -0.4233 -0.2941
 1566TIP3    H126189   4.138   2.952  11.285  3.5778 -0.5403 -1.6058
 1566TIP3    H226190   4.117   3.086  11.218  1.1825 -0.4663 -0.7609
 1567TIP3   OH226191   0.362   1.808   1.048  0.3136 -0.2941 -0.5197
 1567TIP3    H126192   0.383   1.893   1.086 -2.8666  0.1819  0.3259
 1567TIP3    H226193   0.355   1.749   1.123 -1.2968 -0.4229 -0.7639
 1568TIP3   OH226194   0.329   4.904  11.436  0.2600  0.1799  0.7578
 1568TIP3    H126195   0.411   4.855  11.433 -0.2839 -0.6927 -0.2638
 1568TIP3    H226196   0.351   4.990  11.400  0.7883  0.0233  0.7006
 1569TIP3   OH226197   0.629   0.181  13.891  0.3117  0.5354  0.3219
 1569TIP3    H126198   0.582   0.265  13.888 -0.9865 -0.2196 -1.7284
 1569TIP3    H226199   0.705   0.196  13.835 -0.8141 -0.1331 -1.4409
 1570TIP3   OH226200   3.014   0.953   1.859 -0.5812  0.1563  0.7090
 1570TIP3    H126201   2.992   0.970   1.768 -1.0479  0.9664  0.9699
 1570TIP3    H226202   2.939   0.986   1.909 -0.3655 -0.3534  1.3752
 1571TIP3   OH226203   4.944   0.519   1.928  0.3629  0.1548  0.3912
 1571TIP3    H126204   4.974   0.440   1.884 -0.8076  0.4332 -0.9547
 1571TIP3    H226205   5.020   0.576   1.931  0.3602  0.3024 -1.6817
 1572TIP3   OH226206   0.112   0.602   3.383 -0.2529  0.3861  0.7150
 1572TIP3    H126207   0.133   0.694   3.371 -1.1037  0.3434 -1.2464
 1572TIP3    H226208   0.152   0.557   3.309 -2.7693 -0.3409 -0.2746
 1573TIP3   OH226209   5.591   0.267   3.547  0.3107  0.1273 -0.3832
 1573TIP3    H126210   5.646   0.307   3.614  1.4343  0.2562 -1.3753
 1573TIP3    H226211   5.607   0.173   3.554 -1.6694 -0.1074  1.3635
 1574TIP3   OH226212   5.507   0.091  11.355  0.0711  0.2325 -0.5181
 1574TIP3    H126213   5.531   0.007  11.394  0.1020  0.0074 -1.0156
 1574TIP3    H226214   5.556   0.156  11.405 -0.7156  0.0436  0.5076
 1575TIP3   OH226215   2.023   2.114   4.230 -0.4999  0.9834  0.2121
 1575TIP3    H126216   2.003   2.023   4.253  0.9928  0.3613 -0.8679
 1575TIP3    H226217   1.968   2.132   4.154 -1.5937  1.3472  1.0781
 1576TIP3   OH226218   2.274   6.102  14.774  0.3127 -0.0919 -0.1275
 1576TIP3    H126219   2.182   6.128  14.768  0.0456 -0.3242  2.2588
 1576TIP3    H226220   2.274   6.010  14.747 -0.8089 -1.1624  3.1487
 1577TIP3   OH226221   3.966   0.257  16.771  0.4052 -0.3988  0.2196
 1577TIP3    H126222   3.902   0.241  16.701 -0.5377  0.1115  0.9486
 1577TIP3    H226223   4.000   0.170  16.793 -1.1559 -0.8809  0.8475
 1578TIP3   OH226224   6.106   2.410   4.377 -0.7211  0.6853 -0.1268
 1578TIP3    H126225   6.120   2.355   4.300 -0.6157  0.2525  0.2027
 1578TIP3    H226226   6.190   2.410   4.423 -0.7037  1.1629 -0.1500
 1579TIP3   OH226227   4.503   3.769   3.834 -0.3660  0.1183 -0.5680
 1579TIP3    H126228   4.461   3.701   3.781 -0.0203  1.6480 -2.8720
 1579TIP3    H226229   4.596   3.759   3.815 -0.1345 -0.0459  0.6494
 1580TIP3   OH226230   4.459   4.755  13.253 -0.0515  0.6332 -0.0303
 1580TIP3    H126231   4.420   4.671  13.276 -0.3322  0.1979 -1.9885
 1580TIP3    H226232   4.426   4.773  13.165  1.5384  1.8655 -0.3911
 1581TIP3   OH226233   5.272   0.935  14.564  0.2111  0.5143  0.1992
 1581TIP3    H126234   5.215   0.903  14.495  1.6687  0.1179 -0.8365
 1581TIP3    H226235   5.220   1.003  14.608 -0.7135  0.8113 -1.2986
 1582TIP3   OH226236   5.136   1.716  13.453  0.3093  0.2002  0.9039
 1582TIP3    H126237   5.118   1.644  13.392 -0.4547 -0.6669  2.1451
 1582TIP3    H226238   5.079   1.787  13.423 -1.3548 -0.8013  1.6396
 1583TIP3   OH226239   6.552   5.648  13.259 -0.3963  0.4306  0.3372
 1583TIP3    H126240   6.560   5.626  13.166  1.5014  2.5939 -0.0578
 1583TIP3    H226241   6.491   5.722  13.261 -2.0405 -0.9044  1.0554
 1584TIP3   OH226242   6.271   0.347   1.245 -0.0250 -0.1683 -0.3200
 1584TIP3    H126243   6.240   0.341   1.154 -2.8084  3.8951  0.2060
 1584TIP3    H226244   6.199   0.310   1.296  0.1125  0.5272  0.3820
 1585TIP3   OH226245   3.803   1.544  14.796 -0.8893 -0.1036 -0.1610
 1585TIP3    H126246   3.840   1.628  14.770  2.7447 -1.9250 -1.1559
 1585TIP3    H226247   3.858   1.515  14.870  0.0089 -3.0369 -1.8870
 1586TIP3   OH226248   2.910   3.372  16.331 -0.2902  0.0705  0.1898
 1586TIP3    H126249   2.943   3.440  16.271 -0.9848 -0.0725 -0.3627
 1586TIP3    H226250   2.969   3.375  16.406  0.9155 -0.1136 -0.7443
 1587TIP3   OH226251   5.400   6.460  12.277  0.5704  0.1021 -0.5349
 1587TIP3    H126252   5.343   6.437  12.204  1.0601 -1.3622 -0.4839
 1587TIP3    H226253   5.487   6.430  12.250  0.5139 -1.7692  1.2117
 1588TIP3   OH226254   4.872   1.331   1.918 -0.6892  0.0414  0.1080
 1588TIP3    H126255   4.850   1.404   1.860  0.0383  0.4320  0.3207
 1588TIP3    H226256   4.793   1.277   1.919 -1.5596  1.3154  0.7161
 1589TIP3   OH226257   1.175   3.800   4.166  0.4157  0.3875 -0.2551
 1589TIP3    H126258   1.100   3.747   4.141 -0.1955  1.0306  0.2048
 1589TIP3    H226259   1.232   3.798   4.089  0.9376 -1.8637  0.1614
 1590TIP3   OH226260   2.872   5.982  13.622  0.0183 -0.5963  0.6701
 1590TIP3    H126261   2.938   5.981  13.553 -0.3167  2.8519  0.1928
 1590TIP3    H226262   2.788   5.975  13.576 -0.1054 -0.5855  0.8918
 1591TIP3   OH226263   3.707   3.154  13.239 -0.5082 -0.2964 -0.4881
 1591TIP3    H126264   3.801   3.172  13.245 -0.5628 -0.4390  1.0458
 1591TIP3    H226265   3.695   3.076  13.294 -1.4810 -0.4379 -0.9035
 1592TIP3   OH226266   4.760   0.525   4.861  0.6319  0.4248 -0.1605
 1592TIP3    H126267   4.699   0.553   4.793  1.9843  2.2640 -0.6502
 1592TIP3    H226268   4.826   0.594   4.864  2.4157 -1.2732  0.7097
 1593TIP3   OH226269   4.988   6.470   1.484 -0.1613 -0.2537 -0.2713
 1593TIP3    H126270   4.929   6.508   1.548  0.7911  2.8263 -1.1611
 1593TIP3    H226271   5.075   6.476   1.523  0.1011 -0.7458 -0.7630
 1594TIP3   OH226272   0.998   2.679  11.567 -0.0335  0.2575 -0.2430
 1594TIP3    H126273   1.022   2.589  11.548  0.6687 -0.3015  3.0259
 1594TIP3    H226274   0.919   2.673  11.620  0.5032  1.5079  0.7352
 1595TIP3   OH226275   4.947   4.850  16.955 -0.4506 -0.3908 -0.4332
 1595TIP3    H126276   4.903   4.866  16.871  1.0187  1.8521 -0.8239
 1595TIP3    H226277   5.040   4.846  16.932  0.0784  1.5455  1.2435
 1596TIP3   OH226278   2.558   2.516  11.940  0.2314 -0.1299  0.5038
 1596TIP3    H126279   2.564   2.422  11.924 -1.5676 -0.1355 -0.1884
 1596TIP3    H226280   2.498   2.549  11.873  0.8132  1.5208  0.7489
 1597TIP3   OH226281   0.311   0.587   3.611  0.3548  0.8791  0.2235
 1597TIP3    H126282   0.296   0.521   3.679  0.2398  0.6412 -0.0310
 1597TIP3    H226283   0.224   0.606   3.577  0.3859  1.1844  0.3161
 1598TIP3   OH226284   0.803   2.740  15.764 -0.2362 -0.6829 -0.1111
 1598TIP3    H126285   0.740   2.767  15.698 -0.5064 -0.0273  0.4051
 1598TIP3    H226286   0.871   2.693  15.715 -1.3055 -1.7278 -0.6179
 1599TIP3   OH226287   3.624   5.813   3.149  0.7364  0.4248 -0.0688
 1599TIP3    H126288   3.705   5.785   3.107  1.1262  2.5260 -0.8062
 1599TIP3    H226289   3.645   5.899   3.186 -0.3737 -0.2292  2.1604
 1600TIP3   OH226290   1.960   1.726   5.968  0.0136 -0.1100 -0.3790
 1600TIP3    H126291   1.959   1.737   6.063  0.5238  0.9937 -0.4936
 1600TIP3    H226292   2.004   1.641   5.954  0.7152  0.1307  0.3384
 1601TIP3   OH226293   6.475   1.628   3.564  0.0743  0.0642  0.7373
 1601TIP3    H126294   6.398   1.580   3.532  0.7240  0.2208 -1.1762
 1601TIP3    H226295   6.547   1.565   3.556  0.4545  0.4848  0.8225
 1602TIP3   OH226296   2.779   1.038   5.020 -0.9299 -0.1502 -0.2149
 1602TIP3    H126297   2.826   0.994   4.949 -0.7047  1.2292 -0.9300
 1602TIP3    H226298   2.688   1.009   5.011 -0.7616 -0.5682 -0.5902
 1603TIP3   OH226299   3.964   0.799   4.473  0.3223 -0.6562 -0.2933
 1603TIP3    H126300   3.969   0.716   4.520  0.2941 -0.2342  0.4623
 1603TIP3    H226301   4.041   0.799   4.416  0.3689 -1.1632 -0.2283
 1604TIP3   OH226302   2.112   2.668   5.576  0.0218 -0.4695 -0.3627
 1604TIP3    H126303   2.166   2.600   5.616  0.4668 -0.3680 -0.7753
 1604TIP3    H226304   2.161   2.749   5.590 -0.2396 -0.3126 -0.3511
 1605TIP3   OH226305   0.156   4.077  16.136 -0.4802 -0.0199  0.2321
 1605TIP3    H126306   0.228   4.059  16.197 -0.8538 -1.5088  0.2433
 1605TIP3    H226307   0.140   4.171  16.146  2.0175  0.5047 -0.3872
 1606TIP3   OH226308   0.043   5.995  16.361 -0.1874 -0.5425  0.3425
 1606TIP3    H126309   0.107   5.969  16.294 -1.0354  0.0592 -0.6979
 1606TIP3    H226310  -0.028   5.932  16.352  0.3145 -1.3310  1.6363
 1607TIP3   OH226311   6.767   2.965   0.130  0.0049  0.0988  0.0735
 1607TIP3    H126312   6.686   3.012   0.112  0.5691  0.9569 -0.3182
 1607TIP3    H226313   6.836   3.028   0.106  0.7782 -0.4045  0.9348
 1608TIP3   OH226314   0.976   5.118   0.447 -0.1247  0.2368  0.5386
 1608TIP3    H126315   0.888   5.139   0.418 -0.7635 -1.3023  1.2766
 1608TIP3    H226316   0.965   5.085   0.536  1.3528  1.2333  1.1184
 1609TIP3   OH226317   0.267   3.018  16.102  0.2568  0.1960  0.3779
 1609TIP3    H126318   0.313   2.962  16.164  3.7821  0.5412 -1.7879
 1609TIP3    H226319   0.317   3.012  16.021 -2.3879  2.2314 -1.5412
 1610TIP3   OH226320   1.922   1.257  13.912 -0.0892 -0.5158 -0.0563
 1610TIP3    H126321   1.869   1.267  13.990 -0.5782 -3.2977  0.0445
 1610TIP3    H226322   1.890   1.324  13.852 -0.9013  0.4967  1.4904
 1611TIP3   OH226323   2.444   3.210  16.328 -0.0117  0.4557 -0.1197
 1611TIP3    H126324   2.380   3.233  16.396 -1.4742 -1.4265 -0.8104
 1611TIP3    H226325   2.390   3.194  16.250  1.4335  0.1733 -1.0706
 1612TIP3   OH226326   0.092   6.154   6.117 -0.0069  0.6497  0.0683
 1612TIP3    H126327   0.117   6.067   6.148 -2.9942  0.0473  0.9760
 1612TIP3    H226328   0.174   6.197   6.095  1.7689 -1.1755  2.9042
 1613TIP3   OH226329   2.276   0.713  14.268  0.0981 -0.7251  0.1466
 1613TIP3    H126330   2.325   0.689  14.189 -0.5606  0.7878 -0.7424
 1613TIP3    H226331   2.244   0.801  14.251  1.0921  0.1913  2.6667
 1614TIP3   OH226332   0.780   4.573  12.818 -0.7251  0.3039  0.3224
 1614TIP3    H126333   0.844   4.612  12.877  0.2365  0.3763 -0.7548
 1614TIP3    H226334   0.716   4.531  12.876 -0.1290  0.8984  1.4162
 1615TIP3   OH226335   0.134   5.271  16.258 -0.0766 -0.0219  0.0495
 1615TIP3    H126336   0.096   5.315  16.183 -0.7407  0.7935  0.8531
 1615TIP3    H226337   0.219   5.239  16.227 -0.8220 -0.6461 -1.3481
 1616TIP3   OH226338   5.032   0.766  16.451  0.2451  0.4665 -0.7801
 1616TIP3    H126339   5.106   0.708  16.432  0.6790  0.6973  0.2170
 1616TIP3    H226340   4.979   0.717  16.513 -0.3990  0.3425 -1.4223
 1617TIP3   OH226341   1.919   3.262   4.580  0.3271  0.0016  0.7084
 1617TIP3    H126342   1.908   3.324   4.653  1.6677  1.8071 -0.5949
 1617TIP3    H226343   2.006   3.280   4.547 -0.0758 -1.1843 -1.0228
 1618TIP3   OH226344   1.029   4.940   3.324 -0.3631 -0.1334  0.3015
 1618TIP3    H126345   1.063   4.851   3.330  0.6196  0.1592 -0.8361
 1618TIP3    H226346   1.038   4.975   3.413 -1.6576 -1.4860  0.9809
 1619TIP3   OH226347   1.853   3.152  16.476  0.0739 -0.2988 -0.1570
 1619TIP3    H126348   1.820   3.193  16.556  0.0763 -0.7958  0.1004
 1619TIP3    H226349   1.852   3.059  16.495 -0.1020 -0.4311 -0.8104
 1620TIP3   OH226350   1.041   4.945   1.056  0.2477  0.5834 -0.4980
 1620TIP3    H126351   1.053   4.850   1.057  1.2358  0.7142  0.6186
 1620TIP3    H226352   1.112   4.978   1.001 -0.9628  0.5762 -2.1016
 1621TIP3   OH226353   1.476   0.942   0.640 -0.1522  0.5938  0.2302
 1621TIP3    H126354   1.520   0.887   0.705  0.8469 -0.2534 -1.1351
 1621TIP3    H226355   1.462   1.026   0.685  0.4596  0.0067  1.5482
 1622TIP3   OH226356   5.506   3.465   4.515 -0.3081 -0.3786  0.4694
 1622TIP3    H126357   5.550   3.381   4.508  0.2582 -0.1330  1.0849
 1622TIP3    H226358   5.433   3.450   4.575  0.7517 -0.0370  1.8515
 1623TIP3   OH226359   0.249   0.951  15.854 -0.4923  0.6381 -0.2686
 1623TIP3    H126360   0.174   1.006  15.834 -0.6901  0.5424  0.1846
 1623TIP3    H226361   0.211   0.872  15.893 -0.1016  1.0479  0.9758
 1624TIP3   OH226362   5.410   2.710   6.447  0.0202  0.1489 -0.1173
 1624TIP3    H126363   5.327   2.759   6.439  0.7617  1.5410  0.5023
 1624TIP3    H226364   5.388   2.635   6.502 -1.1063 -0.1291 -0.9350
 1625TIP3   OH226365   0.890   5.776   5.413  0.2040 -0.0694 -0.5085
 1625TIP3    H126366   0.962   5.715   5.428  2.5196  2.4872 -0.8111
 1625TIP3    H226367   0.888   5.789   5.318  1.2033  1.9669 -0.2853
 1626TIP3   OH226368   5.970   4.748   1.182 -0.3006  0.6479 -0.2632
 1626TIP3    H126369   5.892   4.699   1.158 -0.3511  0.5445  0.1132
 1626TIP3    H226370   6.043   4.694   1.152 -0.3624  0.5139 -0.1677
 1627TIP3   OH226371   1.499   0.599   0.641  0.4413  0.6092 -0.1070
 1627TIP3    H126372   1.589   0.631   0.640  0.5918  0.1350 -1.9515
 1627TIP3    H226373   1.478   0.582   0.550 -1.0300 -0.7065  0.4604
 1628TIP3   OH226374   4.480   6.395   5.574  0.3529 -0.3137 -0.0409
 1628TIP3    H126375   4.461   6.410   5.667  0.5370 -0.3261 -0.0012
 1628TIP3    H226376   4.576   6.394   5.569  0.3490 -1.3198 -0.0660
 1629TIP3   OH226377   4.910   6.456  17.286  0.8023  1.0103 -0.3683
 1629TIP3    H126378   4.938   6.438  17.197  0.6762  2.9353 -0.8192
 1629TIP3    H226379   4.818   6.482  17.278  0.0888 -1.1495  0.6080
 1630TIP3   OH226380   5.073   4.380   3.712  0.3554  0.0166 -0.1611
 1630TIP3    H126381   5.044   4.456   3.762 -0.1967 -0.4928  0.3051
 1630TIP3    H226382   5.103   4.317   3.778 -0.0938 -0.5398 -0.4817
 1631TIP3   OH226383   5.108   4.059  13.262  0.0574 -0.1794 -0.2971
 1631TIP3    H126384   5.089   4.093  13.175 -0.0018  0.0363 -0.2017
 1631TIP3    H226385   5.200   4.083  13.278 -0.1244  0.3510 -0.0411
 1632TIP3   OH226386   2.608   2.812   1.437 -0.2084  0.1302  0.2288
 1632TIP3    H126387   2.560   2.854   1.509 -1.6130 -0.8539 -0.1026
 1632TIP3    H226388   2.626   2.883   1.375 -1.1682  0.5531  0.4129
 1633TIP3   OH226389   0.467   0.030  12.760  0.3817 -0.3796  0.0431
 1633TIP3    H126390   0.515  -0.025  12.821  0.7937  0.3695  0.4033
 1633TIP3    H226391   0.440   0.106  12.812 -4.9150 -2.7023  0.9795
 1634TIP3   OH226392   0.747   5.043   5.044 -0.1646  0.2884 -0.5931
 1634TIP3    H126393   0.750   4.952   5.075 -0.6817 -0.0610 -1.5345
 1634TIP3    H226394   0.837   5.074   5.054 -0.4295  0.3725  1.7541
 1635TIP3   OH226395   5.841   0.130  12.422  0.3455  0.6127  0.4275
 1635TIP3    H126396   5.931   0.159  12.410  0.3446 -0.0239 -1.2612
 1635TIP3    H226397   5.839   0.041  12.386 -0.3763 -0.3680  2.7185
 1636TIP3   OH226398   3.814   5.221   4.615 -0.2888  0.1354 -0.4333
 1636TIP3    H126399   3.837   5.179   4.533 -0.0150 -1.0307  0.2278
 1636TIP3    H226400   3.750   5.162   4.655  1.4083 -0.5614  1.3236
 1637TIP3   OH226401   6.148   5.308   4.943 -0.4980  0.0390  0.4761
 1637TIP3    H126402   6.239   5.299   4.974 -0.2422  0.5029 -0.1245
 1637TIP3    H226403   6.118   5.218   4.930  0.4875 -0.0861 -1.0594
 1638TIP3   OH226404   0.514   4.364   0.745 -0.0936  0.2925 -0.3233
 1638TIP3    H126405   0.467   4.300   0.799 -0.9615  2.6188  1.7633
 1638TIP3    H226406   0.481   4.349   0.657 -1.3286 -1.1863  0.3514
 1639TIP3   OH226407   3.529   1.396  13.381  0.6951 -0.8626 -0.0788
 1639TIP3    H126408   3.466   1.329  13.406 -1.5115  1.0728 -0.3090
 1639TIP3    H226409   3.560   1.368  13.294  0.3832 -1.9810  0.1616
 1640TIP3   OH226410   4.858   4.911   3.027 -0.0034  0.6011 -0.3551
 1640TIP3    H126411   4.903   4.830   3.050 -0.1012 -0.0125 -2.2279
 1640TIP3    H226412   4.920   4.981   3.048 -0.1322  0.0973  1.7767
 1641TIP3   OH226413   2.484   1.242  16.371 -0.6931  0.1294 -0.6480
 1641TIP3    H126414   2.542   1.295  16.425 -1.4618 -0.0290  0.3345
 1641TIP3    H226415   2.531   1.233  16.288  0.2411  0.8342 -0.2069
 1642TIP3   OH226416   3.102   4.449   1.310 -0.3205 -0.0549  0.3436
 1642TIP3    H126417   3.027   4.421   1.363  0.1043  2.7405  2.5367
 1642TIP3    H226418   3.101   4.545   1.316  2.7606  0.0842 -0.5259
 1643TIP3   OH226419   5.628   2.279  12.781  0.1308 -0.8886 -0.4011
 1643TIP3    H126420   5.653   2.359  12.827  0.1811 -1.9643  1.5111
 1643TIP3    H226421   5.532   2.277  12.786  0.1302 -0.9495 -0.4373
 1644TIP3   OH226422   1.604   4.518  12.953  0.8902 -0.7661 -0.6223
 1644TIP3    H126423   1.634   4.527  12.862 -0.8708  1.1694 -1.0688
 1644TIP3    H226424   1.638   4.596  12.997 -1.2615  0.1691 -0.5338
 1645TIP3   OH226425   2.345   2.319   3.834  0.4606  0.5268 -0.2330
 1645TIP3    H126426   2.396   2.251   3.877 -0.6132  0.2463  0.6225
 1645TIP3    H226427   2.320   2.379   3.904  0.3439  1.1113 -0.7750
 1646TIP3   OH226428   6.630   1.634   5.334  0.1512 -0.2556  0.4595
 1646TIP3    H126429   6.681   1.656   5.255 -0.6380  0.9823  0.2710
 1646TIP3    H226430   6.606   1.542   5.322 -2.3626  0.6526 -2.1460
 1647TIP3   OH226431   4.744   3.165  12.880  0.6122  0.1558 -0.1195
 1647TIP3    H126432   4.755   3.070  12.874  0.8105  0.1016  0.9446
 1647TIP3    H226433   4.818   3.201  12.831  1.1232 -0.2497  0.3392
 1648TIP3   OH226434   1.114   0.473   3.526 -0.4452  0.0495  0.0516
 1648TIP3    H126435   1.024   0.483   3.556 -1.2430  1.4072 -2.5734
 1648TIP3    H226436   1.146   0.395   3.570 -2.9662 -0.5608  0.8992
 1649TIP3   OH226437   3.443   0.216   2.566 -0.1873 -0.7097 -0.0226
 1649TIP3    H126438   3.490   0.133   2.564 -0.9055 -1.1360 -3.4584
 1649TIP3    H226439   3.497   0.276   2.513 -0.5509  0.4864  0.9344
 1650TIP3   OH226440   1.875   1.568  14.508 -0.0911 -0.8171 -0.0603
 1650TIP3    H126441   1.943   1.588  14.573  0.6512  0.6845 -1.2742
 1650TIP3    H226442   1.793   1.596  14.549  0.3638  0.0651  0.2434
 1651TIP3   OH226443   3.211   2.626   6.150 -0.7150 -0.0227 -0.5419
 1651TIP3    H126444   3.208   2.540   6.108 -0.1114 -0.2880 -0.0574
 1651TIP3    H226445   3.127   2.667   6.128 -2.1724 -1.7948  1.4616
 1652TIP3   OH226446   3.583   1.855   3.404  0.2724 -0.2967  0.1588
 1652TIP3    H126447   3.539   1.887   3.326  2.1769  1.4796 -0.2265
 1652TIP3    H226448   3.648   1.792   3.371  1.5636  0.9827  0.2209
 1653TIP3   OH226449   1.974   4.603  11.477 -0.0937 -0.3744  0.0873
 1653TIP3    H126450   1.957   4.615  11.384 -0.1086 -1.3080 -0.0322
 1653TIP3    H226451   1.968   4.692  11.514  3.7730  0.5726 -1.3915
 1654TIP3   OH226452   5.037   0.069   3.773  0.2715 -0.1317  0.6073
 1654TIP3    H126453   4.976   0.102   3.839  2.4759  0.5362  2.3597
 1654TIP3    H226454   5.061   0.146   3.722  0.0217 -0.3058  0.2269
 1655TIP3   OH226455   3.582   5.121   4.445  0.2275 -0.1026 -0.4649
 1655TIP3    H126456   3.676   5.137   4.437  0.5196 -1.2466  0.4944
 1655TIP3    H226457   3.574   5.026   4.438 -0.7459 -0.1045  0.5452
 1656TIP3   OH226458   1.374   3.114  15.985 -0.1300  0.5189  0.6329
 1656TIP3    H126459   1.305   3.111  16.052  0.3915  0.8954  1.1931
 1656TIP3    H226460   1.455   3.096  16.033  0.1067 -0.4632 -0.1161
 1657TIP3   OH226461   2.144   5.092   4.376  0.2357  0.3627  0.0527
 1657TIP3    H126462   2.177   5.149   4.307  0.6168  0.7293  0.5431
 1657TIP3    H226463   2.182   5.006   4.356 -0.9949  0.0876 -1.1525
 1658TIP3   OH226464   2.697   0.113  16.511  0.5625 -0.1012  0.7623
 1658TIP3    H126465   2.724   0.178  16.446  1.8317 -2.2834 -0.9913
 1658TIP3    H226466   2.642   0.052  16.460 -1.4969  0.1602  2.6052
 1659TIP3   OH226467   4.217   3.053  14.998 -0.1636 -0.0005  0.3510
 1659TIP3    H126468   4.151   2.984  14.993 -0.4415  0.2534  0.5326
 1659TIP3    H226469   4.292   3.017  14.950 -0.5740 -0.1188 -0.2136
 1660TIP3   OH226470   5.403   4.253  12.806  0.3287 -0.2340  1.0044
 1660TIP3    H126471   5.445   4.252  12.720  1.0979 -1.8599  1.3755
 1660TIP3    H226472   5.468   4.215  12.865 -0.8851 -0.8725  1.9551
 1661TIP3   OH226473   4.830   3.343   9.866  0.3161 -0.6414  0.0476
 1661TIP3    H126474   4.774   3.273   9.900 -0.7514  1.0315  1.8125
 1661TIP3    H226475   4.800   3.422   9.911  1.5478  0.9540 -1.8737
 1662TIP3   OH226476   1.259   0.754   0.070  0.3984  0.1366 -0.1331
 1662TIP3    H126477   1.191   0.711   0.122  0.7593 -0.6649 -0.3218
 1662TIP3    H226478   1.218   0.768  -0.016  0.7626 -1.1289 -0.5126
 1663TIP3   OH226479   6.462   2.391   3.368  0.1098 -0.0632 -0.2437
 1663TIP3    H126480   6.532   2.440   3.411  0.6350 -0.1586 -0.9772
 1663TIP3    H226481   6.411   2.458   3.322  0.1130 -0.0679 -0.2541
 1664TIP3   OH226482   4.380   3.239  16.433  0.9817 -0.1434  0.7146
 1664TIP3    H126483   4.414   3.295  16.363  1.7806 -2.5071 -0.8623
 1664TIP3    H226484   4.375   3.296  16.509 -0.4353  2.6681 -1.3872
 1665TIP3   OH226485   1.382   2.065  13.744 -0.4566  0.4306  0.0537
 1665TIP3    H126486   1.440   2.124  13.791  0.1880 -0.5121  0.4489
 1665TIP3    H226487   1.311   2.121  13.713  0.2838  1.4561  0.1954
 1666TIP3   OH226488   4.858   3.637  14.783  0.0232  0.6505  1.1767
 1666TIP3    H126489   4.857   3.656  14.877  0.1543  1.2981  1.0487
 1666TIP3    H226490   4.948   3.607  14.766  0.0432  0.6856  1.2250
 1667TIP3   OH226491   6.808   1.916   1.317  0.6375 -0.2608  0.0182
 1667TIP3    H126492   6.775   2.003   1.296 -0.6437 -0.9796 -1.0289
 1667TIP3    H226493   6.730   1.861   1.326  1.4548 -1.8886 -2.0770
 1668TIP3   OH226494   4.022   0.586  12.333  0.3828  0.2157 -0.8859
 1668TIP3    H126495   4.036   0.577  12.239  0.9169  1.1048 -0.8903
 1668TIP3    H226496   4.104   0.557  12.373 -0.1775 -1.0961 -0.6384
 1669TIP3   OH226497   3.171   3.415   5.477  0.2818 -0.3906 -0.1576
 1669TIP3    H126498   3.211   3.500   5.495  0.2047 -0.7272  1.6453
 1669TIP3    H226499   3.237   3.352   5.505 -0.5197 -0.9329  0.5096
 1670TIP3   OH226500   1.223   6.173   4.709  0.2845  0.1895  0.0514
 1670TIP3    H126501   1.172   6.190   4.788  1.9964 -0.1522  1.2613
 1670TIP3    H226502   1.314   6.180   4.737  0.9298 -0.6552 -1.7275
 1671TIP3   OH226503   5.462   1.640   1.270  0.4905  0.0838 -0.3617
 1671TIP3    H126504   5.412   1.671   1.346 -0.4887 -0.5269 -0.7483
 1671TIP3    H226505   5.423   1.555   1.250  2.1691 -0.7287 -0.2244
 1672TIP3   OH226506   3.534   4.253   5.333 -0.0946  0.3345  0.1983
 1672TIP3    H126507   3.508   4.286   5.419 -0.4825 -0.8496  0.5459
 1672TIP3    H226508   3.623   4.221   5.345  0.1667  0.9598 -0.0585
 1673TIP3   OH226509   0.906   5.704  13.154 -0.6930  0.1941 -0.3392
 1673TIP3    H126510   0.913   5.628  13.097 -3.3570  0.0038 -0.4730
 1673TIP3    H226511   0.944   5.676  13.237  1.1177 -0.2599 -1.2899
 1674TIP3   OH226512   2.184   6.603  12.750 -0.0367 -0.2636  0.4443
 1674TIP3    H126513   2.121   6.531  12.752  0.7047 -0.8757  2.1231
 1674TIP3    H226514   2.257   6.570  12.697 -0.8659  0.2403 -1.0254
 1675TIP3   OH226515   3.750   6.025  12.595 -0.1965 -0.1965 -0.2829
 1675TIP3    H126516   3.732   6.114  12.565  0.6227  0.1907  0.3650
 1675TIP3    H226517   3.664   5.987  12.609 -0.5556  0.4621 -0.6504
 1676TIP3   OH226518   1.933   5.753  14.251 -0.4819  0.5221 -0.2548
 1676TIP3    H126519   1.848   5.716  14.227 -1.6840  1.1502  2.7943
 1676TIP3    H226520   1.964   5.796  14.171 -1.0708 -3.1947 -2.5990
 1677TIP3   OH226521   6.058   5.311  13.247 -0.2852 -0.0788  0.0485
 1677TIP3    H126522   6.060   5.276  13.158 -0.1311  0.0898 -0.0165
 1677TIP3    H226523   6.144   5.353  13.257 -0.1094 -0.5279  0.4481
 1678TIP3   OH226524   1.990   1.937   3.712 -0.0014 -0.5916  0.4552
 1678TIP3    H126525   1.917   1.887   3.675 -0.9177  0.5590  0.6464
 1678TIP3    H226526   2.047   1.956   3.638  0.7874 -2.5988  0.5185
 1679TIP3   OH226527   1.348   4.224  16.164  0.2817 -0.6864  0.4562
 1679TIP3    H126528   1.352   4.161  16.236  0.5043 -1.7239 -0.4461
 1679TIP3    H226529   1.255   4.247  16.157  0.3227 -0.1989  1.3787
 1680TIP3   OH226530   4.784   3.408   0.268  0.3236  0.5272  0.3834
 1680TIP3    H126531   4.755   3.465   0.196 -0.5047  0.2232  0.4703
 1680TIP3    H226532   4.727   3.432   0.341 -0.2430 -0.6330  0.3276
 1681TIP3   OH226533   5.860   5.235  17.217  0.1562 -0.0038  0.8539
 1681TIP3    H126534   5.823   5.307  17.269 -0.8304 -0.8968  1.3997
 1681TIP3    H226535   5.831   5.253  17.128 -0.2377  0.1974  1.0169
 1682TIP3   OH226536   6.568   1.454   5.856  0.0599  0.2050 -0.2209
 1682TIP3    H126537   6.564   1.508   5.935  0.5554  0.0377 -0.0836
 1682TIP3    H226538   6.653   1.412   5.860 -0.8164 -1.5455  0.3003
 1683TIP3   OH226539   5.876   0.778  13.173 -0.1516 -0.1206  0.0517
 1683TIP3    H126540   5.885   0.689  13.208 -0.6894 -0.2699 -0.1892
 1683TIP3    H226541   5.965   0.805  13.153 -0.1031 -1.1032 -1.1069
 1684TIP3   OH226542   6.441   4.578   5.255 -0.4001  0.3902 -0.1323
 1684TIP3    H126543   6.452   4.583   5.160 -0.2581  0.4384 -0.1121
 1684TIP3    H226544   6.347   4.564   5.267 -0.1290 -1.9247 -0.3771
 1685TIP3   OH226545   2.291   4.049  15.828  0.0810  0.0700 -0.2327
 1685TIP3    H126546   2.303   4.127  15.883  1.5066 -0.6562  0.5319
 1685TIP3    H226547   2.338   4.069  15.747  0.4665 -0.0044 -0.0266
 1686TIP3   OH226548   4.879   4.359   5.040 -0.4880 -0.1054  0.2816
 1686TIP3    H126549   4.920   4.342   4.955 -0.3262 -0.1206  0.3629
 1686TIP3    H226550   4.909   4.447   5.063 -1.4695  0.3708 -0.2307
 1687TIP3   OH226551   5.469   5.494  16.228 -0.0942  0.3041 -0.0955
 1687TIP3    H126552   5.418   5.546  16.166 -2.3674 -2.9527 -1.0781
 1687TIP3    H226553   5.531   5.446  16.173 -0.6082 -0.8870  0.3498
 1688TIP3   OH226554   5.679   4.024   0.109  0.1552 -0.0178  0.3652
 1688TIP3    H126555   5.738   4.036   0.035 -1.3023  0.6269 -0.7068
 1688TIP3    H226556   5.653   4.113   0.134 -0.1733 -0.2839  0.9875
 1689TIP3   OH226557   5.215   0.266  16.059 -0.0758  0.3997  0.0656
 1689TIP3    H126558   5.168   0.274  15.977  0.2272 -1.4048 -0.3147
 1689TIP3    H226559   5.155   0.299  16.126 -0.5140  1.3871 -0.8094
 1690TIP3   OH226560   5.214   5.352  13.561 -0.1056  0.5584 -0.0933
 1690TIP3    H126561   5.230   5.412  13.633  0.0931 -0.7897  0.9969
 1690TIP3    H226562   5.265   5.274  13.582  1.3722  0.7996 -2.5764
 1691TIP3   OH226563   6.045   6.337   3.863  0.1812  0.4424  0.1270
 1691TIP3    H126564   5.995   6.356   3.942  0.2682 -1.2491  0.6026
 1691TIP3    H226565   5.981   6.297   3.803  0.5085  0.1033  0.0006
 1692TIP3   OH226566   2.289   1.972  11.370  0.1331 -0.0434 -0.1426
 1692TIP3    H126567   2.304   2.047  11.427 -2.0496  0.3569 -0.0484
 1692TIP3    H226568   2.342   1.990  11.292  1.9589  0.1213  1.1012
 1693TIP3   OH226569   2.558   5.307   1.681  0.0419  0.5786 -0.5728
 1693TIP3    H126570   2.523   5.253   1.610  0.9775  2.0968 -2.2110
 1693TIP3    H226571   2.649   5.277   1.691  0.3198  1.3107 -0.9325
 1694TIP3   OH226572   6.674   4.957  14.898  1.1160  0.1934 -0.3180
 1694TIP3    H126573   6.632   5.013  14.963  1.1221 -1.0834  0.8130
 1694TIP3    H226574   6.767   4.982  14.901  1.0120  0.5729 -0.2810
 1695TIP3   OH226575   4.475   5.541   2.566  0.0690  0.8447  0.1309
 1695TIP3    H126576   4.430   5.582   2.640  1.1375 -0.6820  1.7005
 1695TIP3    H226577   4.406   5.518   2.505 -1.0218  0.8140  1.3538
 1696TIP3   OH226578   3.919   5.293  14.743 -0.3528  0.7397  0.1034
 1696TIP3    H126579   4.004   5.250  14.750  0.3369  2.2831  1.6132
 1696TIP3    H226580   3.876   5.273  14.826 -0.3128  2.3233  0.5229
 1697TIP3   OH226581   3.904   5.387   5.144 -0.3495  0.4781  0.0898
 1697TIP3    H126582   3.901   5.292   5.155  0.0876  0.4456 -0.0874
 1697TIP3    H226583   3.980   5.403   5.089  0.0240  0.9949  0.7474
 1698TIP3   OH226584   2.055   0.959  13.626  0.6642  0.3913 -0.4710
 1698TIP3    H126585   2.147   0.984  13.622  0.5174  1.0419  0.1857
 1698TIP3    H226586   2.056   0.864  13.613  1.3084  0.5745 -1.8498
 1699TIP3   OH226587   1.426   0.843  10.584 -0.5229 -0.2072 -0.0889
 1699TIP3    H126588   1.441   0.851  10.490 -2.3326 -3.7759 -0.7642
 1699TIP3    H226589   1.511   0.817  10.620  0.1315  1.0142 -0.7062
 1700TIP3   OH226590   6.622   1.758   0.233  0.3249  0.3417 -0.3436
 1700TIP3    H126591   6.534   1.791   0.250  1.0488  1.8125  0.6719
 1700TIP3    H226592   6.669   1.774   0.314  1.5087 -0.5271 -0.8497
 1701TIP3   OH226593   5.515   6.472  16.208 -1.0358 -0.0347  0.0416
 1701TIP3    H126594   5.513   6.537  16.138 -2.1030 -1.6173 -1.4295
 1701TIP3    H226595   5.559   6.517  16.280 -0.6573  1.9064 -1.3418
 1702TIP3   OH226596   2.834   4.303  13.030 -0.0337  0.0892  0.2805
 1702TIP3    H126597   2.742   4.276  13.032 -0.2576  0.8325  0.3958
 1702TIP3    H226598   2.854   4.312  12.937  0.6075 -2.2910  0.1480
 1703TIP3   OH226599   3.435   0.127   0.331  0.5171 -0.2930 -0.3460
 1703TIP3    H126600   3.442   0.033   0.315  0.3158 -0.1953 -1.0319
 1703TIP3    H226601   3.444   0.167   0.244 -0.6210  0.2543 -0.2216
 1704TIP3   OH226602   1.691   0.055  14.372 -0.3574  0.2319 -0.1702
 1704TIP3    H126603   1.639   0.036  14.450  0.4887  0.1537  0.3739
 1704TIP3    H226604   1.658  -0.007  14.306  0.2777 -1.0429  0.6941
 1705TIP3   OH226605   3.159   0.038  12.976 -0.1396 -0.2873 -0.4148
 1705TIP3    H126606   3.217   0.115  12.980 -0.8559  0.2765 -0.8326
 1705TIP3    H226607   3.111   0.041  13.059 -1.1264  0.4807 -1.0015
 1706TIP3   OH226608   0.865   2.527  12.124  0.6606 -0.1251  0.0741
 1706TIP3    H126609   0.835   2.556  12.210  1.4530 -1.2774  0.7591
 1706TIP3    H226610   0.857   2.604  12.068  0.3500  0.6997  1.2360
 1707TIP3   OH226611   0.450   1.121   6.144  0.1407 -0.0818  0.4506
 1707TIP3    H126612   0.362   1.146   6.172  1.0585 -0.1995  3.5514
 1707TIP3    H226613   0.502   1.200   6.155  0.7045 -0.3740 -0.1278
 1708TIP3   OH226614   4.975   6.073   0.632  0.0379 -0.5106  0.4929
 1708TIP3    H126615   5.027   6.074   0.552 -0.3081 -1.4611  0.2575
 1708TIP3    H226616   5.034   6.109   0.699 -0.4856  2.6676 -0.6663
 1709TIP3   OH226617   3.284   2.853  10.604 -0.0311  0.4960 -0.0579
 1709TIP3    H126618   3.379   2.844  10.608 -0.1137 -0.8603 -0.5812
 1709TIP3    H226619   3.268   2.907  10.526  0.3240  1.0589  0.2590
 1710TIP3   OH226620   1.119   1.487   0.515  0.0928 -0.0758  0.5140
 1710TIP3    H126621   1.049   1.452   0.570 -0.0984 -1.4292 -0.5721
 1710TIP3    H226622   1.199   1.451   0.553  0.0551 -0.0343  0.6323
 1711TIP3   OH226623   3.010   4.182   3.923 -0.7798 -0.6289 -0.1296
 1711TIP3    H126624   2.984   4.160   4.012  1.7231 -1.2924  0.4586
 1711TIP3    H226625   2.993   4.276   3.916  0.6408 -0.2173  1.6311
 1712TIP3   OH226626   6.571   2.553  13.262  0.3696  0.2432 -0.4207
 1712TIP3    H126627   6.595   2.517  13.346  0.3691  0.8567 -0.1500
 1712TIP3    H226628   6.654   2.582  13.223  0.5252 -1.1529 -1.1721
 1713TIP3   OH226629   0.483   3.880   3.134 -0.5912 -0.1980 -0.4740
 1713TIP3    H126630   0.472   3.960   3.084 -2.1808 -0.3782 -0.4452
 1713TIP3    H226631   0.520   3.817   3.072 -1.6557 -0.1426 -1.1864
 1714TIP3   OH226632   1.583   2.564   5.137 -0.1344 -0.2407 -1.0252
 1714TIP3    H126633   1.646   2.636   5.131  0.4801 -0.7259 -0.4534
 1714TIP3    H226634   1.573   2.533   5.047  2.3065 -1.7507 -0.7934
 1715TIP3   OH226635   4.446   2.074  15.532  0.0298 -0.4238 -0.0718
 1715TIP3    H126636   4.523   2.126  15.558  0.3870 -0.0790 -1.7680
 1715TIP3    H226637   4.434   2.012  15.604  0.3303  1.2170  1.4301
 1716TIP3   OH226638   5.685   2.764  13.117  0.5662  0.1816 -0.2985
 1716TIP3    H126639   5.636   2.744  13.037  0.5331  0.3530 -0.3207
 1716TIP3    H226640   5.622   2.805  13.175 -0.2004 -2.6947  0.9873
 1717TIP3   OH226641   6.805   3.889  14.769 -0.6668  0.4480  0.0932
 1717TIP3    H126642   6.781   3.893  14.676 -1.4755  3.0411  0.3740
 1717TIP3    H226643   6.822   3.797  14.785 -1.2913 -0.1565 -2.4499
 1718TIP3   OH226644   1.603   5.174  16.895  0.7144 -0.3245 -0.6063
 1718TIP3    H126645   1.697   5.186  16.882  0.7058 -0.2234 -0.5768
 1718TIP3    H226646   1.588   5.202  16.985  0.7737 -1.0201 -0.3825
 1719TIP3   OH226647   3.894   3.183   3.882  0.3509 -0.3802  0.3777
 1719TIP3    H126648   3.805   3.206   3.857  0.7483  0.4751 -0.2890
 1719TIP3    H226649   3.897   3.198   3.976  0.8848  3.4337 -0.1482
 1720TIP3   OH226650   0.198   6.310   2.443  0.7865 -0.3470 -0.2055
 1720TIP3    H126651   0.221   6.322   2.535 -0.5922 -1.8929  0.3692
 1720TIP3    H226652   0.102   6.313   2.442  0.8469  1.8051 -1.9209
 1721TIP3   OH226653   0.075   4.870  11.314  0.4195 -0.3678 -0.0459
 1721TIP3    H126654   0.163   4.907  11.305 -0.0147  0.7031  0.1223
 1721TIP3    H226655   0.051   4.843  11.226 -0.4000  2.3567 -0.6964
 1722TIP3   OH226656   5.358   0.233   5.000 -0.2096  0.2363  0.3412
 1722TIP3    H126657   5.377   0.139   5.005 -3.0355 -0.3465  0.9807
 1722TIP3    H226658   5.374   0.255   4.908 -1.6834 -1.3829 -0.3218
 1723TIP3   OH226659   5.496   6.224   4.199  0.0381 -0.7353  0.0387
 1723TIP3    H126660   5.590   6.243   4.196  0.0762 -1.0670 -1.0733
 1723TIP3    H226661   5.490   6.129   4.183 -0.5289 -0.5799 -0.6915
 1724TIP3   OH226662   4.503   6.055   1.911  0.2707  0.5887 -0.0564
 1724TIP3    H126663   4.528   6.045   2.002  0.1798  3.1106  0.2757
 1724TIP3    H226664   4.580   6.092   1.868  0.6103 -1.3727 -1.2025
 1725TIP3   OH226665   5.764   5.218  15.924 -0.6539 -0.3945  0.0578
 1725TIP3    H126666   5.790   5.293  15.869  0.0183  0.4081  1.4559
 1725TIP3    H226667   5.795   5.142  15.876 -0.5174  0.2667 -0.9276
 1726TIP3   OH226668   5.237   2.236  11.819  0.0206 -0.2247  0.6357
 1726TIP3    H126669   5.276   2.315  11.856 -0.0533 -0.3756  1.0409
 1726TIP3    H226670   5.247   2.170  11.887 -0.6258 -0.3537  0.6116
 1727TIP3   OH226671   5.234   1.294  11.422 -0.2714  0.3727 -0.1033
 1727TIP3    H126672   5.218   1.247  11.339  2.8205 -1.6408  0.3624
 1727TIP3    H226673   5.329   1.292  11.433 -0.6077  0.6255  3.4947
 1728TIP3   OH226674   0.511   6.203   5.817  0.4777  0.1564 -0.1087
 1728TIP3    H126675   0.492   6.214   5.724  3.2455 -1.5049 -0.9340
 1728TIP3    H226676   0.529   6.110   5.827  1.4229  0.5198  1.8480
 1729TIP3   OH226677   5.226   5.548  11.580 -0.8448  0.1785 -0.2164
 1729TIP3    H126678   5.168   5.475  11.560 -0.6589 -0.8498  2.6844
 1729TIP3    H226679   5.309   5.508  11.603 -1.0271  1.1696  2.3800
 1730TIP3   OH226680   1.142   1.645  14.438  0.1447 -0.2625  0.0466
 1730TIP3    H126681   1.129   1.739  14.425  0.8226 -0.2452 -0.4808
 1730TIP3    H226682   1.082   1.604  14.376  0.1469 -0.1827 -0.0083
 1731TIP3   OH226683   6.365   6.800  11.474 -0.1301 -0.1189 -0.1207
 1731TIP3    H126684   6.340   6.800  11.381 -0.5035  0.0814 -0.0187
 1731TIP3    H226685   6.361   6.708  11.500  3.3819 -0.6706 -1.2252
 1732TIP3   OH226686   3.304   2.284   1.453 -0.1951 -0.0484 -0.3145
 1732TIP3    H126687   3.399   2.285   1.452 -0.1982  0.2159 -0.1919
 1732TIP3    H226688   3.278   2.349   1.387 -0.2846 -1.5076 -1.7609
 1733TIP3   OH226689   6.420   6.641   0.801 -1.0710  0.1055 -0.2156
 1733TIP3    H126690   6.385   6.574   0.743 -2.3050 -0.3470  1.0162
 1733TIP3    H226691   6.435   6.595   0.884 -0.0604  0.9084  0.0568
 1734TIP3   OH226692   0.346   3.229  15.789 -0.1781 -0.2435  0.3175
 1734TIP3    H126693   0.257   3.264  15.786 -0.7635 -1.7899 -1.1363
 1734TIP3    H226694   0.401   3.301  15.759 -1.3504 -0.4630 -2.4936
 1735TIP3   OH226695   3.930   1.838  15.006 -0.2481 -0.1047  0.4740
 1735TIP3    H126696   3.935   1.922  14.960 -0.6414 -0.5292 -0.3737
 1735TIP3    H226697   3.969   1.775  14.944 -0.9600 -0.7192  0.6349
 1736TIP3   OH226698   1.298   4.250  11.873 -0.3382 -0.5887  0.3041
 1736TIP3    H126699   1.358   4.312  11.914 -0.6253  0.1244 -0.3441
 1736TIP3    H226700   1.237   4.225  11.942  1.6962 -2.6139  1.4441
 1737TIP3   OH226701   5.051   6.278   2.966 -0.0680  0.1053 -0.2695
 1737TIP3    H126702   5.004   6.348   2.921 -0.4150 -0.7759 -1.2998
 1737TIP3    H226703   5.052   6.205   2.903  2.6904  0.1115 -0.2985
 1738TIP3   OH226704   4.739   6.708  15.691 -0.2291 -0.5902  0.2036
 1738TIP3    H126705   4.774   6.795  15.704 -1.5544  0.0320 -0.2543
 1738TIP3    H226706   4.796   6.668  15.625 -1.4988  1.0927 -1.9647
 1739TIP3   OH226707   3.685   0.696   5.379 -0.3743  0.2206 -0.3655
 1739TIP3    H126708   3.740   0.751   5.436 -2.6148  2.1911  0.0002
 1739TIP3    H226709   3.708   0.606   5.403  3.4534  0.9347 -1.0274
 1740TIP3   OH226710   5.750   1.499   4.930  0.1896 -0.4861 -0.0083
 1740TIP3    H126711   5.658   1.526   4.933  0.7478  2.1828 -3.0679
 1740TIP3    H226712   5.753   1.433   4.860  0.5005 -0.9658  0.4578
 1741TIP3   OH226713   2.050   2.094   5.227  0.0767  0.1640  0.1486
 1741TIP3    H126714   2.139   2.096   5.262  0.2936 -1.7333 -0.2241
 1741TIP3    H226715   1.998   2.143   5.290  1.2158  0.4090  0.9130
 1742TIP3   OH226716   1.315   0.313   3.918 -0.0639  0.4718  0.5263
 1742TIP3    H126717   1.240   0.308   3.977 -2.0536 -3.6396 -2.0888
 1742TIP3    H226718   1.387   0.273   3.967 -1.4349 -2.0035  0.6053
 1743TIP3   OH226719   0.811   3.566   1.681  0.0059 -0.5091  0.0872
 1743TIP3    H126720   0.770   3.630   1.623 -0.5443  0.0334  1.0610
 1743TIP3    H226721   0.849   3.501   1.622 -0.0033  0.3653 -0.8940
 1744TIP3   OH226722   5.384   0.532  14.600 -0.2486  0.2350 -0.0150
 1744TIP3    H126723   5.300   0.567  14.571 -1.0932 -0.1798  1.8572
 1744TIP3    H226724   5.387   0.444  14.563 -1.5626 -0.4960  1.5627
 1745TIP3   OH226725   5.163   0.467   1.711  0.3111 -0.0416 -0.5003
 1745TIP3    H126726   5.168   0.557   1.678  2.1998  0.5291  1.2201
 1745TIP3    H226727   5.151   0.413   1.633  0.8575  1.5668 -1.7225
 1746TIP3   OH226728   0.558   0.439  15.576  0.4446 -0.5721  0.8052
 1746TIP3    H126729   0.622   0.368  15.590  0.4838 -0.6802  0.0789
 1746TIP3    H226730   0.473   0.395  15.574  0.4589 -0.5861  0.4743
 1747TIP3   OH226731   6.539   1.458  11.487  0.0892  0.4461  0.6813
 1747TIP3    H126732   6.602   1.458  11.559  0.2908  0.7293  0.5069
 1747TIP3    H226733   6.486   1.379  11.501  1.2908 -0.4684  0.1152
 1748TIP3   OH226734   5.542   5.489   2.910 -0.1221 -0.2678 -0.3529
 1748TIP3    H126735   5.616   5.470   2.852  0.7498  0.6687  0.4230
 1748TIP3    H226736   5.482   5.540   2.855  0.1003 -0.5043 -0.8166
 1749TIP3   OH226737   4.637   0.780   5.176  0.0670  0.4473 -0.4372
 1749TIP3    H126738   4.639   0.836   5.098  0.8785  3.9434  1.9981
 1749TIP3    H226739   4.725   0.742   5.181 -0.8678 -2.2203 -2.8208
 1750TIP3   OH226740   4.756   4.072   4.732  0.2358 -0.4649  0.1672
 1750TIP3    H126741   4.697   3.997   4.723  0.4844 -0.5657 -0.6492
 1750TIP3    H226742   4.790   4.065   4.821 -0.4701 -0.7847  0.4187
 1751TIP3   OH226743   4.763   5.759  13.206  1.0710 -0.4601 -0.2714
 1751TIP3    H126744   4.810   5.832  13.247  2.0331  0.5035 -2.9658
 1751TIP3    H226745   4.699   5.801  13.149 -0.3175 -1.7652  0.3062
 1752TIP3   OH226746   5.885   4.560   3.384  0.1240  0.2173  0.4553
 1752TIP3    H126747   5.818   4.528   3.444  0.3937  0.9760  1.1737
 1752TIP3    H226748   5.844   4.634   3.339  0.4424  0.6357  0.8420
 1753TIP3   OH226749   6.425   3.186  10.614  0.0176 -0.6135  0.2049
 1753TIP3    H126750   6.511   3.227  10.605  0.7307 -2.1583 -0.2990
 1753TIP3    H226751   6.363   3.259  10.617  1.0602  0.4477 -2.5989
 1754TIP3   OH226752   3.985   0.872   3.914 -0.2658  0.5662  0.0009
 1754TIP3    H126753   3.974   0.871   3.819 -1.1660  0.3369  0.1010
 1754TIP3    H226754   4.026   0.788   3.934 -0.8527  0.2512 -0.1027
 1755TIP3   OH226755   4.053   1.010  13.129 -0.3694 -0.1188  0.7977
 1755TIP3    H126756   4.051   1.023  13.034 -0.1054 -0.6283  0.7234
 1755TIP3    H226757   3.994   1.077  13.163  0.6831  1.0496  0.3837
 1756TIP3   OH226758   0.558   5.393   1.464  0.4281 -0.4339 -0.1304
 1756TIP3    H126759   0.565   5.416   1.556  1.7643 -0.8051 -0.1269
 1756TIP3    H226760   0.475   5.431   1.436  0.2037  0.0221  1.1244
 1757TIP3   OH226761   1.783   6.098  13.951  0.2879 -0.2269  0.1478
 1757TIP3    H126762   1.832   6.119  13.872 -0.9366 -0.4737 -0.6867
 1757TIP3    H226763   1.849   6.062  14.011  1.9905  3.7687  0.8025
 1758TIP3   OH226764   5.387   2.267  14.314 -0.5091 -0.4751  0.4835
 1758TIP3    H126765   5.297   2.235  14.314 -1.0445  0.9627  0.8576
 1758TIP3    H226766   5.380   2.357  14.282  0.7134 -0.1478  1.1148
 1759TIP3   OH226767   1.947   1.918  16.826  0.1773 -0.2406  0.1504
 1759TIP3    H126768   2.037   1.948  16.836  0.6983 -1.9600  0.7647
 1759TIP3    H226769   1.905   1.942  16.909  0.6092 -1.2743  0.6695
 1760TIP3   OH226770   5.872   3.281   5.417 -0.0662  0.1070  0.3135
 1760TIP3    H126771   5.826   3.338   5.479 -0.1703  2.2212 -1.6380
 1760TIP3    H226772   5.907   3.210   5.471 -3.3351 -0.1470  2.2451
 1761TIP3   OH226773   3.781   6.639  16.875 -0.0036  0.2408  0.3535
 1761TIP3    H126774   3.858   6.615  16.927  1.3047  0.2388 -1.5575
 1761TIP3    H226775   3.789   6.734  16.862 -0.2007  0.2064 -0.0331
 1762TIP3   OH226776   1.398   0.889   0.960  0.5537  0.0970  0.9710
 1762TIP3    H126777   1.436   0.831   1.026  1.5274  1.7197  1.8790
 1762TIP3    H226778   1.471   0.946   0.933 -0.4233  1.0468  0.2776
 1763TIP3   OH226779   1.131   6.306  14.277 -0.7955 -0.4255  0.5836
 1763TIP3    H126780   1.102   6.396  14.266  1.2617  0.0985 -0.9181
 1763TIP3    H226781   1.066   6.266  14.335 -2.1551  1.7913  0.6262
 1764TIP3   OH226782   5.129   4.260  11.398  0.1552  0.7620 -0.4067
 1764TIP3    H126783   5.191   4.297  11.461 -0.7946  3.7605 -1.1477
 1764TIP3    H226784   5.167   4.280  11.313 -0.3268 -0.1080 -0.8308
 1765TIP3   OH226785   5.287   5.234  10.661  0.6384 -0.3215 -0.1241
 1765TIP3    H126786   5.241   5.189  10.590 -0.9340 -0.0037  0.6728
 1765TIP3    H226787   5.290   5.326  10.634  0.8823 -0.3551 -0.2116
 1766TIP3   OH226788   1.177   5.904   5.578  0.1152  0.2405  0.2372
 1766TIP3    H126789   1.141   5.969   5.517  0.0068  0.1099  0.1617
 1766TIP3    H226790   1.183   5.950   5.662 -0.3223  0.2292  0.2732
 1767TIP3   OH226791   5.771   3.656   3.421 -0.8330  0.1933 -0.0305
 1767TIP3    H126792   5.699   3.717   3.438  0.9539  2.3690 -0.0010
 1767TIP3    H226793   5.841   3.687   3.478 -0.0337 -2.2007  0.3003
 1768TIP3   OH226794   0.585   2.355  14.725  0.0422 -0.5656 -0.5821
 1768TIP3    H126795   0.522   2.426  14.713 -1.9568 -2.2083 -0.2291
 1768TIP3    H226796   0.670   2.395  14.709 -1.1551  1.5146 -2.0286
 1769TIP3   OH226797   1.786   4.899   6.563 -0.1358 -0.3594 -0.0543
 1769TIP3    H126798   1.782   4.912   6.658  1.9087 -1.8420  0.2698
 1769TIP3    H226799   1.745   4.815   6.548  1.6881 -1.2511 -0.1791
 1770TIP3   OH226800   2.672   0.347   0.953 -0.4713 -0.0274  0.3011
 1770TIP3    H126801   2.629   0.311   1.031  0.0926 -0.3423  0.4682
 1770TIP3    H226802   2.727   0.418   0.986 -0.8721  0.3865  0.0840
 1771TIP3   OH226803   1.695   5.953  16.279  0.5935 -0.4625 -0.4430
 1771TIP3    H126804   1.676   5.912  16.194 -0.9542 -0.3494 -0.1571
 1771TIP3    H226805   1.610   5.975  16.315  1.3129  1.0553  0.3924
 1772TIP3   OH226806   2.093   2.743   6.561  0.2459 -0.4583 -0.2721
 1772TIP3    H126807   2.125   2.656   6.540 -0.2133 -0.4504 -1.0086
 1772TIP3    H226808   2.156   2.777   6.626 -0.1369 -1.7162  0.7691
 1773TIP3   OH226809   5.351   5.765   5.921  0.5588  0.1239 -0.1691
 1773TIP3    H126810   5.438   5.749   5.959  1.0297  0.3407 -1.1435
 1773TIP3    H226811   5.349   5.710   5.843 -0.9626 -1.4496  0.9438
 1774TIP3   OH226812   1.810   3.669  15.522  0.4650  0.0588  0.4252
 1774TIP3    H126813   1.840   3.724  15.450  0.7891 -0.6301  0.0315
 1774TIP3    H226814   1.743   3.722  15.566 -0.7457 -0.0617 -1.2331
 1775TIP3   OH226815   2.364   1.152  11.328 -0.1710  0.9409 -0.1360
 1775TIP3    H126816   2.317   1.188  11.254 -0.0567  3.4470  0.9763
 1775TIP3    H226817   2.449   1.196  11.327  0.6291 -0.5520  0.2592
 1776TIP3   OH226818   3.351   0.416   3.034 -0.3141 -0.1305 -0.9605
 1776TIP3    H126819   3.281   0.459   2.985 -0.6283  0.3816 -0.0516
 1776TIP3    H226820   3.381   0.346   2.975  0.1585  1.2527 -2.4173
 1777TIP3   OH226821   0.296   5.799  15.348  0.6747 -0.3279 -0.2369
 1777TIP3    H126822   0.297   5.777  15.255  1.7664 -1.3688  0.0103
 1777TIP3    H226823   0.386   5.827  15.366 -0.2212  2.6516 -0.1308
 1778TIP3   OH226824   6.502   5.654  13.580 -0.4565 -0.0870  0.2305
 1778TIP3    H126825   6.550   5.662  13.498 -0.5146 -0.1533  0.1901
 1778TIP3    H226826   6.542   5.579  13.625 -1.2903 -0.8893 -0.3330
 1779TIP3   OH226827   2.080   5.773   3.718 -0.7030 -0.1449 -0.1419
 1779TIP3    H126828   2.092   5.744   3.628  2.5376  1.0700 -0.1719
 1779TIP3    H226829   2.094   5.694   3.770  0.5171 -0.2249 -0.5784
 1780TIP3   OH226830   6.383   0.232  16.874 -0.4135 -0.2001  0.9111
 1780TIP3    H126831   6.313   0.191  16.824 -1.2939  1.5739  0.6606
 1780TIP3    H226832   6.464   0.194  16.839 -1.0772  0.1230 -1.0130
 1781TIP3   OH226833   3.927   4.293  13.650  0.0691  0.1131 -0.3013
 1781TIP3    H126834   3.853   4.265  13.703  0.2139 -1.3157 -0.8129
 1781TIP3    H226835   3.967   4.365  13.699 -1.5569  0.7856  0.0481
 1782TIP3   OH226836   1.810   3.968   3.951 -0.3104  0.2910 -0.3977
 1782TIP3    H126837   1.872   3.900   3.923 -1.9238 -1.4869  0.2905
 1782TIP3    H226838   1.742   3.968   3.884 -1.0429  0.2404  0.3404
 1783TIP3   OH226839   0.224   6.007   5.416  0.0182 -0.2334  0.3718
 1783TIP3    H126840   0.275   5.948   5.471 -0.3134  0.5141  1.4863
 1783TIP3    H226841   0.162   5.950   5.371 -0.3784 -0.7137  1.5245
 1784TIP3   OH226842   0.899   0.430  13.876 -0.5901  0.2098 -0.7492
 1784TIP3    H126843   0.964   0.486  13.917 -1.8491 -1.4273  3.7982
 1784TIP3    H226844   0.942   0.344  13.869 -1.7020 -0.4892  0.8216
 1785TIP3   OH226845   1.653   5.216   5.574 -0.3521 -0.3905  0.8285
 1785TIP3    H126846   1.565   5.233   5.606  0.0403 -1.1806  2.3371
 1785TIP3    H226847   1.644   5.139   5.518 -0.8042  0.2147  0.0511
 1786TIP3   OH226848   5.802   4.746  12.965 -0.0024 -0.4726  0.3054
 1786TIP3    H126849   5.875   4.688  12.943  0.0334 -1.1936  2.2350
 1786TIP3    H226850   5.843   4.832  12.977  0.3932 -0.6915  0.5340
 1787TIP3   OH226851   4.329   3.210  15.764  0.1165 -0.2288 -0.2436
 1787TIP3    H126852   4.292   3.164  15.689  0.2866 -1.5134  0.4476
 1787TIP3    H226853   4.295   3.164  15.840  0.3887  0.7221  0.4677
 1788TIP3   OH226854   4.805   3.449  16.071  0.1528 -0.3552  0.2589
 1788TIP3    H126855   4.783   3.538  16.100 -2.1561 -0.5077 -0.9197
 1788TIP3    H226856   4.773   3.393  16.141  1.6196 -0.2877  1.0108
 1789TIP3   OH226857   1.211   4.912  13.575 -0.0655 -0.3087 -0.0180
 1789TIP3    H126858   1.192   4.919  13.482  0.2762  2.3726  0.0752
 1789TIP3    H226859   1.307   4.909  13.580  0.0593  2.5409  0.3477
 1790TIP3   OH226860   4.074   6.719   1.189 -0.2062 -0.1754  0.2892
 1790TIP3    H126861   4.079   6.755   1.101  1.3161  0.7450  0.7450
 1790TIP3    H226862   4.130   6.641   1.187  0.4559  0.2841  0.6444
 1791TIP3   OH226863   4.210   1.924  13.506  0.2063 -0.0231 -0.2494
 1791TIP3    H126864   4.285   1.977  13.531 -0.1150 -0.0348  0.7510
 1791TIP3    H226865   4.235   1.834  13.527 -0.2927  0.0316  0.6154
 1792TIP3   OH226866   0.891   0.821  12.298 -0.0474 -0.6592 -0.5426
 1792TIP3    H126867   0.814   0.771  12.324 -1.0759  0.1806 -1.9074
 1792TIP3    H226868   0.855   0.901  12.258  1.5123 -0.7769 -2.2132
 1793TIP3   OH226869   6.242   6.571  14.336 -0.1657  0.0295  0.1476
 1793TIP3    H126870   6.276   6.633  14.273  0.4805 -1.1006 -0.6345
 1793TIP3    H226871   6.175   6.521  14.288  0.2575 -0.7671  0.3729
 1794TIP3   OH226872   1.761   3.654   1.085 -0.0353 -0.1983  0.1866
 1794TIP3    H126873   1.845   3.660   1.042  0.4227  0.6659  1.1859
 1794TIP3    H226874   1.750   3.560   1.103  0.0138 -0.4955 -1.2706
 1795TIP3   OH226875   3.891   6.096  14.627 -0.0850  0.0743  0.0570
 1795TIP3    H126876   3.851   6.142  14.554  1.3384  2.1727  0.5677
 1795TIP3    H226877   3.983   6.086  14.603 -0.2978 -2.2842  0.0897
 1796TIP3   OH226878   4.805   5.716   3.546 -0.2541 -0.1183 -0.4441
 1796TIP3    H126879   4.832   5.808   3.541 -2.1881  0.4196 -1.4851
 1796TIP3    H226880   4.759   5.709   3.629  0.5152 -0.3331 -0.0299
 1797TIP3   OH226881   5.356   6.233   1.355 -0.6086  0.0969  0.0299
 1797TIP3    H126882   5.349   6.271   1.268  2.5432  0.1476 -0.2626
 1797TIP3    H226883   5.437   6.269   1.391 -1.6146 -0.2553  2.8315
 1798TIP3   OH226884   1.989   2.488   5.866  0.1911 -0.0593  0.2260
 1798TIP3    H126885   2.047   2.536   5.924 -0.3941  0.5045  0.3442
 1798TIP3    H226886   1.927   2.444   5.924  0.1366 -0.1859  0.0722
 1799TIP3   OH226887   1.120   6.666  17.237  0.3499  0.9604  0.3636
 1799TIP3    H126888   1.087   6.577  17.246  2.0833  0.3710  1.1579
 1799TIP3    H226889   1.079   6.699  17.157 -1.1457 -0.1600  0.6618
 1800TIP3   OH226890   1.326   5.629   4.080 -0.1665 -0.4510  0.1521
 1800TIP3    H126891   1.408   5.678   4.070  0.0363 -1.1354 -1.7015
 1800TIP3    H226892   1.299   5.610   3.990 -0.7409 -2.9003  0.8338
 1801TIP3   OH226893   1.343   6.151  12.150 -0.3729 -0.0370  0.7719
 1801TIP3    H126894   1.257   6.112  12.134 -0.6592  1.2227 -1.0209
 1801TIP3    H226895   1.374   6.177  12.063  1.9544 -0.7090  1.3556
 1802TIP3   OH226896   5.750   0.213  14.449  0.2026 -0.4440  0.2594
 1802TIP3    H126897   5.769   0.306  14.442  0.3162 -0.5548 -1.2110
 1802TIP3    H226898   5.835   0.170  14.437 -0.6880 -0.9263 -5.8780
 1803TIP3   OH226899   2.660   1.049   4.427 -0.0972  0.5452  0.6914
 1803TIP3    H126900   2.566   1.060   4.441 -0.6205 -1.4224 -1.0495
 1803TIP3    H226901   2.686   0.979   4.487  0.2783  1.1371  1.2257
 1804TIP3   OH226902   5.149   2.019   0.807 -0.4232 -0.6266 -0.3810
 1804TIP3    H126903   5.089   2.001   0.734 -0.3489  0.4010 -0.7052
 1804TIP3    H226904   5.203   2.091   0.776  0.9093 -1.4601 -0.0433
 1805TIP3   OH226905   4.996   5.207   0.969  0.6262  0.0600 -0.1156
 1805TIP3    H126906   5.080   5.163   0.979  0.4803 -0.0340  0.7460
 1805TIP3    H226907   4.968   5.227   1.058 -1.6604 -2.5396 -0.1948
 1806TIP3   OH226908   6.142   1.252  15.235  0.1530  0.0916  0.0983
 1806TIP3    H126909   6.171   1.162  15.219  1.2945  0.7647 -1.7002
 1806TIP3    H226910   6.107   1.250  15.324 -0.0532 -2.1859 -0.0051
 1807TIP3   OH226911   6.040   5.748  12.494 -0.1287  0.0890 -0.1758
 1807TIP3    H126912   6.090   5.829  12.482  0.0973 -0.2942 -1.8521
 1807TIP3    H226913   6.003   5.756  12.582 -0.4142  2.1716 -0.4651
 1808TIP3   OH226914   3.115   0.912   3.318 -0.1316  0.4229  0.2372
 1808TIP3    H126915   3.029   0.941   3.288 -0.0815 -0.2895 -0.5928
 1808TIP3    H226916   3.130   0.829   3.274  0.5829  0.0793  1.1029
 1809TIP3   OH226917   0.507   4.115   0.061 -0.3110 -0.4384  1.0710
 1809TIP3    H126918   0.425   4.162   0.047  0.9287  1.0810 -1.3822
 1809TIP3    H226919   0.572   4.184   0.070  1.5607 -1.6131 -2.6234
 1810TIP3   OH226920   2.271   2.477  15.354  0.3030 -1.0258  0.3883
 1810TIP3    H126921   2.237   2.399  15.309  0.3302 -2.1085  2.1763
 1810TIP3    H226922   2.364   2.479  15.331 -0.0067 -0.6563 -0.8635
 1811TIP3   OH226923   6.658   5.369   3.394 -0.1667 -0.7400  0.0931
 1811TIP3    H126924   6.724   5.317   3.348 -0.6763 -0.9821 -0.3655
 1811TIP3    H226925   6.579   5.359   3.342  0.0130  1.4461 -0.6877
 1812TIP3   OH226926   4.884   0.180  16.799 -0.4090 -0.5172  0.5263
 1812TIP3    H126927   4.975   0.156  16.813 -0.0135 -1.6478 -3.2765
 1812TIP3    H226928   4.834   0.106  16.833  0.2485 -1.1037  0.2305
 1813TIP3   OH226929   3.523   0.874   2.924 -0.4550  0.5169  0.0390
 1813TIP3    H126930   3.588   0.932   2.962 -0.0943 -0.2781  0.6513
 1813TIP3    H226931   3.562   0.787   2.930 -1.7228 -0.0161  0.7170
 1814TIP3   OH226932   5.520   5.176  17.002  0.5197  0.5674  0.5592
 1814TIP3    H126933   5.528   5.100  17.059 -1.7551  0.3348  0.6216
 1814TIP3    H226934   5.459   5.235  17.047 -0.9642  0.5844 -1.3627
 1815TIP3   OH226935   3.149   0.660  11.384 -0.2364  0.4068 -0.7511
 1815TIP3    H126936   3.109   0.716  11.451  1.0378 -0.0716  0.4273
 1815TIP3    H226937   3.243   0.675  11.394 -0.0424  0.5996 -2.6846
 1816TIP3   OH226938   6.636   5.524  16.725  0.1863 -0.3853  0.0412
 1816TIP3    H126939   6.646   5.567  16.810  0.4810  0.7804 -0.5634
 1816TIP3    H226940   6.629   5.431  16.745 -1.1586 -0.0079  1.4498
 1817TIP3   OH226941   2.778   0.167   1.906 -0.0736 -0.1458 -0.0634
 1817TIP3    H126942   2.799   0.086   1.859  0.0658  0.3907 -0.9334
 1817TIP3    H226943   2.858   0.218   1.901  0.0551 -0.2293  1.0746
 1818TIP3   OH226944   5.494   2.703  12.914  0.1460 -0.2933 -0.4254
 1818TIP3    H126945   5.535   2.624  12.879  0.2960  0.5870 -2.3004
 1818TIP3    H226946   5.406   2.703  12.876  0.1256  0.4136 -0.3868
 1819TIP3   OH226947   5.219   3.555  16.106  0.0322  0.5055  0.3641
 1819TIP3    H126948   5.278   3.488  16.141 -0.4853  0.3174  0.8809
 1819TIP3    H226949   5.259   3.580  16.022  1.6227  1.4272  1.3735
 1820TIP3   OH226950   5.295   6.293  15.020 -0.1648  0.2177 -0.1126
 1820TIP3    H126951   5.334   6.211  14.987 -0.0102 -0.7231  2.3090
 1820TIP3    H226952   5.324   6.360  14.958  0.2297 -1.4677 -1.7893
 1821TIP3   OH226953   2.569   6.726  16.382 -0.3718 -0.2816 -0.0846
 1821TIP3    H126954   2.497   6.689  16.330 -0.9728  0.1430  0.4513
 1821TIP3    H226955   2.612   6.649  16.420 -0.5172 -0.5374 -0.4262
 1822TIP3   OH226956   2.057   4.762   6.265  0.4431  0.0036  0.0709
 1822TIP3    H126957   2.018   4.741   6.350  0.9307 -1.5644 -0.0814
 1822TIP3    H226958   2.151   4.771   6.284  0.6815 -1.3056 -0.4643
 1823TIP3   OH226959   1.887   2.855  16.562  0.3004  0.6919 -0.5619
 1823TIP3    H126960   1.972   2.821  16.589  0.1472 -0.4223 -1.4494
 1823TIP3    H226961   1.864   2.803  16.485 -1.1379  1.0644 -0.3939
 1824TIP3   OH226962   3.495   5.498   6.009  0.0550 -0.0287  0.0005
 1824TIP3    H126963   3.443   5.574   6.036 -1.7146 -1.0095 -0.5426
 1824TIP3    H226964   3.480   5.433   6.077  0.0407 -0.5559 -0.5007
 1825TIP3   OH226965   6.688   3.763  15.305  0.2585  0.1347  0.1433
 1825TIP3    H126966   6.659   3.854  15.303  1.1181  0.4408  1.0201
 1825TIP3    H226967   6.694   3.738  15.213 -0.4050  0.8215 -0.0954
 1826TIP3   OH226968   4.096   3.021  12.812  0.1254 -0.1066 -0.1648
 1826TIP3    H126969   4.156   3.028  12.886  0.5034 -0.0458 -0.4789
 1826TIP3    H226970   4.009   3.028  12.851  0.3021 -0.8332  0.3658
 1827TIP3   OH226971   3.077   0.730  15.814 -0.4330  0.4549 -0.5509
 1827TIP3    H126972   3.164   0.755  15.782 -0.1299  0.2033  0.0687
 1827TIP3    H226973   3.033   0.813  15.831  0.6550  0.5989  1.7290
 1828TIP3   OH226974   2.527   1.071   5.186  0.4345  0.1140 -0.4042
 1828TIP3    H126975   2.517   1.052   5.280 -2.0899  1.4096 -0.3819
 1828TIP3    H226976   2.532   0.985   5.145 -0.2042 -0.4903  0.7475
 1829TIP3   OH226977   5.759   0.643  15.964 -0.1688  0.1287  0.2124
 1829TIP3    H126978   5.825   0.704  15.930 -0.3711  1.3134  1.9096
 1829TIP3    H226979   5.806   0.560  15.974  0.6172  0.5107 -0.2415
 1830TIP3   OH226980   3.908   1.136   1.832 -0.1006 -0.3581  0.2763
 1830TIP3    H126981   3.901   1.200   1.903 -1.1264  0.9899 -0.9905
 1830TIP3    H226982   3.985   1.164   1.782 -0.3173 -0.3318 -0.0499
 1831TIP3   OH226983   0.637   4.994   0.488 -0.1539  0.1879 -0.2041
 1831TIP3    H126984   0.680   4.923   0.536  0.8266 -0.9805 -2.7360
 1831TIP3    H226985   0.656   5.072   0.540 -1.2058 -1.3300  2.6142
 1832TIP3   OH226986   3.134   2.897   0.112  1.0665  0.5717  0.0620
 1832TIP3    H126987   3.191   2.948   0.055  0.8213 -0.8427 -1.4665
 1832TIP3    H226988   3.046   2.926   0.090  1.1357  2.7173  2.3850
 1833TIP3   OH226989   4.255   0.686   5.181 -0.2146  0.8535 -0.2158
 1833TIP3    H126990   4.328   0.705   5.239 -0.5388 -0.4690  0.6498
 1833TIP3    H226991   4.238   0.592   5.193 -1.1220  0.8335 -1.4791
 1834TIP3   OH226992   1.866   6.080  14.445 -0.1656 -0.1178  0.6305
 1834TIP3    H126993   1.782   6.035  14.453 -0.1380 -0.5993 -1.5237
 1834TIP3    H226994   1.852   6.146  14.377  1.3614 -0.6033 -0.1870
 1835TIP3   OH226995   3.951   3.823   2.130  0.0522  0.6893  0.3905
 1835TIP3    H126996   3.975   3.842   2.221 -0.9044  0.5221  0.6837
 1835TIP3    H226997   4.034   3.810   2.085  0.5480  1.2897  1.1342
 1836TIP3   OH226998   2.079   1.106  16.462 -0.5521 -0.0238 -0.5490
 1836TIP3    H126999   2.004   1.061  16.502  0.8159 -0.1924  1.8845
 1836TIP3    H227000   2.090   1.062  16.377 -1.4755 -1.8583  0.2570
 1837TIP3   OH227001   5.183   2.559  16.243 -0.4242 -0.6501  0.4634
 1837TIP3    H127002   5.182   2.523  16.154 -1.4583  1.8149 -0.5893
 1837TIP3    H227003   5.092   2.552  16.273 -0.4340  0.0889  0.6299
 1838TIP3   OH227004   4.619   4.470   5.388 -0.6174 -0.2019  0.2899
 1838TIP3    H127005   4.591   4.426   5.307 -1.1010  0.0492  0.3242
 1838TIP3    H227006   4.540   4.510   5.423 -0.3092  0.1154  0.6289
 1839TIP3   OH227007   0.450   5.498  11.899  0.1393  0.2570  0.0555
 1839TIP3    H127008   0.397   5.563  11.945  1.0387  0.6527  0.5460
 1839TIP3    H227009   0.390   5.425  11.883 -0.8556  1.1550 -0.4077
 1840TIP3   OH227010   4.327   4.568   6.473 -0.0730  0.0060  0.5328
 1840TIP3    H127011   4.246   4.570   6.422 -1.2600  0.7503  2.4050
 1840TIP3    H227012   4.354   4.476   6.472  0.3467  0.0998 -2.0140
 1841TIP3   OH227013   4.308   6.200   4.953  0.2196 -0.0989  0.0608
 1841TIP3    H127014   4.255   6.204   5.033  0.5788 -1.6047  0.4030
 1841TIP3    H227015   4.322   6.106   4.939  1.8031  0.2367 -0.6837
 1842TIP3   OH227016   3.948   4.861   5.759  0.1177  0.3448 -0.8872
 1842TIP3    H127017   3.866   4.868   5.711 -0.8759  0.3174  0.8061
 1842TIP3    H227018   3.946   4.933   5.822  0.1625 -1.2463  0.9896
 1843TIP3   OH227019   6.319   1.050  16.332  0.5414 -0.2645  0.1932
 1843TIP3    H127020   6.225   1.035  16.327  0.6529 -0.9480  0.2193
 1843TIP3    H227021   6.353   0.979  16.386  0.8239  1.0743  1.8327
 1844TIP3   OH227022   0.380   5.010  14.361  0.2152  0.4489 -0.3538
 1844TIP3    H127023   0.472   5.037  14.359  0.7103 -1.1806 -1.0895
 1844TIP3    H227024   0.384   4.914  14.364 -1.4519  0.4043  1.5001
 1845TIP3   OH227025   4.247   5.129  14.023 -0.1832 -0.0554  0.1675
 1845TIP3    H127026   4.309   5.196  13.996  0.2952 -0.4044  0.4107
 1845TIP3    H227027   4.242   5.069  13.949 -0.2427 -0.0233  0.1441
 1846TIP3   OH227028   4.074   6.519  16.616  0.0441  0.1421  0.7263
 1846TIP3    H127029   4.084   6.572  16.537 -0.2193 -0.8806 -0.0083
 1846TIP3    H227030   3.995   6.467  16.599  0.6037 -0.8617  1.2101
 1847TIP3   OH227031   0.695   4.922   4.113 -0.5346 -0.0539 -0.2775
 1847TIP3    H127032   0.730   4.898   4.198 -1.0897 -0.1940 -0.0836
 1847TIP3    H227033   0.757   4.985   4.077  0.8091 -1.5715 -0.6732
 1848TIP3   OH227034   0.080   6.062  12.922  0.1964 -0.4284  0.2742
 1848TIP3    H127035   0.004   6.006  12.939  0.2724 -1.3391 -2.1970
 1848TIP3    H227036   0.144   6.036  12.987 -0.4730 -1.8954  0.3643
 1849TIP3   OH227037   2.656   4.934  16.728 -0.1316 -0.5411  0.0391
 1849TIP3    H127038   2.569   4.968  16.747 -1.0673 -2.7419 -0.1446
 1849TIP3    H227039   2.645   4.884  16.647  1.8206  1.1189 -1.2868
 1850TIP3   OH227040   0.857   4.691  13.064  0.3860  0.0475  0.1498
 1850TIP3    H127041   0.885   4.618  13.120  1.3493 -1.0151 -1.6575
 1850TIP3    H227042   0.916   4.762  13.088  1.4290 -0.6914 -0.1610
 1851TIP3   OH227043   1.580   4.998   2.815 -0.7372  0.5124 -0.1241
 1851TIP3    H127044   1.517   5.016   2.746 -0.0317  1.0916 -0.6288
 1851TIP3    H227045   1.530   5.005   2.896 -1.3679  0.7518 -0.5306
 1852TIP3   OH227046   0.966   0.258  12.720 -0.0680 -0.4545  0.1172
 1852TIP3    H127047   1.045   0.235  12.671 -0.2248  0.8265 -0.7374
 1852TIP3    H227048   0.997   0.313  12.792 -0.1192 -0.4164  0.1107
 1853TIP3   OH227049   2.738   3.151   6.369  0.9539  0.2025 -0.0272
 1853TIP3    H127050   2.818   3.100   6.355  1.2648  0.7400 -0.2244
 1853TIP3    H227051   2.700   3.159   6.282  1.6544  1.5299 -0.2174
 1854TIP3   OH227052   3.618   3.927  12.579  0.2966  0.2306 -0.0464
 1854TIP3    H127053   3.650   3.844  12.543 -0.9479  0.0978 -0.8909
 1854TIP3    H227054   3.693   3.963  12.627  1.9135  0.1911 -2.4120
 1855TIP3   OH227055   4.913   4.681   4.508 -0.5606  0.0872  0.0727
 1855TIP3    H127056   4.950   4.689   4.420 -1.4718  0.1027 -0.3121
 1855TIP3    H227057   4.901   4.771   4.537  0.6201  0.0908  0.5997
 1856TIP3   OH227058   3.659   6.037   2.808  0.4713  0.4520  0.4038
 1856TIP3    H127059   3.700   5.951   2.799  0.0094  0.2737 -0.0478
 1856TIP3    H227060   3.596   6.026   2.880 -0.8420 -0.0918 -0.7929
 1857TIP3   OH227061   2.029   4.278   4.451  0.2095  0.2540  0.0956
 1857TIP3    H127062   2.123   4.265   4.437  0.5666 -0.0917  2.6328
 1857TIP3    H227063   2.022   4.368   4.481 -0.5513  1.0172 -2.2778
 1858TIP3   OH227064   0.526   1.436   5.812 -0.3261  0.0894  0.4643
 1858TIP3    H127065   0.437   1.455   5.841 -1.4251 -1.3942 -1.7506
 1858TIP3    H227066   0.522   1.345   5.781  1.5648  0.4879 -1.0631
 1859TIP3   OH227067   4.415   2.234  15.311  0.1103  0.3435 -0.0457
 1859TIP3    H127068   4.413   2.188  15.395  1.1583 -0.7400 -0.6052
 1859TIP3    H227069   4.340   2.201  15.263 -0.1974  0.5879  0.2636
 1860TIP3   OH227070   1.646   4.520   2.387  0.1195 -0.1500  0.1264
 1860TIP3    H127071   1.586   4.566   2.446 -0.7074  0.3747 -1.0935
 1860TIP3    H227072   1.644   4.572   2.306  3.4654  0.8124  0.5780
 1861TIP3   OH227073   2.497   3.198   1.102  0.0949  0.0500  0.2872
 1861TIP3    H127074   2.455   3.120   1.065  1.9250 -0.9839  0.3382
 1861TIP3    H227075   2.424   3.251   1.135 -1.3827 -0.2676 -2.3440
 1862TIP3   OH227076   3.354   1.441  14.252  0.2839 -0.1598  0.1228
 1862TIP3    H127077   3.347   1.375  14.183 -0.0274 -0.2522  0.2390
 1862TIP3    H227078   3.447   1.445  14.274  0.6147  1.0247 -1.4226
 1863TIP3   OH227079   5.985   2.834   2.594 -0.2748 -0.0328  0.0168
 1863TIP3    H127080   6.057   2.827   2.657 -1.4027 -2.1292  1.1391
 1863TIP3    H227081   5.981   2.927   2.572  2.2983  0.2155  0.4806
 1864TIP3   OH227082   5.732   4.659  12.525 -0.3623  0.1363  0.0597
 1864TIP3    H127083   5.713   4.701  12.441 -1.7758 -1.4164 -0.4291
 1864TIP3    H227084   5.801   4.596  12.505  0.0234  0.4840  0.2854
 1865TIP3   OH227085   2.972   0.206  15.504  0.4496  0.6870  0.2529
 1865TIP3    H127086   2.919   0.233  15.579 -0.7062 -0.0000 -0.2948
 1865TIP3    H227087   2.943   0.117  15.485  0.3349  1.0488 -1.3478
 1866TIP3   OH227088   6.042   2.122  15.068 -0.5367 -0.1749  0.3509
 1866TIP3    H127089   5.986   2.168  15.006 -3.1509  0.2624  2.9160
 1866TIP3    H227090   5.985   2.058  15.110  0.4056  1.2179  4.0553
 1867TIP3   OH227091   1.049   0.873  16.797 -0.8296  0.5545 -0.5196
 1867TIP3    H127092   1.089   0.793  16.763  1.3888  0.8980  1.1946
 1867TIP3    H227093   1.112   0.942  16.777 -2.4153  1.8109 -1.3853
 1868TIP3   OH227094   4.871   3.916  11.956  0.3087 -0.0873 -0.1125
 1868TIP3    H127095   4.816   3.957  11.889 -0.3087 -0.0708  0.3974
 1868TIP3    H227096   4.901   3.834  11.917  2.1462  1.1670 -1.4168
 1869TIP3   OH227097   1.635   6.269  11.566  0.4662 -0.4167  0.8342
 1869TIP3    H127098   1.691   6.195  11.545  0.8422 -0.3035  1.4289
 1869TIP3    H227099   1.684   6.345  11.535 -0.2462 -0.4637 -0.4462
 1870TIP3   OH227100   4.795   5.522  16.116 -0.4086  0.7654  0.0012
 1870TIP3    H127101   4.785   5.607  16.074 -0.1170 -0.3742 -2.4505
 1870TIP3    H227102   4.718   5.514  16.172 -0.5147  2.5513  0.1512
 1871TIP3   OH227103   1.264   1.392   1.293  0.7357 -0.7375 -0.0071
 1871TIP3    H127104   1.265   1.393   1.197  2.0981  1.1021 -0.0000
 1871TIP3    H227105   1.308   1.310   1.317 -0.8533 -1.8870 -0.9413
 1872TIP3   OH227106   5.098   1.980  12.175  0.2682 -0.3688  0.1648
 1872TIP3    H127107   5.142   1.993  12.091  2.0149  1.8826  1.3778
 1872TIP3    H227108   5.019   2.033  12.170 -0.2075 -1.1408 -0.4837
 1873TIP3   OH227109   6.324   4.184  17.276  0.2879  0.1684 -0.1206
 1873TIP3    H127110   6.356   4.102  17.315  0.3182 -0.0275 -0.5576
 1873TIP3    H227111   6.300   4.160  17.186 -0.2736  0.5041 -0.0624
 1874TIP3   OH227112   5.802   6.165   6.345 -0.1072 -0.4829  0.4023
 1874TIP3    H127113   5.790   6.093   6.284 -0.0581  0.3281 -0.5797
 1874TIP3    H227114   5.834   6.124   6.425  0.1176 -1.5225 -0.2169
 1875TIP3   OH227115   3.541   2.087   4.949 -0.3878 -0.1238  0.2824
 1875TIP3    H127116   3.468   2.063   4.892  1.2208 -1.1573 -1.4184
 1875TIP3    H227117   3.606   2.018   4.934  1.3225  1.3110  0.9906
 1876TIP3   OH227118   0.752   1.394  12.363  0.7241 -0.1719 -0.8897
 1876TIP3    H127119   0.757   1.466  12.300 -0.0146  0.9267  0.2666
 1876TIP3    H227120   0.664   1.359  12.353  0.7971 -0.3626 -0.8652
 1877TIP3   OH227121   1.712   5.825   2.953 -0.3433  0.0681  0.2316
 1877TIP3    H127122   1.777   5.798   3.018  2.3441 -1.9486 -3.1210
 1877TIP3    H227123   1.735   5.776   2.874 -4.5562  1.1037 -1.7724
 1878TIP3   OH227124   3.759   1.038  13.539 -0.6422 -0.4720  0.0291
 1878TIP3    H127125   3.722   0.950  13.534 -0.3457 -0.5315 -1.2357
 1878TIP3    H227126   3.685   1.094  13.563 -1.2651 -0.7902 -1.1051
 1879TIP3   OH227127   0.020   6.257   1.628  0.1868 -0.1677 -0.0026
 1879TIP3    H127128   0.000   6.239   1.720 -0.9446 -2.0278 -0.5750
 1879TIP3    H227129   0.084   6.190   1.604 -0.4968 -0.5198 -0.8939
 1880TIP3   OH227130   2.558   5.075  14.371 -0.8665  0.1878  0.4171
 1880TIP3    H127131   2.571   4.982  14.353 -0.3876  0.1260  1.0472
 1880TIP3    H227132   2.629   5.118  14.324  1.4760 -0.1180  3.5302
 1881TIP3   OH227133   5.512   5.820  12.715  0.4975  0.2413 -0.2294
 1881TIP3    H127134   5.422   5.789  12.702  0.8002 -0.2508 -1.2142
 1881TIP3    H227135   5.506   5.882  12.787 -0.9758  1.7423 -1.5806
 1882TIP3   OH227136   3.521   0.455  13.494  0.5931 -0.6105  0.5523
 1882TIP3    H127137   3.482   0.506  13.565  1.2701  0.4444  0.1807
 1882TIP3    H227138   3.536   0.519  13.424  0.3668 -1.5541 -0.3631
 1883TIP3   OH227139   1.244   4.022   0.605  0.7493  0.7333 -0.5937
 1883TIP3    H127140   1.269   3.953   0.666  1.0233  1.5230  0.1945
 1883TIP3    H227141   1.326   4.068   0.585  0.7265  0.2624 -1.8371
 1884TIP3   OH227142   3.221   6.694   5.395 -0.1547  0.3068 -0.1729
 1884TIP3    H127143   3.173   6.758   5.343 -0.6993 -0.0069 -0.0630
 1884TIP3    H227144   3.286   6.658   5.335 -1.5149 -0.8714 -0.9867
 1885TIP3   OH227145   4.234   2.460   1.375 -0.2718 -0.3826  0.5840
 1885TIP3    H127146   4.275   2.529   1.427 -2.1117  1.9675 -0.9132
 1885TIP3    H227147   4.305   2.421   1.325  0.4969  2.1897 -0.4170
 1886TIP3   OH227148   2.544   4.839   4.082  0.0103 -0.4338  0.4921
 1886TIP3    H127149   2.525   4.799   3.997  1.3399 -1.8358  0.8302
 1886TIP3    H227150   2.465   4.888   4.103 -0.0462  0.5623 -1.9081
 1887TIP3   OH227151   0.473   1.178  14.913 -0.0159  0.2776  0.7925
 1887TIP3    H127152   0.405   1.147  14.854  0.5642  0.5316 -0.0323
 1887TIP3    H227153   0.429   1.238  14.972 -0.5389  0.3113  0.3708
 1888TIP3   OH227154   2.268   4.545  14.700 -0.0251  0.5227 -0.2676
 1888TIP3    H127155   2.174   4.558  14.712  0.0998  0.7567  0.4848
 1888TIP3    H227156   2.293   4.613  14.637 -0.5582 -0.2553 -1.3340
 1889TIP3   OH227157   3.575   2.391   4.543 -0.2311 -0.3713  0.1262
 1889TIP3    H127158   3.546   2.309   4.503 -1.4573 -0.2860  0.8365
 1889TIP3    H227159   3.509   2.455   4.517  0.8673  0.4768 -0.6701
 1890TIP3   OH227160   2.907   6.585  12.361  0.1264  0.1345 -0.6118
 1890TIP3    H127161   2.874   6.674  12.363 -2.7557 -0.8637 -1.2555
 1890TIP3    H227162   2.969   6.583  12.288  0.4658  1.6857 -0.3617
 1891TIP3   OH227163   3.693   3.385   2.128 -0.3664 -0.3783  0.4614
 1891TIP3    H127164   3.738   3.465   2.100 -0.8061 -0.1080  0.5286
 1891TIP3    H227165   3.610   3.387   2.082 -1.2790  0.2776  2.1079
 1892TIP3   OH227166   6.684   5.940   2.492 -0.0344  0.6590 -0.1864
 1892TIP3    H127167   6.734   5.882   2.435 -0.3111 -0.1749  0.3963
 1892TIP3    H227168   6.666   5.887   2.570  0.5680  1.8601  0.7869
 1893TIP3   OH227169   6.011   0.655  14.592 -0.2797 -0.3662  0.0627
 1893TIP3    H127170   6.094   0.609  14.574  1.7458  3.0654  0.1671
 1893TIP3    H227171   5.999   0.647  14.686 -0.8719 -2.0732 -0.1298
 1894TIP3   OH227172   4.256   6.747   3.811 -0.0846  0.0033 -0.6419
 1894TIP3    H127173   4.348   6.741   3.837  0.0901 -0.1654 -1.3068
 1894TIP3    H227174   4.209   6.758   3.894  0.6295  1.2894 -0.3975
 1895TIP3   OH227175   0.611   6.426   0.269 -0.0677 -0.0072 -0.5287
 1895TIP3    H127176   0.589   6.409   0.361 -0.4544  2.7198 -0.0813
 1895TIP3    H227177   0.560   6.362   0.220 -1.3396 -0.2383  1.0592
 1896TIP3   OH227178   2.879   6.819  15.755 -0.2957  0.2623  0.3750
 1896TIP3    H127179   2.973   6.821  15.770 -0.2552 -0.6280  0.3071
 1896TIP3    H227180   2.845   6.898  15.796  0.5575  0.8943 -0.1303
 1897TIP3   OH227181   1.110   0.711  11.214 -0.7037  0.6608  0.2233
 1897TIP3    H127182   1.084   0.671  11.297  0.9291  1.7781  1.2983
 1897TIP3    H227183   1.131   0.636  11.158  0.4790 -0.0611  1.5870
 1898TIP3   OH227184   4.274   1.227   5.471 -0.5794 -0.3632  0.0706
 1898TIP3    H127185   4.323   1.309   5.470 -1.3542  0.2027  2.9737
 1898TIP3    H227186   4.195   1.246   5.420 -0.6920  0.6648  0.6144
 1899TIP3   OH227187   6.782   5.482   4.128 -0.4814  0.4221  0.1301
 1899TIP3    H127188   6.821   5.397   4.107  0.5420  1.1394 -0.9212
 1899TIP3    H227189   6.841   5.546   4.088 -2.4020  1.5539 -1.0041
 1900TIP3   OH227190   5.165   2.733  17.189 -0.2585 -0.1829  0.3430
 1900TIP3    H127191   5.201   2.645  17.177 -0.9316 -0.5077  0.7202
 1900TIP3    H227192   5.114   2.728  17.269  0.1850  0.7107  0.6931
 1901TIP3   OH227193   4.463   2.831   4.298  0.2898 -0.3718 -0.4175
 1901TIP3    H127194   4.467   2.819   4.203 -2.2843  0.6054 -0.6833
 1901TIP3    H227195   4.379   2.795   4.323  0.9992 -0.7075  1.5324
 1902TIP3   OH227196   3.380   3.340  14.709 -0.2677  0.3888  0.2045
 1902TIP3    H127197   3.390   3.305  14.798 -2.0044 -0.8832 -0.0680
 1902TIP3    H227198   3.288   3.324  14.688 -0.1593  1.7575 -1.3829
 1903TIP3   OH227199   1.010   4.249   5.306 -0.0761  0.3132 -0.1273
 1903TIP3    H127200   1.008   4.188   5.233  0.9079  1.6638 -1.3269
 1903TIP3    H227201   0.980   4.332   5.269  3.2267  1.7539  0.2050
 1904TIP3   OH227202   5.463   2.726  14.601 -0.2915  0.2341  0.4415
 1904TIP3    H127203   5.546   2.695  14.637 -0.0559  1.2245  0.7577
 1904TIP3    H227204   5.487   2.794  14.539 -0.8805  0.5911  0.6054
 1905TIP3   OH227205   3.788   4.541  15.723  0.3566 -0.1412  0.6156
 1905TIP3    H127206   3.876   4.544  15.684 -0.7336  1.3231 -1.7992
 1905TIP3    H227207   3.755   4.453  15.701  1.2894 -0.8058  1.7815
 1906TIP3   OH227208   6.397   6.037   0.156  0.5176 -0.0519  0.1538
 1906TIP3    H127209   6.329   5.969   0.153  1.0188 -0.5822  0.6872
 1906TIP3    H227210   6.387   6.084   0.073 -0.7867  0.1596  0.4173
 1907TIP3   OH227211   1.846   4.081   2.443  0.3124  0.0252  0.3266
 1907TIP3    H127212   1.856   4.003   2.388  2.1410  0.6109 -0.2204
 1907TIP3    H227213   1.911   4.070   2.513 -1.3073 -0.2371  1.8147
 1908TIP3   OH227214   1.801   3.395  16.258  0.0777 -0.2702 -0.0969
 1908TIP3    H127215   1.891   3.370  16.276  0.3319  0.6376 -0.0999
 1908TIP3    H227216   1.765   3.420  16.343 -0.1412 -0.5200 -0.1143
 1909TIP3   OH227217   3.109   1.205  12.436 -0.8805 -0.2686 -0.1302
 1909TIP3    H127218   3.121   1.191  12.342 -2.9679 -3.9422  0.0693
 1909TIP3    H227219   3.014   1.207  12.448 -0.6337  1.9263  1.6973
 1910TIP3   OH227220   3.124   2.777  12.619  0.0411 -0.2190 -0.1231
 1910TIP3    H127221   3.057   2.774  12.550 -0.3774 -3.0609  0.3768
 1910TIP3    H227222   3.109   2.698  12.670  3.0158 -0.2481  0.7401
 1911TIP3   OH227223   2.705   6.507   3.597 -0.5757  0.1884 -0.5033
 1911TIP3    H127224   2.679   6.417   3.616 -2.3771  0.8965  0.4832
 1911TIP3    H227225   2.628   6.545   3.555  0.2071  1.2542 -0.9781
 1912TIP3   OH227226   1.092   4.798   0.525  0.3429  0.4234  0.0624
 1912TIP3    H127227   1.060   4.850   0.451 -0.6594  1.5286  1.2621
 1912TIP3    H227228   1.072   4.708   0.501  0.1242  0.7676 -1.0696
 1913TIP3   OH227229   1.866   4.128  16.313  0.1219  0.0785 -0.1651
 1913TIP3    H127230   1.933   4.059  16.311  0.3839  0.3498 -1.9139
 1913TIP3    H227231   1.783   4.081  16.316  0.3500 -0.2768  0.7481
 1914TIP3   OH227232   5.215   6.113   3.147  0.9448 -0.5700  0.0993
 1914TIP3    H127233   5.161   6.142   3.073  0.3883 -0.3416  0.5964
 1914TIP3    H227234   5.152   6.081   3.212  1.3394  0.8138  1.1644
 1915TIP3   OH227235   4.348   4.047  17.246  0.5143 -0.0740 -0.2801
 1915TIP3    H127236   4.349   4.115  17.179 -0.4685 -0.3602 -0.5879
 1915TIP3    H227237   4.417   4.073  17.307  0.4539  0.9405 -0.6396
 1916TIP3   OH227238   3.878   2.232  11.932  0.3080 -0.3987 -0.1629
 1916TIP3    H127239   3.909   2.288  11.861 -0.1915  0.8206  0.5626
 1916TIP3    H227240   3.803   2.184  11.895  0.6530 -0.4929 -0.7413
 1917TIP3   OH227241   3.296   0.131  16.869  0.3454  0.0912  0.1794
 1917TIP3    H127242   3.386   0.160  16.858  0.3770 -0.2291 -0.4547
 1917TIP3    H227243   3.291   0.099  16.959  1.3709 -1.6521 -0.3776
 1918TIP3   OH227244   5.085   3.116   2.588 -0.2592  0.3469 -0.0643
 1918TIP3    H127245   5.057   3.051   2.651 -1.0504  1.2108  0.4870
 1918TIP3    H227246   5.181   3.114   2.592 -0.1861 -2.3313 -1.6799
 1919TIP3   OH227247   1.096   0.047  12.974 -0.1090 -0.4368  0.4730
 1919TIP3    H127248   1.074   0.052  12.881  0.9258  0.4699  0.2721
 1919TIP3    H227249   1.186   0.014  12.976  0.3835  0.8877  1.0834
 1920TIP3   OH227250   3.175   1.490  14.532 -0.5190  0.0708  0.6021
 1920TIP3    H127251   3.263   1.524  14.545 -0.3614 -0.7474  1.7217
 1920TIP3    H227252   3.160   1.432  14.606 -1.6032 -0.6204 -0.1375
 1921TIP3   OH227253   5.637   0.554   2.739  1.0477 -0.0249  0.0190
 1921TIP3    H127254   5.716   0.608   2.740  0.5505  0.7197 -0.8903
 1921TIP3    H227255   5.610   0.550   2.831  3.2348 -1.9202  0.6269
 1922TIP3   OH227256   0.088   5.559   3.264  0.0201  0.1804  0.0770
 1922TIP3    H127257   0.001   5.524   3.245  0.2633  0.1190 -0.9339
 1922TIP3    H227258   0.133   5.488   3.309 -0.1770 -0.0832 -0.1390
 1923TIP3   OH227259   0.720   5.404   5.049 -0.6450 -0.2402  0.1455
 1923TIP3    H127260   0.679   5.471   4.995  0.0799 -1.0293 -1.4319
 1923TIP3    H227261   0.694   5.321   5.008  0.0593 -0.8485  0.9110
 1924TIP3   OH227262   4.854   2.557  13.608  0.3626 -0.0796  0.4068
 1924TIP3    H127263   4.760   2.548  13.619  0.0064 -0.6667 -2.7860
 1924TIP3    H227264   4.891   2.534  13.693 -2.3140 -0.7165  1.4183
 1925TIP3   OH227265   1.710   4.064   5.333  0.1055 -0.4588 -0.1781
 1925TIP3    H127266   1.694   4.063   5.239  2.6489  0.4225 -0.6518
 1925TIP3    H227267   1.707   4.156   5.357  0.8793 -0.5636  0.3337
 1926TIP3   OH227268   6.339   1.786   0.024 -0.1510  0.0762  0.1585
 1926TIP3    H127269   6.388   1.706   0.044  0.7880  1.0234  1.7215
 1926TIP3    H227270   6.284   1.762  -0.051  0.4301 -1.9037  0.3345
 1927TIP3   OH227271   3.214   6.685   3.781 -0.7382 -0.0146  0.7233
 1927TIP3    H127272   3.254   6.767   3.751 -0.0970 -0.5879  0.0107
 1927TIP3    H227273   3.218   6.691   3.877 -0.9938  0.9338  0.6803
 1928TIP3   OH227274   6.211   3.269   4.119  0.7317  0.1182 -0.0890
 1928TIP3    H127275   6.259   3.248   4.039 -0.6953 -1.7222 -0.4736
 1928TIP3    H227276   6.123   3.236   4.104  0.1989  0.5879  1.8840
 1929TIP3   OH227277   1.529   3.560  15.422 -0.1408  0.2352  0.1220
 1929TIP3    H127278   1.493   3.553  15.510  0.5821  2.3967  0.6349
 1929TIP3    H227279   1.539   3.654  15.407  1.9472 -0.1616 -1.3509
 1930TIP3   OH227280   4.675   5.405   5.733  0.1757 -0.4842 -0.0697
 1930TIP3    H127281   4.648   5.367   5.817 -0.6989  0.8943  0.2774
 1930TIP3    H227282   4.752   5.354   5.708 -1.0836 -2.6278  0.2838
 1931TIP3   OH227283   0.112   3.959  14.056  0.0931 -0.0873 -0.5267
 1931TIP3    H127284   0.189   3.902  14.062  2.2697  2.5575 -2.2344
 1931TIP3    H227285   0.092   3.962  13.962  0.1226  2.0145 -0.4936
 1932TIP3   OH227286   1.324   5.178  16.919 -0.2429  0.5204 -0.4499
 1932TIP3    H127287   1.284   5.155  16.835 -1.3026 -1.1394  0.4875
 1932TIP3    H227288   1.413   5.142  16.914 -1.3364 -2.4326  0.3501
 1933TIP3   OH227289   5.251   6.712  15.970  0.5932 -0.5794  0.1915
 1933TIP3    H127290   5.256   6.723  16.065 -2.3760  2.1135  0.1698
 1933TIP3    H227291   5.294   6.790  15.935 -0.7566 -0.1546 -0.5723
 1934TIP3   OH227292   6.310   2.376   4.991 -0.7268  0.1074 -0.6108
 1934TIP3    H127293   6.239   2.438   4.973 -2.3956 -1.9161 -1.1856
 1934TIP3    H227294   6.343   2.351   4.904 -0.1996  0.0382 -0.3919
 1935TIP3   OH227295   6.389   2.352   4.413  0.2150  0.0361 -0.1033
 1935TIP3    H127296   6.391   2.274   4.356  1.8533 -2.0675  2.7108
 1935TIP3    H227297   6.480   2.361   4.443 -0.2988  2.0857  0.8630
 1936TIP3   OH227298   3.460   6.744   4.075 -0.6162  0.0651  0.0538
 1936TIP3    H127299   3.422   6.661   4.103  0.9162 -0.7405 -0.2021
 1936TIP3    H227300   3.526   6.720   4.010 -0.3500  1.4965 -0.2271
 1937TIP3   OH227301   2.145   0.391  12.009 -0.0492  0.2702 -0.3139
 1937TIP3    H127302   2.187   0.307  11.989 -2.2214 -0.7907 -0.5483
 1937TIP3    H227303   2.118   0.383  12.100 -2.5045 -0.2919 -1.0619
 1938TIP3   OH227304   6.157   4.034   2.682 -0.2760 -0.0469 -0.1455
 1938TIP3    H127305   6.098   3.974   2.726  1.4810 -1.4268  0.3907
 1938TIP3    H227306   6.189   3.985   2.606  0.1326  0.7012 -0.4696
 1939TIP3   OH227307   4.966   5.284   3.860  0.3093  0.3606  0.2788
 1939TIP3    H127308   4.983   5.231   3.782 -1.6587 -0.6805  0.5109
 1939TIP3    H227309   4.955   5.373   3.826  2.0111  0.3650 -0.3104
 1940TIP3   OH227310   5.660   1.085   5.075 -0.5278 -0.1049 -0.2566
 1940TIP3    H127311   5.566   1.104   5.072 -0.4994 -0.0710 -1.0984
 1940TIP3    H227312   5.676   1.056   5.165 -0.7561  2.8164  0.7639
 1941TIP3   OH227313   3.077   5.672  13.415  0.3396 -0.0963  0.3975
 1941TIP3    H127314   3.062   5.625  13.333  0.7183 -0.2959  0.4432
 1941TIP3    H227315   3.165   5.648  13.441  0.9428  1.4893 -0.1259
 1942TIP3   OH227316   2.489   4.492  16.968  0.4449  0.8850  0.0076
 1942TIP3    H127317   2.401   4.525  16.989  0.5081  0.9107  0.2322
 1942TIP3    H227318   2.477   4.397  16.959  0.4005  0.8846  0.0712
 1943TIP3   OH227319   3.685   1.029   4.885  0.7080 -0.2878  0.0414
 1943TIP3    H127320   3.748   1.002   4.819  0.0273  1.7723 -1.4985
 1943TIP3    H227321   3.695   1.124   4.890 -2.5394  0.1322 -0.5423
 1944TIP3   OH227322   5.810   3.504  12.677 -0.3575  0.2104 -0.0923
 1944TIP3    H127323   5.865   3.427  12.692  0.7667  0.8518 -0.8030
 1944TIP3    H227324   5.720   3.473  12.690  0.0812 -1.2070 -0.3597
 1945TIP3   OH227325   0.092   5.998  13.762 -0.0875 -0.0451 -0.0251
 1945TIP3    H127326   0.042   6.040  13.832 -0.8145  0.2424 -0.7052
 1945TIP3    H227327   0.098   5.907  13.788 -1.2896 -0.1558 -0.0969
 1946TIP3   OH227328   2.466   1.960  16.983 -0.4202 -0.0943 -0.5573
 1946TIP3    H127329   2.461   2.013  17.063  0.3827 -0.9605  0.0884
 1946TIP3    H227330   2.554   1.921  16.986 -0.3057  0.0434 -1.9854
 1947TIP3   OH227331   3.781   2.413  13.884 -0.0776 -0.3579 -0.0224
 1947TIP3    H127332   3.831   2.442  13.808  0.3685  1.4668  0.9608
 1947TIP3    H227333   3.838   2.429  13.959 -1.7207  0.8616  1.0090
 1948TIP3   OH227334   1.664   3.947   1.658  0.5191 -0.8619 -0.3880
 1948TIP3    H127335   1.646   3.881   1.726  0.2498 -0.3269  0.0659
 1948TIP3    H227336   1.677   4.028   1.707  1.1243 -0.6305 -0.9301
 1949TIP3   OH227337   0.964   5.472   6.562 -0.1738 -0.2475  0.3572
 1949TIP3    H127338   1.049   5.454   6.601 -0.1880  0.3379  0.6665
 1949TIP3    H227339   0.919   5.387   6.563 -0.1956 -0.2334  1.6690
 1950TIP3   OH227340   3.102   3.785  14.206  0.7128 -0.2449  0.0296
 1950TIP3    H127341   3.044   3.740  14.144  2.6144 -0.9982 -1.2486
 1950TIP3    H227342   3.132   3.716  14.265  0.4520  0.1104  0.5785
 1951TIP3   OH227343   3.858   2.553   4.632 -0.2048  0.2448  0.2915
 1951TIP3    H127344   3.791   2.486   4.618 -0.1628  0.0692  0.9135
 1951TIP3    H227345   3.848   2.578   4.724  2.7463 -2.1552  1.3554
 1952TIP3   OH227346   5.028   3.693   0.416  0.0642 -0.0993 -0.1993
 1952TIP3    H127347   4.994   3.632   0.482 -0.4616  0.1146 -0.2770
 1952TIP3    H227348   4.951   3.739   0.383  0.6884  2.2477  1.4827
 1953TIP3   OH227349   2.132   2.875   6.092  0.1138  0.1701  0.3046
 1953TIP3    H127350   2.105   2.964   6.069 -3.0074 -0.1938  2.2066
 1953TIP3    H227351   2.145   2.878   6.187  1.2185 -1.1079  0.2047
 1954TIP3   OH227352   2.607   1.676   1.338 -0.3579 -0.0499 -0.2085
 1954TIP3    H127353   2.600   1.733   1.261 -0.6718 -2.3647 -1.9617
 1954TIP3    H227354   2.675   1.613   1.314 -0.6578 -0.9613  1.3089
 1955TIP3   OH227355   1.213   1.920   0.240 -0.0729  0.2837 -0.6934
 1955TIP3    H127356   1.162   1.871   0.176 -1.2729  0.7139 -0.0760
 1955TIP3    H227357   1.238   1.856   0.306 -2.7947  0.7301  0.8282
 1956TIP3   OH227358   3.581   5.760  10.680  0.2278 -0.7655  0.6221
 1956TIP3    H127359   3.558   5.741  10.588  1.4164  1.0527 -0.0788
 1956TIP3    H227360   3.675   5.740  10.685  0.4241  0.2446  1.1185
 1957TIP3   OH227361   4.652   0.712  15.761  0.6009  0.0594 -0.1259
 1957TIP3    H127362   4.593   0.754  15.824  1.5046  0.3912  0.5286
 1957TIP3    H227363   4.597   0.653  15.711 -0.3296  0.5589  0.2966
 1958TIP3   OH227364   0.905   4.839  13.719  0.0009 -0.0881  0.1423
 1958TIP3    H127365   0.988   4.879  13.742  0.2847 -0.5242 -0.1075
 1958TIP3    H227366   0.913   4.818  13.626  0.5849 -2.4339  0.6703
 1959TIP3   OH227367   5.961   5.477  13.553 -0.3082  0.3640  0.5850
 1959TIP3    H127368   5.881   5.451  13.599  0.2750  0.4104  1.6386
 1959TIP3    H227369   5.984   5.400  13.502 -1.3056  0.5229 -0.1229
 1960TIP3   OH227370   1.138   6.168  12.686 -0.1615 -0.0038  0.6016
 1960TIP3    H127371   1.143   6.253  12.643 -0.0858  0.8360  2.2060
 1960TIP3    H227372   1.230   6.140  12.695 -0.1851 -0.2397  0.0907
 1961TIP3   OH227373   2.687   4.005  15.882  0.0088 -0.0624  0.0035
 1961TIP3    H127374   2.782   3.996  15.885 -0.0202  0.2416  2.2493
 1961TIP3    H227375   2.669   4.029  15.791  1.8528 -2.2812 -0.9908
 1962TIP3   OH227376   1.217   5.571  16.108  0.0971  0.3225 -0.1900
 1962TIP3    H127377   1.137   5.540  16.066 -0.4141  1.7298 -0.2755
 1962TIP3    H227378   1.187   5.627  16.179  0.9950 -0.3904  0.7564
 1963TIP3   OH227379   0.829   4.525   2.546  0.1806  0.5722  0.7150
 1963TIP3    H127380   0.774   4.447   2.549 -1.4891  1.7903  2.8697
 1963TIP3    H227381   0.819   4.558   2.456  0.0115 -1.0328  0.1344
 1964TIP3   OH227382   0.034   0.601   2.877  1.0259 -1.0728 -0.3682
 1964TIP3    H127383   0.062   0.515   2.910  2.5030 -0.3451  0.3089
 1964TIP3    H227384   0.046   0.660   2.951 -1.1795 -0.4966 -0.4425
 1965TIP3   OH227385   6.668   5.295   0.157  0.4491  1.0251  0.1183
 1965TIP3    H127386   6.733   5.298   0.228 -1.4185  0.6699  1.8796
 1965TIP3    H227387   6.586   5.319   0.199 -0.2606  3.4537 -2.4977
 1966TIP3   OH227388   3.238   1.740  16.534  0.1247 -0.1994  0.0647
 1966TIP3    H127389   3.286   1.794  16.471 -0.0301  1.2365  1.1440
 1966TIP3    H227390   3.286   1.657  16.537  0.5233 -0.0245 -1.4227
 1967TIP3   OH227391   4.257   5.729   1.336  0.3847 -0.2857 -0.1446
 1967TIP3    H127392   4.273   5.635   1.333  0.1828 -0.3493  0.8546
 1967TIP3    H227393   4.170   5.740   1.299  1.0782 -0.3126 -1.8751
 1968TIP3   OH227394   2.779   6.130  15.632 -0.1817  0.0253 -0.5727
 1968TIP3    H127395   2.818   6.200  15.580 -0.4123 -0.0809 -0.8875
 1968TIP3    H227396   2.854   6.083  15.668  0.0602  2.7935  2.8919
 1969TIP3   OH227397   3.294   0.921  13.996 -0.0266 -1.0168 -0.0679
 1969TIP3    H127398   3.272   1.000  14.046  0.1480 -1.4809  0.7469
 1969TIP3    H227399   3.378   0.941  13.955  0.6919 -1.2856  1.2522
 1970TIP3   OH227400   5.113   5.940   3.509 -0.0277  0.5142  0.4846
 1970TIP3    H127401   5.092   5.989   3.430  0.8563  0.8106  0.4279
 1970TIP3    H227402   5.033   5.941   3.561 -0.4961  0.6325 -0.2423
 1971TIP3   OH227403   0.491   1.617  12.314  0.0418 -0.0686  0.4355
 1971TIP3    H127404   0.511   1.660  12.231 -1.7117 -0.0757 -0.0061
 1971TIP3    H227405   0.570   1.629  12.367  0.8486  0.6848 -0.9188
 1972TIP3   OH227406   0.196   0.208   4.827 -0.7658  0.5572  0.1481
 1972TIP3    H127407   0.218   0.123   4.789 -1.0410  0.0966  0.9953
 1972TIP3    H227408   0.201   0.269   4.754 -0.6459 -0.2014 -0.4868
 1973TIP3   OH227409   5.013   1.674   5.103 -0.2603 -0.1242 -0.1157
 1973TIP3    H127410   5.001   1.653   5.196 -2.2304 -1.1694 -0.5845
 1973TIP3    H227411   4.939   1.733   5.083  0.0308 -0.0865 -1.0793
 1974TIP3   OH227412   2.772   4.188  12.479  0.6753 -0.1396 -0.2009
 1974TIP3    H127413   2.714   4.258  12.450  0.9840  0.5584  0.8333
 1974TIP3    H227414   2.802   4.145  12.398 -0.9785 -0.2698 -0.7493
 1975TIP3   OH227415   6.191   1.060   0.618 -0.0443 -0.1388 -0.1406
 1975TIP3    H127416   6.161   1.019   0.537  1.6847  1.5655 -1.6989
 1975TIP3    H227417   6.269   1.010   0.642 -0.5630 -0.6504  0.5063
 1976TIP3   OH227418   4.019   5.941  17.082 -0.4661 -0.3383 -0.7576
 1976TIP3    H127419   4.030   5.902  17.169  1.6767  2.7786  0.4665
 1976TIP3    H227420   3.933   5.984  17.087 -1.1536 -1.6666 -0.8370
 1977TIP3   OH227421   2.691   4.424  15.708  0.3946  0.2780  0.0388
 1977TIP3    H127422   2.761   4.482  15.679  1.8351 -0.7656  1.3990
 1977TIP3    H227423   2.719   4.336  15.684 -1.2979  0.0031 -1.0582
 1978TIP3   OH227424   5.515   0.229   2.723 -0.1940  0.2440 -0.3490
 1978TIP3    H127425   5.578   0.254   2.791 -0.9999  1.1880  0.0698
 1978TIP3    H227426   5.559   0.248   2.640  0.4495 -0.0563 -0.0779
 1979TIP3   OH227427   3.175   1.922   3.663  0.2925 -0.5647 -0.1445
 1979TIP3    H127428   3.170   1.964   3.749  0.5416 -1.3478  0.2550
 1979TIP3    H227429   3.227   1.983   3.610 -1.4821  0.8591 -0.3046
 1980TIP3   OH227430   0.682   2.069  11.748 -0.1577  0.0542  0.1744
 1980TIP3    H127431   0.754   2.054  11.809 -0.9126 -0.4601  0.9527
 1980TIP3    H227432   0.695   2.003  11.680 -0.0509 -0.2326  0.4696
 1981TIP3   OH227433   0.916   0.107   2.677  0.1525  0.6569 -0.3570
 1981TIP3    H127434   0.987   0.102   2.742 -1.7201 -0.1465  1.6798
 1981TIP3    H227435   0.853   0.042   2.706 -2.2331  2.5544 -1.1698
 1982TIP3   OH227436   6.033   3.197   5.014 -0.1976  0.3948  0.1168
 1982TIP3    H127437   6.016   3.103   5.008 -0.0376  0.4502 -1.6579
 1982TIP3    H227438   5.957   3.238   4.973 -0.0674  1.0179  0.4935
 1983TIP3   OH227439   5.248   4.666   3.979  0.0889 -0.1535 -0.3561
 1983TIP3    H127440   5.262   4.640   4.070  1.3817  2.1886  0.1523
 1983TIP3    H227441   5.165   4.624   3.955 -0.2585 -0.8294  1.8815
 1984TIP3   OH227442   4.400   0.378  15.050 -0.4181 -0.2425  0.4851
 1984TIP3    H127443   4.393   0.434  15.128  0.6315  0.2933  0.1940
 1984TIP3    H227444   4.414   0.290  15.085  0.1616  0.0143  0.8957
 1985TIP3   OH227445   0.995   2.718   4.323 -0.5238  0.3016  0.6020
 1985TIP3    H127446   0.934   2.788   4.299  0.1836  0.9797  0.7383
 1985TIP3    H227447   0.976   2.700   4.415  0.1876  1.2496  0.9421
 1986TIP3   OH227448   5.427   0.858   3.077 -0.1351  0.4868 -0.3224
 1986TIP3    H127449   5.498   0.916   3.105  0.1699  0.4725 -1.0321
 1986TIP3    H227450   5.434   0.857   2.981 -2.9115  2.8171 -0.6297
 1987TIP3   OH227451   0.409   1.347   1.234 -0.2181 -0.2995 -0.4630
 1987TIP3    H127452   0.477   1.282   1.216 -1.5288 -1.2737 -2.0310
 1987TIP3    H227453   0.359   1.310   1.307 -1.1370 -1.2376 -1.5365
 1988TIP3   OH227454   0.476   4.808   3.990  0.2100 -0.5790 -0.1464
 1988TIP3    H127455   0.559   4.846   4.018  1.4415 -2.0404 -1.7168
 1988TIP3    H227456   0.481   4.717   4.016 -0.4737 -0.9019 -1.1165
 1989TIP3   OH227457   2.259   5.660  15.981 -0.4237 -0.5215 -0.5137
 1989TIP3    H127458   2.228   5.745  15.949 -1.6630  0.0493  2.0628
 1989TIP3    H227459   2.185   5.601  15.967 -0.3064 -0.6805 -0.4548
 1990TIP3   OH227460   4.317   2.346  11.534  0.0065 -0.1581 -0.3722
 1990TIP3    H127461   4.385   2.403  11.571  0.7899  0.1477 -2.1913
 1990TIP3    H227462   4.245   2.405  11.514 -0.1381 -0.2049  0.0189
 1991TIP3   OH227463   3.163   5.906   5.241 -0.3330 -0.7739  0.1363
 1991TIP3    H127464   3.151   5.903   5.336 -0.9661 -0.5833  0.0653
 1991TIP3    H227465   3.179   5.816   5.215  1.0660 -0.6605  0.5801
 1992TIP3   OH227466   0.707   6.326  13.657 -0.3829 -0.6491 -0.2347
 1992TIP3    H127467   0.755   6.383  13.597 -1.1383 -0.4350 -0.6541
 1992TIP3    H227468   0.681   6.251  13.603 -0.7049 -0.6560 -0.0747
 1993TIP3   OH227469   4.938   1.847   0.904  0.5990  0.3782  0.0823
 1993TIP3    H127470   5.020   1.866   0.950 -1.1464  0.7106  3.1807
 1993TIP3    H227471   4.941   1.902   0.826  2.8976  1.0802  0.6200
 1994TIP3   OH227472   3.997   5.694  16.471 -0.1377  0.1995 -0.6508
 1994TIP3    H127473   4.087   5.668  16.456 -0.3613 -0.9017 -0.0989
 1994TIP3    H227474   3.997   5.789  16.458  1.2340  0.2913 -0.0043
 1995TIP3   OH227475   2.672   1.275  13.683  0.4493 -0.7290  0.0571
 1995TIP3    H127476   2.680   1.363  13.718 -0.2291 -0.4682 -0.4244
 1995TIP3    H227477   2.746   1.265  13.624 -1.2115  0.7102 -2.3665
 1996TIP3   OH227478   6.450   2.502  12.833 -0.1321  0.3372 -0.2568
 1996TIP3    H127479   6.531   2.489  12.881 -0.7642 -0.9420  0.5079
 1996TIP3    H227480   6.429   2.594  12.845  0.5020  0.3597  0.6827
 1997TIP3   OH227481   3.949   4.601   3.816 -0.3022  0.0263  0.5039
 1997TIP3    H127482   3.983   4.536   3.877  0.4264  1.1360  1.2863
 1997TIP3    H227483   3.855   4.603   3.833  0.0537  1.1531  2.3796
 1998TIP3   OH227484   6.792   6.397   6.335  0.1889 -0.8044  0.1892
 1998TIP3    H127485   6.802   6.436   6.421 -1.7865  0.5643 -0.1807
 1998TIP3    H227486   6.881   6.392   6.300  0.9415 -0.9052  2.0755
 1999TIP3   OH227487   3.767   6.130  15.897  0.0061 -0.0695 -0.4112
 1999TIP3    H127488   3.726   6.197  15.952 -0.7077 -2.2336  1.7674
 1999TIP3    H227489   3.719   6.135  15.814 -0.3528  1.7655 -0.1234
 2000TIP3   OH227490   3.973   3.746   4.878  0.0959 -0.1121  0.2665
 2000TIP3    H127491   4.054   3.695   4.872 -1.4848 -2.6636 -0.2342
 2000TIP3    H227492   3.973   3.780   4.968  0.8618 -1.6416  0.8757
 2001TIP3   OH227493   3.702   6.349  13.383 -0.5313  0.6491 -0.2755
 2001TIP3    H127494   3.681   6.376  13.294  2.1225  1.7344 -0.6117
 2001TIP3    H227495   3.634   6.285  13.405 -2.3313  1.7593 -2.3543
 2002TIP3   OH227496   2.098   1.798  16.186  0.1319 -0.0367  0.0249
 2002TIP3    H127497   2.099   1.879  16.237 -1.0023  0.0879 -0.1403
 2002TIP3    H227498   2.125   1.731  16.249 -1.3163  0.1098  0.8437
 2003TIP3   OH227499   2.737   5.922  11.501 -0.4426 -0.1116 -0.2111
 2003TIP3    H127500   2.767   5.861  11.433 -0.0941  0.0904 -0.2422
 2003TIP3    H227501   2.703   5.997  11.452  0.0709  0.1572 -0.1650
 2004TIP3   OH227502   0.550   5.136   1.974 -0.3872  0.2101  1.1039
 2004TIP3    H127503   0.520   5.074   1.908 -2.9119  1.8843  0.6119
 2004TIP3    H227504   0.645   5.125   1.976 -0.3608 -0.6037 -2.0557
 2005TIP3   OH227505   0.523   3.702   5.984  0.2036 -0.8391  0.2254
 2005TIP3    H127506   0.466   3.746   6.047  1.2471  0.2756  0.4165
 2005TIP3    H227507   0.592   3.662   6.038  1.6999  1.0247 -0.2582
 2006TIP3   OH227508   6.444   5.095  16.752  0.2725  0.1607  0.0908
 2006TIP3    H127509   6.461   5.097  16.847 -0.4566 -0.7226  0.2367
 2006TIP3    H227510   6.515   5.148  16.715 -0.1788  1.6321  1.2380
 2007TIP3   OH227511   2.857   3.366   1.994  0.2513 -0.2501 -0.0008
 2007TIP3    H127512   2.813   3.450   2.008 -0.0987 -0.3408 -0.5494
 2007TIP3    H227513   2.930   3.386   1.936  0.3590 -0.2677  0.1293
 2008TIP3   OH227514   5.815   0.562  16.369 -0.3008 -0.1651 -0.0297
 2008TIP3    H127515   5.758   0.537  16.441 -1.1338  0.2948 -0.5200
 2008TIP3    H227516   5.803   0.656  16.360 -0.7617 -0.3262 -1.2340
 2009TIP3   OH227517   1.200   4.475  14.924 -0.5393 -0.1791  0.6427
 2009TIP3    H127518   1.241   4.509  15.004  0.5546  0.1298 -0.0329
 2009TIP3    H227519   1.259   4.406  14.894 -1.5500 -1.0765  0.7316
 2010TIP3   OH227520   3.948   1.282  12.005  0.0595 -0.0077  0.0457
 2010TIP3    H127521   3.919   1.354  11.949  0.6915 -0.6957 -1.1920
 2010TIP3    H227522   3.922   1.308  12.093  0.9458  2.0786 -0.2732
 2011TIP3   OH227523   5.670   2.940   3.177 -0.0610 -0.2528 -0.5988
 2011TIP3    H127524   5.663   2.855   3.134  0.4483 -0.5026 -0.1883
 2011TIP3    H227525   5.581   2.975   3.175 -0.4366 -1.1589 -0.0239
 2012TIP3   OH227526   4.357   1.388  13.817  0.4645  0.4046  0.0319
 2012TIP3    H127527   4.436   1.427  13.781 -0.0432  0.0753 -1.4648
 2012TIP3    H227528   4.383   1.299  13.843  0.6665  0.4218 -0.1158
 2013TIP3   OH227529   5.770   6.780  16.067 -0.4367 -0.2991  0.0113
 2013TIP3    H127530   5.687   6.735  16.052 -0.6695  0.1055  0.0854
 2013TIP3    H227531   5.835   6.725  16.023 -0.9417  0.2062 -1.3904
 2014TIP3   OH227532   6.482   4.012  15.274 -0.2311  0.0311  0.3229
 2014TIP3    H127533   6.501   4.063  15.195  1.0391  0.8593  1.1380
 2014TIP3    H227534   6.387   4.005  15.276 -0.3782  1.6391 -0.2818
 2015TIP3   OH227535   3.297   4.727   4.894  0.2716  0.3179  0.0781
 2015TIP3    H127536   3.353   4.777   4.834  1.3071 -0.4872  0.3826
 2015TIP3    H227537   3.322   4.757   4.981  0.7292 -0.5678  0.2508
 2016TIP3   OH227538   0.745   3.843   1.314 -0.4234 -0.3346  0.2209
 2016TIP3    H127539   0.840   3.833   1.319 -0.3884 -0.2767 -0.2294
 2016TIP3    H227540   0.733   3.930   1.274 -0.6466 -0.7394 -0.6144
 2017TIP3   OH227541   0.526   3.389   1.802 -0.2496  0.4192  0.2220
 2017TIP3    H127542   0.599   3.444   1.832  0.1886 -0.0662  0.0524
 2017TIP3    H227543   0.519   3.320   1.867  0.4965 -0.4564 -0.6128
 2018TIP3   OH227544   0.390   1.891   0.547  0.0105 -0.4324 -0.3068
 2018TIP3    H127545   0.441   1.872   0.468  1.2640  1.6848 -0.0461
 2018TIP3    H227546   0.316   1.943   0.516  1.1436  1.4106  0.0530
 2019TIP3   OH227547   1.992   3.347  14.108  0.0329  0.1872 -0.0064
 2019TIP3    H127548   1.910   3.392  14.090  1.2860  2.5478 -0.1174
 2019TIP3    H227549   2.000   3.347  14.203  0.7868  1.6917 -0.0519
 2020TIP3   OH227550   0.184   6.369  11.465 -0.1346  0.3098  0.0819
 2020TIP3    H127551   0.197   6.308  11.392 -1.8185  1.2361 -1.0198
 2020TIP3    H227552   0.122   6.323  11.523 -0.2455  0.3523 -0.0032
 2021TIP3   OH227553   0.968   0.198   5.710  0.1750  0.2248  0.3063
 2021TIP3    H127554   1.044   0.182   5.654 -0.9065  0.7459 -1.3543
 2021TIP3    H227555   0.967   0.125   5.772  2.5194  0.6676  0.9272
 2022TIP3   OH227556   0.183   5.909  13.159  0.1326 -0.6372  0.5804
 2022TIP3    H127557   0.112   5.957  13.203  1.1523  1.1010  0.3621
 2022TIP3    H227558   0.181   5.822  13.199 -2.4583 -0.8098  0.2141
 2023TIP3   OH227559   0.262   2.402   1.097 -0.5117  0.3195 -0.1165
 2023TIP3    H127560   0.277   2.363   1.011  2.1021  0.6545  0.1572
 2023TIP3    H227561   0.222   2.332   1.148 -0.0362 -0.5808 -0.9528
 2024TIP3   OH227562   2.389   5.851  14.637  0.3219  0.0947  0.0666
 2024TIP3    H127563   2.388   5.921  14.572  0.3197  0.7868  0.7924
 2024TIP3    H227564   2.466   5.799  14.616  1.0670  1.0908  0.3197
 2025TIP3   OH227565   3.111   5.646   1.609 -0.7066  0.0136  0.2925
 2025TIP3    H127566   3.200   5.612   1.596 -0.5936 -0.6394  2.6934
 2025TIP3    H227567   3.054   5.572   1.590 -0.7758  0.4546 -1.3291
 2026TIP3   OH227568   3.246   4.399  13.322 -0.4634 -0.0514 -0.1924
 2026TIP3    H127569   3.162   4.389  13.276 -0.6025 -0.3708  0.1300
 2026TIP3    H227570   3.266   4.312  13.355  0.3675 -0.1342 -0.9035
 2027TIP3   OH227571   5.225   3.383   4.256  0.6366 -0.5698 -0.1727
 2027TIP3    H127572   5.198   3.351   4.170  0.0730  1.7107 -0.8714
 2027TIP3    H227573   5.211   3.308   4.314  0.5976 -2.0011 -1.9573
 2028TIP3   OH227574   4.253   6.456  15.751  0.1409  0.3686  0.2893
 2028TIP3    H127575   4.300   6.495  15.678  0.8246 -0.6693  0.1607
 2028TIP3    H227576   4.211   6.530  15.795  1.0403  1.1796 -0.1986
 2029TIP3   OH227577   3.253   2.182   1.706 -0.4570  0.4602  0.1793
 2029TIP3    H127578   3.184   2.247   1.721 -1.7713 -0.2080 -2.6760
 2029TIP3    H227579   3.297   2.212   1.626  1.4656 -0.0592  1.0239
 2030TIP3   OH227580   6.570   1.589  12.934 -0.1840 -0.2666 -0.0995
 2030TIP3    H127581   6.548   1.618  12.845  1.1761  0.2140 -0.2792
 2030TIP3    H227582   6.485   1.583  12.978 -0.6985  1.4977 -0.8180
 2031TIP3   OH227583   0.100   0.470   4.733  0.3558 -0.4680  0.0300
 2031TIP3    H127584   0.154   0.547   4.747 -0.6275  0.6987 -2.3604
 2031TIP3    H227585   0.011   0.503   4.727 -0.2540 -1.9685  0.4699
 2032TIP3   OH227586   5.795   1.371  13.642  0.1280  0.4397 -0.1530
 2032TIP3    H127587   5.735   1.297  13.634 -0.6348  1.0119  0.2548
 2032TIP3    H227588   5.881   1.330  13.654 -0.0287 -0.3872 -1.6980
 2033TIP3   OH227589   3.869   0.401   3.709 -0.0130  0.8499 -0.1685
 2033TIP3    H127590   3.885   0.414   3.616 -1.4507 -2.5948 -0.9975
 2033TIP3    H227591   3.955   0.381   3.746  0.4927  1.8034 -0.8063
 2034TIP3   OH227592   3.532   4.007  13.413 -0.0282 -0.3093 -0.1243
 2034TIP3    H127593   3.447   3.997  13.455  0.1899 -0.0163  0.3891
 2034TIP3    H227594   3.584   4.059  13.475  0.6526 -0.8289 -0.2444
 2035TIP3   OH227595   4.834   4.594   2.230  0.0861  0.2648 -0.4826
 2035TIP3    H127596   4.894   4.534   2.188 -1.2174 -1.5761  0.2396
 2035TIP3    H227597   4.884   4.633   2.302  1.0360  0.3107 -1.1739
 2036TIP3   OH227598   0.280   4.969  15.565 -0.3727 -0.4833 -0.5319
 2036TIP3    H127599   0.236   4.885  15.575  0.3967 -1.0096 -1.5155
 2036TIP3    H227600   0.371   4.952  15.585  0.4573 -0.6964 -4.0728
 2037TIP3   OH227601   4.256   4.444   0.648 -0.5581 -0.1212 -0.1389
 2037TIP3    H127602   4.323   4.498   0.607 -0.7019 -0.0530 -0.2840
 2037TIP3    H227603   4.219   4.500   0.717  0.6138 -0.7089  0.9871
 2038TIP3   OH227604   2.760   5.202  12.618 -0.4627  0.2200 -0.7455
 2038TIP3    H127605   2.832   5.203  12.556 -0.3038  0.2763 -0.5603
 2038TIP3    H227606   2.682   5.185  12.565 -0.2119 -0.6543 -0.8326
 2039TIP3   OH227607   2.173   2.072  16.614  0.4547 -0.2302 -0.1431
 2039TIP3    H127608   2.127   2.153  16.634 -3.4383 -2.1086 -0.9295
 2039TIP3    H227609   2.174   2.024  16.698  1.2165 -0.0706 -0.0637
 2040TIP3   OH227610   5.239   5.114   5.276  0.2767  0.9068  0.5016
 2040TIP3    H127611   5.245   5.208   5.264  0.4034  0.6643 -1.4699
 2040TIP3    H227612   5.321   5.080   5.240 -0.4446 -0.0709 -0.2604
 2041TIP3   OH227613   4.430   5.728   3.998 -0.1361 -0.2773  0.2408
 2041TIP3    H127614   4.351   5.674   4.008  0.5718 -1.5266 -0.7588
 2041TIP3    H227615   4.468   5.730   4.086 -0.2770 -1.2535  0.3365
 2042TIP3   OH227616   5.711   3.093   5.834  0.5657  0.3146 -0.4411
 2042TIP3    H127617   5.644   3.123   5.774  1.2972  1.3865 -0.7404
 2042TIP3    H227618   5.692   3.000   5.848 -0.5662  0.4550 -1.0368
 2043TIP3   OH227619   1.868   0.756   5.490  0.1622 -0.6528 -0.2767
 2043TIP3    H127620   1.869   0.672   5.444 -0.1755 -0.4155 -0.7182
 2043TIP3    H227621   1.853   0.821   5.421  0.1627 -0.2523  0.0998
 2044TIP3   OH227622   5.893   6.562   5.472  0.4531 -0.3294  0.0537
 2044TIP3    H127623   5.878   6.642   5.421  0.3580 -0.1462  0.3704
 2044TIP3    H227624   5.813   6.511   5.461  0.4012 -0.2548  0.0864
 2045TIP3   OH227625   3.172   6.416   3.716  0.5570  0.5949  0.4904
 2045TIP3    H127626   3.180   6.510   3.732 -0.1564  1.0332 -1.6332
 2045TIP3    H227627   3.183   6.406   3.622  2.5509 -1.6825  0.9171
 2046TIP3   OH227628   0.819   6.251   6.138  0.6357  0.5347 -0.1351
 2046TIP3    H127629   0.879   6.221   6.205 -0.2779 -1.2431 -0.0908
 2046TIP3    H227630   0.847   6.206   6.058 -0.2292  0.1682 -0.2458
 2047TIP3   OH227631   2.170   4.218  12.281  0.3341  0.7442 -0.0525
 2047TIP3    H127632   2.188   4.165  12.359 -1.1642  0.3831  0.0556
 2047TIP3    H227633   2.230   4.184  12.214 -0.0141 -0.5135  0.2656
 2048TIP3   OH227634   5.017   2.227   1.647 -0.1353  0.3563 -0.2281
 2048TIP3    H127635   5.046   2.202   1.559  0.3439  2.1561 -0.6151
 2048TIP3    H227636   4.924   2.245   1.637 -0.0539  0.6873 -0.3989
 2049TIP3   OH227637   4.608   3.852   4.937  0.7190  0.1800  0.7336
 2049TIP3    H127638   4.674   3.914   4.967  2.1456 -1.1218  0.3378
 2049TIP3    H227639   4.654   3.796   4.874 -1.5682  1.2671 -2.0258
 2050TIP3   OH227640   2.076   5.507   3.053 -0.2374  0.4576 -0.4375
 2050TIP3    H127641   2.053   5.487   2.962  0.3071  0.8483 -0.6645
 2050TIP3    H227642   2.171   5.519   3.051 -0.1964  0.2778  0.2220
 2051TIP3   OH227643   2.581   2.206  12.823 -0.3005  0.2252 -0.4628
 2051TIP3    H127644   2.519   2.182  12.754 -0.1661 -1.3992 -0.0225
 2051TIP3    H227645   2.533   2.268  12.878 -0.7281  0.7973 -1.4568
 2052TIP3   OH227646   5.363   1.015  13.993  0.1331  0.0502  0.1036
 2052TIP3    H127647   5.394   0.928  13.968  0.0995 -0.2216  1.0073
 2052TIP3    H227648   5.407   1.074  13.932  0.1881 -0.5915 -0.4935
 2053TIP3   OH227649   4.311   0.041   3.047 -0.1082 -0.3983  0.0184
 2053TIP3    H127650   4.247   0.112   3.053  0.7814  0.3165  1.4959
 2053TIP3    H227651   4.353   0.052   2.962 -1.4030 -0.4131 -0.6317
 2054TIP3   OH227652   0.825   6.022   4.169 -0.3320 -0.2987  0.1135
 2054TIP3    H127653   0.807   5.963   4.242 -0.9020 -0.4643 -0.1554
 2054TIP3    H227654   0.813   5.967   4.091  3.1542 -0.9438 -0.0824
 2055TIP3   OH227655   1.526   6.740  13.310 -0.4079  0.2561 -0.0474
 2055TIP3    H127656   1.564   6.662  13.271 -1.1162 -0.9988  1.7217
 2055TIP3    H227657   1.592   6.770  13.373 -0.9417 -0.0374  0.6608
 2056TIP3   OH227658   1.993   3.288  12.087  0.1710 -0.1824  0.4350
 2056TIP3    H127659   1.952   3.337  12.016 -1.1225 -1.1288  0.5035
 2056TIP3    H227660   2.082   3.271  12.056  0.1302  0.8141 -0.2600
 2057TIP3   OH227661   3.752   5.908   1.405 -0.5324 -0.2967  0.0439
 2057TIP3    H127662   3.734   5.867   1.489  0.0815 -1.4794 -0.3944
 2057TIP3    H227663   3.689   5.869   1.344 -1.7992  1.4381  0.1734
 2058TIP3   OH227664   2.609   6.285  13.639  0.2572  0.0839  0.5463
 2058TIP3    H127665   2.621   6.203  13.689 -1.0075  0.3766  1.3806
 2058TIP3    H227666   2.579   6.348  13.705 -2.5503  0.1850 -0.7655
 2059TIP3   OH227667   3.306   0.499   1.989  0.4097 -0.6146 -0.1034
 2059TIP3    H127668   3.230   0.466   2.038 -0.2265  1.1307  0.1244
 2059TIP3    H227669   3.378   0.444   2.018 -0.4506 -1.2107  0.9574
 2060TIP3   OH227670   5.786   4.659   4.330 -0.2030  0.5163  0.0848
 2060TIP3    H127671   5.805   4.704   4.247  0.8390  0.0548  0.0527
 2060TIP3    H227672   5.816   4.720   4.397  1.2522 -0.1225  0.0400
 2061TIP3   OH227673   5.904   1.121   5.659 -0.0026  0.0491 -0.3017
 2061TIP3    H127674   5.819   1.081   5.642  0.7229 -1.2220 -1.0540
 2061TIP3    H227675   5.952   1.054   5.708  0.7713  0.5344 -0.3949
 2062TIP3   OH227676   1.728   3.965   3.382  0.4720  0.1357  0.3848
 2062TIP3    H127677   1.680   3.922   3.311  1.9392 -0.0956 -0.4883
 2062TIP3    H227678   1.691   4.053   3.386 -1.0488 -0.4872  0.7403
 2063TIP3   OH227679   2.599   0.528   4.775 -0.0151 -0.1164  0.0783
 2063TIP3    H127680   2.535   0.561   4.839  1.8501  1.3219  1.2486
 2063TIP3    H227681   2.622   0.441   4.808 -1.4821 -0.7178 -0.4473
 2064TIP3   OH227682   3.307   5.464  13.877  0.0525 -0.5282  0.2129
 2064TIP3    H127683   3.332   5.411  13.953  0.8454  1.6951  1.5731
 2064TIP3    H227684   3.390   5.494  13.840 -0.3078 -2.1963 -2.0096
 2065TIP3   OH227685   6.336   0.209  15.638 -0.6398  0.0966  0.2069
 2065TIP3    H127686   6.280   0.151  15.586 -1.4255  1.4488 -0.4699
 2065TIP3    H227687   6.299   0.205  15.726 -1.4392  0.5142 -0.1048
 2066TIP3   OH227688   6.383   3.228   3.911 -0.1690  0.3432 -0.1141
 2066TIP3    H127689   6.441   3.295   3.875 -1.1277  1.3454  0.1676
 2066TIP3    H227690   6.379   3.161   3.843 -0.9797  1.6337 -1.3767
 2067TIP3   OH227691   4.711   2.142  14.622  0.1062  0.1832  0.0092
 2067TIP3    H127692   4.744   2.078  14.685  1.9958  0.0370 -1.1061
 2067TIP3    H227693   4.789   2.178  14.580 -1.0629  1.1635 -1.3931
 2068TIP3   OH227694   2.550   0.903   1.666 -0.2784 -0.0678 -0.0803
 2068TIP3    H127695   2.602   0.927   1.743 -1.9310 -1.0502  1.3870
 2068TIP3    H227696   2.532   0.986   1.622  1.2550  0.4320  0.1839
 2069TIP3   OH227697   2.016   2.495   3.414 -0.0659 -0.2327  0.4584
 2069TIP3    H127698   1.926   2.469   3.433 -0.2962 -1.5315 -2.2454
 2069TIP3    H227699   2.068   2.451   3.481 -1.0065 -3.2369 -0.7084
 2070TIP3   OH227700   1.939   3.571   3.185  0.2424 -0.0210  0.0274
 2070TIP3    H127701   1.897   3.586   3.100  1.0268  1.0772 -0.1769
 2070TIP3    H227702   1.978   3.484   3.177 -1.3362 -0.7348 -0.0488
 2071TIP3   OH227703   0.937   6.589   0.531  0.9787  0.1460  0.0616
 2071TIP3    H127704   0.928   6.684   0.538 -0.2117 -0.0424  1.2717
 2071TIP3    H227705   0.901   6.568   0.445  0.3465  0.6919  0.1906
 2072TIP3   OH227706   2.911   3.466  16.631  0.4258 -0.0250  0.3417
 2072TIP3    H127707   2.850   3.397  16.606 -0.3488  0.1415  1.7171
 2072TIP3    H227708   2.973   3.423  16.690 -0.5066  0.6246  1.7992
 2073TIP3   OH227709   2.441   1.048  15.179 -0.0882  0.0615 -0.1036
 2073TIP3    H127710   2.487   1.028  15.098 -1.0488  1.2516 -0.9621
 2073TIP3    H227711   2.449   1.143  15.189 -1.4368  0.1439  0.2841
 2074TIP3   OH227712   4.348   1.094  15.095 -0.0627 -0.3860 -0.0052
 2074TIP3    H127713   4.360   1.176  15.143  0.5788 -0.6010  0.2108
 2074TIP3    H227714   4.254   1.090  15.076  0.0602  0.9432 -0.9981
 2075TIP3   OH227715   4.847   1.746   3.907 -0.5643 -0.6000 -0.5163
 2075TIP3    H127716   4.933   1.706   3.896 -0.8679 -1.1475 -0.9449
 2075TIP3    H227717   4.789   1.673   3.929 -1.0107 -0.3096 -0.7125
 2076TIP3   OH227718   5.432   5.817  14.125  0.2526  0.0346  0.0025
 2076TIP3    H127719   5.458   5.726  14.106  0.1506  0.0904 -0.4205
 2076TIP3    H227720   5.499   5.870  14.083  0.5505  0.1462  0.6318
 2077TIP3   OH227721   2.284   4.783   0.602  0.1640 -0.1137 -0.0445
 2077TIP3    H127722   2.369   4.738   0.600  0.0623 -0.2568 -1.3779
 2077TIP3    H227723   2.225   4.725   0.554 -0.2625  0.8735 -0.7106
 2078TIP3   OH227724   0.746   6.713  15.086 -0.2617  0.0733 -0.1880
 2078TIP3    H127725   0.767   6.622  15.064 -0.5960 -0.2258  0.6781
 2078TIP3    H227726   0.807   6.734  15.157 -0.6432  0.2969  0.0745
 2079TIP3   OH227727   2.158   4.098  15.372 -0.3356 -0.8848 -0.2798
 2079TIP3    H127728   2.189   4.048  15.297 -0.4741 -0.6441 -0.4988
 2079TIP3    H227729   2.092   4.042  15.413 -0.2148 -1.0428 -0.3037
 2080TIP3   OH227730   4.341   5.474   1.008 -0.0053 -0.2424  0.0949
 2080TIP3    H127731   4.353   5.379   1.000  1.8212  0.1981 -2.9971
 2080TIP3    H227732   4.428   5.508   1.027 -0.3574  0.9858 -0.4457
 2081TIP3   OH227733   3.669   1.189   3.958  0.1044 -0.1172  0.3908
 2081TIP3    H127734   3.585   1.185   4.003 -0.6737  1.0785 -0.9072
 2081TIP3    H227735   3.655   1.145   3.874  0.9184 -0.3493  0.3635
 2082TIP3   OH227736   4.627   2.024   1.348 -0.5067  0.6685  0.3374
 2082TIP3    H127737   4.620   1.958   1.280 -0.5712 -2.2619  3.1007
 2082TIP3    H227738   4.719   2.050   1.348 -0.3758  0.2033 -0.4231
 2083TIP3   OH227739   6.643   3.763  13.833 -0.4513  0.3010 -0.2638
 2083TIP3    H127740   6.678   3.852  13.840  1.2640 -0.2687 -1.3404
 2083TIP3    H227741   6.679   3.729  13.751 -1.7288 -1.1203 -0.2697
 2084TIP3   OH227742   1.992   6.117   3.269  0.1828  0.6082 -0.3705
 2084TIP3    H127743   2.039   6.163   3.200  1.4796  0.0365  0.1129
 2084TIP3    H227744   2.043   6.038   3.285  0.4073  1.1558  1.8539
 2085TIP3   OH227745   6.325   2.621  15.335  0.2006 -0.1675  0.4114
 2085TIP3    H127746   6.253   2.625  15.272  0.3370  1.5321  0.3361
 2085TIP3    H227747   6.322   2.532  15.369 -1.1686 -0.4831 -0.4893
 2086TIP3   OH227748   1.281   3.814   5.133  0.3039  0.1048 -0.1462
 2086TIP3    H127749   1.363   3.785   5.093  1.9706  2.4847  1.4115
 2086TIP3    H227750   1.306   3.837   5.222 -1.6342  2.8916 -0.2914
 2087TIP3   OH227751   2.530   2.872  10.951 -0.1742  0.0945 -0.4451
 2087TIP3    H127752   2.542   2.839  10.862  0.3035  0.5586 -0.5610
 2087TIP3    H227753   2.618   2.899  10.978 -0.0152 -1.7091  0.8423
 2088TIP3   OH227754   3.882   3.167   4.170  0.0382  0.4438  0.1362
 2088TIP3    H127755   3.870   3.205   4.257 -0.8374  0.2819  0.0918
 2088TIP3    H227756   3.814   3.100   4.163 -0.9434  1.5642 -1.2905
 2089TIP3   OH227757   0.780   2.686  16.970  0.1202  0.3003 -0.5501
 2089TIP3    H127758   0.794   2.594  16.948  1.7528 -0.0224  1.6119
 2089TIP3    H227759   0.793   2.734  16.888  2.8455 -1.0980 -0.9784
 2090TIP3   OH227760   2.604   1.891   1.188 -0.2637 -0.2282 -0.7910
 2090TIP3    H127761   2.598   1.865   1.096  0.4843  1.2731 -1.2700
 2090TIP3    H227762   2.546   1.967   1.195 -1.2372 -1.0354  0.2616
 2091TIP3   OH227763   1.491   4.438  11.909  0.3325 -0.0379 -0.0214
 2091TIP3    H127764   1.521   4.374  11.846 -0.0688 -1.4595  1.2070
 2091TIP3    H227765   1.498   4.522  11.864  0.6592 -0.9640 -1.7042
 2092TIP3   OH227766   3.344   4.551  10.701  0.6319 -0.1559  0.1268
 2092TIP3    H127767   3.298   4.631  10.676 -0.1361 -0.5751  0.1901
 2092TIP3    H227768   3.359   4.505  10.619 -0.2224 -0.6426  0.2482
 2093TIP3   OH227769   0.458   0.835   1.532  0.0520 -0.0369 -0.1000
 2093TIP3    H127770   0.500   0.766   1.584 -0.4706  0.7409  1.3853
 2093TIP3    H227771   0.421   0.894   1.597 -1.1104  0.6603 -1.3804
 2094TIP3   OH227772   1.588   0.298  16.559  0.0432 -0.3031  0.2899
 2094TIP3    H127773   1.658   0.347  16.602  0.8159 -2.3713  1.4285
 2094TIP3    H227774   1.551   0.243  16.628 -1.9267 -0.1129 -0.5874
 2095TIP3   OH227775   1.584   4.596  12.503  0.0073 -0.3545  0.1160
 2095TIP3    H127776   1.597   4.508  12.466 -2.8397 -0.5930 -0.4840
 2095TIP3    H227777   1.519   4.583  12.572 -0.1339  1.2047  0.2862
 2096TIP3   OH227778   4.495   6.084   5.630 -0.2164 -0.4535  0.0363
 2096TIP3    H127779   4.582   6.066   5.665  0.0412 -0.0326 -0.3811
 2096TIP3    H227780   4.484   6.179   5.642 -0.8494 -0.5969  0.6202
 2097TIP3   OH227781   1.151   2.161  12.303  0.0719  0.3496 -0.6772
 2097TIP3    H127782   1.158   2.128  12.213  2.0960 -1.3041  0.0286
 2097TIP3    H227783   1.071   2.213  12.303  0.9528  1.8696 -3.8952
 2098TIP3   OH227784   2.365   2.898  16.141  0.0978 -0.2182 -0.0068
 2098TIP3    H127785   2.323   2.866  16.221  1.2902 -1.1102  0.2796
 2098TIP3    H227786   2.320   2.851  16.071 -3.1464  2.9130 -0.1548
 2099TIP3   OH227787   5.796   0.808  14.751 -0.0285  0.3094 -0.6761
 2099TIP3    H127788   5.722   0.791  14.694 -0.0872 -2.3295  0.1583
 2099TIP3    H227789   5.870   0.763  14.710  0.5653  0.7774 -0.1472
 2100TIP3   OH227790   5.486   0.521  16.091  0.3856 -0.2576 -0.8173
 2100TIP3    H127791   5.554   0.585  16.112 -0.6907  0.5110  0.3912
 2100TIP3    H227792   5.417   0.573  16.050 -0.2660 -0.7315 -0.3243
 2101TIP3   OH227793   5.931   5.825  10.718 -0.7355  0.5410 -0.0382
 2101TIP3    H127794   5.935   5.863  10.806 -1.7954  0.8191 -0.1070
 2101TIP3    H227795   6.020   5.833  10.685 -0.4947  1.1021  0.7300
 2102TIP3   OH227796   5.959   6.155  16.659  0.3336 -0.1983  0.2400
 2102TIP3    H127797   6.013   6.199  16.725 -1.1633  2.2587 -0.0965
 2102TIP3    H227798   5.947   6.066  16.692  0.0730  0.8252  3.0109
 2103TIP3   OH227799   1.974   0.401  12.524  0.4477  0.7612  0.2647
 2103TIP3    H127800   1.899   0.459  12.508  0.9848  1.9202  1.7979
 2103TIP3    H227801   2.050   0.451  12.494  0.6269 -0.4319 -1.3246
 2104TIP3   OH227802   2.907   4.410   5.708 -0.8193  0.1204  0.2224
 2104TIP3    H127803   2.950   4.331   5.740 -0.5253  0.5375  0.8583
 2104TIP3    H227804   2.965   4.481   5.733 -0.8326  0.4927 -0.8150
 2105TIP3   OH227805   4.059   4.309  14.875 -0.4107 -0.1281 -0.0979
 2105TIP3    H127806   3.985   4.348  14.828 -0.0782  0.6192 -0.0070
 2105TIP3    H227807   4.095   4.245  14.813 -0.6633  0.0510 -0.4314
 2106TIP3   OH227808   2.123   6.024   5.652 -0.0007  0.2063 -0.7530
 2106TIP3    H127809   2.167   5.941   5.669 -0.4522  0.1172  0.0046
 2106TIP3    H227810   2.088   6.016   5.564  0.6704 -0.0898 -0.9940
 2107TIP3   OH227811   2.442   5.088  16.798  0.5517 -0.6738  0.1143
 2107TIP3    H127812   2.450   5.151  16.726 -0.1613 -1.7035 -0.8793
 2107TIP3    H227813   2.430   5.143  16.876 -0.3861  0.4380 -0.7776
 2108TIP3   OH227814   1.390   5.417   5.012 -0.4361  0.2601 -0.3255
 2108TIP3    H127815   1.411   5.344   5.070 -1.2776 -0.1186 -0.4859
 2108TIP3    H227816   1.446   5.488   5.041 -1.2419  0.2442  1.3065
 2109TIP3   OH227817   6.354   5.401   0.092 -0.1647  0.2180 -0.0381
 2109TIP3    H127818   6.270   5.362   0.070 -0.1284 -0.7474  1.4822
 2109TIP3    H227819   6.376   5.365   0.178  1.7460  0.5430 -0.3582
 2110TIP3   OH227820   2.229   6.227  15.453  0.2624  0.0775 -0.9565
 2110TIP3    H127821   2.256   6.173  15.527  0.3752  0.9741 -0.3388
 2110TIP3    H227822   2.251   6.174  15.376 -0.4956 -1.1531 -0.3391
 2111TIP3   OH227823   4.393   3.160   6.473 -0.1722  0.3134  0.0969
 2111TIP3    H127824   4.412   3.081   6.423 -0.7929  0.2178  0.0079
 2111TIP3    H227825   4.338   3.130   6.546  3.1193 -0.0381  2.5421
 2112TIP3   OH227826   3.469   5.021  11.012 -0.0899 -0.4325 -0.2711
 2112TIP3    H127827   3.489   5.095  11.069  0.3908  0.3809 -1.4811
 2112TIP3    H227828   3.373   5.014  11.015 -0.0611 -0.4808  0.7230
 2113TIP3   OH227829   1.300   6.603   2.220  0.4298 -0.4818 -0.2970
 2113TIP3    H127830   1.210   6.576   2.237  0.6365 -1.0221 -0.0508
 2113TIP3    H227831   1.353   6.545   2.275  0.9891 -0.8219 -1.1876
 2114TIP3   OH227832   3.789   6.282   5.452  0.6327 -0.3888  0.3206
 2114TIP3    H127833   3.747   6.356   5.408 -1.0960 -1.2054  0.5600
 2114TIP3    H227834   3.844   6.323   5.519  0.2938  0.7013 -0.0467
 2115TIP3   OH227835   5.492   0.772  15.616 -0.6953  0.1229  0.6611
 2115TIP3    H127836   5.407   0.733  15.639 -1.3967  1.4957  0.4560
 2115TIP3    H227837   5.481   0.803  15.526 -0.5107  1.7454  1.1841
 2116TIP3   OH227838   6.035   6.651   1.120 -0.0308 -0.5902 -0.0678
 2116TIP3    H127839   6.107   6.643   1.182  0.8209 -0.9113 -1.0825
 2116TIP3    H227840   6.070   6.619   1.037 -0.6169  1.3742 -1.1306
 2117TIP3   OH227841   3.272   2.376  13.847 -0.0020  0.0274 -0.1125
 2117TIP3    H127842   3.314   2.299  13.809 -0.8557 -0.3861 -0.2336
 2117TIP3    H227843   3.267   2.439  13.775 -2.1630 -0.9756 -0.8741
 2118TIP3   OH227844   0.073   0.072  11.711  0.2279  0.1496  0.4248
 2118TIP3    H127845   0.135   0.076  11.784  0.0459  1.1260  0.5432
 2118TIP3    H227846   0.084   0.156  11.666  1.1386 -0.9087 -1.3568
 2119TIP3   OH227847   2.116   2.455  16.428 -0.0763  0.4591  0.1580
 2119TIP3    H127848   2.166   2.413  16.499  0.0839  0.5143  0.0779
 2119TIP3    H227849   2.183   2.489  16.369 -0.2134  0.1274 -0.1884
 2120TIP3   OH227850   6.001   1.345  14.623  0.0867  0.2171  0.1067
 2120TIP3    H127851   5.946   1.420  14.647 -1.4205 -1.1757  1.1184
 2120TIP3    H227852   5.939   1.281  14.586  1.2534 -0.7510 -0.1865
 2121TIP3   OH227853   2.331   0.465  11.813 -0.1056  0.6005 -0.1800
 2121TIP3    H127854   2.341   0.541  11.755  0.3273  1.5680  1.1534
 2121TIP3    H227855   2.239   0.466  11.838 -0.0621  0.7618 -0.0332
 2122TIP3   OH227856   4.478   3.882   2.357 -0.3164 -0.3818  0.7638
 2122TIP3    H127857   4.432   3.915   2.280 -0.5229  0.3367  1.1873
 2122TIP3    H227858   4.455   3.790   2.361 -0.0471 -0.4963 -0.2147
 2123TIP3   OH227859   3.434   3.154   3.682  0.4970 -0.2682 -0.5290
 2123TIP3    H127860   3.359   3.104   3.650  0.2210 -0.8858  1.0195
 2123TIP3    H227861   3.405   3.245   3.680 -0.4426 -0.5407  0.4368
 2124TIP3   OH227862   5.627   3.734   5.062 -0.3015  0.6189  0.3656
 2124TIP3    H127863   5.698   3.756   5.123  2.1816 -0.5701 -1.9437
 2124TIP3    H227864   5.655   3.772   4.979 -2.0135 -0.5621 -0.7789
 2125TIP3   OH227865   5.098   1.207  13.989  0.0727 -0.0212  0.4487
 2125TIP3    H127866   5.100   1.166  14.075 -0.1929  1.1385  1.0136
 2125TIP3    H227867   5.174   1.266  13.988 -0.8210  1.1530  0.4900
 2126TIP3   OH227868   4.418   1.642   4.762 -0.2917 -0.3064  0.6337
 2126TIP3    H127869   4.353   1.689   4.816 -0.2671  0.4101  0.0479
 2126TIP3    H227870   4.472   1.712   4.724  0.3379 -0.8634  0.5013
 2127TIP3   OH227871   1.331   2.581  14.219 -0.3898  0.3528 -0.3301
 2127TIP3    H127872   1.258   2.641  14.206 -1.5049 -0.9781 -0.3089
 2127TIP3    H227873   1.407   2.629  14.187 -1.1591  2.0054  0.2491
 2128TIP3   OH227874   0.327   6.658   3.112  0.5555 -0.0679  0.2124
 2128TIP3    H127875   0.297   6.576   3.072 -0.4998  1.0398 -1.3594
 2128TIP3    H227876   0.405   6.633   3.161  1.6885 -1.6202 -2.2185
 2129TIP3   OH227877   6.695   5.627   0.736 -0.6681  0.1924 -0.2264
 2129TIP3    H127878   6.700   5.618   0.832  0.8712  0.8688 -0.2385
 2129TIP3    H227879   6.778   5.667   0.711 -0.8402 -0.4636 -1.9118
 2130TIP3   OH227880   0.974   2.253  15.045 -0.6281 -0.3446  0.2221
 2130TIP3    H127881   0.917   2.252  15.122  0.5116  2.6628  1.1938
 2130TIP3    H227882   1.056   2.214  15.076 -0.3440  0.4017  0.4530
 2131TIP3   OH227883   3.433   0.216  12.140 -0.1103  0.4655 -0.3211
 2131TIP3    H127884   3.436   0.309  12.161 -0.4704 -0.1634  2.7536
 2131TIP3    H227885   3.487   0.174  12.206 -1.6646 -1.7179 -0.3622
 2132TIP3   OH227886   1.745   2.429  11.529  0.0802 -0.2540 -0.5019
 2132TIP3    H127887   1.819   2.486  11.550 -0.3441  0.7042 -1.5583
 2132TIP3    H227888   1.785   2.353  11.488  0.5368 -0.0483 -0.4506
 2133TIP3   OH227889   4.110   4.104  13.076 -0.7486  0.6946 -0.1698
 2133TIP3    H127890   4.094   4.198  13.065  0.3538  1.1403  1.7234
 2133TIP3    H227891   4.023   4.066  13.089 -1.0841  1.6997  0.6515
 2134TIP3   OH227892   1.933   0.172   0.891 -0.4414  0.0143 -0.6348
 2134TIP3    H127893   1.930   0.195   0.798 -0.2637  1.0212 -0.3983
 2134TIP3    H227894   1.842   0.156   0.915 -0.5085 -0.0428 -0.9310
 2135TIP3   OH227895   4.056   4.947   4.334 -0.1147  0.0284 -0.1897
 2135TIP3    H127896   4.104   4.921   4.255 -1.7064 -1.5988 -0.6507
 2135TIP3    H227897   4.123   4.953   4.402  0.9602 -0.6329 -1.1715
 2136TIP3   OH227898   2.373   4.849  11.629  0.1495  0.1922 -0.0574
 2136TIP3    H127899   2.389   4.811  11.543  1.1181  1.2556 -0.3687
 2136TIP3    H227900   2.442   4.915  11.639 -1.3070  1.6820  0.5500
 2137TIP3   OH227901   2.379   4.919  11.222  0.0671 -0.6137 -0.1045
 2137TIP3    H127902   2.307   4.856  11.215 -0.5833  0.0601  0.4168
 2137TIP3    H227903   2.387   4.956  11.134  1.4094 -2.4487 -0.7825
 2138TIP3   OH227904   0.607   3.841   5.736 -0.0495  0.7918 -0.3529
 2138TIP3    H127905   0.599   3.794   5.819  0.5547  0.8490 -0.2590
 2138TIP3    H227906   0.590   3.932   5.759 -0.2095  0.7593 -0.3470
 2139TIP3   OH227907   4.409   3.932  11.240  0.3318  0.1174 -0.4385
 2139TIP3    H127908   4.347   4.000  11.266  0.9781  0.7709 -0.5846
 2139TIP3    H227909   4.373   3.896  11.159  1.0224  1.6868 -1.4699
 2140TIP3   OH227910   0.501   2.750   2.282 -0.0923 -0.3574  0.2809
 2140TIP3    H127911   0.592   2.720   2.281 -0.2736 -0.9413  0.7405
 2140TIP3    H227912   0.506   2.844   2.298  0.3932 -0.5672  1.4425
 2141TIP3   OH227913   6.034   0.017   1.705 -0.1241 -0.3358 -0.3168
 2141TIP3    H127914   5.998  -0.005   1.790  0.8394  2.2262  0.7971
 2141TIP3    H227915   6.105  -0.045   1.692  0.5869  0.1052  1.3756
 2142TIP3   OH227916   5.826   2.321   0.270 -0.3373 -0.1136 -0.3691
 2142TIP3    H127917   5.860   2.368   0.346  0.2267  0.4243 -0.9528
 2142TIP3    H227918   5.852   2.374   0.195  0.1727 -1.2732 -1.0268
 2143TIP3   OH227919   1.516   4.817  16.059 -0.4305  0.5983  0.2932
 2143TIP3    H127920   1.534   4.863  16.142 -1.1322 -0.1076  0.8431
 2143TIP3    H227921   1.601   4.813  16.015  0.1168  0.2542  1.3543
 2144TIP3   OH227922   1.239   2.263   1.494  0.6028  0.1766  0.1425
 2144TIP3    H127923   1.270   2.310   1.416  1.2030 -0.3878  0.0446
 2144TIP3    H227924   1.194   2.186   1.459  0.1525  0.3511  0.3291
 2145TIP3   OH227925   4.110   2.591   4.196  0.4696 -0.7795 -0.4184
 2145TIP3    H127926   4.042   2.581   4.129 -0.7043 -0.0533  0.6518
 2145TIP3    H227927   4.159   2.668   4.169 -0.7083  0.1890  0.1350
 2146TIP3   OH227928   6.724   0.035  15.750  0.2267  0.2941 -0.2963
 2146TIP3    H127929   6.703  -0.033  15.687  0.5217  0.1321 -0.2226
 2146TIP3    H227930   6.641   0.054  15.795 -0.0923  0.7808 -1.0865
 2147TIP3   OH227931   0.845   5.589  11.419  0.3583 -0.2832  0.4448
 2147TIP3    H127932   0.847   5.610  11.326 -0.6019 -0.6386  0.3318
 2147TIP3    H227933   0.905   5.652  11.460  2.1520 -1.2903 -0.6238
 2148TIP3   OH227934   1.565   2.212   0.799 -0.3876  0.2122 -0.1227
 2148TIP3    H127935   1.545   2.118   0.790  2.4047 -0.3257 -1.2295
 2148TIP3    H227936   1.556   2.246   0.710  0.2088  0.6453 -0.0161
 2149TIP3   OH227937   0.470   6.121   0.559 -0.5692 -0.0316  0.1537
 2149TIP3    H127938   0.536   6.059   0.527 -0.4649 -0.4890  1.2341
 2149TIP3    H227939   0.461   6.101   0.652 -1.6238  0.5891  0.1984
 2150TIP3   OH227940   5.883   0.910   2.560 -0.1823  0.7490 -0.2027
 2150TIP3    H127941   5.886   0.989   2.506 -1.2553  0.8053 -0.1793
 2150TIP3    H227942   5.960   0.917   2.617 -0.2527  1.7533 -0.2204
 2151TIP3   OH227943   4.686   2.604  15.800  0.3829 -0.0708  0.0261
 2151TIP3    H127944   4.768   2.636  15.839 -0.5502  4.0359 -1.0763
 2151TIP3    H227945   4.701   2.609  15.705 -1.2069  1.0073 -0.1854
 2152TIP3   OH227946   3.959   5.713  13.066 -0.3314  0.2753 -0.5259
 2152TIP3    H127947   3.891   5.724  13.132 -0.8005 -2.3933 -0.5232
 2152TIP3    H227948   4.040   5.731  13.112 -0.6521 -1.5567  0.8219
 2153TIP3   OH227949   1.021   1.506   6.108 -0.5543 -0.3184  0.4217
 2153TIP3    H127950   1.017   1.492   6.013 -0.5750  1.1332  0.1887
 2153TIP3    H227951   1.075   1.435   6.141 -1.7203 -1.6537 -0.4978
 2154TIP3   OH227952   5.392   5.712  13.564 -0.4001  0.2088 -0.1937
 2154TIP3    H127953   5.366   5.627  13.599 -1.2356  0.4408 -0.2588
 2154TIP3    H227954   5.318   5.769  13.581 -0.4296  0.5707 -1.4663
 2155TIP3   OH227955   3.942   2.899   2.426 -0.2353  0.4144 -0.2830
 2155TIP3    H127956   3.944   2.995   2.429 -1.3718  0.4451  0.0314
 2155TIP3    H227957   3.963   2.872   2.515 -0.4425  0.3893 -0.2411
 2156TIP3   OH227958   0.132   2.827  13.100  0.5799  0.1356 -0.5351
 2156TIP3    H127959   0.171   2.848  13.015 -0.1059 -2.6339 -1.5950
 2156TIP3    H227960   0.076   2.751  13.082  0.2846 -0.3707  2.3595
 2157TIP3   OH227961   4.431   6.014  13.991 -0.0103 -0.5583  0.0233
 2157TIP3    H127962   4.423   6.045  13.901 -0.5165 -1.6818 -0.3386
 2157TIP3    H227963   4.496   6.071  14.032 -1.3110  1.2753 -0.4511
 2158TIP3   OH227964   1.014   3.024  15.387  1.2042  0.2425  0.0535
 2158TIP3    H127965   1.046   3.097  15.440  1.1710 -0.3134  0.8533
 2158TIP3    H227966   1.047   3.042  15.299  1.5291  1.0137  0.3276
 2159TIP3   OH227967   3.390   3.976  12.044  0.0638 -0.4272 -0.1549
 2159TIP3    H127968   3.412   3.886  12.020 -0.5160  0.1122 -2.9128
 2159TIP3    H227969   3.467   4.027  12.020  1.4724 -0.4720  3.8865
 2160TIP3   OH227970   5.353   0.060   2.012  0.9456  0.2094  0.3983
 2160TIP3    H127971   5.333   0.147   1.978  1.3032  0.3229  0.4706
 2160TIP3    H227972   5.312   0.057   2.098 -1.1269 -0.5767 -0.6012
 2161TIP3   OH227973   1.302   6.468   0.660  0.7902  0.6230  0.3009
 2161TIP3    H127974   1.213   6.432   0.654 -0.2238  3.3884 -3.4289
 2161TIP3    H227975   1.359   6.394   0.640 -0.8014 -0.7288  0.6193
 2162TIP3   OH227976   3.739   2.282   3.056 -0.1400  0.4782  0.5117
 2162TIP3    H127977   3.738   2.253   2.964  0.1381  0.4127  0.5288
 2162TIP3    H227978   3.797   2.220   3.100  1.1526  1.5805  0.3776
 2163TIP3   OH227979   4.025   5.958   3.912  0.5375 -0.4600  0.0793
 2163TIP3    H127980   4.038   5.875   3.957  2.1569 -0.4576 -0.3331
 2163TIP3    H227981   4.050   6.024   3.977  0.3738 -0.3477  0.0279
 2164TIP3   OH227982   5.208   3.646  10.035  0.0235  0.2885  0.0403
 2164TIP3    H127983   5.116   3.641  10.062  0.1791 -1.3641  0.3160
 2164TIP3    H227984   5.244   3.561  10.058  1.4797  0.7083 -0.6448
 2165TIP3   OH227985   4.895   1.261  16.450  0.0513 -0.4051 -0.1441
 2165TIP3    H127986   4.882   1.168  16.430  1.1280 -0.4959 -0.4410
 2165TIP3    H227987   4.949   1.262  16.528 -1.6644 -0.0200  1.0684
 2166TIP3   OH227988   0.476   0.253   3.739 -0.0448 -0.3461 -0.0032
 2166TIP3    H127989   0.551   0.302   3.771  0.1690 -0.7838  0.1726
 2166TIP3    H227990   0.439   0.308   3.669  0.1929  0.0552  0.1868
 2167TIP3   OH227991   4.169   3.921   2.870 -0.2180 -0.0519  0.2557
 2167TIP3    H127992   4.099   3.976   2.835  1.0458  1.9093  0.6594
 2167TIP3    H227993   4.198   3.869   2.795  0.2315  1.6959 -0.8331
 2168TIP3   OH227994   5.108   2.111  10.413 -0.2629  0.2697  0.3118
 2168TIP3    H127995   5.158   2.185  10.447 -0.1395  0.2687  0.1292
 2168TIP3    H227996   5.031   2.151  10.372 -1.5292  0.1651  2.5004
 2169TIP3   OH227997   3.346   1.553  13.059  0.1416  0.7158  0.1050
 2169TIP3    H127998   3.397   1.621  13.015  0.0628  1.1727  0.7210
 2169TIP3    H227999   3.345   1.579  13.151  1.1878 -0.8057  0.5593
 2170TIP3   OH228000   0.177   2.528   2.471 -0.2144  0.1002 -0.1259
 2170TIP3    H128001   0.226   2.446   2.476  0.3825  0.4607 -0.1128
 2170TIP3    H228002   0.191   2.559   2.382  0.0001  0.4620  0.0318
 2171TIP3   OH228003   6.031   3.583  15.212 -0.0595  1.0525 -0.0536
 2171TIP3    H128004   5.961   3.553  15.155  0.3342  0.3112 -0.1451
 2171TIP3    H228005   6.030   3.679  15.203  0.8157  0.8844 -2.2547
 2172TIP3   OH228006   5.563   4.799  16.041  0.5017 -0.3765 -0.3920
 2172TIP3    H128007   5.650   4.824  16.009 -1.0104  1.1273 -3.5574
 2172TIP3    H228008   5.539   4.723  15.988 -1.1936  0.8563 -1.4396
 2173TIP3   OH228009   4.417   5.162  16.682  0.1643  0.1302 -0.2126
 2173TIP3    H128010   4.462   5.141  16.600  1.1979 -0.7688  0.5585
 2173TIP3    H228011   4.482   5.142  16.750 -1.5398 -1.6323  0.9657
 2174TIP3   OH228012   1.510   5.029  16.280 -0.2417 -0.1159  0.0031
 2174TIP3    H128013   1.530   5.111  16.324 -1.0676 -0.2036  0.5462
 2174TIP3    H228014   1.561   4.963  16.327  2.6404  0.4418 -2.1693
 2175TIP3   OH228015   5.150   1.272  11.817 -0.3740  0.2796 -0.0802
 2175TIP3    H128016   5.058   1.252  11.832 -1.1227  3.3560 -0.1496
 2175TIP3    H228017   5.188   1.277  11.904 -0.9574  1.7845  0.1124
 2176TIP3   OH228018   0.179   4.707  13.258 -0.4178 -0.0855  0.1013
 2176TIP3    H128019   0.242   4.647  13.218 -1.4710 -0.8895 -0.3892
 2176TIP3    H228020   0.099   4.696  13.206 -0.8896  1.0971  0.5566
 2177TIP3   OH228021   2.496   1.434   2.480 -0.0883 -0.1041  0.1978
 2177TIP3    H128022   2.441   1.366   2.441 -1.3843 -0.2820  2.2689
 2177TIP3    H228023   2.440   1.512   2.481  0.9435  0.6569 -0.9711
 2178TIP3   OH228024   3.854   4.468  17.118 -0.6490  0.0305 -0.1942
 2178TIP3    H128025   3.868   4.543  17.060  2.6751 -0.9238 -0.7343
 2178TIP3    H228026   3.909   4.485  17.194 -2.5549 -0.2374  1.2743
 2179TIP3   OH228027   0.976   5.209   4.512  1.0260 -0.3241 -0.4458
 2179TIP3    H128028   0.898   5.167   4.476  0.6312  0.7922 -0.9169
 2179TIP3    H228029   1.020   5.140   4.560 -0.1597 -1.0189 -0.3290
 2180TIP3   OH228030   5.760   5.778   4.257 -0.0662 -0.4989  0.0749
 2180TIP3    H128031   5.815   5.791   4.179  0.3544  3.1808  0.8707
 2180TIP3    H228032   5.820   5.746   4.324  0.0751 -1.2392 -0.3938
 2181TIP3   OH228033   0.379   5.485   2.346 -0.0933  0.0428 -0.1946
 2181TIP3    H128034   0.344   5.409   2.299  1.0907  0.1380 -1.2679
 2181TIP3    H228035   0.363   5.559   2.287 -2.0429  0.7793  1.2320
 2182TIP3   OH228036   5.800   6.499   4.739  0.0456  0.5157 -0.0588
 2182TIP3    H128037   5.888   6.515   4.705 -0.0101 -0.1611 -0.5298
 2182TIP3    H228038   5.792   6.559   4.813  1.4797 -0.5139  0.9629
 2183TIP3   OH228039   2.348   0.756   2.990 -0.1625  0.5934  0.1691
 2183TIP3    H128040   2.267   0.777   2.945 -0.7143 -0.0399  0.8417
 2183TIP3    H228041   2.355   0.660   2.983  1.4915  0.8148 -1.4921
 2184TIP3   OH228042   5.719   5.660   3.925 -0.1688  0.1274  0.1478
 2184TIP3    H128043   5.725   5.714   3.846 -0.9511  1.9211  1.2871
 2184TIP3    H228044   5.809   5.637   3.946  0.0448 -0.3428 -1.2401
 2185TIP3   OH228045   1.792   6.075   2.142 -0.3924 -0.3168 -0.4982
 2185TIP3    H128046   1.886   6.067   2.157 -0.4285 -2.1990 -1.1025
 2185TIP3    H228047   1.783   6.074   2.047 -0.7059  4.4104 -0.6096
 2186TIP3   OH228048   0.482   2.520  12.294 -0.1601 -0.4951  0.0106
 2186TIP3    H128049   0.506   2.430  12.316 -0.4170 -0.1639  1.7262
 2186TIP3    H228050   0.400   2.512  12.245 -0.9633 -1.1300  1.4233
 2187TIP3   OH228051   4.975   5.269   0.712  0.0774 -0.1110  0.3820
 2187TIP3    H128052   5.004   5.360   0.720 -1.9159  0.6565 -0.6800
 2187TIP3    H228053   4.975   5.236   0.802  0.0243  1.1876  0.8727
 2188TIP3   OH228054   5.375   6.490   1.727  0.1512  0.3970 -1.4518
 2188TIP3    H128055   5.324   6.508   1.648 -0.3874 -1.7107 -1.6148
 2188TIP3    H228056   5.321   6.521   1.799 -0.6691 -0.3718 -1.7282
 2189TIP3   OH228057   0.152   0.233   5.095 -0.2423  0.6319  0.5245
 2189TIP3    H128058   0.061   0.251   5.069 -0.8016 -0.2416  1.7865
 2189TIP3    H228059   0.203   0.247   5.016 -1.6826 -0.4483 -0.6367
 2190TIP3   OH228060   4.215   6.485   1.201  0.9614  0.5020  0.0860
 2190TIP3    H128061   4.128   6.450   1.185  1.6660 -1.4131  0.2961
 2190TIP3    H228062   4.273   6.434   1.144  2.0163  1.4297  0.2863
 2191TIP3   OH228063   2.225   3.435   1.720  0.4591 -0.1993  0.3175
 2191TIP3    H128064   2.186   3.505   1.773  0.8387 -0.5707  1.1014
 2191TIP3    H228065   2.167   3.427   1.644 -0.9145 -0.6745  1.4046
 2192TIP3   OH228066   6.027   5.859  13.819 -0.2765  0.0821 -0.2260
 2192TIP3    H128067   6.069   5.911  13.886 -0.6275  0.5757 -0.3873
 2192TIP3    H228068   5.995   5.923  13.755  1.0113 -0.4270 -1.4202
 2193TIP3   OH228069   1.675   5.590  16.833  0.3220 -0.0867  0.2971
 2193TIP3    H128070   1.739   5.522  16.851 -0.7410 -1.0934  0.3083
 2193TIP3    H228071   1.675   5.644  16.912 -1.3227 -2.0989  1.7379
 2194TIP3   OH228072   1.478   4.183  15.579  0.2770 -0.4883  0.5795
 2194TIP3    H128073   1.461   4.254  15.641 -2.3207 -0.0421 -0.5987
 2194TIP3    H228074   1.459   4.103  15.629 -0.2312 -0.1980  0.8555
 2195TIP3   OH228075   0.027   6.749  16.422  0.4209 -0.1722 -0.2045
 2195TIP3    H128076   0.105   6.713  16.379  1.6894  0.9982  1.0701
 2195TIP3    H228077  -0.009   6.675  16.471  1.1911 -0.5231 -0.1558
 2196TIP3   OH228078   1.023   3.097  14.832  0.4197  0.8882  0.4107
 2196TIP3    H128079   0.976   3.093  14.916 -1.8404 -0.0504 -0.8656
 2196TIP3    H228080   1.078   3.019  14.832 -1.7326 -0.6727 -0.1884
 2197TIP3   OH228081   0.011   4.768   2.873  0.3319 -0.3174  0.0481
 2197TIP3    H128082  -0.067   4.720   2.848 -0.8024  2.1316 -1.3188
 2197TIP3    H228083   0.071   4.758   2.799  0.1752  0.1548 -0.1482
 2198TIP3   OH228084   4.723   1.839   1.186  0.0468 -0.0333  0.5647
 2198TIP3    H128085   4.803   1.887   1.165  1.0721 -1.5665  0.8832
 2198TIP3    H228086   4.723   1.764   1.126 -0.3735 -0.8416  1.5566
 2199TIP3   OH228087   3.168   2.413   5.168  0.0871 -0.1356 -0.0376
 2199TIP3    H128088   3.199   2.429   5.258 -0.4841  1.2540 -0.0777
 2199TIP3    H228089   3.244   2.432   5.113  0.0435  0.3480  0.0653
 2200TIP3   OH228090   6.621   6.378  11.755 -0.1812 -0.3527 -0.3269
 2200TIP3    H128091   6.558   6.324  11.707 -1.4649 -0.0568  0.9838
 2200TIP3    H228092   6.669   6.426  11.687  0.4659 -2.5692 -1.4662
 2201TIP3   OH228093   4.745   6.739   0.470 -0.3408 -0.0501  0.2229
 2201TIP3    H128094   4.688   6.710   0.399  1.2037 -1.6713 -0.3782
 2201TIP3    H228095   4.794   6.813   0.433 -1.1664  0.5667  0.3511
 2202TIP3   OH228096   6.760   0.752   6.308 -0.2240  0.2320 -0.2655
 2202TIP3    H128097   6.850   0.770   6.279  0.4148 -1.2110  0.7971
 2202TIP3    H228098   6.725   0.693   6.242  0.1993 -0.5987  0.2492
 2203TIP3   OH228099   5.199   3.635  12.374  0.0768  0.2788 -0.3330
 2203TIP3    H128100   5.214   3.687  12.295 -0.9880 -1.2734 -1.6009
 2203TIP3    H228101   5.233   3.548  12.352 -0.8098 -0.3347  0.6780
 2204TIP3   OH228102   4.574   5.212   5.203  0.3105  0.1296  0.0458
 2204TIP3    H128103   4.529   5.145   5.151  1.1397  0.9015 -1.7223
 2204TIP3    H228104   4.614   5.269   5.137  1.6707  0.9404  1.5660
 2205TIP3   OH228105   4.192   3.668   3.723  0.6418 -0.2491  0.0571
 2205TIP3    H128106   4.125   3.685   3.657  0.9747  1.6156  0.1898
 2205TIP3    H228107   4.275   3.682   3.677  1.0281 -3.5562 -0.3993
 2206TIP3   OH228108   4.768   6.739  16.778  0.1392  0.3385 -0.1680
 2206TIP3    H128109   4.687   6.701  16.812  0.2252 -0.6127 -1.0174
 2206TIP3    H228110   4.836   6.702  16.834  0.4889 -2.7461 -2.4839
 2207TIP3   OH228111   1.265   3.427  14.654 -0.1694  0.2467  0.2467
 2207TIP3    H128112   1.214   3.503  14.626 -0.9793 -0.1606  0.5991
 2207TIP3    H228113   1.307   3.396  14.573 -1.0148  0.1880 -0.1822
 2208TIP3   OH228114   4.030   2.008   2.201  0.0116  0.1019 -0.3636
 2208TIP3    H128115   4.002   1.941   2.263 -0.5519  0.3026 -0.3978
 2208TIP3    H228116   3.956   2.018   2.140 -0.3304  1.4798  0.2551
 2209TIP3   OH228117   3.682   2.251  15.927 -0.6287 -0.2378  0.1451
 2209TIP3    H128118   3.661   2.159  15.909 -2.9955  0.2707  0.0561
 2209TIP3    H228119   3.643   2.299  15.854  1.5213  0.7628 -0.3624
 2210TIP3   OH228120   5.773   4.528   1.417 -0.0792 -0.2355 -0.5636
 2210TIP3    H128121   5.771   4.451   1.360 -0.0121  0.6454 -1.7744
 2210TIP3    H228122   5.699   4.582   1.388  0.2976  0.4886 -0.1920
 2211TIP3   OH228123   3.708   3.151   6.066  0.4054  0.0806  0.7785
 2211TIP3    H128124   3.749   3.096   5.998 -1.4931  0.2290 -0.5263
 2211TIP3    H228125   3.776   3.213   6.089  1.1187  0.0087 -0.9983
 2212TIP3   OH228126   1.049   0.377  11.911 -0.4219 -0.0603 -0.1016
 2212TIP3    H128127   0.975   0.330  11.949 -0.3564 -1.6514 -1.8394
 2212TIP3    H228128   1.051   0.348  11.820  1.1507  1.4646 -0.5826
 2213TIP3   OH228129   2.378   6.272  16.278 -0.6691  0.7651  0.5669
 2213TIP3    H128130   2.339   6.239  16.197 -1.3589  1.1152  0.7555
 2213TIP3    H228131   2.471   6.253  16.268 -0.9094 -0.2706  0.2074
 2214TIP3   OH228132   3.376   1.711   1.508  0.6688 -0.4799 -0.2704
 2214TIP3    H128133   3.403   1.701   1.599  0.1103 -0.6984 -0.1294
 2214TIP3    H228134   3.442   1.661   1.459  0.2547 -1.4149  0.1150
 2215TIP3   OH228135   2.759   5.725   2.203 -0.2553 -1.2457  0.1695
 2215TIP3    H128136   2.707   5.661   2.251  0.3540  0.2603  2.9492
 2215TIP3    H228137   2.779   5.793   2.268  2.9359 -0.4963 -1.4886
 2216TIP3   OH228138   4.420   2.784   0.228 -0.1985 -0.0559  0.1403
 2216TIP3    H128139   4.456   2.863   0.268  1.6615 -1.5989  1.5630
 2216TIP3    H228140   4.379   2.737   0.301 -1.7261 -0.2147 -0.7855
 2217TIP3   OH228141   4.121   2.134  11.523  0.2434 -0.2525 -0.5897
 2217TIP3    H128142   4.192   2.189  11.555 -0.6097  0.1624  0.6120
 2217TIP3    H228143   4.147   2.111  11.434  3.1476 -2.2590  0.7064
 2218TIP3   OH228144   4.075   0.795  15.792 -0.1006  0.0709 -0.5528
 2218TIP3    H128145   4.098   0.755  15.876 -0.7356  0.6832 -0.0810
 2218TIP3    H228146   4.159   0.813  15.750  0.2396  0.5213  0.3177
 2219TIP3   OH228147   2.539   4.390   1.112  0.5694 -0.3673  0.0363
 2219TIP3    H128148   2.443   4.390   1.109  0.5829  1.1907 -0.8690
 2219TIP3    H228149   2.560   4.402   1.205 -0.0931 -2.5152  0.4831
 2220TIP3   OH228150   5.766   1.705   3.061 -0.2315  0.3490  0.0961
 2220TIP3    H128151   5.748   1.669   3.148  0.2154 -0.5546 -0.1797
 2220TIP3    H228152   5.810   1.634   3.014 -1.3601  0.4828 -1.2002
 2221TIP3   OH228153   1.457   2.861  14.492 -0.3375  0.5425  0.1318
 2221TIP3    H128154   1.460   2.896  14.403  0.6773 -0.6155 -0.3168
 2221TIP3    H228155   1.520   2.913  14.541  2.4830 -1.7230 -0.9599
 2222TIP3   OH228156   1.151   0.204  14.548  0.2199 -0.5057  0.1537
 2222TIP3    H128157   1.232   0.189  14.498  1.5351  1.0283  1.7497
 2222TIP3    H228158   1.082   0.169  14.492  1.8907 -0.9577 -1.6998
 2223TIP3   OH228159   0.597   5.737  12.511 -0.6206 -0.2059 -0.5980
 2223TIP3    H128160   0.658   5.667  12.533  1.6306  1.4614 -1.3548
 2223TIP3    H228161   0.542   5.746  12.589  1.7579 -0.0530  1.1245
 2224TIP3   OH228162   4.322   5.610  15.356 -0.5764  0.4326  0.7746
 2224TIP3    H128163   4.402   5.657  15.331 -0.2914 -1.1400 -1.4106
 2224TIP3    H228164   4.251   5.663  15.319 -0.2479 -0.8922 -1.8457
 2225TIP3   OH228165   0.462   1.505  13.870 -0.4291  0.8366 -0.4692
 2225TIP3    H128166   0.490   1.493  13.961 -1.9349 -0.1444 -0.1195
 2225TIP3    H228167   0.459   1.417  13.834 -1.5493  1.0510 -0.9369
 2226TIP3   OH228168   3.922   4.145   2.183 -0.0787  0.1279  0.5932
 2226TIP3    H128169   3.955   4.124   2.095  1.3989 -0.0218  1.1699
 2226TIP3    H228170   3.997   4.133   2.240 -0.7029  1.4455  1.7223
 2227TIP3   OH228171   4.966   3.341   1.133 -0.2285 -0.2178 -0.2319
 2227TIP3    H128172   5.016   3.415   1.098  1.3859 -0.7667  0.8398
 2227TIP3    H228173   5.021   3.306   1.203 -1.3285 -1.9452 -0.1980
 2228TIP3   OH228174   2.688   6.281   0.582 -0.2535 -0.0335 -0.2652
 2228TIP3    H128175   2.614   6.238   0.625 -0.3309 -1.3769 -1.7056
 2228TIP3    H228176   2.654   6.366   0.556 -1.2946 -0.6386 -0.9173
 2229TIP3   OH228177   1.024   4.704   1.300 -0.1015 -0.3623  0.2008
 2229TIP3    H128178   0.969   4.782   1.312 -0.9672 -0.9326 -0.0321
 2229TIP3    H228179   1.104   4.724   1.348 -0.7950  0.1852  1.1554
 2230TIP3   OH228180   2.318   0.493   5.887 -0.2238 -0.2368 -0.2274
 2230TIP3    H128181   2.357   0.574   5.855  2.1221 -1.3717 -0.3334
 2230TIP3    H228182   2.255   0.468   5.820  0.4580  0.4684 -1.1363
 2231TIP3   OH228183   6.454   2.732  11.286 -0.5449 -0.0256 -0.0441
 2231TIP3    H128184   6.485   2.798  11.223  0.0298  0.6623  0.9517
 2231TIP3    H228185   6.411   2.666  11.232 -0.1891  0.6384 -1.1530
 2232TIP3   OH228186   6.604   4.016  14.443 -0.3273  0.7143 -0.2720
 2232TIP3    H128187   6.558   3.985  14.365  0.6636 -1.1945 -0.1189
 2232TIP3    H228188   6.683   4.058  14.408  0.4410 -0.7166 -0.2803
 2233TIP3   OH228189   4.598   6.633   4.747 -0.3527 -0.9566 -0.2642
 2233TIP3    H128190   4.533   6.563   4.739 -1.8287  0.2273  1.0247
 2233TIP3    H228191   4.668   6.595   4.800 -0.3579 -2.0020 -1.0017
 2234TIP3   OH228192   2.739   4.611   1.883 -0.2846  0.0088  0.3415
 2234TIP3    H128193   2.752   4.521   1.911 -1.7724 -0.7998 -1.4699
 2234TIP3    H228194   2.655   4.637   1.922  0.5035  0.8879  1.4892
 2235TIP3   OH228195   6.553   1.795  11.743  0.1634  0.6382 -0.1642
 2235TIP3    H128196   6.633   1.777  11.793  0.5602 -0.5916 -1.2308
 2235TIP3    H228197   6.505   1.713  11.743  0.0025  0.7293 -1.5168
 2236TIP3   OH228198   0.488   3.290   4.456  0.4118  0.3149  0.1348
 2236TIP3    H128199   0.516   3.305   4.547 -2.1481 -1.2567  1.2402
 2236TIP3    H228200   0.409   3.342   4.446  0.4577  0.1596 -1.0917
 2237TIP3   OH228201   5.328   5.341  11.893 -0.3652 -0.0123  0.0669
 2237TIP3    H128202   5.380   5.364  11.816 -0.7825  1.4581  0.1973
 2237TIP3    H228203   5.261   5.410  11.897 -0.9444 -0.6368  1.1755
 2238TIP3   OH228204   2.124   3.495  14.701 -0.2988  0.3175  0.1427
 2238TIP3    H128205   2.054   3.557  14.678 -1.7969 -1.5731 -0.5355
 2238TIP3    H228206   2.086   3.409  14.684  2.2591 -0.7538 -0.3477
 2239TIP3   OH228207   2.049   3.911  12.612  0.5656  0.6607  0.2290
 2239TIP3    H128208   2.126   3.931  12.558  1.7997  0.2231  1.8008
 2239TIP3    H228209   2.069   3.828  12.654 -0.9320  0.3628  0.3932
 2240TIP3   OH228210   1.078   0.692  13.100 -0.7717 -0.0123  0.6517
 2240TIP3    H128211   1.054   0.631  13.171 -0.1243  0.9964  1.7407
 2240TIP3    H228212   1.043   0.776  13.128 -0.5382  0.3902 -0.2546
 2241TIP3   OH228213   1.929   3.203   2.180 -0.3571  0.1379 -0.3276
 2241TIP3    H128214   1.873   3.210   2.103 -0.2654 -0.9611 -0.4996
 2241TIP3    H228215   1.969   3.117   2.173 -0.1779  0.1188  0.8388
 2242TIP3   OH228216   3.492   3.593   4.028 -0.4439  0.1153 -0.3235
 2242TIP3    H128217   3.570   3.542   4.051  0.5529  1.2781 -1.1003
 2242TIP3    H228218   3.419   3.542   4.065  0.6681 -0.9645  0.4365
 2243TIP3   OH228219   3.452   0.974  12.839  0.2836 -0.0685 -0.0898
 2243TIP3    H128220   3.382   1.035  12.862  1.4133  0.6690  1.4944
 2243TIP3    H228221   3.525   1.031  12.814  0.4735 -0.8265 -1.3303
 2244TIP3   OH228222   5.922   1.421   2.069  0.0115  0.4900 -0.0432
 2244TIP3    H128223   6.018   1.416   2.068  0.1157  0.9973  3.1322
 2244TIP3    H228224   5.898   1.427   1.977  3.1124  1.7493 -0.8368
 2245TIP3   OH228225   3.223   5.726   1.882  0.1991  0.0205  0.0303
 2245TIP3    H128226   3.173   5.791   1.932 -0.3923 -1.6669  1.6640
 2245TIP3    H228227   3.168   5.708   1.806  0.0657  0.9493 -0.1037
 2246TIP3   OH228228   6.716   5.618  13.043 -0.4176 -0.2279 -0.0426
 2246TIP3    H128229   6.664   5.578  12.972  0.9679 -0.6995 -0.8209
 2246TIP3    H228230   6.793   5.561  13.050  0.3363  0.8721  0.6021
 2247TIP3   OH228231   2.712   1.986  11.804 -0.1028  0.2399  0.5229
 2247TIP3    H128232   2.739   1.969  11.894  0.6045  0.7186  0.4055
 2247TIP3    H228233   2.649   2.057  11.810 -2.0495 -1.4515  0.8833
 2248TIP3   OH228234   0.497   6.538   0.524  0.1203  0.2747 -0.4767
 2248TIP3    H128235   0.413   6.550   0.568 -0.2556 -1.5419 -0.6511
 2248TIP3    H228236   0.514   6.622   0.482 -0.9622  1.0837  0.6484
 2249TIP3   OH228237   1.372   3.281   5.121 -0.8906  0.1180  0.3058
 2249TIP3    H128238   1.297   3.224   5.137  0.5352 -1.6926  0.7687
 2249TIP3    H228239   1.437   3.252   5.185  0.5500  0.9875 -0.7415
 2250TIP3   OH228240   2.454   2.646   0.984 -0.1954  0.2830 -0.4592
 2250TIP3    H128241   2.402   2.607   0.914  0.5652  0.4891 -1.1356
 2250TIP3    H228242   2.396   2.711   1.024 -2.3555 -3.0873  2.2158
 2251TIP3   OH228243   4.769   2.183   4.445 -0.0498 -0.0439 -0.0714
 2251TIP3    H128244   4.735   2.234   4.372 -1.9934  2.7182  2.6096
 2251TIP3    H228245   4.837   2.238   4.484  1.2259 -1.6376  0.0240
 2252TIP3   OH228246   6.684   4.420   3.020  0.2339  0.0002  0.6133
 2252TIP3    H128247   6.622   4.358   3.059  0.2144 -0.1130  0.4014
 2252TIP3    H228248   6.717   4.471   3.094 -1.8557  1.6268  0.4612
 2253TIP3   OH228249   4.614   0.730  14.726 -0.4006  0.3714 -0.2431
 2253TIP3    H128250   4.553   0.792  14.765 -0.1117  0.8590 -0.5639
 2253TIP3    H228251   4.563   0.684  14.660 -0.0174  1.9031 -1.6428
 2254TIP3   OH228252   4.796   6.039   1.619  0.2399  0.1189 -0.0791
 2254TIP3    H128253   4.887   6.017   1.598  0.2019  0.4770 -0.6320
 2254TIP3    H228254   4.798   6.060   1.713  0.4966 -1.0489  0.1841
 2255TIP3   OH228255   0.111   5.473  13.094 -0.1324  0.2206  0.2102
 2255TIP3    H128256   0.079   5.388  13.122 -0.3847  0.7695  1.6169
 2255TIP3    H228257   0.174   5.453  13.025  0.9190 -1.1850  1.5551
 2256TIP3   OH228258   6.490   1.180   0.991  0.0747  0.0670 -0.0772
 2256TIP3    H128259   6.416   1.121   1.006  1.0772 -1.2761 -0.3420
 2256TIP3    H228260   6.484   1.244   1.061 -2.1478  0.7979 -0.8844
 2257TIP3   OH228261   3.272   2.495  12.204 -0.1625  0.5746 -0.9841
 2257TIP3    H128262   3.208   2.464  12.268  1.1737  0.0714  0.1187
 2257TIP3    H228263   3.229   2.481  12.119 -1.0288 -0.9129 -0.3210
 2258TIP3   OH228264   5.287   6.261  14.320 -0.3138 -0.2641 -0.0067
 2258TIP3    H128265   5.296   6.328  14.253 -2.6349  1.3751  1.2340
 2258TIP3    H228266   5.346   6.288  14.390 -2.0327  1.1269  0.9459
 2259TIP3   OH228267   5.323   2.688  16.414 -0.0311 -0.3639 -0.2688
 2259TIP3    H128268   5.394   2.631  16.441  2.2279  1.6471 -1.7100
 2259TIP3    H228269   5.285   2.645  16.338 -1.5903 -2.3481  1.5829
 2260TIP3   OH228270   6.523   6.225   0.806  0.9306 -0.2710 -0.2780
 2260TIP3    H128271   6.596   6.273   0.768  1.0137 -1.0893 -1.1705
 2260TIP3    H228272   6.546   6.214   0.898  1.6403  0.0065 -0.4231
 2261TIP3   OH228273   0.836   1.062   4.220 -0.6563  1.1266 -0.2033
 2261TIP3    H128274   0.919   1.101   4.248 -1.5050  0.7871  2.9443
 2261TIP3    H228275   0.856   0.969   4.211  0.1694  1.5318 -3.0369
 2262TIP3   OH228276   4.191   3.446   3.519  0.3959 -0.1672  0.4559
 2262TIP3    H128277   4.236   3.437   3.603 -0.3924  0.8680  0.9983
 2262TIP3    H228278   4.247   3.505   3.468  0.1416  0.3651  0.7872
 2263TIP3   OH228279   5.466   6.016   5.050  0.5627  0.0539 -0.1921
 2263TIP3    H128280   5.509   6.055   5.125  1.1335 -0.0952 -0.4413
 2263TIP3    H228281   5.471   5.922   5.064 -0.6924  0.0548  0.3404
 2264TIP3   OH228282   2.662   4.516   5.660 -0.2217 -0.0338 -0.1664
 2264TIP3    H128283   2.744   4.466   5.664  0.1317  0.2900 -2.5460
 2264TIP3    H228284   2.600   4.464   5.710  0.6434 -1.8870 -0.9699
 2265TIP3   OH228285   3.347   2.905  13.008 -0.6529  0.5533 -0.0912
 2265TIP3    H128286   3.253   2.888  13.006 -0.6090  0.3030 -0.0897
 2265TIP3    H228287   3.387   2.818  13.001 -0.4253  0.5198  1.3823
 2266TIP3   OH228288   6.488   4.361  16.496  0.0727 -0.3590  0.0470
 2266TIP3    H128289   6.457   4.344  16.407  0.2780  0.2066 -0.1369
 2266TIP3    H228290   6.583   4.354  16.491  0.1196  0.1610  0.1065
 2267TIP3   OH228291   6.402   5.156   1.134  0.2536  0.3141 -0.2475
 2267TIP3    H128292   6.464   5.084   1.124  0.4799  0.4773 -0.0326
 2267TIP3    H228293   6.318   5.121   1.103  0.5620  0.2635 -1.0312
 2268TIP3   OH228294   0.324   5.067  12.489 -0.3434  0.1366  0.4140
 2268TIP3    H128295   0.319   4.978  12.453  1.5700  0.3978 -0.5716
 2268TIP3    H228296   0.296   5.123  12.416  0.5372  0.4672  0.3229
 2269TIP3   OH228297   5.301   4.888  14.362 -0.4057  0.3221 -0.5237
 2269TIP3    H128298   5.278   4.849  14.277  0.3014 -1.5997  0.1426
 2269TIP3    H228299   5.217   4.898  14.407 -0.6002 -0.3579 -0.7343
 2270TIP3   OH228300   6.198   0.436  12.909 -0.2778 -0.5442 -0.2809
 2270TIP3    H128301   6.274   0.422  12.852 -0.7130 -1.8984 -0.5515
 2270TIP3    H228302   6.234   0.432  12.997 -0.1882 -2.3450 -0.3756
 2271TIP3   OH228303   2.022   6.771  14.837 -0.0157 -0.2988 -1.0249
 2271TIP3    H128304   2.098   6.736  14.790  1.6423  0.8589  0.7107
 2271TIP3    H228305   2.037   6.865  14.839 -0.5318 -0.2400  0.9866
 2272TIP3   OH228306   0.615   3.520   6.184 -0.2499  0.1954 -0.2684
 2272TIP3    H128307   0.634   3.426   6.182 -0.7588  0.0726  0.5433
 2272TIP3    H228308   0.544   3.529   6.248  1.3202  1.3990  1.3693
 2273TIP3   OH228309   5.152   0.045  16.484  0.5082 -0.3193  0.1761
 2273TIP3    H128310   5.155   0.108  16.556  0.1743 -0.9480  0.7454
 2273TIP3    H228311   5.157  -0.041  16.527 -2.1190 -0.7816 -0.3545
 2274TIP3   OH228312   4.689   3.652   2.554  0.0291 -0.6144 -0.5971
 2274TIP3    H128313   4.651   3.629   2.638 -0.2750 -1.0436 -0.8498
 2274TIP3    H228314   4.776   3.612   2.556 -0.3637 -1.5039 -0.8921
 2275TIP3   OH228315   3.118   3.395   2.349  0.4397 -0.8148 -0.1420
 2275TIP3    H128316   3.111   3.436   2.435 -0.0207 -0.0194 -0.5510
 2275TIP3    H228317   3.027   3.375   2.325  0.4801 -0.1499 -0.8595
 2276TIP3   OH228318   0.312   3.642  16.629 -0.5412  0.0674  0.1465
 2276TIP3    H128319   0.406   3.644  16.613 -0.3817 -1.0609  0.8902
 2276TIP3    H228320   0.284   3.556  16.598 -1.1729  0.0413  0.7681
 2277TIP3   OH228321   0.814   1.464   2.889 -0.4986  0.0820 -0.6608
 2277TIP3    H128322   0.899   1.471   2.932 -0.7641 -1.0217  0.0806
 2277TIP3    H228323   0.782   1.554   2.883  0.7339  0.5020 -0.9835
 2278TIP3   OH228324   5.161   6.068  17.152 -0.0155  0.6988 -0.1216
 2278TIP3    H128325   5.166   5.974  17.135 -1.7167  0.5357  0.1627
 2278TIP3    H228326   5.242   6.103  17.115 -0.4502 -0.5617 -2.3864
 2279TIP3   OH228327   2.435   6.641  12.417 -0.0139 -0.2963 -0.3377
 2279TIP3    H128328   2.460   6.617  12.506  2.3807 -0.4064 -0.9816
 2279TIP3    H228329   2.342   6.623  12.412  0.4220 -3.2318  1.1980
 2280TIP3   OH228330   5.408   6.047  14.923  0.5743 -1.0830 -0.0410
 2280TIP3    H128331   5.375   5.969  14.967  2.7167 -1.3774  1.1422
 2280TIP3    H228332   5.502   6.030  14.912  0.9503  1.0631 -0.3440
 2281TIP3   OH228333   4.986   5.428   3.080 -0.0217  0.2683 -0.1306
 2281TIP3    H128334   4.993   5.511   3.033  0.0620  0.4163  0.1409
 2281TIP3    H228335   5.062   5.427   3.138  0.5541 -0.4763 -0.8789
 2282TIP3   OH228336   1.076   2.051  15.668  0.2860  0.4855  0.1286
 2282TIP3    H128337   1.150   2.061  15.728 -0.4411 -1.0415  1.3137
 2282TIP3    H228338   1.031   2.136  15.672  0.2814  0.4297  1.7196
 2283TIP3   OH228339   3.769   2.842   2.182  0.0075  0.1608  0.2037
 2283TIP3    H128340   3.770   2.885   2.267 -0.5768 -0.7263  0.6618
 2283TIP3    H228341   3.810   2.906   2.123  1.0280  0.4978  1.2657
 2284TIP3   OH228342   6.489   2.961  11.643 -0.2214  0.0477  0.6117
 2284TIP3    H128343   6.562   2.916  11.686 -0.2056  0.2196  0.7638
 2284TIP3    H228344   6.434   2.890  11.609  1.1652 -0.0671 -1.4389
 2285TIP3   OH228345   5.428   2.982  11.087 -0.0667 -0.3708 -0.7150
 2285TIP3    H128346   5.349   2.959  11.136 -0.2204 -1.3773 -1.4321
 2285TIP3    H228347   5.415   2.943  11.001  0.2137  1.3481 -1.5738
 2286TIP3   OH228348   1.098   5.570   5.535  0.2938 -0.3856  0.3188
 2286TIP3    H128349   1.054   5.566   5.620  1.6725  0.2891  1.0845
 2286TIP3    H228350   1.117   5.479   5.513  1.8387 -0.4353  1.7656
 2287TIP3   OH228351   3.500   2.811   2.760 -0.2696  0.1650 -0.3159
 2287TIP3    H128352   3.542   2.777   2.839  0.1279  0.8376 -0.2362
 2287TIP3    H228353   3.460   2.734   2.719  2.2386 -0.7475 -1.1554
 2288TIP3   OH228354   3.130   4.170  11.891 -0.3746 -0.2037  0.3416
 2288TIP3    H128355   3.157   4.095  11.838  1.9077  0.1058  1.0044
 2288TIP3    H228356   3.109   4.132  11.976 -0.6854 -0.2634  0.2403
 2289TIP3   OH228357   6.181   2.601  11.046  0.0595 -0.3348  0.4400
 2289TIP3    H128358   6.100   2.603  11.097 -2.0481 -1.1206 -2.7696
 2289TIP3    H228359   6.199   2.509  11.032  0.4734 -0.1224 -0.4576
 2290TIP3   OH228360   0.093   4.753  17.088 -0.0957  0.1689  0.4519
 2290TIP3    H128361   0.068   4.805  17.012  0.4067 -3.1211 -2.1160
 2290TIP3    H228362   0.011   4.720  17.123 -0.2188  0.0286  0.0397
 2291TIP3   OH228363   4.234   4.018  14.350 -0.4949 -0.0063  0.5836
 2291TIP3    H128364   4.283   4.065  14.418  0.3671 -2.4407  1.7052
 2291TIP3    H228365   4.298   4.006  14.279 -0.1604 -1.0428  1.0480
 2292TIP3   OH228366   2.047   2.178  17.065 -0.7436 -0.4251  0.2081
 2292TIP3    H128367   2.041   2.198  17.158 -2.2958 -0.5540  0.1506
 2292TIP3    H228368   1.959   2.194  17.031 -0.5893 -1.8391 -0.9404
 2293TIP3   OH228369   0.754   1.349  15.589  0.6556  0.3344  0.6109
 2293TIP3    H128370   0.736   1.267  15.544  0.6191  0.3746  0.5543
 2293TIP3    H228371   0.827   1.388  15.540 -0.7398  1.3829 -0.6700
 2294TIP3   OH228372   0.875   1.816   4.335 -0.2406  0.6064 -0.3892
 2294TIP3    H128373   0.871   1.723   4.354 -0.9252  0.9179  1.1019
 2294TIP3    H228374   0.849   1.824   4.243  0.8024 -0.7415 -0.8132
 2295TIP3   OH228375   3.761   5.643   2.484  0.3642  0.0745 -0.1322
 2295TIP3    H128376   3.694   5.702   2.451  0.3487 -0.5438 -1.2440
 2295TIP3    H228377   3.731   5.556   2.459  1.1907 -0.2764  0.0611
 2296TIP3   OH228378   2.624   6.761  14.299 -0.1526  0.2404  0.7572
 2296TIP3    H128379   2.559   6.777  14.369 -1.7055 -0.5315 -0.4794
 2296TIP3    H228380   2.646   6.669  14.307  1.7343  0.7649  1.9245
 2297TIP3   OH228381   2.497   3.855  12.774 -0.4195  0.2398 -0.3534
 2297TIP3    H128382   2.407   3.845  12.804 -0.1935 -0.3180  0.1300
 2297TIP3    H228383   2.495   3.934  12.719 -0.7616  1.4103  1.3192
 2298TIP3   OH228384   0.528   4.217  15.055  0.4238 -0.1810  0.4070
 2298TIP3    H128385   0.546   4.145  14.995  0.9777 -1.0072  1.5508
 2298TIP3    H228386   0.590   4.285  15.031  0.5548 -0.4629 -0.0505
 2299TIP3   OH228387   4.625   2.804   0.939 -0.8312  0.0491  0.1782
 2299TIP3    H128388   4.670   2.884   0.967 -1.5864 -0.0786  1.8300
 2299TIP3    H228389   4.689   2.759   0.885  2.0767 -1.3714  4.5609
 2300TIP3   OH228390   3.639   6.345  10.660  0.2937  0.3170  0.0077
 2300TIP3    H128391   3.564   6.296  10.628  1.1044 -0.7950 -0.2365
 2300TIP3    H228392   3.606   6.433  10.676 -0.7577  0.1581 -1.2665
 2301TIP3   OH228393   4.156   2.452   0.547  0.6261  0.4282  0.2182
 2301TIP3    H128394   4.194   2.420   0.629  0.5232 -3.4672 -1.2000
 2301TIP3    H228395   4.212   2.526   0.523  1.6234  0.6263  2.9123
 2302TIP3   OH228396   1.163   3.001   0.799 -0.2767  0.1433 -0.5722
 2302TIP3    H128397   1.138   3.091   0.776 -0.5182  0.5100  1.0755
 2302TIP3    H228398   1.195   3.007   0.889  1.3582 -1.1379 -1.0493
 2303TIP3   OH228399   6.135   5.953  17.042  0.5295  0.7884  0.5169
 2303TIP3    H128400   6.185   6.027  17.007 -0.4388  1.6381  0.9235
 2303TIP3    H228401   6.154   5.881  16.981 -0.3628  1.9838 -1.2050
 2304TIP3   OH228402   1.284   5.143  11.335 -0.1211 -0.0915 -0.1333
 2304TIP3    H128403   1.369   5.115  11.302 -0.4251 -1.8960  0.5540
 2304TIP3    H228404   1.276   5.234  11.307  1.5537 -0.2363 -1.1415
 2305TIP3   OH228405   6.687   6.284   2.220 -0.1675  0.2481  0.2175
 2305TIP3    H128406   6.643   6.368   2.235 -2.1525 -0.7376  0.1108
 2305TIP3    H228407   6.641   6.223   2.277  1.2081 -0.7982  0.2251
 2306TIP3   OH228408   5.251   5.737  12.625 -0.2616 -0.0738  0.4979
 2306TIP3    H128409   5.168   5.755  12.670 -1.1988 -1.2972 -0.6840
 2306TIP3    H228410   5.256   5.641  12.623  0.9352 -0.0044  0.1004
 2307TIP3   OH228411   3.250   2.226  11.766 -0.5037 -0.8727 -0.3249
 2307TIP3    H128412   3.240   2.135  11.795 -0.2215 -1.5048 -2.1439
 2307TIP3    H228413   3.298   2.220  11.683 -1.4403  0.8610 -1.0249
 2308TIP3   OH228414   6.426   4.563   1.926  0.0857  0.3746 -0.0593
 2308TIP3    H128415   6.396   4.573   1.836  1.7114  0.7447 -0.5772
 2308TIP3    H228416   6.356   4.602   1.979 -0.9441  0.0306 -1.1329
 2309TIP3   OH228417   6.148   2.012  13.150  0.5885 -0.1291  0.1675
 2309TIP3    H128418   6.159   2.051  13.064  0.5792 -0.1829  0.1429
 2309TIP3    H228419   6.070   1.957  13.142  0.3164  0.2226  0.3383
 2310TIP3   OH228420   0.419   3.841  12.965  0.0467  0.4104 -0.0856
 2310TIP3    H128421   0.409   3.772  12.900  0.0502  1.4578 -1.2223
 2310TIP3    H228422   0.385   3.804  13.046  0.5951 -1.1241 -0.5448
 2311TIP3   OH228423   2.542   4.830   0.813 -0.0261  0.2351  0.0580
 2311TIP3    H128424   2.486   4.759   0.846 -0.5608  0.2144 -0.8853
 2311TIP3    H228425   2.631   4.798   0.825 -0.2182  0.1206  1.2398
 2312TIP3   OH228426   3.614   6.162   1.580  0.1793 -0.1086  0.0935
 2312TIP3    H128427   3.657   6.246   1.594 -2.3357  1.1448  0.6218
 2312TIP3    H228428   3.629   6.142   1.487 -1.1210  2.0373 -0.5935
 2313TIP3   OH228429   6.239   1.055  12.494  0.0820 -0.0713  0.0920
 2313TIP3    H128430   6.244   1.040  12.399 -1.1358  0.6613 -0.0891
 2313TIP3    H228431   6.183   0.984  12.526 -0.3292  0.2728  0.1296
 2314TIP3   OH228432   2.215   2.876  13.047  0.4781  0.1983  0.4069
 2314TIP3    H128433   2.266   2.956  13.033  1.1951  0.1237  2.4913
 2314TIP3    H228434   2.221   2.860  13.141 -0.2180 -1.9486  0.1034
 2315TIP3   OH228435   2.241   0.127  16.267  0.0194 -0.0930  0.0266
 2315TIP3    H128436   2.242   0.079  16.349  0.9386 -1.0474 -0.5166
 2315TIP3    H228437   2.311   0.191  16.275 -1.0355  0.9956  0.6525
 2316TIP3   OH228438   4.993   3.882   2.482 -0.1810  0.1291 -0.3571
 2316TIP3    H128439   4.996   3.929   2.399 -1.1882  0.9050  0.0448
 2316TIP3    H228440   4.989   3.790   2.457 -2.0396  0.4250 -1.1791
 2317TIP3   OH228441   1.786   5.529   1.799 -0.0992 -0.4158  0.4309
 2317TIP3    H128442   1.760   5.621   1.785  0.1130 -0.4568 -0.2550
 2317TIP3    H228443   1.705   5.479   1.787  0.0220 -0.4219 -0.3456
 2318TIP3   OH228444   6.295   0.683   3.005 -0.0721  0.3895 -0.5582
 2318TIP3    H128445   6.301   0.695   2.910  0.0888 -1.0066 -0.7299
 2318TIP3    H228446   6.203   0.661   3.021 -0.0836  0.5523 -0.3950
 2319TIP3   OH228447   2.442   1.333   1.800 -0.3229  0.3036 -0.6424
 2319TIP3    H128448   2.501   1.373   1.864 -0.0796 -0.8511 -0.1278
 2319TIP3    H228449   2.355   1.366   1.824 -0.2000  0.0675  0.1235
 2320TIP3   OH228450   3.542   2.391  17.063 -0.3086 -0.1811 -0.0049
 2320TIP3    H128451   3.493   2.378  16.983  1.1762 -1.8910 -0.6574
 2320TIP3    H228452   3.555   2.303  17.099  0.1187  0.4552  1.4504
 2321TIP3   OH228453   4.983   5.166   3.078  0.2979  0.0733  0.2583
 2321TIP3    H128454   5.040   5.162   3.001  0.4000  0.5363  0.3109
 2321TIP3    H228455   4.945   5.254   3.076 -0.1926 -0.1355  0.3820
 2322TIP3   OH228456   1.766   5.934   3.288  0.0216  0.4847 -0.0207
 2322TIP3    H128457   1.821   5.866   3.251 -1.2860 -1.2737  1.2167
 2322TIP3    H228458   1.826   6.006   3.307  1.7326 -1.0390  0.4007
 2323TIP3   OH228459   6.027   1.017   3.499 -0.1850  0.3763  0.7855
 2323TIP3    H128460   6.076   0.973   3.569 -0.5235  0.0180  0.8010
 2323TIP3    H228461   6.093   1.036   3.432 -0.2765 -1.5546  0.0974
 2324TIP3   OH228462   1.481   1.292   1.670  0.0041 -0.6882 -0.5309
 2324TIP3    H128463   1.539   1.318   1.741  0.4263 -2.1928 -0.3302
 2324TIP3    H228464   1.524   1.324   1.591 -0.3691  0.8160 -0.1402
 2325TIP3   OH228465   4.426   6.008  11.006  0.1791 -0.0120  0.5214
 2325TIP3    H128466   4.499   6.070  11.007  0.2481 -0.1023  1.7365
 2325TIP3    H228467   4.422   5.977  10.916  1.9687 -0.3960  0.5638
 2326TIP3   OH228468   4.484   5.018   0.238 -0.3204 -0.6608 -0.3857
 2326TIP3    H128469   4.555   5.053   0.184  0.0562  1.6515  1.5330
 2326TIP3    H228470   4.524   4.944   0.284 -0.5315 -2.3873 -2.8687
 2327TIP3   OH228471   5.022   3.236   5.805 -0.2136  0.7912  0.0841
 2327TIP3    H128472   4.956   3.199   5.745  1.7104 -0.7392 -1.1720
 2327TIP3    H228473   5.091   3.267   5.747  1.3463 -0.0061  1.5024
 2328TIP3   OH228474   5.319   0.112   3.841  0.1845  0.1089 -0.2601
 2328TIP3    H128475   5.358   0.196   3.819  0.4005  0.4322  1.2948
 2328TIP3    H228476   5.226   0.131   3.853  0.1161 -0.0107 -0.5962
 2329TIP3   OH228477   3.799   0.772  17.021  0.2839 -0.1926 -0.3499
 2329TIP3    H128478   3.706   0.750  17.025  0.1680  0.2698 -0.4874
 2329TIP3    H228479   3.801   0.867  17.009  0.8071  0.0679  1.5887
 2330TIP3   OH228480   5.369   5.867   3.919 -0.2329  0.1296 -0.1785
 2330TIP3    H128481   5.276   5.872   3.940 -0.4225  0.3768 -1.0927
 2330TIP3    H228482   5.409   5.933   3.976 -0.3316 -1.4138  1.7545
 2331TIP3   OH228483   3.361   6.585   5.172  0.5989 -0.4438 -0.1640
 2331TIP3    H128484   3.348   6.674   5.140  0.9603 -0.2999  0.0878
 2331TIP3    H228485   3.439   6.554   5.127  1.2082 -0.1800  0.6968
 2332TIP3   OH228486   1.771   3.417  12.757 -0.2922  0.0582  0.1056
 2332TIP3    H128487   1.800   3.325  12.755 -0.9880 -0.2173  2.0247
 2332TIP3    H228488   1.747   3.436  12.666  0.4047 -1.4799 -0.4216
 2333TIP3   OH228489   5.461   0.587  13.241 -0.0593 -0.3692 -0.5306
 2333TIP3    H128490   5.515   0.660  13.212  1.0174 -0.8038  0.3291
 2333TIP3    H228491   5.507   0.553  13.318 -0.2909 -2.2246 -1.1849
 2334TIP3   OH228492   2.650   0.200   3.249  0.2471  0.2861  0.1266
 2334TIP3    H128493   2.730   0.148   3.250  1.1819  1.6937  0.2732
 2334TIP3    H228494   2.588   0.147   3.198  1.4071 -0.6178 -0.3821
 2335TIP3   OH228495   3.232   0.867   6.466 -0.1378 -0.1550  0.1644
 2335TIP3    H128496   3.166   0.818   6.416 -0.3633 -0.7343  1.0193
 2335TIP3    H228497   3.203   0.860   6.557  1.7492 -1.4599  0.7008
 2336TIP3   OH228498   1.163   5.167  16.276  0.4800  0.3605 -0.9012
 2336TIP3    H128499   1.207   5.161  16.192  0.3830  1.3250 -1.0210
 2336TIP3    H228500   1.118   5.083  16.285  2.1744 -0.5714 -0.8601
 2337TIP3   OH228501   2.744   6.001   4.725  0.0881 -0.2214 -0.1364
 2337TIP3    H128502   2.823   6.035   4.767  0.1083 -0.6984  0.2167
 2337TIP3    H228503   2.746   6.036   4.637 -0.4343  1.5625  0.5465
 2338TIP3   OH228504   0.460   6.012   0.985  0.2724 -0.2454  0.6600
 2338TIP3    H128505   0.375   6.021   0.942  0.3961  0.4216  0.5477
 2338TIP3    H228506   0.440   6.023   1.078  0.0730 -1.2164  0.7306
 2339TIP3   OH228507   3.324   6.333   5.841  0.1345 -0.1230  0.7937
 2339TIP3    H128508   3.249   6.303   5.789  0.7062  0.3279 -0.3116
 2339TIP3    H228509   3.342   6.262   5.902  0.6348 -1.4624 -0.8934
 2340TIP3   OH228510   5.438   0.032  10.703 -0.2333 -0.3404 -0.1904
 2340TIP3    H128511   5.356  -0.017  10.703  0.6706 -1.9106  1.9543
 2340TIP3    H228512   5.438   0.080  10.786  0.7103  0.1909 -0.4872
 2341TIP3   OH228513   5.458   6.423  14.467  0.0455  0.1418 -0.2971
 2341TIP3    H128514   5.531   6.441  14.408  0.3510  2.2794  0.6873
 2341TIP3    H228515   5.499   6.418  14.554 -0.9472  1.1233  0.2333
 2342TIP3   OH228516   2.237   1.358  14.919  0.7629 -0.1214 -0.3663
 2342TIP3    H128517   2.162   1.341  14.977  1.3573  1.3795  0.8639
 2342TIP3    H228518   2.209   1.325  14.834 -0.3189 -1.9203  0.6535
 2343TIP3   OH228519   5.861   0.819  13.894  0.1335  0.0518 -0.9016
 2343TIP3    H128520   5.856   0.767  13.813 -0.4352  0.3150 -1.0363
 2343TIP3    H228521   5.867   0.910  13.864 -1.4658  0.2559 -0.6361
 2344TIP3   OH228522   6.425   4.305   3.052 -0.3633  0.0873  0.8203
 2344TIP3    H128523   6.338   4.268   3.037 -0.0640  0.0581 -0.9130
 2344TIP3    H228524   6.412   4.400   3.053 -0.3804  0.0872  0.3965
 2345TIP3   OH228525   0.284   6.547  11.761 -0.3721 -0.2473  0.3838
 2345TIP3    H128526   0.199   6.518  11.793  0.5060  0.1314  3.2464
 2345TIP3    H228527   0.347   6.497  11.813  1.1212  1.3530  0.1591
 2346TIP3   OH228528   5.917   5.782  12.723 -0.1283  0.0782  0.3081
 2346TIP3    H128529   5.960   5.706  12.762  1.6249  1.3245  0.8543
 2346TIP3    H228530   5.888   5.834  12.798 -1.3660 -0.0704 -0.0592
 2347TIP3   OH228531   3.589   0.356  13.861  0.2818 -0.9705  0.1237
 2347TIP3    H128532   3.524   0.422  13.837  0.1642 -0.0176  2.9651
 2347TIP3    H228533   3.540   0.275  13.870 -0.0358 -0.8564 -0.5277
 2348TIP3   OH228534   6.546   3.999   0.694 -0.1273  0.8241  0.0721
 2348TIP3    H128535   6.589   4.012   0.779 -0.2438  0.0837  0.2526
 2348TIP3    H228536   6.609   4.030   0.630  0.2519  0.7234  0.3946
 2349TIP3   OH228537   6.189   5.028   4.508  0.1011 -0.0299  0.1894
 2349TIP3    H128538   6.096   5.005   4.507  0.0429  0.1927  0.4335
 2349TIP3    H228539   6.189   5.124   4.502  0.3297 -0.0694 -0.5097
 2350TIP3   OH228540   2.490   5.864   3.036 -0.3357 -0.1705 -0.7015
 2350TIP3    H128541   2.420   5.898   2.981 -0.0688  2.7344  0.6806
 2350TIP3    H228542   2.465   5.888   3.125  0.8152 -2.0158  0.1624
 2351TIP3   OH228543   5.061   4.142   0.785  0.5009  0.2280 -0.0578
 2351TIP3    H128544   5.017   4.119   0.703  0.5061  1.5151 -0.4252
 2351TIP3    H228545   5.061   4.237   0.787 -0.9073  0.2412  2.2011
 2352TIP3   OH228546   3.342   2.484  14.853  0.0158  0.2864 -0.0565
 2352TIP3    H128547   3.369   2.447  14.769  0.3488 -1.2660  0.7080
 2352TIP3    H228548   3.371   2.575  14.850  1.5493 -0.2146 -0.9359
 2353TIP3   OH228549   1.886   5.210  12.544  0.3419 -0.3986 -0.2367
 2353TIP3    H128550   1.938   5.148  12.493  1.6326  0.4126  0.0747
 2353TIP3    H228551   1.933   5.218  12.627 -0.6945 -0.2291  0.3401
 2354TIP3   OH228552   1.298   6.637   0.441  0.1230  0.5685  0.3984
 2354TIP3    H128553   1.291   6.576   0.514 -0.9569  2.2462  1.7419
 2354TIP3    H228554   1.238   6.708   0.464 -1.3930  0.3978 -2.8744
 2355TIP3   OH228555   4.989   6.170   2.369 -0.0219 -0.2807  0.2728
 2355TIP3    H128556   4.901   6.139   2.391 -0.3513 -0.2797 -1.0182
 2355TIP3    H228557   4.989   6.263   2.394 -0.2199 -0.3969  0.7141
 2356TIP3   OH228558   5.510   4.626   2.493 -0.0354  0.5498 -0.3429
 2356TIP3    H128559   5.594   4.630   2.447  1.1011 -0.3487  1.6320
 2356TIP3    H228560   5.486   4.533   2.491 -0.7274  0.7260 -0.4281
 2357TIP3   OH228561   6.041   0.221  13.673  0.3544 -0.7131  0.1759
 2357TIP3    H128562   6.133   0.203  13.654  1.0833  0.1042  2.6702
 2357TIP3    H228563   6.029   0.312  13.646  0.2710 -0.8356 -0.1963
 2358TIP3   OH228564   3.932   6.590   2.696  0.1294  0.6502 -0.7924
 2358TIP3    H128565   3.887   6.533   2.758  1.5727 -0.0045 -0.3362
 2358TIP3    H228566   3.910   6.679   2.725 -0.7419  0.3398 -0.4898
 2359TIP3   OH228567   5.629   0.569   3.727  0.4002 -0.2203 -0.5877
 2359TIP3    H128568   5.638   0.663   3.742  1.5012 -0.3989 -0.0751
 2359TIP3    H228569   5.575   0.563   3.648 -1.2160  0.7995  0.4207
 2360TIP3   OH228570   3.406   0.330  10.569  0.3947  0.1738  0.5323
 2360TIP3    H128571   3.454   0.283  10.637  0.9885 -0.3807 -0.2607
 2360TIP3    H228572   3.391   0.417  10.607  0.5563 -0.1857  1.4415
 2361TIP3   OH228573   0.479   0.665   0.850 -0.2745  0.2763 -0.5673
 2361TIP3    H128574   0.397   0.668   0.800  0.3743  0.3636 -1.6401
 2361TIP3    H228575   0.451   0.657   0.941 -1.6145  5.1569 -0.4074
 2362TIP3   OH228576   3.173   2.656   4.163  0.2917  0.0172  0.2141
 2362TIP3    H128577   3.189   2.577   4.112 -0.1667  1.1372 -1.7262
 2362TIP3    H228578   3.256   2.704   4.161  0.1153  0.3182  0.0653
 2363TIP3   OH228579   5.270   0.688  15.081  0.2281  0.3431 -0.3134
 2363TIP3    H128580   5.340   0.623  15.070  1.3602  1.7074 -1.2830
 2363TIP3    H228581   5.233   0.698  14.993 -0.6572  0.2196  0.0458
 2364TIP3   OH228582   3.703   5.222  15.798  0.4273  0.1510  0.0346
 2364TIP3    H128583   3.766   5.171  15.849 -0.6694 -0.8471  0.4197
 2364TIP3    H228584   3.711   5.310  15.833  1.0551 -0.1239  0.6135
 2365TIP3   OH228585   1.929   2.043   3.412 -0.0576  0.2729  0.7232
 2365TIP3    H128586   1.838   2.063   3.390 -0.7255  0.1186  3.2832
 2365TIP3    H228587   1.952   2.105   3.480  1.6173 -0.0316  0.4668
 2366TIP3   OH228588   1.238   3.389  11.457  0.5729  0.2684  0.1487
 2366TIP3    H128589   1.164   3.329  11.446  0.6056  0.2824 -0.1323
 2366TIP3    H228590   1.306   3.357  11.398  0.8980  0.0898  0.6145
 2367TIP3   OH228591   2.545   6.652  12.707  0.0647  0.4533  0.1225
 2367TIP3    H128592   2.496   6.607  12.775  1.1349 -0.7251  0.1146
 2367TIP3    H228593   2.624   6.684  12.750  0.3969  0.3393 -0.3954
 2368TIP3   OH228594   5.511   5.193  14.599  0.3399  0.0550  0.0458
 2368TIP3    H128595   5.440   5.250  14.570 -0.8567 -0.6337  1.5328
 2368TIP3    H228596   5.470   5.107  14.609  1.1746 -0.1748  1.7044
 2369TIP3   OH228597   1.553   6.367  16.461 -0.2488 -0.0065 -0.4154
 2369TIP3    H128598   1.625   6.376  16.523 -0.5123  1.0103 -0.2418
 2369TIP3    H228599   1.493   6.305  16.502  0.1665 -0.2852 -0.2244
 2370TIP3   OH228600   5.604   0.761   0.550 -0.3096  0.5520 -0.0309
 2370TIP3    H128601   5.611   0.801   0.637  3.2882 -1.3717  0.6704
 2370TIP3    H228602   5.549   0.684   0.565  1.0438 -0.2871  0.7982
 2371TIP3   OH228603   1.636   3.152  13.022  0.1522 -0.1893 -0.1150
 2371TIP3    H128604   1.706   3.097  13.056 -0.3927 -0.8931 -0.1237
 2371TIP3    H228605   1.666   3.242  13.036  0.2253 -0.4771  1.6057
 2372TIP3   OH228606   1.015   1.925   2.480 -0.1043 -0.1324 -0.0751
 2372TIP3    H128607   1.032   1.840   2.440  0.9661 -0.4106  0.9542
 2372TIP3    H228608   1.020   1.909   2.574  0.4192  1.1324  0.1220
 2373TIP3   OH228609   6.476   3.033  13.480 -0.0824 -0.1541  0.0157
 2373TIP3    H128610   6.403   3.067  13.427  0.9544  0.3522 -1.1137
 2373TIP3    H228611   6.513   2.962  13.427  0.9867  0.3767  0.0342
 2374TIP3   OH228612   5.208   0.681  11.189  1.4864 -0.0269  0.1338
 2374TIP3    H128613   5.193   0.643  11.103  2.5043 -0.6503  0.2302
 2374TIP3    H228614   5.161   0.765  11.186  0.7987 -0.4276 -0.7187
 2375TIP3   OH228615   0.614   0.040  16.824  0.1080 -0.3277  0.4337
 2375TIP3    H128616   0.692   0.092  16.805  1.3193 -1.4885  2.0973
 2375TIP3    H228617   0.568   0.034  16.740  1.5963  0.6941 -0.4736
 2376TIP3   OH228618   6.485   2.379   0.393  0.6573  0.1698  0.5196
 2376TIP3    H128619   6.507   2.320   0.322 -0.0971  0.0143  0.4123
 2376TIP3    H228620   6.389   2.379   0.396  0.6537  1.1847  0.6832
 2377TIP3   OH228621   4.086   4.169  11.093  0.4891 -0.6446 -0.5705
 2377TIP3    H128622   4.122   4.246  11.049 -1.8355  0.5842 -0.4323
 2377TIP3    H228623   4.003   4.153  11.048 -0.2896 -1.4703  1.1153
 2378TIP3   OH228624   2.467   2.847   3.889  0.0197  0.3085 -0.3728
 2378TIP3    H128625   2.479   2.936   3.922  1.3026 -0.2090  0.6154
 2378TIP3    H228626   2.543   2.800   3.921  0.2705 -0.7144 -2.4294
 2379TIP3   OH228627   3.467   4.980  13.907 -0.2908  0.2304  0.0602
 2379TIP3    H128628   3.487   4.890  13.931 -1.7105 -0.3111 -0.7841
 2379TIP3    H228629   3.493   5.031  13.984  1.7242 -0.7412  0.0593
 2380TIP3   OH228630   0.135   1.260  15.105  0.0248 -0.7924 -0.3013
 2380TIP3    H128631   0.142   1.287  15.013  1.0916  1.9867  0.5577
 2380TIP3    H228632   0.048   1.288  15.131  1.0063  1.6184  0.4936
 2381TIP3   OH228633   4.858   2.524   3.978 -0.3896  0.3469 -0.2184
 2381TIP3    H128634   4.811   2.461   4.033 -0.2307 -0.1147 -0.6061
 2381TIP3    H228635   4.810   2.605   3.988  1.2762  1.0144  2.8359
 2382TIP3   OH228636   3.489   1.516  11.509  0.2672  0.0388 -0.3889
 2382TIP3    H128637   3.499   1.578  11.582 -0.2170 -2.0376  1.5110
 2382TIP3    H228638   3.568   1.462  11.513  0.2461 -0.0691 -1.4110
 2383TIP3   OH228639   4.328   5.609  11.438  0.1021 -0.1590 -0.0149
 2383TIP3    H128640   4.276   5.631  11.360  1.2536  2.5127 -0.0623
 2383TIP3    H228641   4.416   5.642  11.418  0.3693  0.7153  2.4789
 2384TIP3   OH228642   2.658   5.391   1.371  0.0868 -0.1335  0.1122
 2384TIP3    H128643   2.630   5.304   1.400 -0.7960  0.6990  1.8500
 2384TIP3    H228644   2.635   5.394   1.278 -3.2179 -0.4631  0.8395
 2385TIP3   OH228645   5.984   4.625   0.854 -0.1413 -0.1013  0.3021
 2385TIP3    H128646   5.979   4.552   0.916  0.5824 -0.5813 -0.2019
 2385TIP3    H228647   6.014   4.699   0.908 -3.0637  0.4170  1.2903
 2386TIP3   OH228648   4.528   2.061  11.932 -0.2623  0.2400 -0.2618
 2386TIP3    H128649   4.546   2.059  11.838 -1.5103  0.2347 -0.5119
 2386TIP3    H228650   4.476   1.982  11.949 -0.6340  0.5945  0.3017
 2387TIP3   OH228651   4.141   4.718   5.627  0.1330 -0.6370 -0.0738
 2387TIP3    H128652   4.100   4.720   5.541  0.3489 -1.8951 -0.2039
 2387TIP3    H228653   4.078   4.764   5.684  0.6510  1.4922 -1.1617
 2388TIP3   OH228654   6.379   1.958   5.717  0.0791  0.0642 -0.1856
 2388TIP3    H128655   6.291   1.936   5.746  0.0276  0.3308 -0.1361
 2388TIP3    H228656   6.371   1.968   5.622 -0.0650  0.6470 -0.1151
 2389TIP3   OH228657   0.685   5.395   1.217  0.1036 -0.2490  0.3966
 2389TIP3    H128658   0.685   5.301   1.201 -2.6525 -0.1104 -0.5404
 2389TIP3    H228659   0.650   5.404   1.306  2.7877 -0.2072  1.5130
 2390TIP3   OH228660   3.012   6.401   5.460  0.4745 -0.1942 -0.1018
 2390TIP3    H128661   2.938   6.341   5.453  0.3816 -0.0621 -0.2211
 2390TIP3    H228662   3.028   6.432   5.371  0.0727  0.5103  0.0698
 2391TIP3   OH228663   5.060   6.465  11.354  0.0483 -0.2314 -0.0473
 2391TIP3    H128664   5.109   6.396  11.400  0.2445 -0.8841 -1.2283
 2391TIP3    H228665   5.096   6.546  11.390  0.3062 -0.7287  0.8515
 2392TIP3   OH228666   1.187   5.839   3.184  0.5194  0.2704  0.1722
 2392TIP3    H128667   1.242   5.765   3.159  1.1973  0.8754 -0.1183
 2392TIP3    H228668   1.235   5.882   3.255 -1.3919 -1.4521  2.6240
 2393TIP3   OH228669   1.085   5.082   1.891  0.3219  0.1138  0.2212
 2393TIP3    H128670   1.126   5.032   1.962 -1.1279  0.9300  1.6738
 2393TIP3    H228671   1.152   5.087   1.824  1.8805 -0.3430  1.6949
 2394TIP3   OH228672   5.672   4.612   0.175  0.2398  0.0550 -0.0945
 2394TIP3    H128673   5.657   4.662   0.255 -0.5605  0.7359 -0.6495
 2394TIP3    H228674   5.679   4.521   0.204 -0.1408  0.2852  0.7388
 2395TIP3   OH228675   0.586   1.359  17.258 -1.0890 -0.3705 -0.0422
 2395TIP3    H128676   0.560   1.267  17.258  0.0200 -0.6976  0.6732
 2395TIP3    H228677   0.652   1.365  17.189 -0.3741 -0.3515  0.6352
 2396TIP3   OH228678   5.493   1.378   3.867  0.1726 -0.1435 -0.3374
 2396TIP3    H128679   5.552   1.309   3.837  1.1152  0.6895 -0.4150
 2396TIP3    H228680   5.476   1.358   3.959  1.6284  0.3423  0.0468
 2397TIP3   OH228681   0.473   2.348  13.128  0.0892  0.3185 -0.1837
 2397TIP3    H128682   0.553   2.391  13.097  0.8866  0.7433  2.3941
 2397TIP3    H228683   0.416   2.420  13.155 -0.6437 -0.0488 -0.7197
 2398TIP3   OH228684   0.959   3.474  14.259 -0.5287 -0.0482 -0.0438
 2398TIP3    H128685   0.914   3.520  14.330  1.6330  1.6687  0.2807
 2398TIP3    H228686   1.004   3.401  14.301 -0.6176 -0.0106  0.1137
 2399TIP3   OH228687   0.385   3.352  15.104  0.0969  0.3711  0.4435
 2399TIP3    H128688   0.413   3.441  15.080 -0.9491  0.6670  0.3051
 2399TIP3    H228689   0.316   3.366  15.169  1.1978 -0.3846  1.7961
 2400TIP3   OH228690   2.990   5.211   4.473 -0.1983 -0.1742  0.0072
 2400TIP3    H128691   3.078   5.218   4.510 -0.4144  0.7185  0.3633
 2400TIP3    H228692   2.932   5.214   4.549 -0.5426 -0.7001 -0.2328
 2401TIP3   OH228693   6.164   4.016   3.353  0.2423  0.1580 -0.1122
 2401TIP3    H128694   6.101   4.086   3.370  0.3612  0.0501  0.7724
 2401TIP3    H228695   6.201   3.995   3.439  0.8468 -0.3840 -0.5022
 2402TIP3   OH228696   3.961   5.170   3.056 -0.5164  0.1778  0.2578
 2402TIP3    H128697   4.012   5.183   2.976 -1.6278  0.6913 -0.3883
 2402TIP3    H228698   3.949   5.259   3.091 -0.4640 -0.0003  0.7341
 2403TIP3   OH228699   0.607   5.301  12.266 -0.2569 -0.3664  0.5831
 2403TIP3    H128700   0.688   5.295  12.317  0.0549  0.7216  0.2319
 2403TIP3    H228701   0.629   5.260  12.182 -0.4962 -1.3329  0.9867
 2404TIP3   OH228702   1.317   1.100   2.399 -0.0856 -0.7231 -0.2250
 2404TIP3    H128703   1.278   1.013   2.403 -2.3578  0.2246 -0.8778
 2404TIP3    H228704   1.308   1.135   2.488 -1.3743 -0.2582 -0.5245
 2405TIP3   OH228705   6.809   5.777  13.871  0.5993  0.5971 -0.0569
 2405TIP3    H128706   6.758   5.744  13.945  0.5804  0.3026 -0.2018
 2405TIP3    H228707   6.745   5.824  13.817  0.4431  0.0863 -0.3245
 2406TIP3   OH228708   0.486   2.785  15.385  0.1560  0.3549 -0.0155
 2406TIP3    H128709   0.550   2.713  15.381  0.5022  0.6998 -1.0093
 2406TIP3    H228710   0.525   2.848  15.446  0.8599  0.6327 -0.7315
 2407TIP3   OH228711   4.738   2.670   5.157  0.6251 -0.3650  0.4255
 2407TIP3    H128712   4.752   2.764   5.142  0.0868 -0.1765  1.0885
 2407TIP3    H228713   4.654   2.665   5.202  0.6588 -1.1686  0.4049
 2408TIP3   OH228714   4.627   0.493   5.238  0.1104 -0.3209  0.2910
 2408TIP3    H128715   4.669   0.579   5.239 -0.9014  0.1716  1.7819
 2408TIP3    H228716   4.601   0.478   5.329 -0.6370 -1.7584 -0.1440
 2409TIP3   OH228717   0.393   4.380   5.819  0.6277 -0.1039 -0.1284
 2409TIP3    H128718   0.458   4.451   5.823  0.2212  0.3921 -1.7905
 2409TIP3    H228719   0.318   4.419   5.775 -0.4340 -0.9724  0.8746
 2410TIP3   OH228720   1.259   1.095  11.593 -0.1454  0.7368  0.2853
 2410TIP3    H128721   1.340   1.129  11.633 -0.0303  2.1291 -1.0871
 2410TIP3    H228722   1.289   1.025  11.535  0.1516  1.7529 -0.7859
 2411TIP3   OH228723   5.368   2.594   0.950  0.0935  0.1894  0.0806
 2411TIP3    H128724   5.296   2.598   0.887  0.5363 -0.7470 -0.4990
 2411TIP3    H228725   5.349   2.663   1.013 -0.5757  0.8629 -0.8512
 2412TIP3   OH228726   3.199   4.913   3.804 -0.0059  0.2341 -0.4423
 2412TIP3    H128727   3.288   4.906   3.769  0.5723  2.5000  0.4963
 2412TIP3    H228728   3.179   4.825   3.837  1.4024 -0.6084 -1.7708
 2413TIP3   OH228729   4.576   3.710   6.508  0.7854 -0.2101 -0.0471
 2413TIP3    H128730   4.491   3.692   6.548  1.7940 -1.7677  1.4650
 2413TIP3    H228731   4.633   3.641   6.541  2.0890 -0.5876 -2.8896
 2414TIP3   OH228732   4.185   1.187   0.582  0.2082  0.7876  0.4363
 2414TIP3    H128733   4.197   1.278   0.607 -0.3471  0.7553  0.8459
 2414TIP3    H228734   4.138   1.148   0.657 -1.9062  0.7823 -0.8500
 2415TIP3   OH228735   0.075   5.437   1.435 -0.0627 -0.1922  0.0990
 2415TIP3    H128736  -0.014   5.462   1.462 -0.1262  0.6748 -0.8697
 2415TIP3    H228737   0.066   5.411   1.343  0.2719 -2.4311  0.6795
 2416TIP3   OH228738   5.816   6.197   0.252 -0.4575  0.1959 -0.1118
 2416TIP3    H128739   5.725   6.168   0.242 -0.1805 -1.0906  1.0177
 2416TIP3    H228740   5.811   6.272   0.311 -1.0510  1.8368 -2.1591
 2417TIP3   OH228741   1.113   6.776   4.432  0.4941  0.1841  0.0415
 2417TIP3    H128742   1.127   6.816   4.345  1.4045 -0.4870 -0.1327
 2417TIP3    H228743   1.111   6.682   4.415  0.9390  0.0389  0.7860
 2418TIP3   OH228744   0.389   4.725  14.326  0.4114  0.4212 -0.1154
 2418TIP3    H128745   0.437   4.732  14.244 -0.9466  0.1425 -0.9384
 2418TIP3    H228746   0.372   4.632  14.337 -1.3973  0.6682 -0.6863
 2419TIP3   OH228747   5.910   0.441  11.795 -0.3037 -0.5319  0.4512
 2419TIP3    H128748   5.846   0.403  11.856 -0.3976 -0.9265  0.1045
 2419TIP3    H228749   5.936   0.369  11.739 -1.5076  0.2087 -1.1070
 2420TIP3   OH228750   6.065   3.739   2.314  0.1269  0.2442 -0.1907
 2420TIP3    H128751   6.015   3.658   2.305  0.0122  0.3178 -0.2094
 2420TIP3    H228752   6.017   3.790   2.379  0.5459  0.0290  0.2947
 2421TIP3   OH228753   3.963   6.246  13.980  0.6275  0.2803  0.5250
 2421TIP3    H128754   3.950   6.226  14.073 -0.3253  1.4658  0.6524
 2421TIP3    H228755   4.053   6.278  13.975  0.8487 -0.2664  0.9554
 2422TIP3   OH228756   3.219   5.906  14.579  0.1799  0.0491  0.0511
 2422TIP3    H128757   3.205   5.961  14.656 -1.8488 -1.5224  0.8335
 2422TIP3    H228758   3.299   5.941  14.540 -0.4816  2.9132  1.0755
 2423TIP3   OH228759   5.528   3.717  11.217  0.2590 -0.0038 -0.3053
 2423TIP3    H128760   5.588   3.728  11.143 -0.3039  0.6418 -0.6816
 2423TIP3    H228761   5.444   3.695  11.176  0.6017 -2.5147  0.2998
 2424TIP3   OH228762   1.931   3.219   3.744 -0.1984  0.0258 -0.1895
 2424TIP3    H128763   1.847   3.265   3.738  0.6068  1.4117 -1.1343
 2424TIP3    H228764   1.934   3.186   3.834 -1.5784  0.2805 -0.0302
 2425TIP3   OH228765   5.633   0.154   5.359 -0.7661 -0.1408  0.0322
 2425TIP3    H128766   5.645   0.143   5.453 -1.4089 -0.8495  0.0294
 2425TIP3    H228767   5.538   0.162   5.347 -0.5557  2.2053 -0.3123
 2426TIP3   OH228768   4.992   2.987   3.741  0.2361  0.1925  0.1013
 2426TIP3    H128769   4.978   3.078   3.766 -0.2964  0.2685 -0.4656
 2426TIP3    H228770   4.964   2.982   3.650  0.0154 -0.5948  0.2048
 2427TIP3   OH228771   0.312   6.269  12.479  0.8837 -0.4648  0.0628
 2427TIP3    H128772   0.232   6.219  12.494  0.9490  0.0861  2.4613
 2427TIP3    H228773   0.282   6.352  12.442  0.3916 -0.4577  0.4755
 2428TIP3   OH228774   4.332   1.240   3.077  0.2268  0.1250  0.1620
 2428TIP3    H128775   4.323   1.176   3.147  0.9514  1.6378  1.7011
 2428TIP3    H228776   4.364   1.319   3.122  1.1722  0.9788 -1.9476
 2429TIP3   OH228777   2.865   2.165   2.282  1.0618  0.1735 -0.4006
 2429TIP3    H128778   2.934   2.116   2.238 -0.3887 -0.6119 -1.8370
 2429TIP3    H228779   2.785   2.141   2.236 -0.3362  0.2485  1.9101
 2430TIP3   OH228780   3.119   6.609  11.114 -0.8803 -0.4760  0.6158
 2430TIP3    H128781   3.177   6.630  11.041 -0.2120 -0.5483  1.1154
 2430TIP3    H228782   3.176   6.611  11.191 -1.5120 -0.7006  1.0962
 2431TIP3   OH228783   5.573   4.857   0.959  0.4028  0.5319 -0.2108
 2431TIP3    H128784   5.562   4.952   0.963  0.9907  0.6013 -0.1057
 2431TIP3    H228785   5.486   4.822   0.941  0.2828  1.1330 -0.8012
 2432TIP3   OH228786   1.104   0.531   0.552  0.1172 -0.5767 -0.0258
 2432TIP3    H128787   1.152   0.462   0.507  1.7846 -0.6613  1.8026
 2432TIP3    H228788   1.157   0.610   0.538  1.1936 -0.7908  2.5363
 2433TIP3   OH228789   3.960   0.212  14.478  0.1041  0.7314 -0.2755
 2433TIP3    H128790   3.903   0.223  14.554 -0.4864 -1.2672 -0.4085
 2433TIP3    H228791   3.945   0.291  14.425 -2.5495  0.2492 -0.3192
 2434TIP3   OH228792   5.965   5.028   2.972  0.2256  0.1806  0.1611
 2434TIP3    H128793   6.057   5.024   2.946  0.5678  0.8626  1.2618
 2434TIP3    H228794   5.966   5.031   3.067 -0.9266  0.5262  0.1748
 2435TIP3   OH228795   3.302   6.480   0.458  0.0535 -0.2262  0.0889
 2435TIP3    H128796   3.276   6.466   0.549  2.5788  0.4561  0.9717
 2435TIP3    H228797   3.320   6.392   0.424 -1.3518 -0.5227  0.0767
 2436TIP3   OH228798   2.364   2.533  13.368 -0.5443 -0.2774  0.0832
 2436TIP3    H128799   2.348   2.550  13.275 -4.4643  0.4642  0.7774
 2436TIP3    H228800   2.325   2.447  13.383  0.7894 -0.7410  0.8821
 2437TIP3   OH228801   4.295   6.473   0.902  0.6187  0.1835  0.1315
 2437TIP3    H128802   4.354   6.399   0.892  0.2807 -0.0750  0.0534
 2437TIP3    H228803   4.353   6.549   0.909  0.9313  0.0337 -0.8404
 2438TIP3   OH228804   3.669   6.662   2.987 -0.3194  0.1690  0.0660
 2438TIP3    H128805   3.752   6.699   2.958 -0.3791  0.0333 -0.2721
 2438TIP3    H228806   3.611   6.737   2.994 -0.3410  0.1851 -0.2834
 2439TIP3   OH228807   2.198   2.615  11.507 -0.6973 -0.2338 -0.2464
 2439TIP3    H128808   2.289   2.617  11.535 -0.4315  0.3168 -1.1300
 2439TIP3    H228809   2.170   2.707  11.509 -1.4808 -0.4782  0.8010
 2440TIP3   OH228810   0.085   6.269  11.209 -0.6303  0.4241 -0.1051
 2440TIP3    H128811   0.085   6.303  11.120  1.0445  1.9893  0.4698
 2440TIP3    H228812  -0.002   6.293  11.243 -0.4694  1.7612 -0.6013
 2441TIP3   OH228813   2.961   1.211   5.132 -0.0435 -0.2032 -0.5186
 2441TIP3    H128814   2.883   1.179   5.087  0.1096 -0.5472 -0.5463
 2441TIP3    H228815   2.929   1.251   5.212 -0.2248 -0.6144 -0.3839
 2442TIP3   OH228816   6.509   0.469   0.936 -0.2325  0.2864  0.3558
 2442TIP3    H128817   6.575   0.432   0.995  0.6767  2.1200  0.5109
 2442TIP3    H228818   6.555   0.479   0.852 -1.2681 -1.4869 -0.4436
 2443TIP3   OH228819   4.233   4.524   2.605 -0.2188 -0.2001 -0.3052
 2443TIP3    H128820   4.291   4.600   2.597  1.5896 -1.2962  1.8685
 2443TIP3    H228821   4.239   4.481   2.520  0.5986  0.8024 -0.7676
 2444TIP3   OH228822   4.593   4.738   1.691 -0.2379 -0.1870 -0.3092
 2444TIP3    H128823   4.680   4.730   1.729  0.3218 -1.5870 -1.8515
 2444TIP3    H228824   4.536   4.691   1.751  0.3698 -0.9047 -0.2895
 2445TIP3   OH228825   2.244   0.276  16.969  0.4253 -0.0233 -0.3735
 2445TIP3    H128826   2.284   0.307  17.050  0.1335 -0.3571 -0.1010
 2445TIP3    H228827   2.317   0.271  16.906  0.0862  3.6329 -1.1516
 2446TIP3   OH228828   0.646   3.584  11.881 -0.0548 -0.1079 -0.1754
 2446TIP3    H128829   0.685   3.521  11.941  0.3934  0.4255  0.0941
 2446TIP3    H228830   0.578   3.627  11.932  0.7257  0.7676  0.1439
 2447TIP3   OH228831   4.906   4.847  14.637  0.2524 -0.6980  0.1208
 2447TIP3    H128832   4.883   4.935  14.666  2.4472 -0.2596  0.6514
 2447TIP3    H228833   4.838   4.823  14.575 -1.1565  0.7973  1.0699
 2448TIP3   OH228834   1.436   4.446  14.400  0.1336 -0.2295 -0.3440
 2448TIP3    H128835   1.425   4.370  14.458  1.0128 -0.3414 -0.3301
 2448TIP3    H228836   1.367   4.435  14.334  0.3639 -1.1254 -0.4389
 2449TIP3   OH228837   0.286   1.842  14.689  0.1099  0.2126  0.5133
 2449TIP3    H128838   0.381   1.852  14.701  0.0336  0.8783  0.5626
 2449TIP3    H228839   0.253   1.824  14.777  0.1788  0.0133  0.5000
 2450TIP3   OH228840   0.336   3.582  11.724  0.5383 -0.0871 -0.2047
 2450TIP3    H128841   0.260   3.585  11.666  0.5863 -0.7594 -0.3145
 2450TIP3    H228842   0.400   3.639  11.683  0.6146 -0.6462 -0.8883
 2451TIP3   OH228843   0.818   0.143  13.695 -0.8021 -0.0009  0.2722
 2451TIP3    H128844   0.867   0.162  13.615  0.0365  0.3486  0.8624
 2451TIP3    H228845   0.732   0.114  13.664 -0.1472 -0.8378 -0.7782
 2452TIP3   OH228846   2.784   4.517   5.094 -0.6703 -0.0105  0.3546
 2452TIP3    H128847   2.772   4.462   5.017 -1.4808  0.2230  0.2998
 2452TIP3    H228848   2.772   4.458   5.169  2.4558 -0.7223  0.3346
 2453TIP3   OH228849   0.844   3.391  16.324  0.7279  0.0142 -0.2742
 2453TIP3    H128850   0.836   3.459  16.258 -0.0515 -0.2626 -0.4649
 2453TIP3    H228851   0.782   3.415  16.392  1.3385  0.1558  0.2434
 2454TIP3   OH228852   0.615   4.272  14.621 -0.1522  0.2344  0.4395
 2454TIP3    H128853   0.572   4.188  14.604 -1.4214  0.6857  1.3193
 2454TIP3    H228854   0.565   4.310  14.693 -0.8717  2.6739 -1.2685
 2455TIP3   OH228855   6.703   2.948  16.715  0.1534  0.0425  0.5110
 2455TIP3    H128856   6.747   3.032  16.711 -1.3323  0.8413  0.5854
 2455TIP3    H228857   6.770   2.884  16.692  1.4387  1.1886  1.0375
 2456TIP3   OH228858   4.199   0.604  16.955  0.0797 -0.2693  0.1628
 2456TIP3    H128859   4.175   0.517  16.922 -0.4812  0.1035 -0.4233
 2456TIP3    H228860   4.265   0.636  16.893 -0.5823  0.2085 -0.3062
 2457TIP3   OH228861   6.282   6.673  17.063  0.0148 -0.1310  0.8112
 2457TIP3    H128862   6.209   6.712  17.111 -0.6861 -1.5556  0.9440
 2457TIP3    H228863   6.351   6.664  17.129  0.6901  2.1517  0.4428
 2458TIP3   OH228864   0.957   5.456  13.691  0.3884  0.0450  0.3980
 2458TIP3    H128865   0.887   5.418  13.745 -0.0169 -0.1514 -0.2538
 2458TIP3    H228866   0.914   5.525  13.640  0.8362  0.4491  0.5651
 2459TIP3   OH228867   6.817   6.474   5.461 -0.0757 -0.0858  0.4672
 2459TIP3    H128868   6.905   6.507   5.480  0.3787 -0.5236 -0.7899
 2459TIP3    H228869   6.770   6.481   5.544  1.8329 -2.0147  1.7841
 2460TIP3   OH228870   3.510   3.762   0.364  0.0673  0.3885 -0.1621
 2460TIP3    H128871   3.467   3.690   0.410 -1.3829  1.7740  0.6968
 2460TIP3    H228872   3.490   3.747   0.271  0.8246 -0.9807 -0.1213
 2461TIP3   OH228873   3.014   3.069   0.930  0.0360 -0.2308 -0.1918
 2461TIP3    H128874   3.072   3.047   1.003  0.0271 -0.0997 -0.1452
 2461TIP3    H228875   3.023   3.164   0.920 -0.0721 -0.2284 -0.2680
 2462TIP3   OH228876   3.276   3.294  15.386 -0.8730 -0.0343  0.0204
 2462TIP3    H128877   3.291   3.386  15.408 -0.1123  0.0694 -0.9136
 2462TIP3    H228878   3.186   3.293  15.353 -0.4419  0.6106 -1.2094
 2463TIP3   OH228879   0.548   5.302   0.906  0.5939  0.0954 -0.4811
 2463TIP3    H128880   0.498   5.370   0.950  2.1085  1.6853 -1.1784
 2463TIP3    H228881   0.610   5.271   0.972 -1.1929 -1.8292  0.3624
 2464TIP3   OH228882   3.464   5.151  11.568 -0.2114  0.0143  0.4160
 2464TIP3    H128883   3.500   5.063  11.576  0.8333  0.3907 -0.0367
 2464TIP3    H228884   3.523   5.206  11.620  0.3670  0.7609 -0.9844
 2465TIP3   OH228885   1.245   4.291   4.794 -0.4485  0.3511  0.4474
 2465TIP3    H128886   1.240   4.322   4.703  0.1261 -0.6545  0.0599
 2465TIP3    H228887   1.232   4.196   4.787 -3.0851  0.5645  1.6982
 2466TIP3   OH228888   2.841   5.166   3.132  0.2413 -0.0904 -0.4958
 2466TIP3    H128889   2.835   5.223   3.055 -1.9972  0.1460 -0.1835
 2466TIP3    H228890   2.779   5.203   3.194  1.5524 -0.6660  1.1854
 2467TIP3   OH228891   1.191   0.792  14.544  0.2514  0.2264 -0.1193
 2467TIP3    H128892   1.167   0.722  14.483 -1.9921  1.1957 -0.3963
 2467TIP3    H228893   1.118   0.796  14.606  1.5574  0.6343  1.4285
 2468TIP3   OH228894   4.106   2.901  15.667 -0.0175  0.0102  0.2357
 2468TIP3    H128895   4.037   2.895  15.601 -0.1071 -1.8948  0.4806
 2468TIP3    H228896   4.187   2.908  15.617 -0.1812 -0.2537 -0.0647
 2469TIP3   OH228897   4.269   6.167   5.886 -0.1063  0.1634  0.3684
 2469TIP3    H128898   4.329   6.124   5.947  0.4168  0.6151  0.1735
 2469TIP3    H228899   4.203   6.100   5.867 -1.4314  0.6695  3.0183
 2470TIP3   OH228900   0.128   6.272   0.151  0.0539  0.7319  0.3908
 2470TIP3    H128901   0.045   6.314   0.129 -0.0267  0.9286  1.0753
 2470TIP3    H228902   0.157   6.316   0.231  0.7300  0.5431  0.2481
 2471TIP3   OH228903   3.879   0.529   1.741 -0.3968  0.0014 -0.6294
 2471TIP3    H128904   3.845   0.619   1.747  1.5340  0.7903 -1.2162
 2471TIP3    H228905   3.806   0.475   1.771 -0.9845  1.8755  1.5262
 2472TIP3   OH228906   0.312   4.092   2.017 -0.3740  0.3198 -0.4833
 2472TIP3    H128907   0.250   4.076   2.089  0.4747 -1.2527 -0.0952
 2472TIP3    H228908   0.300   4.018   1.958  0.8804  0.1884 -0.5863
 2473TIP3   OH228909   4.643   1.741   0.270  0.3576 -0.5069 -0.3560
 2473TIP3    H128910   4.623   1.834   0.258  1.7731 -0.3270 -1.3504
 2473TIP3    H228911   4.737   1.734   0.256  0.9825 -1.4410  3.8280
 2474TIP3   OH228912   4.611   1.263   0.486 -0.2255  0.4676 -0.3716
 2474TIP3    H128913   4.647   1.349   0.463  0.7392  0.1538 -0.0329
 2474TIP3    H228914   4.678   1.201   0.460 -0.7037 -0.1571 -0.1248
 2475TIP3   OH228915   4.703   6.472   0.382  0.0981  0.1863 -0.1878
 2475TIP3    H128916   4.745   6.447   0.464  1.2684 -2.0063 -1.3991
 2475TIP3    H228917   4.694   6.389   0.334  0.0195  1.5140 -2.5196
 2476TIP3   OH228918   3.442   5.398  15.244  0.0321  0.5065  0.1459
 2476TIP3    H128919   3.382   5.336  15.202  1.7771 -1.3692  0.3411
 2476TIP3    H228920   3.519   5.399  15.188  0.7772  1.0538  1.1651
 2477TIP3   OH228921   4.168   3.579  13.836 -0.6182  0.3196  0.0073
 2477TIP3    H128922   4.191   3.495  13.796 -2.6202  0.0555 -0.6526
 2477TIP3    H228923   4.207   3.645  13.778 -1.3790 -0.1142 -1.0031
 2478TIP3   OH228924   6.145   0.232   0.126 -0.0185 -0.0427  0.6719
 2478TIP3    H128925   6.230   0.238   0.084 -0.2839 -0.6594  0.0388
 2478TIP3    H228926   6.082   0.226   0.053 -0.3217 -3.2380  1.1395
 2479TIP3   OH228927   5.103   1.449  11.033  0.1843 -0.0919 -0.3573
 2479TIP3    H128928   5.140   1.506  10.965  1.0514 -0.7649 -0.4526
 2479TIP3    H228929   5.024   1.495  11.061 -0.7426 -0.2963 -2.5373
 2480TIP3   OH228930   4.939   4.849  13.585  0.0841  0.5966 -0.2018
 2480TIP3    H128931   4.956   4.896  13.667 -0.2974  0.7541 -0.2134
 2480TIP3    H228932   5.026   4.834  13.548  0.1376  2.8600 -1.0778
 2481TIP3   OH228933   3.710   1.343  11.568  0.2479 -0.2918  0.2189
 2481TIP3    H128934   3.768   1.368  11.496 -0.3090 -1.2164 -0.5506
 2481TIP3    H228935   3.721   1.413  11.632  0.3151  0.8380 -1.0088
 2482TIP3   OH228936   2.403   6.626  14.024  0.6441  0.5435  0.1649
 2482TIP3    H128937   2.480   6.572  14.038 -0.7517 -1.4592  0.2587
 2482TIP3    H228938   2.362   6.632  14.110  1.2763  2.5638  0.3565
 2483TIP3   OH228939   2.450   6.565   3.489 -0.0025  0.1600  0.1702
 2483TIP3    H128940   2.422   6.487   3.537 -0.5548  0.8427  0.9682
 2483TIP3    H228941   2.416   6.638   3.540  1.8310  0.9784  0.2608
 2484TIP3   OH228942   2.994   5.999  15.736 -0.2537 -0.8054  0.3185
 2484TIP3    H128943   2.975   5.946  15.659 -1.7547  0.1537  0.0076
 2484TIP3    H228944   3.059   5.949  15.785 -1.0673 -2.5454 -0.3613
 2485TIP3   OH228945   4.325   4.588   5.760 -0.0377 -0.0227  0.2941
 2485TIP3    H128946   4.282   4.505   5.742  1.2842 -0.0565 -2.9627
 2485TIP3    H228947   4.264   4.654   5.727  0.0835  0.2001  0.5100
 2486TIP3   OH228948   4.100   6.657   5.919  0.3937 -0.2189  0.4144
 2486TIP3    H128949   4.040   6.729   5.939  2.5030  1.4641  0.9794
 2486TIP3    H228950   4.142   6.637   6.003  2.6336  0.5843 -0.4666
 2487TIP3   OH228951   3.823   3.721  15.792  0.0168 -0.6027  0.6611
 2487TIP3    H128952   3.745   3.712  15.847 -0.0492 -0.0816  0.6619
 2487TIP3    H228953   3.811   3.805  15.748  0.8637 -0.2269  1.1205
 2488TIP3   OH228954   5.614   6.158   5.267  0.1893  0.5998  0.0676
 2488TIP3    H128955   5.553   6.142   5.339  1.2201  1.4694  1.1509
 2488TIP3    H228956   5.597   6.248   5.240 -0.1073  0.3196 -0.7113
 2489TIP3   OH228957   4.406   1.378   3.342  0.1919  0.4507 -0.0431
 2489TIP3    H128958   4.502   1.377   3.346  0.1537  0.3501  0.9918
 2489TIP3    H228959   4.378   1.394   3.432 -0.7797 -1.2784 -0.0045
 2490TIP3   OH228960   0.171   5.089   4.778  0.8100 -0.1061  0.6449
 2490TIP3    H128961   0.122   5.009   4.797  2.4562 -1.2468  0.2310
 2490TIP3    H228962   0.104   5.155   4.762 -0.5949 -1.0778  2.2573
 2491TIP3   OH228963   6.530   0.793  16.756 -0.3287 -0.4384 -0.2952
 2491TIP3    H128964   6.516   0.700  16.774 -0.0913 -0.5588 -0.7122
 2491TIP3    H228965   6.599   0.794  16.689  0.1085  0.0556  0.1498
 2492TIP3   OH228966   4.473   1.986   4.439 -0.0979  0.0858  0.2769
 2492TIP3    H128967   4.408   1.984   4.509 -0.4051  0.1195 -0.0015
 2492TIP3    H228968   4.484   1.894   4.415 -1.2155  0.1967 -0.7286
 2493TIP3   OH228969   5.649   5.768   5.032 -0.2241  0.3554  0.3628
 2493TIP3    H128970   5.732   5.790   4.989  0.1148 -0.8018  0.3986
 2493TIP3    H228971   5.674   5.704   5.099 -1.1228  0.1558  0.5053
 2494TIP3   OH228972   5.686   1.369  14.221 -0.3254  0.2258  0.0816
 2494TIP3    H128973   5.709   1.398  14.133 -0.1973 -2.5144 -0.8227
 2494TIP3    H228974   5.594   1.394  14.231 -0.9134 -1.1797 -1.5868
 2495TIP3   OH228975   6.711   1.096   3.295 -0.1456 -0.2344  0.2169
 2495TIP3    H128976   6.734   1.094   3.388  0.8433 -0.0857 -0.0174
 2495TIP3    H228977   6.718   1.005   3.266  2.6404  0.1084 -0.4214
 2496TIP3   OH228978   4.974   5.771   2.454 -0.0683  0.5918 -0.1454
 2496TIP3    H128979   4.903   5.712   2.428  1.3707 -1.2095 -0.0151
 2496TIP3    H228980   5.051   5.716   2.461  1.3649  2.5202 -0.1991
 2497TIP3   OH228981   2.686   5.850  13.192 -0.1673 -0.2371 -0.4229
 2497TIP3    H128982   2.607   5.902  13.178  0.1875 -0.3214 -2.9961
 2497TIP3    H228983   2.689   5.790  13.118  1.9313 -0.6989 -0.0023
 2498TIP3   OH228984   4.661   0.056  12.637  0.4304  0.2595 -0.3759
 2498TIP3    H128985   4.698  -0.031  12.643  1.4785  0.5985 -1.8227
 2498TIP3    H228986   4.721   0.105  12.580 -0.1497  1.9104  0.3822
 2499TIP3   OH228987   5.931   2.101   0.431 -0.0470  0.2088  0.8078
 2499TIP3    H128988   5.890   2.159   0.367  0.3185 -1.6030 -1.1331
 2499TIP3    H228989   5.876   2.108   0.509 -2.2162  0.2142 -0.6835
 2500TIP3   OH228990   0.049   4.264   2.109  0.1790 -0.6707  0.2653
 2500TIP3    H128991  -0.021   4.200   2.103  0.0232 -0.3559 -1.4285
 2500TIP3    H228992   0.014   4.334   2.164  0.3888 -2.0682  2.2088
 2501TIP3   OH228993   3.387   3.586   3.236  0.2555 -0.0081 -0.1080
 2501TIP3    H128994   3.314   3.629   3.190  1.0596  0.7265 -0.7259
 2501TIP3    H228995   3.466   3.620   3.192  0.9572 -1.0340  0.3408
 2502TIP3   OH228996   5.003   0.303   0.572 -0.6164  0.6580  0.6732
 2502TIP3    H128997   5.041   0.389   0.587 -1.3801  0.9054  1.2274
 2502TIP3    H228998   5.055   0.243   0.626  1.9050  0.2704 -2.0764
 2503TIP3   OH228999   5.212   5.286   3.441  0.7027  0.0208  0.0264
 2503TIP3    H129000   5.123   5.252   3.435  1.0225 -0.8573  0.1924
 2503TIP3    H229001   5.243   5.258   3.527  1.6909 -1.0355 -0.6594
 2504TIP3   OH229002   5.520   4.631  13.233 -0.0650  0.2202 -0.1078
 2504TIP3    H129003   5.575   4.707  13.252 -0.5560  0.9369 -1.4265
 2504TIP3    H229004   5.520   4.625  13.137 -1.0613 -0.6670 -0.0675
 2505TIP3   OH229005   0.846   3.106  15.041  0.3983  0.3154  0.4601
 2505TIP3    H129006   0.844   3.025  15.093 -0.6789  0.6097  0.8946
 2505TIP3    H229007   0.756   3.138  15.044  0.7309  1.3038 -0.0775
 2506TIP3   OH229008   1.736   3.705   5.592  0.3474  0.4649  0.2413
 2506TIP3    H129009   1.698   3.660   5.667 -0.6896 -2.1168 -1.7825
 2506TIP3    H229010   1.677   3.779   5.576 -1.2425 -0.8166  0.0235
 2507TIP3   OH229011   6.414   1.254  14.454  0.2404  0.3551 -0.1361
 2507TIP3    H129012   6.447   1.175  14.497  2.2321  0.8938 -0.6187
 2507TIP3    H229013   6.363   1.299  14.522  1.0598 -0.1647  0.8402
 2508TIP3   OH229014   3.788   1.477  13.768 -0.0702 -0.1266 -0.8955
 2508TIP3    H129015   3.738   1.444  13.842 -1.7196  0.2389 -1.8175
 2508TIP3    H229016   3.728   1.536  13.722  2.8285  4.5624  0.9043
 2509TIP3   OH229017   6.263   6.434   2.939  0.3846  0.1546 -0.0357
 2509TIP3    H129018   6.344   6.480   2.917  0.5173 -0.0439  0.0397
 2509TIP3    H229019   6.292   6.350   2.974  0.1724  0.3952  0.7323
 2510TIP3   OH229020   0.467   2.422   0.773 -0.3992  0.3005  0.0111
 2510TIP3    H129021   0.487   2.467   0.855 -0.4842 -0.7881  0.6439
 2510TIP3    H229022   0.396   2.362   0.795  0.3331 -0.7996 -0.5978
 2511TIP3   OH229023   2.813   0.633   4.367 -0.2373 -0.2107 -0.5972
 2511TIP3    H129024   2.837   0.554   4.415 -0.4810  0.8126  1.2708
 2511TIP3    H229025   2.786   0.602   4.281  2.2067 -1.8991 -0.7893
 2512TIP3   OH229026   5.057   2.604  11.443  0.4823 -0.2304  0.3178
 2512TIP3    H129027   4.972   2.568  11.464  0.4218  1.0854  2.5137
 2512TIP3    H229028   5.042   2.659  11.366 -0.4405 -0.8339  0.0685
 2513TIP3   OH229029   3.526   2.154  16.624  0.2705  0.3915 -0.0125
 2513TIP3    H129030   3.476   2.170  16.543  0.3374 -0.5212 -0.2391
 2513TIP3    H229031   3.617   2.145  16.594  0.0780 -1.6211 -0.0533
 2514TIP3   OH229032   6.489   0.609   1.776  0.4535 -0.4510 -0.7733
 2514TIP3    H129033   6.580   0.596   1.804  0.1812 -1.6139 -0.4355
 2514TIP3    H229034   6.476   0.704   1.782  1.1420 -0.4442  0.7376
 2515TIP3   OH229035   6.219   1.478   2.072 -0.1522  0.1863 -0.6352
 2515TIP3    H129036   6.238   1.468   2.166  0.6113  1.1652 -0.6774
 2515TIP3    H229037   6.302   1.458   2.029 -0.8774 -1.6951 -1.1947
 2516TIP3   OH229038   1.481   0.216  11.391 -0.4907 -0.0114 -0.2658
 2516TIP3    H129039   1.453   0.250  11.476 -0.8162 -0.4939 -0.1776
 2516TIP3    H229040   1.553   0.156  11.412 -0.7766 -0.3725 -0.2917
 2517TIP3   OH229041   2.172   0.351   0.951  0.4347 -0.3169  0.0759
 2517TIP3    H129042   2.194   0.335   0.859 -0.0040 -0.1173 -0.0662
 2517TIP3    H229043   2.173   0.447   0.959  0.7326 -0.3389  0.3471
 2518TIP3   OH229044   4.881   0.863  13.353 -0.4689 -0.0094  0.0088
 2518TIP3    H129045   4.912   0.868  13.443 -1.1045  1.6188  0.1476
 2518TIP3    H229046   4.848   0.773  13.343  0.2488 -0.3993  1.1749
 2519TIP3   OH229047   5.975   3.288  11.480  0.5647  0.2188  0.0457
 2519TIP3    H129048   6.039   3.240  11.533  0.1701 -0.7916 -0.3769
 2519TIP3    H229049   5.952   3.227  11.409 -0.8245  0.5798  0.1623
 2520TIP3   OH229050   4.629   3.174   4.523  0.4720  0.4382 -0.3056
 2520TIP3    H129051   4.604   3.147   4.434 -0.0906  0.3837 -0.1317
 2520TIP3    H229052   4.720   3.145   4.531  0.4680  0.2699 -0.7955
 2521TIP3   OH229053   3.791   2.205   0.170  0.2345  0.1633 -0.1706
 2521TIP3    H129054   3.786   2.187   0.076  1.4451 -2.7505  0.2538
 2521TIP3    H229055   3.726   2.147   0.210 -0.2876  1.3903  0.7845
 2522TIP3   OH229056   4.319   3.156   3.453 -0.1340  0.4673 -0.6225
 2522TIP3    H129057   4.406   3.136   3.419 -0.5210 -0.1116 -1.2665
 2522TIP3    H229058   4.260   3.142   3.380 -1.0106 -1.1180  0.3658
 2523TIP3   OH229059   2.366   0.219  12.070  0.0095  0.0303  0.1386
 2523TIP3    H129060   2.404   0.181  11.990  0.5281  0.6721  0.0705
 2523TIP3    H229061   2.415   0.178  12.141 -2.1108 -2.3931  0.2635
 2524TIP3   OH229062   1.924   1.849   2.415  0.2005 -0.6308 -0.0267
 2524TIP3    H129063   1.880   1.822   2.334 -0.4047 -2.7045  0.9520
 2524TIP3    H229064   1.868   1.815   2.485 -0.3946  2.9422  1.3091
 2525TIP3   OH229065   6.117   6.527   1.780  0.2162 -0.1594  0.3469
 2525TIP3    H129066   6.024   6.519   1.759  0.6518 -1.3383 -1.2936
 2525TIP3    H229067   6.157   6.452   1.736  2.1546  1.2139 -0.2834
 2526TIP3   OH229068   0.662   1.782   5.955  0.1198  0.7721 -0.2323
 2526TIP3    H129069   0.658   1.731   5.874  0.9152  0.1193  0.1282
 2526TIP3    H229070   0.677   1.872   5.926  2.7309  0.2112 -0.7631
 2527TIP3   OH229071   1.425   6.324   4.122 -0.1819  0.2511  0.2841
 2527TIP3    H129072   1.428   6.420   4.121 -0.2096  0.2536 -0.6245
 2527TIP3    H229073   1.334   6.302   4.141  0.0990  0.3894  1.8551
 2528TIP3   OH229074   0.763   3.621  15.645  0.0458  0.2796 -0.1223
 2528TIP3    H129075   0.762   3.711  15.678  1.5493  0.2042  0.1746
 2528TIP3    H229076   0.711   3.624  15.564  1.1241  1.6881 -0.7842
 2529TIP3   OH229077   4.859   5.245  11.785  0.3509  0.1573 -0.2231
 2529TIP3    H129078   4.934   5.209  11.738 -0.0340  0.2610 -0.9245
 2529TIP3    H229079   4.862   5.339  11.767  1.4966  0.5642  1.8013
 2530TIP3   OH229080   3.716   4.590   6.183 -0.2040 -0.0145  0.3773
 2530TIP3    H129081   3.672   4.505   6.179  0.1079 -0.1264 -1.1752
 2530TIP3    H229082   3.732   4.613   6.091  2.4910  0.2608  0.8680
 2531TIP3   OH229083   0.255   6.454   6.198 -0.4302 -0.2420  0.1769
 2531TIP3    H129084   0.330   6.495   6.241 -0.1639 -1.4412  0.8674
 2531TIP3    H229085   0.293   6.394   6.134 -0.7973 -0.4818  0.1784
 2532TIP3   OH229086   5.819   3.910  16.923 -0.3306  0.5909 -0.5721
 2532TIP3    H129087   5.908   3.894  16.892 -0.6002  0.5899 -1.3587
 2532TIP3    H229088   5.763   3.885  16.850 -0.9400  1.3456 -0.3767
 2533TIP3   OH229089   2.258   3.295  11.552 -0.3239 -0.2461  0.3203
 2533TIP3    H129090   2.208   3.375  11.537 -1.2326 -0.7922  0.4211
 2533TIP3    H229091   2.346   3.326  11.577  0.1334  0.7150 -2.3217
 2534TIP3   OH229092   5.580   2.035   2.123  0.3600  0.8982 -0.3472
 2534TIP3    H129093   5.605   1.952   2.083  1.4397  0.9222  0.2711
 2534TIP3    H229094   5.648   2.096   2.097  0.2019  1.3048  0.1909
 2535TIP3   OH229095   3.808   5.901  13.753  0.1006  0.1144 -0.6763
 2535TIP3    H129096   3.799   5.863  13.840  1.1541 -0.3872 -0.7748
 2535TIP3    H229097   3.721   5.894  13.714  0.0852 -1.5035 -0.3999
 2536TIP3   OH229098   4.547   0.451   6.422  0.0015  0.3376  0.1100
 2536TIP3    H129099   4.581   0.522   6.478  1.7079 -0.7084  0.4228
 2536TIP3    H229100   4.491   0.496   6.358  2.8165  2.2738 -1.1061
 2537TIP3   OH229101   1.643   0.920   2.083 -0.3873  0.2649 -0.3080
 2537TIP3    H129102   1.680   0.850   2.137 -0.0652 -0.1717 -1.0792
 2537TIP3    H229103   1.550   0.900   2.078 -0.9285  1.9228  2.4702
 2538TIP3   OH229104   1.186   6.310   3.901  0.3797 -0.0316 -0.2302
 2538TIP3    H129105   1.196   6.215   3.910 -0.0285  0.1467  2.7572
 2538TIP3    H229106   1.225   6.331   3.816 -0.6459 -3.0230 -1.5264
 2539TIP3   OH229107   0.314   4.828   2.842  0.0860  0.5823  0.0833
 2539TIP3    H129108   0.398   4.832   2.797 -0.6947 -1.2369 -1.6072
 2539TIP3    H229109   0.330   4.768   2.915 -0.0188 -0.6179 -0.8710
 2540TIP3   OH229110   3.283   3.729  17.034 -0.0199 -0.1968 -0.2658
 2540TIP3    H129111   3.215   3.665  17.017  0.3640 -0.7367  0.2340
 2540TIP3    H229112   3.237   3.803  17.074 -0.7032  0.4795 -2.1957
 2541TIP3   OH229113   0.964   0.389   3.811  0.1580  0.2886 -0.0939
 2541TIP3    H129114   1.057   0.411   3.801 -0.0211  1.0562 -0.0802
 2541TIP3    H229115   0.929   0.394   3.722 -0.2092  1.5534  0.1123
 2542TIP3   OH229116   4.348   4.872  11.388  0.7095  0.0501 -0.6244
 2542TIP3    H129117   4.364   4.791  11.340  0.6347  0.1639 -0.8389
 2542TIP3    H229118   4.412   4.934  11.354 -0.5728  0.6876 -1.9153
 2543TIP3   OH229119   4.126   2.892  14.637  0.2445  0.2781 -0.0667
 2543TIP3    H129120   4.159   2.805  14.613  0.7985  0.2741  0.6699
 2543TIP3    H229121   4.205   2.944  14.652 -0.0890  0.7698 -0.0051
 2544TIP3   OH229122   6.613   1.383   2.224  0.1060 -0.5439  0.7789
 2544TIP3    H129123   6.695   1.432   2.231  0.1236 -0.3677 -0.4795
 2544TIP3    H229124   6.636   1.294   2.252  1.3539 -1.1148 -1.8464
 2545TIP3   OH229125   3.722   0.799  16.648 -0.3572  0.3515 -0.3148
 2545TIP3    H129126   3.641   0.835  16.686 -0.8478 -0.7856 -0.2533
 2545TIP3    H229127   3.790   0.826  16.709 -0.7457  0.9912 -0.1562
 2546TIP3   OH229128   6.508   2.895   5.589  0.1671 -0.1337 -0.6301
 2546TIP3    H129129   6.504   2.928   5.499 -3.2519 -0.6765 -0.7648
 2546TIP3    H229130   6.442   2.826   5.592 -0.6225  0.6507  2.5714
 2547TIP3   OH229131   4.259   2.569   4.409 -0.5107 -0.6203  0.3492
 2547TIP3    H129132   4.199   2.574   4.335 -0.8503  1.9552  0.7498
 2547TIP3    H229133   4.285   2.477   4.413 -0.5147 -0.8135 -2.9171
 2548TIP3   OH229134   4.492   0.190  13.601 -0.4437 -0.0728 -0.5226
 2548TIP3    H129135   4.549   0.116  13.618  0.7681  0.7379 -0.9952
 2548TIP3    H229136   4.440   0.199  13.681  0.8139 -0.1829  0.3169
 2549TIP3   OH229137   1.103   6.242   2.641 -0.1790 -0.1043 -0.2597
 2549TIP3    H129138   1.183   6.273   2.600  0.0696  0.5661  0.7171
 2549TIP3    H229139   1.064   6.183   2.576 -0.6876  2.3033 -2.2037
 2550TIP3   OH229140   3.996   6.342   1.146 -0.1501  0.7006 -0.2522
 2550TIP3    H129141   4.028   6.287   1.073  0.5735  0.2078  0.4282
 2550TIP3    H229142   3.907   6.309   1.163  1.2774 -2.1946  1.9970
 2551TIP3   OH229143   3.197   3.073   1.755 -0.3083  0.0201 -0.1289
 2551TIP3    H129144   3.285   3.100   1.783  0.2172 -2.0976  0.3345
 2551TIP3    H229145   3.174   3.002   1.813 -2.7450  1.1276  0.3149
 2552TIP3   OH229146   4.225   5.579   0.033  0.2840  0.5737  0.3505
 2552TIP3    H129147   4.211   5.490   0.065  0.0186  0.7219  0.6577
 2552TIP3    H229148   4.290   5.570  -0.037  1.3469  0.3043  1.3404
 2553TIP3   OH229149   1.904   0.718  14.474  0.6633 -0.2981 -0.3456
 2553TIP3    H129150   1.829   0.771  14.445  0.4074  0.2093  1.2155
 2553TIP3    H229151   1.979   0.778  14.470  0.4980 -0.0087  0.7346
 2554TIP3   OH229152   5.796   4.280   1.957  0.1679  0.2949 -0.1473
 2554TIP3    H129153   5.828   4.300   2.046  0.7693  1.2650 -0.5686
 2554TIP3    H229154   5.756   4.362   1.928 -0.4478 -0.1644 -0.5950
 2555TIP3   OH229155   5.567   4.294  16.380 -0.1103 -0.1607 -0.0636
 2555TIP3    H129156   5.620   4.342  16.445  1.1261 -0.8660 -0.5414
 2555TIP3    H229157   5.564   4.205  16.414  0.0425 -0.3979 -0.6773
 2556TIP3   OH229158   4.949   3.821   3.983  0.3019 -0.3800  0.1466
 2556TIP3    H129159   5.000   3.748   4.019  1.6059  0.4996  0.1008
 2556TIP3    H229160   4.964   3.817   3.889 -0.5301 -0.7198  0.0215
 2557TIP3   OH229161   3.546   4.021   4.986  0.0566 -0.3613 -0.0379
 2557TIP3    H129162   3.463   4.005   5.032 -0.8121 -1.2503 -1.8609
 2557TIP3    H229163   3.535   3.979   4.901  1.0352  2.4737 -1.6586
 2558TIP3   OH229164   2.223   1.577  15.253  0.0263 -0.1293 -0.6570
 2558TIP3    H129165   2.195   1.488  15.231  2.1360 -0.9969 -0.0037
 2558TIP3    H229166   2.190   1.591  15.342  2.9031 -1.7579  0.7436
 2559TIP3   OH229167   4.100   2.266   4.022  0.2303  0.0639  0.5233
 2559TIP3    H129168   4.089   2.191   3.964  0.3036  0.9604 -0.6723
 2559TIP3    H229169   4.031   2.327   3.996  0.9495  0.9336  0.6295
 2560TIP3   OH229170   3.987   6.122  11.670 -0.3800 -0.1102 -0.2764
 2560TIP3    H129171   4.028   6.209  11.677 -1.0086  0.1712 -0.0399
 2560TIP3    H229172   3.893   6.141  11.660 -0.6770 -0.8125  1.1837
 2561TIP3   OH229173   2.213   3.911   0.142  1.0551  0.0340 -0.3709
 2561TIP3    H129174   2.300   3.877   0.119  1.2068  0.6748 -0.7495
 2561TIP3    H229175   2.152   3.861   0.088  1.1429 -0.8062  0.3010
 2562TIP3   OH229176   2.206   6.720   5.689  0.4078 -0.1225  0.2580
 2562TIP3    H129177   2.139   6.656   5.711 -0.6161  0.5449 -0.8832
 2562TIP3    H229178   2.198   6.787   5.758 -0.6085  0.3338 -0.2950
 2563TIP3   OH229179   2.051   5.329  11.360 -0.0652 -0.4506 -0.4119
 2563TIP3    H129180   2.114   5.259  11.378 -0.5867 -0.3740  1.8324
 2563TIP3    H229181   2.077   5.362  11.274  1.4448 -2.0464 -0.6085
 2564TIP3   OH229182   5.496   4.273   4.390 -0.2612 -0.5921  0.0093
 2564TIP3    H129183   5.582   4.244   4.421 -0.1781  1.2552  1.5928
 2564TIP3    H229184   5.514   4.350   4.336 -0.9358  0.0236  0.6513
 2565TIP3   OH229185   6.646   2.510  15.574 -0.0100 -0.1690  0.1656
 2565TIP3    H129186   6.656   2.570  15.499  1.0108 -0.5426 -0.0034
 2565TIP3    H229187   6.646   2.423  15.535  0.8898 -0.3793  0.6359
 2566TIP3   OH229188   3.281   0.972   0.205  0.1718  0.4624  0.5686
 2566TIP3    H129189   3.188   0.991   0.214 -0.0322 -0.4493  0.5072
 2566TIP3    H229190   3.320   1.053   0.173 -0.9725  0.1466 -1.7035
 2567TIP3   OH229191   0.235   5.122  17.239 -0.1362 -0.6789  0.2282
 2567TIP3    H129192   0.296   5.062  17.282 -0.3539 -0.1521  1.2979
 2567TIP3    H229193   0.243   5.103  17.146  2.7633  0.3918  0.2149
 2568TIP3   OH229194   1.829   6.064  11.575 -0.3483  0.0147 -0.0591
 2568TIP3    H129195   1.789   5.989  11.532 -1.4536  0.9621 -0.7251
 2568TIP3    H229196   1.897   6.094  11.513  0.0273 -0.3725  0.1647
 2569TIP3   OH229197   2.400   4.004  13.660 -0.5763 -0.0542 -0.3922
 2569TIP3    H129198   2.476   3.950  13.638 -1.2877 -1.7010  1.0662
 2569TIP3    H229199   2.437   4.083  13.701  0.3601 -0.9831  0.5813
 2570TIP3   OH229200   1.056   5.387   5.867 -0.1880 -0.2320 -0.4633
 2570TIP3    H129201   1.005   5.319   5.910  1.9211 -0.6798  1.3989
 2570TIP3    H229202   0.995   5.427   5.804 -1.9029 -2.7324 -0.4344
 2571TIP3   OH229203   0.393   0.065   3.391  0.0626  0.2571 -0.2058
 2571TIP3    H129204   0.375   0.141   3.445 -0.1398  0.3671 -0.4271
 2571TIP3    H229205   0.320   0.061   3.329  0.1941  0.0238 -0.3496
 2572TIP3   OH229206   4.336   6.666   0.520 -0.1505  0.5178  0.1640
 2572TIP3    H129207   4.366   6.584   0.481 -1.6164  0.2207 -0.3841
 2572TIP3    H229208   4.399   6.685   0.589  1.4637  0.0976 -1.1763
 2573TIP3   OH229209   0.730   3.935  13.298  0.4441 -0.0205 -0.7179
 2573TIP3    H129210   0.738   3.983  13.381 -0.3809  1.0683 -1.2651
 2573TIP3    H229211   0.819   3.902  13.282  0.7142  0.1341  0.3768
 2574TIP3   OH229212   1.091   3.300   4.455  0.0698 -0.5141 -0.5911
 2574TIP3    H129213   1.173   3.258   4.428 -0.3662 -1.8197  0.0795
 2574TIP3    H229214   1.023   3.251   4.411 -0.4071  0.0171 -0.4505
 2575TIP3   OH229215   6.199   1.469   1.262 -0.4806  0.3445 -0.0582
 2575TIP3    H129216   6.257   1.545   1.260 -0.1143  0.0426 -1.1516
 2575TIP3    H229217   6.247   1.404   1.313  1.2123 -0.7321 -2.9001
 2576TIP3   OH229218   4.661   0.134   2.505 -0.4338  0.2945 -0.0292
 2576TIP3    H129219   4.708   0.143   2.422 -0.7579 -2.3557 -0.5427
 2576TIP3    H229220   4.731   0.125   2.570 -0.1970  1.4759 -0.0939
 2577TIP3   OH229221   1.713   4.816   6.823  0.8149  0.1978  1.1222
 2577TIP3    H129222   1.716   4.732   6.868  0.0660 -0.0058  0.7932
 2577TIP3    H229223   1.620   4.840   6.823  0.4616 -0.8998 -2.3217
 2578TIP3   OH229224   3.147   2.604   4.765 -0.2185  0.3674 -0.4705
 2578TIP3    H129225   3.145   2.642   4.677  0.0128  1.8342  0.1422
 2578TIP3    H229226   3.211   2.657   4.812  1.4913 -1.9691 -0.0889
 2579TIP3   OH229227   4.322   5.343  15.692 -0.2839 -0.3104  1.0316
 2579TIP3    H129228   4.351   5.434  15.694 -1.5522  0.1502 -0.6070
 2579TIP3    H229229   4.326   5.315  15.784 -1.5984  1.9608  1.8388
 2580TIP3   OH229230   6.225   5.313   5.395  0.0749  0.1270  0.3819
 2580TIP3    H129231   6.237   5.230   5.440  1.2260 -0.7475 -1.4820
 2580TIP3    H229232   6.276   5.305   5.315 -2.6604  1.2732 -1.5604
 2581TIP3   OH229233   2.996   5.909   1.905 -0.0566 -0.1636 -0.3134
 2581TIP3    H129234   2.923   5.964   1.934 -1.4315 -2.6585  1.1112
 2581TIP3    H229235   3.009   5.933   1.814 -0.7902  2.3062  0.1849
 2582TIP3   OH229236   3.432   4.862  12.993  0.7578  0.2374  0.1349
 2582TIP3    H129237   3.455   4.888  12.903 -1.2517 -0.2947 -0.5688
 2582TIP3    H229238   3.491   4.790  13.013 -0.3242 -1.2069 -1.6795
 2583TIP3   OH229239   2.192   6.120  11.732  0.0803  0.4898  0.6839
 2583TIP3    H129240   2.139   6.096  11.808 -0.6753 -1.3950 -0.4076
 2583TIP3    H229241   2.272   6.069  11.741 -0.0127  0.2546  0.2379
 2584TIP3   OH229242   0.623   0.982   5.979  0.0512 -0.1526 -0.1054
 2584TIP3    H129243   0.608   0.889   5.999  1.6073  0.0131  2.0670
 2584TIP3    H229244   0.571   1.029   6.044 -0.1457  0.4792 -0.7197
 2585TIP3   OH229245   4.952   2.927  16.659 -0.1247  0.2981  0.2581
 2585TIP3    H129246   4.979   3.017  16.680 -1.2722  0.0215  3.1233
 2585TIP3    H229247   5.029   2.874  16.679 -0.7695  0.1998  2.6056
 2586TIP3   OH229248   3.791   1.894   4.192  0.1037  0.2815 -0.5139
 2586TIP3    H129249   3.867   1.918   4.139 -0.3387 -0.8516 -1.6897
 2586TIP3    H229250   3.814   1.810   4.230 -0.6874 -0.2297 -1.1543
 2587TIP3   OH229251   4.790   3.299   5.162 -0.3585  0.4180  0.0221
 2587TIP3    H129252   4.727   3.271   5.096 -1.2084 -2.5299  1.9649
 2587TIP3    H229253   4.873   3.306   5.115 -0.8887 -1.8967 -1.3738
 2588TIP3   OH229254   3.196   0.611   0.083 -0.2682 -0.4542  0.0612
 2588TIP3    H129255   3.266   0.655   0.036  1.1650 -2.7072 -0.0114
 2588TIP3    H229256   3.193   0.654   0.168  1.4823 -0.5792  0.2064
 2589TIP3   OH229257   0.339   3.400   5.020 -0.5899  0.8673  0.1029
 2589TIP3    H129258   0.344   3.316   4.973 -1.4031  1.1887 -0.5668
 2589TIP3    H229259   0.317   3.376   5.110  0.6686  0.2665  0.2750
 2590TIP3   OH229260   5.962   2.355  10.480  0.2790  0.6197  0.1332
 2590TIP3    H129261   5.936   2.308  10.401 -1.5585  1.7014  0.0659
 2590TIP3    H229262   6.058   2.356  10.476  0.3487 -2.4481 -0.2200
 2591TIP3   OH229263   3.007   4.148  15.316  0.2574  0.5892  0.6379
 2591TIP3    H129264   2.970   4.061  15.328 -1.1136  1.0354 -0.2767
 2591TIP3    H229265   3.065   4.160  15.392 -0.7242 -0.4942  1.5783
 2592TIP3   OH229266   5.429   0.255  16.252 -0.5988 -0.1567 -0.0290
 2592TIP3    H129267   5.343   0.213  16.248 -0.4460 -0.4479 -0.2638
 2592TIP3    H229268   5.433   0.308  16.172 -1.4933  1.6688  1.1065
 2593TIP3   OH229269   0.848   1.648   5.608  0.3833 -0.2447 -0.2386
 2593TIP3    H129270   0.926   1.658   5.663 -0.0876 -1.4236  0.6855
 2593TIP3    H229271   0.870   1.692   5.526  0.9312  1.9492  1.0597
 2594TIP3   OH229272   0.278   2.202  14.099 -0.9323 -0.5074 -0.0089
 2594TIP3    H129273   0.299   2.287  14.138 -1.0690 -0.4958  0.0385
 2594TIP3    H229274   0.225   2.158  14.165 -0.5481 -0.7779  0.1245
 2595TIP3   OH229275   6.696   5.767   3.070 -0.4688  0.1678  0.6025
 2595TIP3    H129276   6.671   5.676   3.088 -1.3055  0.1064 -0.8158
 2595TIP3    H229277   6.615   5.808   3.040  0.3735  0.8376 -0.7698
 2596TIP3   OH229278   1.533   6.070   4.094  0.5329 -0.0890 -0.1088
 2596TIP3    H129279   1.483   6.145   4.124 -1.9873 -1.7987  0.0913
 2596TIP3    H229280   1.500   6.052   4.006  2.8777  0.5191 -1.1620
 2597TIP3   OH229281   6.782   6.120   3.569 -0.6075 -0.5441 -0.3660
 2597TIP3    H129282   6.799   6.141   3.661  0.1040 -0.4276 -0.5226
 2597TIP3    H229283   6.771   6.206   3.527  1.8114 -0.4711 -0.9111
 2598TIP3   OH229284   0.511   1.939   3.485 -0.0757  0.8023 -0.7181
 2598TIP3    H129285   0.595   1.976   3.457 -0.0078  0.4325 -1.0180
 2598TIP3    H229286   0.453   2.014   3.495  1.3728  1.5141  3.4616
 2599TIP3   OH229287   4.378   2.887   1.354  0.4121  0.4321 -0.1289
 2599TIP3    H129288   4.283   2.874   1.355  0.6173 -1.1544  0.1338
 2599TIP3    H229289   4.399   2.905   1.263 -0.1960  1.1797 -0.1201
 2600TIP3   OH229290   1.654   3.522   0.205 -0.4127  0.5487 -0.4593
 2600TIP3    H129291   1.747   3.543   0.197 -0.7211  1.9122 -0.5140
 2600TIP3    H229292   1.643   3.445   0.149  0.1834  1.9202 -2.5322
 2601TIP3   OH229293   3.380   3.359   2.227 -0.0271 -0.4426 -0.1367
 2601TIP3    H129294   3.302   3.367   2.283 -0.2459  0.2036 -0.5290
 2601TIP3    H229295   3.395   3.265   2.221 -1.1912 -0.6096 -0.6241
 2602TIP3   OH229296   1.973   1.848   1.022 -0.2242  0.1888  0.2397
 2602TIP3    H129297   1.924   1.929   1.005  0.9986  1.1745  1.2736
 2602TIP3    H229298   2.057   1.862   0.980 -0.3559 -0.9631 -0.4182
 2603TIP3   OH229299   0.399   1.336  15.122  0.5487 -0.0156 -0.3160
 2603TIP3    H129300   0.315   1.298  15.096  1.0110  0.6249 -2.8171
 2603TIP3    H229301   0.376   1.408  15.181 -0.6087 -0.3209 -0.3940
 2604TIP3   OH229302   2.660   5.301  15.689  0.6360 -0.3416  0.2698
 2604TIP3    H129303   2.598   5.366  15.724  0.3811 -0.3707 -0.1232
 2604TIP3    H229304   2.714   5.277  15.764  2.3126  2.1134 -0.0886
 2605TIP3   OH229305   4.981   0.202   2.059 -0.1865  0.0504 -0.5084
 2605TIP3    H129306   5.008   0.115   2.086 -1.1892 -0.1668 -0.1813
 2605TIP3    H229307   4.949   0.191   1.969 -0.6906 -0.0036 -0.3262
 2606TIP3   OH229308   0.635   6.665   0.115  0.5673 -0.1700  0.1467
 2606TIP3    H129309   0.616   6.582   0.160  0.8984  1.4682  3.4129
 2606TIP3    H229310   0.726   6.684   0.137  0.6108  0.8826 -0.9106
 2607TIP3   OH229311   1.703   2.727   4.039  0.3376 -0.4739  0.2351
 2607TIP3    H129312   1.686   2.682   4.122  0.6705 -1.1655 -0.0690
 2607TIP3    H229313   1.692   2.820   4.060  1.0708 -0.5977  1.2158
 2608TIP3   OH229314   4.720   1.812   2.481 -0.2248  0.4532  0.3659
 2608TIP3    H129315   4.709   1.747   2.411  0.0644 -0.5316  1.2307
 2608TIP3    H229316   4.795   1.865   2.453  1.3149 -1.3623  1.0201
 2609TIP3   OH229317   5.690   3.216  10.951  0.1298 -0.4253  0.0517
 2609TIP3    H129318   5.768   3.184  10.905  0.2821  1.1483 -0.8119
 2609TIP3    H229319   5.617   3.188  10.895 -0.1121 -3.4230  1.7245
 2610TIP3   OH229320   4.501   3.049  14.480 -0.4778 -0.6697  0.5995
 2610TIP3    H129321   4.568   3.118  14.471 -0.4170 -0.4435  2.6702
 2610TIP3    H229322   4.434   3.073  14.416 -0.6387  1.5626  1.5467
 2611TIP3   OH229323   2.101   0.993  16.197  0.3783  0.3743  0.5949
 2611TIP3    H129324   2.192   1.019  16.181  0.2296  1.0241  0.7639
 2611TIP3    H229325   2.049   1.054  16.144  0.0452 -0.0960  0.3756
 2612TIP3   OH229326   1.006   6.177  13.995  0.0237  0.3378  0.2813
 2612TIP3    H129327   0.946   6.106  14.019  0.6282 -0.7506 -1.3109
 2612TIP3    H229328   1.071   6.178  14.065  0.0828 -0.7887  0.2648
 2613TIP3   OH229329   2.285   2.583  14.135 -0.2300 -0.4485  0.2145
 2613TIP3    H129330   2.380   2.590  14.147 -0.1152  0.5458 -1.2236
 2613TIP3    H229331   2.260   2.511  14.193  1.6060 -1.6418 -0.4188
 2614TIP3   OH229332   6.255   6.179   0.735 -0.4775 -0.2605  0.2397
 2614TIP3    H129333   6.349   6.179   0.756 -0.2786 -1.5660 -0.5852
 2614TIP3    H229334   6.212   6.182   0.821  0.2906  1.8821  0.5858
 2615TIP3   OH229335   1.261   1.256  12.292 -0.2414  0.1467 -0.1381
 2615TIP3    H129336   1.172   1.272  12.320 -1.0516 -3.9205  0.0040
 2615TIP3    H229337   1.302   1.212  12.367  1.0816 -0.3259 -1.1206
 2616TIP3   OH229338   2.277   2.860   1.337 -0.0701 -0.1332  0.2828
 2616TIP3    H129339   2.264   2.793   1.405 -2.6284 -0.7574 -0.7745
 2616TIP3    H229340   2.237   2.939   1.373 -2.1035 -0.6604 -0.7834
 2617TIP3   OH229341   0.028   6.672   5.262  0.0766 -0.3134  0.6911
 2617TIP3    H129342   0.011   6.613   5.336  1.3408 -2.6312 -0.8023
 2617TIP3    H229343   0.002   6.622   5.185  1.0986  1.1277 -0.6296
 2618TIP3   OH229344   5.238   2.376   1.741 -0.4228 -0.0960 -0.2094
 2618TIP3    H129345   5.174   2.325   1.691 -1.0069  0.7615 -0.3551
 2618TIP3    H229346   5.284   2.312   1.795 -0.7502 -0.8455 -0.8163
 2619TIP3   OH229347   0.697   3.213  11.839 -0.0249 -0.3663 -0.2980
 2619TIP3    H129348   0.790   3.191  11.841 -0.5494 -2.6293 -0.3435
 2619TIP3    H229349   0.670   3.214  11.931 -0.3224 -1.2780 -0.3765
 2620TIP3   OH229350   3.186   4.967  13.978 -0.0345 -0.6040  0.3482
 2620TIP3    H129351   3.140   4.929  13.904 -0.9014  1.7812 -0.3812
 2620TIP3    H229352   3.272   4.991  13.944 -0.0547 -0.4529  0.4046
 2621TIP3   OH229353   2.534   0.874   0.307  0.0048  0.1701 -0.3641
 2621TIP3    H129354   2.525   0.780   0.296 -1.2818  0.3923 -1.4317
 2621TIP3    H229355   2.582   0.903   0.229 -1.1573  0.6076 -0.9347
 2622TIP3   OH229356   1.475   2.289   3.497  0.8029  0.1540 -0.4827
 2622TIP3    H129357   1.472   2.354   3.427  0.1463  3.6119  2.6142
 2622TIP3    H229358   1.383   2.278   3.522  1.1478  0.0478  0.7582
 2623TIP3   OH229359   2.358   4.314   5.498  0.0213 -0.5227 -0.7089
 2623TIP3    H129360   2.404   4.247   5.446  0.2212 -3.0792  2.5894
 2623TIP3    H229361   2.428   4.362   5.542 -0.2367 -1.5365  0.8724
 2624TIP3   OH229362   1.777   0.463  15.266  0.5154  0.2508  0.7520
 2624TIP3    H129363   1.852   0.512  15.233  0.2303  1.1081  1.3341
 2624TIP3    H229364   1.721   0.530  15.307 -1.1785 -0.1805 -0.7868
 2625TIP3   OH229365   5.375   3.477  11.391 -0.1244  0.5673  0.0055
 2625TIP3    H129366   5.385   3.537  11.465  0.9227  1.1792 -0.6166
 2625TIP3    H229367   5.462   3.473  11.352 -0.6533  0.1685 -1.1469
 2626TIP3   OH229368   0.390   2.292  16.514 -0.3552 -0.1213  0.0386
 2626TIP3    H129369   0.466   2.234  16.511 -1.8251 -2.0342 -1.7667
 2626TIP3    H229370   0.330   2.250  16.576  0.4659  1.9921  2.3735
 2627TIP3   OH229371   5.814   5.540   2.768 -0.6268 -0.1209  0.3946
 2627TIP3    H129372   5.881   5.605   2.747  0.5833 -2.5666 -3.9711
 2627TIP3    H229373   5.860   5.475   2.822 -0.2853 -0.2301 -0.0232
 2628TIP3   OH229374   6.394   4.975   6.350  0.3265  0.2090 -0.3291
 2628TIP3    H129375   6.308   5.007   6.380  0.1504 -0.2400 -0.3490
 2628TIP3    H229376   6.451   5.052   6.354 -0.1528  0.5805 -0.6099
 2629TIP3   OH229377   5.008   4.715   4.245 -0.0329 -0.2223  0.2045
 2629TIP3    H129378   5.087   4.663   4.230  0.1764  0.0458  0.3665
 2629TIP3    H229379   5.039   4.806   4.241 -0.2213 -0.1232  0.8752
 2630TIP3   OH229380   5.684   3.006   0.239  0.2463  0.4432 -0.0756
 2630TIP3    H129381   5.727   2.921   0.251 -1.0809 -0.4307 -1.3335
 2630TIP3    H229382   5.735   3.049   0.169  0.1772  0.1675 -0.2962
 2631TIP3   OH229383   3.008   6.585   4.312 -0.6175  0.3539  0.0621
 2631TIP3    H129384   3.039   6.518   4.251 -3.3497  0.6829 -1.7763
 2631TIP3    H229385   2.967   6.535   4.383  1.9400 -0.0126  1.3178
 2632TIP3   OH229386   6.058   2.454   0.807 -0.2177  0.2690 -0.6225
 2632TIP3    H129387   6.101   2.537   0.788  0.5928 -0.0166 -0.0700
 2632TIP3    H229388   5.990   2.475   0.871 -0.7259  0.6839 -1.3070
 2633TIP3   OH229389   6.693   1.051  11.630  0.5306 -0.7306 -0.8112
 2633TIP3    H129390   6.766   1.113  11.634  0.4206 -0.4116 -3.2776
 2633TIP3    H229391   6.634   1.079  11.700  1.8069  0.1971 -0.0728
 2634TIP3   OH229392   6.285   6.142  14.323 -0.3255  0.1221 -0.4756
 2634TIP3    H129393   6.232   6.220  14.305  2.2198  1.8791 -0.6682
 2634TIP3    H229394   6.227   6.083  14.371 -2.0516  2.4819  0.3850
 2635TIP3   OH229395   1.193   1.156   4.874 -0.0009  0.7306  0.5436
 2635TIP3    H129396   1.191   1.186   4.783 -2.1779 -1.3051 -0.1379
 2635TIP3    H229397   1.285   1.162   4.899  0.6611  1.2094 -1.8465
 2636TIP3   OH229398   6.602   0.731  14.065  0.2096  0.0308  0.4034
 2636TIP3    H129399   6.533   0.669  14.091  0.2614 -1.2902 -2.4290
 2636TIP3    H229400   6.555   0.811  14.042 -0.2441 -0.3463  0.0062
 2637TIP3   OH229401   0.789   0.123  12.547 -0.2626  0.2799  0.3621
 2637TIP3    H129402   0.845   0.177  12.603 -0.6603  1.2637 -0.1748
 2637TIP3    H229403   0.756   0.184  12.481 -1.8722 -0.3066  0.6078
 2638TIP3   OH229404   4.555   0.124   0.059  0.5222 -0.4549 -0.1342
 2638TIP3    H129405   4.627   0.187   0.049  0.2365 -0.1035  0.0365
 2638TIP3    H229406   4.476   0.175   0.042  0.1664 -0.3468  1.7668
 2639TIP3   OH229407   1.006   0.273   5.122  0.1607 -0.5713  0.5510
 2639TIP3    H129408   1.082   0.218   5.137  0.4978  0.4207  2.6535
 2639TIP3    H229409   1.032   0.359   5.154 -0.3453  0.8683 -2.6821
 2640TIP3   OH229410   4.674   3.920   6.013 -0.1541 -0.4743  0.2704
 2640TIP3    H129411   4.650   3.943   5.923  0.6088  1.1811  0.4689
 2640TIP3    H229412   4.769   3.932   6.016 -0.3071  0.4931  1.5670
 2641TIP3   OH229413   0.675   6.524  16.356  0.3181  0.0888 -0.6157
 2641TIP3    H129414   0.626   6.443  16.373  0.0073  0.4001  0.0135
 2641TIP3    H229415   0.634   6.560  16.278  0.6646 -0.5181 -1.0842
 2642TIP3   OH229416   1.209   4.327   2.660 -0.0453  0.0001  0.2284
 2642TIP3    H129417   1.130   4.371   2.692 -0.3653  1.5608 -2.5926
 2642TIP3    H229418   1.192   4.234   2.677 -2.1480  0.3633  0.3601
 2643TIP3   OH229419   3.132   5.586   4.221  0.1343 -0.1878 -0.0039
 2643TIP3    H129420   3.164   5.564   4.133  0.4860  0.3318 -0.0048
 2643TIP3    H229421   3.204   5.563   4.279  0.6118  1.2095 -0.0300
 2644TIP3   OH229422   1.925   4.854   0.192 -0.5395 -0.5826 -0.4553
 2644TIP3    H129423   2.018   4.860   0.212 -0.5325  0.5541 -0.7728
 2644TIP3    H229424   1.916   4.897   0.107 -1.6459  1.1444  0.5115
 2645TIP3   OH229425   6.557   3.905  17.075 -0.1319 -0.3047 -0.2278
 2645TIP3    H129426   6.492   3.969  17.043 -0.2085 -0.4548 -0.3791
 2645TIP3    H229427   6.628   3.958  17.109 -2.1688 -0.0442  3.9003
 2646TIP3   OH229428   0.230   3.526   4.649 -0.5103 -0.1891 -0.6248
 2646TIP3    H129429   0.255   3.618   4.638 -1.5848  0.1969  0.1292
 2646TIP3    H229430   0.178   3.525   4.729 -0.5646 -1.4489 -0.6708
 2647TIP3   OH229431   0.430   5.773  12.981 -0.5905  0.2148 -0.7831
 2647TIP3    H129432   0.343   5.780  13.019 -0.0739 -0.8143  0.6298
 2647TIP3    H229433   0.486   5.743  13.053  0.5407 -1.1497 -2.1837
 2648TIP3   OH229434   4.047   3.706  15.953  0.1074  0.1834 -0.1161
 2648TIP3    H129435   4.076   3.625  15.995 -0.3450  0.7384  1.3048
 2648TIP3    H229436   3.961   3.685  15.917  1.6417 -1.0968 -3.2211
 2649TIP3   OH229437   2.895   2.831   4.342  0.2965 -0.2468  0.0576
 2649TIP3    H129438   2.806   2.812   4.373  0.7291 -2.0349  0.2703
 2649TIP3    H229439   2.921   2.909   4.390 -0.6723 -0.4701  0.9694
 2650TIP3   OH229440   6.322   0.395  15.986 -0.2448 -1.0157 -0.7116
 2650TIP3    H129441   6.264   0.430  15.919 -0.7985 -1.9931 -0.7448
 2650TIP3    H229442   6.404   0.377  15.940  0.2567  0.8162 -0.5624
 2651TIP3   OH229443   0.860   3.074   5.079 -0.5802 -0.0474 -0.6004
 2651TIP3    H129444   0.770   3.087   5.107 -0.0021  0.3082  1.1768
 2651TIP3    H229445   0.906   3.154   5.107  0.7142 -1.1201  0.4510
 2652TIP3   OH229446   2.896   6.435  14.226 -0.3926 -0.0631  0.2827
 2652TIP3    H129447   2.807   6.466  14.242  0.0729  1.3961  0.0857
 2652TIP3    H229448   2.927   6.407  14.312 -0.0403  2.1465  0.9183
 2653TIP3   OH229449   1.305   5.989  11.519 -0.3976 -0.4258  0.6523
 2653TIP3    H129450   1.338   5.900  11.503 -0.1551 -0.1109 -0.6659
 2653TIP3    H229451   1.319   6.035  11.436 -3.3441 -0.0131  0.3498
 2654TIP3   OH229452   6.067   0.151   2.154 -0.2526 -0.0881  0.2007
 2654TIP3    H129453   5.991   0.094   2.142 -0.4650  0.0150  1.0220
 2654TIP3    H229454   6.084   0.188   2.067 -1.2916  0.0844  0.0710
 2655TIP3   OH229455   0.275   5.681   2.141 -0.3892 -0.0684  0.1683
 2655TIP3    H129456   0.198   5.656   2.089 -0.6208 -0.3308  0.6274
 2655TIP3    H229457   0.345   5.692   2.077 -1.2560  2.0143 -0.4629
 2656TIP3   OH229458   1.867   4.799   5.347 -0.5631  0.2776 -0.2484
 2656TIP3    H129459   1.909   4.736   5.406  0.4477 -0.4322 -1.6734
 2656TIP3    H229460   1.939   4.830   5.291 -1.0904  2.5483  0.2942
 2657TIP3   OH229461   2.746   0.211   4.390 -0.2323  0.4564  0.4017
 2657TIP3    H129462   2.785   0.273   4.328 -1.0949 -0.2753 -0.9076
 2657TIP3    H229463   2.800   0.132   4.381 -3.7437 -1.6617 -3.7310
 2658TIP3   OH229464   5.947   6.688  11.847 -0.1782  0.7761  0.0353
 2658TIP3    H129465   5.980   6.600  11.829 -0.2994  0.9079 -0.8482
 2658TIP3    H229466   6.006   6.724  11.913  0.5817  0.4817 -0.4879
 2659TIP3   OH229467   3.856   0.542  12.576 -0.5884 -0.4171 -0.1485
 2659TIP3    H129468   3.767   0.575  12.566 -0.1565  0.2587 -1.9558
 2659TIP3    H229469   3.906   0.584  12.506  1.3383 -0.1946  1.2929
 2660TIP3   OH229470   2.709   4.200   5.513 -0.0665 -0.0821  0.6167
 2660TIP3    H129471   2.672   4.219   5.599 -1.8373  0.9540 -0.3450
 2660TIP3    H229472   2.759   4.120   5.526 -2.3409 -1.3363  2.0741
 2661TIP3   OH229473   2.569   5.610   5.827  0.1806  0.2140  0.0343
 2661TIP3    H129474   2.577   5.694   5.782  1.1128  0.8370  1.3121
 2661TIP3    H229475   2.567   5.633   5.920 -0.7911 -1.0990  0.3473
 2662TIP3   OH229476   2.539   0.930  12.657  0.1376 -0.0088  0.5988
 2662TIP3    H129477   2.586   0.974  12.587 -1.8058  0.7187 -0.2936
 2662TIP3    H229478   2.605   0.913  12.724  1.6656  0.8547 -0.6682
 2663TIP3   OH229479   5.910   6.005   3.242  0.0654  0.4845  0.3459
 2663TIP3    H129480   5.928   5.982   3.151  1.1823  1.7144  0.2383
 2663TIP3    H229481   5.973   5.953   3.293 -1.5913 -1.3696  0.5352
 2664TIP3   OH229482   5.647   4.245  15.936 -0.2735 -0.8405 -0.5449
 2664TIP3    H129483   5.706   4.180  15.899 -0.6957 -1.3533 -0.3212
 2664TIP3    H229484   5.604   4.201  16.009  0.1203 -0.0179  0.1957
 2665TIP3   OH229485   3.907   4.474   2.476 -0.4655  0.1249  0.2718
 2665TIP3    H129486   3.981   4.528   2.505  0.5607 -1.6456  1.0624
 2665TIP3    H229487   3.877   4.430   2.555 -0.4166 -1.4777 -0.5793
 2666TIP3   OH229488   2.944   1.799  11.107  0.5644 -0.0952  0.0226
 2666TIP3    H129489   2.963   1.800  11.201 -1.6823  1.1637  0.4981
 2666TIP3    H229490   2.976   1.884  11.075  0.6944 -0.2321 -0.2130
 2667TIP3   OH229491   6.204   2.716  13.427  0.2727 -0.3379  0.7095
 2667TIP3    H129492   6.243   2.771  13.359  0.3577  0.6151  1.5080
 2667TIP3    H229493   6.110   2.735  13.422  0.3978  0.6345  1.6036
 2668TIP3   OH229494   5.764   5.420   5.019 -0.6329  0.3033 -0.4828
 2668TIP3    H129495   5.797   5.444   5.106  0.2113  3.0164 -1.4991
 2668TIP3    H229496   5.776   5.325   5.014  1.1758  0.3899  1.6066
 2669TIP3   OH229497   2.066   0.116   0.494 -0.3396  0.4602  0.1264
 2669TIP3    H129498   2.044   0.025   0.517  0.1713  0.4755  0.6749
 2669TIP3    H229499   2.131   0.107   0.425  3.5517  0.3292  3.6231
 2670TIP3   OH229500   5.011   3.500  14.397 -0.6450 -0.0322 -0.0869
 2670TIP3    H129501   5.013   3.427  14.460  2.8310 -0.1349 -0.2528
 2670TIP3    H229502   4.951   3.470  14.328 -0.8619 -1.8638  0.8554
 2671TIP3   OH229503   6.285   1.771   0.515 -0.1130 -0.1980 -0.0287
 2671TIP3    H129504   6.239   1.714   0.577 -2.2686  0.8665 -0.6210
 2671TIP3    H229505   6.290   1.856   0.559  2.6018 -0.6450  0.6194
 2672TIP3   OH229506   5.570   6.756  16.475  0.3480 -0.2830 -0.2184
 2672TIP3    H129507   5.536   6.773  16.387  0.7192 -1.4823 -0.6089
 2672TIP3    H229508   5.634   6.686  16.462 -0.7416 -1.5727  1.2422
 2673TIP3   OH229509   2.985   3.299   2.764 -0.8598  0.3336  0.0648
 2673TIP3    H129510   3.008   3.216   2.807 -1.0953  0.7699  1.0315
 2673TIP3    H229511   3.057   3.358   2.785 -0.5110  0.2645 -0.9370
 2674TIP3   OH229512   1.666   2.376  16.660 -0.1425 -0.2727  0.3847
 2674TIP3    H129513   1.670   2.289  16.621  0.8554 -0.1105  0.1031
 2674TIP3    H229514   1.712   2.432  16.598 -1.1769  0.5418  0.3457
 2675TIP3   OH229515   0.121   6.642   0.415  0.0294  0.0539  0.3349
 2675TIP3    H129516   0.046   6.583   0.417  1.1736 -1.4446 -0.5097
 2675TIP3    H229517   0.083   6.729   0.432 -2.2945 -0.2423 -2.9427
 2676TIP3   OH229518   2.744   2.579   1.047  0.2198 -0.5027 -0.0739
 2676TIP3    H129519   2.800   2.562   0.972  1.3557  0.9643  0.4205
 2676TIP3    H229520   2.673   2.633   1.012  1.1633  0.8316  0.0416
 2677TIP3   OH229521   3.827   0.813   1.110 -0.1626 -0.0338 -0.1489
 2677TIP3    H129522   3.758   0.747   1.112  2.2359 -2.6380  1.0353
 2677TIP3    H229523   3.882   0.787   1.035  0.9006  0.4953  0.4353
 2678TIP3   OH229524   4.618   1.795   3.079 -0.3325 -0.2350  0.1507
 2678TIP3    H129525   4.600   1.702   3.090  0.7258 -0.3604  0.8603
 2678TIP3    H229526   4.542   1.829   3.031 -1.0739 -1.3086  0.5610
 2679TIP3   OH229527   6.734   1.127  16.474  0.3917  0.4795  0.2761
 2679TIP3    H129528   6.700   1.147  16.387  0.7411  1.3560  0.3382
 2679TIP3    H229529   6.682   1.052  16.504  0.0467  0.3908 -0.5439
 2680TIP3   OH229530   0.973   4.522  13.214 -0.2093 -0.0187 -0.1253
 2680TIP3    H129531   0.963   4.464  13.290  2.8541  0.9357  1.0460
 2680TIP3    H229532   1.051   4.489  13.170 -0.3811  1.1743 -1.3161
 2681TIP3   OH229533   0.518   0.261  13.119  0.2166  0.4997  0.4155
 2681TIP3    H129534   0.610   0.276  13.097 -0.5826  1.9352 -2.1779
 2681TIP3    H229535   0.471   0.284  13.039 -2.4324  0.1564  1.8441
 2682TIP3   OH229536   6.767   0.847   1.514  0.1958  0.1842  0.1817
 2682TIP3    H129537   6.803   0.861   1.427  2.2119  0.0701  0.9560
 2682TIP3    H229538   6.714   0.768   1.506  0.5182  0.0673 -0.9064
 2683TIP3   OH229539   4.684   1.038   5.312 -0.1699  0.2800  0.2636
 2683TIP3    H129540   4.690   1.113   5.252  1.4521 -0.4164 -0.4795
 2683TIP3    H229541   4.629   0.975   5.266 -0.6651  0.5918  0.4285
 2684TIP3   OH229542   1.127   2.568  17.278  0.3969 -0.3062  0.3556
 2684TIP3    H129543   1.198   2.508  17.298  1.7538  1.2172  0.1725
 2684TIP3    H229544   1.144   2.598  17.189 -0.3326  0.2605  0.3932
 2685TIP3   OH229545   3.295   3.544   0.406  0.6460  0.1964 -0.7465
 2685TIP3    H129546   3.310   3.507   0.493 -1.0211  0.1648 -0.4576
 2685TIP3    H229547   3.260   3.471   0.355 -2.4248  1.2287 -0.2457
 2686TIP3   OH229548   4.823   4.383  11.591  0.4662 -0.0268 -0.1080
 2686TIP3    H129549   4.777   4.404  11.509 -1.4940  0.2482  1.0227
 2686TIP3    H229550   4.846   4.469  11.627 -0.8321 -0.0385  0.7971
 2687TIP3   OH229551   3.525   0.555  14.188 -0.5183  0.1130 -0.3596
 2687TIP3    H129552   3.463   0.620  14.221  0.0160 -0.2550  1.4342
 2687TIP3    H229553   3.477   0.472  14.192 -0.4344  0.0595 -0.4560
 2688TIP3   OH229554   2.450   4.421   4.904 -0.3387 -0.4498  0.5522
 2688TIP3    H129555   2.450   4.517   4.896  1.0056 -0.6153 -1.5979
 2688TIP3    H229556   2.466   4.406   4.997 -1.2836  1.4219  1.0474
 2689TIP3   OH229557   1.187   5.051   3.539 -0.1890 -0.1148  0.2061
 2689TIP3    H129558   1.161   4.972   3.587  0.6268 -0.3908  0.2028
 2689TIP3    H229559   1.282   5.047   3.538 -0.0914  1.5111  1.2676
 2690TIP3   OH229560   6.257   4.907   2.220 -0.2317 -0.4260  0.3112
 2690TIP3    H129561   6.272   4.944   2.307 -0.7462 -1.9276  1.0639
 2690TIP3    H229562   6.298   4.969   2.160  0.1868  0.5996  1.6268
 2691TIP3   OH229563   2.777   1.663   1.020 -0.6359  0.0452  0.4037
 2691TIP3    H129564   2.782   1.604   1.095  0.0213 -0.3444  0.0566
 2691TIP3    H229565   2.779   1.606   0.944 -0.3315  0.4915  0.0741
 2692TIP3   OH229566   6.202   2.440   5.652 -0.4997 -0.0961  0.2114
 2692TIP3    H129567   6.142   2.365   5.650  0.2634 -0.6773 -2.7915
 2692TIP3    H229568   6.144   2.516   5.657 -1.5731 -0.6385 -2.6407
 2693TIP3   OH229569   1.275   2.043   0.952  0.0088  0.2271  0.2178
 2693TIP3    H129570   1.196   2.026   1.003 -1.1886  0.2657 -1.6002
 2693TIP3    H229571   1.296   2.135   0.971 -0.4236  0.2444  0.6314
 2694TIP3   OH229572   3.400   2.340   1.091 -0.6411  0.1410 -0.1549
 2694TIP3    H129573   3.479   2.394   1.099 -0.8329  0.5997 -1.2432
 2694TIP3    H229574   3.343   2.390   1.032 -1.4807 -0.4921  0.1185
 2695TIP3   OH229575   5.637   0.101  10.453 -0.2158 -0.0863  0.2392
 2695TIP3    H129576   5.561   0.046  10.434  0.4341 -0.9494  0.0551
 2695TIP3    H229577   5.668   0.129  10.367  0.8409 -1.3766  0.1772
 2696TIP3   OH229578   2.454   4.192   4.713  0.0778  0.0866  0.2876
 2696TIP3    H129579   2.462   4.121   4.776  1.3983  0.7431  0.9002
 2696TIP3    H229580   2.479   4.271   4.763 -2.4453  1.1472 -0.0645
 2697TIP3   OH229581   1.159   3.589   2.078 -0.0952  0.1001  0.5103
 2697TIP3    H129582   1.109   3.598   1.997  0.3979  1.2942  0.3353
 2697TIP3    H229583   1.112   3.521   2.127 -1.1918  0.3545 -0.1645
 2698TIP3   OH229584   4.858   2.801   2.292  0.5071 -0.3919  0.3483
 2698TIP3    H129585   4.869   2.720   2.242 -0.6389 -0.3869  0.0867
 2698TIP3    H229586   4.902   2.783   2.375 -0.6299 -1.6550  0.6915
 2699TIP3   OH229587   2.166   2.927   3.368 -0.2837 -0.2430  0.1381
 2699TIP3    H129588   2.087   2.874   3.371 -0.9868  0.6679 -1.6097
 2699TIP3    H229589   2.149   2.998   3.431 -0.2012 -0.9023  0.9143
 2700TIP3   OH229590   2.872   6.750   2.185 -0.3237  0.0119 -0.4868
 2700TIP3    H129591   2.788   6.758   2.139 -0.2521  0.0961 -0.6066
 2700TIP3    H229592   2.864   6.808   2.260  0.2370  1.3324 -1.4150
 2701TIP3   OH229593   0.524   1.359   6.274 -0.4512  0.0371  0.1776
 2701TIP3    H129594   0.571   1.427   6.225 -2.9362  0.8783 -1.1415
 2701TIP3    H229595   0.495   1.403   6.354 -0.8225  0.1467 -0.0135
 2702TIP3   OH229596   5.992   6.347  11.169  0.0879  0.5861  0.6922
 2702TIP3    H129597   5.907   6.392  11.171  1.2641  2.8645  0.5614
 2702TIP3    H229598   6.026   6.362  11.081  1.0133  0.3820  1.0090
 2703TIP3   OH229599   0.858   6.491   0.774 -0.3136  0.3712 -0.1277
 2703TIP3    H129600   0.797   6.421   0.753  1.8966 -1.1605 -1.6704
 2703TIP3    H229601   0.878   6.531   0.690  1.3888  0.3362  0.2428
 2704TIP3   OH229602   2.009   1.821   2.694 -0.1930  0.2568  0.4815
 2704TIP3    H129603   2.100   1.797   2.712 -0.3763 -2.4973 -1.7913
 2704TIP3    H229604   2.010   1.916   2.686  2.0475  0.4568  2.6434
 2705TIP3   OH229605   2.579   2.885  15.530 -0.2217 -0.4873 -0.4910
 2705TIP3    H129606   2.528   2.886  15.611  1.2998  0.8571  0.4897
 2705TIP3    H229607   2.605   2.793  15.519  2.5940 -0.1587  2.5568
 2706TIP3   OH229608   1.186   2.608   2.350 -0.3170  0.4842  0.0778
 2706TIP3    H129609   1.256   2.546   2.366  0.8784  1.5161 -1.0718
 2706TIP3    H229610   1.226   2.694   2.362 -0.5514  1.1850 -3.5107
 2707TIP3   OH229611   3.885   5.360  16.750  0.0647 -0.1643  0.0631
 2707TIP3    H129612   3.847   5.296  16.810  0.6271 -0.9352 -0.3896
 2707TIP3    H229613   3.971   5.380  16.787  0.5126 -0.8273 -0.6048
 2708TIP3   OH229614   5.433   4.018   4.386  0.2247 -0.1966  0.1130
 2708TIP3    H129615   5.450   4.112   4.379 -1.2091 -0.1364 -3.5405
 2708TIP3    H229616   5.338   4.010   4.395  0.3089 -1.3058  0.1695
 2709TIP3   OH229617   5.495   5.701   5.266 -0.2949 -0.0398  0.7758
 2709TIP3    H129618   5.434   5.677   5.196  0.3144  0.4340  0.0715
 2709TIP3    H229619   5.473   5.792   5.287 -1.4747 -0.6637  2.2516
 2710TIP3   OH229620   5.513   2.505   1.281  0.3774 -0.3594  0.3577
 2710TIP3    H129621   5.481   2.429   1.232 -0.8791  0.4669 -0.1387
 2710TIP3    H229622   5.469   2.501   1.365  0.9436 -0.6361  0.6406
 2711TIP3   OH229623   5.746   1.697  13.880  0.4614 -0.1525  0.1913
 2711TIP3    H129624   5.793   1.688  13.962 -0.0126  0.3682  0.5244
 2711TIP3    H229625   5.774   1.782  13.845  1.9057 -1.0835 -0.9947
 2712TIP3   OH229626   5.105   5.032  16.782  0.2229 -0.1670  0.5278
 2712TIP3    H129627   5.117   5.062  16.872  0.6856 -0.7219  0.6536
 2712TIP3    H229628   5.047   5.097  16.742 -1.6616 -0.9896  1.8043
 2713TIP3   OH229629   6.749   0.174  16.442 -0.0468  0.3885 -0.0874
 2713TIP3    H129630   6.835   0.212  16.455 -0.1386  0.0925  1.4481
 2713TIP3    H229631   6.766   0.080  16.430 -0.1941  0.2262  0.9031
 2714TIP3   OH229632   2.287   4.310  16.192 -0.5813 -0.4757  0.1408
 2714TIP3    H129633   2.375   4.344  16.211 -1.4391  0.4444  2.6200
 2714TIP3    H229634   2.292   4.280  16.101  1.5466  2.0069 -0.6122
 2715TIP3   OH229635   3.418   4.600  13.374  0.1586  0.0870  0.3587
 2715TIP3    H129636   3.361   4.677  13.381  0.3240  0.6612 -3.3427
 2715TIP3    H229637   3.358   4.526  13.365 -0.0902  0.5656 -2.4133
 2716TIP3   OH229638   3.555   0.600   1.746 -0.0949  0.3634  0.7071
 2716TIP3    H129639   3.517   0.597   1.834  0.8540  1.2755  1.1424
 2716TIP3    H229640   3.535   0.687   1.714 -0.5199  0.0004 -0.0276
 2717TIP3   OH229641   6.156   6.226  12.296 -0.2427 -0.0131  0.3263
 2717TIP3    H129642   6.064   6.212  12.274  0.5044 -1.7654 -1.8374
 2717TIP3    H229643   6.161   6.318  12.323 -2.6487  0.0410  0.6691
 2718TIP3   OH229644   6.562   5.512   6.030  0.2458 -0.2397  0.8546
 2718TIP3    H129645   6.616   5.435   6.010  0.2240 -0.1124  0.2886
 2718TIP3    H229646   6.589   5.538   6.118  1.9236  0.4903  0.1486
 2719TIP3   OH229647   3.843   2.127   0.944  0.1629 -0.2922 -0.5598
 2719TIP3    H129648   3.827   2.105   1.036 -0.3103  1.2526 -0.2636
 2719TIP3    H229649   3.938   2.140   0.940  0.0994  0.3458 -0.1248
 2720TIP3   OH229650   1.948   2.277  15.348 -0.0047  0.1338 -0.0889
 2720TIP3    H129651   1.962   2.350  15.287 -0.3879 -2.0432 -2.8474
 2720TIP3    H229652   1.930   2.202  15.292 -1.2493 -1.7615  2.7731
 2721TIP3   OH229653   0.151   6.470  12.294 -0.7553 -0.0833 -0.5011
 2721TIP3    H129654   0.153   6.565  12.288 -2.0990 -0.1687 -3.1117
 2721TIP3    H229655   0.192   6.440  12.213  0.4379 -1.7385  0.6884
 2722TIP3   OH229656   6.504   6.142   3.318 -0.2340 -0.7464 -0.0909
 2722TIP3    H129657   6.424   6.166   3.270 -0.4800 -1.8238 -0.2261
 2722TIP3    H229658   6.491   6.178   3.406 -0.7385 -0.6665 -0.1964
 2723TIP3   OH229659   6.200   0.946  11.444  0.3231 -0.3765  0.5033
 2723TIP3    H129660   6.187   0.854  11.469  0.2058 -0.6602 -0.5619
 2723TIP3    H229661   6.120   0.990  11.472  0.1957 -0.6845  0.6260
 2724TIP3   OH229662   0.567   2.502  11.934 -0.3850  0.0092  0.2289
 2724TIP3    H129663   0.476   2.528  11.927 -0.6319 -0.4705  1.6607
 2724TIP3    H229664   0.606   2.563  11.996  0.9385  1.9052 -2.3622
 2725TIP3   OH229665   1.881   6.592   6.533 -0.4075  0.1617  0.4807
 2725TIP3    H129666   1.865   6.685   6.516 -1.2857  0.0278  0.5147
 2725TIP3    H229667   1.952   6.591   6.596 -1.2054  0.8545  1.4044
 2726TIP3   OH229668   4.596   1.272   4.465 -0.0269 -0.2110 -0.3283
 2726TIP3    H129669   4.678   1.224   4.477  1.1323  1.7934 -0.0850
 2726TIP3    H229670   4.584   1.274   4.370  0.0333 -0.7759 -0.3535
 2727TIP3   OH229671   5.691   5.490  11.798 -1.0800  0.0304 -0.1166
 2727TIP3    H129672   5.767   5.548  11.810 -1.0092  0.1870 -1.2228
 2727TIP3    H229673   5.670   5.459  11.886  1.0973 -1.0670  0.0398
 2728TIP3   OH229674   4.817   0.945   5.668 -0.5944 -0.1829 -0.0637
 2728TIP3    H129675   4.752   0.877   5.682  0.5333 -1.1036  0.8228
 2728TIP3    H229676   4.850   0.929   5.580 -0.1634 -0.9373  0.2304
 2729TIP3   OH229677   3.238   1.809  13.524  0.7614 -0.3376 -0.0799
 2729TIP3    H129678   3.183   1.742  13.565  0.4068  1.5079  2.5946
 2729TIP3    H229679   3.324   1.798  13.563  0.5749  1.0698  0.7621
 2730TIP3   OH229680   5.092   0.066  15.274  0.0676  0.0466 -0.2939
 2730TIP3    H129681   5.131   0.019  15.201  1.8194  0.6133  0.2527
 2730TIP3    H229682   5.090   0.003  15.346  2.4951  0.7933  0.4647
 2731TIP3   OH229683   6.272   1.600  15.225  1.0973  0.4527 -0.4618
 2731TIP3    H129684   6.340   1.544  15.262  1.2198  1.0035  0.1542
 2731TIP3    H229685   6.194   1.545  15.222  0.9807  0.5225  0.9984
 2732TIP3   OH229686   6.531   4.018  16.093  0.5135  0.0360  0.2195
 2732TIP3    H129687   6.459   3.971  16.051 -0.9859 -0.8084  3.5878
 2732TIP3    H229688   6.609   3.969  16.068 -0.6934 -2.4301  1.1161
 2733TIP3   OH229689   3.828   0.471  13.888  0.2705  0.0244 -0.0485
 2733TIP3    H129690   3.746   0.423  13.896  0.4882 -0.0535  2.1268
 2733TIP3    H229691   3.807   0.559  13.919  0.7446  0.3151 -0.5412
 2734TIP3   OH229692   4.802   1.674  17.104  0.3582  0.7625  0.1352
 2734TIP3    H129693   4.788   1.684  17.009  2.8259  0.0135 -0.3356
 2734TIP3    H229694   4.752   1.746  17.143 -1.8122  0.2736 -1.6253
 2735TIP3   OH229695   6.787   2.901  12.272  0.3058 -0.2487 -0.1318
 2735TIP3    H129696   6.783   2.996  12.283  1.3761 -0.2448  0.2088
 2735TIP3    H229697   6.806   2.868  12.359  0.8119 -0.7233 -0.4233
 2736TIP3   OH229698   6.675   4.342  13.610  0.1591  0.9073  0.3370
 2736TIP3    H129699   6.657   4.353  13.516 -1.2304  0.6406  0.5733
 2736TIP3    H229700   6.770   4.327  13.614 -0.3411 -3.3456 -1.4350
 2737TIP3   OH229701   5.788   1.271  15.938  0.4136 -0.0124 -0.6251
 2737TIP3    H129702   5.769   1.260  15.845 -1.3196  2.8444 -0.6535
 2737TIP3    H229703   5.710   1.314  15.974  0.6622 -1.8434  2.3425
 2738TIP3   OH229704   1.837   5.579  13.670  0.4418  0.0950 -0.6071
 2738TIP3    H129705   1.787   5.660  13.682  0.2315  0.1133 -1.5581
 2738TIP3    H229706   1.909   5.604  13.612  0.5037 -0.3486 -0.7198
 2739TIP3   OH229707   3.627   2.609  10.826 -0.6039  0.5603  0.2452
 2739TIP3    H129708   3.584   2.550  10.887 -1.6017  1.1697  0.1284
 2739TIP3    H229709   3.671   2.550  10.763 -1.5079 -0.0574  0.1807
 2740TIP3   OH229710   6.231   2.194  13.790  0.1366 -0.1156 -0.1116
 2740TIP3    H129711   6.293   2.165  13.722 -0.2819  0.1124 -0.5961
 2740TIP3    H229712   6.182   2.264  13.748 -1.8964 -1.6872 -0.4412
 2741TIP3   OH229713   3.663   6.058   5.042  0.0652  0.6869  0.0502
 2741TIP3    H129714   3.708   5.973   5.038 -0.6323  0.2797  0.6460
 2741TIP3    H229715   3.576   6.036   5.074 -0.7227  1.3982 -1.5317
 2742TIP3   OH229716   5.390   2.826  11.778 -0.2904  0.4615 -0.0930
 2742TIP3    H129717   5.414   2.836  11.871 -1.1410  1.3806  0.0400
 2742TIP3    H229718   5.425   2.905  11.737  1.1093 -0.4966 -0.7839
 2743TIP3   OH229719   5.087   1.017   0.369  0.4872  0.2663 -0.6563
 2743TIP3    H129720   5.131   1.088   0.322  1.6182 -0.3411 -0.5420
 2743TIP3    H229721   5.059   0.956   0.301 -0.3896  0.7717 -0.7467
 2744TIP3   OH229722   0.492   5.919  17.271  0.5461  0.1845 -0.7611
 2744TIP3    H129723   0.546   5.916  17.350 -2.4616 -2.0840  1.2718
 2744TIP3    H229724   0.523   5.845  17.218 -1.2803 -1.8364  0.9309
 2745TIP3   OH229725   6.784   4.206   5.504  0.2096 -0.3495 -0.1069
 2745TIP3    H129726   6.749   4.135   5.450  0.4316 -1.1195  0.7368
 2745TIP3    H229727   6.825   4.161   5.578  0.7836  0.6456  0.1857
 2746TIP3   OH229728   0.714   5.449   3.211  0.0480  0.8949 -0.1817
 2746TIP3    H129729   0.694   5.501   3.289 -0.3932  0.3545  0.0646
 2746TIP3    H229730   0.700   5.510   3.138  0.6433  1.4596  0.1625
 2747TIP3   OH229731   6.804   3.524   2.765 -0.7020 -0.4991 -0.4197
 2747TIP3    H129732   6.796   3.566   2.850 -1.9033 -0.4501 -0.5469
 2747TIP3    H229733   6.717   3.530   2.727  0.0266  0.2148 -2.0114
 2748TIP3   OH229734   3.615   5.285  17.032  0.0254 -0.2577  0.5300
 2748TIP3    H129735   3.592   5.212  16.975  1.5402  0.5143 -1.1401
 2748TIP3    H229736   3.583   5.363  16.986  0.3779  0.3003  1.2086
 2749TIP3   OH229737   2.153   1.203  13.236 -0.1634 -1.2095  0.3730
 2749TIP3    H129738   2.137   1.215  13.329 -0.4469  1.7243 -0.0082
 2749TIP3    H229739   2.102   1.271  13.193  1.8477 -0.9660 -1.7691
 2750TIP3   OH229740   4.203   1.174  13.575 -0.0082 -0.2568  0.1572
 2750TIP3    H129741   4.186   1.178  13.481 -0.7121 -1.7278  0.2009
 2750TIP3    H229742   4.267   1.103  13.584  0.2532  0.0572  0.7661
 2751TIP3   OH229743   6.140   0.721   4.405 -0.2985 -0.2856  0.0210
 2751TIP3    H129744   6.047   0.743   4.409 -0.2555 -0.3175  1.1080
 2751TIP3    H229745   6.150   0.644   4.460  0.2613 -0.6955 -0.6340
 2752TIP3   OH229746   2.070   3.042  15.018  0.2310 -0.8472  0.2368
 2752TIP3    H129747   2.124   2.979  15.066  1.8196 -0.3204 -0.8358
 2752TIP3    H229748   2.110   3.048  14.932 -0.6615  0.6784 -0.0990
 2753TIP3   OH229749   1.147   6.610   1.165  0.4716  0.4272  0.4063
 2753TIP3    H129750   1.131   6.670   1.238  0.7245 -0.0379  0.8468
 2753TIP3    H229751   1.091   6.643   1.094  0.8714  1.3927  0.5282
 2754TIP3   OH229752   3.394   3.455  12.192  0.5104  0.9716  0.0535
 2754TIP3    H129753   3.427   3.424  12.108 -1.9521  0.2065 -0.6654
 2754TIP3    H229754   3.306   3.417  12.199 -0.4701  3.4427  1.6209
 2755TIP3   OH229755   0.121   4.013  12.004  0.4118 -0.2138  0.0638
 2755TIP3    H129756   0.052   4.001  12.070  0.1972  1.3227  0.1514
 2755TIP3    H229757   0.160   4.098  12.027 -0.0794  0.6280 -2.1443
 2756TIP3   OH229758   2.209   1.216   5.003 -0.1210 -0.1929  0.5099
 2756TIP3    H129759   2.178   1.181   4.919 -1.0237  1.5700  0.0857
 2756TIP3    H229760   2.199   1.143   5.064  1.5212 -1.8309 -1.1161
 2757TIP3   OH229761   1.479   5.801  16.148  0.4873 -0.4830  0.5885
 2757TIP3    H129762   1.414   5.819  16.080  1.0947 -0.6113 -0.0336
 2757TIP3    H229763   1.453   5.856  16.222  0.8974  1.0820 -0.4080
 2758TIP3   OH229764   1.795   4.451  12.703 -0.0837 -0.1199 -0.1981
 2758TIP3    H129765   1.861   4.433  12.636  3.2691  1.3646  2.5129
 2758TIP3    H229766   1.776   4.365  12.741  0.8373 -0.5038 -0.5773
 2759TIP3   OH229767   5.334   0.397   5.535 -0.2366 -0.5621  0.4185
 2759TIP3    H129768   5.333   0.493   5.542  3.2245 -0.3515 -0.9477
 2759TIP3    H229769   5.370   0.368   5.618  0.5165 -0.5368  0.1087
 2760TIP3   OH229770   2.214   3.471  16.595  0.0840  0.2048  0.0596
 2760TIP3    H129771   2.213   3.564  16.616 -2.8458  0.1000  0.6221
 2760TIP3    H229772   2.200   3.468  16.500  1.4594  0.3511 -0.1584
 2761TIP3   OH229773   0.001   3.550   1.389  0.1504 -0.1442  0.0094
 2761TIP3    H129774  -0.091   3.521   1.390  0.0323  0.2352  1.5456
 2761TIP3    H229775   0.051   3.471   1.411  0.1581 -0.2474 -0.3807
 2762TIP3   OH229776   1.077   3.888   0.475 -0.2729  0.5716  0.6726
 2762TIP3    H129777   1.125   3.962   0.512 -0.0466  1.1978 -0.8354
 2762TIP3    H229778   1.030   3.925   0.400 -0.2504 -0.7694 -0.0174
 2763TIP3   OH229779   4.206   6.410   3.133 -0.6469 -0.2057 -0.3504
 2763TIP3    H129780   4.274   6.476   3.149 -0.9853 -0.2391  1.3011
 2763TIP3    H229781   4.152   6.449   3.064 -0.1652  0.7427 -0.2079
 2764TIP3   OH229782   5.231   3.944  10.465 -0.1278  0.1590 -0.0552
 2764TIP3    H129783   5.295   4.005  10.428 -2.8127  1.6988 -2.3706
 2764TIP3    H229784   5.229   3.871  10.403  1.4267 -1.2793  1.5321
 2765TIP3   OH229785   3.224   6.027  12.064 -0.0074 -0.0109  0.1558
 2765TIP3    H129786   3.167   5.979  12.003  1.7544 -1.6343 -0.2744
 2765TIP3    H229787   3.164   6.065  12.128 -1.6862 -0.4967 -1.0868
 2766TIP3   OH229788   3.440   6.009   2.163 -0.0264 -0.8201  0.3326
 2766TIP3    H129789   3.402   6.091   2.132  0.4845 -0.7643 -0.1404
 2766TIP3    H229790   3.505   6.036   2.228  0.9267 -0.7990 -0.6349
 2767TIP3   OH229791   3.354   1.450   1.909  0.8016 -0.3291  0.7726
 2767TIP3    H129792   3.278   1.505   1.926 -0.0623 -1.0027 -0.9077
 2767TIP3    H229793   3.325   1.361   1.929  1.6565 -0.4198  1.7084
 2768TIP3   OH229794   4.100   1.258  16.998  0.6349 -0.4236 -0.0832
 2768TIP3    H129795   4.168   1.289  17.057 -0.1350  0.4244  0.3654
 2768TIP3    H229796   4.021   1.304  17.026  0.5140  0.9994 -2.5719
 2769TIP3   OH229797   3.098   0.101   3.052  0.2351  0.5897 -0.3391
 2769TIP3    H129798   3.174   0.113   2.994  0.6793  0.3001  0.1799
 2769TIP3    H229799   3.081   0.007   3.049 -0.2790  0.6911 -0.6679
 2770TIP3   OH229800   0.003   3.892   2.448  0.4372  0.0845  0.2153
 2770TIP3    H129801  -0.082   3.849   2.444  0.3530  0.2985 -0.2194
 2770TIP3    H229802   0.062   3.823   2.481  0.0345  0.0394  0.8439
 2771TIP3   OH229803   2.420   5.234   6.476  0.4895  0.4544  0.2788
 2771TIP3    H129804   2.391   5.233   6.567  2.0057  1.5193  0.7972
 2771TIP3    H229805   2.498   5.289   6.476  2.1828 -1.8457 -1.1702
 2772TIP3   OH229806   5.548   6.709   1.919  0.1591 -0.1374  0.1619
 2772TIP3    H129807   5.599   6.771   1.971 -1.8084  1.0387  0.7511
 2772TIP3    H229808   5.459   6.744   1.920 -0.5995 -1.9265 -1.1612
 2773TIP3   OH229809   0.856   0.455   1.179  0.2106  0.0026  0.1977
 2773TIP3    H129810   0.817   0.530   1.222 -1.4732  0.1517 -1.5423
 2773TIP3    H229811   0.815   0.379   1.220 -0.2757  0.1018 -0.1093
 2774TIP3   OH229812   3.925   2.120  14.958  0.0209 -0.0673  0.5388
 2774TIP3    H129813   3.849   2.132  14.901  0.1297 -0.2824  0.3450
 2774TIP3    H229814   3.934   2.203  15.004  0.7798  0.6148 -0.8062
 2775TIP3   OH229815   4.389   1.447  16.866 -0.6430  0.2569 -0.1413
 2775TIP3    H129816   4.340   1.521  16.903  2.3408  1.6862  1.1375
 2775TIP3    H229817   4.398   1.385  16.939  0.1565  0.3826 -0.1324
 2776TIP3   OH229818   0.091   6.790   5.003  0.5013 -0.2837 -0.0901
 2776TIP3    H129819   0.096   6.884   5.020  0.1926 -0.2147 -0.3647
 2776TIP3    H229820   0.078   6.750   5.089 -1.0149  0.0585 -0.1528
 2777TIP3   OH229821   2.289   5.706   6.246  0.4026  0.1085  0.8581
 2777TIP3    H129822   2.226   5.634   6.251 -0.9103  1.1568 -0.4203
 2777TIP3    H229823   2.337   5.702   6.329 -2.2766  0.1934  2.4490
 2778TIP3   OH229824   1.487   0.826  13.847 -0.8298  0.0704  0.4893
 2778TIP3    H129825   1.582   0.822  13.849 -0.8144  0.0004 -0.3836
 2778TIP3    H229826   1.461   0.761  13.782 -1.4111  0.8707 -0.1031
 2779TIP3   OH229827   1.519   5.529  13.895  0.0911  0.2788 -0.0575
 2779TIP3    H129828   1.604   5.535  13.940 -1.2152  1.1273  2.3642
 2779TIP3    H229829   1.526   5.593  13.824  0.8263  1.7130  1.2624
 2780TIP3   OH229830   4.181   1.331  16.454  0.6382 -0.0228 -0.8162
 2780TIP3    H129831   4.145   1.279  16.382 -0.8908 -0.4799  0.2294
 2780TIP3    H229832   4.241   1.393  16.413  1.0041 -1.3394 -2.2956
 2781TIP3   OH229833   6.558   6.493  12.715  0.5491  0.0281 -0.0508
 2781TIP3    H129834   6.563   6.417  12.772  0.0656 -0.9783 -1.3315
 2781TIP3    H229835   6.639   6.491  12.664 -0.1851 -0.5415 -1.2079
 2782TIP3   OH229836   2.244   2.896  16.381 -0.2049 -0.0200  0.4207
 2782TIP3    H129837   2.218   2.819  16.432  0.4416  0.4804  1.5279
 2782TIP3    H229838   2.162   2.940  16.359 -0.4700  0.0119  1.4500
 2783TIP3   OH229839   4.396   1.623   1.648  0.2196  0.1683  0.3905
 2783TIP3    H129840   4.451   1.655   1.576  0.5237 -2.0019 -0.3710
 2783TIP3    H229841   4.457   1.607   1.720  0.0882  1.0830  0.7182
 2784TIP3   OH229842   3.100   3.379   1.778 -0.6425  0.0414  0.2172
 2784TIP3    H129843   3.129   3.288   1.770 -1.8199 -0.3354  0.1375
 2784TIP3    H229844   3.155   3.415   1.847  1.7607  0.0763 -1.6639
 2785TIP3   OH229845   1.216   5.713   0.380  0.5538  0.6515 -0.0196
 2785TIP3    H129846   1.169   5.790   0.410  1.0968  1.1887 -0.5027
 2785TIP3    H229847   1.150   5.644   0.372 -0.3125  1.6442 -1.5709
 2786TIP3   OH229848   5.257   6.422   2.734 -0.0554  0.2174 -0.5426
 2786TIP3    H129849   5.285   6.446   2.823 -1.6405  2.3710 -0.5707
 2786TIP3    H229850   5.283   6.497   2.680  0.6911 -0.9804 -1.8806
 2787TIP3   OH229851   2.863   3.744   0.282  0.5975 -0.0346 -0.2788
 2787TIP3    H129852   2.958   3.748   0.296  0.7421  0.7273 -1.4210
 2787TIP3    H229853   2.830   3.825   0.322  0.6936  0.8029 -1.8874
 2788TIP3   OH229854   6.152   3.699  16.431  0.4125 -0.1304  0.0457
 2788TIP3    H129855   6.177   3.791  16.434  1.0043 -0.3454  2.4216
 2788TIP3    H229856   6.102   3.685  16.511 -0.4400 -1.6643 -0.7377
 2789TIP3   OH229857   0.590   1.800  11.109 -0.5269  0.0658  0.2128
 2789TIP3    H129858   0.504   1.759  11.100 -1.2462  1.1108  2.0290
 2789TIP3    H229859   0.574   1.893  11.094  0.3636  0.2147  0.1624
 2790TIP3   OH229860   0.945   1.692  14.765 -0.0297  0.3917 -0.1779
 2790TIP3    H129861   0.861   1.673  14.806  0.1070 -0.6572 -0.3707
 2790TIP3    H229862   0.923   1.748  14.690 -0.7416 -1.2811 -1.2282
 2791TIP3   OH229863   6.696   6.269  13.764 -0.2315 -0.0935  0.5986
 2791TIP3    H129864   6.642   6.258  13.686  0.4710  0.0949  0.0885
 2791TIP3    H229865   6.638   6.243  13.836  0.0614 -3.1642 -0.2212
 2792TIP3   OH229866   0.946   5.427  15.353 -0.4775  0.3562  0.0109
 2792TIP3    H129867   0.961   5.520  15.368 -0.0448  0.2111  0.4716
 2792TIP3    H229868   1.032   5.387  15.361 -0.8294 -0.2360  0.8839
 2793TIP3   OH229869   4.721   5.034  11.662  0.4042  0.4661 -0.0535
 2793TIP3    H129870   4.705   5.023  11.568 -0.2636 -1.4945  0.2665
 2793TIP3    H229871   4.794   5.095  11.667  1.1783 -0.2757 -1.8800
 2794TIP3   OH229872   0.650   4.504   1.307 -0.0427 -0.1129 -0.4527
 2794TIP3    H129873   0.744   4.489   1.307 -0.0942 -0.4744 -0.0326
 2794TIP3    H229874   0.625   4.501   1.400 -0.4360  0.1719 -0.5459
 2795TIP3   OH229875   2.041   5.753   2.266 -0.1659 -0.7376 -0.2824
 2795TIP3    H129876   2.026   5.791   2.353 -1.0562 -1.6986 -0.0064
 2795TIP3    H229877   2.042   5.659   2.282  0.5205 -0.8808 -1.1922
 2796TIP3   OH229878   2.040   3.043  13.857  0.1394  0.3934  0.1918
 2796TIP3    H129879   2.090   3.089  13.924 -0.5344  0.9379  0.3299
 2796TIP3    H229880   2.104   3.023  13.788  0.9375 -0.6351  1.2261
 2797TIP3   OH229881   3.237   5.827   4.349 -0.0352 -0.3809 -0.0327
 2797TIP3    H129882   3.328   5.831   4.321 -0.2791 -0.4710 -0.8468
 2797TIP3    H229883   3.192   5.781   4.278 -0.6082 -0.8482  0.6277
 2798TIP3   OH229884   1.111   2.645  16.078  0.0241 -0.0812  0.2604
 2798TIP3    H129885   1.094   2.720  16.135 -0.7089  0.1417 -0.2384
 2798TIP3    H229886   1.161   2.680  16.005 -0.8117  0.0505 -0.2624
 2799TIP3   OH229887   1.288   3.806   5.690 -0.0509 -0.0529  0.3380
 2799TIP3    H129888   1.193   3.803   5.706  0.2372  0.0663  2.1770
 2799TIP3    H229889   1.327   3.813   5.777  1.6920 -0.7862 -0.3579
 2800TIP3   OH229890   6.516   5.020  13.947  0.0944 -0.4473  0.5552
 2800TIP3    H129891   6.590   5.027  14.007 -0.7420 -0.2313  1.6004
 2800TIP3    H229892   6.440   5.043  14.001 -0.6805 -0.2313 -0.6018
 2801TIP3   OH229893   0.950   2.320  15.704 -0.7590  0.1991 -0.1177
 2801TIP3    H129894   0.980   2.407  15.679 -2.0635  0.6346 -0.1886
 2801TIP3    H229895   0.914   2.331  15.792 -0.7955 -0.2876 -0.0734
 2802TIP3   OH229896   1.247   2.137   4.503 -0.3821  0.1260 -0.9390
 2802TIP3    H129897   1.237   2.189   4.424 -1.5625  0.2551 -0.7163
 2802TIP3    H229898   1.324   2.083   4.487 -1.0818 -0.4268 -2.4976
 2803TIP3   OH229899   0.342   4.975   5.293 -0.0594 -0.4064 -0.1482
 2803TIP3    H129900   0.438   4.976   5.286 -0.1406  1.6555 -1.4004
 2803TIP3    H229901   0.321   5.051   5.347 -1.0901  0.1853 -1.3656
 2804TIP3   OH229902   0.462   2.281   5.278  0.0178  0.0909  0.0463
 2804TIP3    H129903   0.487   2.255   5.366  1.1817 -0.4173 -0.4277
 2804TIP3    H229904   0.496   2.369   5.267 -0.0353  0.1134  0.0616
 2805TIP3   OH229905   5.680   1.388  14.847 -0.7736 -0.3492 -0.4269
 2805TIP3    H129906   5.637   1.365  14.929 -1.7140  2.8157  0.0098
 2805TIP3    H229907   5.621   1.354  14.779 -1.1072 -1.0086  0.1786
 2806TIP3   OH229908   6.043   6.350   6.286 -0.5590 -0.4841  0.0803
 2806TIP3    H129909   5.971   6.292   6.312 -0.3854 -0.1859  1.3033
 2806TIP3    H229910   6.005   6.438   6.291 -0.0203 -0.2961  1.1285
 2807TIP3   OH229911   4.925   4.575   3.094  0.3835  0.3006  0.5027
 2807TIP3    H129912   4.958   4.653   3.139  0.6779  1.0295 -0.9266
 2807TIP3    H229913   4.917   4.602   3.002  1.2027 -1.5677 -0.1514
 2808TIP3   OH229914   5.227   2.255   5.307  0.0823 -0.6898  0.1545
 2808TIP3    H129915   5.142   2.215   5.323  0.1449 -0.2200  1.8039
 2808TIP3    H229916   5.221   2.290   5.219 -1.0552 -1.6013 -0.1461
 2809TIP3   OH229917   3.703   2.928   5.303  0.4454  0.3444 -0.1905
 2809TIP3    H129918   3.712   3.006   5.359  1.8391 -0.6672  1.0581
 2809TIP3    H229919   3.663   2.960   5.223  2.0297  2.5775 -0.1334
 2810TIP3   OH229920   0.294   0.400  15.094  0.1903  0.1563 -0.1564
 2810TIP3    H129921   0.352   0.370  15.165  1.5727 -0.2510 -1.4460
 2810TIP3    H229922   0.339   0.476  15.057  0.5345 -0.9018 -1.9704
 2811TIP3   OH229923   6.269   1.226  14.839  0.1059  0.2289  0.1260
 2811TIP3    H129924   6.333   1.177  14.787  1.4431 -0.6841  2.5380
 2811TIP3    H229925   6.217   1.159  14.882 -1.0666  0.9784 -0.1155
 2812TIP3   OH229926   2.184   4.199   1.846  0.6482  0.5713 -0.2654
 2812TIP3    H129927   2.121   4.242   1.903 -0.7442 -0.5332 -0.9362
 2812TIP3    H229928   2.258   4.259   1.841 -0.6156  2.1764  0.0288
 2813TIP3   OH229929   5.476   2.826   2.288  0.1610 -0.2799 -0.3845
 2813TIP3    H129930   5.462   2.856   2.378 -2.7217  0.9464 -1.1853
 2813TIP3    H229931   5.395   2.780   2.265  0.9640 -0.8032 -2.2759
 2814TIP3   OH229932   3.014   5.359  11.812 -0.5023 -0.5043 -0.0579
 2814TIP3    H129933   3.052   5.295  11.751  0.4648 -0.0045  0.0169
 2814TIP3    H229934   3.041   5.444  11.778  0.8459 -0.2594  1.6044
 2815TIP3   OH229935   1.437   1.687   3.236 -0.0577 -0.2195  0.2536
 2815TIP3    H129936   1.513   1.744   3.223 -0.8824  0.6854 -0.6616
 2815TIP3    H229937   1.422   1.688   3.330  0.1038  0.8636  0.2724
 2816TIP3   OH229938   2.238   3.835   5.496 -0.1976  0.1907  0.1408
 2816TIP3    H129939   2.193   3.918   5.484 -1.7706 -0.6337  0.2068
 2816TIP3    H229940   2.281   3.819   5.411 -0.6882  0.5973 -0.1889
 2817TIP3   OH229941   1.426   0.580  13.204 -0.1314  0.0871  0.7602
 2817TIP3    H129942   1.510   0.622  13.226 -0.6086  1.1618  0.5374
 2817TIP3    H229943   1.384   0.641  13.144 -0.9858 -0.5570  0.7029
 2818TIP3   OH229944   2.253   0.913  12.151  0.1262 -0.1353 -0.2012
 2818TIP3    H129945   2.164   0.880  12.135 -0.5655  1.0046  1.2213
 2818TIP3    H229946   2.241   1.008  12.164  1.5425  0.0085  0.0902
 2819TIP3   OH229947   4.536   5.306  13.956  0.0924  0.1683  1.1225
 2819TIP3    H129948   4.611   5.248  13.966 -0.5830 -0.6522  1.5182
 2819TIP3    H229949   4.520   5.311  13.862  0.6144  0.3039  1.0441
 2820TIP3   OH229950   5.412   5.269   5.967  0.1020  0.1358 -0.1322
 2820TIP3    H129951   5.351   5.338   5.992 -1.1854 -0.9389 -0.2553
 2820TIP3    H229952   5.452   5.301   5.886 -0.7660  0.5564 -0.3978
 2821TIP3   OH229953   4.670   6.499   6.365 -0.3845 -0.2214 -0.4773
 2821TIP3    H129954   4.715   6.523   6.446  0.4006 -4.0672  0.3105
 2821TIP3    H229955   4.579   6.525   6.380  0.1337  0.9620  0.7955
 2822TIP3   OH229956   1.049   5.370  13.128  0.0438 -0.6832 -0.1135
 2822TIP3    H129957   1.113   5.349  13.197  0.8931 -1.7958 -1.2213
 2822TIP3    H229958   1.058   5.299  13.065 -1.6705 -0.3617 -0.7348
 2823TIP3   OH229959   3.134   3.986   2.532 -0.0832  0.4930 -0.1965
 2823TIP3    H129960   3.230   3.983   2.534 -0.0192  0.1888 -2.4060
 2823TIP3    H229961   3.114   4.072   2.493 -0.6986  0.4146 -0.0539
 2824TIP3   OH229962   2.403   5.340   0.888  0.5952 -0.2595 -0.0172
 2824TIP3    H129963   2.442   5.260   0.852  0.7099 -0.5990  0.8586
 2824TIP3    H229964   2.323   5.311   0.932  0.3965  0.1696 -0.0914
 2825TIP3   OH229965   2.540   1.777  16.714  0.4771 -0.1983  0.5900
 2825TIP3    H129966   2.543   1.859  16.665  1.4291 -1.5127 -1.6062
 2825TIP3    H229967   2.630   1.744  16.710  0.0815 -1.3850  1.3972
 2826TIP3   OH229968   1.828   0.380  12.840 -0.2430  0.3281 -0.8515
 2826TIP3    H129969   1.763   0.323  12.881 -1.3956 -0.0540 -3.1149
 2826TIP3    H229970   1.890   0.320  12.798  1.1541  0.7060  0.6119
 2827TIP3   OH229971   4.543   6.749  15.335  0.1267 -0.1624 -0.0554
 2827TIP3    H129972   4.495   6.682  15.384 -0.1814 -0.0282 -0.1745
 2827TIP3    H229973   4.589   6.700  15.267  0.9876 -0.4190  0.6877
 2828TIP3   OH229974   1.569   6.744  12.562 -0.6401  0.2114  0.4350
 2828TIP3    H129975   1.610   6.772  12.480 -0.1276  1.2837  1.0556
 2828TIP3    H229976   1.627   6.775  12.631 -1.1915 -0.4743  1.2227
 2829TIP3   OH229977   4.747   3.098  15.424 -0.0753 -0.2354  0.5376
 2829TIP3    H129978   4.816   3.054  15.473  0.8310  0.1656 -0.3590
 2829TIP3    H229979   4.695   3.028  15.385 -0.2715 -0.5382  1.3348
 2830TIP3   OH229980   1.512   2.774   3.270 -0.0086 -0.8199  0.2655
 2830TIP3    H129981   1.539   2.800   3.182  1.8495  0.6224  1.2087
 2830TIP3    H229982   1.586   2.799   3.326 -0.6155 -2.8872  2.0594
 2831TIP3   OH229983   1.297   0.085   7.052 -0.0929 -0.0769  0.5038
 2831TIP3    H129984   1.225   0.109   7.110 -0.3852  1.1692 -0.3620
 2831TIP3    H229985   1.254   0.063   6.969  0.5291  0.7810 -0.0507
 2832TIP3   OH229986   0.519   3.357   0.615 -0.2067  0.0897 -0.4625
 2832TIP3    H129987   0.461   3.336   0.542 -0.3161 -0.2553 -0.2772
 2832TIP3    H229988   0.500   3.290   0.681 -1.7817  1.6937  0.8095
 2833TIP3   OH229989   3.441   2.843   1.296 -0.0715  0.1303  0.0163
 2833TIP3    H129990   3.377   2.854   1.366 -0.6864 -0.4600 -0.4423
 2833TIP3    H229991   3.390   2.808   1.223  0.9279 -1.1609 -0.0821
 2834TIP3   OH229992   2.028   2.735   2.644 -0.1562  0.3866 -0.0924
 2834TIP3    H129993   2.090   2.790   2.597 -0.4111 -0.5294 -1.5291
 2834TIP3    H229994   2.016   2.658   2.588 -0.5155 -0.7075  1.4359
 2835TIP3   OH229995   6.365   0.264  16.214 -0.1991  0.7483 -0.1381
 2835TIP3    H129996   6.349   0.257  16.120 -0.2667 -0.9035 -0.0063
 2835TIP3    H229997   6.279   0.262  16.254 -0.0880 -0.1809  0.0604
 2836TIP3   OH229998   5.644   0.396   2.221  0.9486 -0.8428  0.2000
 2836TIP3    H129999   5.663   0.351   2.304 -0.0396  0.0936  0.9580
 2836TIP3    H230000   5.627   0.487   2.247  2.4026 -0.1273 -1.2407
 2837TIP3   OH230001   3.050   6.122   5.102  0.4603  0.4527  0.2357
 2837TIP3    H130002   3.094   6.198   5.140  1.9337  0.7420 -1.9567
 2837TIP3    H230003   3.082   6.047   5.151  1.3911  0.9384  0.3674
 2838TIP3   OH230004   4.945   1.127  13.258 -0.1870  0.8553  0.2759
 2838TIP3    H130005   5.030   1.122  13.301  0.0767  1.4560 -0.1550
 2838TIP3    H230006   4.892   1.060  13.300  0.3966  0.7111  0.7855
 2839TIP3   OH230007   5.880   0.009   3.169 -0.0182  0.0472  0.5489
 2839TIP3    H130008   5.957  -0.002   3.113  0.1526 -0.9343  0.9661
 2839TIP3    H230009   5.893  -0.052   3.241 -1.2203 -0.1820  0.5926
 2840TIP3   OH230010   1.721   0.915  17.260 -0.8363  0.4474  0.8408
 2840TIP3    H130011   1.790   0.902  17.195 -2.3688  1.9960 -1.1444
 2840TIP3    H230012   1.752   0.987  17.314 -1.8439  2.7288 -1.4930
 2841TIP3   OH230013   0.621   0.961  14.807  0.9391  0.1050  0.2489
 2841TIP3    H130014   0.590   1.043  14.843  2.3902  2.0266 -2.6420
 2841TIP3    H230015   0.542   0.909  14.792 -0.2414  2.0707 -0.3958
 2842TIP3   OH230016   5.059   0.472  15.107 -0.3291 -0.9360  0.4473
 2842TIP3    H130017   5.072   0.541  15.172 -0.4455  0.0294 -0.5465
 2842TIP3    H230018   5.147   0.453  15.076 -0.3393 -0.9713  0.4408
 2843TIP3   OH230019   3.009   0.368   0.924 -0.0962 -0.0402  0.4662
 2843TIP3    H130020   2.982   0.438   0.983 -2.8756 -1.4301  0.9182
 2843TIP3    H230021   2.965   0.389   0.841  0.6847 -0.1734  0.0146
 2844TIP3   OH230022   4.834   1.152   4.570 -0.3604 -0.0158 -0.1574
 2844TIP3    H130023   4.794   1.207   4.638  0.6531  0.9886 -0.3623
 2844TIP3    H230024   4.898   1.208   4.528  0.0550 -1.0884 -0.9868
 2845TIP3   OH230025   2.408   3.952   3.742  0.1563 -0.2033 -0.6403
 2845TIP3    H130026   2.477   3.994   3.690  0.7002 -0.5116 -0.1784
 2845TIP3    H230027   2.334   3.944   3.682  0.9285 -0.9598 -1.5148
 2846TIP3   OH230028   6.119   3.430  16.351 -0.0431 -0.5099 -0.2021
 2846TIP3    H130029   6.192   3.384  16.309  0.8939  1.5379 -0.9179
 2846TIP3    H230030   6.154   3.517  16.369 -0.9630 -0.8273  3.3751
 2847TIP3   OH230031   5.483   5.190  15.302  0.1270  0.0911 -0.3339
 2847TIP3    H130032   5.533   5.156  15.377  0.6256 -0.6007 -0.9735
 2847TIP3    H230033   5.550   5.211  15.237 -0.2564  1.3408 -0.3402
 2848TIP3   OH230034   1.168   3.827   2.833  0.3372  0.0421  0.3883
 2848TIP3    H130035   1.195   3.735   2.836 -0.6310 -0.3813 -2.3712
 2848TIP3    H230036   1.081   3.829   2.873 -0.1949 -0.4758 -0.7326
 2849TIP3   OH230037   3.346   0.621  13.065  0.0466 -0.1234  0.1632
 2849TIP3    H130038   3.331   0.542  13.118  1.0618 -0.1108  0.4703
 2849TIP3    H230039   3.268   0.627  13.009 -0.4675 -0.8185  0.7946
 2850TIP3   OH230040   3.371   0.226  13.038 -0.3260 -0.2857 -0.0425
 2850TIP3    H130041   3.461   0.198  13.056 -0.2676  0.2365  0.5201
 2850TIP3    H230042   3.358   0.301  13.096 -0.9907 -0.1103 -0.4151
 2851TIP3   OH230043   5.585   0.660  17.153 -0.3930 -0.1951 -0.3669
 2851TIP3    H130044   5.650   0.713  17.108  0.4703 -0.2295  0.7960
 2851TIP3    H230045   5.592   0.573  17.113  1.4709 -0.6524  0.8300
 2852TIP3   OH230046   2.500   3.308  16.649  0.3493  0.0877  0.1816
 2852TIP3    H130047   2.557   3.265  16.585  0.0700  0.5005 -0.3535
 2852TIP3    H230048   2.427   3.248  16.661  0.3146  0.0890 -0.0226
 2853TIP3   OH230049   4.921   1.243   1.586  0.1085 -0.1242 -0.4318
 2853TIP3    H130050   4.859   1.298   1.538  0.3909 -1.2532 -2.1655
 2853TIP3    H230051   5.006   1.285   1.573 -0.2658  1.4727  2.0195
 2854TIP3   OH230052   5.140   3.631  14.765 -0.2808  0.0539 -0.2225
 2854TIP3    H130053   5.226   3.617  14.807 -0.1986 -0.9582 -0.7104
 2854TIP3    H230054   5.155   3.702  14.703 -0.2046  1.0168  0.8771
 2855TIP3   OH230055   3.961   2.396   2.666 -0.2893 -0.0793 -0.4425
 2855TIP3    H130056   4.039   2.396   2.611 -0.5588  1.5224 -0.8382
 2855TIP3    H230057   3.888   2.405   2.604 -0.6529  0.6703  0.0918
 2856TIP3   OH230058   5.236   3.800  16.270  0.2088  0.0661 -0.1771
 2856TIP3    H130059   5.249   3.735  16.201  0.4435  0.7814 -0.8264
 2856TIP3    H230060   5.192   3.753  16.340  0.6221 -0.8574 -0.5250
 2857TIP3   OH230061   2.371   4.231   2.524 -0.0227  0.5678 -0.0466
 2857TIP3    H130062   2.439   4.289   2.488  0.3422  0.2875  0.1827
 2857TIP3    H230063   2.307   4.290   2.563  1.5629  0.7715  2.3847
 2858TIP3   OH230064   4.795   0.299   3.218 -0.0163  0.1900 -0.0502
 2858TIP3    H130065   4.829   0.360   3.284  1.4960 -0.3174 -0.3543
 2858TIP3    H230066   4.820   0.338   3.135  1.8167 -1.3270 -0.2290
 2859TIP3   OH230067   0.767   5.177   0.656  0.1587  0.1735 -0.0387
 2859TIP3    H130068   0.723   5.259   0.679  0.0654 -0.1641  1.0393
 2859TIP3    H230069   0.778   5.131   0.740  0.3465 -0.8467 -0.6041
 2860TIP3   OH230070   1.544   2.300  16.126  0.0624  0.0329 -0.4042
 2860TIP3    H130071   1.449   2.301  16.121 -0.0344 -2.4122  0.5309
 2860TIP3    H230072   1.573   2.343  16.045 -1.8086  2.0804 -0.0392
 2861TIP3   OH230073   0.844   4.818   5.639  0.0886 -0.1227 -0.1321
 2861TIP3    H130074   0.888   4.886   5.691 -0.1879  2.3538 -2.9776
 2861TIP3    H230075   0.757   4.854   5.622  0.4288 -0.5244 -2.9023
 2862TIP3   OH230076   6.730   6.508  11.541  0.5984  0.2262 -0.6531
 2862TIP3    H130077   6.808   6.559  11.522 -0.0068  1.0870 -0.8433
 2862TIP3    H230078   6.684   6.500  11.457 -0.2439  0.9557 -0.2731
 2863TIP3   OH230079   0.027   0.183   0.079 -0.7292 -0.3132 -0.2725
 2863TIP3    H130080  -0.031   0.255   0.056  0.9541  1.6736  1.5321
 2863TIP3    H230081  -0.001   0.156   0.167  0.8057  0.4233  0.4631
 2864TIP3   OH230082   1.078   4.211  14.270 -0.2990 -0.0496  0.2041
 2864TIP3    H130083   1.104   4.269  14.199 -0.8137  0.7824  0.6873
 2864TIP3    H230084   1.003   4.163  14.235 -1.2734  1.1738  0.5599
 2865TIP3   OH230085   5.054   4.846  15.907  0.0232 -0.2301 -0.6637
 2865TIP3    H130086   4.998   4.898  15.850  0.3383  1.6370  0.6973
 2865TIP3    H230087   5.119   4.807  15.848 -0.9051 -0.0230 -1.8347
 2866TIP3   OH230088   0.707   2.791  11.647 -0.4275 -0.1290  0.2905
 2866TIP3    H130089   0.731   2.864  11.589 -0.2139 -0.8530 -0.5393
 2866TIP3    H230090   0.706   2.830  11.735  1.1683  0.5213  0.0325
 2867TIP3   OH230091   0.590   6.123   2.565 -0.1357 -0.1649 -0.0918
 2867TIP3    H130092   0.674   6.086   2.540  0.2595  0.7937 -0.2167
 2867TIP3    H230093   0.607   6.217   2.575 -1.1529  0.0189  0.0076
 2868TIP3   OH230094   4.754   4.452  17.060  0.4724  0.2054  0.0226
 2868TIP3    H130095   4.840   4.488  17.083 -0.3766  0.2433  3.3627
 2868TIP3    H230096   4.703   4.529  17.033  0.4153  0.7340  1.5659
 2869TIP3   OH230097   4.262   6.533   2.224  0.3272 -0.0336  0.3119
 2869TIP3    H130098   4.246   6.614   2.271  0.3799 -0.0554  0.3667
 2869TIP3    H230099   4.256   6.557   2.131  0.0517 -0.0252  0.3302
 2870TIP3   OH230100   3.376   0.129  15.992 -0.7222 -0.0456  0.2479
 2870TIP3    H130101   3.421   0.045  15.981 -0.8466 -0.2147  1.0399
 2870TIP3    H230102   3.429   0.191  15.942  0.0312 -0.3615  0.6510
 2871TIP3   OH230103   1.705   4.509  16.424  0.8032 -0.0711  0.2440
 2871TIP3    H130104   1.762   4.586  16.430  0.6435  0.3412 -2.6614
 2871TIP3    H230105   1.645   4.517  16.498  0.1621  3.1676 -0.5330
 2872TIP3   OH230106   0.518   4.914  16.824 -0.4075 -0.1348  0.0892
 2872TIP3    H130107   0.565   4.996  16.812  0.0249 -0.6351 -1.7315
 2872TIP3    H230108   0.537   4.863  16.745  1.0714 -2.8486  2.0812
 2873TIP3   OH230109   2.300   1.209  13.532  0.0672 -0.2024 -0.2110
 2873TIP3    H130110   2.357   1.148  13.485  1.0069 -0.3567  1.0859
 2873TIP3    H230111   2.343   1.221  13.617 -0.1493  2.1832 -0.3896
 2874TIP3   OH230112   0.433   6.213   3.952  0.2793  0.3645 -0.8562
 2874TIP3    H130113   0.456   6.167   4.033  0.7584 -0.1112 -1.2557
 2874TIP3    H230114   0.499   6.282   3.944 -1.4242  2.2154  0.6175
 2875TIP3   OH230115   4.474   2.652   5.283 -0.2894 -0.0913 -0.1715
 2875TIP3    H130116   4.383   2.683   5.292  0.1324  1.4755 -1.0636
 2875TIP3    H230117   4.486   2.592   5.357 -1.9903 -0.1667  0.0682
 2876TIP3   OH230118   1.071   3.740   2.559  0.4142 -0.4629  0.8273
 2876TIP3    H130119   1.110   3.739   2.646 -0.4313  0.5155  1.2156
 2876TIP3    H230120   1.116   3.811   2.513 -0.4614  0.2642  1.0792
 2877TIP3   OH230121   6.266   2.792  14.082  0.0693  0.1442 -0.1151
 2877TIP3    H130122   6.333   2.826  14.023  0.1844  0.8090  0.4015
 2877TIP3    H230123   6.249   2.863  14.143 -1.0197 -0.0600 -0.1652
 2878TIP3   OH230124   3.874   2.673  13.021  0.0443 -0.4220  0.0977
 2878TIP3    H130125   3.828   2.711  13.096 -0.8280 -0.3175 -0.4771
 2878TIP3    H230126   3.841   2.723  12.946  3.2675  1.6911 -0.0366
 2879TIP3   OH230127   2.162   0.457  13.216 -0.8727 -0.7124  0.3299
 2879TIP3    H130128   2.068   0.451  13.202 -0.8000  0.8729 -0.9767
 2879TIP3    H230129   2.173   0.530  13.276 -0.4938 -1.1179  0.7579
 2880TIP3   OH230130   0.754   6.761  16.161 -0.1344  0.2062  0.3275
 2880TIP3    H130131   0.676   6.815  16.165 -0.3955  0.0624 -2.0856
 2880TIP3    H230132   0.771   6.750  16.068  3.5135  1.3036  0.7958
 2881TIP3   OH230133   1.136   0.340  12.240  0.3443  0.1351 -0.2068
 2881TIP3    H130134   1.081   0.383  12.175 -1.1096 -0.5203  0.5589
 2881TIP3    H230135   1.146   0.405  12.310  0.0773  0.0595 -0.0980
 2882TIP3   OH230136   0.457   1.474   6.506 -0.0292 -0.1564  0.1608
 2882TIP3    H130137   0.475   1.568   6.510 -0.6867 -0.0864  2.2313
 2882TIP3    H230138   0.445   1.448   6.597  1.3343 -2.5112 -0.2854
 2883TIP3   OH230139   4.281   0.531   4.198 -0.0795 -0.3409 -0.2261
 2883TIP3    H130140   4.272   0.507   4.290 -1.0282  0.2626 -0.1634
 2883TIP3    H230141   4.337   0.463   4.161 -1.5710 -1.8770  0.2793
 2884TIP3   OH230142   6.173   1.842  14.322  0.2329  0.3889 -0.4559
 2884TIP3    H130143   6.169   1.937  14.330  0.6866  0.3574  0.1814
 2884TIP3    H230144   6.239   1.826  14.255  1.3833  0.4834  0.6403
 2885TIP3   OH230145   3.111   4.302   4.261 -0.0991 -0.5402 -0.3027
 2885TIP3    H130146   3.132   4.384   4.307 -2.9678  0.3678 -0.4780
 2885TIP3    H230147   3.159   4.308   4.178 -1.5848  1.8050 -1.0463
 2886TIP3   OH230148   1.067   6.654  16.321 -0.1958 -0.0048  0.1036
 2886TIP3    H130149   1.029   6.610  16.246  0.1737  0.7294 -0.5211
 2886TIP3    H230150   1.060   6.747  16.301 -1.9834  0.2694  1.9132
 2887TIP3   OH230151   5.323   1.760   1.499  0.1538  0.1080 -0.3397
 2887TIP3    H130152   5.273   1.712   1.565  1.4193  0.4757  0.9089
 2887TIP3    H230153   5.324   1.851   1.531 -0.3203  0.5414 -1.5334
 2888TIP3   OH230154   2.143   0.341  16.507  0.2528  0.4315  1.0727
 2888TIP3    H130155   2.072   0.392  16.468  0.3565 -0.0791  0.2114
 2888TIP3    H230156   2.223   0.378  16.471  0.3086 -0.6480  0.0617
 2889TIP3   OH230157   5.159   0.116   5.709  0.4295 -0.3537 -0.6684
 2889TIP3    H130158   5.246   0.107   5.672  0.5639  1.2063 -0.7521
 2889TIP3    H230159   5.160   0.199   5.756 -0.8530 -0.5651 -0.2201
 2890TIP3   OH230160   5.728   5.466  17.245  0.0335 -0.2555 -0.1682
 2890TIP3    H130161   5.730   5.502  17.157  0.7085  0.1691  0.0238
 2890TIP3    H230162   5.773   5.531  17.299 -0.3310 -0.5379  0.4789
 2891TIP3   OH230163   5.030   5.571   0.856  0.3896 -0.7071  0.4187
 2891TIP3    H130164   5.042   5.587   0.949  1.3841 -2.0416  0.5429
 2891TIP3    H230165   5.119   5.561   0.822  0.1147  1.3353 -0.9793
 2892TIP3   OH230166   5.253   3.154  17.092  0.1062 -0.2900  0.0050
 2892TIP3    H130167   5.304   3.215  17.146  0.7764 -2.3246  1.7309
 2892TIP3    H230168   5.243   3.076  17.147 -2.4810 -0.9762 -1.3879
 2893TIP3   OH230169   2.123   2.712  15.423 -1.0191 -0.1111 -0.3246
 2893TIP3    H130170   2.037   2.682  15.394 -1.8386  1.2272  0.7047
 2893TIP3    H230171   2.180   2.635  15.412 -2.5514 -1.3057 -0.0184
 2894TIP3   OH230172   1.147   0.525  12.432 -0.1247 -0.6219 -0.0871
 2894TIP3    H130173   1.207   0.566  12.493  0.5861  0.3537 -1.4004
 2894TIP3    H230174   1.061   0.530  12.475  0.0744  1.5678  0.1280
 2895TIP3   OH230175   2.086   3.730   2.040 -0.2361 -0.1610  0.4664
 2895TIP3    H130176   2.179   3.745   2.057 -0.3946  0.6145  0.6969
 2895TIP3    H230177   2.065   3.788   1.967 -0.6125 -0.0848  0.6325
 2896TIP3   OH230178   6.335   2.263  14.747  0.2232 -0.3874 -0.0998
 2896TIP3    H130179   6.291   2.288  14.828  0.0910 -3.3167  0.7675
 2896TIP3    H230180   6.423   2.301  14.754 -0.9989  2.5637 -0.3049
 2897TIP3   OH230181   1.823   2.940  11.189  0.4403 -0.5832 -0.2525
 2897TIP3    H130182   1.891   2.956  11.123  1.1492  0.2313  0.6617
 2897TIP3    H230183   1.816   3.023  11.236 -1.5845 -0.4782 -0.6898
 2898TIP3   OH230184   6.105   0.305   3.765  0.1225 -0.2607  0.1638
 2898TIP3    H130185   6.080   0.260   3.846  1.0237  1.4932  1.4540
 2898TIP3    H230186   6.026   0.353   3.738 -0.3025 -1.1741 -0.2324
 2899TIP3   OH230187   3.767   1.201  13.879 -0.3933 -0.0481  0.3186
 2899TIP3    H130188   3.738   1.226  13.791  2.2832 -0.6598 -0.8022
 2899TIP3    H230189   3.851   1.156  13.865 -1.1709 -2.5126  2.9595
 2900TIP3   OH230190   6.709   5.641  16.315  0.0934  0.1185  0.1037
 2900TIP3    H130191   6.764   5.573  16.355 -2.8605 -1.0808  2.2762
 2900TIP3    H230192   6.629   5.595  16.290 -1.1006  2.3958 -0.3569
 2901TIP3   OH230193   0.933   1.755   1.169  0.3034  0.3584  0.2819
 2901TIP3    H130194   0.987   1.682   1.139  0.7600  0.1606  1.5362
 2901TIP3    H230195   0.944   1.755   1.264 -0.6584  1.3058  0.4038
 2902TIP3   OH230196   0.927   2.964  12.600 -0.0070  1.3356  0.0655
 2902TIP3    H130197   0.887   2.886  12.638 -0.2686  0.4066 -2.0570
 2902TIP3    H230198   0.970   3.007  12.674 -0.5730 -0.3749  1.4228
 2903TIP3   OH230199   4.305   3.044   2.529 -0.0212 -0.1829 -0.3347
 2903TIP3    H130200   4.276   2.981   2.463  0.9149 -0.4281 -0.5200
 2903TIP3    H230201   4.253   3.122   2.512  0.9002  0.0922 -2.0163
 2904TIP3   OH230202   2.733   4.455  13.373 -0.5744 -0.5774  0.2595
 2904TIP3    H130203   2.735   4.478  13.465  0.0516  0.8621 -0.1092
 2904TIP3    H230204   2.705   4.535  13.328  0.6320 -0.8094 -0.9401
 2905TIP3   OH230205   6.411   1.958   4.527 -0.4966  0.2820 -0.0456
 2905TIP3    H130206   6.468   1.887   4.499 -2.5626 -1.6959  0.6090
 2905TIP3    H230207   6.378   1.995   4.445  0.2325  0.2055 -0.3782
 2906TIP3   OH230208   3.561   1.970  16.849  0.1244  0.5246 -0.5211
 2906TIP3    H130209   3.546   2.023  16.771  3.0770 -0.6226 -1.9778
 2906TIP3    H230210   3.611   2.027  16.908  0.4944  0.4374 -0.7463
 2907TIP3   OH230211   1.933   5.494   2.805  0.0742 -0.1631  0.2877
 2907TIP3    H130212   1.844   5.473   2.776  0.7916 -0.8188 -1.4964
 2907TIP3    H230213   1.988   5.426   2.766  1.3751  0.2152  1.4021
 2908TIP3   OH230214   2.431   2.833   5.011 -0.3741  0.0619 -0.2201
 2908TIP3    H130215   2.402   2.746   4.984 -0.2282 -0.6952  2.0433
 2908TIP3    H230216   2.525   2.824   5.024 -0.8472 -0.3378  3.2853
 2909TIP3   OH230217   6.092   6.219   1.404  0.4429  0.1736  0.0887
 2909TIP3    H130218   6.013   6.236   1.456  0.0723  0.0311 -0.4211
 2909TIP3    H230219   6.100   6.124   1.404  1.9227  0.2868  2.0668
 2910TIP3   OH230220   2.396   2.414  11.608 -0.0644 -0.2556  0.0505
 2910TIP3    H130221   2.436   2.466  11.538  2.7137 -0.4767  1.4061
 2910TIP3    H230222   2.376   2.476  11.677  1.0484 -0.6111  0.7085
 2911TIP3   OH230223   0.122   4.740   0.103  0.5376 -0.4791 -0.3706
 2911TIP3    H130224   0.127   4.832   0.076  2.8305 -0.2510  0.7177
 2911TIP3    H230225   0.072   4.697   0.034  0.0368  1.4586 -1.2394
 2912TIP3   OH230226   0.433   0.631  14.984 -0.5512  0.0240  0.0370
 2912TIP3    H130227   0.440   0.692  14.910  0.0353 -0.6838 -0.4972
 2912TIP3    H230228   0.523   0.600  14.998 -0.5686  0.5675  1.4044
 2913TIP3   OH230229   5.324   6.495   4.632 -0.2174 -0.1530  0.0046
 2913TIP3    H130230   5.378   6.571   4.610 -2.8930  1.6776 -0.5525
 2913TIP3    H230231   5.291   6.464   4.547 -3.2088  1.2578  0.5776
 2914TIP3   OH230232   1.594   1.166  14.712  0.1354 -0.3897  0.2212
 2914TIP3    H130233   1.543   1.226  14.658 -0.2493 -2.4194 -1.7310
 2914TIP3    H230234   1.528   1.115  14.760  0.3309 -1.6944 -0.8545
 2915TIP3   OH230235   2.898   6.427   6.133 -0.0144  0.3453  0.3255
 2915TIP3    H130236   2.955   6.353   6.153 -1.6577 -0.8538  0.7227
 2915TIP3    H230237   2.907   6.485   6.208  0.9174  0.3069  0.2444
 2916TIP3   OH230238   5.527   3.211  14.930 -0.3567  0.4231  0.6053
 2916TIP3    H130239   5.499   3.249  15.013  1.3682  0.7346  1.0505
 2916TIP3    H230240   5.565   3.126  14.954 -2.2814 -0.7046 -0.1656
 2917TIP3   OH230241   2.864   0.553   3.926  0.0965  0.0592  0.0606
 2917TIP3    H130242   2.795   0.558   3.860 -0.1471  0.8398  0.3741
 2917TIP3    H230243   2.932   0.498   3.886  0.3041  1.1855 -1.1642
 2918TIP3   OH230244   4.254   1.024   2.236  0.0102 -0.1351  0.2540
 2918TIP3    H130245   4.276   1.065   2.320  0.3053  2.7921 -1.1748
 2918TIP3    H230246   4.171   1.065   2.210 -0.3214 -1.3601 -0.6451
 2919TIP3   OH230247   3.421   6.683  13.816 -0.4003 -0.3933  0.6319
 2919TIP3    H130248   3.497   6.629  13.791 -0.4746 -0.5131  0.6647
 2919TIP3    H230249   3.396   6.727  13.735 -1.4000 -1.7139  0.1997
 2920TIP3   OH230250   2.804   4.029   4.682 -0.0268  0.1159  0.7096
 2920TIP3    H130251   2.868   4.097   4.662  0.8647 -0.8989  0.0773
 2920TIP3    H230252   2.750   4.023   4.603 -0.4093  0.4091  0.9435
 2921TIP3   OH230253   2.255   6.604  15.789 -0.0356  0.1347 -0.3756
 2921TIP3    H130254   2.272   6.695  15.813  0.8000 -0.0691 -0.1737
 2921TIP3    H230255   2.341   6.567  15.772 -0.3547 -0.6855 -0.2270
 2922TIP3   OH230256   3.467   4.622  11.543  0.0531  0.3946  0.0428
 2922TIP3    H130257   3.490   4.541  11.589  2.7979  1.1352  0.0299
 2922TIP3    H230258   3.498   4.609  11.454  2.4491  2.2654  0.5635
 2923TIP3   OH230259   2.661   5.361   5.913 -0.0556 -0.7175  0.3041
 2923TIP3    H130260   2.609   5.439   5.896  0.9458  0.2328  1.5307
 2923TIP3    H230261   2.705   5.342   5.830  0.5508  0.6625  0.3095
 2924TIP3   OH230262   1.999   6.712   0.682 -0.2236  0.2652 -0.2041
 2924TIP3    H130263   1.917   6.731   0.728 -0.2656  0.9579 -0.5601
 2924TIP3    H230264   1.995   6.618   0.664 -0.0926 -0.0810  1.4455
 2925TIP3   OH230265   6.660   6.446   5.678  0.2511  0.2380 -0.1130
 2925TIP3    H130266   6.619   6.531   5.696  0.7306  0.2992  0.7202
 2925TIP3    H230267   6.712   6.427   5.757 -0.2029 -1.0404 -0.1125
 2926TIP3   OH230268   2.605   1.608   5.530 -0.2073 -0.0422 -0.1218
 2926TIP3    H130269   2.570   1.685   5.484  1.5933  1.5419  1.0927
 2926TIP3    H230270   2.658   1.563   5.465 -0.4383  0.3120 -0.5585
 2927TIP3   OH230271   1.014   4.597  14.747  0.3333 -0.8325  0.3409
 2927TIP3    H130272   1.068   4.551  14.812  0.0753 -1.8273 -0.1442
 2927TIP3    H230273   1.078   4.639  14.690  0.5535  1.0465  1.9382
 2928TIP3   OH230274   1.579   5.112   0.093 -0.0852  0.1571  0.2588
 2928TIP3    H130275   1.541   5.037   0.047  1.8181 -1.2174  0.8666
 2928TIP3    H230276   1.649   5.074   0.147  0.6087  2.3091  0.9158
 2929TIP3   OH230277   6.816   4.626   2.592  0.0449 -0.0245  0.5626
 2929TIP3    H130278   6.877   4.695   2.566  0.4445 -0.6373 -0.1329
 2929TIP3    H230279   6.730   4.666   2.583  0.1797 -0.1102 -1.4317
 2930TIP3   OH230280   2.557   2.651   3.586  0.3357 -0.0868 -0.1556
 2930TIP3    H130281   2.638   2.632   3.634  1.1628  0.9672 -1.1062
 2930TIP3    H230282   2.526   2.733   3.624 -1.8035 -1.8443  2.1084
 2931TIP3   OH230283   0.066   1.469   0.797 -0.3018 -0.3917  0.4222
 2931TIP3    H130284  -0.002   1.414   0.837 -1.5390  0.1511 -0.8847
 2931TIP3    H230285   0.148   1.436   0.834 -1.2322 -1.3635  1.6810
 2932TIP3   OH230286   1.344   5.481  14.188 -0.1274  0.5756 -0.1258
 2932TIP3    H130287   1.347   5.562  14.138 -4.4997  0.6261 -0.5105
 2932TIP3    H230288   1.296   5.504  14.268 -1.3254 -1.5638 -0.1797
 2933TIP3   OH230289   5.345   3.398   0.925  0.0848  0.5154 -0.4231
 2933TIP3    H130290   5.265   3.448   0.942 -0.3278  0.1241 -1.2026
 2933TIP3    H230291   5.344   3.382   0.831  0.1506 -1.0603 -0.1710
 2934TIP3   OH230292   2.751   0.391   4.134  0.6164 -0.0227  0.3639
 2934TIP3    H130293   2.773   0.420   4.045  0.7867 -1.8054 -0.1908
 2934TIP3    H230294   2.657   0.406   4.142  0.4458 -0.6458 -0.4238
 2935TIP3   OH230295   2.727   5.710  16.974  0.1223  1.0857 -0.3128
 2935TIP3    H130296   2.741   5.661  16.893 -0.7328 -1.4198  0.9919
 2935TIP3    H230297   2.690   5.793  16.946 -0.0607  0.2993 -2.5059
 2936TIP3   OH230298   4.647   1.177  11.924  0.3618 -0.0718  0.0625
 2936TIP3    H130299   4.626   1.270  11.926  0.7330  0.0294 -0.4536
 2936TIP3    H230300   4.724   1.169  11.980  0.2601 -0.0869  0.1997
 2937TIP3   OH230301   3.703   3.429   4.121  0.4680  0.2014  0.2623
 2937TIP3    H130302   3.742   3.439   4.207  2.2429 -0.2557 -0.4778
 2937TIP3    H230303   3.664   3.341   4.123  2.1239 -0.5468 -0.0320
 2938TIP3   OH230304   1.712   0.175  16.988  0.3925 -0.3813  0.1245
 2938TIP3    H130305   1.719   0.188  17.082  1.0184  2.3412 -0.2355
 2938TIP3    H230306   1.803   0.173  16.957  0.1805  0.6378 -0.6145
 2939TIP3   OH230307   5.840   1.828  10.595  0.0840 -0.2423 -0.1252
 2939TIP3    H130308   5.749   1.801  10.584  0.5840 -1.3504 -1.7514
 2939TIP3    H230309   5.883   1.753  10.637  0.5000 -0.1905 -0.4519
 2940TIP3   OH230310   5.811   3.349   6.273  0.7640 -0.1289  0.3122
 2940TIP3    H130311   5.840   3.378   6.187  0.5184  0.0578  0.2887
 2940TIP3    H230312   5.847   3.261   6.284  1.0528 -0.0282  0.1494
 2941TIP3   OH230313   6.296   2.513  13.174  0.4299 -0.1255 -0.5704
 2941TIP3    H130314   6.325   2.546  13.089  3.7426  0.8739  0.8873
 2941TIP3    H230315   6.376   2.505  13.226 -1.2321 -2.9690  1.7191
 2942TIP3   OH230316   5.131   6.140  16.863  0.4067  0.2892  0.2797
 2942TIP3    H130317   5.103   6.083  16.935  1.8978  0.3583  0.9227
 2942TIP3    H230318   5.129   6.084  16.785 -1.3652  0.2575  0.3192
 2943TIP3   OH230319   1.950   1.365  15.518 -0.3710 -0.0154  0.7813
 2943TIP3    H130320   2.030   1.334  15.561 -0.0292  0.7602  0.7065
 2943TIP3    H230321   1.887   1.376  15.589 -0.0808  0.4144  0.9665
 2944TIP3   OH230322   1.672   0.240  15.086 -0.2968 -0.1650  0.2530
 2944TIP3    H130323   1.698   0.290  15.163  0.9144  0.0286 -0.2727
 2944TIP3    H230324   1.609   0.297  15.041  0.4065  0.5068  0.1220
 2945TIP3   OH230325   3.175   5.223  11.625  0.2013 -0.3867  0.4069
 2945TIP3    H130326   3.267   5.249  11.638  0.3401 -1.0394  0.7518
 2945TIP3    H230327   3.165   5.220  11.530  0.5157 -0.2230  0.3652
 2946TIP3   OH230328   3.899   5.237  17.059 -0.5425 -0.0536  0.2555
 2946TIP3    H130329   3.918   5.157  17.010 -0.1849  0.1058  0.1305
 2946TIP3    H230330   3.818   5.218  17.106  0.7814 -1.3532  2.1026
 2947TIP3   OH230331   2.514   2.230   2.829  0.1696  0.0134  0.6936
 2947TIP3    H130332   2.522   2.322   2.803  0.6153 -0.9244 -2.7133
 2947TIP3    H230333   2.603   2.196   2.824 -0.0207 -0.6586  1.7819
 2948TIP3   OH230334   4.426   5.156   6.525  0.1967  0.2646  0.1481
 2948TIP3    H130335   4.515   5.133   6.550  0.3666  0.0394 -0.6525
 2948TIP3    H230336   4.377   5.075   6.533  0.0614  0.3854  0.5736
 2949TIP3   OH230337   3.963   4.959  12.900  0.4503 -0.4126 -0.2955
 2949TIP3    H130338   3.938   4.882  12.849 -2.1327  0.9857 -1.2522
 2949TIP3    H230339   3.882   4.987  12.942  1.0882  2.3917 -0.8325
 2950TIP3   OH230340   2.945   1.818   3.977 -0.3948 -0.9870  0.0441
 2950TIP3    H130341   2.857   1.836   4.012  0.5432  2.2713  0.8259
 2950TIP3    H230342   2.998   1.802   4.055  1.1552  3.8176  0.0904
 2951TIP3   OH230343   6.650   2.025   2.562  0.5714 -0.5812  0.4018
 2951TIP3    H130344   6.676   1.933   2.566 -1.3109 -1.2074 -1.1085
 2951TIP3    H230345   6.558   2.026   2.587  1.1313  1.2129  2.6155
 2952TIP3   OH230346   6.472   5.897   1.306  0.5266 -0.6062 -0.4994
 2952TIP3    H130347   6.516   5.867   1.226  1.3030 -0.8261  0.0006
 2952TIP3    H230348   6.506   5.839   1.374 -0.5059 -0.7416 -0.0953
 2953TIP3   OH230349   6.496   4.127   0.385  0.1891 -0.0394 -0.2672
 2953TIP3    H130350   6.577   4.097   0.425  0.1405  0.7919  0.4511
 2953TIP3    H230351   6.515   4.128   0.291  0.9857  0.0937 -0.1058
 2954TIP3   OH230352   0.788   2.735  14.180  0.1122  0.2321 -0.1209
 2954TIP3    H130353   0.883   2.727  14.182  0.0365 -0.6545  0.2441
 2954TIP3    H230354   0.763   2.749  14.272 -0.1293  0.2253 -0.1858
 2955TIP3   OH230355   3.717   3.806  13.300 -0.1353 -0.4763  0.1405
 2955TIP3    H130356   3.655   3.798  13.228 -0.8816 -0.6887  0.8036
 2955TIP3    H230357   3.708   3.897  13.330 -1.7256 -1.0882  1.6486
 2956TIP3   OH230358   1.533   6.322   4.384  0.5478  0.2022 -0.3040
 2956TIP3    H130359   1.453   6.310   4.435  0.5786  0.4241 -0.1987
 2956TIP3    H230360   1.510   6.295   4.295  0.3492  0.2908 -0.2790
 2957TIP3   OH230361   2.570   0.349  11.860 -0.4022  0.0933 -0.4891
 2957TIP3    H130362   2.561   0.294  11.782 -1.2434  1.1912 -1.1863
 2957TIP3    H230363   2.487   0.397  11.865 -0.4597 -0.1918  1.2521
 2958TIP3   OH230364   3.540   6.112  14.085 -0.3622  0.0862 -0.2439
 2958TIP3    H130365   3.517   6.198  14.049  1.3996  0.1533 -1.2668
 2958TIP3    H230366   3.588   6.132  14.165  1.2346  0.0905 -1.2000
 2959TIP3   OH230367   6.567   5.104   3.666 -0.1256 -0.1458  0.0732
 2959TIP3    H130368   6.568   5.200   3.666  0.2093 -0.1301  2.4895
 2959TIP3    H230369   6.479   5.081   3.633 -1.1018  1.0242  1.7876
 2960TIP3   OH230370   5.782   3.792   1.486 -0.5409  0.3538  0.1830
 2960TIP3    H130371   5.841   3.723   1.516 -0.1214  1.3595  1.7274
 2960TIP3    H230372   5.838   3.867   1.469 -1.4772  1.8312  3.2184
 2961TIP3   OH230373   1.621   5.931  14.520 -0.5980  0.2919  0.4438
 2961TIP3    H130374   1.635   5.862  14.455 -0.1686 -0.6120  1.4759
 2961TIP3    H230375   1.531   5.919  14.549 -1.4670  2.0186 -1.4961
 2962TIP3   OH230376   3.038   1.939   6.990 -0.4520 -0.1091 -0.2772
 2962TIP3    H130377   3.131   1.964   6.993 -0.5843  0.4769 -0.9138
 2962TIP3    H230378   3.039   1.849   6.958 -0.1818  0.4269 -1.8154
 2963TIP3   OH230379   2.838   0.988   3.248 -0.2438 -0.1985  0.0480
 2963TIP3    H130380   2.782   0.987   3.170  1.3332  0.4040 -1.1178
 2963TIP3    H230381   2.852   1.081   3.267  0.6627 -0.3328  0.0848
 2964TIP3   OH230382   3.665   5.129   2.781 -0.4317 -0.1989  0.1802
 2964TIP3    H130383   3.652   5.037   2.760  0.6380 -1.2579  3.7838
 2964TIP3    H230384   3.732   5.159   2.719  0.2045 -2.2248 -0.1355
 2965TIP3   OH230385   5.009   0.946   4.446 -0.0947 -0.5714  0.4229
 2965TIP3    H130386   5.046   0.877   4.500 -0.8339 -0.1501  1.4977
 2965TIP3    H230387   4.961   1.001   4.507  2.5629  2.3576  0.0101
 2966TIP3   OH230388   2.065   3.064  12.243  0.0582 -0.4779  0.3970
 2966TIP3    H130389   2.055   3.094  12.153 -1.4825 -0.2692  0.6330
 2966TIP3    H230390   2.109   2.979  12.235  1.2987  0.2299 -0.4540
 2967TIP3   OH230391   1.526   3.602   3.775  0.2601  0.1334 -0.5295
 2967TIP3    H130392   1.611   3.619   3.735 -0.0219 -1.5229 -1.9080
 2967TIP3    H230393   1.474   3.562   3.705 -1.3476  0.2419  0.5586
 2968TIP3   OH230394   4.633   4.959  15.176  0.2548 -0.0150  0.0655
 2968TIP3    H130395   4.570   5.029  15.158  0.3302 -0.1469 -0.7113
 2968TIP3    H230396   4.698   5.000  15.233  0.3621  0.5874 -0.4837
 2969TIP3   OH230397   3.168   3.707   1.866  0.4417  0.1144 -0.7504
 2969TIP3    H130398   3.193   3.707   1.773  0.4205 -0.7622 -0.7557
 2969TIP3    H230399   3.193   3.620   1.897 -1.1551 -0.2146 -0.3554
 2970TIP3   OH230400   4.188   4.170  14.666  0.2045  0.2199 -0.3780
 2970TIP3    H130401   4.265   4.120  14.639  0.1670  0.7796 -1.5692
 2970TIP3    H230402   4.145   4.195  14.584 -1.2321 -0.0539  0.2750
 2971TIP3   OH230403   3.748   0.035  12.049  0.1262  0.2903 -0.8561
 2971TIP3    H130404   3.829  -0.007  12.079 -0.2473 -1.2406 -1.9345
 2971TIP3    H230405   3.757   0.038  11.953 -0.9208  0.4836 -0.9499
 2972TIP3   OH230406   3.282   4.691  12.681 -0.4028  0.1466  0.0888
 2972TIP3    H130407   3.331   4.677  12.600  1.9904  0.9012  1.3447
 2972TIP3    H230408   3.226   4.766  12.663 -0.4963 -0.2049 -1.1133
 2973TIP3   OH230409   0.990   2.337   2.452  0.2820  0.7772 -0.1984
 2973TIP3    H130410   1.048   2.262   2.435  0.0230  0.1872  1.4580
 2973TIP3    H230411   0.942   2.350   2.370  0.8911 -0.3767 -0.7403
 2974TIP3   OH230412   4.213   6.619  13.350 -0.2537 -0.3650 -0.4309
 2974TIP3    H130413   4.201   6.569  13.430  1.8466 -2.6908 -1.4958
 2974TIP3    H230414   4.177   6.562  13.281 -0.9840  1.1054 -1.2854
 2975TIP3   OH230415   3.257   3.606  11.970  0.0850  0.4794 -0.8679
 2975TIP3    H130416   3.299   3.575  12.050 -0.9395 -1.0865 -0.9416
 2975TIP3    H230417   3.324   3.662  11.929  0.6228  1.2789  1.0413
 2976TIP3   OH230418   0.145   5.143   1.277  0.0498 -0.6241  0.0844
 2976TIP3    H130419   0.149   5.233   1.243  0.3910 -0.2899  0.9973
 2976TIP3    H230420   0.221   5.100   1.239 -0.3958 -0.6702 -0.7631
 2977TIP3   OH230421   3.583   5.556  14.673 -0.5020 -0.1577 -0.2832
 2977TIP3    H130422   3.551   5.481  14.623 -0.5780  0.5308 -1.2887
 2977TIP3    H230423   3.506   5.589  14.719 -0.6160 -0.2920 -0.3752
 2978TIP3   OH230424   1.250   1.317   2.623  0.1470  0.0967 -0.1842
 2978TIP3    H130425   1.291   1.357   2.700 -0.9687 -0.5936  0.7788
 2978TIP3    H230426   1.195   1.387   2.587 -0.4290 -0.0075  0.4731
 2979TIP3   OH230427   1.926   1.647   1.825 -0.3302 -0.0392 -0.0088
 2979TIP3    H130428   2.009   1.681   1.791  0.0676 -1.4079 -0.4468
 2979TIP3    H230429   1.949   1.562   1.864 -1.0415  0.8071  2.3176
 2980TIP3   OH230430   0.814   3.565   2.104 -0.2247 -0.1736 -0.2973
 2980TIP3    H130431   0.871   3.587   2.031  0.6843  0.4018  0.5727
 2980TIP3    H230432   0.862   3.497   2.152 -1.1809 -1.1382 -0.6908
 2981TIP3   OH230433   0.197   2.183   4.055 -0.2470 -0.2962 -0.0104
 2981TIP3    H130434   0.278   2.163   4.103  0.4404  1.1743 -0.5278
 2981TIP3    H230435   0.128   2.148   4.110  0.7197 -1.2106  0.6471
 2982TIP3   OH230436   1.670   0.526  17.042 -0.3385  0.5344  0.0425
 2982TIP3    H130437   1.589   0.503  16.996 -0.3865  0.4072  0.1917
 2982TIP3    H230438   1.641   0.557  17.128 -0.1590 -0.6575  0.5393
 2983TIP3   OH230439   1.573   4.667   5.395 -0.0761 -0.0118  0.4362
 2983TIP3    H130440   1.642   4.714   5.347 -0.6365  1.6330  1.1914
 2983TIP3    H230441   1.619   4.595   5.438  1.0553  0.5947  0.2782
 2984TIP3   OH230442   1.082   2.724   5.433 -0.0756  0.1857  0.1797
 2984TIP3    H130443   1.017   2.749   5.368 -0.2726  0.7774  0.6014
 2984TIP3    H230444   1.039   2.736   5.517 -0.4150 -2.2553  0.4013
 2985TIP3   OH230445   2.338   3.791   0.445  0.2851 -1.0271 -0.3178
 2985TIP3    H130446   2.376   3.755   0.365  0.7954  0.0576 -0.5783
 2985TIP3    H230447   2.254   3.747   0.454  0.5608 -1.7133 -1.0366
 2986TIP3   OH230448   3.065   2.554  13.606  0.0890 -0.3694 -0.1977
 2986TIP3    H130449   3.060   2.473  13.557 -1.1702 -0.3996 -0.0406
 2986TIP3    H230450   2.995   2.547  13.671  0.8879  0.2261  0.7462
 2987TIP3   OH230451   5.705   2.159  14.367  0.2202 -0.0222 -0.1912
 2987TIP3    H130452   5.794   2.159  14.331 -0.0478 -0.4914 -0.8795
 2987TIP3    H230453   5.649   2.145  14.290 -0.3300 -1.8445  0.5176
 2988TIP3   OH230454   6.443   4.361   5.576 -0.0941  0.0878  0.2518
 2988TIP3    H130455   6.352   4.336   5.561 -0.9708  1.8197  2.5590
 2988TIP3    H230456   6.484   4.281   5.610 -0.4589 -0.9993 -1.7840
 2989TIP3   OH230457   3.963   3.740   1.393 -0.0654  0.2808 -0.3474
 2989TIP3    H130458   3.916   3.800   1.335 -0.9352 -1.3837 -1.3862
 2989TIP3    H230459   4.053   3.739   1.359 -0.5875 -0.7386 -1.7221
 2990TIP3   OH230460   6.575   1.657  13.383 -0.0027 -0.1845 -0.6691
 2990TIP3    H130461   6.552   1.620  13.468 -0.3285 -0.3032 -0.8088
 2990TIP3    H230462   6.657   1.615  13.360 -0.2722 -0.6777 -0.7379
 2991TIP3   OH230463   4.562   4.614  13.730 -0.6942  0.4068  0.3922
 2991TIP3    H130464   4.560   4.576  13.818  1.4390  0.2141  0.3796
 2991TIP3    H230465   4.481   4.584  13.690 -0.4643 -1.7010  1.4051
 2992TIP3   OH230466   1.163   3.288  10.758  0.2167 -0.0783  0.1619
 2992TIP3    H130467   1.136   3.352  10.692  0.1641 -0.9417 -0.6586
 2992TIP3    H230468   1.258   3.282  10.748 -0.0238 -1.8277 -1.3383
 2993TIP3   OH230469   2.358   3.537   1.066 -0.1825  0.0103  0.0499
 2993TIP3    H130470   2.447   3.502   1.063 -0.4064 -0.7768  1.9496
 2993TIP3    H230471   2.302   3.459   1.061 -0.7147  0.2325  2.2092
 2994TIP3   OH230472   5.338   5.539   1.600 -0.4345  0.3336 -0.0565
 2994TIP3    H130473   5.364   5.573   1.514  0.0387  0.2733  0.0571
 2994TIP3    H230474   5.319   5.446   1.585 -0.5230  0.3646 -0.1321
 2995TIP3   OH230475   4.974   1.210   2.294 -0.6535 -0.0566  0.0157
 2995TIP3    H130476   4.963   1.184   2.203 -1.9295  0.8868 -0.1132
 2995TIP3    H230477   4.905   1.274   2.309  0.2601  0.6493  1.3151
 2996TIP3   OH230478   5.643   6.506   5.159  0.0796  0.1497  0.4752
 2996TIP3    H130479   5.668   6.564   5.231 -0.4634 -1.2532  1.8303
 2996TIP3    H230480   5.548   6.500   5.165 -0.1183  1.0968 -1.2417
 2997TIP3   OH230481   2.636   2.460  16.096 -0.6630 -0.3818  0.0722
 2997TIP3    H130482   2.544   2.439  16.112  0.1940 -3.1378  1.7012
 2997TIP3    H230483   2.667   2.497  16.179  0.2341 -1.5229  0.2641
 2998TIP3   OH230484   3.846   2.909   0.852  0.1195  0.9784  0.3041
 2998TIP3    H130485   3.880   2.912   0.763 -0.5406 -1.1500 -0.0551
 2998TIP3    H230486   3.924   2.913   0.908  0.7750 -0.8458 -0.4422
 2999TIP3   OH230487   3.521   1.871  16.517  0.3174 -0.5566 -0.2218
 2999TIP3    H130488   3.458   1.892  16.448  1.4742  0.2897 -1.0404
 2999TIP3    H230489   3.508   1.939  16.583 -0.5615 -1.1758  0.2535
 3000TIP3   OH230490   4.942   0.902  17.127 -0.3875 -0.7135 -0.1994
 3000TIP3    H130491   4.995   0.979  17.110 -2.4377  1.3511  2.4337
 3000TIP3    H230492   4.870   0.907  17.064 -0.8021 -0.1726  0.3132
 3001TIP3   OH230493   5.595   6.818  12.924  0.4684  0.0641 -0.1606
 3001TIP3    H130494   5.660   6.747  12.930 -1.5282 -1.8657 -0.7036
 3001TIP3    H230495   5.554   6.805  12.838 -1.2431  0.7069  0.5527
 3002TIP3   OH230496   2.270   3.229  12.880  0.0365 -0.2212 -0.8038
 3002TIP3    H130497   2.242   3.243  12.971  2.2141  0.2794 -0.1531
 3002TIP3    H230498   2.192   3.198  12.835 -1.1753 -0.1672  1.1729
 3003TIP3   OH230499   4.745   6.200  13.392 -0.0718 -0.2808  0.3323
 3003TIP3    H130500   4.820   6.234  13.344  1.7552 -1.8782  1.9679
 3003TIP3    H230501   4.704   6.278  13.430  1.7893  0.4783  0.8572
 3004TIP3   OH230502   0.616   5.722   1.541 -0.3785  0.0986 -0.2922
 3004TIP3    H130503   0.701   5.678   1.532 -0.6569 -1.0746  2.4740
 3004TIP3    H230504   0.561   5.682   1.473  1.0453  0.3901 -1.6568
 3005TIP3   OH230505   0.097   5.342  12.142 -0.1586 -0.7118  0.9531
 3005TIP3    H130506   0.091   5.378  12.053  0.1510  0.5223  1.4303
 3005TIP3    H230507   0.063   5.252  12.133  0.1003 -0.6859 -0.4546
 3006TIP3   OH230508   6.455   0.691   6.076  0.6079  0.7912 -0.4677
 3006TIP3    H130509   6.422   0.648   5.997 -0.2750 -0.2961  0.4768
 3006TIP3    H230510   6.464   0.621   6.140  0.4943  1.7912  0.6653
 3007TIP3   OH230511   0.630   0.423   0.826  0.0633  0.1158 -0.5327
 3007TIP3    H130512   0.594   0.390   0.744  0.1137  1.4404 -1.1089
 3007TIP3    H230513   0.596   0.512   0.832  0.9096  0.3828  0.3647
 3008TIP3   OH230514   4.361   3.298  17.200  0.2269 -0.0892  0.1358
 3008TIP3    H130515   4.397   3.336  17.281  0.4531  1.7743 -0.7995
 3008TIP3    H230516   4.268   3.317  17.205  0.0212 -1.1976  0.5939
 3009TIP3   OH230517   1.442   4.436  15.729 -0.0310 -0.2549 -0.0474
 3009TIP3    H130518   1.434   4.527  15.700  1.1595 -0.0412  0.2742
 3009TIP3    H230519   1.423   4.440  15.823  0.0619 -0.3220 -0.0254
 3010TIP3   OH230520   4.291   2.098   0.216 -0.0785 -0.1277  0.8442
 3010TIP3    H130521   4.253   2.081   0.302 -0.4488 -0.0885  0.6889
 3010TIP3    H230522   4.225   2.150   0.170  0.1778 -0.0241  0.5871
 3011TIP3   OH230523   0.793   4.768   3.099  0.5433 -0.3516 -0.5635
 3011TIP3    H130524   0.850   4.691   3.090  0.5000 -0.3392 -0.9560
 3011TIP3    H230525   0.764   4.787   3.010 -0.5942 -0.7441 -0.2831
 3012TIP3   OH230526   1.545   2.659  17.189  0.1644  0.9588  0.3137
 3012TIP3    H130527   1.614   2.646  17.125 -0.9254  0.4894 -0.7864
 3012TIP3    H230528   1.544   2.579  17.241  0.3709  0.9202  0.2592
 3013TIP3   OH230529   4.429   1.324   2.180  0.2086  0.0228  0.1787
 3013TIP3    H130530   4.343   1.281   2.173 -0.1274  0.6156  0.6199
 3013TIP3    H230531   4.467   1.289   2.260 -0.6656  1.5956  1.3027
 3014TIP3   OH230532   2.719   6.795  12.832 -0.1295 -0.0592  0.0611
 3014TIP3    H130533   2.661   6.846  12.888  0.9505  2.1337 -0.7480
 3014TIP3    H230534   2.782   6.754  12.892  0.2168  1.1932  0.5609
 3015TIP3   OH230535   3.089   1.900  15.765  0.0406  0.1178 -0.3842
 3015TIP3    H130536   3.086   1.971  15.830  1.1896  1.5419 -1.8515
 3015TIP3    H230537   2.998   1.893  15.734  0.0492  1.4523 -0.7462
 3016TIP3   OH230538   6.117   0.827  11.742  0.0059  0.5507 -0.5735
 3016TIP3    H130539   6.032   0.792  11.769  1.4689 -0.5150  2.8320
 3016TIP3    H230540   6.133   0.788  11.656 -2.9477  0.8429 -1.3112
 3017TIP3   OH230541   0.686   4.721   1.675  0.1614 -0.4976  0.0808
 3017TIP3    H130542   0.619   4.691   1.613 -0.6660 -0.9256  1.1805
 3017TIP3    H230543   0.660   4.685   1.759  1.7837 -0.6651  0.5338
 3018TIP3   OH230544   4.963   5.118   1.902  0.0055 -0.3502  0.3753
 3018TIP3    H130545   4.975   5.208   1.932  1.6258  0.2493 -1.9433
 3018TIP3    H230546   4.882   5.089   1.944  0.7424  1.3167  3.1103
 3019TIP3   OH230547   3.768   5.068   0.016 -0.4388 -0.3475 -0.0613
 3019TIP3    H130548   3.692   5.118  -0.013 -0.0153 -1.8732 -4.1412
 3019TIP3    H230549   3.830   5.135   0.046 -1.8146  1.1866 -0.5553
 3020TIP3   OH230550   6.406   3.613  14.106  0.1179  0.5357  0.3003
 3020TIP3    H130551   6.407   3.575  14.018 -1.4001  1.2627 -0.0479
 3020TIP3    H230552   6.361   3.697  14.095  0.5698  0.9594  1.6409
 3021TIP3   OH230553   3.400   1.653   0.632 -0.4038 -0.1368  0.2198
 3021TIP3    H130554   3.468   1.686   0.691  0.0799 -0.1853 -0.2957
 3021TIP3    H230555   3.319   1.693   0.662 -0.0066  0.6025  0.3144
 3022TIP3   OH230556   2.927   1.829   3.686  0.4562  0.9354 -1.1976
 3022TIP3    H130557   3.021   1.847   3.675  0.3662  0.9042 -2.0589
 3022TIP3    H230558   2.915   1.821   3.781  1.6544 -0.7742 -1.1645
 3023TIP3   OH230559   2.005   1.624   0.000  0.3351 -0.3804  0.3272
 3023TIP3    H130560   1.986   1.532  -0.014 -1.1915 -0.2809  1.6371
 3023TIP3    H230561   2.071   1.645  -0.067 -1.6908 -1.5723 -2.1286
 3024TIP3   OH230562   5.520   2.562   6.220 -0.1544  0.0195 -0.1062
 3024TIP3    H130563   5.493   2.562   6.312 -0.4497  0.1677 -0.1906
 3024TIP3    H230564   5.616   2.563   6.223 -0.1278 -2.0614  0.1860
 3025TIP3   OH230565   1.123   6.715   2.477  0.6072 -0.0514  0.2146
 3025TIP3    H130566   1.028   6.700   2.479  0.4428  1.0039  0.7326
 3025TIP3    H230567   1.147   6.709   2.385  0.2302 -1.4718  0.1939
 3026TIP3   OH230568   6.464   6.648   5.397  0.1159 -0.0296 -0.4856
 3026TIP3    H130569   6.413   6.712   5.349 -2.0033 -0.6057  0.9470
 3026TIP3    H230570   6.529   6.700   5.445  0.4763  0.7538 -1.8064
 3027TIP3   OH230571   2.036   2.792   4.303 -0.5766 -1.3489 -0.1585
 3027TIP3    H130572   2.040   2.872   4.251 -1.5108 -2.0350 -1.3128
 3027TIP3    H230573   1.956   2.801   4.354  0.1447 -0.8457  0.8992
 3028TIP3   OH230574   5.002   3.709  16.828 -0.2920  0.6151  0.4161
 3028TIP3    H130575   4.966   3.624  16.804  0.7030  0.2996  0.0158
 3028TIP3    H230576   4.939   3.772  16.792  0.3186  0.1081 -1.6260
 3029TIP3   OH230577   3.880   4.739   2.705 -0.2505 -0.1606  0.3387
 3029TIP3    H130578   3.911   4.785   2.783  0.0119 -0.5197  0.4504
 3029TIP3    H230579   3.940   4.764   2.636  0.9551 -1.6761  0.7927
 3030TIP3   OH230580   3.045   4.600   5.017 -0.4923  0.0824  0.1717
 3030TIP3    H130581   2.952   4.588   5.036 -0.9428  0.9194 -1.3822
 3030TIP3    H230582   3.066   4.687   5.052 -0.5574  0.3163 -0.3558
 3031TIP3   OH230583   0.991   0.542   2.268  0.4911  0.3580  0.1656
 3031TIP3    H130584   1.068   0.529   2.213  1.1248 -1.0591  1.3402
 3031TIP3    H230585   0.939   0.608   2.222  2.3412  1.2442 -0.7165
 3032TIP3   OH230586   0.139   4.043  10.941  0.1310 -0.2145 -0.1450
 3032TIP3    H130587   0.097   4.004  10.864 -2.0446  2.8838 -0.6055
 3032TIP3    H230588   0.227   4.066  10.911 -0.4533  0.3113 -1.4806
 3033TIP3   OH230589   0.287   4.557  17.014 -0.2048  0.5962  0.4988
 3033TIP3    H130590   0.226   4.630  17.027 -1.6273 -0.5642  0.4444
 3033TIP3    H230591   0.330   4.547  17.099  1.3899  2.7125 -0.0202
 3034TIP3   OH230592   5.865   6.742  16.558  0.2371 -0.0813  0.6916
 3034TIP3    H130593   5.808   6.816  16.580 -0.2514 -0.1732 -0.2137
 3034TIP3    H230594   5.950   6.766  16.593  0.1339  1.0135  0.2121
 3035TIP3   OH230595   0.464   3.164   0.805  0.6118  0.1186  0.1019
 3035TIP3    H130596   0.488   3.106   0.877  1.1992 -0.4431 -0.5390
 3035TIP3    H230597   0.372   3.146   0.790 -0.3438  2.3971  2.6799
 3036TIP3   OH230598   5.818   1.570  15.547 -0.0961  0.0388 -0.5179
 3036TIP3    H130599   5.894   1.538  15.597 -0.8127 -0.9568 -0.0600
 3036TIP3    H230600   5.794   1.497  15.490 -0.5514  0.4542 -0.8654
 3037TIP3   OH230601   3.997   6.024  12.483 -0.5544 -0.1934 -0.1740
 3037TIP3    H130602   3.915   6.060  12.515  0.2396  0.4920  1.1418
 3037TIP3    H230603   4.065   6.072  12.531  0.5514 -2.4059  0.5593
 3038TIP3   OH230604   6.691   1.502  12.643  0.3075 -0.2784 -0.5095
 3038TIP3    H130605   6.727   1.586  12.672  1.2676 -0.8097 -0.1661
 3038TIP3    H230606   6.597   1.520  12.631  0.2424  0.4597  0.9577
 3039TIP3   OH230607   2.745   4.637   3.466 -0.1890  0.1593 -0.3969
 3039TIP3    H130608   2.664   4.611   3.508 -0.4082  1.1758 -0.1760
 3039TIP3    H230609   2.757   4.729   3.491  1.9610 -0.4719  1.0550
 3040TIP3   OH230610   1.848   1.735   2.168  0.1103  0.1811 -0.1292
 3040TIP3    H130611   1.779   1.669   2.170 -0.1833  0.4949  0.0643
 3040TIP3    H230612   1.802   1.819   2.170  0.4819  0.3950 -0.3830
 3041TIP3   OH230613   0.558   0.723   5.666  0.0738 -0.3909  0.6494
 3041TIP3    H130614   0.595   0.811   5.659 -1.4148  0.3551  1.8205
 3041TIP3    H230615   0.520   0.706   5.580  0.8319 -0.1100  0.2570
 3042TIP3   OH230616   5.237   1.592  13.038 -0.2227 -0.6063  0.2272
 3042TIP3    H130617   5.198   1.562  13.120  0.2909 -1.8780  0.0238
 3042TIP3    H230618   5.318   1.636  13.065 -0.8217  0.3377  0.5085
 3043TIP3   OH230619   5.073   4.484   2.065  0.2977 -0.5336 -0.4971
 3043TIP3    H130620   5.136   4.473   1.994  1.0180  0.9666 -0.1299
 3043TIP3    H230621   5.065   4.579   2.075  0.0856 -0.7164  1.3164
 3044TIP3   OH230622   1.034   1.217   5.769  0.3328  0.2636  0.2126
 3044TIP3    H130623   0.991   1.131   5.764 -0.2498  0.2989  3.2782
 3044TIP3    H230624   1.095   1.209   5.843  0.8119  2.2643  0.0702
 3045TIP3   OH230625   2.016   0.320   3.600 -0.3533  0.0475 -0.4948
 3045TIP3    H130626   2.077   0.257   3.638  0.0110  0.1188 -0.9564
 3045TIP3    H230627   2.033   0.401   3.649  1.5880  0.7013 -2.2001
 3046TIP3   OH230628   6.763   2.579   2.635  0.0897  0.0224 -0.3243
 3046TIP3    H130629   6.842   2.548   2.591  0.0567  0.3014 -0.5788
 3046TIP3    H230630   6.746   2.512   2.701 -0.3431 -0.8541 -1.2924
 3047TIP3   OH230631   0.006   5.825  11.355 -0.2739  0.1555 -0.2373
 3047TIP3    H130632  -0.079   5.782  11.346 -1.3415  2.1124  0.2374
 3047TIP3    H230633   0.045   5.820  11.268 -0.7477 -1.0073 -0.3911
 3048TIP3   OH230634   0.359   5.309  14.889 -0.2438 -0.2295 -0.0577
 3048TIP3    H130635   0.349   5.400  14.917  0.8228 -0.4048  0.9255
 3048TIP3    H230636   0.394   5.264  14.966  2.2545 -0.8360 -1.4825
 3049TIP3   OH230637   3.265   2.723  15.149  0.0813  0.2760  0.0925
 3049TIP3    H130638   3.252   2.630  15.127  2.0941 -0.1564  0.6321
 3049TIP3    H230639   3.197   2.769  15.098  0.4628 -1.2901 -1.9221
 3050TIP3   OH230640   1.707   5.325  13.224  0.4834 -0.4138 -0.0481
 3050TIP3    H130641   1.709   5.317  13.320  0.9294  0.3754  0.0120
 3050TIP3    H230642   1.774   5.264  13.193  0.5007 -0.4968  0.1541
 3051TIP3   OH230643   3.267   4.450   4.940 -0.1035  0.5372  0.1915
 3051TIP3    H130644   3.316   4.436   5.020  1.6036  0.6969 -0.8050
 3051TIP3    H230645   3.195   4.507   4.965  0.2604  0.3603  1.6607
 3052TIP3   OH230646   2.318   0.536  15.015 -0.4200  0.6209 -0.5964
 3052TIP3    H130647   2.282   0.518  14.928 -0.5905  0.8006 -0.5634
 3052TIP3    H230648   2.405   0.572  14.998 -0.0128 -0.3750 -0.6549
 3053TIP3   OH230649   6.184   4.484  16.775  0.2586 -0.3355 -0.0454
 3053TIP3    H130650   6.117   4.529  16.723  0.0788 -0.4689  0.0719
 3053TIP3    H230651   6.229   4.554  16.822 -0.6966 -0.3704  0.9312
 3054TIP3   OH230652   5.436   4.469   6.108  0.0113 -0.0505 -0.4320
 3054TIP3    H130653   5.363   4.478   6.046  0.1261  0.5789 -0.4819
 3054TIP3    H230654   5.432   4.549   6.160 -0.2104 -0.6644  0.5143
 3055TIP3   OH230655   6.596   1.193   0.611 -0.2484  0.6460 -0.6756
 3055TIP3    H130656   6.647   1.216   0.534 -0.6034  0.5337 -0.9474
 3055TIP3    H230657   6.513   1.239   0.600 -1.4503 -1.7236 -1.8577
 3056TIP3   OH230658   1.737   0.431  11.926 -0.0059  0.2989  0.3296
 3056TIP3    H130659   1.761   0.372  11.854  1.3385  3.4534 -1.9630
 3056TIP3    H230660   1.657   0.475  11.896  0.1544  1.1171  1.0530
 3057TIP3   OH230661   2.223   1.287  11.112 -0.3246 -0.2270  0.1209
 3057TIP3    H130662   2.302   1.287  11.057  0.1523 -2.6218  0.7531
 3057TIP3    H230663   2.162   1.230  11.066 -0.3840 -1.2334  1.4281
 3058TIP3   OH230664   3.149   6.396   5.120  0.3322 -0.1172  0.2889
 3058TIP3    H130665   3.184   6.478   5.156 -0.3157 -0.0874  0.8643
 3058TIP3    H230666   3.220   6.362   5.065  0.4770  1.0083 -0.2380
 3059TIP3   OH230667   4.276   5.584  12.264  0.0476 -0.3000 -0.2062
 3059TIP3    H130668   4.290   5.615  12.174  3.8869 -0.9275  0.0940
 3059TIP3    H230669   4.250   5.663  12.312 -0.3485  0.3833 -1.5107
 3060TIP3   OH230670   2.985   0.151  16.959 -0.1244 -0.3546  0.3961
 3060TIP3    H130671   2.964   0.059  16.979 -1.8669 -0.3847 -1.3408
 3060TIP3    H230672   3.030   0.147  16.875  1.8552  0.2253  1.3961
 3061TIP3   OH230673   6.662   3.787  12.811  0.3904 -1.0255  0.2427
 3061TIP3    H130674   6.567   3.799  12.818  0.4764 -1.3559  2.6091
 3061TIP3    H230675   6.690   3.770  12.901  2.8556  0.1634 -0.2650
 3062TIP3   OH230676   1.130   3.495   0.825  0.7013  0.2398  0.0529
 3062TIP3    H130677   1.153   3.509   0.916 -1.9497  2.1710  0.4721
 3062TIP3    H230678   1.186   3.556   0.776  2.1597 -0.8363  0.3357
 3063TIP3   OH230679   5.399   1.255  15.382 -0.2700 -0.0370 -0.0967
 3063TIP3    H130680   5.364   1.249  15.471 -1.1442 -2.7841 -0.5712
 3063TIP3    H230681   5.334   1.209  15.327  0.5309  1.1079 -2.0640
 3064TIP3   OH230682   2.889   3.138   1.434  0.2558  0.2461  0.2124
 3064TIP3    H130683   2.863   3.108   1.521 -1.2360 -1.2539 -0.7324
 3064TIP3    H230684   2.968   3.191   1.450 -0.7785  1.1492  2.6215
 3065TIP3   OH230685   5.823   4.060   2.403  0.0065  0.2657 -0.5603
 3065TIP3    H130686   5.888   4.117   2.443 -0.3393 -0.0040  0.3819
 3065TIP3    H230687   5.776   4.116   2.341  0.8934  0.5485 -0.9895
 3066TIP3   OH230688   0.098   3.868   2.813 -0.1893  0.4367 -0.2831
 3066TIP3    H130689   0.005   3.857   2.793 -0.0032  0.2394 -1.0640
 3066TIP3    H230690   0.118   3.794   2.871 -0.4618  0.3425 -0.3053
 3067TIP3   OH230691   1.594   5.361   3.100 -0.6822  0.2819  0.3314
 3067TIP3    H130692   1.553   5.441   3.131  0.3111  1.0584 -0.3565
 3067TIP3    H230693   1.520   5.302   3.081 -1.4045  1.0336  0.8109
 3068TIP3   OH230694   4.966   2.640  13.009  0.4902 -0.1829  0.4572
 3068TIP3    H130695   4.890   2.645  13.066  0.5009 -0.5797  0.5067
 3068TIP3    H230696   4.958   2.555  12.965 -1.0190  1.3029 -2.2644
 3069TIP3   OH230697   2.699   4.186   1.568 -0.3284  0.4418  0.3016
 3069TIP3    H130698   2.663   4.256   1.622 -1.0162  0.3005  0.0254
 3069TIP3    H230699   2.653   4.107   1.598 -3.1832  0.8473 -2.7701
 3070TIP3   OH230700   6.617   2.391   3.099 -0.9463 -0.3947  0.2815
 3070TIP3    H130701   6.625   2.322   3.165  0.3684  0.5448  1.1473
 3070TIP3    H230702   6.692   2.378   3.042 -0.5027  0.5096  0.6500
 3071TIP3   OH230703   6.196   2.241   0.163 -0.4404  0.0609 -0.5833
 3071TIP3    H130704   6.245   2.173   0.118 -2.1800 -0.4134 -1.8469
 3071TIP3    H230705   6.173   2.304   0.093 -0.4685  0.9491  0.2159
 3072TIP3   OH230706   3.616   4.084   3.052  0.0658  0.5656 -0.2181
 3072TIP3    H130707   3.682   4.129   3.105  0.9797 -1.0061  0.0131
 3072TIP3    H230708   3.666   4.026   2.994 -1.0305  0.6727 -1.2855
 3073TIP3   OH230709   5.647   4.025   3.369 -0.2459  0.9582  0.1153
 3073TIP3    H130710   5.729   4.034   3.419 -0.2609  2.1884 -0.0779
 3073TIP3    H230711   5.610   4.113   3.368 -1.8813  0.2882  0.7113
 3074TIP3   OH230712   4.818   0.946   4.003 -0.2334  0.1195  0.3798
 3074TIP3    H130713   4.732   0.906   3.994 -0.6054  0.2999  2.8494
 3074TIP3    H230714   4.869   0.882   4.052  0.3229  1.0165  0.9868
 3075TIP3   OH230715   6.688   2.567   0.227 -0.2277  0.8409  0.2484
 3075TIP3    H130716   6.712   2.475   0.230  2.9216  1.6486  1.8906
 3075TIP3    H230717   6.642   2.583   0.309  0.0317  0.9146  0.3814
 3076TIP3   OH230718   4.136   5.084  17.193 -0.6450 -0.5313  0.3620
 3076TIP3    H130719   4.197   5.085  17.266 -1.9659 -0.0902  1.4787
 3076TIP3    H230720   4.059   5.132  17.225 -0.1703  2.0997 -2.2727
 3077TIP3   OH230721   4.546   3.646  12.235  0.2806 -0.8696  0.1768
 3077TIP3    H130722   4.630   3.692  12.237 -0.6378  0.8534  2.8237
 3077TIP3    H230723   4.482   3.713  12.262 -1.8881 -2.2386 -1.4836
 3078TIP3   OH230724   6.312   2.758   1.363 -0.0999  0.1079  0.4255
 3078TIP3    H130725   6.339   2.774   1.273  0.8079  0.7960  0.8038
 3078TIP3    H230726   6.238   2.817   1.377 -0.8687 -0.7088 -0.1635
 3079TIP3   OH230727   3.378   4.276  15.268  0.0377  0.2795 -0.0765
 3079TIP3    H130728   3.345   4.312  15.350 -0.7659 -0.7201  0.0494
 3079TIP3    H230729   3.307   4.291  15.205 -0.0230 -0.4460 -0.1856
 3080TIP3   OH230730   0.417   6.748  13.054 -0.3278 -0.2232  0.0706
 3080TIP3    H130731   0.389   6.663  13.089  0.0657 -0.3636  0.0434
 3080TIP3    H230732   0.499   6.730  13.010  0.3054  0.3730  0.9828
 3081TIP3   OH230733   3.291   1.242   2.418  0.1992 -0.4733  0.0083
 3081TIP3    H130734   3.364   1.293   2.381 -1.5408  1.5102 -0.8149
 3081TIP3    H230735   3.296   1.158   2.373  0.7704  0.3734 -1.5834
 3082TIP3   OH230736   5.730   4.174   4.735  0.2111 -0.1469 -0.5204
 3082TIP3    H130737   5.745   4.186   4.642 -0.3318 -0.6011 -0.6718
 3082TIP3    H230738   5.645   4.131   4.740  0.3423 -0.3338  0.1717
 3083TIP3   OH230739   6.136   3.846  11.891  0.4358  0.2840  0.0829
 3083TIP3    H130740   6.203   3.779  11.885 -0.5981 -0.8485  0.9009
 3083TIP3    H230741   6.085   3.836  11.811 -1.2516 -1.6283  1.3266
 3084TIP3   OH230742   5.650   0.981   6.046 -0.4838 -0.0612  0.0460
 3084TIP3    H130743   5.658   0.921   6.120 -1.3064  0.0219  0.2011
 3084TIP3    H230744   5.738   1.019   6.037 -0.8373  1.4090  2.2392
 3085TIP3   OH230745   6.680   4.506  12.790  0.5844 -0.0352  0.0754
 3085TIP3    H130746   6.686   4.579  12.728 -1.4296 -0.4757 -0.6780
 3085TIP3    H230747   6.694   4.428  12.736  0.7045 -0.3154  0.5113
 3086TIP3   OH230748   2.366   5.219   2.914 -0.2290  0.0122  0.3648
 3086TIP3    H130749   2.402   5.151   2.856  2.9015  1.0363  0.9825
 3086TIP3    H230750   2.330   5.171   2.988  1.5764 -1.0190  0.6033
 3087TIP3   OH230751   2.898   6.792   5.992  0.2018  0.0395 -0.4200
 3087TIP3    H130752   2.890   6.711   5.941 -0.9497 -0.0483 -0.1158
 3087TIP3    H230753   2.880   6.766   6.082  0.3544  0.5381 -0.2418
 3088TIP3   OH230754   6.213   5.092   0.196 -0.2726  0.5808 -0.1627
 3088TIP3    H130755   6.175   5.118   0.112 -3.4225 -0.3610  0.8842
 3088TIP3    H230756   6.194   5.166   0.255  1.5180  1.0409 -0.1274
 3089TIP3   OH230757   1.153   0.831  15.872 -0.1143  0.2717  0.0036
 3089TIP3    H130758   1.088   0.800  15.935 -1.2029  1.8120 -0.3283
 3089TIP3    H230759   1.236   0.792  15.901 -0.4551  1.5413  2.8070
 3090TIP3   OH230760   1.053   5.000   0.699 -0.6234 -0.1883 -0.2173
 3090TIP3    H130761   1.085   4.919   0.658 -1.4284  0.2974 -1.8420
 3090TIP3    H230762   1.116   5.017   0.769  1.3909 -0.5181 -1.8809
 3091TIP3   OH230763   0.779   2.702   3.458 -0.0241 -0.3369  0.0426
 3091TIP3    H130764   0.790   2.651   3.378  0.1119  0.4513 -0.4472
 3091TIP3    H230765   0.776   2.793   3.428 -0.7085 -0.0847  0.8615
 3092TIP3   OH230766   0.564   2.875  14.875 -0.2335 -0.2830 -0.2451
 3092TIP3    H130767   0.551   2.814  14.802  3.1814 -1.4364  0.0509
 3092TIP3    H230768   0.539   2.825  14.952 -2.0863  0.3420 -0.4072
 3093TIP3   OH230769   5.333   4.668   2.228  0.4222 -0.2965 -0.2767
 3093TIP3    H130770   5.237   4.668   2.236  0.4882 -3.0336  1.1536
 3093TIP3    H230771   5.364   4.719   2.303  0.0998 -0.4220 -0.0551
 3094TIP3   OH230772   0.377   4.979   3.825  0.3003  0.5292  0.2385
 3094TIP3    H130773   0.400   4.925   3.901  1.8571  1.8709  0.7553
 3094TIP3    H230774   0.289   4.949   3.800  0.1326 -0.5540  2.0106
 3095TIP3   OH230775   5.786   3.950   2.860  0.5544  0.0679 -0.0462
 3095TIP3    H130776   5.776   3.976   2.951 -0.9473  0.0287 -0.1839
 3095TIP3    H230777   5.753   4.025   2.810  0.7081 -0.1927 -0.5473
 3096TIP3   OH230778   3.618   1.211  15.211  0.1422 -0.2547 -0.3071
 3096TIP3    H130779   3.624   1.192  15.117  0.3560 -3.0266  0.2284
 3096TIP3    H230780   3.525   1.208  15.230  0.1975 -1.1190 -0.1628
 3097TIP3   OH230781   6.320   2.195   1.559  0.4138  0.2800  0.0649
 3097TIP3    H130782   6.285   2.278   1.525  0.2351 -0.5620 -1.9003
 3097TIP3    H230783   6.414   2.211   1.568  0.2639  0.9528  0.4566
 3098TIP3   OH230784   1.643   3.199   0.861  0.3955  0.9189 -0.2739
 3098TIP3    H130785   1.576   3.202   0.792  0.8137  1.7648 -0.6515
 3098TIP3    H230786   1.718   3.156   0.819  1.7180  4.0701 -1.3242
 3099TIP3   OH230787   1.815   2.155  11.028 -0.7460 -0.3900 -0.6993
 3099TIP3    H130788   1.858   2.236  11.056 -0.8264 -0.8769  0.9059
 3099TIP3    H230789   1.760   2.181  10.954 -0.8206  1.0257 -0.1549
 3100TIP3   OH230790   5.716   4.369  11.724 -0.5508 -0.2301  0.0534
 3100TIP3    H130791   5.775   4.294  11.728 -0.2197  0.0594  0.6958
 3100TIP3    H230792   5.753   4.432  11.787 -0.2507  0.8741 -1.1953
 3101TIP3   OH230793   4.135   5.983  16.690  0.0377 -0.6685  0.1217
 3101TIP3    H130794   4.197   6.049  16.659  0.0782  0.1823  1.9839
 3101TIP3    H230795   4.187   5.924  16.744 -0.7305  0.0012  1.6190
 3102TIP3   OH230796   0.948   1.332  12.814  0.6110 -0.1942 -0.3531
 3102TIP3    H130797   0.879   1.288  12.765  1.1829 -0.8426 -0.5885
 3102TIP3    H230798   1.022   1.334  12.754  0.9108  0.1605  0.0289
 3103TIP3   OH230799   0.614   5.251   4.782  0.7345 -0.4240 -0.0152
 3103TIP3    H130800   0.536   5.196   4.775  0.9083 -0.7907  0.8337
 3103TIP3    H230801   0.687   5.189   4.783  0.9971 -0.1170 -0.1938
 3104TIP3   OH230802   6.463   5.552   1.267 -0.4998 -0.3807  0.0031
 3104TIP3    H130803   6.542   5.510   1.301  0.1398  1.2033  0.5196
 3104TIP3    H230804   6.413   5.576   1.345 -0.6873  0.1300 -0.2691
 3105TIP3   OH230805   4.531   3.130  10.550 -0.2470  0.1910 -1.1811
 3105TIP3    H130806   4.468   3.149  10.479 -1.3288 -0.2917 -0.3651
 3105TIP3    H230807   4.509   3.041  10.577 -0.4084  0.6870  0.3381
 3106TIP3   OH230808   0.741   6.643   1.146 -0.6776  0.8797 -0.2909
 3106TIP3    H130809   0.769   6.664   1.235  0.3776  1.3821 -0.7337
 3106TIP3    H230810   0.694   6.721   1.117 -2.2442  0.1770  0.3210
 3107TIP3   OH230811   3.364   4.362   6.009  0.1348 -0.0960 -0.2075
 3107TIP3    H130812   3.438   4.364   6.070  0.5272  0.3131 -0.6853
 3107TIP3    H230813   3.287   4.350   6.065  0.6512 -1.5715  0.1967
 3108TIP3   OH230814   3.593   5.891  11.094  0.2794  0.4601 -0.3768
 3108TIP3    H130815   3.590   5.956  11.024  0.4304  1.3377  0.4113
 3108TIP3    H230816   3.528   5.825  11.070 -2.4820  2.7154  0.5698
 3109TIP3   OH230817   5.068   6.060   2.795  0.4893 -0.5888  0.6066
 3109TIP3    H130818   5.138   6.008   2.836  1.5075 -0.1744 -0.5749
 3109TIP3    H230819   5.067   6.031   2.704 -1.4988 -1.2272  0.8132
 3110TIP3   OH230820   0.986   3.326  12.598  0.2643 -0.1660  0.0867
 3110TIP3    H130821   1.078   3.346  12.580  0.7700 -2.2463  0.2902
 3110TIP3    H230822   0.989   3.259  12.666 -1.4180  0.1017  0.4348
 3111TIP3   OH230823   2.862   0.977   4.762  0.2997  0.1075 -0.1481
 3111TIP3    H130824   2.889   0.903   4.707  0.9579  0.5694 -0.4526
 3111TIP3    H230825   2.773   0.997   4.732  0.0776 -0.6251  0.0079
 3112TIP3   OH230826   3.917   0.025   5.357  0.0421 -0.0164  0.5410
 3112TIP3    H130827   3.877   0.110   5.341 -0.0357 -0.1544 -0.0223
 3112TIP3    H230828   3.994   0.024   5.300 -0.8804 -0.9800 -0.7423
 3113TIP3   OH230829   6.315   6.145   5.268  0.0874 -0.2608 -0.2591
 3113TIP3    H130830   6.238   6.090   5.281  0.2899 -0.2788  0.8928
 3113TIP3    H230831   6.307   6.214   5.334  1.6058 -0.8639  0.5737
 3114TIP3   OH230832   4.740   3.735  14.561 -0.2100  0.0417 -0.7306
 3114TIP3    H130833   4.648   3.710  14.575 -0.3998  0.6976 -0.7906
 3114TIP3    H230834   4.784   3.712  14.642 -0.6715  0.8741 -0.2469
 3115TIP3   OH230835   1.281   2.641   1.705 -0.3543 -0.2720 -0.6641
 3115TIP3    H130836   1.200   2.599   1.676 -1.1450  1.2577 -0.7324
 3115TIP3    H230837   1.252   2.705   1.771  0.7090  0.8120 -1.2401
 3116TIP3   OH230838   5.683   5.284  12.323  0.6586  0.1159 -0.6207
 3116TIP3    H130839   5.653   5.375  12.313  0.0537 -0.2087 -1.8731
 3116TIP3    H230840   5.688   5.270  12.417  4.9183  2.8155 -0.3049
 3117TIP3   OH230841   2.440   5.815   2.247 -0.2676 -0.0852 -0.1219
 3117TIP3    H130842   2.491   5.896   2.246  0.4659 -0.5515 -0.2277
 3117TIP3    H230843   2.464   5.769   2.167  1.0385 -1.4742  1.0459
 3118TIP3   OH230844   1.020   3.182  11.451 -0.1531  0.2945 -0.3617
 3118TIP3    H130845   0.960   3.117  11.487  0.7952  0.0425  0.8181
 3118TIP3    H230846   0.971   3.264  11.455 -1.1015 -0.2178 -1.2084
 3119TIP3   OH230847   0.991   3.000   3.955  0.3706  0.1341 -0.0756
 3119TIP3    H130848   1.006   2.984   4.048  1.0775 -0.0931 -0.2284
 3119TIP3    H230849   0.978   2.913   3.918  0.3304  0.2075 -0.2334
 3120TIP3   OH230850   3.863   5.892  16.679 -0.0398 -0.4642  0.0716
 3120TIP3    H130851   3.871   5.801  16.653  1.1197 -0.6168  0.9441
 3120TIP3    H230852   3.948   5.931  16.660 -0.7484  0.6365 -1.0035
 3121TIP3   OH230853   3.211   4.691   1.892  0.0492 -0.7439  0.2953
 3121TIP3    H130854   3.299   4.655   1.902  0.0679 -0.3304  1.7789
 3121TIP3    H230855   3.158   4.617   1.863  0.4716 -1.5224  1.4591
 3122TIP3   OH230856   0.066   3.384   0.275 -0.3486  0.0740  0.1203
 3122TIP3    H130857   0.050   3.474   0.302 -1.0899 -0.0013 -0.0431
 3122TIP3    H230858   0.003   3.332   0.326  1.0012 -0.5048  1.2293
 3123TIP3   OH230859   6.566   0.544   0.651 -0.3375 -0.5985 -0.2936
 3123TIP3    H130860   6.610   0.629   0.658  1.3088 -1.5482  1.3002
 3123TIP3    H230861   6.629   0.489   0.603 -1.3582 -0.9642 -1.2450
 3124TIP3   OH230862   1.631   2.342  14.894 -0.6363  0.0016 -0.3703
 3124TIP3    H130863   1.581   2.372  14.818 -0.7475 -2.1089 -1.1795
 3124TIP3    H230864   1.712   2.307  14.856  1.0064  2.3451  0.8270
 3125TIP3   OH230865   4.596   3.967   0.361  0.3252  0.0847 -0.0446
 3125TIP3    H130866   4.554   4.004   0.439  0.9470 -1.3817  1.0040
 3125TIP3    H230867   4.523   3.945   0.303 -0.2199 -0.0484  0.6822
 3126TIP3   OH230868   0.525   1.005  16.436  0.4014  0.5517 -0.5669
 3126TIP3    H130869   0.452   1.061  16.463  1.2708  0.8584  1.1935
 3126TIP3    H230870   0.484   0.930  16.394 -0.9875  0.1325  1.4959
 3127TIP3   OH230871   6.732   4.046  16.604  0.1508 -0.1938  0.0736
 3127TIP3    H130872   6.700   4.016  16.519  1.0345 -2.4768  0.5055
 3127TIP3    H230873   6.797   3.980  16.630  1.0065  1.2878  1.8140
 3128TIP3   OH230874   4.397   1.128   4.617  0.2102 -0.2779 -0.0377
 3128TIP3    H130875   4.448   1.197   4.575 -0.2727  0.5756  0.7623
 3128TIP3    H230876   4.453   1.051   4.613  0.3904 -0.0693 -1.7401
 3129TIP3   OH230877   2.018   6.080  11.366  0.1815 -0.4095  0.3977
 3129TIP3    H130878   2.016   6.127  11.282 -1.3436 -0.3893  0.4307
 3129TIP3    H230879   2.084   6.013  11.354  0.2588 -0.1535 -0.6987
 3130TIP3   OH230880   3.472   5.270   1.144 -0.2983 -0.3822 -0.9948
 3130TIP3    H130881   3.397   5.227   1.103  0.1612 -0.5947 -1.6148
 3130TIP3    H230882   3.548   5.220   1.115  0.0783 -0.2510 -0.2572
 3131TIP3   OH230883   1.250   0.254   5.236  0.0909  0.4385  0.1018
 3131TIP3    H130884   1.300   0.174   5.222 -1.4855 -0.4633 -0.5933
 3131TIP3    H230885   1.299   0.322   5.191  0.9864 -0.3127 -0.0613
 3132TIP3   OH230886   6.700   3.816  11.291 -0.1419  0.0868 -0.3327
 3132TIP3    H130887   6.793   3.828  11.310  0.2899 -1.2355 -1.4484
 3132TIP3    H230888   6.672   3.899  11.252  0.3031  0.8507  0.9494
 3133TIP3   OH230889   0.938   4.111   6.606 -0.2451  0.0858 -0.2902
 3133TIP3    H130890   0.937   4.066   6.521  0.5175  0.9799 -0.7892
 3133TIP3    H230891   0.851   4.149   6.614 -0.5652 -0.6409 -0.3245
 3134TIP3   OH230892   4.766   3.106  15.891  0.5406 -0.2497 -0.0864
 3134TIP3    H130893   4.712   3.184  15.882  1.9114  0.6007 -1.1400
 3134TIP3    H230894   4.855   3.136  15.872  1.3266 -1.7129  1.1575
 3135TIP3   OH230895   4.361   4.199  16.208 -0.0566 -0.3718  0.4256
 3135TIP3    H130896   4.328   4.121  16.252  0.0913 -0.7031 -0.0349
 3135TIP3    H230897   4.289   4.227  16.151  0.4660 -1.1534 -0.6524
 3136TIP3   OH230898   1.443   5.902  12.293 -0.2518 -0.0843  0.6756
 3136TIP3    H130899   1.517   5.920  12.235  0.7818 -1.0929  1.6550
 3136TIP3    H230900   1.379   5.969  12.272  0.2390 -0.2420 -1.4145
 3137TIP3   OH230901   5.983   3.225  10.582 -0.0348  0.0294  0.3322
 3137TIP3    H130902   6.019   3.218  10.494 -1.1603 -2.0286 -0.0047
 3137TIP3    H230903   5.888   3.222  10.570 -0.2445  1.2479  1.5114
 3138TIP3   OH230904   6.419   1.924  11.299 -0.5406 -0.6828  0.1867
 3138TIP3    H130905   6.389   1.885  11.216  0.5682  0.1641 -0.6235
 3138TIP3    H230906   6.365   2.003  11.308 -0.4501 -0.6118  0.1125
 3139TIP3   OH230907   1.055   0.430  17.015  0.1736 -0.4231  0.8755
 3139TIP3    H130908   1.047   0.336  17.032 -1.8090 -0.3754  0.3016
 3139TIP3    H230909   1.032   0.439  16.922 -0.3734  0.7274  1.1224
 3140TIP3   OH230910   6.433   5.486   2.075  0.1885  0.0333 -0.0371
 3140TIP3    H130911   6.478   5.434   2.009  0.2409 -0.3527  0.2999
 3140TIP3    H230912   6.340   5.468   2.062  0.3261 -2.0443  1.6402
 3141TIP3   OH230913   3.285   0.316   0.666  0.0587  0.1504  0.4100
 3141TIP3    H130914   3.209   0.281   0.619 -1.2684  0.7017  2.0472
 3141TIP3    H230915   3.328   0.374   0.603 -1.1045  0.1163 -0.4335
 3142TIP3   OH230916   3.866   0.278   1.112 -0.4088  0.4766 -0.4194
 3142TIP3    H130917   3.889   0.193   1.150 -1.8273  0.7136  1.0034
 3142TIP3    H230918   3.885   0.268   1.019 -1.9594 -1.9227 -0.5278
 3143TIP3   OH230919   3.987   3.149   1.422 -0.0076  0.3333  0.2867
 3143TIP3    H130920   4.006   3.061   1.390  1.1808  0.7588 -0.2231
 3143TIP3    H230921   3.930   3.187   1.356  3.5412  1.6946 -2.1399
 3144TIP3   OH230922   6.275   1.089   5.206  0.1560  0.5814 -0.0480
 3144TIP3    H130923   6.272   1.185   5.206  0.8261  0.6103  1.8627
 3144TIP3    H230924   6.368   1.068   5.213  0.0112 -0.2101 -0.5275
 3145TIP3   OH230925   1.363   2.117   1.711  0.3561 -0.2923 -0.4134
 3145TIP3    H130926   1.304   2.042   1.713 -0.1489  0.1104 -0.0471
 3145TIP3    H230927   1.364   2.145   1.620  0.3039 -0.5482 -0.4928
 3146TIP3   OH230928   1.594   5.515   3.495 -0.6895  0.2791 -0.4721
 3146TIP3    H130929   1.688   5.532   3.505 -0.4636  0.0884 -2.1490
 3146TIP3    H230930   1.560   5.592   3.451 -0.8748 -0.6676 -2.0302
 3147TIP3   OH230931   5.437   2.291   3.909 -0.1552 -0.1933  0.0645
 3147TIP3    H130932   5.506   2.246   3.860 -1.0412  0.0079 -1.3750
 3147TIP3    H230933   5.374   2.318   3.843 -1.3454  0.1323  1.3152
 3148TIP3   OH230934   0.924   5.170   3.750 -0.4782  0.1614 -0.0190
 3148TIP3    H130935   0.851   5.232   3.758 -1.0214 -0.5553  0.8139
 3148TIP3    H230936   0.883   5.090   3.718 -0.0922 -0.3116  0.6566
 3149TIP3   OH230937   3.150   1.567  16.752 -0.3145 -0.4290  0.2505
 3149TIP3    H130938   3.140   1.660  16.771 -0.9154 -0.2053 -1.0957
 3149TIP3    H230939   3.237   1.559  16.712  0.2436 -0.6464  1.4651
 3150TIP3   OH230940   1.532   3.733   0.895 -0.1478  0.4276  0.2207
 3150TIP3    H130941   1.622   3.747   0.926 -0.7409  2.0413  1.3262
 3150TIP3    H230942   1.480   3.797   0.944 -1.8236 -0.1136 -0.8031
 3151TIP3   OH230943   4.006   5.468   3.614 -0.5705 -0.3618 -0.0119
 3151TIP3    H130944   4.098   5.492   3.627  0.0545 -2.0105 -1.2217
 3151TIP3    H230945   3.975   5.528   3.546 -0.4013  0.1790  0.3810
 3152TIP3   OH230946   0.105   0.066   5.428  0.3049 -0.2291 -0.2986
 3152TIP3    H130947   0.081  -0.001   5.364 -2.2146 -0.1442  0.5078
 3152TIP3    H230948   0.200   0.070   5.425  0.2791 -1.2152 -3.0275
 3153TIP3   OH230949   1.415   2.053   1.965 -0.1996 -0.6075  0.0955
 3153TIP3    H130950   1.357   1.978   1.978 -1.8257  0.4113 -0.9915
 3153TIP3    H230951   1.380   2.096   1.886  2.0068  0.0808 -0.5420
 3154TIP3   OH230952   5.270   1.404   0.007 -0.2077 -0.4683  0.3249
 3154TIP3    H130953   5.245   1.457  -0.069 -0.5946 -1.2353 -0.0908
 3154TIP3    H230954   5.234   1.317  -0.012  0.2808 -0.8387  1.0791
 3155TIP3   OH230955   4.127   1.358   2.271 -0.0126 -0.1232 -0.4980
 3155TIP3    H130956   4.066   1.430   2.262  1.4322  1.4060  1.4477
 3155TIP3    H230957   4.072   1.280   2.273 -1.6378  0.9637 -1.8852
 3156TIP3   OH230958   5.744   1.333   1.324  0.6113 -0.4967 -0.3346
 3156TIP3    H130959   5.784   1.415   1.296  0.9119 -0.0968  1.2229
 3156TIP3    H230960   5.737   1.280   1.244  0.5404  0.9862 -1.3200
 3157TIP3   OH230961   0.740   2.587   2.735  0.3354  0.6301 -0.3414
 3157TIP3    H130962   0.693   2.585   2.651 -0.8673 -0.5289  0.3446
 3157TIP3    H230963   0.728   2.676   2.767 -0.2481  0.7204 -0.8071
 3158TIP3   OH230964   6.289   3.735   4.539  0.1349  0.2962 -0.0609
 3158TIP3    H130965   6.341   3.735   4.619  1.0654  0.5562 -0.6547
 3158TIP3    H230966   6.269   3.827   4.524  1.1440  0.3975 -0.8699
 3159TIP3   OH230967   5.824   1.672   2.783 -0.0277 -0.2367 -0.1261
 3159TIP3    H130968   5.839   1.727   2.706 -0.4084 -0.8071 -0.6144
 3159TIP3    H230969   5.741   1.702   2.819 -0.1333 -0.3535 -0.2721
 3160TIP3   OH230970   3.780   6.177   1.151  0.6176 -0.3458 -0.7961
 3160TIP3    H130971   3.698   6.141   1.186  0.4924  0.6802 -0.0126
 3160TIP3    H230972   3.784   6.144   1.062 -0.7825 -0.2115 -0.9233
 3161TIP3   OH230973   5.223   4.122  16.632  0.3343  0.3725  0.4344
 3161TIP3    H130974   5.215   4.135  16.538  0.4762 -1.1380  0.2165
 3161TIP3    H230975   5.276   4.196  16.662  1.0877  0.3409 -0.8054
 3162TIP3   OH230976   4.203   2.584   2.302 -0.5595  0.0134 -0.0135
 3162TIP3    H130977   4.235   2.674   2.308 -0.8192  0.1533 -0.6754
 3162TIP3    H230978   4.110   2.593   2.280 -1.4652 -0.3592  3.3602
 3163TIP3   OH230979   1.050   3.157  13.190 -0.3723  0.0042  0.1885
 3163TIP3    H130980   0.973   3.111  13.222  0.0704 -0.8993 -0.0212
 3163TIP3    H230981   1.027   3.250  13.194 -1.5000 -0.2695  0.0187
 3164TIP3   OH230982   6.090   1.028  12.823 -0.0466 -0.1651 -0.2502
 3164TIP3    H130983   6.113   0.965  12.754  0.6349  1.7193 -1.8030
 3164TIP3    H230984   6.135   0.996  12.901  4.0115  0.7386 -2.0736
 3165TIP3   OH230985   0.679   6.324  12.859  0.8537  0.1496 -0.0556
 3165TIP3    H130986   0.667   6.316  12.954  1.4279 -1.5681 -0.1194
 3165TIP3    H230987   0.591   6.342  12.826  0.4639 -0.3269  0.7032
 3166TIP3   OH230988   3.803   5.610  16.200 -0.1247 -0.2117  0.4096
 3166TIP3    H130989   3.839   5.681  16.254 -1.0884  0.7037 -0.1366
 3166TIP3    H230990   3.830   5.632  16.111  2.6020 -2.4269  0.6367
 3167TIP3   OH230991   0.925   0.039  11.790 -0.4203 -0.1177  0.1138
 3167TIP3    H130992   0.965  -0.006  11.864 -0.5960 -0.0595  0.2458
 3167TIP3    H230993   0.846  -0.013  11.771 -0.2139 -0.3093 -0.2287
 3168TIP3   OH230994   3.345   0.914  12.460 -0.3350  0.1687  0.4356
 3168TIP3    H130995   3.334   0.992  12.513 -2.6975  0.5365 -0.5266
 3168TIP3    H230996   3.276   0.920  12.394  0.3933 -1.9771 -0.5746
 3169TIP3   OH230997   3.923   3.997  11.625 -0.2441 -0.1338  0.1319
 3169TIP3    H130998   3.837   3.970  11.656 -1.0210 -0.4990 -2.2568
 3169TIP3    H230999   3.981   3.923  11.646 -0.5820 -0.0314  1.4207
 3170TIP3   OH231000   6.388   5.656   0.286  0.7009 -0.3693 -0.6799
 3170TIP3    H131001   6.328   5.701   0.227  0.0521 -1.4023 -0.8189
 3170TIP3    H231002   6.473   5.696   0.269  0.4243 -0.3242 -1.9658
 3171TIP3   OH231003   4.890   0.443  10.963  0.4150  0.2356 -0.1134
 3171TIP3    H131004   4.878   0.538  10.971 -1.0731  0.1444 -1.1857
 3171TIP3    H231005   4.845   0.419  10.882 -0.2338 -1.5685  0.7491
 3172TIP3   OH231006   1.849   4.008  12.888  0.0680 -0.3821  0.4584
 3172TIP3    H131007   1.873   3.919  12.862  0.5198 -0.3285  0.6747
 3172TIP3    H231008   1.802   3.996  12.971 -1.8255 -0.5951 -0.6136
 3173TIP3   OH231009   3.543   4.188  16.159 -0.1104  0.3667  0.1358
 3173TIP3    H131010   3.603   4.225  16.094  1.5876 -0.2242  1.3166
 3173TIP3    H231011   3.461   4.235  16.146  0.4407  0.7973 -1.9089
 3174TIP3   OH231012   3.464   4.137  12.354  0.6432  0.7330  0.0751
 3174TIP3    H131013   3.487   4.229  12.366 -0.5324  1.3703 -2.2841
 3174TIP3    H231014   3.547   4.095  12.329  0.8761  1.4558 -0.3821
 3175TIP3   OH231015   3.084   2.620  15.445  0.1319  0.5323 -0.3929
 3175TIP3    H131016   3.075   2.569  15.364  0.9202 -1.9944  1.0620
 3175TIP3    H231017   2.999   2.610  15.488  1.3319 -2.2776  1.4073
 3176TIP3   OH231018   3.741   4.061  14.843 -0.4021 -0.5377  0.5377
 3176TIP3    H131019   3.682   4.133  14.867  1.8726  1.6031 -0.1224
 3176TIP3    H231020   3.778   4.031  14.926 -0.0884  0.1847  0.6606
 3177TIP3   OH231021   4.363   1.841  12.733  0.0867 -0.7542  0.2788
 3177TIP3    H131022   4.292   1.830  12.796  0.3357  0.5686  0.8139
 3177TIP3    H231023   4.442   1.846  12.787  0.1865  1.5021 -0.0345
 3178TIP3   OH231024   5.686   3.642   4.668 -0.7577 -0.2463  0.7991
 3178TIP3    H131025   5.654   3.731   4.652  0.4304  0.4693  2.2052
 3178TIP3    H231026   5.642   3.588   4.603 -0.2638  1.6328 -1.1513
 3179TIP3   OH231027   4.632   6.598   3.593 -0.0513 -0.3362  0.3978
 3179TIP3    H131028   4.651   6.679   3.545  2.6495 -1.3676 -0.3430
 3179TIP3    H231029   4.599   6.539   3.526  1.5002 -1.0206  0.2177
 3180TIP3   OH231030   4.006   6.271   2.072  0.3021 -0.6037  0.0111
 3180TIP3    H131031   4.025   6.342   2.133 -1.0856 -2.0049  2.1834
 3180TIP3    H231032   4.090   6.249   2.034  0.8908  1.5982 -0.0185
 3181TIP3   OH231033   0.802   6.488  14.452  0.0755 -0.1693 -0.4052
 3181TIP3    H131034   0.840   6.404  14.476 -2.2630 -0.1010  3.9395
 3181TIP3    H231035   0.878   6.544  14.434  1.7996 -2.0716  0.6878
 3182TIP3   OH231036   4.130   2.026  12.736 -0.6094 -0.2022  0.1890
 3182TIP3    H131037   4.071   2.006  12.663 -0.9697  0.9355  0.1523
 3182TIP3    H231038   4.218   2.018  12.700 -0.7830 -0.0966 -0.2587
 3183TIP3   OH231039   1.825   0.227  13.678 -0.1137 -0.5929  0.7460
 3183TIP3    H131040   1.860   0.298  13.731 -1.7191  1.7307 -1.1917
 3183TIP3    H231041   1.740   0.208  13.718 -0.7354  0.2451 -0.1527
 3184TIP3   OH231042   6.804   4.594  13.424 -0.0176  0.5534 -1.1078
 3184TIP3    H131043   6.776   4.553  13.342  0.1173  1.5426 -1.6586
 3184TIP3    H231044   6.879   4.648  13.399 -0.4995  1.5205 -0.4962
 3185TIP3   OH231045   3.301   1.154   3.831  0.3078 -0.4069  0.1437
 3185TIP3    H131046   3.303   1.240   3.789  1.1707  0.2259  1.4695
 3185TIP3    H231047   3.267   1.096   3.763  0.1951  0.8809 -0.9313
 3186TIP3   OH231048   0.866   2.073   2.759  0.7137 -0.7736  0.1601
 3186TIP3    H131049   0.945   2.087   2.707  0.3094 -0.5136 -0.3961
 3186TIP3    H231050   0.824   2.159   2.763 -0.2856 -1.1870 -0.8064
 3187TIP3   OH231051   3.190   0.686  14.497  0.4157  0.6889 -0.3050
 3187TIP3    H131052   3.173   0.704  14.590  0.7332 -0.2204 -0.0703
 3187TIP3    H231053   3.119   0.731  14.451 -0.2205  0.4542  0.4285
 3188TIP3   OH231054   1.489   0.098   5.967 -0.3530 -0.1385  0.2114
 3188TIP3    H131055   1.554   0.029   5.977  1.3061  1.1179 -1.5885
 3188TIP3    H231056   1.523   0.172   6.017 -0.3750  0.5232 -0.7294
 3189TIP3   OH231057   6.529   1.920  13.390  0.2211  0.4253  0.3482
 3189TIP3    H131058   6.580   1.950  13.314  0.0750 -0.1159  0.0316
 3189TIP3    H231059   6.545   1.826  13.394 -0.1497  0.3758  0.7052
 3190TIP3   OH231060   1.577   0.230   3.740 -0.1551  0.1074 -0.1479
 3190TIP3    H131061   1.516   0.236   3.813  1.8826  1.5753  1.4972
 3190TIP3    H231062   1.563   0.310   3.689  1.8406  1.5793  1.4839
 3191TIP3   OH231063   3.307   5.924  12.322 -0.2029  0.0249 -0.4369
 3191TIP3    H131064   3.372   5.855  12.313 -0.8885 -0.6143 -0.4746
 3191TIP3    H231065   3.300   5.962  12.235 -0.0477 -0.0540 -0.4828
 3192TIP3   OH231066   0.126   0.099  13.911  0.1592  0.2118 -0.1298
 3192TIP3    H131067   0.030   0.106  13.913 -0.0721 -2.2018 -1.3501
 3192TIP3    H231068   0.152   0.101  14.003 -0.9743  1.7818  0.1875
 3193TIP3   OH231069   2.762   5.841  16.654  0.4003 -0.1319 -0.0065
 3193TIP3    H131070   2.731   5.894  16.728 -0.4220 -0.6783  0.0429
 3193TIP3    H231071   2.735   5.890  16.576  0.6447  0.0929  0.0500
 3194TIP3   OH231072   1.960   3.814  17.292 -0.1758  0.1181 -0.2862
 3194TIP3    H131073   1.930   3.904  17.283 -0.7562 -0.2315 -1.9120
 3194TIP3    H231074   2.009   3.796  17.212  3.9499  0.4810  2.0642
 3195TIP3   OH231075   3.655   6.411   2.534  0.1426  0.2101 -0.1900
 3195TIP3    H131076   3.599   6.469   2.585 -0.1790 -1.4145  1.3601
 3195TIP3    H231077   3.744   6.443   2.550 -0.0973  0.8852 -0.1812
 3196TIP3   OH231078   3.426   1.754  15.667  0.1779  0.1930 -0.0363
 3196TIP3    H131079   3.517   1.735  15.646  0.1882 -1.0694  1.0340
 3196TIP3    H231080   3.376   1.689  15.617 -0.1066  0.5639 -0.2366
 3197TIP3   OH231081   3.571   3.036   0.416  0.6487  0.0466 -0.4503
 3197TIP3    H131082   3.564   3.131   0.425  1.5587  0.2034 -1.4208
 3197TIP3    H231083   3.505   3.013   0.351  0.4662  0.0122 -0.2558
 3198TIP3   OH231084   3.838   0.837  14.905  0.0464  0.2467  0.1162
 3198TIP3    H131085   3.912   0.887  14.940  0.2457 -0.0575  0.1296
 3198TIP3    H231086   3.866   0.812  14.817 -0.7040  1.5370 -0.4933
 3199TIP3   OH231087   4.736   2.637   6.780  0.6497 -0.1140 -0.0972
 3199TIP3    H131088   4.715   2.549   6.811 -1.6591  0.2077 -0.6743
 3199TIP3    H231089   4.692   2.695   6.842 -2.5823  0.5442 -2.8651
 3200TIP3   OH231090   3.265   3.106  16.504  0.3224  0.3069  0.4235
 3200TIP3    H131091   3.354   3.071  16.510  0.9967  1.6976 -0.8985
 3200TIP3    H231092   3.274   3.198  16.529 -0.6553  0.5791 -0.1988
 3201TIP3   OH231093   5.524   3.604  16.374  0.0675 -0.1866 -0.5159
 3201TIP3    H131094   5.562   3.642  16.295  0.1432  1.1063  0.1123
 3201TIP3    H231095   5.501   3.515  16.350  0.2796  0.1276 -1.9310
 3202TIP3   OH231096   6.472   0.262  14.540 -0.4936 -0.5755  0.3169
 3202TIP3    H131097   6.553   0.269  14.591 -0.7850  1.7317  0.4799
 3202TIP3    H231098   6.463   0.168  14.524  1.2911 -1.0326  1.7868
 3203TIP3   OH231099   1.989   5.876   0.112  0.1842 -0.3830  0.1979
 3203TIP3    H131100   2.008   5.931   0.188 -1.3735  0.7839 -0.2378
 3203TIP3    H231101   1.908   5.830   0.134  0.1366 -0.6210 -0.4404
 3204TIP3   OH231102   3.266   4.242  13.659 -0.0847 -0.7104 -0.0428
 3204TIP3    H131103   3.174   4.219  13.657 -0.2837  0.1247 -1.1733
 3204TIP3    H231104   3.312   4.158  13.654 -0.7865 -1.0280 -1.4267
 3205TIP3   OH231105   5.908   2.212   4.038 -0.2321 -0.1879  0.1027
 3205TIP3    H131106   5.933   2.294   4.082  1.0999 -0.9566  0.8020
 3205TIP3    H231107   5.921   2.230   3.945  0.1317  0.3698  0.2564
 3206TIP3   OH231108   0.353   5.433   4.067 -0.4047  0.1886 -0.1515
 3206TIP3    H131109   0.324   5.473   3.985 -1.6831  0.3828  0.3702
 3206TIP3    H231110   0.355   5.506   4.130  1.6440  0.2567 -0.2539
 3207TIP3   OH231111   3.201   1.940  15.276 -0.7219  0.3171  0.4764
 3207TIP3    H131112   3.288   1.901  15.282 -0.4159  1.1445  1.7162
 3207TIP3    H231113   3.173   1.923  15.187  0.7192  0.0569  0.0554
 3208TIP3   OH231114   1.847   4.060   2.011 -0.1565 -0.2643  0.0592
 3208TIP3    H131115   1.782   4.002   2.051  0.5754 -0.1665  1.4118
 3208TIP3    H231116   1.911   4.000   1.972 -0.4744 -0.3601 -0.3205
 3209TIP3   OH231117   3.930   1.030  16.979  0.0562  0.3118  0.0564
 3209TIP3    H131118   3.904   1.052  17.069  2.5675 -0.5508  1.0247
 3209TIP3    H231119   4.010   1.080  16.964 -0.1913  0.2267 -1.6308
 3210TIP3   OH231120   5.605   2.338  14.567  1.1791  0.0204 -0.0766
 3210TIP3    H131121   5.641   2.277  14.504 -2.3784 -0.3751 -1.8290
 3210TIP3    H231122   5.655   2.419  14.554  3.2390 -1.3051 -0.4910
 3211TIP3   OH231123   3.845   4.028   2.844 -0.0157 -1.1886 -0.2401
 3211TIP3    H131124   3.824   4.021   2.751 -3.5866  0.7237  0.3340
 3211TIP3    H231125   3.900   4.105   2.851 -2.3123  0.5097 -0.4371
 3212TIP3   OH231126   2.061   3.797  15.159 -0.5633 -0.2181 -0.1405
 3212TIP3    H131127   2.070   3.781  15.253 -1.6714  1.0711  0.2057
 3212TIP3    H231128   2.148   3.780  15.123 -0.5728 -2.5144  0.8392
 3213TIP3   OH231129   4.774   2.478   6.004 -0.0897 -0.2513 -0.5068
 3213TIP3    H131130   4.726   2.423   6.066  0.5869  1.3293  1.4535
 3213TIP3    H231131   4.828   2.416   5.954 -0.0728 -1.4658  0.9950
 3214TIP3   OH231132   1.438   1.949   2.900 -0.6049  0.1984  0.0116
 3214TIP3    H131133   1.358   1.993   2.872 -1.6702 -0.1190  2.4832
 3214TIP3    H231134   1.476   2.007   2.966 -0.7504 -1.3924  1.5336
 3215TIP3   OH231135   1.853   5.431   3.224 -0.2715  0.3165 -0.6343
 3215TIP3    H131136   1.926   5.424   3.162 -0.0851  0.0605 -0.3837
 3215TIP3    H231137   1.775   5.415   3.170 -0.0814 -0.3503 -0.7212
 3216TIP3   OH231138   4.577   2.506   3.274  0.2405  0.1637  0.2951
 3216TIP3    H131139   4.544   2.417   3.263 -1.1634  0.5806  0.9251
 3216TIP3    H231140   4.584   2.518   3.369  0.2013  0.7968  0.2217
 3217TIP3   OH231141   1.902   1.169   3.641  0.6188 -0.1717 -0.0630
 3217TIP3    H131142   1.977   1.142   3.589 -1.2721 -3.2471 -1.3142
 3217TIP3    H231143   1.834   1.105   3.620 -2.2908  2.3908  1.1935
 3218TIP3   OH231144   2.093   3.302   2.913 -0.0635  0.1757 -0.4461
 3218TIP3    H131145   2.007   3.333   2.887 -0.3140 -0.4540 -0.3884
 3218TIP3    H231146   2.154   3.357   2.865 -0.4835  1.2296  0.2140
 3219TIP3   OH231147   0.859   5.876  14.738 -0.5015  0.0492 -0.5984
 3219TIP3    H131148   0.765   5.896  14.730 -0.8662 -1.5742 -0.5516
 3219TIP3    H231149   0.900   5.961  14.751 -1.9792  0.7778 -0.5290
 3220TIP3   OH231150   2.016   4.054   4.685  0.1403  0.1711  0.1196
 3220TIP3    H131151   1.942   4.045   4.745  0.5068  0.4766  0.6302
 3220TIP3    H231152   2.061   4.134   4.715  0.1713  0.4791 -0.7393
 3221TIP3   OH231153   0.605   5.211  13.510  0.0453 -0.3578 -0.3382
 3221TIP3    H131154   0.590   5.298  13.473  0.2660  0.0916  0.5961
 3221TIP3    H231155   0.543   5.206  13.583  0.0847 -0.9565 -0.3496
 3222TIP3   OH231156   6.282   1.993   3.749 -0.1433  0.0441 -0.7083
 3222TIP3    H131157   6.222   1.937   3.798 -0.3947  0.0613 -0.9975
 3222TIP3    H231158   6.300   2.066   3.809 -0.6786  0.2113 -0.7483
 3223TIP3   OH231159   4.454   6.549  11.688  0.1048  0.0024  0.3963
 3223TIP3    H131160   4.530   6.600  11.714  0.9657 -0.7843 -0.5073
 3223TIP3    H231161   4.439   6.489  11.761 -1.0768  1.6822  1.5754
 3224TIP3   OH231162   2.536   4.219  13.765  0.2613  0.2945 -0.1215
 3224TIP3    H131163   2.585   4.298  13.744  0.5362 -0.0844 -0.8903
 3224TIP3    H231164   2.601   4.159  13.801 -0.1109  0.7548  1.3850
 3225TIP3   OH231165   2.423   0.956  11.060 -0.3926  0.1868  0.6402
 3225TIP3    H131166   2.341   0.935  11.015 -1.1250  0.3574  1.8586
 3225TIP3    H231167   2.444   1.045  11.032 -1.3634  0.6593  1.3807
 3226TIP3   OH231168   4.253   2.138   5.279  0.1078  0.3092 -0.1617
 3226TIP3    H131169   4.340   2.121   5.243  0.8742  1.3233  1.1596
 3226TIP3    H231170   4.233   2.227   5.250 -0.6338 -0.0420 -0.7338
 3227TIP3   OH231171   0.662   4.138   4.025 -0.3816  0.4625 -0.1953
 3227TIP3    H131172   0.611   4.210   4.061 -1.7164 -0.0773 -0.9641
 3227TIP3    H231173   0.698   4.093   4.102  1.3259  2.5308  0.2594
 3228TIP3   OH231174   3.067   1.455  16.990  0.2545  0.2569 -0.1079
 3228TIP3    H131175   3.133   1.462  16.922  0.6588 -1.3562  0.0971
 3228TIP3    H231176   3.109   1.405  17.060 -0.9680 -0.2221  0.2966
 3229TIP3   OH231177   6.787   3.952   5.627 -0.8055  0.2523  0.2119
 3229TIP3    H131178   6.733   3.921   5.699 -0.4373 -2.2765 -0.5373
 3229TIP3    H231179   6.875   3.921   5.648 -0.6741 -0.4402 -1.2298
 3230TIP3   OH231180   3.633   6.328  16.058 -0.0283 -0.4271  0.3964
 3230TIP3    H131181   3.557   6.304  16.004  0.6292 -1.1826 -0.1991
 3230TIP3    H231182   3.672   6.402  16.013  0.0120 -0.5016  0.3084
 3231TIP3   OH231183   3.417   1.012   1.105 -0.2270  0.2058  0.1014
 3231TIP3    H131184   3.375   1.093   1.132  1.5062  0.5328  1.8999
 3231TIP3    H231185   3.510   1.027   1.121  0.0719 -2.2912  0.8920
 3232TIP3   OH231186   6.407   4.859  14.198  0.1518 -0.3461  0.0587
 3232TIP3    H131187   6.486   4.846  14.250  1.8335  0.2437 -2.2245
 3232TIP3    H231188   6.431   4.826  14.111 -1.7146  0.9690 -0.9839
 3233TIP3   OH231189   0.861   5.897   6.152 -0.0410  0.1245 -0.1150
 3233TIP3    H131190   0.921   5.854   6.213 -0.9710  0.1235  0.8143
 3233TIP3    H231191   0.776   5.896   6.196 -0.4698  1.2633 -0.8630
 3234TIP3   OH231192   6.305   3.007  12.260 -0.0114  0.3153  0.1484
 3234TIP3    H131193   6.332   2.929  12.307 -0.5940 -0.5816 -0.9752
 3234TIP3    H231194   6.378   3.068  12.269  0.9062 -0.7751  0.0700
 3235TIP3   OH231195   6.481   3.692  14.981  0.1109 -0.1378  0.3552
 3235TIP3    H131196   6.437   3.656  15.058  0.3144 -2.1859 -0.4538
 3235TIP3    H231197   6.574   3.678  14.998  0.1362 -1.0430 -0.4553
 3236TIP3   OH231198   4.410   2.912  10.653 -0.2511 -0.0225  0.3643
 3236TIP3    H131199   4.463   2.846  10.698 -0.6838 -1.1845 -0.8038
 3236TIP3    H231200   4.320   2.881  10.660 -0.6054  1.0600  0.8256
 3237TIP3   OH231201   6.362   1.620  17.010  0.3133 -0.0815 -0.1743
 3237TIP3    H131202   6.436   1.646  17.065 -0.6149 -0.7328  1.4331
 3237TIP3    H231203   6.398   1.552  16.953  1.3487  0.7486 -0.5299
 3238TIP3   OH231204   6.163   3.741   5.250  0.1368  0.1582  0.4904
 3238TIP3    H131205   6.225   3.690   5.303  1.4741 -0.4074 -1.5714
 3238TIP3    H231206   6.082   3.691   5.253  0.3422 -0.1143  1.6065
 3239TIP3   OH231207   5.407   2.069   1.839  0.1142 -0.2122  0.4062
 3239TIP3    H131208   5.387   2.029   1.924 -1.4928  1.3384  0.7894
 3239TIP3    H231209   5.503   2.071   1.836  0.1966 -0.9284  1.8599
 3240TIP3   OH231210   6.133   1.912   1.814 -0.3289  0.3319  0.4271
 3240TIP3    H131211   6.163   1.989   1.862  0.5628 -0.2756  0.8399
 3240TIP3    H231212   6.204   1.892   1.753 -0.7833  0.1486 -0.0506
 3241TIP3   OH231213   1.033   4.470   3.338  0.0675  0.0977 -0.1086
 3241TIP3    H131214   1.055   4.386   3.297 -2.0341 -0.3703 -0.3397
 3241TIP3    H231215   0.952   4.453   3.385  1.2444  1.2436  2.4059
 3242TIP3   OH231216   3.543   3.611   4.810  0.2741  0.1545 -0.0086
 3242TIP3    H131217   3.636   3.597   4.792 -0.2073 -1.6408 -1.3075
 3242TIP3    H231218   3.523   3.693   4.766  0.7444 -0.6479 -1.7983
 3243TIP3   OH231219   4.438   4.920  16.328  0.0590 -0.0631  1.0688
 3243TIP3    H131220   4.374   4.889  16.264 -1.1034 -1.7443  2.9744
 3243TIP3    H231221   4.522   4.884  16.298 -0.3850 -0.3703  0.1998
 3244TIP3   OH231222   5.983   2.228   2.667 -0.2604 -0.0885 -0.1161
 3244TIP3    H131223   5.999   2.167   2.594  0.4314  0.3543 -0.3461
 3244TIP3    H231224   5.953   2.172   2.739  0.8567 -0.7865 -0.1644
 3245TIP3   OH231225   0.432   4.532   2.573  0.1924  0.6632 -0.4017
 3245TIP3    H131226   0.454   4.519   2.481  2.3995  0.3879  0.1267
 3245TIP3    H231227   0.475   4.614   2.596 -1.4679  1.4152  0.0535
 3246TIP3   OH231228   1.317   0.839  14.151  0.1758  0.1544  0.0256
 3246TIP3    H131229   1.371   0.773  14.107  0.6517  0.5204  0.0587
 3246TIP3    H231230   1.342   0.833  14.243  0.2684  0.4311  0.0195
 3247TIP3   OH231231   5.722   2.509  12.900  0.3599 -0.3266  0.3093
 3247TIP3    H131232   5.761   2.597  12.897  0.4531 -0.3939 -1.0552
 3247TIP3    H231233   5.789   2.453  12.861 -0.5370 -0.6703 -0.7547
 3248TIP3   OH231234   6.502   0.397   2.679 -0.6685  0.1202  0.3088
 3248TIP3    H131235   6.512   0.459   2.751  1.5224 -0.4395  0.5095
 3248TIP3    H231236   6.556   0.433   2.608  0.5461 -1.4835  0.3953
 3249TIP3   OH231237   2.242   4.754  13.429  0.2641  0.1291 -0.3007
 3249TIP3    H131238   2.290   4.774  13.348 -2.7938  1.6484 -1.7998
 3249TIP3    H231239   2.233   4.839  13.473  0.5105 -0.4449  0.8672
 3250TIP3   OH231240   5.381   5.544  15.138 -0.0463 -0.7288 -0.2047
 3250TIP3    H131241   5.463   5.510  15.174 -0.5787 -1.2588  0.5071
 3250TIP3    H231242   5.328   5.566  15.214  0.1238  1.3450 -0.6517
 3251TIP3   OH231243   0.546   0.286  16.543 -0.2033 -0.1323 -0.1696
 3251TIP3    H131244   0.624   0.286  16.488  1.4047 -0.0175  2.0630
 3251TIP3    H231245   0.515   0.195  16.539  1.1613 -0.6432  0.4548
 3252TIP3   OH231246   5.931   5.892  16.661 -0.7597 -0.1697 -0.0049
 3252TIP3    H131247   6.000   5.856  16.605 -0.9869 -1.4875  0.5513
 3252TIP3    H231248   5.871   5.819  16.675 -2.6057  1.1209 -0.9949
 3253TIP3   OH231249   0.749   6.214  16.163  0.0051  0.3770  0.0198
 3253TIP3    H131250   0.686   6.262  16.218 -0.4913 -1.3622  1.0294
 3253TIP3    H231251   0.712   6.219  16.075 -2.1488 -1.5053  0.7617
 3254TIP3   OH231252   2.875   4.951  17.121 -0.0333  0.2922 -0.2626
 3254TIP3    H131253   2.835   4.874  17.162  1.3950  0.2288  1.0581
 3254TIP3    H231254   2.935   4.985  17.188  1.4312  0.9106 -1.8627
 3255TIP3   OH231255   0.123   1.890  11.586 -0.2375  0.5453 -0.5065
 3255TIP3    H131256   0.037   1.883  11.543  0.7839  2.5717 -2.9900
 3255TIP3    H231257   0.178   1.827  11.539  0.2678  1.0173 -0.5499
 3256TIP3   OH231258   2.240   2.451   5.710  0.0637  0.5142 -0.2285
 3256TIP3    H131259   2.204   2.479   5.794 -1.5942 -0.1670 -0.6832
 3256TIP3    H231260   2.192   2.371   5.689  2.2078 -0.6954 -0.6618
 3257TIP3   OH231261   3.468   0.062   4.803  0.5270  0.3322 -0.0080
 3257TIP3    H131262   3.502   0.151   4.803  0.7441  0.2539  0.3368
 3257TIP3    H231263   3.435   0.048   4.714  0.4910  0.7538 -0.0604
 3258TIP3   OH231264   3.643   6.575  16.628 -1.1011 -0.1470  0.1925
 3258TIP3    H131265   3.714   6.526  16.587 -0.0840 -0.4099  2.1884
 3258TIP3    H231266   3.664   6.573  16.722 -0.7516  4.5309  0.3234
 3259TIP3   OH231267   6.691   2.774   1.589  0.0206 -0.8122 -0.1554
 3259TIP3    H131268   6.676   2.737   1.676 -1.6802 -2.2913 -1.0595
 3259TIP3    H231269   6.640   2.855   1.589  1.0509 -0.1420  0.6445
 3260TIP3   OH231270   4.451   5.766   3.613 -0.1678 -0.6185  0.2642
 3260TIP3    H131271   4.414   5.839   3.662 -0.5720 -1.3719  1.0743
 3260TIP3    H231272   4.467   5.803   3.525 -2.9893 -0.3253 -0.1660
 3261TIP3   OH231273   4.204   6.793  13.736  0.3161  0.0723  0.1931
 3261TIP3    H131274   4.279   6.747  13.698  0.4608  0.6894 -0.2770
 3261TIP3    H231275   4.194   6.872  13.682 -1.5011 -0.6671 -0.5955
 3262TIP3   OH231276   6.472   2.228   0.645 -0.0900 -0.3614  0.1102
 3262TIP3    H131277   6.503   2.151   0.597  1.0977  0.0157  0.2686
 3262TIP3    H231278   6.387   2.249   0.605 -0.7858 -2.2027  0.5712
 3263TIP3   OH231279   6.390   5.650   1.525  0.1904  0.5557  0.7744
 3263TIP3    H131280   6.332   5.603   1.584 -0.2392 -1.8964 -1.4739
 3263TIP3    H231281   6.476   5.645   1.567 -0.3370 -0.0767  1.7866
 3264TIP3   OH231282   3.249   5.033   2.260 -0.4789  0.5086  0.5851
 3264TIP3    H131283   3.264   4.957   2.316  2.4707  0.5817 -0.0201
 3264TIP3    H231284   3.234   4.997   2.173  0.3217  0.5783  0.4133
 3265TIP3   OH231285   4.255   1.231   6.672 -0.8391  0.1721  0.3695
 3265TIP3    H131286   4.246   1.139   6.696 -0.9696  0.3463  0.9862
 3265TIP3    H231287   4.349   1.244   6.660 -1.0187 -0.7315 -2.4525
 3266TIP3   OH231288   6.785   6.020  14.515  0.4041  0.1040  0.5739
 3266TIP3    H131289   6.801   5.926  14.504  1.3080  0.4849 -1.3734
 3266TIP3    H231290   6.694   6.032  14.487  0.8483  0.1051 -0.8602
 3267TIP3   OH231291   1.530   6.156  15.429  0.1060  0.2039 -0.3859
 3267TIP3    H131292   1.498   6.213  15.498 -0.2270 -1.6474  1.0436
 3267TIP3    H231293   1.456   6.150  15.368 -0.3205  0.2763  0.1161
 3268TIP3   OH231294   5.663   6.269   4.768 -0.3086  0.1825 -0.1263
 3268TIP3    H131295   5.704   6.352   4.744 -1.7989  1.1856  0.7168
 3268TIP3    H231296   5.693   6.208   4.701 -0.1407  1.6766 -1.4477
 3269TIP3   OH231297   4.074   6.077   1.042 -0.2371 -0.2411  0.4530
 3269TIP3    H131298   3.998   6.030   1.005 -1.2470  1.5335  0.2078
 3269TIP3    H231299   4.101   6.024   1.116 -1.3579 -1.2212  0.1731
 3270TIP3   OH231300   6.734   0.477   2.563 -0.0269  0.3259 -0.2766
 3270TIP3    H131301   6.787   0.402   2.537  0.2451  0.9648 -1.6041
 3270TIP3    H231302   6.798   0.542   2.593 -0.2184  0.2752  0.2549
 3271TIP3   OH231303   6.683   2.947  13.871 -0.4684 -0.0345 -0.3788
 3271TIP3    H131304   6.704   2.969  13.781 -0.7465  0.2931 -0.3645
 3271TIP3    H231305   6.716   2.858  13.882 -1.5004 -0.5340 -1.1694
 3272TIP3   OH231306   1.419   4.826  10.947  0.0164  0.1525 -0.0063
 3272TIP3    H131307   1.421   4.746  10.896  1.2156 -0.0770  0.3944
 3272TIP3    H231308   1.449   4.894  10.887  1.3101 -0.0978  0.3507
 3273TIP3   OH231309   0.549   3.625   3.642 -0.3819 -1.0705 -0.2300
 3273TIP3    H131310   0.611   3.552   3.641  2.7692  1.5329 -2.2874
 3273TIP3    H231311   0.543   3.652   3.550  1.4360  3.5972  0.9253
 3274TIP3   OH231312   3.206   6.160  15.464 -0.2710 -0.0026  0.1097
 3274TIP3    H131313   3.174   6.101  15.532  1.8872 -0.7274  0.5276
 3274TIP3    H231314   3.181   6.248  15.495 -0.3600 -0.4184  1.2579
 3275TIP3   OH231315   1.270   3.741  14.311  0.5812 -0.0197 -0.2139
 3275TIP3    H131316   1.269   3.686  14.232  0.2244 -0.1020 -0.1540
 3275TIP3    H231317   1.233   3.824  14.282  0.9325  0.1216 -0.2546
 3276TIP3   OH231318   1.975   4.459  14.800  0.0320 -0.4687  0.6176
 3276TIP3    H131319   1.914   4.434  14.730  0.6669 -1.2390  0.3281
 3276TIP3    H231320   1.995   4.376  14.844  1.1131 -0.2642  0.5055
 3277TIP3   OH231321   5.691   4.436   2.850  0.2702  0.5030  0.0313
 3277TIP3    H131322   5.612   4.476   2.815  1.2414  1.5890 -0.9639
 3277TIP3    H231323   5.698   4.471   2.939  0.5417  1.7560 -0.4701
 3278TIP3   OH231324   3.898   1.550  11.382 -0.1940 -0.0153 -0.6566
 3278TIP3    H131325   3.927   1.465  11.350 -1.0046 -0.2291 -0.8317
 3278TIP3    H231326   3.846   1.586  11.311 -2.2223 -0.6023  0.4809
 3279TIP3   OH231327   4.964   5.400  13.715  0.0025 -0.3362  0.3085
 3279TIP3    H131328   4.973   5.351  13.796 -2.3821 -1.1352  0.1168
 3279TIP3    H231329   5.004   5.343  13.649 -0.2713 -0.7857  0.5269
 3280TIP3   OH231330   1.107   4.795   2.916 -0.5109  0.4011 -0.3850
 3280TIP3    H131331   1.022   4.829   2.888 -0.4180 -0.5155 -1.8023
 3280TIP3    H231332   1.145   4.866   2.968 -2.3036  0.6671  0.6113
 3281TIP3   OH231333   6.250   4.473  17.272  0.5378  0.0429  0.0276
 3281TIP3    H131334   6.233   4.527  17.349 -1.0246 -1.8591  1.0553
 3281TIP3    H231335   6.289   4.393  17.307 -0.2922 -0.8797 -1.1253
 3282TIP3   OH231336   2.477   5.901   2.598 -0.2041  0.2575  0.2255
 3282TIP3    H131337   2.423   5.843   2.545 -0.8172  1.4565 -0.4790
 3282TIP3    H231338   2.419   5.933   2.666 -0.0321  0.5199  0.2502
 3283TIP3   OH231339   5.845   1.035  12.045 -0.0501  0.2396  0.7037
 3283TIP3    H131340   5.833   1.076  12.130 -0.9823 -1.3758  1.3585
 3283TIP3    H231341   5.793   1.089  11.985 -2.2894 -0.7156  1.7701
 3284TIP3   OH231342   5.205   6.667   5.752  0.6945  0.3255 -0.1882
 3284TIP3    H131343   5.202   6.758   5.722  0.8010  0.6970  0.8894
 3284TIP3    H231344   5.164   6.670   5.839  0.9160 -0.6163 -0.0501
 3285TIP3   OH231345   1.363   2.363   4.071 -0.5094  0.0962 -0.1870
 3285TIP3    H131346   1.423   2.294   4.045 -0.7542  0.3206 -1.3716
 3285TIP3    H231347   1.407   2.445   4.047 -0.4382  0.3394  0.7460
 3286TIP3   OH231348   4.114   3.077   3.748 -0.3244 -0.1422 -0.2800
 3286TIP3    H131349   4.086   3.027   3.672 -0.3512  1.2629 -1.2121
 3286TIP3    H231350   4.033   3.100   3.793 -0.4716  0.8433 -1.0144
 3287TIP3   OH231351   2.750   6.057   6.487 -0.1483  0.1654  0.7823
 3287TIP3    H131352   2.697   6.067   6.566  0.3488  0.6863  1.0553
 3287TIP3    H231353   2.837   6.085   6.514  0.0764  0.0995  0.1137
 3288TIP3   OH231354   6.418   2.819   5.221  0.0646  0.4948  0.8023
 3288TIP3    H131355   6.431   2.782   5.133 -1.5037  1.1886  0.2532
 3288TIP3    H231356   6.376   2.750   5.271  0.6033  0.2313  0.8900
 3289TIP3   OH231357   2.681   6.776  13.368 -0.0852  0.1005 -0.6102
 3289TIP3    H131358   2.777   6.780  13.361  0.0634 -0.6020  0.9146
 3289TIP3    H231359   2.663   6.689  13.401 -1.1586  0.8165  0.7222
 3290TIP3   OH231360   2.218   5.316   5.725  0.0818 -0.1006 -0.1858
 3290TIP3    H131361   2.204   5.341   5.816  0.7083  0.3300 -0.2042
 3290TIP3    H231362   2.132   5.287   5.695 -0.3244  0.5998  0.2803
 3291TIP3   OH231363   5.066   3.058  11.248  0.3413  0.4794  0.0986
 3291TIP3    H131364   5.070   3.073  11.153 -0.8996  2.3307  0.3019
 3291TIP3    H231365   5.148   3.093  11.281  1.1548 -0.9683 -0.3947
 3292TIP3   OH231366   6.434   3.094  12.990  0.4736 -0.0427 -0.0268
 3292TIP3    H131367   6.510   3.100  13.048  1.7637  0.6143 -1.7551
 3292TIP3    H231368   6.464   3.041  12.916 -0.5555  0.7200 -1.0125
 3293TIP3   OH231369   0.486   5.231  11.021 -0.0127  0.1099 -0.3278
 3293TIP3    H131370   0.552   5.272  11.076  0.9881  1.4117 -2.4555
 3293TIP3    H231371   0.440   5.304  10.979 -0.7807 -0.8481 -1.1935
 3294TIP3   OH231372   3.356   5.337  16.495 -0.3146  0.5206 -0.0322
 3294TIP3    H131373   3.441   5.331  16.452 -1.4580  0.5780 -2.3409
 3294TIP3    H231374   3.344   5.252  16.537  1.1109  0.7049  0.7893
 3295TIP3   OH231375   2.962   4.149  17.116  0.2718  0.7240 -0.2727
 3295TIP3    H131376   2.903   4.089  17.161  0.3395  1.0954  0.3256
 3295TIP3    H231377   2.975   4.220  17.179  1.4083  0.6032 -0.3595
 3296TIP3   OH231378   0.742   0.699   5.960  0.0262 -0.3692 -0.0720
 3296TIP3    H131379   0.710   0.611   5.974  0.2697 -0.2856  1.0979
 3296TIP3    H231380   0.792   0.694   5.878  0.0348 -1.3071 -0.0142
 3297TIP3   OH231381   6.474   6.810  14.483 -0.1171 -0.4904 -0.2091
 3297TIP3    H131382   6.534   6.792  14.411  1.0147 -0.1874  0.6322
 3297TIP3    H231383   6.506   6.757  14.556 -0.4033  0.2565  0.4773
 3298TIP3   OH231384   2.943   2.613   5.197  0.0983 -0.4153  0.4256
 3298TIP3    H131385   2.973   2.643   5.111 -1.2979 -1.3269 -0.3851
 3298TIP3    H231386   2.997   2.537   5.216 -0.1437 -0.6972 -0.0108
 3299TIP3   OH231387   2.913   3.892  16.941 -0.3800 -0.0580  0.1614
 3299TIP3    H131388   2.927   3.815  16.886 -0.8403 -0.2806  0.3507
 3299TIP3    H231389   2.965   3.961  16.900  0.6454 -0.6632  0.4256
 3300TIP3   OH231390   1.998   1.682   0.362  0.2703 -0.4494  0.0864
 3300TIP3    H131391   2.051   1.604   0.346 -0.3209 -0.8330 -0.0183
 3300TIP3    H231392   1.932   1.654   0.426 -0.2840 -0.1847 -0.3603
 3301TIP3   OH231393   5.906   4.329  16.217 -0.2647 -0.3694  0.4769
 3301TIP3    H131394   5.871   4.410  16.254 -1.4621 -0.3072 -0.7842
 3301TIP3    H231395   5.910   4.344  16.123  0.4599 -1.4287  0.3252
 3302TIP3   OH231396   1.388   0.159  12.750 -0.6000  0.6466  0.0078
 3302TIP3    H131397   1.392   0.070  12.787 -0.5312  1.3331  1.7011
 3302TIP3    H231398   1.473   0.170  12.707  0.4302  0.8040  2.0169
 3303TIP3   OH231399   0.915   5.172   5.987  0.6072  0.1130  0.0407
 3303TIP3    H131400   0.940   5.145   6.075 -1.3589 -0.8061  0.3555
 3303TIP3    H231401   0.895   5.089   5.942 -4.3323  0.7818  0.6462
 3304TIP3   OH231402   5.532   2.418   2.074 -0.3649  0.3073 -0.4729
 3304TIP3    H131403   5.507   2.503   2.037 -1.2618  0.4165  0.3708
 3304TIP3    H231404   5.625   2.428   2.097 -0.6564  1.3011  0.2971
 3305TIP3   OH231405   3.179   3.162  11.101  0.3508 -0.1988  0.3242
 3305TIP3    H131406   3.221   3.090  11.149  0.7910 -0.5992 -0.6554
 3305TIP3    H231407   3.198   3.144  11.009 -0.2263  0.7394  0.0159
 3306TIP3   OH231408   3.688   5.250  13.683 -0.4324  0.1586 -0.2349
 3306TIP3    H131409   3.707   5.195  13.759 -1.5480  1.2011  0.8116
 3306TIP3    H231410   3.684   5.339  13.718 -1.8116  0.5604 -1.3552
 3307TIP3   OH231411   4.055   6.143  13.609  0.1379 -0.1516  0.4059
 3307TIP3    H131412   4.002   6.219  13.586  0.7495  0.6060  1.4606
 3307TIP3    H231413   4.094   6.115  13.526 -1.8995 -0.7346 -0.3760
 3308TIP3   OH231414   2.154   0.913  15.453 -0.2305 -0.2602 -0.0562
 3308TIP3    H131415   2.127   0.954  15.371  0.1580 -3.0520 -1.6555
 3308TIP3    H231416   2.246   0.888  15.439  0.3718  0.7397  1.8761
 3309TIP3   OH231417   0.508   6.516   4.839  0.2738 -1.1014  0.4541
 3309TIP3    H131418   0.496   6.575   4.913 -1.2886 -0.2742 -0.4340
 3309TIP3    H231419   0.420   6.489   4.816  0.6043 -0.1176 -2.0934
 3310TIP3   OH231420   0.009   4.529   1.282  0.1473 -0.0861  0.7589
 3310TIP3    H131421   0.076   4.515   1.349 -1.0915 -1.0022  1.8530
 3310TIP3    H231422   0.031   4.467   1.213 -0.0256 -0.9686  1.4798
 3311TIP3   OH231423   1.897   1.819   2.966  0.3489 -0.3517  0.4456
 3311TIP3    H131424   1.969   1.764   2.998  0.8177  0.7661  1.3898
 3311TIP3    H231425   1.912   1.904   3.009 -0.2897  0.5343 -1.0644
 3312TIP3   OH231426   1.213   5.518   2.455 -0.2003 -0.2797  0.4627
 3312TIP3    H131427   1.300   5.481   2.467  0.0547  1.3150  4.4301
 3312TIP3    H231428   1.170   5.504   2.540 -3.5335 -0.3195 -1.1684
 3313TIP3   OH231429   4.896   5.517  11.022 -0.0073  0.6176 -0.1294
 3313TIP3    H131430   4.968   5.482  10.969  0.2692 -0.6810  1.0819
 3313TIP3    H231431   4.819   5.508  10.966  0.3771 -0.2199 -0.5356
 3314TIP3   OH231432   5.978   3.667  12.032  0.2067 -0.6051 -0.0006
 3314TIP3    H131433   6.028   3.742  12.001  1.1225 -0.6094  1.3756
 3314TIP3    H231434   6.038   3.593  12.023  0.0911 -0.7886  0.6845
 3315TIP3   OH231435   6.400   3.261  12.535 -0.6782 -0.7513  0.1798
 3315TIP3    H131436   6.383   3.176  12.495 -1.5567  0.2558 -1.6547
 3315TIP3    H231437   6.314   3.302  12.542 -0.2328  0.1151  0.7768
 3316TIP3   OH231438   4.297   2.560  16.213  0.2866  0.1725 -0.2281
 3316TIP3    H131439   4.373   2.527  16.165 -0.5818  0.6291 -1.9331
 3316TIP3    H231440   4.260   2.628  16.156 -2.9768 -1.9029 -0.6571
 3317TIP3   OH231441   4.092   3.118   3.282 -0.2973 -0.2557 -0.0620
 3317TIP3    H131442   4.076   3.118   3.188 -1.4811  2.3226  0.0944
 3317TIP3    H231443   4.013   3.082   3.321  0.6105 -2.3551 -0.0523
 3318TIP3   OH231444   3.884   6.375   0.812  0.1016 -0.0687  0.2285
 3318TIP3    H131445   3.789   6.363   0.806  0.4051 -2.0773 -1.0811
 3318TIP3    H231446   3.897   6.425   0.892 -2.0102 -0.6414  0.9613
 3319TIP3   OH231447   4.523   2.288  15.053 -0.2873  0.0225 -0.0396
 3319TIP3    H131448   4.480   2.276  15.137  0.0121  0.4793  0.1786
 3319TIP3    H231449   4.597   2.346  15.071 -0.3698  0.3332 -0.6622
 3320TIP3   OH231450   3.323   4.140   5.801 -0.0344  0.0329  0.1050
 3320TIP3    H131451   3.356   4.202   5.867  1.1908 -0.3357 -0.1561
 3320TIP3    H231452   3.397   4.126   5.743 -0.6990 -0.7303 -0.5534
 3321TIP3   OH231453   1.228   0.762  16.429 -0.0138  0.4616  0.6198
 3321TIP3    H131454   1.248   0.756  16.336  2.0640 -0.7789  1.1105
 3321TIP3    H231455   1.271   0.842  16.458  1.4857 -0.4863  1.0205
 3322TIP3   OH231456   0.154   0.539  13.318 -0.1313 -0.2242  0.0213
 3322TIP3    H131457   0.247   0.514  13.317 -0.7680 -2.6519 -1.2025
 3322TIP3    H231458   0.146   0.596  13.394  2.0593 -1.2076  1.0547
 3323TIP3   OH231459   3.231   3.586  14.695 -0.0564 -0.0980  0.7274
 3323TIP3    H131460   3.261   3.674  14.715 -0.6672  0.6874 -1.6019
 3323TIP3    H231461   3.310   3.532  14.696  0.7607  1.0375 -0.6515
 3324TIP3   OH231462   5.631   2.997  15.848 -0.7448  0.1379  0.3219
 3324TIP3    H131463   5.659   3.059  15.914 -1.7930  1.1078 -0.1339
 3324TIP3    H231464   5.587   2.927  15.897  0.3198 -0.1849  0.8188
 3325TIP3   OH231465   3.013   1.331   0.639  0.4741  0.3492 -0.2102
 3325TIP3    H131466   2.936   1.370   0.598  0.6262  1.0456  0.1488
 3325TIP3    H231467   3.055   1.281   0.569  0.2915  0.8617 -0.6970
 3326TIP3   OH231468   4.668   2.352   1.953 -0.5376  0.9271  0.3837
 3326TIP3    H131469   4.691   2.423   1.893 -0.3784  0.5964  0.0414
 3326TIP3    H231470   4.679   2.389   2.040 -3.3395  2.2436  0.2316
 3327TIP3   OH231471   4.683   6.343   4.010 -0.3120  0.1661  0.4340
 3327TIP3    H131472   4.590   6.321   4.017 -0.0192 -0.8649  1.1662
 3327TIP3    H231473   4.684   6.431   3.971 -1.5682 -0.1687 -0.4049
 3328TIP3   OH231474   3.652   5.213  16.097 -0.3065 -0.4351 -0.5287
 3328TIP3    H131475   3.663   5.120  16.077 -1.3808 -1.0277  1.4673
 3328TIP3    H231476   3.700   5.225  16.179 -0.0773  0.7920 -0.8417
 3329TIP3   OH231477   5.093   0.329  15.346 -0.5756 -0.0199 -0.3448
 3329TIP3    H131478   5.053   0.349  15.261  0.2565  1.4039 -0.4126
 3329TIP3    H231479   5.112   0.235  15.342  0.1024  0.1736 -1.9971
 3330TIP3   OH231480   0.709   0.317   3.888 -0.3291 -0.2375  0.1621
 3330TIP3    H131481   0.718   0.343   3.979 -0.9961  0.7762 -0.0540
 3330TIP3    H231482   0.799   0.303   3.858 -0.0710  0.0310  0.7967
 3331TIP3   OH231483   6.755   6.798   2.141 -0.6478 -0.2416 -0.5253
 3331TIP3    H131484   6.768   6.704   2.154 -0.0876 -0.0286  0.5357
 3331TIP3    H231485   6.715   6.828   2.223  1.4462  0.8829  0.1260
 3332TIP3   OH231486   6.479   1.443  15.315  0.1374 -0.1298  0.7015
 3332TIP3    H131487   6.566   1.419  15.283 -0.0599  0.7988 -0.5624
 3332TIP3    H231488   6.496   1.480  15.402  0.9705 -0.2246  0.5873
 3333TIP3   OH231489   0.584   5.584   4.860 -0.0758  0.7575  0.1408
 3333TIP3    H131490   0.660   5.529   4.841  0.0910  0.8060  0.6468
 3333TIP3    H231491   0.508   5.531   4.834  0.1617  0.9592 -0.9438
 3334TIP3   OH231492   3.753   1.143  14.945  0.2064  0.1081  0.4269
 3334TIP3    H131493   3.818   1.093  14.994 -0.1253  0.4552  1.2343
 3334TIP3    H231494   3.795   1.162  14.861  1.1191  0.2772  0.9218
 3335TIP3   OH231495   0.357   6.436   0.103 -0.2422  0.2189 -0.1402
 3335TIP3    H131496   0.346   6.382   0.182  0.3681 -0.0425 -0.2323
 3335TIP3    H231497   0.319   6.521   0.126  1.6252  0.7477  1.0889
 3336TIP3   OH231498   3.380   5.237   4.246 -0.6923 -0.0373 -0.1349
 3336TIP3    H131499   3.421   5.313   4.204 -0.8300 -0.8221 -1.6988
 3336TIP3    H231500   3.443   5.211   4.314 -0.7376  1.5813  0.5586
 3337TIP3   OH231501   5.634   4.003   0.560 -0.7679  0.3472  0.2560
 3337TIP3    H131502   5.609   4.032   0.647 -1.3927  0.6997 -0.0349
 3337TIP3    H231503   5.618   4.079   0.504  1.1833  0.6704  0.0875
 3338TIP3   OH231504   1.077   4.980   4.656  0.3317  0.2600 -0.4186
 3338TIP3    H131505   1.043   4.891   4.667  1.5846 -0.1589  0.2552
 3338TIP3    H231506   1.153   4.969   4.599  0.4247  0.9098 -0.4241
 3339TIP3   OH231507   0.290   1.589   1.346  0.1948  0.2043  0.5435
 3339TIP3    H131508   0.329   1.520   1.292 -1.5929 -2.7327  2.8706
 3339TIP3    H231509   0.212   1.616   1.297 -0.4790 -1.2214  0.8172
 3340TIP3   OH231510   3.868   2.945   5.652  0.2168  0.0571 -0.0200
 3340TIP3    H131511   3.776   2.925   5.635 -0.0717  0.1799  1.3045
 3340TIP3    H231512   3.869   2.982   5.741  1.8377 -2.4007  1.0544
 3341TIP3   OH231513   5.401   2.506  14.962  0.0345  0.4457 -0.6099
 3341TIP3    H131514   5.322   2.540  14.919  0.8438  0.4845 -2.1010
 3341TIP3    H231515   5.440   2.447  14.898  2.1122  1.7085 -0.5522
 3342TIP3   OH231516   6.262   3.030   2.319 -0.4664 -0.0794 -0.0851
 3342TIP3    H131517   6.276   2.978   2.398  2.3118 -0.2286 -0.6176
 3342TIP3    H231518   6.220   3.110   2.349  0.7137 -0.0728  1.5881
 3343TIP3   OH231519   4.477   4.042   2.595 -0.2533  0.0139 -0.2093
 3343TIP3    H131520   4.496   4.125   2.551  0.8643 -0.0170  0.2160
 3343TIP3    H231521   4.475   3.978   2.524  0.2186  0.1814 -0.3740
 3344TIP3   OH231522   0.031   1.147   4.048 -0.0599 -0.1624  0.2025
 3344TIP3    H131523   0.037   1.103   4.133 -0.1358 -0.3586  0.1049
 3344TIP3    H231524   0.033   1.241   4.070 -0.7005 -0.2080  0.4699
 3345TIP3   OH231525   3.822   5.859  15.779 -0.1909 -0.2902 -0.2868
 3345TIP3    H131526   3.737   5.861  15.822  0.4566  0.9747  0.9594
 3345TIP3    H231527   3.854   5.770  15.793 -2.5635 -1.7459 -3.3315
 3346TIP3   OH231528   0.074   1.958   3.506  0.6535 -0.0855  0.8654
 3346TIP3    H131529   0.119   1.878   3.478  3.2215  1.3693  0.6682
 3346TIP3    H231530   0.056   2.006   3.425  0.8630  0.4021  1.0996
 3347TIP3   OH231531   3.175   4.937   1.996 -0.1683 -0.1737  0.0868
 3347TIP3    H131532   3.155   4.845   1.975 -1.9419  0.4984 -1.3045
 3347TIP3    H231533   3.159   4.984   1.914 -0.9518  1.6237  1.2485
 3348TIP3   OH231534   0.253   2.466  13.663  0.3311  0.2336 -0.3244
 3348TIP3    H131535   0.260   2.445  13.756  1.2562 -1.0646 -0.6685
 3348TIP3    H231536   0.197   2.397  13.627  0.7018  0.2191 -0.8793
 3349TIP3   OH231537   5.717   5.509   1.443 -0.2189  0.9251 -0.2862
 3349TIP3    H131538   5.671   5.472   1.368 -3.2292 -0.0460  1.9761
 3349TIP3    H231539   5.721   5.603   1.424 -0.9894  0.7010 -1.6348
 3350TIP3   OH231540   6.125   1.085  15.919 -0.2538  0.1455 -0.0015
 3350TIP3    H131541   6.216   1.070  15.944 -0.6373 -0.5573  1.0160
 3350TIP3    H231542   6.128   1.160  15.860  1.0052  0.0082 -0.1263
 3351TIP3   OH231543   6.141   5.301   3.663  0.1922 -0.1329  0.2711
 3351TIP3    H131544   6.181   5.338   3.742 -1.2684  1.4988  0.2783
 3351TIP3    H231545   6.142   5.373   3.600 -0.5161 -0.8051 -0.5083
 3352TIP3   OH231546   2.233   6.523   6.709  0.5042  0.1024  0.2063
 3352TIP3    H131547   2.218   6.463   6.782 -0.0555  0.7394  0.6201
 3352TIP3    H231548   2.182   6.601   6.731  0.2684  0.2732 -0.8921
 3353TIP3   OH231549   5.844   6.101   5.424  0.3210  0.7265  0.2955
 3353TIP3    H131550   5.775   6.125   5.362 -0.1516  3.0044  1.6698
 3353TIP3    H231551   5.908   6.171   5.416  2.5807 -1.3664 -0.9911
 3354TIP3   OH231552   1.444   5.187  13.701 -0.0726 -0.4448  0.0486
 3354TIP3    H131553   1.527   5.178  13.748  0.2277 -0.6117 -0.5097
 3354TIP3    H231554   1.430   5.103  13.659 -0.8134 -0.5989  0.5986
 3355TIP3   OH231555   4.614   1.752  15.905  0.0647  0.4036  0.0910
 3355TIP3    H131556   4.672   1.819  15.868  0.0185  0.4101  0.0295
 3355TIP3    H231557   4.670   1.675  15.915 -0.1419  0.1190 -0.8621
 3356TIP3   OH231558   5.542   6.646   3.037 -0.2254 -0.0789  0.0816
 3356TIP3    H131559   5.579   6.633   2.949 -0.5159 -0.3973  0.0037
 3356TIP3    H231560   5.517   6.558   3.065 -1.4779  0.2106 -0.1144
 3357TIP3   OH231561   4.430   3.006  11.201 -0.7164 -0.0243 -0.5318
 3357TIP3    H131562   4.416   3.100  11.218 -2.7072 -0.4953  0.6053
 3357TIP3    H231563   4.522   2.991  11.223  0.1916  2.0628 -2.6717
 3358TIP3   OH231564   1.374   1.004   6.037  0.0400 -0.0098 -0.0768
 3358TIP3    H131565   1.347   0.920   6.075 -3.8283  1.2966  0.2716
 3358TIP3    H231566   1.408   0.981   5.951  1.2173 -2.1620  0.9200
 3359TIP3   OH231567   2.701   3.376  13.230 -0.0630  0.3229  0.4819
 3359TIP3    H131568   2.747   3.455  13.260  1.0926  0.2078 -0.9097
 3359TIP3    H231569   2.700   3.318  13.306 -1.3974  1.8831  1.6679
 3360TIP3   OH231570   4.750   4.535  12.845 -0.2389 -0.3593 -0.4203
 3360TIP3    H131571   4.658   4.554  12.825 -0.9316 -1.5182  1.5384
 3360TIP3    H231572   4.774   4.598  12.913  0.4976  0.0801 -1.0740
 3361TIP3   OH231573   2.688   6.484  16.410  0.9613  0.5043 -0.3414
 3361TIP3    H131574   2.770   6.520  16.376  1.0825  1.7681  1.1922
 3361TIP3    H231575   2.716   6.418  16.474  0.7631 -0.1495 -0.9283
 3362TIP3   OH231576   0.041   6.672  12.625  0.0433  0.0786 -0.6186
 3362TIP3    H131577   0.134   6.660  12.603 -0.0013  1.1012 -1.3593
 3362TIP3    H231578   0.021   6.761  12.598 -0.7398  0.4256  1.0325
 3363TIP3   OH231579   5.735   1.702  13.074  0.0526  0.7092  0.3613
 3363TIP3    H131580   5.728   1.646  12.996  2.9554 -0.2652  0.7424
 3363TIP3    H231581   5.648   1.698  13.113 -0.8461 -0.5498 -1.6455
 3364TIP3   OH231582   2.712   4.569  16.747  0.1628  0.1202  0.1742
 3364TIP3    H131583   2.752   4.648  16.785 -0.1198  1.3570 -2.0057
 3364TIP3    H231584   2.644   4.544  16.809  0.4634  1.4080  1.0438
 3365TIP3   OH231585   1.924   0.532  13.619  0.1239 -0.1154 -0.5021
 3365TIP3    H131586   1.832   0.508  13.632  0.1360  0.2772  0.3283
 3365TIP3    H231587   1.921   0.617  13.576  0.0958 -0.3442 -0.9516
 3366TIP3   OH231588   4.862   2.244   0.643  0.5549  0.3118 -0.1704
 3366TIP3    H131589   4.825   2.173   0.591  1.6361  0.0193 -0.5490
 3366TIP3    H231590   4.846   2.323   0.590  0.3244  0.2049 -0.2603
 3367TIP3   OH231591   2.562   3.958   3.511 -0.5616  0.1933 -0.2564
 3367TIP3    H131592   2.563   3.863   3.519 -0.1997  0.3615  2.3546
 3367TIP3    H231593   2.497   3.976   3.445  0.5510 -1.9352 -2.0018
 3368TIP3   OH231594   4.755   6.495   4.924 -0.6058  0.7537  0.3702
 3368TIP3    H131595   4.818   6.551   4.969 -0.0870 -0.4600  1.1968
 3368TIP3    H231596   4.771   6.408   4.960 -1.9863  0.2249 -0.2574
 3369TIP3   OH231597   4.229   6.309  14.042 -0.4745 -0.5135 -0.1039
 3369TIP3    H131598   4.267   6.228  14.075 -0.8391 -0.9935 -0.8654
 3369TIP3    H231599   4.303   6.370  14.039  0.2615 -1.4545 -1.6169
 3370TIP3   OH231600   4.189   1.653  11.941  0.4383  0.1046  0.3353
 3370TIP3    H131601   4.219   1.584  12.000 -0.4280 -0.9519 -0.4400
 3370TIP3    H231602   4.147   1.606  11.868  1.0680  1.3961 -0.8848
 3371TIP3   OH231603   3.418   3.790   4.416 -0.1195  0.0764 -1.1663
 3371TIP3    H131604   3.402   3.865   4.474 -0.2178 -0.8077 -0.0350
 3371TIP3    H231605   3.480   3.824   4.351  2.0557  0.3994  0.9605
 3372TIP3   OH231606   1.409   0.440  13.821 -0.2530 -0.3706  0.5242
 3372TIP3    H131607   1.374   0.394  13.897 -2.2713 -1.0537 -0.7791
 3372TIP3    H231608   1.360   0.523  13.818  1.2419  0.5613  1.1080
 3373TIP3   OH231609   2.763   0.147   4.991 -0.4068  0.1635  0.2497
 3373TIP3    H131610   2.762   0.161   4.896  1.5704 -0.8359  0.0451
 3373TIP3    H231611   2.720   0.225   5.027  0.1162  1.2499 -1.3914
 3374TIP3   OH231612   2.968   3.741  13.578  0.1188 -0.0314 -0.3446
 3374TIP3    H131613   2.902   3.675  13.600  1.0189 -0.5130  0.9937
 3374TIP3    H231614   2.921   3.808  13.528 -0.6218 -2.1333 -2.5428
 3375TIP3   OH231615   4.413   1.907  14.904 -0.2516 -0.0341 -0.2370
 3375TIP3    H131616   4.325   1.916  14.867 -1.1936  2.6390  2.5343
 3375TIP3    H231617   4.447   1.996  14.910  1.7584 -0.8309  0.8872
 3376TIP3   OH231618   3.782   1.595   3.015 -0.7776 -0.2291  0.2150
 3376TIP3    H131619   3.760   1.685   3.038 -1.8314 -0.9457  2.1376
 3376TIP3    H231620   3.874   1.587   3.037 -0.3208  0.7797 -1.2860
 3377TIP3   OH231621   3.575   5.299  12.929 -0.1408  0.1585  0.3425
 3377TIP3    H131622   3.648   5.350  12.894 -0.5876 -0.3533 -1.4192
 3377TIP3    H231623   3.523   5.362  12.978  0.7823  0.8041  0.4988
 3378TIP3   OH231624   5.129   0.075  11.915  0.4480  0.0899 -0.0853
 3378TIP3    H131625   5.217   0.053  11.948  0.6039  0.2620 -0.3847
 3378TIP3    H231626   5.143   0.150  11.858  0.2097 -0.3384 -0.7174
 3379TIP3   OH231627   1.322   5.662   2.179  0.0803 -0.1609 -0.2493
 3379TIP3    H131628   1.294   5.625   2.263  3.1563  2.0890  1.9214
 3379TIP3    H231629   1.415   5.640   2.173  0.1923  0.7619 -2.4662
 3380TIP3   OH231630   0.419   0.479  12.141  0.0132  0.1471  0.0373
 3380TIP3    H131631   0.433   0.393  12.103 -1.9574 -0.3029  0.2804
 3380TIP3    H231632   0.325   0.484  12.156  0.0391  2.4869 -0.3192
 3381TIP3   OH231633   2.748   4.414   0.606 -0.5595  0.4793 -0.1750
 3381TIP3    H131634   2.742   4.383   0.516  2.6617 -2.5047  0.5497
 3381TIP3    H231635   2.711   4.343   0.659 -0.6562  1.3956  1.0135
 3382TIP3   OH231636   6.284   4.816   1.538  0.0918  0.3288 -0.4818
 3382TIP3    H131637   6.192   4.838   1.526  0.1944  1.3722  0.6280
 3382TIP3    H231638   6.325   4.836   1.453 -0.0847  3.0485  0.0631
 3383TIP3   OH231639   1.462   2.387   4.638  0.7494 -0.0535  0.6870
 3383TIP3    H131640   1.474   2.346   4.552 -0.5092 -1.4195  1.1621
 3383TIP3    H231641   1.376   2.358   4.667  0.4670  1.7275  1.7007
 3384TIP3   OH231642   1.232   2.905  11.056 -0.0077  0.4386 -0.1032
 3384TIP3    H131643   1.184   2.823  11.044  1.7035 -0.4551 -1.1831
 3384TIP3    H231644   1.218   2.929  11.147 -0.5780 -1.0511  0.2104
 3385TIP3   OH231645   5.914   1.137   4.979  0.3738 -0.4728 -0.1842
 3385TIP3    H131646   5.934   1.195   4.905  0.3921 -0.6273 -0.2996
 3385TIP3    H231647   5.819   1.143   4.989  0.4710  0.2562  0.3618
 3386TIP3   OH231648   4.219   1.764  10.865 -0.0674 -0.3562  1.0482
 3386TIP3    H131649   4.293   1.821  10.884  1.3143 -1.1641 -1.6001
 3386TIP3    H231650   4.259   1.678  10.850 -1.7272 -1.1754  1.2196
 3387TIP3   OH231651   1.931   2.725   6.326  0.5313 -0.0614  0.5839
 3387TIP3    H131652   1.877   2.711   6.403 -0.1342  1.0599  0.3285
 3387TIP3    H231653   2.006   2.777   6.358  0.6408 -0.2412  0.6210
 3388TIP3   OH231654   3.437   4.517   0.300  1.0636  0.2130  0.2199
 3388TIP3    H131655   3.367   4.457   0.325 -0.3381  1.1927 -1.2277
 3388TIP3    H231656   3.452   4.570   0.378  1.3515 -1.0738  1.0593
 3389TIP3   OH231657   4.136   3.280  16.629  0.3718 -0.5461 -0.4691
 3389TIP3    H131658   4.132   3.350  16.694 -0.8124 -1.6324  0.6651
 3389TIP3    H231659   4.200   3.219  16.664 -0.0018 -0.9555 -0.4911
 3390TIP3   OH231660   5.373   3.299   0.012  0.0810 -0.8346 -0.2293
 3390TIP3    H131661   5.414   3.213   0.026 -1.2259 -1.2811  0.9618
 3390TIP3    H231662   5.412   3.355   0.080 -3.1937 -1.9473  2.7080
 3391TIP3   OH231663   1.084   2.678  10.954 -0.4468 -0.0869  0.4919
 3391TIP3    H131664   1.068   2.721  10.869 -0.3373  0.0153  0.5215
 3391TIP3    H231665   0.997   2.662  10.989 -0.5069  2.7821  1.8126
 3392TIP3   OH231666   5.292   2.473   6.079  0.3667 -0.5929  0.7778
 3392TIP3    H131667   5.230   2.466   6.151 -1.0206  0.2120 -0.3015
 3392TIP3    H231668   5.371   2.509   6.119 -0.9423  1.4734  1.6232
 3393TIP3   OH231669   3.539   6.284   5.199 -0.1992 -0.4097  0.4316
 3393TIP3    H131670   3.487   6.230   5.259 -0.3659  1.1121  1.6966
 3393TIP3    H231671   3.500   6.270   5.113 -0.0315 -2.5404  0.6952
 3394TIP3   OH231672   5.681   3.261   2.083 -0.3479  0.1412 -0.4576
 3394TIP3    H131673   5.687   3.201   2.157 -3.0195 -0.3977 -0.6014
 3394TIP3    H231674   5.626   3.333   2.116  0.1086  0.8886 -1.3014
 3395TIP3   OH231675   5.786   1.514   5.625  0.5611  0.5855  0.3192
 3395TIP3    H131676   5.878   1.494   5.606  1.0045  0.8871  2.0286
 3395TIP3    H231677   5.764   1.456   5.698 -0.6269  0.4839 -0.1161
 3396TIP3   OH231678   2.186   3.407   5.108  0.4310  0.3681  0.6194
 3396TIP3    H131679   2.158   3.472   5.172  0.2248 -0.1535  1.0613
 3396TIP3    H231680   2.233   3.342   5.159  0.3901  0.0232  0.2176
 3397TIP3   OH231681   3.157   0.469   1.264  0.1219 -0.8467 -0.2072
 3397TIP3    H131682   3.225   0.437   1.204  0.0561 -0.9278 -0.2387
 3397TIP3    H231683   3.163   0.564   1.258  2.2206 -0.7802  2.0230
 3398TIP3   OH231684   4.273   0.622   1.163 -0.6263  0.5903 -0.0617
 3398TIP3    H131685   4.329   0.554   1.126 -0.4345 -0.5750  2.2862
 3398TIP3    H231686   4.185   0.588   1.155 -0.5109 -0.0698  1.3288
 3399TIP3   OH231687   4.722   1.144   0.801 -0.3686  0.2409 -0.0792
 3399TIP3    H131688   4.716   1.165   0.708  4.1987 -0.5165 -0.6657
 3399TIP3    H231689   4.711   1.049   0.806 -1.0767  0.3335  0.2395
 3400TIP3   OH231690   6.446   3.457   5.554  0.9232 -0.9928  0.0768
 3400TIP3    H131691   6.438   3.378   5.500  0.4855 -0.6837 -0.3170
 3400TIP3    H231692   6.439   3.426   5.644  0.7756 -1.4078 -0.0790
 3401TIP3   OH231693   3.100   2.279  12.830 -0.1146  0.4625  0.0288
 3401TIP3    H131694   3.015   2.235  12.825  0.3821 -0.3989 -1.0984
 3401TIP3    H231695   3.157   2.216  12.874 -0.1458  1.1901  1.1255
 3402TIP3   OH231696   6.560   3.638   5.051  0.6089  0.5407  0.0878
 3402TIP3    H131697   6.541   3.558   5.001  1.2149  0.3789  0.1107
 3402TIP3    H231698   6.476   3.684   5.056  0.2952 -0.0078 -0.0844
 3403TIP3   OH231699   6.646   5.787   2.714  0.0183 -0.7474 -0.3137
 3403TIP3    H131700   6.632   5.704   2.761 -0.3208 -0.1980  0.5635
 3403TIP3    H231701   6.723   5.825   2.755 -1.4774  0.7209  1.2212
 3404TIP3   OH231702   6.343   4.974   2.479  0.4363  0.2631 -0.0921
 3404TIP3    H131703   6.289   4.908   2.522 -0.2973  0.7731 -0.2357
 3404TIP3    H231704   6.379   5.027   2.550  0.9484 -0.2290  0.0181
 3405TIP3   OH231705   6.530   6.487  14.310 -0.6123 -0.3960 -0.2043
 3405TIP3    H131706   6.455   6.517  14.362 -0.4660 -0.7109  0.1889
 3405TIP3    H231707   6.523   6.536  14.227 -0.0428  1.1671  0.6518
 3406TIP3   OH231708   4.721   3.099  16.304 -0.0497 -0.0315 -0.6755
 3406TIP3    H131709   4.716   3.127  16.396  0.8039 -0.4954 -0.4811
 3406TIP3    H231710   4.753   3.009  16.308  0.7370  0.1989 -1.4588
 3407TIP3   OH231711   2.582   6.458   1.384  0.4198 -0.3687  0.2594
 3407TIP3    H131712   2.568   6.388   1.447 -0.4405 -0.3628  0.0748
 3407TIP3    H231713   2.494   6.487   1.359  0.7797  1.2713  0.8750
 3408TIP3   OH231714   4.154   6.627   1.954  0.2668  0.2520  0.1606
 3408TIP3    H131715   4.194   6.706   1.992  1.0589 -0.0814  0.0309
 3408TIP3    H231716   4.137   6.651   1.863  0.8802  0.1444  0.0135
 3409TIP3   OH231717   4.299   3.034   3.953 -0.2257  0.1777 -0.6324
 3409TIP3    H131718   4.332   3.124   3.953  2.3136 -0.7169 -1.1733
 3409TIP3    H231719   4.233   3.033   3.883 -0.2574  1.6018 -0.6387
 3410TIP3   OH231720   0.938   3.972   1.976 -0.0341  0.2653 -0.2179
 3410TIP3    H131721   1.008   3.917   1.943  2.1309  1.9549  1.3773
 3410TIP3    H231722   0.905   4.018   1.899  1.9083  0.8493 -0.7125
 3411TIP3   OH231723   1.656   5.657  16.565 -0.3022  0.3627  0.0726
 3411TIP3    H131724   1.679   5.638  16.656 -1.8933  1.0570  0.6500
 3411TIP3    H231725   1.579   5.602  16.548  0.4144 -0.3053 -1.0927
 3412TIP3   OH231726   0.870   1.874  11.167  0.2422 -0.0514  0.3080
 3412TIP3    H131727   0.860   1.947  11.229 -0.2636 -0.1004  0.2878
 3412TIP3    H231728   0.780   1.848  11.146  0.4118 -0.0790 -0.3963
 3413TIP3   OH231729   5.709   4.577  13.606  0.3682  0.3319  0.1264
 3413TIP3    H131730   5.707   4.525  13.686 -0.6156 -0.0407 -0.1218
 3413TIP3    H231731   5.617   4.580  13.577  0.6055  1.0775 -0.5861
 3414TIP3   OH231732   2.805   2.943   2.798  0.3496 -0.4851 -0.0527
 3414TIP3    H131733   2.715   2.960   2.769 -0.1082 -2.0508  0.4025
 3414TIP3    H231734   2.859   2.965   2.723 -0.3041  1.7019  0.0905
 3415TIP3   OH231735   4.163   4.998   3.205  0.0833 -0.1894 -0.3853
 3415TIP3    H131736   4.092   4.938   3.181 -0.1719 -1.0312  2.4005
 3415TIP3    H231737   4.131   5.084   3.176 -1.9578 -0.6049  0.5766
 3416TIP3   OH231738   3.801   1.539  15.712 -0.2433  0.1954 -0.2962
 3416TIP3    H131739   3.875   1.478  15.704 -1.2627 -1.0833 -0.1581
 3416TIP3    H231740   3.841   1.625  15.705  1.3071 -0.4675  0.0423
 3417TIP3   OH231741   1.391   1.297   4.379  0.1618  0.0607 -0.0027
 3417TIP3    H131742   1.347   1.371   4.337 -1.5096  0.6207  2.6021
 3417TIP3    H231743   1.410   1.236   4.308 -1.6748  1.3881 -1.6867
 3418TIP3   OH231744   0.575   0.790  13.644 -0.3126  0.7201 -0.5112
 3418TIP3    H131745   0.637   0.727  13.680 -0.7258 -0.5667 -2.0166
 3418TIP3    H231746   0.526   0.821  13.720  1.0086  0.4773  0.4640
 3419TIP3   OH231747   6.736   2.540  11.014 -0.1673  0.4252  0.0838
 3419TIP3    H131748   6.810   2.590  11.046 -0.4658  0.5017  0.6686
 3419TIP3    H231749   6.773   2.479  10.951  0.2345  1.2062 -0.4497
 3420TIP3   OH231750   4.472   4.202  12.603  0.0694  0.0168 -0.4664
 3420TIP3    H131751   4.523   4.141  12.657 -0.1463  1.1006  1.0152
 3420TIP3    H231752   4.403   4.149  12.564  0.7023 -0.9422 -0.2708
 3421TIP3   OH231753   2.512   3.223   2.470  0.1098 -0.2675  0.0433
 3421TIP3    H131754   2.598   3.223   2.429 -0.4234  2.1728 -1.1587
 3421TIP3    H231755   2.475   3.137   2.447  1.0158 -0.1326 -2.0306
 3422TIP3   OH231756   3.057   0.496  11.935  0.9403  0.2124 -0.2247
 3422TIP3    H131757   3.026   0.431  11.998 -1.7732 -0.4819 -2.1688
 3422TIP3    H231758   3.150   0.476  11.923  0.6053 -2.0376  0.7054
 3423TIP3   OH231759   6.001   2.732   4.709 -1.0410  0.5331  0.2991
 3423TIP3    H131760   6.028   2.716   4.619 -0.1401  1.2947  0.4246
 3423TIP3    H231761   5.956   2.651   4.736 -0.5395 -0.0239 -0.5333
 3424TIP3   OH231762   2.702   2.740   3.993  0.1837 -0.3829  0.3631
 3424TIP3    H131763   2.786   2.771   4.025  0.7721 -0.6316 -0.9327
 3424TIP3    H231764   2.708   2.644   3.996  0.4606 -0.4147 -1.0433
 3425TIP3   OH231765   1.855   2.215  11.385 -0.2131  0.5394  0.0497
 3425TIP3    H131766   1.863   2.278  11.313  0.1487  0.4128 -0.0199
 3425TIP3    H231767   1.921   2.148  11.366 -2.3103 -1.2583 -1.3217
 3426TIP3   OH231768   4.802   3.189  10.445 -0.1576 -0.3638 -0.0256
 3426TIP3    H131769   4.757   3.218  10.366  2.2899  0.9529 -0.9882
 3426TIP3    H231770   4.733   3.188  10.512 -2.1601 -1.0267 -2.0161
 3427TIP3   OH231771   5.513   1.481  15.677  0.0892 -0.1923  0.4206
 3427TIP3    H131772   5.448   1.415  15.652 -0.8106  1.1365 -0.8439
 3427TIP3    H231773   5.597   1.443  15.651 -0.3719 -1.0742  0.1954
 3428TIP3   OH231774   2.930   2.084  13.286  0.0185  0.4204  0.0240
 3428TIP3    H131775   2.857   2.036  13.326  0.5033  0.5995  1.1535
 3428TIP3    H231776   2.912   2.083  13.192 -1.4752  0.5192  0.3022
 3429TIP3   OH231777   4.796   6.475  16.516 -0.3607  0.0077  0.1467
 3429TIP3    H131778   4.856   6.435  16.453  1.9442 -0.1661  2.3764
 3429TIP3    H231779   4.812   6.569  16.508  0.1880 -0.0358  0.7078
 3430TIP3   OH231780   6.612   3.673  11.620 -0.5588  0.1330  0.1666
 3430TIP3    H131781   6.703   3.683  11.594 -0.0946  1.6451  2.2017
 3430TIP3    H231782   6.609   3.589  11.667 -1.1301 -1.9431 -3.4467
 3431TIP3   OH231783   2.600   5.143  11.903 -0.1825  0.0534  1.1644
 3431TIP3    H131784   2.672   5.157  11.965  0.3453 -0.1204  0.5951
 3431TIP3    H231785   2.529   5.197  11.937  0.3126  0.4608  1.5714
 3432TIP3   OH231786   3.101   3.498  14.945 -0.1555  0.0964 -0.1994
 3432TIP3    H131787   3.100   3.467  14.854 -1.1710  0.4245 -0.3039
 3432TIP3    H231788   3.133   3.588  14.938  0.0152  0.0372 -0.1985
 3433TIP3   OH231789   2.583   3.991   5.116  0.3123 -0.5637 -0.1421
 3433TIP3    H131790   2.670   3.973   5.080 -0.7712 -2.7741 -1.7568
 3433TIP3    H231791   2.523   3.978   5.043 -1.5757 -1.1679  1.4606
 3434TIP3   OH231792   5.553   1.883   3.040  0.0172  0.2403  0.4541
 3434TIP3    H131793   5.632   1.830   3.054 -0.0655 -0.1489 -0.5137
 3434TIP3    H231794   5.500   1.868   3.118  0.8177  0.3677  1.0380
 3435TIP3   OH231795   6.679   2.251  13.196  0.0393  0.7400  0.9540
 3435TIP3    H131796   6.724   2.189  13.138  0.7270  1.0539  1.1463
 3435TIP3    H231797   6.745   2.276  13.260 -0.1053  1.9929  0.6277
 3436TIP3   OH231798   2.134   0.576  12.807 -0.7633  0.2112  0.0001
 3436TIP3    H131799   2.165   0.490  12.833 -1.2299  0.0797  0.1302
 3436TIP3    H231800   2.172   0.636  12.870 -0.3571  0.1120 -0.1506
 3437TIP3   OH231801   6.128   4.643   4.932 -0.4811 -0.2406  0.4423
 3437TIP3    H131802   6.054   4.668   4.988 -1.3647 -1.1580 -0.2957
 3437TIP3    H231803   6.088   4.627   4.846  0.8323  0.9493 -0.4152
 3438TIP3   OH231804   2.739   1.003  16.308  0.0685 -0.1596 -0.2873
 3438TIP3    H131805   2.703   0.941  16.371  2.4620 -1.4436 -0.1636
 3438TIP3    H231806   2.759   1.081  16.360 -1.5319  0.2199 -0.1861
 3439TIP3   OH231807   4.724   2.469  10.438  0.2331  0.1194 -0.0756
 3439TIP3    H131808   4.749   2.559  10.454  1.5191 -0.6005  2.1136
 3439TIP3    H231809   4.639   2.475  10.395 -0.1199  2.3420  0.8829
 3440TIP3   OH231810   2.860   5.626   0.325 -0.4137 -0.0517  0.2577
 3440TIP3    H131811   2.955   5.633   0.338 -0.3540 -0.6088  0.1728
 3440TIP3    H231812   2.837   5.542   0.366 -0.8768  0.1103  0.3254
 3441TIP3   OH231813   1.207   1.060  17.179  0.3350  0.2430 -0.2219
 3441TIP3    H131814   1.117   1.037  17.201 -0.5299  2.3088 -1.4392
 3441TIP3    H231815   1.230   1.001  17.108 -0.1096 -0.1812 -0.0156
 3442TIP3   OH231816   1.867   1.422   5.064  0.2820  0.0544  0.2392
 3442TIP3    H131817   1.951   1.435   5.108  0.8623  2.4243 -1.4652
 3442TIP3    H231818   1.808   1.487   5.103  0.3416  1.0408 -1.2506
 3443TIP3   OH231819   6.195   4.097   5.085  0.3800  0.5750 -0.2313
 3443TIP3    H131820   6.256   4.073   5.155 -1.5880 -1.6474  0.8161
 3443TIP3    H231821   6.172   4.188   5.104  1.3959  0.6228  0.8685
 3444TIP3   OH231822   6.116   5.516   3.511 -0.0803 -0.2595 -0.1303
 3444TIP3    H131823   6.067   5.521   3.429  0.0471 -0.7126 -0.2317
 3444TIP3    H231824   6.200   5.558   3.490 -1.0221  2.0513  0.4986
 3445TIP3   OH231825   6.815   3.203  16.772 -0.1359 -0.2432  0.1960
 3445TIP3    H131826   6.796   3.289  16.810  0.1883 -0.6084  1.2067
 3445TIP3    H231827   6.896   3.176  16.814 -0.2168 -1.0277 -0.1512
 3446TIP3   OH231828   4.865   1.986   0.180  0.0245 -0.2239 -0.2487
 3446TIP3    H131829   4.854   2.055   0.114  0.7138  0.9760  0.8476
 3446TIP3    H231830   4.958   1.962   0.174 -0.0661 -0.5830 -0.1850
 3447TIP3   OH231831   4.466   3.481  13.681 -0.2794 -0.6863  0.7140
 3447TIP3    H131832   4.382   3.435  13.674 -0.5180 -0.1218 -0.2502
 3447TIP3    H231833   4.474   3.529  13.598  0.8622 -0.5071  0.9162
 3448TIP3   OH231834   6.294   6.150  13.363  0.5355  0.2768  0.1042
 3448TIP3    H131835   6.300   6.208  13.438  0.0975  0.5330 -0.0570
 3448TIP3    H231836   6.206   6.113  13.367 -0.0611  1.4835 -1.1385
 3449TIP3   OH231837   0.912   1.676   0.748  0.7265 -0.1675  0.1552
 3449TIP3    H131838   0.912   1.581   0.760 -0.0841 -0.6222 -3.0649
 3449TIP3    H231839   0.825   1.704   0.778  1.2061 -0.3405  1.7267
 3450TIP3   OH231840   0.353   3.387   0.379  0.1535 -0.4117 -0.6819
 3450TIP3    H131841   0.401   3.372   0.298 -0.8121  1.7848 -1.7074
 3450TIP3    H231842   0.262   3.368   0.357 -0.1406  0.3843 -0.1681
 3451TIP3   OH231843   5.378   4.848   4.751 -0.6740  0.0003 -0.6382
 3451TIP3    H131844   5.461   4.831   4.795  0.8712  1.8087 -2.7399
 3451TIP3    H231845   5.321   4.884   4.819  0.5339 -0.4566  0.6275
 3452TIP3   OH231846   3.117   6.264  11.807  0.0453  0.5912  0.2295
 3452TIP3    H131847   3.099   6.181  11.851 -0.1925  0.2424 -0.5183
 3452TIP3    H231848   3.074   6.330  11.862  1.6047  0.3977  1.7030
 3453TIP3   OH231849   0.107   5.373   3.573  0.2369  0.0794 -0.4905
 3453TIP3    H131850   0.055   5.370   3.653 -0.7060  0.7647 -1.0826
 3453TIP3    H231851   0.174   5.306   3.586 -0.3580 -0.3139  0.5669
 3454TIP3   OH231852   6.258   3.332   1.593 -0.4945 -0.3333 -0.0575
 3454TIP3    H131853   6.263   3.237   1.602  1.2539 -0.3427 -0.9348
 3454TIP3    H231854   6.284   3.365   1.680  0.5849 -0.6501 -0.2470
 3455TIP3   OH231855   5.915   2.626   5.045  0.2268  0.2744 -0.3789
 3455TIP3    H131856   5.842   2.608   4.985  0.4162  0.6366 -0.7166
 3455TIP3    H231857   5.894   2.710   5.085 -0.1364 -0.1870  0.4240
 3456TIP3   OH231858   2.837   4.083   4.119 -0.4532 -0.1049 -0.4587
 3456TIP3    H131859   2.864   4.123   4.201  1.0106 -0.0426 -0.9492
 3456TIP3    H231860   2.797   4.000   4.144 -0.8038  0.3155  0.3711
 3457TIP3   OH231861   5.750   3.129  16.073  0.1433 -0.2745  0.2821
 3457TIP3    H131862   5.789   3.179  16.145  0.7285  1.3201 -1.1032
 3457TIP3    H231863   5.772   3.038  16.092 -0.6133  0.0162  2.6668
 3458TIP3   OH231864   6.739   6.234   6.613  0.6594 -0.4557 -0.4138
 3458TIP3    H131865   6.820   6.279   6.638  0.2972  0.6403 -1.1988
 3458TIP3    H231866   6.766   6.172   6.544  0.7475  0.2594 -1.0253
 3459TIP3   OH231867   5.704   3.772  10.636 -0.0006  0.0565 -0.5254
 3459TIP3    H131868   5.619   3.799  10.670 -0.0726 -0.8015 -0.0237
 3459TIP3    H231869   5.704   3.801  10.545  0.2278  2.4638  0.2023
 3460TIP3   OH231870   4.262   3.299   4.817 -0.5949  0.1338 -0.4831
 3460TIP3    H131871   4.288   3.303   4.909 -1.0105 -1.1433 -0.2940
 3460TIP3    H231872   4.314   3.227   4.781 -2.0638 -0.8414 -0.6961
 3461TIP3   OH231873   1.167   3.359  13.480  0.0295 -0.1794 -0.5275
 3461TIP3    H131874   1.189   3.413  13.556  0.6228 -1.4533  0.2108
 3461TIP3    H231875   1.083   3.320  13.501  0.7272 -1.4343 -0.0213
 3462TIP3   OH231876   1.591   6.152  17.123 -0.2152  0.0645  0.2560
 3462TIP3    H131877   1.577   6.062  17.152  1.1290 -0.5267 -0.8868
 3462TIP3    H231878   1.510   6.198  17.147 -0.4024 -1.1436  2.0050
 3463TIP3   OH231879   0.378   1.514   5.028  0.3675  0.5321 -0.2961
 3463TIP3    H131880   0.321   1.553   4.962  1.2440 -0.1877 -1.5090
 3463TIP3    H231881   0.328   1.518   5.109 -0.4910  1.9662 -0.8866
 3464TIP3   OH231882   6.788   2.462   0.982  0.1739  0.4362 -0.2306
 3464TIP3    H131883   6.802   2.552   1.011  1.0405  0.3081 -0.2583
 3464TIP3    H231884   6.701   2.440   1.016 -0.6190  1.7402 -1.3633
 3465TIP3   OH231885   1.112   3.266  15.518 -0.3280 -0.0204  0.1261
 3465TIP3    H131886   1.081   3.264  15.609  0.6388 -1.4366  0.4398
 3465TIP3    H231887   1.204   3.240  15.524 -0.8738 -2.4694 -1.5094
 3466TIP3   OH231888   1.813   1.634  11.016  0.1773  0.1948 -0.5343
 3466TIP3    H131889   1.879   1.574  11.050 -0.0370  0.0642 -0.3500
 3466TIP3    H231890   1.777   1.589  10.940 -1.9872 -1.1844  1.2527
 3467TIP3   OH231891   1.575   5.743  11.744 -0.2210  0.0431 -0.6974
 3467TIP3    H131892   1.588   5.692  11.824 -0.0516  1.7048  0.3646
 3467TIP3    H231893   1.663   5.763  11.714 -0.2496  1.8019  0.2921
 3468TIP3   OH231894   2.419   5.324  14.213 -0.3371 -0.1748 -0.1982
 3468TIP3    H131895   2.427   5.416  14.238 -0.5049 -0.4131  0.7607
 3468TIP3    H231896   2.485   5.312  14.145  0.5665  0.3477  0.5663
 3469TIP3   OH231897   1.407   3.901  15.186  0.0142  0.3116 -0.2989
 3469TIP3    H131898   1.417   3.881  15.279 -0.2622  1.6816  0.0374
 3469TIP3    H231899   1.409   3.816  15.142  1.8582 -0.2368  0.8025
 3470TIP3   OH231900   3.534   6.020   3.830 -0.1730  0.8822  0.0152
 3470TIP3    H131901   3.621   6.050   3.857  1.7380 -0.9823 -3.5983
 3470TIP3    H231902   3.546   5.995   3.738 -4.3072 -0.3997 -0.2519
 3471TIP3   OH231903   4.711   5.301  14.418 -0.3593 -0.1672 -0.1354
 3471TIP3    H131904   4.690   5.213  14.450 -0.1880 -0.1707 -0.0353
 3471TIP3    H231905   4.778   5.287  14.351 -1.0193 -0.1979 -0.7969
 3472TIP3   OH231906   5.059   3.310  12.366  0.5018  0.3931 -0.6291
 3472TIP3    H131907   5.145   3.349  12.355  0.0872  1.0415 -1.6522
 3472TIP3    H231908   5.032   3.284  12.277 -0.0879 -0.3688 -0.2395
 3473TIP3   OH231909   0.301   5.074   1.857 -0.4833  0.2055  0.1865
 3473TIP3    H131910   0.335   5.121   1.933 -2.6104  1.0067  0.6608
 3473TIP3    H231911   0.247   5.004   1.893  0.6986 -1.1215 -0.5649
 3474TIP3   OH231912   5.432   3.482  17.104 -0.0183  0.0096 -0.3005
 3474TIP3    H131913   5.402   3.550  17.164  2.1808  1.5277 -0.8400
 3474TIP3    H231914   5.414   3.400  17.150  0.0368  1.0703  1.6832
 3475TIP3   OH231915   6.630   4.236   2.275 -0.4401  0.8959  0.2057
 3475TIP3    H131916   6.701   4.229   2.338 -0.4258  0.5294  0.1463
 3475TIP3    H231917   6.591   4.149   2.272 -1.3727  1.2846  0.8036
 3476TIP3   OH231918   0.736   6.631  13.265  0.7489 -0.0570 -0.6009
 3476TIP3    H131919   0.824   6.646  13.231  0.6292 -0.7219 -1.2243
 3476TIP3    H231920   0.696   6.717  13.267  0.5498 -0.0656 -2.7463
 3477TIP3   OH231921   2.423   4.779   6.748 -0.1203 -0.0729  0.4385
 3477TIP3    H131922   2.473   4.766   6.668 -0.2820  0.9380  0.1619
 3477TIP3    H231923   2.400   4.691   6.777  0.6667 -0.4802 -0.1613
 3478TIP3   OH231924   4.360   3.213  16.779  0.4569 -0.1256 -0.1667
 3478TIP3    H131925   4.437   3.162  16.804  0.5187  0.0118 -0.0685
 3478TIP3    H231926   4.376   3.300  16.817  0.7704  0.2208 -1.0909
 3479TIP3   OH231927   5.558   1.285   5.574 -0.4351  0.2233  0.6133
 3479TIP3    H131928   5.571   1.259   5.665 -0.0514  0.3856  0.6027
 3479TIP3    H231929   5.619   1.357   5.560  1.2859 -1.3972 -0.4754
 3480TIP3   OH231930   4.414   3.562   4.288 -0.0920 -0.1239  0.0156
 3480TIP3    H131931   4.431   3.572   4.195  0.6497  0.8821  0.2505
 3480TIP3    H231932   4.425   3.468   4.305 -0.5930 -0.3682 -0.9680
 3481TIP3   OH231933   2.799   3.154  16.714  0.2198  0.6733  0.1690
 3481TIP3    H131934   2.760   3.180  16.631 -1.1052 -0.9006  0.2678
 3481TIP3    H231935   2.727   3.158  16.777  0.8398  0.3591  0.9173
 3482TIP3   OH231936   1.817   0.374  13.286  0.0367 -0.9736  0.3198
 3482TIP3    H131937   1.837   0.430  13.212 -0.0906 -1.2346  0.0874
 3482TIP3    H231938   1.733   0.407  13.320  0.3884 -0.4766  0.7173
 3483TIP3   OH231939   6.027   0.314   2.432 -0.4589  0.7662  0.1086
 3483TIP3    H131940   6.028   0.334   2.339  0.0614 -2.6070 -0.6810
 3483TIP3    H231941   6.117   0.288   2.452 -1.5738 -3.3023  0.3413
 3484TIP3   OH231942   3.395   2.604   4.461 -0.0656 -0.2058  0.3859
 3484TIP3    H131943   3.301   2.620   4.474  0.0531  2.0515 -1.2422
 3484TIP3    H231944   3.435   2.691   4.463  1.6753 -0.9230 -1.4127
 3485TIP3   OH231945   0.515   3.913  12.080 -0.3381  0.1467 -0.6092
 3485TIP3    H131946   0.547   3.944  11.996  0.9668 -2.0197 -0.9510
 3485TIP3    H231947   0.428   3.878  12.062 -0.2512  0.1123 -0.9576
 3486TIP3   OH231948   2.289   0.915   4.894  0.2494 -0.0180  0.0982
 3486TIP3    H131949   2.232   0.968   4.838  0.0639  0.3722  0.6578
 3486TIP3    H231950   2.241   0.906   4.976  0.4879 -0.6581  0.1707
 3487TIP3   OH231951   0.349   2.316   5.859  0.2518 -0.1633 -0.4104
 3487TIP3    H131952   0.297   2.388   5.823  0.4275 -0.1342 -0.6017
 3487TIP3    H231953   0.419   2.302   5.796 -0.9561 -1.8796 -1.4377
 3488TIP3   OH231954   3.503   2.103  13.068 -0.6351 -0.7096  0.2834
 3488TIP3    H131955   3.442   2.175  13.055 -0.0727 -0.3835 -0.5973
 3488TIP3    H231956   3.448   2.025  13.068 -1.1232 -0.3694  0.1461
 3489TIP3   OH231957   4.755   2.420  15.162 -0.1290 -0.1317 -0.5082
 3489TIP3    H131958   4.795   2.409  15.249 -2.6754 -0.8874  0.6041
 3489TIP3    H231959   4.823   2.463  15.110  2.2961 -1.8182  1.1696
 3490TIP3   OH231960   6.735   2.552  16.915  0.2754 -0.3105  0.3027
 3490TIP3    H131961   6.665   2.570  16.979  0.1126  2.5582 -0.6105
 3490TIP3    H231962   6.815   2.582  16.958  0.2685  0.8939 -0.4874
 3491TIP3   OH231963   4.160   6.729  15.350  0.0213 -0.3516 -0.0954
 3491TIP3    H131964   4.184   6.797  15.287  0.1242  0.1965  0.5382
 3491TIP3    H231965   4.183   6.647  15.306 -2.5740 -0.1409 -1.9964
 3492TIP3   OH231966   0.034   3.961  15.079 -0.1273  0.2040 -0.0169
 3492TIP3    H131967   0.090   4.031  15.045  0.7980  0.2847  1.5683
 3492TIP3    H231968  -0.016   4.003  15.149 -0.4079 -0.4402  0.1679
 3493TIP3   OH231969   5.594   0.776   0.154  0.0491  0.2944 -0.3903
 3493TIP3    H131970   5.544   0.707   0.111 -1.2779 -0.0448  1.6232
 3493TIP3    H231971   5.653   0.730   0.214  0.1194  0.8498 -0.0314
 3494TIP3   OH231972   1.342   1.835  15.179 -0.9819 -0.2587 -0.3673
 3494TIP3    H131973   1.377   1.865  15.095 -0.2259 -0.0421  0.0266
 3494TIP3    H231974   1.255   1.801  15.157 -1.0277  0.3358 -1.1469
 3495TIP3   OH231975   2.445   3.341  15.231 -0.8122 -0.2821  0.1826
 3495TIP3    H131976   2.526   3.292  15.249  0.2231  1.2480 -0.2657
 3495TIP3    H231977   2.438   3.341  15.136  0.5947  2.6742  0.0553
 3496TIP3   OH231978   1.116   5.497  12.190 -0.5785  0.0650  0.2307
 3496TIP3    H131979   1.094   5.418  12.140  0.6357 -0.6717  0.8390
 3496TIP3    H231980   1.204   5.479  12.225 -0.8772  1.1027  1.5437
 3497TIP3   OH231981   3.005   3.139  13.484  0.5051 -0.5366  0.4093
 3497TIP3    H131982   2.955   3.062  13.458  0.7799 -0.8090  0.6898
 3497TIP3    H231983   3.018   3.129  13.579 -2.2508  1.4516  1.0723
 3498TIP3   OH231984   5.489   1.763   1.833  0.1118  0.5125 -0.0690
 3498TIP3    H131985   5.499   1.846   1.787  3.4214 -0.4096 -1.1562
 3498TIP3    H231986   5.527   1.697   1.775 -0.5491 -1.4909  1.6560
 3499TIP3   OH231987   0.460   5.461  13.403  0.1680 -0.2407  0.3553
 3499TIP3    H131988   0.429   5.489  13.489  1.7362 -0.3026  0.9587
 3499TIP3    H231989   0.410   5.382  13.383 -3.1655  2.0256 -0.6449
 3500TIP3   OH231990   0.154   3.159   0.144  0.2269  0.0210  0.0177
 3500TIP3    H131991   0.199   3.090   0.192 -1.4984 -1.2825 -0.1613
 3500TIP3    H231992   0.134   3.226   0.210  0.9323 -0.1495  0.4069
 3501TIP3   OH231993   1.403   3.127   0.712 -0.0683 -0.6144  0.3969
 3501TIP3    H131994   1.342   3.053   0.701 -2.1647  1.2722 -1.2002
 3501TIP3    H231995   1.352   3.193   0.758  0.7263  1.0665 -1.0939
 3502TIP3   OH231996   2.011   1.259   6.570 -0.2770 -0.0360  0.7227
 3502TIP3    H131997   2.090   1.308   6.545 -0.6758 -0.6129 -1.8386
 3502TIP3    H231998   1.949   1.276   6.499 -1.4103 -1.9979  1.2061
 3503TIP3   OH231999   1.775   4.128  16.865 -0.1221 -0.5571  0.1247
 3503TIP3    H132000   1.736   4.212  16.889  0.1992 -0.2691 -0.3373
 3503TIP3    H232001   1.791   4.135  16.771  2.9546  0.1565  0.6326
 3504TIP3   OH232002   0.373   0.140   2.371 -0.1516 -0.4377  0.0206
 3504TIP3    H132003   0.287   0.098   2.369 -0.0964 -0.5234 -0.8065
 3504TIP3    H232004   0.364   0.216   2.314  0.3863 -0.5771 -0.2528
 3505TIP3   OH232005   2.831   5.688  12.210 -0.4356  0.1910  0.2018
 3505TIP3    H132006   2.832   5.731  12.124  0.2465 -2.4368 -1.1576
 3505TIP3    H232007   2.923   5.686  12.237 -0.5968  0.6104  0.7837
 3506TIP3   OH232008   2.520   3.094   3.978 -0.0527 -0.0302 -0.6350
 3506TIP3    H132009   2.515   3.068   4.070  0.4800 -1.5052 -1.0106
 3506TIP3    H232010   2.593   3.157   3.976 -0.8473  0.9313  0.1459
 3507TIP3   OH232011   3.164   3.326  17.236 -0.3268 -0.1882  0.1632
 3507TIP3    H132012   3.119   3.348  17.154 -0.4647 -0.9862  0.0256
 3507TIP3    H232013   3.195   3.237  17.223 -0.2540 -0.2760  0.9388
 3508TIP3   OH232014   0.052   1.398  14.554  0.8553 -0.2628  0.0331
 3508TIP3    H132015   0.029   1.486  14.584  0.5908 -0.5819  0.7753
 3508TIP3    H232016   0.001   1.385  14.475 -0.5715 -0.4759  0.9673
 3509TIP3   OH232017   4.326   4.266  10.812 -0.2376  0.2599  0.1912
 3509TIP3    H132018   4.333   4.265  10.717  0.4580  2.0198  0.2004
 3509TIP3    H232019   4.238   4.298  10.829 -0.9554 -1.6461  0.1491
 3510TIP3   OH232020   2.879   3.624   3.042 -0.0085 -0.2650 -0.3745
 3510TIP3    H132021   2.935   3.631   2.965 -1.7636 -0.2858 -1.6734
 3510TIP3    H232022   2.833   3.707   3.046 -0.6197 -0.6189  0.0997
 3511TIP3   OH232023   3.173   0.958  14.773  0.6634 -0.0462 -0.4135
 3511TIP3    H132024   3.260   0.929  14.798  0.1805 -0.8076  0.3875
 3511TIP3    H232025   3.115   0.884  14.794 -0.3459  0.9000  0.2203
 3512TIP3   OH232026   5.450   2.448  13.527 -0.6404  0.2645 -0.2445
 3512TIP3    H132027   5.399   2.525  13.554  0.6529  1.2877 -0.6346
 3512TIP3    H232028   5.519   2.484  13.471  0.6493 -1.0524  0.4609
 3513TIP3   OH232029   3.835   5.125   4.369  0.2555  0.0658 -0.3298
 3513TIP3    H132030   3.807   5.133   4.278 -0.9950 -0.8701 -0.0322
 3513TIP3    H232031   3.909   5.063   4.366  0.9419  0.8979 -0.8377
 3514TIP3   OH232032   4.934   3.828  13.326  0.7240 -0.0731  0.0038
 3514TIP3    H132033   4.858   3.834  13.269  0.2463  0.4784  0.6812
 3514TIP3    H232034   4.970   3.917  13.328  0.9605 -0.1708  0.2490
 3515TIP3   OH232035   6.261   2.001   3.206  0.0189 -0.7126 -0.1398
 3515TIP3    H132036   6.283   1.939   3.275  2.7983  0.5155  0.1365
 3515TIP3    H232037   6.285   1.956   3.125 -0.6979 -1.1021 -0.1418
 3516TIP3   OH232038   3.831   1.167  14.696  0.4762 -0.4955 -0.2364
 3516TIP3    H132039   3.814   1.229  14.625 -2.5037  1.1899  1.8421
 3516TIP3    H232040   3.796   1.083  14.664 -0.9104  0.2645 -0.7545
 3517TIP3   OH232041   3.157   0.803  10.854  0.4449  0.0396  0.4412
 3517TIP3    H132042   3.083   0.777  10.800  0.8575 -0.3010  0.0345
 3517TIP3    H232043   3.121   0.810  10.942 -0.6507  2.5319 -0.1776
 3518TIP3   OH232044   4.468   5.127   1.548 -0.0614 -0.2627  0.9793
 3518TIP3    H132045   4.516   5.210   1.556 -1.7653  0.9353 -0.6694
 3518TIP3    H232046   4.480   5.084   1.632  4.0567 -0.1311  0.5540
 3519TIP3   OH232047   0.029   6.221  15.414 -0.5479 -0.7490  0.3033
 3519TIP3    H132048   0.027   6.218  15.509  0.2839  1.9730  0.4243
 3519TIP3    H232049   0.120   6.201  15.391  0.1309  2.2370  0.2667
 3520TIP3   OH232050   1.730   4.748  13.678 -0.5994 -0.5415  0.1757
 3520TIP3    H132051   1.697   4.719  13.593  2.5550 -0.5099 -1.1381
 3520TIP3    H232052   1.774   4.831  13.660  2.7736 -1.9958  1.1870
 3521TIP3   OH232053   6.221   0.344   4.083 -0.0171  0.2809  0.3122
 3521TIP3    H132054   6.242   0.279   4.016  3.7756  1.8820 -0.1407
 3521TIP3    H232055   6.156   0.401   4.041  0.4839 -0.1766 -1.1297
 3522TIP3   OH232056   2.927   1.346  13.199  0.1453  0.8595  0.5650
 3522TIP3    H132057   2.859   1.399  13.243 -0.1547  0.6594  0.3431
 3522TIP3    H232058   2.887   1.260  13.190  0.2819  0.8527  0.0603
 3523TIP3   OH232059   2.934   6.726   1.890  0.4140  0.4643  0.4184
 3523TIP3    H132060   2.903   6.680   1.968 -0.8844 -0.4005 -0.5778
 3523TIP3    H232061   3.017   6.683   1.869 -0.1105 -0.5058  0.2923
 3524TIP3   OH232062   3.758   1.023   2.974 -0.4884  0.0525  1.1535
 3524TIP3    H132063   3.832   0.990   3.025  1.7132  0.5991 -1.5505
 3524TIP3    H232064   3.761   1.118   2.987 -1.0015  0.0282  1.4291
 3525TIP3   OH232065   5.440   3.986  16.362  0.2537  0.5972  0.2160
 3525TIP3    H132066   5.446   3.961  16.455  2.3499  0.8808  0.1812
 3525TIP3    H232067   5.372   3.929  16.327  0.5070 -0.6084  1.5917
 3526TIP3   OH232068   2.382   1.911   1.405  0.5776 -0.3317  0.1163
 3526TIP3    H132069   2.422   1.995   1.383 -0.0370  0.0868  0.5872
 3526TIP3    H232070   2.452   1.847   1.390  1.0410  0.2582 -0.2648
 3527TIP3   OH232071   3.240   2.200  15.198 -0.1531  0.1012 -0.1298
 3527TIP3    H132072   3.249   2.201  15.103 -0.1484  1.9089 -0.1374
 3527TIP3    H232073   3.223   2.109  15.220 -1.3201 -0.1506 -1.9805
 3528TIP3   OH232074   4.547   4.796   5.305  0.2794  0.0112 -0.0898
 3528TIP3    H132075   4.630   4.783   5.260 -0.3276 -0.9800 -0.9485
 3528TIP3    H232076   4.532   4.714   5.352 -0.4251  0.0178 -0.2948
 3529TIP3   OH232077   0.484   3.000   2.558  0.4026 -0.4045  0.7840
 3529TIP3    H132078   0.411   3.015   2.498  1.5714 -0.5635 -0.7156
 3529TIP3    H232079   0.536   3.081   2.553  0.4494 -0.3721  1.6733
 3530TIP3   OH232080   2.400   6.268  16.558  1.0066  0.6073 -0.3916
 3530TIP3    H132081   2.367   6.262  16.468  2.3315 -0.9773 -0.7819
 3530TIP3    H232082   2.491   6.296  16.549  1.8000 -1.6887  0.3343
 3531TIP3   OH232083   2.022   0.030   6.498 -0.8138  0.6682  0.3024
 3531TIP3    H132084   2.106   0.044   6.454 -0.1293 -0.8780  1.1044
 3531TIP3    H232085   2.044  -0.018   6.577 -2.7266 -1.9512 -0.6964
 3532TIP3   OH232086   0.680   2.505   3.829  0.0032  0.1186  0.2878
 3532TIP3    H132087   0.764   2.526   3.870  0.5571  0.6989 -1.1313
 3532TIP3    H232088   0.620   2.570   3.864  0.4129  0.4445  0.3990
 3533TIP3   OH232089   0.709   4.427  13.299 -0.1947  0.2777 -0.2124
 3533TIP3    H132090   0.632   4.391  13.343  1.5743 -3.3544  0.1202
 3533TIP3    H232091   0.676   4.457  13.214 -1.9610 -1.1791 -0.0765
 3534TIP3   OH232092   1.063   3.090  15.857 -0.4853  0.5540  0.2444
 3534TIP3    H132093   1.094   3.154  15.921 -0.4151  0.0579  0.7113
 3534TIP3    H232094   0.971   3.076  15.879 -0.3365  0.0229  0.5414
 3535TIP3   OH232095   1.848   0.104   6.258 -0.5043  0.5043  0.1925
 3535TIP3    H132096   1.808   0.150   6.184 -0.8551  1.0414  0.7065
 3535TIP3    H232097   1.802   0.139   6.335 -0.1929 -0.1015  0.6532
 3536TIP3   OH232098   3.137   4.676  13.209 -0.1825  0.2664 -0.0456
 3536TIP3    H132099   3.213   4.668  13.152 -0.9716 -1.6948 -0.8605
 3536TIP3    H232100   3.093   4.591  13.203 -1.2734  0.6323  2.0725
 3537TIP3   OH232101   6.097   4.876  15.438 -0.2002 -0.5376  0.2213
 3537TIP3    H132102   6.183   4.876  15.396 -0.2345 -1.5748  0.1531
 3537TIP3    H232103   6.112   4.918  15.523 -0.2150  1.9695 -0.9798
 3538TIP3   OH232104   1.885   0.791  16.264  0.0515  0.0189  0.4583
 3538TIP3    H132105   1.853   0.881  16.266 -0.2864 -0.1152  1.1154
 3538TIP3    H232106   1.975   0.797  16.296 -0.0099  0.1072  0.6164
 3539TIP3   OH232107   4.572   5.752  11.435 -0.0949  0.2028  0.5108
 3539TIP3    H132108   4.629   5.727  11.363  2.5941  0.7456  2.4094
 3539TIP3    H232109   4.544   5.841  11.413 -0.5606 -0.2081 -0.6106
 3540TIP3   OH232110   5.344   5.750  11.410 -0.0603 -0.0476  0.0210
 3540TIP3    H132111   5.370   5.833  11.449 -1.3456  0.9345 -1.1987
 3540TIP3    H232112   5.315   5.696  11.483  0.4989  0.6655  0.7691
 3541TIP3   OH232113   4.536   6.363   2.964 -0.5083  0.4641  0.0631
 3541TIP3    H132114   4.534   6.416   2.885  0.5395 -1.1016 -1.0567
 3541TIP3    H232115   4.573   6.420   3.031 -2.0185  2.0213 -0.3812
 3542TIP3   OH232116   1.039   5.993   1.954  0.1700  0.2399  0.2100
 3542TIP3    H132117   1.008   5.951   2.033  0.8854  2.4048  1.7072
 3542TIP3    H232118   1.133   5.974   1.952 -0.0701 -0.9029 -0.8435
 3543TIP3   OH232119   4.873   6.564   2.645  0.2729  0.4333 -0.0935
 3543TIP3    H132120   4.931   6.498   2.607  1.7987  1.0996  1.0498
 3543TIP3    H232121   4.921   6.646   2.638 -1.4897  1.3973 -1.2162
 3544TIP3   OH232122   1.554   4.668   2.132  0.3834 -0.7743 -0.2254
 3544TIP3    H132123   1.599   4.750   2.149  0.7580 -0.7066 -1.5418
 3544TIP3    H232124   1.461   4.692   2.129  0.6256 -0.0291 -2.6603
 3545TIP3   OH232125   4.198   3.241   5.341  0.5070  0.4114  1.2157
 3545TIP3    H132126   4.216   3.152   5.311  1.5115  0.7355  0.8455
 3545TIP3    H232127   4.149   3.230   5.422 -0.4614 -0.4781  0.5300
 3546TIP3   OH232128   0.690   0.912   1.047 -0.1582  0.8077 -0.2128
 3546TIP3    H132129   0.594   0.906   1.042 -0.1268 -0.7745  0.5372
 3546TIP3    H232130   0.709   0.911   1.141  0.5647  1.8703 -0.3415
 3547TIP3   OH232131   6.319   2.117   5.140  0.1543 -0.0132  0.0461
 3547TIP3    H132132   6.288   2.152   5.056 -1.2344  0.0609  0.5832
 3547TIP3    H232133   6.306   2.189   5.202  2.5455  0.4537  0.0631
 3548TIP3   OH232134   0.223   3.367   5.267  0.0380 -0.6180 -0.1147
 3548TIP3    H132135   0.250   3.392   5.355  1.1100  1.1503 -0.9139
 3548TIP3    H232136   0.159   3.298   5.280 -4.1955  3.5279  2.2921
 3549TIP3   OH232137   6.593   6.813  16.839  0.0930 -0.5326  0.0419
 3549TIP3    H132138   6.562   6.848  16.756  1.3640 -1.9880 -1.0878
 3549TIP3    H232139   6.548   6.729  16.848  2.4195 -1.9347 -0.8584
 3550TIP3   OH232140   1.581   3.144  15.770 -0.0109 -0.4934  0.3695
 3550TIP3    H132141   1.493   3.129  15.804 -0.4765  1.8453  0.2704
 3550TIP3    H232142   1.628   3.188  15.841  0.9338 -1.2717  0.2409
 3551TIP3   OH232143   0.953   4.279  13.366 -0.1322  0.4766  0.4846
 3551TIP3    H132144   0.898   4.213  13.408 -1.6987  0.7922 -1.0461
 3551TIP3    H232145   0.993   4.234  13.291 -0.1739  0.9130  0.1987
 3552TIP3   OH232146   2.920   1.984   3.450  0.1204  0.1803 -0.5843
 3552TIP3    H132147   2.913   2.079   3.453  0.7641  0.2114 -0.0472
 3552TIP3    H232148   2.896   1.955   3.538 -0.9103 -0.2123 -0.9901
 3553TIP3   OH232149   4.181   2.254  13.434 -0.0337  0.0069  0.0402
 3553TIP3    H132150   4.136   2.175  13.463  1.0013 -0.0541  1.6068
 3553TIP3    H232151   4.136   2.281  13.355 -2.1193 -0.6299  0.9889
 3554TIP3   OH232152   0.405   2.211  14.445 -0.0321  0.5810 -0.2117
 3554TIP3    H132153   0.329   2.200  14.387  0.3526 -1.7402 -0.3164
 3554TIP3    H232154   0.476   2.239  14.387  0.1332 -0.9074 -0.7557
 3555TIP3   OH232155   5.199   5.480  12.670 -0.4056 -0.4320  0.4296
 3555TIP3    H132156   5.181   5.397  12.625  1.3573 -0.5824 -0.0610
 3555TIP3    H232157   5.239   5.454  12.753  0.1753 -0.0863  0.2648
 3556TIP3   OH232158   2.130   6.720   2.627  0.1160 -0.0251 -0.3218
 3556TIP3    H132159   2.222   6.729   2.599 -0.1015  0.1236 -0.9959
 3556TIP3    H232160   2.131   6.746   2.719  0.2361  2.9241 -1.1014
 3557TIP3   OH232161   1.424   4.304  16.768 -0.1209 -0.8895  0.2363
 3557TIP3    H132162   1.384   4.389  16.752 -1.6299 -1.8553 -1.1669
 3557TIP3    H232163   1.508   4.308  16.722  1.3057  0.9570  2.8007
 3558TIP3   OH232164   3.190   2.736   2.812 -0.2759 -0.9028  0.8346
 3558TIP3    H132165   3.148   2.744   2.898  0.8495 -0.5805  1.3654
 3558TIP3    H232166   3.276   2.777   2.824  0.8799 -3.1331  0.2512
 3559TIP3   OH232167   2.311   0.485   2.235  0.4853  0.0513  0.7743
 3559TIP3    H132168   2.246   0.417   2.217  1.8720 -0.9310 -0.6385
 3559TIP3    H232169   2.300   0.549   2.165  0.1146  0.5991  1.3230
 3560TIP3   OH232170   0.472   2.949  11.301 -0.5420  0.0664  0.1023
 3560TIP3    H132171   0.448   3.009  11.230  0.3354 -0.9954 -1.1306
 3560TIP3    H232172   0.549   2.990  11.342  1.4963 -1.2846 -2.2179
 3561TIP3   OH232173   2.677   2.263  11.563 -0.0680 -0.5353 -0.0273
 3561TIP3    H132174   2.627   2.247  11.643  0.2026 -0.9834  0.0529
 3561TIP3    H232175   2.629   2.333  11.519 -0.4236 -0.5390  0.3476
 3562TIP3   OH232176   2.238   4.052  11.167  0.3888  0.2981 -1.2337
 3562TIP3    H132177   2.283   4.089  11.243 -0.1101 -0.1541 -0.7119
 3562TIP3    H232178   2.308   4.031  11.105  0.7134  1.6443 -1.3262
 3563TIP3   OH232179   2.590   2.112  14.210 -0.1782 -0.3613  0.3663
 3563TIP3    H132180   2.683   2.108  14.186 -0.4898 -2.9855 -0.5197
 3563TIP3    H232181   2.544   2.129  14.128 -0.5552 -0.2277  0.6075
 3564TIP3   OH232182   2.737   6.571  13.735 -0.6166 -0.1130  0.1225
 3564TIP3    H132183   2.793   6.643  13.703 -1.4867  0.8117  0.6738
 3564TIP3    H232184   2.750   6.571  13.830 -1.4987  0.0710  0.2491
 3565TIP3   OH232185   6.577   5.684  11.627  0.1765 -0.1051  0.2615
 3565TIP3    H132186   6.592   5.616  11.693  1.2489  0.1931  0.3274
 3565TIP3    H232187   6.504   5.735  11.661 -0.7533 -1.3208  0.1345
 3566TIP3   OH232188   1.600   2.857   3.000  0.0193  0.0571 -0.2615
 3566TIP3    H132189   1.624   2.936   2.950  2.0211 -0.2193  0.2431
 3566TIP3    H232190   1.552   2.803   2.937  0.8601  0.5610 -1.3542
 3567TIP3   OH232191   5.758   2.910  16.787  0.1462  0.1169 -0.1568
 3567TIP3    H132192   5.695   2.948  16.727  1.3720  1.4727 -0.6080
 3567TIP3    H232193   5.840   2.906  16.737  0.1449 -2.8872 -0.0507
 3568TIP3   OH232194   5.326   6.633   3.369  0.0288 -0.9857 -0.2462
 3568TIP3    H132195   5.262   6.669   3.430  0.7576  0.9962 -0.6153
 3568TIP3    H232196   5.285   6.552   3.337 -1.4752 -0.7147  0.9160
 3569TIP3   OH232197   0.295   3.807  16.890 -0.3839  0.8835  0.3543
 3569TIP3    H132198   0.280   3.869  16.961  1.0561  0.2334  1.2381
 3569TIP3    H232199   0.365   3.845  16.838  0.0015  0.3485  0.4764
 3570TIP3   OH232200   4.326   6.277  13.621  0.2308  0.3601 -0.6153
 3570TIP3    H132201   4.417   6.274  13.648  0.5904 -3.4945 -1.9821
 3570TIP3    H232202   4.293   6.188  13.637 -2.5790  1.0074 -2.4423
 3571TIP3   OH232203   4.470   6.480  17.225  0.0887 -0.4857 -0.0702
 3571TIP3    H132204   4.469   6.571  17.195 -2.6939 -0.5184 -0.2724
 3571TIP3    H232205   4.442   6.485  17.316  1.4544 -1.0088  0.3805
 3572TIP3   OH232206   1.563   4.775  16.416  0.0732  0.1852  0.3616
 3572TIP3    H132207   1.658   4.775  16.422  0.0568  1.5429  0.7364
 3572TIP3    H232208   1.534   4.726  16.493  0.4513  0.4891  0.7023
 3573TIP3   OH232209   2.877   1.444   4.042 -0.1714 -0.0342 -0.4149
 3573TIP3    H132210   2.957   1.461   4.093  0.1866 -0.5513 -0.8029
 3573TIP3    H232211   2.807   1.484   4.093  0.3833  0.7045 -0.2307
 3574TIP3   OH232212   3.160   1.446  11.387 -0.5914 -0.4846 -0.2097
 3574TIP3    H132213   3.201   1.481  11.308 -1.0174  0.6728  0.0643
 3574TIP3    H232214   3.067   1.460  11.374 -0.4842  2.4186  1.7266
 3575TIP3   OH232215   4.577   2.274  13.143 -0.1384  0.2782  0.1457
 3575TIP3    H132216   4.563   2.222  13.222  1.6708 -0.5577 -0.0618
 3575TIP3    H232217   4.519   2.235  13.078 -2.4928  1.6777  1.3234
 3576TIP3   OH232218   2.046   3.689   3.416  0.1891 -0.3306 -0.8031
 3576TIP3    H132219   2.047   3.617   3.480  0.0923  0.3646 -0.0162
 3576TIP3    H232220   2.005   3.651   3.339 -0.5636 -0.9056 -0.1315
 3577TIP3   OH232221   6.205   3.300  11.643 -0.2418  0.1075 -0.1716
 3577TIP3    H132222   6.180   3.392  11.639 -0.1389  0.1417  0.0019
 3577TIP3    H232223   6.246   3.289  11.729 -1.6012 -0.4275  0.4292
 3578TIP3   OH232224   4.753   0.880   0.012  0.0356  0.1132  0.1726
 3578TIP3    H132225   4.834   0.886  -0.037 -0.4029  0.8305 -0.4728
 3578TIP3    H232226   4.762   0.801   0.065  1.2948  0.3821  0.3602
 3579TIP3   OH232227   5.064   2.082   4.471  0.1659 -0.4841  0.4085
 3579TIP3    H132228   5.050   2.098   4.378 -0.2197 -1.2594  0.3375
 3579TIP3    H232229   5.036   2.163   4.514  0.1098 -0.2210 -0.1261
 3580TIP3   OH232230   0.018   5.545  13.687 -0.2295 -0.1484  0.7334
 3580TIP3    H132231   0.018   5.623  13.743  1.1361 -1.6376  2.8673
 3580TIP3    H232232   0.004   5.579  13.599  1.9105  2.6519  1.4137
 3581TIP3   OH232233   6.555   5.454  14.525 -0.0539  0.1181 -0.0707
 3581TIP3    H132234   6.467   5.419  14.537  0.2815 -0.4403  0.7716
 3581TIP3    H232235   6.563   5.466  14.430 -1.0664  0.2682 -0.1422
 3582TIP3   OH232236   4.546   5.580  13.998  0.5156 -0.0937  0.1765
 3582TIP3    H132237   4.543   5.484  13.998 -0.4638 -0.0782  0.9473
 3582TIP3    H232238   4.636   5.601  14.022  0.9443 -0.8210 -0.7685
 3583TIP3   OH232239   6.562   1.679   3.969  0.2764  0.0617  0.2909
 3583TIP3    H132240   6.586   1.763   3.931 -0.4925 -0.2575 -0.9426
 3583TIP3    H232241   6.476   1.659   3.931 -0.2766 -0.5251  1.8035
 3584TIP3   OH232242   1.693   1.218  11.566  0.1423 -0.7206  0.4432
 3584TIP3    H132243   1.652   1.238  11.482  1.0004  1.3711  0.4944
 3584TIP3    H232244   1.620   1.197  11.625 -0.5240 -1.2487 -0.5690
 3585TIP3   OH232245   5.584   3.374   1.852  0.2495 -0.8318  0.1136
 3585TIP3    H132246   5.625   3.344   1.933  0.7847 -0.2983  0.0493
 3585TIP3    H232247   5.602   3.468   1.850 -1.4496 -0.4930  0.3392
 3586TIP3   OH232248   1.101   3.126  10.957 -0.0315 -0.3513 -0.2668
 3586TIP3    H132249   1.175   3.067  10.971  0.7656  0.4096 -1.1735
 3586TIP3    H232250   1.128   3.182  10.884 -0.6372  1.3563  0.7826
 3587TIP3   OH232251   6.742   1.456   3.493 -0.5098 -0.1875 -0.6413
 3587TIP3    H132252   6.734   1.425   3.402 -1.2101 -2.5698  0.2139
 3587TIP3    H232253   6.737   1.377   3.546 -2.0174  1.3702  1.5974
 3588TIP3   OH232254   2.186   0.739  11.861 -0.4412  0.0695  0.2622
 3588TIP3    H132255   2.122   0.759  11.792 -2.0602  1.1191  2.0099
 3588TIP3    H232256   2.140   0.681  11.921 -0.5385  2.5111  2.6611
 3589TIP3   OH232257   3.537   2.839  15.207 -0.1743 -0.0833  0.4443
 3589TIP3    H132258   3.446   2.811  15.206 -0.6044  1.1594 -2.5144
 3589TIP3    H232259   3.586   2.762  15.177 -0.4127 -0.3054  0.6253
 3590TIP3   OH232260   2.107   3.187   0.065 -0.0800 -0.1664  0.3987
 3590TIP3    H132261   2.035   3.139   0.106  0.5173  0.5146  2.3107
 3590TIP3    H232262   2.186   3.146   0.100  0.4730 -0.6872 -1.4243
 3591TIP3   OH232263   5.981   5.379   3.231 -0.5224  0.3043  0.0326
 3591TIP3    H132264   5.996   5.289   3.258 -1.7729  0.6087  1.7753
 3591TIP3    H232265   5.895   5.378   3.189 -0.5226  0.6795  0.0202
 3592TIP3   OH232266   3.874   0.205   0.733 -0.1607 -0.0833 -0.1783
 3592TIP3    H132267   3.786   0.209   0.770 -0.6371 -0.0639 -1.3181
 3592TIP3    H232268   3.869   0.137   0.666  0.5976  0.1863 -0.5120
 3593TIP3   OH232269   0.342   3.665  13.159 -0.4272  0.7345 -0.2495
 3593TIP3    H132270   0.278   3.601  13.127 -0.5055  1.3400 -1.3465
 3593TIP3    H232271   0.411   3.612  13.199 -1.7351  0.0791  1.2118
 3594TIP3   OH232272   5.883   2.133  10.964  0.3723  0.6799  0.3753
 3594TIP3    H132273   5.852   2.063  11.021  1.6897  0.4275  0.8050
 3594TIP3    H232274   5.900   2.091  10.880  0.5001  0.6250  0.4293
 3595TIP3   OH232275   0.606   0.742  16.177 -0.3162 -0.2479 -0.7058
 3595TIP3    H132276   0.554   0.698  16.110 -1.2742  0.4042 -0.4022
 3595TIP3    H232277   0.576   0.833  16.175  0.9504  0.1839 -0.6616
 3596TIP3   OH232278   5.525   1.426  12.391  0.0352  0.0421 -0.0471
 3596TIP3    H132279   5.580   1.382  12.326 -3.0259 -3.7859 -0.1806
 3596TIP3    H232280   5.576   1.422  12.472  1.5634  0.0508 -0.9843
 3597TIP3   OH232281   2.566   5.547  16.421  0.6373 -0.2126  0.4460
 3597TIP3    H132282   2.485   5.552  16.473 -0.8580 -0.8453 -1.7319
 3597TIP3    H232283   2.549   5.602  16.345  1.5646 -1.7995 -0.9345
 3598TIP3   OH232284   5.813   0.591   0.006  0.0073 -0.1732 -0.0688
 3598TIP3    H132285   5.739   0.624  -0.045  1.8487  0.9498 -2.1125
 3598TIP3    H232286   5.790   0.501   0.028 -2.4519  0.5219  0.3564
 3599TIP3   OH232287   1.772   2.930  15.744  0.4373 -1.1440 -0.2210
 3599TIP3    H132288   1.691   2.981  15.753  0.2970 -1.3731 -0.1861
 3599TIP3    H232289   1.774   2.905  15.652  0.4884 -1.1049 -0.2302
 3600TIP3   OH232290   5.474   6.601   5.641 -0.3108 -0.3302  0.8143
 3600TIP3    H132291   5.529   6.666   5.685 -1.6965  1.2925  0.2142
 3600TIP3    H232292   5.387   6.639   5.643 -0.8311 -1.3644 -1.1390
 3601TIP3   OH232293   2.881   4.951   0.172  0.2439 -0.3618 -0.1882
 3601TIP3    H132294   2.923   4.872   0.136 -0.8571 -1.3418  0.6184
 3601TIP3    H232295   2.795   4.920   0.201 -0.8047  1.4806 -1.2760
 3602TIP3   OH232296   4.124   6.098  11.411  0.2145  0.1965  0.1850
 3602TIP3    H132297   4.128   6.002  11.404  2.7652  0.2534  0.1802
 3602TIP3    H232298   4.074   6.114  11.490  1.1960 -1.1968  1.1194
 3603TIP3   OH232299   2.879   0.614   1.442 -0.0438  0.0104 -0.1413
 3603TIP3    H132300   2.965   0.596   1.480 -0.1861  3.4887  2.0464
 3603TIP3    H232301   2.893   0.695   1.392 -1.4288 -0.9556 -2.1558
 3604TIP3   OH232302   4.921   6.331  14.084 -0.6281  0.2166  0.5694
 3604TIP3    H132303   4.847   6.272  14.068 -0.5721  0.5593 -0.9687
 3604TIP3    H232304   4.990   6.299  14.027  0.3136  0.1350  1.7261
 3605TIP3   OH232305   0.413   0.542   2.889 -0.4124  0.7887  0.2188
 3605TIP3    H132306   0.448   0.628   2.864  2.3894 -0.4622 -0.4853
 3605TIP3    H232307   0.371   0.509   2.809 -1.7511  1.6117  0.5758
 3606TIP3   OH232308   6.680   2.224  11.849  0.2662  0.1718  0.3638
 3606TIP3    H132309   6.606   2.182  11.806 -0.4457  0.7983  0.9546
 3606TIP3    H232310   6.725   2.271  11.779  1.7850 -2.5217 -0.5359
 3607TIP3   OH232311   1.084   2.224   2.684  0.0523  0.4941  0.1840
 3607TIP3    H132312   1.058   2.255   2.771 -0.3987  0.7413 -0.0332
 3607TIP3    H232313   1.060   2.297   2.626 -0.5307 -0.0512 -0.2672
 3608TIP3   OH232314   3.962   1.493   4.198  0.5159 -0.2694  0.3121
 3608TIP3    H132315   4.039   1.470   4.249  0.1561  0.3865  1.1763
 3608TIP3    H232316   3.955   1.588   4.208  0.1252 -0.2067 -0.5198
 3609TIP3   OH232317   2.822   5.808  13.886  0.1624  0.1980 -0.7347
 3609TIP3    H132318   2.727   5.801  13.875  0.2177 -0.1493 -1.0030
 3609TIP3    H232319   2.858   5.783  13.801  0.4571  1.6243 -1.0331
 3610TIP3   OH232320   4.524   0.806   0.552  0.1843 -0.2311  0.4705
 3610TIP3    H132321   4.447   0.852   0.584  0.9106 -0.0732  2.0424
 3610TIP3    H232322   4.505   0.713   0.568  0.7883 -0.1113  1.9273
 3611TIP3   OH232323   5.604   3.902  12.018 -0.1919  0.0805  0.0959
 3611TIP3    H132324   5.655   3.980  12.000 -0.3645  0.5923  1.6852
 3611TIP3    H232325   5.513   3.933  12.025 -0.6760 -0.7327 -2.1595
 3612TIP3   OH232326   3.675   4.677  12.605  0.3131  0.1307  0.3168
 3612TIP3    H132327   3.747   4.669  12.542  1.4099  0.4359  1.4969
 3612TIP3    H232328   3.630   4.758  12.580  0.0018 -0.3875 -0.8102
 3613TIP3   OH232329   0.392   0.800  14.781 -0.0763 -0.3929  0.0562
 3613TIP3    H132330   0.309   0.845  14.792  0.9073  1.5384 -0.1615
 3613TIP3    H232331   0.370   0.719  14.735 -1.9592 -0.4393  0.9865
 3614TIP3   OH232332   4.523   0.363  14.699  0.1857 -0.0460  0.0793
 3614TIP3    H132333   4.546   0.439  14.645  0.4635 -0.9475 -1.0820
 3614TIP3    H232334   4.435   0.339  14.670  0.7004 -1.1046 -0.6621
 3615TIP3   OH232335   4.126   4.198   2.647 -0.5088  0.5775 -0.0487
 3615TIP3    H132336   4.079   4.212   2.728  1.7546 -1.5760  1.7095
 3615TIP3    H232337   4.218   4.190   2.674  0.4695  1.2168 -2.9739
 3616TIP3   OH232338   5.027   1.580  14.253 -0.6222 -0.0480 -0.4276
 3616TIP3    H132339   5.104   1.536  14.291 -0.3134  0.1903 -0.7720
 3616TIP3    H232340   5.013   1.655  14.310 -0.8020 -0.2695 -0.1745
 3617TIP3   OH232341   2.929   2.126   3.809  0.0274 -0.3377 -0.2853
 3617TIP3    H132342   2.872   2.129   3.886  0.5367  2.0519  0.0200
 3617TIP3    H232343   2.886   2.063   3.751 -0.9967 -1.2775  1.4424
 3618TIP3   OH232344   1.519   0.229  13.689  0.1335  0.4838  0.1954
 3618TIP3    H132345   1.464   0.203  13.615 -0.1213 -0.9697  0.8847
 3618TIP3    H232346   1.479   0.311  13.720  0.5686  1.4251 -1.5943
 3619TIP3   OH232347   5.093   5.820  15.375 -0.0673 -0.1561 -0.0284
 3619TIP3    H132348   5.053   5.840  15.459  1.3559  1.0513  0.3939
 3619TIP3    H232349   5.170   5.878  15.371 -0.5680  0.4115 -2.4930
 3620TIP3   OH232350   2.343   4.751  16.932  0.0129 -0.0777  0.0788
 3620TIP3    H132351   2.313   4.741  16.841 -2.3869 -0.7909  0.9226
 3620TIP3    H232352   2.327   4.844  16.951 -0.8726 -0.2637  0.2510
 3621TIP3   OH232353   2.548   0.896   2.489 -0.4111  0.1717 -0.5823
 3621TIP3    H132354   2.636   0.859   2.482 -0.5115 -0.0910 -0.4860
 3621TIP3    H232355   2.561   0.984   2.524 -0.3076 -0.5453  1.2393
 3622TIP3   OH232356   3.502   5.735   1.820  0.5665 -0.0492 -0.0711
 3622TIP3    H132357   3.531   5.647   1.798  0.2548  0.2382 -1.6437
 3622TIP3    H232358   3.409   5.726   1.842  0.5845 -0.1462 -0.0366
 3623TIP3   OH232359   1.996   2.941   2.115 -0.5188 -0.1451  0.5054
 3623TIP3    H132360   1.970   2.871   2.174 -1.4666 -0.9327 -0.8139
 3623TIP3    H232361   1.928   2.942   2.048 -0.5639  2.1060  0.5563
 3624TIP3   OH232362   0.865   2.225   1.428  0.2989  0.6806 -0.3508
 3624TIP3    H132363   0.866   2.235   1.333  2.4466  2.3403 -0.1938
 3624TIP3    H232364   0.820   2.142   1.443  0.5487  0.0571 -2.8493
 3625TIP3   OH232365   0.673   1.919   1.975 -0.5061 -0.1828 -0.3405
 3625TIP3    H132366   0.735   1.985   2.006 -0.6024  0.0287 -0.5982
 3625TIP3    H232367   0.688   1.844   2.032  0.3555 -0.3192 -0.7328
 3626TIP3   OH232368   3.174   2.090  13.608  0.2125  0.8074  0.1654
 3626TIP3    H132369   3.249   2.076  13.667 -0.6190  1.2902  1.3606
 3626TIP3    H232370   3.162   2.005  13.566 -0.0518  0.0304  1.7521
 3627TIP3   OH232371   3.517   5.392   0.736  0.3288 -0.5931 -0.1954
 3627TIP3    H132372   3.574   5.468   0.734 -0.0421 -0.3032  0.1587
 3627TIP3    H232373   3.558   5.333   0.799  0.7432 -0.7912 -0.6468
 3628TIP3   OH232374   2.636   3.259  17.133  0.1374 -0.5114  0.0749
 3628TIP3    H132375   2.656   3.346  17.098 -0.4830  0.1749  1.4031
 3628TIP3    H232376   2.541   3.250  17.119  0.2872 -1.1913 -0.5301
 3629TIP3   OH232377   5.091   5.637   1.940 -0.0543  0.7693  0.1759
 3629TIP3    H132378   5.176   5.598   1.922 -0.2838  0.8505 -1.1395
 3629TIP3    H232379   5.077   5.698   1.868 -0.7253  1.5919  0.9844
 3630TIP3   OH232380   2.693   2.369   5.970 -0.4682 -0.1968  0.2684
 3630TIP3    H132381   2.723   2.280   5.991  0.4331  0.1340  0.3770
 3630TIP3    H232382   2.607   2.376   6.013 -0.4906 -0.9693  0.3628
 3631TIP3   OH232383   3.596   0.367  12.832 -0.0288 -0.4952  0.1295
 3631TIP3    H132384   3.504   0.393  12.839  0.5942  1.5292  1.3355
 3631TIP3    H232385   3.613   0.319  12.913 -0.0281 -0.8465 -0.0806
 3632TIP3   OH232386   3.101   0.579   1.576 -0.3016 -0.5732  0.3603
 3632TIP3    H132387   3.066   0.619   1.656 -1.1032 -0.2364 -0.1510
 3632TIP3    H232388   3.180   0.533   1.605  0.9385  1.7857  0.8853
 3633TIP3   OH232389   4.986   1.249  13.028  0.2753 -0.7056 -0.3049
 3633TIP3    H132390   4.967   1.194  13.104 -1.6268  0.2597 -0.0498
 3633TIP3    H232391   4.910   1.237  12.970  0.4550  0.6144 -0.8342
 3634TIP3   OH232392   3.479   2.794   0.305  0.1848 -0.1470  0.4990
 3634TIP3    H132393   3.531   2.786   0.385  0.6099  0.8816  0.3328
 3634TIP3    H232394   3.509   2.721   0.250  0.1605 -0.6325  1.1247
 3635TIP3   OH232395   5.268   1.232  16.752 -0.1758 -0.4573 -0.0208
 3635TIP3    H132396   5.334   1.176  16.792  0.8148  0.6770 -0.0116
 3635TIP3    H232397   5.224   1.274  16.827  0.2723  0.0957 -0.0652
 3636TIP3   OH232398   1.120   2.408  12.100  0.0429 -0.5377  0.3245
 3636TIP3    H132399   1.035   2.447  12.122  0.3341  0.4280 -0.2302
 3636TIP3    H232400   1.111   2.381  12.009  0.1870 -0.8184  0.3962
 3637TIP3   OH232401   3.796   2.539   3.187 -0.4337  0.3027 -0.1289
 3637TIP3    H132402   3.772   2.460   3.138  0.9756 -1.0597  1.2836
 3637TIP3    H232403   3.729   2.546   3.255  0.1444 -0.4481  0.5379
 3638TIP3   OH232404   3.321   5.187  10.762  0.1102 -0.0555  0.6255
 3638TIP3    H132405   3.250   5.126  10.743 -1.2285  1.0708  1.8700
 3638TIP3    H232406   3.383   5.136  10.814  1.4495 -1.7519 -2.4964
 3639TIP3   OH232407   6.375   5.711   4.786  0.6811 -0.0339 -0.4531
 3639TIP3    H132408   6.346   5.799   4.763  1.1679  0.1822 -0.2606
 3639TIP3    H232409   6.311   5.680   4.850 -0.5487 -0.5567 -1.9267
 3640TIP3   OH232410   4.977   1.024  16.332  0.0272 -0.4264 -0.3190
 3640TIP3    H132411   5.001   0.941  16.374  0.5956  0.7190  1.7014
 3640TIP3    H232412   5.061   1.064  16.310 -0.1218  0.9107  1.3846
 3641TIP3   OH232413   0.297   3.859  11.145  0.3613  0.3906 -0.4267
 3641TIP3    H132414   0.225   3.920  11.135  0.0892  0.4275  1.5602
 3641TIP3    H232415   0.287   3.797  11.072 -1.4108  0.6614 -0.4229
 3642TIP3   OH232416   0.653   2.470   5.448  0.0848  0.2176  0.3012
 3642TIP3    H132417   0.719   2.496   5.384 -1.0016  0.8245 -0.5903
 3642TIP3    H232418   0.690   2.494   5.533  2.5950 -2.7665  0.1443
 3643TIP3   OH232419   4.529   5.860  16.003  0.5290 -0.8466 -0.0614
 3643TIP3    H132420   4.531   5.941  15.952  0.7807 -0.8024  0.0162
 3643TIP3    H232421   4.439   5.828  15.994  0.2465 -0.2118  0.4512
 3644TIP3   OH232422   1.188   1.503   5.850  0.3567  0.2187 -0.3974
 3644TIP3    H132423   1.219   1.576   5.904 -0.3998  0.1736  0.1099
 3644TIP3    H232424   1.241   1.428   5.878 -0.5747  0.0129  0.8657
 3645TIP3   OH232425   2.023   3.437   1.245  0.7841  0.0278  0.3417
 3645TIP3    H132426   2.017   3.525   1.284 -0.2502  0.3960 -0.6193
 3645TIP3    H232427   1.941   3.395   1.269  1.4249 -0.8072  1.0841
 3646TIP3   OH232428   0.120   3.903  11.476  0.0149  0.1969 -0.8616
 3646TIP3    H132429   0.185   3.954  11.429  3.2981 -2.1573  0.9031
 3646TIP3    H232430   0.115   3.945  11.562  0.4095 -0.5432 -0.4676
 3647TIP3   OH232431   5.249   2.936  12.417 -0.4069  0.6259  0.4527
 3647TIP3    H132432   5.253   2.955  12.323 -0.5291 -2.7134 -0.3089
 3647TIP3    H232433   5.340   2.918  12.441 -0.3995  1.3310  0.9622
 3648TIP3   OH232434   2.595   0.805   5.616 -0.3712  0.6454  0.3558
 3648TIP3    H132435   2.660   0.811   5.686  1.7411 -1.2850 -1.3381
 3648TIP3    H232436   2.511   0.795   5.661  0.8744  0.0466  2.5880
 3649TIP3   OH232437   0.617   6.491  14.253  0.1418  0.1263  0.4196
 3649TIP3    H132438   0.687   6.485  14.187 -0.3459  0.6885 -0.1555
 3649TIP3    H232439   0.658   6.462  14.334  0.4736 -1.5872 -0.3359
 3650TIP3   OH232440   2.596   3.474   5.571  0.0669 -0.3503 -0.0955
 3650TIP3    H132441   2.515   3.491   5.619  0.5222  0.6433  0.3341
 3650TIP3    H232442   2.657   3.442   5.638 -0.2335 -1.9695 -0.5797
 3651TIP3   OH232443   4.211   1.700   6.123  0.1377  0.1010 -0.2239
 3651TIP3    H132444   4.190   1.704   6.216 -0.2120 -0.2782 -0.2888
 3651TIP3    H232445   4.264   1.779   6.108  0.3987  0.0373  0.3436
 3652TIP3   OH232446   5.258   3.943  15.942  0.3443 -0.1393  0.1526
 3652TIP3    H132447   5.225   3.977  16.025 -0.1973 -0.5309  0.0998
 3652TIP3    H232448   5.275   4.022  15.889  0.0971  0.0825  0.4046
 3653TIP3   OH232449   4.010   2.720  13.747 -0.1153 -0.4786  0.1270
 3653TIP3    H132450   4.044   2.753  13.831 -0.3289  0.0240  0.0153
 3653TIP3    H232451   3.916   2.738  13.750 -0.1873 -0.8179 -0.0580
 3654TIP3   OH232452   4.115   3.036  12.100 -0.4664  0.2632 -0.1517
 3654TIP3    H132453   4.095   3.074  12.015 -0.6348  0.4263 -0.0400
 3654TIP3    H232454   4.210   3.037  12.105 -0.4956  2.3121  0.5866
 3655TIP3   OH232455   1.432   2.825   2.050  0.2393 -0.0715 -0.7816
 3655TIP3    H132456   1.472   2.835   1.964 -2.5169 -0.8421 -2.1829
 3655TIP3    H232457   1.382   2.743   2.044 -0.5794  0.2513  1.3016
 3656TIP3   OH232458   2.203   0.990   1.152 -0.4325  0.5147 -0.3703
 3656TIP3    H132459   2.247   1.041   1.220 -0.1361 -0.8978  0.5184
 3656TIP3    H232460   2.202   1.048   1.076 -0.4306  1.9731  0.7185
 3657TIP3   OH232461   4.093   6.278  15.907 -0.0993  0.0332 -0.3413
 3657TIP3    H132462   4.140   6.331  15.842 -1.1840  0.6879 -0.5858
 3657TIP3    H232463   4.059   6.204  15.856 -0.0388 -0.0102 -0.3194
 3658TIP3   OH232464   0.531   1.374   0.247  0.5093 -0.1892 -0.2071
 3658TIP3    H132465   0.556   1.344   0.159 -0.6966 -0.6177 -0.4099
 3658TIP3    H232466   0.592   1.445   0.266  1.3418 -0.6707 -1.0355
 3659TIP3   OH232467   1.797   0.275  15.521  0.6785 -0.2662 -0.3386
 3659TIP3    H132468   1.869   0.241  15.467  1.8731  0.9728  0.4351
 3659TIP3    H232469   1.769   0.355  15.476  1.5455  0.6658  0.7370
 3660TIP3   OH232470   0.642   5.570  10.976 -0.6320  0.0951 -0.5828
 3660TIP3    H132471   0.547   5.566  10.967 -0.8264 -0.4616  1.4415
 3660TIP3    H232472   0.673   5.486  10.943 -0.6507  1.0424 -3.1099
 3661TIP3   OH232473   0.214   0.739  16.030 -0.2021  0.2318 -0.3734
 3661TIP3    H132474   0.123   0.712  16.030 -0.1828  0.1510  0.9805
 3661TIP3    H232475   0.234   0.759  16.121  1.1845  0.0610 -0.6199
 3662TIP3   OH232476   5.988   0.455   0.776  0.4794 -0.5602  0.0275
 3662TIP3    H132477   5.920   0.443   0.842 -0.8195 -1.0175 -1.3528
 3662TIP3    H232478   5.982   0.548   0.752  2.7231  0.2471  2.3964
 3663TIP3   OH232479   2.910   2.962   5.174 -0.1115  0.2645  0.0421
 3663TIP3    H132480   2.894   2.897   5.241 -0.5472  0.9700  0.6306
 3663TIP3    H232481   2.957   3.032   5.219 -0.1823  0.6285 -0.4401
 3664TIP3   OH232482   5.607   1.554   4.212  0.5495  0.2048 -0.0085
 3664TIP3    H132483   5.538   1.524   4.152 -0.7837 -0.2788  1.7222
 3664TIP3    H232484   5.684   1.565   4.156 -0.5238 -0.6983 -1.7230
 3665TIP3   OH232485   3.847   0.873  16.154 -0.0013 -0.2755  0.7979
 3665TIP3    H132486   3.905   0.867  16.230  0.2159 -0.7089  0.5988
 3665TIP3    H232487   3.868   0.797  16.100  1.5710  1.3153 -0.9171
 3666TIP3   OH232488   6.771   5.646  15.635 -0.4232  0.3482 -0.3349
 3666TIP3    H132489   6.764   5.721  15.577  0.6569  0.7208 -0.0068
 3666TIP3    H232490   6.687   5.601  15.628 -0.3226  0.4251 -2.1197
 3667TIP3   OH232491   0.702   5.109   5.398 -0.2455 -0.3390 -0.5014
 3667TIP3    H132492   0.634   5.154   5.448 -1.0708  0.0529 -1.9300
 3667TIP3    H232493   0.784   5.136   5.438 -0.8462  0.8179 -0.0391
 3668TIP3   OH232494   5.507   0.665  16.811 -0.1943  0.3098  0.4595
 3668TIP3    H132495   5.524   0.744  16.861  1.6796  0.6837 -0.7335
 3668TIP3    H232496   5.554   0.596  16.859  0.8720  0.5121 -0.2804
 3669TIP3   OH232497   4.899   1.028  12.774  0.4258  0.1112  0.3626
 3669TIP3    H132498   4.895   1.103  12.714  1.8447  0.6138  0.8813
 3669TIP3    H232499   4.839   1.050  12.844 -0.5799 -0.0834 -0.4279
 3670TIP3   OH232500   4.482   2.774   1.856 -0.3974  0.3880  0.2827
 3670TIP3    H132501   4.469   2.768   1.761  1.3101  0.2824  0.0420
 3670TIP3    H232502   4.398   2.805   1.889 -1.4536 -0.9098 -1.1129
 3671TIP3   OH232503   6.502   3.190  12.266 -0.6000  0.5270 -0.0664
 3671TIP3    H132504   6.516   3.264  12.207  0.0611  0.2147 -0.3003
 3671TIP3    H232505   6.546   3.215  12.347 -0.3948  0.4023 -0.1384
 3672TIP3   OH232506   5.334   1.906  16.495 -0.0999  0.3422  0.1230
 3672TIP3    H132507   5.383   1.830  16.465 -0.1505 -0.5440  2.1990
 3672TIP3    H232508   5.401   1.969  16.523 -0.0798 -0.0739  1.0520
 3673TIP3   OH232509   1.801   5.281  14.940 -0.0261  0.5883  0.0975
 3673TIP3    H132510   1.820   5.342  14.869 -0.8647  1.6810  0.7946
 3673TIP3    H232511   1.761   5.205  14.896 -1.6657  1.7666 -0.4943
 3674TIP3   OH232512   4.497   3.714  13.354  0.2675  0.1412 -0.3266
 3674TIP3    H132513   4.561   3.754  13.294  0.6142 -0.6467 -0.4952
 3674TIP3    H232514   4.527   3.623  13.363  0.2772  0.2851  1.1288
 3675TIP3   OH232515   3.325   4.180   0.241 -0.2080 -0.2902 -0.1362
 3675TIP3    H132516   3.323   4.094   0.281  0.3020 -1.3539 -2.3053
 3675TIP3    H232517   3.327   4.241   0.314 -0.4691 -2.1143  1.4238
 3676TIP3   OH232518   6.378   5.289  15.914  0.2850 -0.0495  0.1495
 3676TIP3    H132519   6.471   5.294  15.892  0.3025 -0.1748  0.1966
 3676TIP3    H232520   6.364   5.361  15.977  0.1162  0.6481 -0.6800
 3677TIP3   OH232521   1.677   1.888   5.094 -0.9253 -0.6428 -0.3555
 3677TIP3    H132522   1.694   1.797   5.117  0.2728 -0.7966 -1.7579
 3677TIP3    H232523   1.639   1.885   5.006  0.5211  0.2708 -1.0437
 3678TIP3   OH232524   3.416   3.116  11.408  0.3267  0.0848  0.0549
 3678TIP3    H132525   3.396   3.040  11.461 -0.1336 -1.6620 -2.5606
 3678TIP3    H232526   3.369   3.102  11.326  3.0673  1.4254 -1.8231
 3679TIP3   OH232527   1.107   0.434  14.729  0.1719 -0.4699 -0.1346
 3679TIP3    H132528   1.012   0.429  14.719  0.2008 -0.3112 -0.4872
 3679TIP3    H232529   1.141   0.364  14.672  0.3825  1.0302 -1.8866
 3680TIP3   OH232530   5.910   0.916  15.206 -0.1591 -0.0842  0.3091
 3680TIP3    H132531   5.847   0.844  15.200 -0.4053  0.2902 -2.0355
 3680TIP3    H232532   5.892   0.971  15.129  1.3377  1.4104  0.9833
 3681TIP3   OH232533   1.724   6.126   1.869 -0.2343  0.2307  0.9343
 3681TIP3    H132534   1.733   6.199   1.808  1.5334 -1.3452 -0.7683
 3681TIP3    H232535   1.634   6.131   1.900 -0.6340  2.0994 -0.4826
 3682TIP3   OH232536   0.146   2.816  11.585  0.8724  0.2114  0.0807
 3682TIP3    H132537   0.066   2.870  11.587 -1.0180 -2.4913  0.3307
 3682TIP3    H232538   0.202   2.853  11.653 -0.7473  1.3102  0.8452
 3683TIP3   OH232539   6.442   6.807   0.575  0.0072  0.1125  0.1064
 3683TIP3    H132540   6.422   6.897   0.597 -0.4382 -0.1348  0.7311
 3683TIP3    H232541   6.434   6.759   0.658  0.0502 -0.5280 -0.2530
 3684TIP3   OH232542   0.213   6.638  12.851 -0.5514  0.2512  0.0833
 3684TIP3    H132543   0.123   6.669  12.855 -0.9593 -0.8805 -0.1425
 3684TIP3    H232544   0.266   6.717  12.863 -1.5402  1.2692 -1.9583
 3685TIP3   OH232545   0.648   1.406  14.905 -0.1455  0.4529  0.2762
 3685TIP3    H132546   0.637   1.380  14.814 -1.4032 -0.7786  0.7603
 3685TIP3    H232547   0.596   1.343  14.955 -0.8606  2.1301  1.7153
 3686TIP3   OH232548   1.893   6.621  13.508 -0.3015 -0.7797  0.7479
 3686TIP3    H132549   1.816   6.582  13.468 -0.8791 -0.4569  1.5361
 3686TIP3    H232550   1.885   6.714  13.490  1.7928 -1.0995 -2.3594
 3687TIP3   OH232551   2.943   0.277  11.710  0.1552 -0.7786  0.0563
 3687TIP3    H132552   2.873   0.274  11.644 -0.3279 -0.5332  0.5522
 3687TIP3    H232553   2.991   0.358  11.690 -2.2298  1.2677  2.2334
 3688TIP3   OH232554   4.015   2.636   1.350 -0.4112  0.2706  0.2477
 3688TIP3    H132555   4.088   2.575   1.356 -1.4114 -0.7161  2.8528
 3688TIP3    H232556   3.937   2.581   1.352 -1.2815  1.3694 -1.6553
 3689TIP3   OH232557   1.692   4.016  14.326  0.7686  0.0130  0.0988
 3689TIP3    H132558   1.657   3.935  14.288 -1.3183  0.6421  0.5895
 3689TIP3    H232559   1.614   4.066  14.351  2.0760  0.9093  2.4749
 3690TIP3   OH232560   3.174   5.427  17.034 -0.3521  0.1781  0.3945
 3690TIP3    H132561   3.097   5.485  17.040  0.2558  0.9096  1.3530
 3690TIP3    H232562   3.212   5.447  16.949 -0.1060  1.2639  0.7435
 3691TIP3   OH232563   0.866   2.335  14.312  0.0508 -0.2873 -0.6913
 3691TIP3    H132564   0.920   2.307  14.385 -0.6033  1.3499  0.4623
 3691TIP3    H232565   0.928   2.362  14.244  0.6706 -0.4217 -0.1749
 3692TIP3   OH232566   5.376   1.831   3.631  0.3472  0.6273 -0.2438
 3692TIP3    H132567   5.427   1.799   3.557 -1.2726 -0.3400 -0.9821
 3692TIP3    H232568   5.440   1.849   3.699  1.7420  0.3098 -1.4532
 3693TIP3   OH232569   3.446   2.982   0.636  0.1180 -0.2382 -0.0561
 3693TIP3    H132570   3.425   3.073   0.613  2.0189  0.6996  1.7282
 3693TIP3    H232571   3.523   2.962   0.584  1.2922  0.1113  1.5076
 3694TIP3   OH232572   0.645   6.111  14.439  0.3340 -0.4932 -0.6845
 3694TIP3    H132573   0.596   6.169  14.498  1.5494 -1.0699  0.9285
 3694TIP3    H232574   0.628   6.023  14.472  1.0162 -0.8283 -1.2132
 3695TIP3   OH232575   3.391   4.289   2.912  0.7664 -0.0691 -0.7899
 3695TIP3    H132576   3.439   4.257   2.836  1.2905  2.7226 -1.6629
 3695TIP3    H232577   3.311   4.327   2.876 -0.4899 -1.5600  0.3580
 3696TIP3   OH232578   4.857   5.983   3.612  0.0470 -0.6388 -0.1242
 3696TIP3    H132579   4.833   5.954   3.699 -1.2382 -0.2726 -0.3360
 3696TIP3    H232580   4.861   6.079   3.619  1.1549 -0.6793 -0.1711
 3697TIP3   OH232581   0.265   5.374  13.877 -0.3717  0.4789  0.2641
 3697TIP3    H132582   0.268   5.447  13.938 -1.3775 -0.1035  1.0415
 3697TIP3    H232583   0.172   5.352  13.871  0.0814 -1.8670  1.4032
 3698TIP3   OH232584   2.414   0.553   5.079  0.6212 -0.0933 -0.4084
 3698TIP3    H132585   2.440   0.541   5.170  1.2833 -3.4137 -0.9920
 3698TIP3    H232586   2.322   0.525   5.077 -0.3895  2.9262 -0.2147
 3699TIP3   OH232587   3.585   5.885   2.447  0.0748 -0.7363 -0.1957
 3699TIP3    H132588   3.489   5.876   2.451  0.1220 -0.6081  1.4931
 3699TIP3    H232589   3.604   5.965   2.496  1.2341 -2.1302  1.7039
 3700TIP3   OH232590   5.878   3.219  16.993 -0.2673  0.4562  0.0182
 3700TIP3    H132591   5.844   3.178  16.914 -1.2582  0.5108  0.4120
 3700TIP3    H232592   5.816   3.290  17.012 -0.5839 -0.1857  1.4056
 3701TIP3   OH232593   4.896   4.373  13.551 -0.2567  0.3036  0.0991
 3701TIP3    H132594   4.985   4.379  13.515  0.6444  1.1011  2.3924
 3701TIP3    H232595   4.881   4.279  13.563  1.0392  0.2492  1.4759
 3702TIP3   OH232596   0.137   5.113  14.151 -0.3734 -0.2631  0.4976
 3702TIP3    H132597   0.167   5.120  14.242 -0.8473  2.6378  0.4869
 3702TIP3    H232598   0.041   5.119  14.157 -0.4673 -1.1301 -0.1095
 3703TIP3   OH232599   0.944   3.763  13.892  0.2325 -0.0029 -0.0579
 3703TIP3    H132600   0.962   3.671  13.910  1.2648 -0.2259 -2.1307
 3703TIP3    H232601   1.013   3.810  13.940  1.7207 -0.4940 -1.6494
 3704TIP3   OH232602   3.025   2.168  12.196  0.4691  0.4050  0.0697
 3704TIP3    H132603   2.991   2.230  12.131 -1.8912 -0.4283  0.4590
 3704TIP3    H232604   3.116   2.152  12.169 -0.4595  0.0664 -3.0656
 3705TIP3   OH232605   0.887   6.676  13.031 -0.1659 -0.2665  0.4932
 3705TIP3    H132606   0.969   6.726  13.029 -0.5195  0.2490 -1.5128
 3705TIP3    H232607   0.890   6.622  12.952 -1.8827 -0.0429  0.2717
 3706TIP3   OH232608   4.690   5.178  12.549  0.0894 -0.0796  0.5235
 3706TIP3    H132609   4.762   5.241  12.552  0.4240 -0.3796 -0.9850
 3706TIP3    H232610   4.731   5.095  12.526 -0.6734 -0.3397  0.0647
 3707TIP3   OH232611   0.115   0.109   4.530  0.4701 -0.8800 -0.2388
 3707TIP3    H132612   0.152   0.036   4.580  1.0298 -0.3929  0.0613
 3707TIP3    H232613   0.035   0.131   4.578  0.5846 -0.9395 -0.0171
 3708TIP3   OH232614   3.849   0.919  15.228 -0.2416  0.2065  0.4607
 3708TIP3    H132615   3.853   1.001  15.276 -0.5005  0.4784  0.0191
 3708TIP3    H232616   3.920   0.925  15.164  0.3488 -0.3174  1.0612
 3709TIP3   OH232617   4.656   6.459  14.560 -0.1277  0.1663  0.3634
 3709TIP3    H132618   4.635   6.402  14.486  0.3646  2.8072 -1.9143
 3709TIP3    H232619   4.752   6.463  14.561 -0.1505  3.4620 -1.6434
 3710TIP3   OH232620   2.114   4.173  17.288 -0.0172 -0.2726 -0.2604
 3710TIP3    H132621   2.141   4.133  17.371  1.7091  0.8242 -0.2766
 3710TIP3    H232622   2.166   4.127  17.221 -2.0012 -1.7243 -0.8477
 3711TIP3   OH232623   3.149   0.664   5.380 -0.4613 -0.1957  0.0469
 3711TIP3    H132624   3.188   0.704   5.457  0.6064 -1.1737  0.0240
 3711TIP3    H232625   3.055   0.677   5.391 -0.1367  2.6811 -0.1740
 3712TIP3   OH232626   2.218   5.067   4.725  0.1500  1.2082 -0.1105
 3712TIP3    H132627   2.214   5.086   4.819 -1.9476 -1.1428  0.3177
 3712TIP3    H232628   2.137   5.104   4.690 -0.8932 -1.1610 -0.3175
 3713TIP3   OH232629   4.502   0.558   4.482  0.5090  0.5131  0.6971
 3713TIP3    H132630   4.539   0.471   4.468 -2.6288 -0.5969 -1.0213
 3713TIP3    H232631   4.553   0.615   4.424  0.5420 -0.7093 -0.4882
 3714TIP3   OH232632   6.144   6.286   4.410 -0.5521  0.2883  0.0880
 3714TIP3    H132633   6.223   6.311   4.363 -0.4976 -0.0519  0.0027
 3714TIP3    H232634   6.105   6.216   4.358  0.4717 -1.3509  1.4974
 3715TIP3   OH232635   1.230   2.358  16.922  0.3394  0.3697  0.2154
 3715TIP3    H132636   1.195   2.431  16.973  1.4901  0.8511  0.3389
 3715TIP3    H232637   1.154   2.304  16.901 -0.4411  1.3190  0.5894
 3716TIP3   OH232638   0.285   3.648   4.950 -0.7269 -0.1975 -0.5859
 3716TIP3    H132639   0.201   3.605   4.969 -0.4374 -0.6362 -0.2628
 3716TIP3    H232640   0.348   3.575   4.943 -0.1136  0.1985  0.5806
 3717TIP3   OH232641   1.995   3.418   4.116  0.3062  0.9000 -0.0256
 3717TIP3    H132642   2.044   3.441   4.037  0.1321 -0.3546 -0.5068
 3717TIP3    H232643   2.005   3.494   4.173  3.4347  0.4006  0.1904
 3718TIP3   OH232644   3.206   0.736   3.119 -0.4309  0.2782  0.2626
 3718TIP3    H132645   3.169   0.672   3.058  3.0200  0.0245 -1.6712
 3718TIP3    H232646   3.217   0.815   3.067  0.9372  0.5859  1.0004
 3719TIP3   OH232647   4.162   4.279   5.532 -0.0457  0.2426 -0.4258
 3719TIP3    H132648   4.124   4.325   5.607 -0.9499 -1.2934  0.0905
 3719TIP3    H232649   4.257   4.285   5.546 -0.2201 -0.7074  1.2776
 3720TIP3   OH232650   0.281   0.203   1.398  0.8050  0.1786 -0.3617
 3720TIP3    H132651   0.312   0.115   1.378 -2.9333 -0.8327 -2.3036
 3720TIP3    H232652   0.303   0.216   1.491 -0.0640 -3.5181  0.4526
 3721TIP3   OH232653   6.758   4.915  12.187  0.5578  0.0722  0.5386
 3721TIP3    H132654   6.666   4.942  12.183  0.1177 -1.2964  1.2220
 3721TIP3    H232655   6.775   4.877  12.101 -0.3150 -2.1724  1.3397
 3722TIP3   OH232656   6.087   1.657   5.554 -0.0953  0.0758  0.0952
 3722TIP3    H132657   6.058   1.572   5.587  0.2688  0.4528  1.4271
 3722TIP3    H232658   6.059   1.659   5.463  2.6232 -2.7657 -0.8973
 3723TIP3   OH232659   1.568   5.621   2.101 -0.5356  0.0640 -0.0135
 3723TIP3    H132660   1.598   5.671   2.024 -1.6832  1.4271  0.3873
 3723TIP3    H232661   1.648   5.584   2.138  0.1665  0.3089 -1.2423
 3724TIP3   OH232662   1.958   4.348   1.032 -0.3989 -0.0142 -0.2911
 3724TIP3    H132663   1.913   4.270   1.002 -0.0438  0.3923 -1.8983
 3724TIP3    H232664   1.946   4.347   1.127 -2.1946 -0.8927 -0.5031
 3725TIP3   OH232665   4.978   1.303   5.003  0.0931 -0.0285 -0.4270
 3725TIP3    H132666   5.043   1.268   5.063  0.3712 -0.0535 -0.7460
 3725TIP3    H232667   5.022   1.375   4.957  0.6284 -1.5099 -2.3011
 3726TIP3   OH232668   5.009   5.735   5.157  0.6845 -0.6077 -0.1366
 3726TIP3    H132669   4.951   5.662   5.134 -0.4144  0.2240 -0.0262
 3726TIP3    H232670   5.018   5.729   5.252  3.3840 -2.6636 -0.4663
 3727TIP3   OH232671   4.116   5.296   6.316  0.3050  0.5728  0.6030
 3727TIP3    H132672   4.092   5.203   6.313 -0.3829  0.7765 -0.1067
 3727TIP3    H232673   4.043   5.342   6.275 -0.0947  1.5839  2.3712
 3728TIP3   OH232674   2.855   4.521  11.159  0.8994  0.3907 -0.2277
 3728TIP3    H132675   2.934   4.476  11.131  1.3226  2.1747 -2.0313
 3728TIP3    H232676   2.850   4.599  11.103 -1.8056  0.6280  0.2523
 3729TIP3   OH232677   3.433   5.110  12.787  0.3464 -0.0875  0.5743
 3729TIP3    H132678   3.502   5.164  12.825 -0.9125  1.3950  0.7755
 3729TIP3    H232679   3.354   5.163  12.794 -1.0650 -2.2547  1.4511
 3730TIP3   OH232680   5.923   6.095  12.267  0.1457 -0.2640 -0.8041
 3730TIP3    H132681   5.910   6.000  12.265  2.3126 -0.6104  0.4799
 3730TIP3    H232682   5.835   6.130  12.284 -0.4804 -2.1037 -0.0528
 3731TIP3   OH232683   6.782   0.695  12.111  0.6552 -0.5178 -0.1101
 3731TIP3    H132684   6.861   0.714  12.060  0.2053 -0.7663 -0.9117
 3731TIP3    H232685   6.753   0.781  12.142  0.6400 -0.2911 -0.7275
 3732TIP3   OH232686   0.740   1.721  17.001 -0.5761  0.6578 -0.4054
 3732TIP3    H132687   0.807   1.785  17.028 -0.9215  1.9663 -2.5151
 3732TIP3    H232688   0.662   1.774  16.983 -1.0074 -0.4039 -1.7729
 3733TIP3   OH232689   6.003   4.848   1.453  0.2179 -0.6163 -0.4477
 3733TIP3    H132690   5.980   4.811   1.367 -3.3691 -0.0291  0.1686
 3733TIP3    H232691   5.970   4.937   1.450  0.5114 -0.4265  1.3709
 3734TIP3   OH232692   1.447   6.010   3.831 -0.0816 -0.0420 -0.0323
 3734TIP3    H132693   1.439   6.080   3.766  0.2423  0.7494  0.7619
 3734TIP3    H232694   1.436   5.929   3.781 -0.6469  0.5819 -0.9387
 3735TIP3   OH232695   1.679   5.543   0.860 -0.1892  0.5942  0.1135
 3735TIP3    H132696   1.707   5.605   0.793  1.5403  2.1930  2.2767
 3735TIP3    H232697   1.613   5.589   0.910 -0.0998  0.0867  0.7022
 3736TIP3   OH232698   3.968   0.257  15.361 -0.4159  0.0946  0.2085
 3736TIP3    H132699   4.045   0.211  15.328  1.0825 -0.2368  3.8897
 3736TIP3    H232700   3.910   0.188  15.394 -1.0212  0.4956 -0.0031
 3737TIP3   OH232701   6.476   2.477  16.154  0.1067  0.6491 -0.0217
 3737TIP3    H132702   6.431   2.545  16.204 -0.9490  0.0483 -0.1391
 3737TIP3    H232703   6.485   2.404  16.215  0.0135  0.4004 -0.3022
 3738TIP3   OH232704   6.575   6.321  15.643 -0.0763  0.0984 -0.4777
 3738TIP3    H132705   6.654   6.267  15.648 -1.9513 -2.6740  0.2607
 3738TIP3    H232706   6.578   6.375  15.722  0.4366 -0.9159  0.2086
 3739TIP3   OH232707   0.083   4.078  16.933  0.2350  0.6076  0.1614
 3739TIP3    H132708   0.076   4.076  17.028 -3.0800  2.3111  0.0397
 3739TIP3    H232709   0.061   3.989  16.905 -1.6566  0.8064  0.9084
 3740TIP3   OH232710   6.174   0.762   4.110  0.2396  0.3445 -0.4094
 3740TIP3    H132711   6.230   0.784   4.185 -0.7021 -0.6792  0.6130
 3740TIP3    H232712   6.089   0.743   4.149  0.1887 -1.9197 -1.5781
 3741TIP3   OH232713   0.229   4.788   1.752  0.3661 -0.3304  0.4048
 3741TIP3    H132714   0.159   4.853   1.754 -0.1369 -0.8800  0.7643
 3741TIP3    H232715   0.293   4.823   1.690 -0.9786 -0.5959 -1.1483
 3742TIP3   OH232716   1.358   5.968   6.830 -0.6803 -0.0225  0.0649
 3742TIP3    H132717   1.304   6.041   6.800  0.6347  1.1217  0.3965
 3742TIP3    H232718   1.296   5.897   6.847 -1.8868  0.7060 -1.1707
 3743TIP3   OH232719   0.527   0.307  17.211 -0.2114  0.3060  0.1355
 3743TIP3    H132720   0.621   0.322  17.202  0.2362 -1.4737  1.4911
 3743TIP3    H232721   0.508   0.237  17.148 -0.7256  0.9782 -0.4620
 3744TIP3   OH232722   5.877   1.551   1.599 -0.4661 -0.0038 -0.3306
 3744TIP3    H132723   5.965   1.527   1.627  0.0432  2.4363  0.2327
 3744TIP3    H232724   5.883   1.559   1.504  0.8231  3.4994 -0.0232
 3745TIP3   OH232725   4.897   1.568  13.567  0.0556 -0.2499 -0.4191
 3745TIP3    H132726   4.894   1.505  13.494  0.2638 -1.0510  0.2518
 3745TIP3    H232727   4.813   1.614  13.563 -0.2602 -0.8411 -0.6866
 3746TIP3   OH232728   0.806   0.400   6.330 -0.0302  0.4677  0.6734
 3746TIP3    H132729   0.734   0.346   6.364  1.1166 -1.0465  0.7524
 3746TIP3    H232730   0.763   0.476   6.293 -1.6455 -0.1250  1.2707
 3747TIP3   OH232731   3.248   3.402  11.635  0.0818 -0.1037 -0.2493
 3747TIP3    H132732   3.209   3.328  11.681  0.5199 -0.2787 -0.1574
 3747TIP3    H232733   3.214   3.396  11.546 -1.7139  0.9239  0.3574
 3748TIP3   OH232734   1.348   4.583  15.275 -0.0161  0.2767  0.0049
 3748TIP3    H132735   1.335   4.654  15.213 -2.4963 -1.0416 -1.0742
 3748TIP3    H232736   1.396   4.516  15.225 -0.2266  0.0386  0.1186
 3749TIP3   OH232737   2.380   5.304   1.196 -0.3306  0.3005  0.4354
 3749TIP3    H132738   2.380   5.392   1.158  0.8934  0.3579  0.5452
 3749TIP3    H232739   2.362   5.319   1.289  0.0408  0.4566  0.4853
 3750TIP3   OH232740   2.158   3.282  13.121 -0.0121 -0.2426  0.2434
 3750TIP3    H132741   2.223   3.228  13.167 -1.3175 -0.1139  2.3349
 3750TIP3    H232742   2.076   3.234  13.133 -0.4822  0.1038 -1.5097
 3751TIP3   OH232743   3.445   2.878   3.530 -0.3006  0.0716 -0.1001
 3751TIP3    H132744   3.475   2.969   3.530  0.6055 -0.2260 -0.2287
 3751TIP3    H232745   3.451   2.850   3.621 -0.0297 -0.0457 -0.1555
 3752TIP3   OH232746   5.629   0.387   2.497 -0.0982  0.3970  1.1743
 3752TIP3    H132747   5.538   0.397   2.470 -0.1533 -2.1407  0.2242
 3752TIP3    H232748   5.642   0.452   2.565 -2.4592  1.1628  0.9276
 3753TIP3   OH232749   0.804   0.763  16.372 -0.8100  0.4978  0.2419
 3753TIP3    H132750   0.812   0.859  16.378 -1.9637  0.5867  0.4721
 3753TIP3    H232751   0.726   0.749  16.318 -0.9340 -0.3174  0.6305
 3754TIP3   OH232752   4.810   1.414   3.794 -0.2245 -0.3057  0.5695
 3754TIP3    H132753   4.899   1.431   3.824  0.4727 -1.0398 -0.9960
 3754TIP3    H232754   4.754   1.440   3.867  1.2191  1.0723  1.2136
 3755TIP3   OH232755   6.125   1.871  11.927  0.0946  0.1320 -0.1779
 3755TIP3    H132756   6.150   1.909  11.843  2.2312 -0.7380  0.0329
 3755TIP3    H232757   6.172   1.922  11.992 -0.4266 -0.1094  0.4031
 3756TIP3   OH232758   3.592   1.101  12.351  0.0525  0.0884  0.0275
 3756TIP3    H132759   3.572   1.182  12.397 -0.7600  0.2881 -0.6646
 3756TIP3    H232760   3.510   1.051  12.354 -0.0285  0.1343 -1.2514
 3757TIP3   OH232761   5.164   1.528  16.052  0.1629  0.3914 -0.3869
 3757TIP3    H132762   5.198   1.583  16.123  1.5676 -1.7931  0.7110
 3757TIP3    H232763   5.104   1.468  16.096 -0.8050  0.5816 -1.4434
 3758TIP3   OH232764   1.955   6.552  13.026 -0.2875  0.5430 -0.1786
 3758TIP3    H132765   1.894   6.564  12.954 -0.6315 -0.4563 -0.0681
 3758TIP3    H232766   1.903   6.512  13.096  0.0074  1.6331  0.6769
 3759TIP3   OH232767   3.616   5.558  14.121  0.2572 -0.0050 -0.2002
 3759TIP3    H132768   3.664   5.511  14.189 -1.6417 -0.8795  0.5878
 3759TIP3    H232769   3.555   5.614  14.170  0.5472  1.1608 -1.1644
 3760TIP3   OH232770   0.594   0.471  13.939 -0.0153  0.1708  0.2102
 3760TIP3    H132771   0.657   0.520  13.887 -0.1011 -0.6025 -0.6228
 3760TIP3    H232772   0.509   0.500  13.906 -0.1450  1.9430  1.9866
 3761TIP3   OH232773   5.093   1.511  13.263  0.6767 -0.6363 -0.0858
 3761TIP3    H132774   5.154   1.438  13.257 -0.7327 -2.0608  2.0597
 3761TIP3    H232775   5.007   1.471  13.252 -0.0533  0.8674  0.0820
 3762TIP3   OH232776   6.611   2.182  14.091  0.2953 -0.0415  0.3794
 3762TIP3    H132777   6.670   2.219  14.025 -0.1946  0.2724  0.1152
 3762TIP3    H232778   6.623   2.088  14.083  0.7619  0.0206  0.3241
 3763TIP3   OH232779   1.382   5.808  16.847  0.1718  0.2414 -0.1526
 3763TIP3    H132780   1.307   5.793  16.904 -0.4125  1.2787 -0.6300
 3763TIP3    H232781   1.397   5.724  16.804  1.4469 -0.9465  2.4762
 3764TIP3   OH232782   2.474   0.585  14.572 -0.0672  0.0591  0.2724
 3764TIP3    H132783   2.402   0.647  14.584 -1.3063 -1.1577 -0.6903
 3764TIP3    H232784   2.513   0.609  14.488  0.1556  0.2108  0.4162
 3765TIP3   OH232785   6.162   5.396  16.365  0.5121 -0.1997 -0.2061
 3765TIP3    H132786   6.108   5.457  16.414  2.2352  1.0528  0.1710
 3765TIP3    H232787   6.215   5.351  16.431  1.4109  0.0653 -0.7275
 3766TIP3   OH232788   0.702   1.657  14.941 -0.5891  0.3196  0.0836
 3766TIP3    H132789   0.679   1.565  14.941 -0.6331  0.3284 -0.5595
 3766TIP3    H232790   0.619   1.704  14.944 -0.5523  0.3449  1.0820
 3767TIP3   OH232791   0.660   1.850  16.118 -0.4048 -0.7239 -0.4697
 3767TIP3    H132792   0.742   1.842  16.070  0.0941 -0.3764  0.3128
 3767TIP3    H232793   0.684   1.836  16.210 -0.7921  1.8668  0.0542
 3768TIP3   OH232794   2.086   1.171   0.469  0.0535 -0.7304 -0.0361
 3768TIP3    H132795   2.009   1.132   0.510 -0.0615 -1.0516 -0.5485
 3768TIP3    H232796   2.140   1.096   0.443  0.3713 -0.5172  0.0129
 3769TIP3   OH232797   4.851   2.849  12.819 -0.2468  0.0967 -0.4487
 3769TIP3    H132798   4.885   2.881  12.902 -1.1685  1.6326 -0.6184
 3769TIP3    H232799   4.762   2.819  12.839 -0.4108  0.3124 -0.8199
 3770TIP3   OH232800   5.849   0.798  14.404  0.3501  0.1492 -0.2706
 3770TIP3    H132801   5.891   0.778  14.320  0.3768 -1.9537  0.2167
 3770TIP3    H232802   5.891   0.739  14.467  0.6643  2.0244  1.3520
 3771TIP3   OH232803   0.180   2.168   4.799 -0.1961  0.1309 -0.0910
 3771TIP3    H132804   0.135   2.111   4.861 -1.3594  1.2195  0.0869
 3771TIP3    H232805   0.194   2.250   4.847  0.0910  0.5259 -0.8324
 3772TIP3   OH232806   4.486   5.197  15.543  0.2805  0.4676 -0.2676
 3772TIP3    H132807   4.421   5.240  15.599 -1.0869 -0.6503 -0.9766
 3772TIP3    H232808   4.435   5.140  15.486  1.9255 -0.7745 -0.5316
 3773TIP3   OH232809   4.319   5.909   5.148  0.1870  0.1511 -0.0823
 3773TIP3    H132810   4.401   5.862   5.130 -0.3136 -0.4418 -0.8036
 3773TIP3    H232811   4.348   5.998   5.168  1.0631 -0.2073  0.2994
 3774TIP3   OH232812   0.713   0.970   2.635  0.3252  0.7318 -0.5215
 3774TIP3    H132813   0.730   0.919   2.714 -2.0216  0.0170 -0.4279
 3774TIP3    H232814   0.663   1.046   2.665 -1.7105 -0.2141 -1.4549
 3775TIP3   OH232815   5.240   3.270   3.855 -0.2605 -0.5104  0.1972
 3775TIP3    H132816   5.279   3.232   3.934 -1.4932 -3.4157 -0.5276
 3775TIP3    H232817   5.250   3.201   3.789 -0.8642  1.1887 -1.6879
 3776TIP3   OH232818   3.609   1.598  15.521 -0.3976  0.8422  0.0154
 3776TIP3    H132819   3.616   1.563  15.432 -2.1845 -0.7851  0.4619
 3776TIP3    H232820   3.652   1.532  15.576 -0.3644  1.2401  0.4700
 3777TIP3   OH232821   6.258   4.243  13.781 -0.3356  0.1163  0.0874
 3777TIP3    H132822   6.298   4.264  13.865 -1.8552 -1.4358  1.2127
 3777TIP3    H232823   6.326   4.197  13.733 -0.3881 -1.5708  1.5869
 3778TIP3   OH232824   0.365   5.649   3.139  0.0560 -0.1174  0.2051
 3778TIP3    H132825   0.338   5.581   3.200 -1.1711  1.8342  1.9378
 3778TIP3    H232826   0.288   5.665   3.085  0.5873 -0.6397 -0.7126
 3779TIP3   OH232827   1.745   2.420   3.514  0.1693 -0.1787  0.8123
 3779TIP3    H132828   1.727   2.327   3.526 -0.0451 -0.3131 -0.4533
 3779TIP3    H232829   1.678   2.451   3.454  0.4994  0.6996  0.8738
 3780TIP3   OH232830   5.008   1.590   0.670  0.6033 -0.0458 -0.1102
 3780TIP3    H132831   5.057   1.648   0.611  0.7541  0.1464  0.1989
 3780TIP3    H232832   4.922   1.632   0.678  0.2624 -0.5798 -0.9449
 3781TIP3   OH232833   3.334   0.580  10.691 -0.3501 -0.2069 -0.7920
 3781TIP3    H132834   3.326   0.542  10.779 -0.3832  0.0648 -0.6787
 3781TIP3    H232835   3.244   0.595  10.663 -0.3346 -0.1601 -0.8162
 3782TIP3   OH232836   5.134   0.080  16.757 -0.3306 -0.2689 -0.1739
 3782TIP3    H132837   5.208   0.078  16.819 -1.0842 -0.0877  0.7435
 3782TIP3    H232838   5.133  -0.008  16.719  0.2613 -0.3230 -0.0731
 3783TIP3   OH232839   0.035   0.641   1.073 -0.3005  0.1546  0.5958
 3783TIP3    H132840   0.090   0.572   1.110  1.0659  1.2207  0.5465
 3783TIP3    H232841   0.045   0.631   0.978 -1.0563 -0.3391  0.5614
 3784TIP3   OH232842   3.397   4.023   5.441  0.0215  0.8006 -0.1801
 3784TIP3    H132843   3.420   3.951   5.382  0.7297  1.3950 -0.6356
 3784TIP3    H232844   3.430   4.102   5.397  0.8183  1.2210  1.1479
 3785TIP3   OH232845   4.248   0.752  14.092 -0.0650  0.3891 -0.1223
 3785TIP3    H132846   4.193   0.794  14.026  0.1088 -0.0811 -0.5698
 3785TIP3    H232847   4.335   0.750  14.054  0.1992  0.8448  0.4599
 3786TIP3   OH232848   1.482   3.471   0.839 -0.1129 -0.6352  0.0146
 3786TIP3    H132849   1.489   3.448   0.932  0.9012 -1.1249 -0.1830
 3786TIP3    H232850   1.490   3.566   0.838 -2.4401 -0.3869  0.6432
 3787TIP3   OH232851   4.978   5.385  15.585 -0.0988  0.2830 -0.2704
 3787TIP3    H132852   4.896   5.359  15.625 -0.2909 -0.9892 -1.4421
 3787TIP3    H232853   4.954   5.411  15.496  0.4420  2.1786  0.1300
 3788TIP3   OH232854   3.914   4.398  15.154  0.2666  0.5711 -0.7309
 3788TIP3    H132855   3.974   4.416  15.082  0.2639  0.8524 -0.6619
 3788TIP3    H232856   3.878   4.483  15.178  1.2178  0.6491  0.4412
 3789TIP3   OH232857   0.815   1.542  11.533  0.0391 -0.2713 -0.0453
 3789TIP3    H132858   0.753   1.550  11.606 -0.7339 -1.1903 -0.5977
 3789TIP3    H232859   0.765   1.566  11.456  0.8679  0.7186 -0.2831
 3790TIP3   OH232860   6.489   6.515  15.445  0.0404 -0.3384 -0.8100
 3790TIP3    H132861   6.427   6.483  15.380  0.8741 -1.0787 -1.2505
 3790TIP3    H232862   6.506   6.439  15.501  0.4497 -0.1049 -0.6161
 3791TIP3   OH232863   4.843   5.116  11.410  0.5168  0.2054 -0.5700
 3791TIP3    H132864   4.875   5.179  11.345  1.8841 -0.2839 -0.3855
 3791TIP3    H232865   4.914   5.053  11.419 -0.2271 -0.5116  0.3838
 3792TIP3   OH232866   5.699   4.871   5.265 -0.0574  0.6065 -0.1273
 3792TIP3    H132867   5.692   4.787   5.310 -0.9058  0.6846 -0.1169
 3792TIP3    H232868   5.715   4.847   5.174  0.8273  0.4450  0.0617
 3793TIP3   OH232869   0.398   4.224  13.781 -0.2261 -0.0021 -0.1165
 3793TIP3    H132870   0.398   4.131  13.804 -0.5214  0.0237 -0.0067
 3793TIP3    H232871   0.432   4.226  13.691  1.8335 -0.0107  0.6386
 3794TIP3   OH232872   5.226   0.782  14.784  0.1207 -0.1780  0.4203
 3794TIP3    H132873   5.251   0.814  14.697 -1.2347  0.2451  0.1684
 3794TIP3    H232874   5.198   0.692  14.769 -1.8243  0.4594  0.0973
 3795TIP3   OH232875   4.961   1.464   3.117 -0.0056 -0.2867 -0.5511
 3795TIP3    H132876   5.000   1.392   3.068  0.8542  0.2228 -0.6199
 3795TIP3    H232877   4.929   1.525   3.050 -0.4104 -0.4345 -0.4922
 3796TIP3   OH232878   0.779   1.333   5.932 -0.1942  0.1772 -0.1344
 3796TIP3    H132879   0.703   1.385   5.959  1.4054  1.7173  1.5547
 3796TIP3    H232880   0.793   1.358   5.840 -0.6814  1.2080  0.0562
 3797TIP3   OH232881   4.113   2.886  15.279 -0.0191  0.2227  0.4889
 3797TIP3    H132882   4.104   2.792  15.294 -1.0608 -0.0101 -1.4357
 3797TIP3    H232883   4.163   2.893  15.198 -2.5669  1.2410 -1.0675
 3798TIP3   OH232884   6.169   1.154  11.720 -0.0638 -0.1995 -0.1421
 3798TIP3    H132885   6.128   1.097  11.655  2.3231 -1.9538 -0.1738
 3798TIP3    H232886   6.142   1.118  11.804  2.1011 -1.9168 -0.1570
 3799TIP3   OH232887   6.636   5.446  15.334  0.0476 -0.4347 -0.2765
 3799TIP3    H132888   6.731   5.456  15.334  0.0464 -0.3915 -0.6543
 3799TIP3    H232889   6.621   5.356  15.363  0.1457 -0.0242  1.0852
 3800TIP3   OH232890   0.237   6.284  12.072  0.4060 -0.0861  0.2967
 3800TIP3    H132891   0.333   6.282  12.065  0.3807  1.0769 -0.5911
 3800TIP3    H232892   0.207   6.220  12.007  0.5888 -0.6742  0.7908
 3801TIP3   OH232893   2.269   1.140  11.879 -0.0735  0.0202 -0.6399
 3801TIP3    H132894   2.218   1.061  11.897  0.4470 -0.5806 -1.7390
 3801TIP3    H232895   2.360   1.110  11.879  0.3401  1.1699  1.7550
 3802TIP3   OH232896   0.840   4.294   4.281 -0.2004 -0.2540 -0.0277
 3802TIP3    H132897   0.750   4.260   4.288  0.3075 -1.9621 -1.5407
 3802TIP3    H232898   0.896   4.218   4.292  1.0234  0.4378 -1.2588
 3803TIP3   OH232899   2.904   0.463   4.926  0.0038  0.3053  0.2683
 3803TIP3    H132900   2.976   0.479   4.988 -0.4227 -0.2884  0.9341
 3803TIP3    H232901   2.838   0.417   4.978 -0.5558  0.2024 -0.5221
 3804TIP3   OH232902   1.287   2.464  14.743  0.0098  0.0928  0.1307
 3804TIP3    H132903   1.296   2.516  14.823  2.2425  1.5673 -1.0119
 3804TIP3    H232904   1.373   2.468  14.702 -1.0372 -0.7490 -2.2676
 3805TIP3   OH232905   0.471   3.537   3.363 -0.2777 -0.1748 -0.3319
 3805TIP3    H132906   0.425   3.555   3.282 -1.8326 -0.6770  0.4258
 3805TIP3    H232907   0.439   3.451   3.391  0.7398 -0.3182  0.4630
 3806TIP3   OH232908   1.970   2.950  12.488 -0.1971  0.1741 -0.1392
 3806TIP3    H132909   1.879   2.920  12.484  0.2499 -1.1831 -0.5433
 3806TIP3    H232910   1.980   3.005  12.410 -0.6817  0.3211 -0.0985
 3807TIP3   OH232911   4.565   1.496  15.258  0.1297  0.5763  0.0704
 3807TIP3    H132912   4.612   1.530  15.334  1.3898  1.3866 -1.0611
 3807TIP3    H232913   4.528   1.573  15.215 -1.0667  0.0743  0.1666
 3808TIP3   OH232914   3.959   6.534  14.427 -0.6674 -0.1417 -0.8605
 3808TIP3    H132915   3.980   6.542  14.334  2.2174 -1.0920 -0.3297
 3808TIP3    H232916   4.000   6.610  14.468 -1.8495  0.2215 -0.3166
 3809TIP3   OH232917   0.943   0.109  14.412 -0.0592  0.8530 -0.1778
 3809TIP3    H132918   0.939   0.014  14.419 -0.3816  1.0440  2.8237
 3809TIP3    H232919   0.915   0.127  14.322  1.9014 -1.9688 -1.4365
 3810TIP3   OH232920   2.464   3.408   1.846 -0.2465  0.1414  0.0359
 3810TIP3    H132921   2.520   3.461   1.791  1.5235 -2.1954 -0.4808
 3810TIP3    H232922   2.379   3.408   1.802  0.0236  1.6523 -0.4928
 3811TIP3   OH232923   1.409   0.916   4.466  0.2248 -0.1434  0.2216
 3811TIP3    H132924   1.400   0.822   4.451 -0.1491  0.1028 -1.1873
 3811TIP3    H232925   1.348   0.956   4.403 -0.3342  1.0020  1.4708
 3812TIP3   OH232926   2.753   1.836   1.612 -0.0834  1.0222 -0.3030
 3812TIP3    H132927   2.711   1.921   1.625  1.6639  1.8509  0.1799
 3812TIP3    H232928   2.769   1.832   1.518 -3.2413 -0.3226 -0.8531
 3813TIP3   OH232929   2.107   0.781   2.856 -0.3229 -0.3941  0.0843
 3813TIP3    H132930   2.092   0.824   2.939 -1.2116 -1.1129  0.3009
 3813TIP3    H232931   2.021   0.776   2.814  0.4255  1.8594 -1.8261
 3814TIP3   OH232932   4.514   1.041   3.860  0.2401 -0.1311 -0.3749
 3814TIP3    H132933   4.466   0.995   3.791  0.9011 -1.2716 -0.0968
 3814TIP3    H232934   4.544   0.971   3.918 -2.0025  0.9341  2.1937
 3815TIP3   OH232935   0.970   3.240   5.859 -0.0581 -0.2518  0.1950
 3815TIP3    H132936   0.973   3.186   5.938 -3.1724  0.8889  1.1546
 3815TIP3    H232937   1.028   3.314   5.878  0.5958 -0.8778  0.6842
 3816TIP3   OH232938   2.994   4.901  13.740  0.0738 -0.0068 -0.6125
 3816TIP3    H132939   2.916   4.883  13.791 -0.5141  1.4938 -0.9415
 3816TIP3    H232940   2.961   4.937  13.658  1.1062  2.2468 -0.0986
 3817TIP3   OH232941   0.502   6.133  13.128  0.4464  0.0442  0.2541
 3817TIP3    H132942   0.428   6.096  13.176 -0.0099  1.4246  0.6236
 3817TIP3    H232943   0.566   6.062  13.125 -1.1814 -1.4028 -0.7310
 3818TIP3   OH232944   6.479   1.960   1.225 -0.2771 -0.5332 -0.3809
 3818TIP3    H132945   6.545   2.017   1.265  0.5804 -2.3277  0.7791
 3818TIP3    H232946   6.529   1.899   1.172 -1.2572  0.2365 -2.2443
 3819TIP3   OH232947   0.150   4.469   4.705 -0.4561  0.0204  0.8844
 3819TIP3    H132948   0.232   4.496   4.746  0.1364  0.7408 -0.7319
 3819TIP3    H232949   0.176   4.403   4.641 -1.1138  0.3760  0.2467
 3820TIP3   OH232950   2.184   1.957   0.854 -0.8668 -0.4563  0.3899
 3820TIP3    H132951   2.176   1.969   0.759 -0.5472 -0.7905  0.3211
 3820TIP3    H232952   2.261   1.902   0.865  0.2571  1.1817  0.9593
 3821TIP3   OH232953   1.261   1.234  13.437 -0.4598  0.1062  0.2335
 3821TIP3    H132954   1.340   1.227  13.384 -0.4185  0.8964  0.1937
 3821TIP3    H232955   1.292   1.258  13.524 -0.6686  0.5011  0.1967
 3822TIP3   OH232956   1.426   5.022  15.209  0.1819 -0.1694 -0.5649
 3822TIP3    H132957   1.428   5.112  15.176 -0.6485  0.1840  0.3318
 3822TIP3    H232958   1.436   5.031  15.304  2.0209 -1.1435 -0.6451
 3823TIP3   OH232959   5.999   1.091  16.440  0.3043  0.1807 -0.6772
 3823TIP3    H132960   6.056   1.126  16.508  0.5999 -0.2653 -0.6924
 3823TIP3    H232961   5.967   1.168  16.393 -0.2793  0.5249  0.2569
 3824TIP3   OH232962   3.294   5.180  15.170  0.0346  0.3832  0.0959
 3824TIP3    H132963   3.281   5.105  15.112  0.4054 -0.8587  1.5697
 3824TIP3    H232964   3.216   5.181  15.225  2.2410 -2.0459  3.4419
 3825TIP3   OH232965   5.787   5.884  16.950 -0.2237 -0.1942  0.0304
 3825TIP3    H132966   5.882   5.874  16.958 -0.0387 -0.0201 -1.8871
 3825TIP3    H232967   5.774   5.978  16.940 -0.3901 -0.4629 -2.3727
 3826TIP3   OH232968   2.707   2.987   1.251  0.0063 -0.4937 -0.0142
 3826TIP3    H132969   2.642   3.048   1.216  0.2410  0.3341  0.9504
 3826TIP3    H232970   2.779   3.044   1.278  0.0713 -1.1800  1.2514
 3827TIP3   OH232971   3.816   5.341   1.753 -0.2010  0.4000 -0.2242
 3827TIP3    H132972   3.854   5.326   1.667 -0.8692 -0.2239 -0.4146
 3827TIP3    H232973   3.891   5.352   1.812  0.2694 -1.2416 -0.5125
 3828TIP3   OH232974   5.493   5.549  16.505  0.5643 -0.1029  0.3430
 3828TIP3    H132975   5.497   5.550  16.410  1.4614 -0.9686  0.3729
 3828TIP3    H232976   5.478   5.457  16.528  2.2197 -0.1923  1.1141
 3829TIP3   OH232977   0.893   0.773   4.214  0.7273 -0.6681 -0.6519
 3829TIP3    H132978   0.818   0.717   4.195  0.7761 -0.7697 -0.5494
 3829TIP3    H232979   0.964   0.735   4.162  1.5312 -2.5303  1.6865
 3830TIP3   OH232980   1.065   0.556  11.454 -0.4461  0.5045 -0.2643
 3830TIP3    H132981   1.159   0.538  11.462 -0.7609 -1.1697 -0.1335
 3830TIP3    H232982   1.024   0.470  11.467 -1.8875  0.8688 -2.3532
 3831TIP3   OH232983   6.490   2.565  11.751  0.4093  0.3186 -0.0610
 3831TIP3    H132984   6.501   2.618  11.830  2.4527  0.0903 -0.1802
 3831TIP3    H232985   6.446   2.623  11.689 -1.3880  0.4452  1.2952
 3832TIP3   OH232986   3.354   6.712  14.771 -0.1753  0.0755 -0.6688
 3832TIP3    H132987   3.341   6.623  14.739 -0.6643 -0.4032  0.8572
 3832TIP3    H232988   3.266   6.747  14.783 -0.0382 -0.3479  1.7924
 3833TIP3   OH232989   3.536   3.407   5.654 -0.9467 -0.0051 -0.1498
 3833TIP3    H132990   3.509   3.445   5.570 -0.0728  2.7415  0.7491
 3833TIP3    H232991   3.595   3.472   5.691 -1.2383 -1.2436  2.5656
 3834TIP3   OH232992   2.873   2.131  12.802  0.4192 -0.5099  0.6595
 3834TIP3    H132993   2.894   2.049  12.757 -2.5013 -0.8841 -0.1434
 3834TIP3    H232994   2.778   2.137  12.796  0.6578  3.5213 -0.2935
 3835TIP3   OH232995   6.056   5.319   1.865  0.6120 -0.4137  0.8855
 3835TIP3    H132996   5.987   5.362   1.915  0.8829  0.5325  0.4538
 3835TIP3    H232997   6.011   5.279   1.791  0.5641  0.4797  0.4284
 3836TIP3   OH232998   3.490   0.796  11.715  0.0434  0.2932 -0.3023
 3836TIP3    H132999   3.526   0.851  11.785  1.0141  0.1002 -0.6433
 3836TIP3    H233000   3.556   0.799  11.645  0.4629 -1.8761 -0.0410
 3837TIP3   OH233001   5.395   0.875   4.172  0.4182  0.1789  0.1906
 3837TIP3    H133002   5.325   0.811   4.153  2.2692 -1.5455 -1.0625
 3837TIP3    H233003   5.365   0.921   4.250 -1.0368 -2.1943  1.0949
 3838TIP3   OH233004   0.646   6.019  17.016 -0.3476 -0.1587 -0.0066
 3838TIP3    H133005   0.643   5.957  16.943  0.2782 -0.3802  0.1437
 3838TIP3    H233006   0.715   5.984  17.073  0.2688  0.8836 -0.1105
 3839TIP3   OH233007   3.695   4.536  11.827 -0.2573  0.1276 -0.4925
 3839TIP3    H133008   3.741   4.596  11.887  0.4972  0.3844 -1.3195
 3839TIP3    H233009   3.682   4.457  11.879  0.6022  0.2621 -0.0521
 3840TIP3   OH233010   4.602   1.160  15.972  0.1811  0.6371 -0.1275
 3840TIP3    H133011   4.544   1.231  15.942 -1.1099 -0.0661  0.6438
 3840TIP3    H233012   4.666   1.204  16.028  0.5739  1.4685 -1.2106
 3841TIP3   OH233013   5.574   3.172   1.658  0.3036  0.3992  0.3125
 3841TIP3    H133014   5.610   3.243   1.606  0.0328  1.4737  1.5586
 3841TIP3    H233015   5.553   3.212   1.742 -1.7480 -0.6818  0.3557
 3842TIP3   OH233016   4.116   0.455   1.645 -0.3539 -0.4081 -1.0131
 3842TIP3    H133017   4.048   0.479   1.707 -0.1053 -1.2211 -0.4164
 3842TIP3    H233018   4.126   0.532   1.589 -0.3915  0.4292  0.1231
 3843TIP3   OH233019   6.072   0.797   6.053 -0.3796  0.4576  0.1465
 3843TIP3    H133020   6.104   0.711   6.080  1.5392  0.4756 -1.9231
 3843TIP3    H233021   6.046   0.840   6.135  2.1532 -0.7069  1.6199
 3844TIP3   OH233022   0.716   2.661  15.356 -0.0088 -0.0872  1.0755
 3844TIP3    H133023   0.790   2.705  15.398 -0.6263  1.0508  0.9817
 3844TIP3    H233024   0.757   2.601  15.294  0.8774 -0.8538  2.3871
 3845TIP3   OH233025   4.187   0.311   4.010 -0.3175  0.0413  0.6443
 3845TIP3    H133026   4.121   0.241   4.014 -0.0397 -0.1996  0.9801
 3845TIP3    H233027   4.154   0.378   4.069  1.2794 -1.3904  3.2494
 3846TIP3   OH233028   4.757   4.255  12.030 -0.5070  0.1315  0.7879
 3846TIP3    H133029   4.732   4.174  11.985  0.5359 -0.8792  2.0007
 3846TIP3    H233030   4.810   4.303  11.966  0.3366 -0.9476  0.6705
 3847TIP3   OH233031   1.487   5.791  15.264  0.6596  0.0865  0.4577
 3847TIP3    H133032   1.496   5.855  15.193  0.8311 -1.2376 -0.7449
 3847TIP3    H233033   1.564   5.807  15.319  2.3484 -1.0458 -1.4734
 3848TIP3   OH233034   3.368   1.204  16.508 -0.4761 -0.1683 -0.4288
 3848TIP3    H133035   3.393   1.189  16.417 -0.2359 -1.7368 -0.1097
 3848TIP3    H233036   3.281   1.244  16.503 -1.1021 -1.5959 -1.3028
 3849TIP3   OH233037   0.755   4.129   0.956  0.1936  0.3116  0.4836
 3849TIP3    H133038   0.689   4.100   1.019  0.2822  2.9634  1.9033
 3849TIP3    H233039   0.709   4.136   0.873 -0.9981  0.9114  1.1903
 3850TIP3   OH233040   1.653   3.553  11.748 -0.0851  0.9412 -0.0581
 3850TIP3    H133041   1.564   3.522  11.733  0.7217 -1.0300 -0.8759
 3850TIP3    H233042   1.642   3.631  11.802 -2.2694  0.2652  0.5300
 3851TIP3   OH233043   5.926   3.502  16.884 -0.0022  0.5994  0.2822
 3851TIP3    H133044   5.919   3.427  16.944 -0.7375 -0.2453 -0.8452
 3851TIP3    H233045   5.926   3.578  16.942 -1.0335 -0.1872  1.3542
 3852TIP3   OH233046   4.357   4.949   2.776 -0.0773  0.0874 -0.3810
 3852TIP3    H133047   4.328   4.933   2.866 -0.1919 -0.8457 -0.5740
 3852TIP3    H233048   4.286   4.999   2.736 -1.5222 -2.2506 -0.8788
 3853TIP3   OH233049   2.770   2.126   2.775 -0.6814  0.3778  0.9254
 3853TIP3    H133050   2.734   2.152   2.690 -0.1608  2.2966  1.2672
 3853TIP3    H233051   2.835   2.194   2.796  1.9985 -2.1184  1.0780
 3854TIP3   OH233052   2.108   1.504  13.187 -0.0242  0.0217 -0.5129
 3854TIP3    H133053   2.032   1.551  13.221  0.0177  0.2749 -0.7643
 3854TIP3    H233054   2.104   1.518  13.092 -0.0699 -0.5696 -0.6009
 3855TIP3   OH233055   1.915   2.388   0.250 -0.1783  0.3114  0.6274
 3855TIP3    H133056   1.899   2.419   0.339 -0.0233  0.6748  0.5293
 3855TIP3    H233057   1.905   2.466   0.195 -1.3168 -0.1210  0.2097
 3856TIP3   OH233058   5.330   2.528  14.222 -0.2425 -0.8409  0.4211
 3856TIP3    H133059   5.285   2.588  14.281 -1.8199 -2.0730  0.5229
 3856TIP3    H233060   5.372   2.584  14.156 -0.9058  0.3895  1.0472
 3857TIP3   OH233061   1.097   3.996  11.828  0.2282 -0.2201 -0.5651
 3857TIP3    H133062   1.115   4.064  11.893  0.8672 -0.9005 -0.0115
 3857TIP3    H233063   1.003   4.001  11.812 -0.4151 -1.7524  2.3749
 3858TIP3   OH233064   3.627   0.878   2.377 -0.3063  0.1095 -0.2364
 3858TIP3    H133065   3.580   0.910   2.454  1.2454 -0.0352  0.8099
 3858TIP3    H233066   3.637   0.955   2.321 -1.8705  0.1070 -0.5284
 3859TIP3   OH233067   2.249   3.068   2.830  0.1887  0.0087  0.1727
 3859TIP3    H133068   2.188   3.127   2.875  2.6778  1.4923  1.7119
 3859TIP3    H233069   2.335   3.088   2.868  1.6844 -1.9409 -2.0225
 3860TIP3   OH233070   6.787   1.301   5.826 -0.1996  0.4574  0.5512
 3860TIP3    H133071   6.799   1.268   5.915 -2.6677 -1.4821  0.2081
 3860TIP3    H233072   6.836   1.240   5.771 -0.8171  0.1554  0.3397
 3861TIP3   OH233073   4.422   4.942   2.451  0.3852 -0.2757  0.0543
 3861TIP3    H133074   4.358   4.986   2.506  1.4292  1.4879 -0.1058
 3861TIP3    H233075   4.369   4.897   2.385 -0.7134  0.9416  0.0773
 3862TIP3   OH233076   0.101   4.239   3.130 -0.5252 -0.4707 -0.0276
 3862TIP3    H133077   0.071   4.149   3.138 -2.9546  0.3487  0.5531
 3862TIP3    H233078   0.084   4.278   3.216 -0.6551  0.8787 -0.6425
 3863TIP3   OH233079   1.265   5.145  11.628 -0.7334 -0.5291 -0.4591
 3863TIP3    H133080   1.221   5.152  11.544 -0.2546 -0.4465 -0.7071
 3863TIP3    H233081   1.197   5.116  11.689 -1.6355  1.5676 -0.4186
 3864TIP3   OH233082   5.773   0.780  12.581  0.4971 -0.3042 -0.5284
 3864TIP3    H133083   5.768   0.814  12.671 -0.4581 -0.6261 -0.4543
 3864TIP3    H233084   5.683   0.785  12.549  0.8230 -0.2589 -1.4499
 3865TIP3   OH233085   0.867   5.299  16.689  0.8328  0.1591 -0.3912
 3865TIP3    H133086   0.814   5.347  16.625  1.6456  0.4288 -0.8738
 3865TIP3    H233087   0.943   5.270  16.639  1.5178  0.4532  0.4748
 3866TIP3   OH233088   0.858   1.227   3.995 -0.0495 -0.2169  0.2567
 3866TIP3    H133089   0.848   1.201   4.087  0.8278  0.0819  0.4418
 3866TIP3    H233090   0.795   1.173   3.948  0.9192 -1.8687  0.7854
 3867TIP3   OH233091   6.694   4.578  15.585  0.3067 -0.1829  0.3909
 3867TIP3    H133092   6.641   4.582  15.665  0.9383  0.8364  0.7670
 3867TIP3    H233093   6.689   4.487  15.558 -3.4498  0.2898 -0.8039
 3868TIP3   OH233094   1.541   2.020   2.492  0.9516 -0.3229 -0.0875
 3868TIP3    H133095   1.580   2.091   2.441 -0.3689 -0.7370 -1.7096
 3868TIP3    H233096   1.506   2.063   2.570  3.0987  0.3026  0.5586
 3869TIP3   OH233097   0.913   0.574  15.883 -0.2957 -0.1627 -0.2316
 3869TIP3    H133098   0.938   0.651  15.934 -2.4363 -0.9026  2.0484
 3869TIP3    H233099   0.822   0.592  15.857  0.0604 -0.7752 -1.9620
 3870TIP3   OH233100   5.823   4.943  16.059  0.1120  0.0757 -0.0179
 3870TIP3    H133101   5.850   4.954  16.150  3.7993 -2.9839 -0.5848
 3870TIP3    H233102   5.894   4.985  16.009 -0.5096 -0.6355 -1.5135
 3871TIP3   OH233103   2.633   1.837   0.360 -0.7094 -0.2672  0.1923
 3871TIP3    H133104   2.663   1.792   0.281  1.5681 -0.6132  1.2339
 3871TIP3    H233105   2.552   1.881   0.333 -0.0055 -0.4389 -2.3125
 3872TIP3   OH233106   1.136   3.944   6.736  0.2332  0.2488  0.3238
 3872TIP3    H133107   1.089   3.998   6.673 -1.3912 -0.8869  0.5401
 3872TIP3    H233108   1.221   3.927   6.695  0.5511  2.4675  0.0033
 3873TIP3   OH233109   6.176   1.288  12.860 -0.0202 -0.1217 -0.2345
 3873TIP3    H133110   6.243   1.301  12.793  0.1425  1.0788  0.1497
 3873TIP3    H233111   6.136   1.204  12.838  0.2768  0.0896 -1.6204
 3874TIP3   OH233112   5.433   2.506  15.804 -0.4456 -0.3631  0.3264
 3874TIP3    H133113   5.441   2.411  15.813 -0.5900 -0.2590  1.6802
 3874TIP3    H233114   5.503   2.542  15.858  0.2523  0.2966 -0.9949
 3875TIP3   OH233115   5.864   0.367  16.071  0.3690 -0.3356  0.2964
 3875TIP3    H133116   5.813   0.307  16.126  0.7139 -1.3495 -0.4861
 3875TIP3    H233117   5.921   0.412  16.133 -0.6704 -0.0136  1.0334
 3876TIP3   OH233118   1.179   4.692   3.380  0.0070 -0.8635  0.6368
 3876TIP3    H133119   1.142   4.604   3.372 -3.3947  0.6887 -2.2173
 3876TIP3    H233120   1.224   4.707   3.297  2.2793 -0.5946  1.8842
 3877TIP3   OH233121   1.603   6.579  13.528 -0.2283  0.4266 -0.2861
 3877TIP3    H133122   1.583   6.490  13.556  0.9895 -0.0908 -1.0074
 3877TIP3    H233123   1.642   6.621  13.605  0.2084 -0.0132 -0.2625
 3878TIP3   OH233124   1.169   1.160  10.978  0.3382  0.0819 -0.2661
 3878TIP3    H133125   1.177   1.079  10.928 -0.2989  0.3634 -0.8276
 3878TIP3    H233126   1.172   1.229  10.912 -0.3068  0.4675  0.1063
 3879TIP3   OH233127   1.435   3.259   0.471  0.4166 -0.5099 -0.2225
 3879TIP3    H133128   1.388   3.222   0.397  1.0706 -1.3415 -0.2274
 3879TIP3    H233129   1.409   3.205   0.546 -2.9431  2.4002  0.8745
 3880TIP3   OH233130   2.279   3.599  14.508 -0.2304 -0.4334 -0.1036
 3880TIP3    H133131   2.206   3.657  14.486 -1.6096 -2.7814 -1.9965
 3880TIP3    H233132   2.248   3.550  14.584 -0.9769 -1.9647 -1.3657
 3881TIP3   OH233133   5.440   0.465   5.790 -0.0091 -0.3464  0.4093
 3881TIP3    H133134   5.446   0.515   5.872  0.8842 -2.3273  1.5836
 3881TIP3    H233135   5.515   0.495   5.738 -1.4315  2.0252 -0.3701
 3882TIP3   OH233136   3.987   5.689  14.476 -0.3870 -0.1247 -0.2351
 3882TIP3    H133137   3.952   5.627  14.540 -0.5363 -1.4543 -1.5749
 3882TIP3    H233138   4.082   5.686  14.490 -0.4021 -0.5659 -0.2104
 3883TIP3   OH233139   5.135   5.686   5.439 -0.3527  0.0837 -0.2366
 3883TIP3    H133140   5.200   5.623   5.472 -1.5895 -0.5774  0.9850
 3883TIP3    H233141   5.183   5.768   5.432  0.7570 -0.5204  0.1410
 3884TIP3   OH233142   2.577   3.073   2.688  0.0653  0.0576  0.0415
 3884TIP3    H133143   2.524   3.119   2.622  0.3305 -1.6268 -1.3958
 3884TIP3    H233144   2.666   3.107   2.675  0.1264 -0.3061 -0.5202
 3885TIP3   OH233145   1.443   1.089  13.664 -0.2225 -0.1966 -0.0064
 3885TIP3    H133146   1.419   1.179  13.686  0.2029 -0.0406 -0.1579
 3885TIP3    H233147   1.360   1.043  13.653 -0.4404  0.2181 -0.0887
 3886TIP3   OH233148   0.801   0.673  11.540 -0.6126  0.1509 -0.1936
 3886TIP3    H133149   0.846   0.589  11.533 -0.5144  0.3199 -1.7739
 3886TIP3    H233150   0.870   0.738  11.527 -0.8495  0.4632  0.0906
 3887TIP3   OH233151   1.579   0.518  16.302 -0.4531  0.1646 -0.2695
 3887TIP3    H133152   1.587   0.537  16.395  2.0367 -1.3489 -0.1412
 3887TIP3    H233153   1.607   0.598  16.258 -0.5082  0.4764  0.2609
 3888TIP3   OH233154   5.866   1.816  14.300  0.7191 -0.4001 -0.2393
 3888TIP3    H133155   5.961   1.829  14.295  0.8077 -1.2605 -1.0354
 3888TIP3    H233156   5.832   1.857  14.221  0.2636  1.1346  0.7249
 3889TIP3   OH233157   3.476   5.797  15.757  0.3368  0.8219  0.2743
 3889TIP3    H133158   3.443   5.833  15.675  2.1369  0.6409 -0.5692
 3889TIP3    H233159   3.425   5.841  15.825 -0.8234  1.3562 -0.9252
 3890TIP3   OH233160   5.122   6.076  13.446 -0.6435  0.0862 -0.1778
 3890TIP3    H133161   5.067   6.144  13.484  0.2906  0.5269  0.4006
 3890TIP3    H233162   5.196   6.122  13.408 -0.9167 -0.4664 -1.3952
 3891TIP3   OH233163   2.392   0.237   0.361  0.4427 -0.0532  0.0391
 3891TIP3    H133164   2.353   0.247   0.448 -0.7256  1.1729 -0.6118
 3891TIP3    H233165   2.318   0.243   0.301  1.4620  0.8389 -1.1450
 3892TIP3   OH233166   2.722   5.498  13.802  0.5619  0.5813 -0.4014
 3892TIP3    H133167   2.652   5.560  13.821  1.5761  1.0365  2.0979
 3892TIP3    H233168   2.789   5.550  13.757 -0.9107  0.0065 -3.3522
 3893TIP3   OH233169   5.835   3.991   1.235  0.2292  0.3267 -0.4000
 3893TIP3    H133170   5.914   3.949   1.269 -0.1506 -0.5342 -0.5843
 3893TIP3    H233171   5.869   4.063   1.181  0.8933 -0.0810 -0.5362
 3894TIP3   OH233172   3.608   4.887   2.612 -0.2346  0.0543  0.4006
 3894TIP3    H133173   3.585   4.891   2.519  2.1469  0.0395 -0.2023
 3894TIP3    H233174   3.658   4.806   2.621 -0.5867 -0.0196  1.7369
 3895TIP3   OH233175   3.094   0.259   4.042  0.0563  0.1388  0.0847
 3895TIP3    H133176   3.068   0.268   4.134  0.4889 -1.6140  0.3954
 3895TIP3    H233177   3.189   0.265   4.043  0.0892 -0.2615 -0.1835
 3896TIP3   OH233178   2.541   6.268   2.475  0.0811 -0.9444 -0.0262
 3896TIP3    H133179   2.525   6.357   2.443  2.1429 -0.6626 -0.3246
 3896TIP3    H233180   2.510   6.211   2.405 -1.1124 -0.4663  0.1029
 3897TIP3   OH233181   5.053   1.630  12.814  0.3442  0.2296  0.9286
 3897TIP3    H133182   5.073   1.577  12.737  0.3555  0.5851  0.6906
 3897TIP3    H233183   5.125   1.611  12.875  0.4832  0.1692  0.7460
 3898TIP3   OH233184   5.683   0.843   1.764  0.2446  0.4201  0.2809
 3898TIP3    H133185   5.662   0.760   1.722  1.1479  0.7378 -0.8119
 3898TIP3    H233186   5.645   0.910   1.708  2.3784  0.8945 -0.6469
 3899TIP3   OH233187   5.182   5.217  12.568  0.5081 -0.1704 -0.2047
 3899TIP3    H133188   5.212   5.142  12.619  0.0454  0.4207  0.9467
 3899TIP3    H233189   5.088   5.204  12.558  0.3581  0.4911  0.3762
 3900TIP3   OH233190   0.110   3.334  14.964  0.3212  0.3866  0.0057
 3900TIP3    H133191   0.071   3.337  14.877  2.5156 -1.9983 -1.1069
 3900TIP3    H233192   0.204   3.339  14.949  0.7768 -0.7326  2.1838
 3901TIP3   OH233193   6.089   0.383  12.217 -0.1484 -0.0305  0.5248
 3901TIP3    H133194   6.072   0.316  12.150  1.1718 -0.1045  0.2564
 3901TIP3    H233195   6.175   0.360  12.252  1.5658  3.0890 -1.4457
 3902TIP3   OH233196   4.949   0.550   0.469 -0.2023 -0.1210 -0.9334
 3902TIP3    H133197   4.881   0.615   0.486  0.5801 -0.3441  3.6293
 3902TIP3    H233198   4.904   0.466   0.479  0.3405 -0.2570  0.4974
 3903TIP3   OH233199   2.736   2.930   0.575 -0.5066 -0.1802 -0.3068
 3903TIP3    H133200   2.693   2.890   0.651  1.3668 -1.9362 -0.1198
 3903TIP3    H233201   2.820   2.961   0.609  0.5426 -1.3837 -1.7311
 3904TIP3   OH233202   6.412   0.554   0.084 -0.0777  0.3526 -0.2932
 3904TIP3    H133203   6.319   0.576   0.091  0.4693  2.3496  1.5082
 3904TIP3    H233204   6.438   0.583  -0.003 -0.5145  2.5297  0.2615
 3905TIP3   OH233205   6.120   1.491  12.305  0.0203 -0.3421 -0.0223
 3905TIP3    H133206   6.148   1.512  12.395 -0.0294  0.6232 -0.2309
 3905TIP3    H233207   6.190   1.524  12.250 -0.3806 -0.1079 -0.3966
 3906TIP3   OH233208   1.041   2.661   4.799 -0.2423  0.4237 -0.2193
 3906TIP3    H133209   0.951   2.668   4.767 -0.6948 -1.6243  0.5524
 3906TIP3    H233210   1.041   2.584   4.855  2.0136  0.4036 -0.2020
 3907TIP3   OH233211   0.535   3.982  14.909  0.7007  0.7975 -0.4963
 3907TIP3    H133212   0.581   3.949  14.832  1.0579 -0.1772  0.1279
 3907TIP3    H233213   0.449   4.008  14.877  1.2263  1.4295 -1.4319
 3908TIP3   OH233214   5.623   0.069   3.146  0.2676 -0.0891 -0.2907
 3908TIP3    H133215   5.713   0.035   3.153 -0.1110 -0.8583  0.9718
 3908TIP3    H233216   5.574  -0.002   3.105 -0.6339 -1.3463  2.8094
 3909TIP3   OH233217   1.333   2.861  14.144 -1.0674 -0.2217 -0.3099
 3909TIP3    H133218   1.391   2.797  14.102 -0.8063 -1.1042  1.3824
 3909TIP3    H233219   1.391   2.931  14.172 -1.3671  0.8629 -2.2662
 3910TIP3   OH233220   1.725   3.272  15.965 -0.7407  0.1660  0.3519
 3910TIP3    H133221   1.768   3.329  16.028 -0.9312 -0.5507  1.1447
 3910TIP3    H233222   1.794   3.250  15.902 -0.3310  0.2204  0.7768
 3911TIP3   OH233223   4.300   0.275   2.022  0.3271 -0.8703  0.0219
 3911TIP3    H133224   4.207   0.296   2.020  1.0032  2.4541 -0.9300
 3911TIP3    H233225   4.329   0.281   1.931  1.9225  0.7487  0.5775
 3912TIP3   OH233226   4.781   0.308   0.231 -0.2289 -0.4531  0.3663
 3912TIP3    H133227   4.803   0.317   0.138  0.7141 -0.2650  0.5933
 3912TIP3    H233228   4.718   0.378   0.248 -0.7073 -0.7391 -0.2229
 3913TIP3   OH233229   0.855   1.451  13.223 -0.3825  0.2673  0.5068
 3913TIP3    H133230   0.791   1.385  13.197 -0.2054  0.6973 -1.0360
 3913TIP3    H233231   0.906   1.467  13.144 -0.7235  2.5968  0.7439
 3914TIP3   OH233232   2.248   6.620  14.775 -0.5699 -0.0249  0.0208
 3914TIP3    H133233   2.270   6.626  14.868 -0.5036  2.9376 -0.1257
 3914TIP3    H233234   2.333   6.613  14.731 -0.5327 -0.1379  0.1094
 3915TIP3   OH233235   3.843   3.985   6.365 -0.0376 -0.1127  0.1147
 3915TIP3    H133236   3.929   4.004   6.328 -0.6978  0.1607 -1.3170
 3915TIP3    H233237   3.786   4.053   6.330 -0.7114  0.0708  1.5496
 3916TIP3   OH233238   0.316   3.303  16.973  0.4112 -0.9255  0.6941
 3916TIP3    H133239   0.365   3.290  17.054 -1.2427 -2.3625  1.4954
 3916TIP3    H233240   0.289   3.395  16.976  4.1947  0.2901 -0.4485
 3917TIP3   OH233241   2.607   0.949   0.052  0.1974 -0.3940 -0.4165
 3917TIP3    H133242   2.516   0.927   0.032 -0.7675  0.8600  2.3769
 3917TIP3    H233243   2.629   1.019  -0.010 -0.5608 -1.0518 -1.4464
 3918TIP3   OH233244   0.237   5.254   3.196  0.5222  0.1598  0.0111
 3918TIP3    H133245   0.250   5.321   3.263  0.4637 -0.0464  0.2290
 3918TIP3    H233246   0.234   5.303   3.113  0.6499  0.4076  0.1532
 3919TIP3   OH233247   5.185   4.456  14.779 -0.4099  0.6495 -0.3722
 3919TIP3    H133248   5.240   4.438  14.702  0.4114  0.5512  0.2360
 3919TIP3    H233249   5.150   4.371  14.803  2.4450 -0.0057  1.7192
 3920TIP3   OH233250   0.462   2.108   3.118 -0.8160  0.0352 -0.1302
 3920TIP3    H133251   0.427   2.164   3.187  0.4502  0.2899  0.3133
 3920TIP3    H233252   0.466   2.165   3.041 -1.9980 -0.1820 -0.3603
 3921TIP3   OH233253   0.173   3.902  14.493  0.1285 -0.2438 -0.0776
 3921TIP3    H133254   0.106   3.968  14.510 -0.1119 -0.1646 -1.3186
 3921TIP3    H233255   0.138   3.822  14.534 -0.0964  0.1168  0.4408
 3922TIP3   OH233256   5.414   1.485   2.744 -0.3639 -0.4334 -0.1156
 3922TIP3    H133257   5.408   1.424   2.670  1.4725 -1.1423  0.3043
 3922TIP3    H233258   5.323   1.501   2.769 -0.8803 -2.7670 -0.4258
 3923TIP3   OH233259   4.403   2.403   5.819 -0.1637  0.6818 -0.4053
 3923TIP3    H133260   4.445   2.337   5.874 -1.3204  2.1852  2.4027
 3923TIP3    H233261   4.316   2.368   5.801 -1.8631  2.5247  3.4904
 3924TIP3   OH233262   4.311   4.388   4.596 -0.0539  0.0178  0.4985
 3924TIP3    H133263   4.367   4.466   4.600  1.0293 -0.8517  2.6961
 3924TIP3    H233264   4.222   4.423   4.602  0.4260  1.0813  1.6207
 3925TIP3   OH233265   0.222   0.811  12.044 -0.1063 -0.2366 -0.1346
 3925TIP3    H133266   0.207   0.889  12.096  0.1899  1.4501 -2.4859
 3925TIP3    H233267   0.292   0.764  12.090 -1.0823  0.2699  1.9086
 3926TIP3   OH233268   3.417   5.000  11.300  0.3339  0.0171  0.3016
 3926TIP3    H133269   3.323   5.011  11.310  0.4604  0.5788  0.9940
 3926TIP3    H233270   3.428   4.959  11.214 -0.3055  3.9263 -1.7733
 3927TIP3   OH233271   4.458   3.424   4.668  0.0163 -0.2708  0.7833
 3927TIP3    H133272   4.386   3.400   4.726  0.4504 -1.6426  0.7927
 3927TIP3    H233273   4.522   3.465   4.725 -0.9375  1.3557  0.6988
 3928TIP3   OH233274   4.230   4.616  15.411 -0.2527 -0.2627  0.3479
 3928TIP3    H133275   4.286   4.692  15.392 -1.0510  0.3730  0.4988
 3928TIP3    H233276   4.268   4.545  15.359 -0.4787  0.6577 -1.1239
 3929TIP3   OH233277   3.069   0.213   5.966  0.3761 -0.3571  0.5236
 3929TIP3    H133278   3.023   0.190   5.886  0.5790  1.0305 -0.0044
 3929TIP3    H233279   3.103   0.130   5.999  2.7073 -0.6305 -2.3535
 3930TIP3   OH233280   5.792   4.765   3.205 -0.5201 -0.0597 -0.1409
 3930TIP3    H133281   5.866   4.818   3.234 -1.7395 -0.7051  4.7440
 3930TIP3    H233282   5.721   4.829   3.192 -0.3288  0.1177 -0.3129
 3931TIP3   OH233283   6.059   2.878   5.776  0.6112 -0.3464 -0.3395
 3931TIP3    H133284   6.033   2.939   5.845  2.1275  1.6995 -1.5449
 3931TIP3    H233285   6.096   2.933   5.707 -0.6993 -2.3656 -2.7327
 3932TIP3   OH233286   6.031   2.713  16.375 -0.7675 -0.2327 -0.3419
 3932TIP3    H133287   6.022   2.725  16.280 -5.8585 -0.7621 -0.0726
 3932TIP3    H233288   6.059   2.622  16.385 -0.4143 -0.2416 -1.2860
 3933TIP3   OH233289   5.939   4.045  12.649 -1.0910 -0.5601 -0.5384
 3933TIP3    H133290   5.896   3.962  12.633 -0.3404 -1.0443 -0.0566
 3933TIP3    H233291   5.977   4.070  12.564  0.0953 -1.5241 -0.3024
 3934TIP3   OH233292   2.014   4.953  12.501  0.5745 -0.1927  0.0041
 3934TIP3    H133293   1.994   4.968  12.593  0.5471  2.0602 -0.3354
 3934TIP3    H233294   1.945   4.894  12.471  0.9731 -1.4937  1.5816
 3935TIP3   OH233295   3.708   5.378   5.507 -0.0900 -0.0807 -0.6976
 3935TIP3    H133296   3.660   5.356   5.587 -0.0861  1.6082 -0.2235
 3935TIP3    H233297   3.770   5.306   5.496 -0.6450 -0.7426  0.3548
 3936TIP3   OH233298   2.957   6.118  13.207  0.2219  0.2905  0.2832
 3936TIP3    H133299   2.943   6.186  13.274  0.2463 -0.1444  0.7273
 3936TIP3    H233300   2.959   6.036  13.255  0.0630 -0.0452 -0.2752
 3937TIP3   OH233301   5.895   0.485   3.752 -0.4909 -0.3391 -0.0956
 3937TIP3    H133302   5.873   0.462   3.842 -1.1515 -0.4673 -0.2873
 3937TIP3    H233303   5.812   0.478   3.705 -0.0386 -0.8519 -0.8314
 3938TIP3   OH233304   3.033   3.610  17.046 -0.6496  0.1756 -0.7159
 3938TIP3    H133305   2.969   3.640  17.111  0.2020 -0.4045  0.4224
 3938TIP3    H233306   2.994   3.632  16.962 -1.8748  0.7684 -0.0140
 3939TIP3   OH233307   6.080   4.464  11.111  0.1696  0.0359 -1.2100
 3939TIP3    H133308   6.173   4.488  11.101  0.8726 -1.5543  1.1688
 3939TIP3    H233309   6.033   4.547  11.101  1.9958  1.2104 -0.3821
 3940TIP3   OH233310   1.165   6.062  12.430 -0.6083 -0.3404 -0.2065
 3940TIP3    H133311   1.099   6.097  12.370 -1.1656  0.0447  0.6286
 3940TIP3    H233312   1.148   6.106  12.513  0.6054 -0.3478  0.0590
 3941TIP3   OH233313   5.557   4.680  14.867  0.1903 -0.6812  0.0184
 3941TIP3    H133314   5.638   4.675  14.817  0.5624  0.4501  0.4884
 3941TIP3    H233315   5.586   4.676  14.959 -0.2759 -0.3316  0.1832
 3942TIP3   OH233316   1.487   0.874  10.311  0.3714  0.6440  0.1550
 3942TIP3    H133317   1.572   0.895  10.272  0.4395  0.7154  0.3393
 3942TIP3    H233318   1.449   0.959  10.333  0.0078  0.6378 -0.4373
 3943TIP3   OH233319   3.510   4.132   0.784  0.3484  0.1994 -0.0407
 3943TIP3    H133320   3.473   4.174   0.862 -0.9902  0.7591 -0.9501
 3943TIP3    H233321   3.603   4.124   0.802 -0.0371 -0.2004  1.8574
 3944TIP3   OH233322   2.135   2.518  10.441  0.7862  0.4002 -0.3034
 3944TIP3    H133323   2.113   2.434  10.401 -0.6413  1.5127 -1.9307
 3944TIP3    H233324   2.136   2.579  10.367  0.0142  2.1459  1.1049
 3945TIP3   OH233325   5.242   0.349   6.236 -0.5191 -0.2879  0.6670
 3945TIP3    H133326   5.229   0.256   6.221 -1.2553 -0.4725  2.3204
 3945TIP3    H233327   5.330   0.367   6.205  0.6256 -2.0872  2.7348
 3946TIP3   OH233328   0.473   1.135   0.425  0.4610  0.1560  0.1530
 3946TIP3    H133329   0.496   1.198   0.357  0.5908 -0.6971 -0.6106
 3946TIP3    H233330   0.555   1.117   0.470  0.4696  0.3451  0.2138
 3947TIP3   OH233331   4.296   1.432   4.625 -0.0455  0.5142  0.4498
 3947TIP3    H133332   4.307   1.349   4.672  0.0397  0.7406  0.8347
 3947TIP3    H233333   4.360   1.491   4.666 -1.9176  1.5303  1.9680
 3948TIP3   OH233334   2.716   4.851   4.919  0.8200  0.2013 -0.3915
 3948TIP3    H133335   2.739   4.878   5.008  0.8749  1.2204 -0.7149
 3948TIP3    H233336   2.794   4.870   4.867  0.7256 -0.2297 -0.6963
 3949TIP3   OH233337   1.340   1.544   2.882 -0.6129  0.4534  0.0688
 3949TIP3    H133338   1.281   1.615   2.907 -1.8137  0.0196 -1.4867
 3949TIP3    H233339   1.283   1.467   2.878 -0.2031  0.2784 -2.7231
 3950TIP3   OH233340   5.837   2.343   1.251  0.4446 -0.6041  0.1397
 3950TIP3    H133341   5.888   2.281   1.304  1.0321  0.0301  0.3169
 3950TIP3    H233342   5.872   2.332   1.163  0.7549 -0.3103  0.2255
 3951TIP3   OH233343   6.080   1.000   4.081 -0.3172 -0.6222 -0.2736
 3951TIP3    H133344   5.990   0.979   4.057 -0.5057 -0.3405  0.1918
 3951TIP3    H233345   6.127   0.917   4.070 -0.7884 -0.9655  0.2326
 3952TIP3   OH233346   6.753   5.374   2.248 -0.1368  0.1371  0.1465
 3952TIP3    H133347   6.818   5.313   2.214  0.2390 -0.1863  1.3913
 3952TIP3    H233348   6.670   5.328   2.242 -0.0000 -0.1031  0.1189
 3953TIP3   OH233349   3.239   5.510  14.390  0.4218 -0.5630  0.7077
 3953TIP3    H133350   3.226   5.555  14.474  2.3942  0.3233  0.5714
 3953TIP3    H233351   3.307   5.561  14.346 -0.4885 -1.0964 -1.3869
 3954TIP3   OH233352   2.906   1.260  12.619  0.1067 -0.4856  0.5377
 3954TIP3    H133353   2.949   1.217  12.693  0.9077  0.3315  0.5647
 3954TIP3    H233354   2.870   1.341  12.655  0.3588 -0.1638  0.0799
 3955TIP3   OH233355   1.953   0.001  11.443 -0.3412 -0.4631 -0.0839
 3955TIP3    H133356   1.977   0.029  11.354  0.3991 -0.4081  0.1324
 3955TIP3    H233357   1.869   0.044  11.460 -0.0040  0.3221 -0.3732
 3956TIP3   OH233358   1.785   4.718  16.986 -0.1912 -0.3973  0.1555
 3956TIP3    H133359   1.878   4.726  16.965 -0.5305 -0.6997 -1.5100
 3956TIP3    H233360   1.740   4.764  16.915 -1.3128 -0.3223  0.9045
 3957TIP3   OH233361   4.245   3.740  13.460 -0.4631  0.5141 -0.2058
 3957TIP3    H133362   4.336   3.751  13.430 -0.2406  0.2548  0.3756
 3957TIP3    H233363   4.194   3.794  13.400  0.2191  1.6939  0.2590
 3958TIP3   OH233364   3.166   2.126  14.158  0.0157  0.2504  0.2231
 3958TIP3    H133365   3.187   2.186  14.088  1.9681 -1.6772 -0.9037
 3958TIP3    H233366   3.239   2.133  14.219  0.0525 -0.6719  0.2921
 3959TIP3   OH233367   4.031   5.808  14.061 -0.4279 -0.8521  0.2380
 3959TIP3    H133368   4.053   5.869  13.991 -0.8948 -2.1758 -1.0762
 3959TIP3    H233369   3.954   5.761  14.029 -1.4401 -0.5969  2.1762
 3960TIP3   OH233370   5.876   6.322   4.987  0.2447  0.2769 -0.1263
 3960TIP3    H133371   5.802   6.379   5.009  0.2035  0.3607 -0.4698
 3960TIP3    H233372   5.836   6.241   4.955  0.3016  0.3070 -0.2753
 3961TIP3   OH233373   4.077   0.379   0.790 -0.9593 -0.8575  0.3341
 3961TIP3    H133374   4.009   0.320   0.759 -0.3773 -1.2458 -0.2025
 3961TIP3    H233375   4.109   0.422   0.711 -1.8353  0.6715  0.7847
 3962TIP3   OH233376   4.976   6.690   0.239 -0.2824  0.0122  0.5856
 3962TIP3    H133377   4.888   6.672   0.204 -0.5803  0.4539  1.0988
 3962TIP3    H233378   4.960   6.737   0.321  0.4108 -0.6954  1.1453
 3963TIP3   OH233379   3.402   4.670  14.684  0.2266 -0.1619  0.1801
 3963TIP3    H133380   3.384   4.748  14.631  0.0348 -0.1013  0.3322
 3963TIP3    H233381   3.373   4.695  14.772  0.5991 -0.2392  0.3253
 3964TIP3   OH233382   3.937   3.815   4.484 -0.0564  0.5344 -0.5281
 3964TIP3    H133383   3.899   3.898   4.459 -2.3027  0.2705  1.7990
 3964TIP3    H233384   4.031   3.827   4.472 -0.2489  3.7543  0.6562
 3965TIP3   OH233385   4.769   3.402  12.711  0.7130  0.2628  0.2752
 3965TIP3    H133386   4.712   3.479  12.703 -1.1952 -1.0196  1.1765
 3965TIP3    H233387   4.800   3.405  12.801 -0.7387 -0.9377  0.8328
 3966TIP3   OH233388   5.759   0.250  16.488 -0.2396 -0.3076  0.5432
 3966TIP3    H133389   5.760   0.338  16.525  0.0967 -0.4049  0.7606
 3966TIP3    H233390   5.761   0.265  16.393  0.4954 -0.0932  0.5894
 3967TIP3   OH233391   1.472   0.197   5.035  0.1542 -0.3944  0.6771
 3967TIP3    H133392   1.493   0.183   5.128 -0.3761  1.5284  1.1238
 3967TIP3    H233393   1.454   0.291   5.029 -1.4450 -0.7827 -1.0541
 3968TIP3   OH233394   1.926   2.219   0.666  0.0398  0.2209 -0.1281
 3968TIP3    H133395   1.987   2.239   0.737  1.7285 -0.9601 -1.2002
 3968TIP3    H233396   1.904   2.304   0.629  0.8309  0.6842  0.4471
 3969TIP3   OH233397   1.063   1.415  16.773 -0.4674  0.4949 -0.0581
 3969TIP3    H133398   1.040   1.418  16.680  1.3331  1.8922 -0.4773
 3969TIP3    H233399   1.069   1.506  16.800  0.2551  0.1192  1.1118
 3970TIP3   OH233400   4.909   1.050   1.010 -0.2087 -0.4208  0.4107
 3970TIP3    H133401   4.867   0.964   1.019 -1.5011  0.2357  0.8308
 3970TIP3    H233402   4.854   1.096   0.947 -0.3846  0.6215  1.3257
 3971TIP3   OH233403   0.315   6.738  15.714  0.0172 -0.2556  0.3854
 3971TIP3    H133404   0.269   6.656  15.729 -0.7935 -0.1214 -1.2606
 3971TIP3    H233405   0.251   6.806  15.736  0.0301 -0.0657 -0.1488
 3972TIP3   OH233406   4.212   5.651   4.972  0.2308  0.0956  0.4987
 3972TIP3    H133407   4.181   5.706   4.900 -0.7642 -0.9267  0.1202
 3972TIP3    H233408   4.209   5.707   5.049 -1.6347  0.3409  0.2803
 3973TIP3   OH233409   4.416   0.418  16.107 -0.0645  0.2328 -0.1753
 3973TIP3    H133410   4.372   0.334  16.107 -0.1479  0.2678 -1.4000
 3973TIP3    H233411   4.347   0.483  16.095  0.0119  0.4804  0.6434
 3974TIP3   OH233412   5.546   1.933   5.268  0.0667 -0.1098 -0.4143
 3974TIP3    H133413   5.586   1.902   5.349  0.0746  0.7408 -0.0845
 3974TIP3    H233414   5.491   2.007   5.295  0.2396  0.3239 -1.2053
 3975TIP3   OH233415   6.468   2.990  15.985  0.6297  0.0453  0.3516
 3975TIP3    H133416   6.520   2.944  16.052  1.8360  1.7043  0.5808
 3975TIP3    H233417   6.505   2.960  15.902 -0.3571 -1.4166  0.4080
 3976TIP3   OH233418   3.147   1.071  15.027 -0.0816  0.3024 -0.5537
 3976TIP3    H133419   3.073   1.113  14.982  0.5188  3.3709  1.2196
 3976TIP3    H233420   3.214   1.061  14.960 -1.3076 -0.5412 -1.6774
 3977TIP3   OH233421   0.486   4.023  12.784  0.3123 -0.1480  0.4411
 3977TIP3    H133422   0.445   3.968  12.852 -0.4337 -0.8020 -0.5307
 3977TIP3    H233423   0.538   3.962  12.733  1.6101  0.5019  0.9793
 3978TIP3   OH233424   4.552   0.841   5.710  0.4200 -0.2834  0.3338
 3978TIP3    H133425   4.547   0.927   5.668 -0.0162 -0.0244  0.9009
 3978TIP3    H233426   4.476   0.838   5.767  0.0679 -1.3173 -0.1710
 3979TIP3   OH233427   3.557   0.425   5.869  0.2353  0.1694 -0.5992
 3979TIP3    H133428   3.525   0.340   5.837  2.6830 -1.3244  0.7774
 3979TIP3    H233429   3.577   0.410   5.961 -1.2154  2.8552  0.2240
 3980TIP3   OH233430   2.350   3.487  13.277 -0.0257  0.4929  0.3676
 3980TIP3    H133431   2.332   3.528  13.192 -1.3864 -1.1913 -0.2090
 3980TIP3    H233432   2.353   3.393  13.258 -1.9005 -0.0367  2.4063
 3981TIP3   OH233433   2.372   5.734  16.636 -0.4610 -0.0031 -0.1962
 3981TIP3    H133434   2.376   5.751  16.542  1.5394  1.2048  0.0782
 3981TIP3    H233435   2.355   5.820  16.675  0.7904 -0.1251  0.6563
 3982TIP3   OH233436   6.103   5.370  11.401  0.0714 -0.2342 -0.4813
 3982TIP3    H133437   6.149   5.375  11.317  1.3170  1.7490  0.2846
 3982TIP3    H233438   6.167   5.333  11.461 -0.7570 -1.4655 -0.3367
 3983TIP3   OH233439   0.524   3.828   0.002  0.6504 -0.0735  0.2981
 3983TIP3    H133440   0.573   3.910   0.007 -2.3110  1.8778 -1.1010
 3983TIP3    H233441   0.436   3.851   0.032 -0.4906 -2.5095 -1.0149
 3984TIP3   OH233442   1.298   6.082  16.854 -0.2808  0.4603  0.7037
 3984TIP3    H133443   1.346   6.001  16.835 -0.0335  1.3298 -2.8458
 3984TIP3    H233444   1.212   6.069  16.815 -1.0771  1.0152  2.2258
 3985TIP3   OH233445   3.107   2.280  13.204 -0.2559 -0.1856  0.0589
 3985TIP3    H133446   3.039   2.218  13.229 -1.7013  1.4277  0.2454
 3985TIP3    H233447   3.060   2.350  13.158  1.7987 -1.0656 -3.5894
 3986TIP3   OH233448   0.516   1.817   0.316  0.2522  0.1887  0.2141
 3986TIP3    H133449   0.598   1.843   0.359  0.0673 -1.0094  1.3357
 3986TIP3    H233450   0.535   1.820   0.223  0.5140  3.4164  0.2909
 3987TIP3   OH233451   0.023   1.714  11.063 -0.3534  1.0085  0.0072
 3987TIP3    H133452   0.094   1.695  11.003  0.7249 -0.7960  1.8085
 3987TIP3    H233453  -0.057   1.690  11.015  0.4304  0.3637 -0.9856
 3988TIP3   OH233454   1.265   1.483  11.120 -0.4335  0.0046 -0.4203
 3988TIP3    H133455   1.226   1.469  11.033 -0.3246 -0.0536 -0.4591
 3988TIP3    H233456   1.195   1.524  11.171 -0.4013  0.3220 -0.6271
 3989TIP3   OH233457   4.670   3.765  14.304  0.1246  0.1574 -0.6501
 3989TIP3    H133458   4.656   3.854  14.273  1.1040  0.3322 -0.6241
 3989TIP3    H233459   4.704   3.776  14.393 -0.1814 -0.2534 -0.4819
 3990TIP3   OH233460   1.518   6.481  11.940  0.2753  0.2030  0.3466
 3990TIP3    H133461   1.451   6.545  11.914  1.1374  0.3006 -1.7979
 3990TIP3    H233462   1.470   6.399  11.950 -0.6308  0.8950  1.8205
 3991TIP3   OH233463   6.222   5.625  17.127  0.5723  0.1405 -0.0339
 3991TIP3    H133464   6.242   5.711  17.090 -0.4873  2.0934  3.6404
 3991TIP3    H233465   6.307   5.587  17.146  1.0432  1.9024  1.5066
 3992TIP3   OH233466   0.329   2.856   1.359 -0.3705  0.1114 -0.1680
 3992TIP3    H133467   0.276   2.927   1.322 -0.3980  0.8108  1.1740
 3992TIP3    H233468   0.291   2.841   1.446  1.0578  0.0049  0.4516
 3993TIP3   OH233469   3.775   2.139   2.433 -0.1299  0.6053 -0.0054
 3993TIP3    H133470   3.705   2.123   2.370 -2.5861 -0.8797  2.9942
 3993TIP3    H233471   3.763   2.230   2.460 -0.8253  0.3876  0.4174
 3994TIP3   OH233472   6.246   6.299   1.625 -0.5642 -0.5891  0.3178
 3994TIP3    H133473   6.321   6.352   1.599  0.1801 -1.6828  0.1669
 3994TIP3    H233474   6.217   6.256   1.544 -0.9357 -0.6881  0.4995
 3995TIP3   OH233475   4.356   0.431  11.515  0.4901  0.3613  0.8103
 3995TIP3    H133476   4.440   0.474  11.524  0.3038  0.6609  1.1378
 3995TIP3    H233477   4.376   0.337  11.517  0.6014  0.4128  3.1557
 3996TIP3   OH233478   4.556   2.800   3.403 -0.1598  0.1460  0.1375
 3996TIP3    H133479   4.465   2.814   3.428  0.0059 -0.9229  1.3641
 3996TIP3    H233480   4.575   2.710   3.430  1.4642  0.5986  0.5290
 3997TIP3   OH233481   1.008   5.661  13.410  0.1477  0.6969 -0.0809
 3997TIP3    H133482   1.026   5.755  13.406 -1.3263  1.1266  2.2745
 3997TIP3    H233483   1.094   5.619  13.412  0.8278  2.1419  1.3483
 3998TIP3   OH233484   0.850   4.396  11.439 -0.1831 -0.4251 -0.2726
 3998TIP3    H133485   0.878   4.404  11.530  0.9787 -0.4314 -0.6311
 3998TIP3    H233486   0.898   4.321  11.404  1.2513  1.0701 -1.5954
 3999TIP3   OH233487   5.946   5.761  13.484 -0.0835 -0.2142 -0.2143
 3999TIP3    H133488   5.948   5.671  13.517 -0.4302  0.4738  1.7310
 3999TIP3    H233489   5.862   5.795  13.515 -0.2018  0.6086 -1.4291
 4000TIP3   OH233490   2.762   2.356   5.203  0.2376 -0.3433 -0.4432
 4000TIP3    H133491   2.819   2.433   5.199 -0.7936  0.4600  0.4939
 4000TIP3    H233492   2.787   2.312   5.284  2.2471 -2.1268 -1.9561
 4001TIP3   OH233493   1.724   5.847  11.463 -0.5295 -0.1390  0.6497
 4001TIP3    H133494   1.782   5.787  11.416 -0.3028 -0.7760  1.7275
 4001TIP3    H233495   1.637   5.827  11.429 -0.1724  0.5588 -0.6955
 4002TIP3   OH233496   1.947   0.020  13.100 -0.0679  0.1284 -0.2466
 4002TIP3    H133497   1.980  -0.070  13.101  1.4055  0.6510  0.5856
 4002TIP3    H233498   1.891   0.026  13.178 -1.0031 -0.3521 -0.8740
 4003TIP3   OH233499   5.798   5.747  17.286  0.0193 -0.1185 -0.0104
 4003TIP3    H133500   5.867   5.683  17.268  0.6863  0.2684  1.1259
 4003TIP3    H233501   5.836   5.831  17.262 -0.4178 -0.0122 -0.3391
 4004TIP3   OH233502   0.606   6.118   6.455  0.6318  0.0990 -0.4981
 4004TIP3    H133503   0.559   6.201   6.452 -2.1013 -1.3303  0.7479
 4004TIP3    H233504   0.638   6.111   6.545 -2.0550 -1.6515  0.4012
 4005TIP3   OH233505   4.455   2.293  13.517  0.5915  0.0573 -0.3329
 4005TIP3    H133506   4.372   2.304  13.471  0.6237 -1.9065 -0.9207
 4005TIP3    H233507   4.508   2.241  13.457  1.8467  0.3280  0.5260
 4006TIP3   OH233508   1.254   4.822   6.268  0.6508 -0.0321 -0.0740
 4006TIP3    H133509   1.212   4.907   6.253  0.0554 -0.5757 -1.5912
 4006TIP3    H233510   1.298   4.831   6.352 -2.2508  0.6690  1.4410
 4007TIP3   OH233511   2.859   4.300  12.747 -0.2175  0.3918 -0.0270
 4007TIP3    H133512   2.932   4.240  12.735 -1.0357 -0.2865 -1.7225
 4007TIP3    H233513   2.865   4.360  12.672  0.4560  2.2886  1.5106
 4008TIP3   OH233514   3.701   0.476   5.083 -0.4599  0.5322  0.6326
 4008TIP3    H133515   3.778   0.428   5.052 -1.4741 -0.1592 -0.8275
 4008TIP3    H233516   3.714   0.483   5.178  2.0183  1.5027  0.2561
 4009TIP3   OH233517   2.662   5.732   2.881 -0.2099 -0.0300  0.0845
 4009TIP3    H133518   2.589   5.763   2.934 -0.2388  0.5096 -0.2648
 4009TIP3    H233519   2.623   5.675   2.815 -0.1945 -0.5562  0.5231
 4010TIP3   OH233520   3.443   4.136  10.600 -0.0767  0.0256  0.0133
 4010TIP3    H133521   3.518   4.120  10.542 -2.6261  0.5295 -3.5575
 4010TIP3    H233522   3.469   4.210  10.654  2.0914 -0.0140 -0.9460
 4011TIP3   OH233523   3.687   1.067   1.071 -0.1054 -0.1504  0.6751
 4011TIP3    H133524   3.750   1.077   0.999 -1.6520 -1.5264 -0.9165
 4011TIP3    H233525   3.697   1.147   1.122  0.3053  1.3552 -1.6531
 4012TIP3   OH233526   2.197   2.435   4.497 -0.0313 -0.1967  0.5621
 4012TIP3    H133527   2.288   2.417   4.475 -0.2954 -0.5222 -0.2779
 4012TIP3    H233528   2.194   2.530   4.511  0.3103 -0.1058  0.0170
 4013TIP3   OH233529   0.217   0.686  12.650  0.2301  0.2208 -0.5173
 4013TIP3    H133530   0.199   0.771  12.609 -0.6702 -0.7193 -2.1151
 4013TIP3    H233531   0.300   0.699  12.697  0.1008  1.9757 -0.7511
 4014TIP3   OH233532   6.395   2.553   1.728  0.0111 -0.8158 -0.1574
 4014TIP3    H133533   6.449   2.558   1.649 -0.7026  0.3875 -0.5865
 4014TIP3    H233534   6.333   2.625   1.718 -3.7005 -3.9843 -1.1967
 4015TIP3   OH233535   6.529   6.251  12.877  0.7944  0.7078 -0.1034
 4015TIP3    H133536   6.452   6.204  12.911 -0.0195  2.4013  0.4373
 4015TIP3    H233537   6.581   6.183  12.834  0.8183 -1.1633  2.6992
 4016TIP3   OH233538   2.890   6.566  12.756 -0.3041 -0.2746  0.4015
 4016TIP3    H133539   2.809   6.618  12.753 -0.5621 -0.6353  0.9967
 4016TIP3    H233540   2.926   6.584  12.843  1.4499  1.6689 -0.6628
 4017TIP3   OH233541   6.611   5.848   0.172 -0.2173  0.5852  0.0314
 4017TIP3    H133542   6.546   5.919   0.169 -0.0367  0.8141  1.1493
 4017TIP3    H233543   6.685   5.882   0.121 -1.3892 -0.1296 -2.1879
 4018TIP3   OH233544   5.478   4.435   4.695 -0.6805 -0.4575 -0.1659
 4018TIP3    H133545   5.459   4.345   4.671 -1.2247 -0.5148  0.4602
 4018TIP3    H233546   5.408   4.459   4.757 -2.5951  1.5267 -2.9503
 4019TIP3   OH233547   4.345   3.822   4.356  0.1443  0.8881  0.4054
 4019TIP3    H133548   4.337   3.735   4.317 -2.3987  1.0095  0.6098
 4019TIP3    H233549   4.298   3.816   4.438  0.4314  2.3184  0.6798
 4020TIP3   OH233550   2.160   2.980   2.583 -0.2259  0.1520 -0.9223
 4020TIP3    H133551   2.068   3.003   2.590 -0.7012 -1.6994 -0.7581
 4020TIP3    H233552   2.195   2.994   2.671 -0.7498 -0.7288 -0.5661
 4021TIP3   OH233553   1.685   4.600  14.881 -0.0656 -0.2459  0.3146
 4021TIP3    H133554   1.649   4.620  14.794  0.0473  0.4884  0.4299
 4021TIP3    H233555   1.747   4.671  14.898  0.8657 -1.0834  0.4510
 4022TIP3   OH233556   1.695   5.945   6.036 -0.4983 -0.0773 -0.2106
 4022TIP3    H133557   1.727   6.031   6.062 -0.8050  0.5311 -1.8127
 4022TIP3    H233558   1.636   5.919   6.107  0.0023  0.8002  0.5328
 4023TIP3   OH233559   2.088   5.141  14.733 -0.5112 -0.1635 -0.0623
 4023TIP3    H133560   2.117   5.055  14.701  1.3910  0.4102  0.0361
 4023TIP3    H233561   2.103   5.200  14.660  0.4969  0.5145  0.6781
 4024TIP3   OH233562   4.084   4.168   1.940 -0.0740  0.4711  0.8959
 4024TIP3    H133563   4.175   4.189   1.961  0.1830  0.7680 -0.4730
 4024TIP3    H233564   4.080   4.174   1.845 -0.4217 -3.9519  0.5643
 4025TIP3   OH233565   1.332   2.754  11.761 -0.2111 -0.0943  0.2971
 4025TIP3    H133566   1.421   2.781  11.785 -0.2784  1.0439 -0.6730
 4025TIP3    H233567   1.345   2.681  11.701  0.0784  0.0353  0.1963
 4026TIP3   OH233568   0.534   0.560   5.162 -0.4225  0.2361 -0.9262
 4026TIP3    H133569   0.621   0.572   5.125 -0.4058  1.9099 -0.3860
 4026TIP3    H233570   0.531   0.468   5.188  1.5554  0.4123 -0.0083
 4027TIP3   OH233571   3.148   3.922  13.760  0.6373 -0.2279 -0.1083
 4027TIP3    H133572   3.187   3.888  13.840  0.8310 -1.9151 -0.9049
 4027TIP3    H233573   3.081   3.858  13.737 -2.4832  2.4404  1.0677
 4028TIP3   OH233574   6.309   4.574   1.672  0.0926  0.8089 -0.1141
 4028TIP3    H133575   6.299   4.661   1.633  2.0548  1.0703 -0.0781
 4028TIP3    H233576   6.369   4.528   1.612 -2.2332 -1.1003 -1.0462
 4029TIP3   OH233577   3.151   1.864   1.515 -0.5859  0.7083 -0.3251
 4029TIP3    H133578   3.219   1.799   1.531  1.9993  3.8372  2.0343
 4029TIP3    H233579   3.182   1.913   1.439  0.4939  2.9106  1.4775
 4030TIP3   OH233580   0.646   2.499  12.981 -0.0756 -0.5931  0.0151
 4030TIP3    H133581   0.582   2.499  12.911  1.6333  0.7497 -1.5964
 4030TIP3    H233582   0.723   2.457  12.944  0.7183 -0.2367  1.2125
 4031TIP3   OH233583   4.615   3.671  12.796  0.3347  0.7155 -0.3042
 4031TIP3    H133584   4.566   3.654  12.876  0.6804  0.9295 -0.0478
 4031TIP3    H233585   4.560   3.634  12.727  0.8570 -1.0149  0.1929
 4032TIP3   OH233586   1.612   5.575  13.062  0.4556  0.3833  0.1142
 4032TIP3    H133587   1.567   5.526  12.992  0.8691  0.6875 -0.3701
 4032TIP3    H233588   1.640   5.507  13.123  1.9056 -0.1004 -1.0539
 4033TIP3   OH233589   0.170   4.484   5.723 -0.0606 -0.0025 -0.0277
 4033TIP3    H133590   0.118   4.465   5.645  1.0167 -0.6288 -0.6089
 4033TIP3    H233591   0.157   4.578   5.739  1.0226  0.4968 -1.9410
 4034TIP3   OH233592   3.663   2.086  11.854 -0.1624 -0.8337  0.2221
 4034TIP3    H133593   3.652   2.103  11.761  0.2271 -2.1846 -0.0821
 4034TIP3    H233594   3.629   1.997  11.866  1.2531 -1.2650  1.0710
 4035TIP3   OH233595   1.630   4.918  14.315  0.1076 -0.0262 -0.0828
 4035TIP3    H133596   1.635   4.909  14.410  1.6218  0.1734 -0.1431
 4035TIP3    H233597   1.586   4.837  14.287 -2.9997  1.2030  1.0078
 4036TIP3   OH233598   4.309   2.866   2.767 -0.4890 -0.4430  0.0728
 4036TIP3    H133599   4.329   2.932   2.700 -1.3581  1.1038  1.3152
 4036TIP3    H233600   4.369   2.794   2.748  1.2495  1.1552 -0.6275
 4037TIP3   OH233601   5.099   4.894  11.771 -0.0402 -0.0212 -0.8454
 4037TIP3    H133602   5.157   4.819  11.757  0.1998 -0.0617  0.2786
 4037TIP3    H233603   5.114   4.919  11.862 -1.4087  0.2955 -0.6896
 4038TIP3   OH233604   1.843   5.869   0.800  0.9497  0.1990  0.2812
 4038TIP3    H133605   1.773   5.809   0.776  1.4578 -0.0191 -0.6730
 4038TIP3    H233606   1.815   5.954   0.766  0.6082  0.3440  0.9219
 4039TIP3   OH233607   4.307   5.696   4.273 -0.1599 -0.2799  0.4761
 4039TIP3    H133608   4.214   5.711   4.290 -0.3048 -1.3314  0.6436
 4039TIP3    H233609   4.349   5.709   4.358  0.2280  2.8789 -0.1109
 4040TIP3   OH233610   3.773   3.186  15.064 -0.0870  0.4833 -0.1034
 4040TIP3    H133611   3.717   3.142  15.001  0.4293  0.0119 -0.2382
 4040TIP3    H233612   3.847   3.219  15.012  0.6397 -0.4267  0.3430
 4041TIP3   OH233613   3.567   1.275  13.141 -0.3200 -0.1151  0.5417
 4041TIP3    H133614   3.490   1.281  13.083  0.6961  0.1956 -0.7960
 4041TIP3    H233615   3.611   1.195  13.112  1.0095  0.8532 -0.1234
 4042TIP3   OH233616   4.395   2.627   3.102 -0.4157 -0.0490  0.5607
 4042TIP3    H133617   4.428   2.715   3.087 -1.7861  0.8802  2.7835
 4042TIP3    H233618   4.462   2.584   3.155 -0.1143 -0.0936  0.1461
 4043TIP3   OH233619   0.823   2.436   1.743  0.3217 -0.1012  0.0348
 4043TIP3    H133620   0.831   2.512   1.801  0.4567  0.8824 -1.2565
 4043TIP3    H233621   0.913   2.407   1.730  0.2482 -0.6714  0.7613
 4044TIP3   OH233622   2.079   0.098   4.885  0.0867  0.3079 -0.4485
 4044TIP3    H133623   1.984   0.083   4.889 -0.0803  1.4869  0.4429
 4044TIP3    H233624   2.097   0.114   4.793 -0.5250 -0.3331 -0.6790
 4045TIP3   OH233625   5.244   3.099   1.098  0.4216 -0.4550 -0.0508
 4045TIP3    H133626   5.161   3.052   1.099 -0.5605  1.1767 -1.7573
 4045TIP3    H233627   5.236   3.165   1.166 -0.4637  0.9702 -1.5158
 4046TIP3   OH233628   1.709   6.670  14.186 -0.4442  0.4641  0.2420
 4046TIP3    H133629   1.680   6.594  14.236  2.0513 -0.0887  0.9055
 4046TIP3    H233630   1.732   6.635  14.100 -0.6375  0.7061  0.0910
 4047TIP3   OH233631   1.432   3.289  11.291  0.1242 -1.1281 -0.0255
 4047TIP3    H133632   1.402   3.323  11.206  0.3673 -0.4151  0.1714
 4047TIP3    H233633   1.473   3.206  11.270  1.4334 -0.3064 -0.8063
 4048TIP3   OH233634   2.962   1.708  17.022  0.1427  0.4306 -0.1117
 4048TIP3    H133635   2.990   1.624  16.984  0.2398  0.2266  0.4158
 4048TIP3    H233636   3.031   1.729  17.085 -1.4679 -0.6356  2.0516
 4049TIP3   OH233637   6.194   4.089   1.687 -0.3549 -0.9089  0.3516
 4049TIP3    H133638   6.121   4.033   1.716 -0.5524  0.3816  2.3677
 4049TIP3    H233639   6.198   4.159   1.752  1.5560  0.0150 -0.7453
 4050TIP3   OH233640   5.249   2.673   2.188  0.9186 -0.5890  0.5734
 4050TIP3    H133641   5.256   2.604   2.253 -1.1990 -0.8344  0.5861
 4050TIP3    H233642   5.190   2.638   2.121  0.4113  0.9025  0.1985
 4051TIP3   OH233643   0.501   3.583  13.563 -0.1220  0.1585  0.0390
 4051TIP3    H133644   0.435   3.651  13.579  0.2447  0.2310  1.2444
 4051TIP3    H233645   0.581   3.616  13.604  0.5465 -0.1614 -0.9738
 4052TIP3   OH233646   5.286   1.070  11.697  0.8051 -0.2814 -0.0544
 4052TIP3    H133647   5.306   1.039  11.785  2.5887  0.4322 -0.1737
 4052TIP3    H233648   5.244   1.155  11.710  1.7861  0.1853  0.0940
 4053TIP3   OH233649   2.234   1.070  10.285 -0.0850  0.2186  0.1274
 4053TIP3    H133650   2.264   1.142  10.229  0.2153  0.0526  0.0774
 4053TIP3    H233651   2.313   1.037  10.327 -0.2967  0.2632  0.5609
 4054TIP3   OH233652   2.037   2.425  13.157  0.1758 -0.1012  0.2054
 4054TIP3    H133653   2.040   2.487  13.230 -0.8567 -0.2293  0.3641
 4054TIP3    H233654   2.085   2.469  13.087  2.7979 -0.7574  1.5361
 4055TIP3   OH233655   4.622   2.935   1.482  0.1761  0.0089 -0.6471
 4055TIP3    H133656   4.642   3.029   1.477  0.1770 -0.0421 -1.7860
 4055TIP3    H233657   4.538   2.927   1.437 -0.1519 -0.4446  0.0464
 4056TIP3   OH233658   4.100   0.241   4.759 -0.1770  0.1984 -0.5825
 4056TIP3    H133659   4.079   0.280   4.674 -0.6835  2.6566  0.6309
 4056TIP3    H233660   4.169   0.297   4.794  0.4755 -1.1751  0.3714
 4057TIP3   OH233661   5.937   5.273  10.240  0.1833 -0.0226  0.2654
 4057TIP3    H133662   5.852   5.273  10.282 -0.1599  1.6534 -0.3692
 4057TIP3    H233663   5.939   5.354  10.189  0.6947 -1.8272 -2.7121
 4058TIP3   OH233664   2.712   3.398  15.137 -0.2413  0.2376  0.3913
 4058TIP3    H133665   2.765   3.319  15.132  1.1277  1.2454 -2.2751
 4058TIP3    H233666   2.753   3.451  15.205  1.3152  0.3579 -0.6104
 4059TIP3   OH233667   2.882   5.064   6.017 -0.1286 -0.3331  0.1415
 4059TIP3    H133668   2.841   5.129   6.074 -0.1103  0.1583 -0.3957
 4059TIP3    H233669   2.813   5.040   5.954  0.1091 -0.2294 -0.1616
 4060TIP3   OH233670   1.214   5.553   5.254  0.1228 -0.1484  0.3366
 4060TIP3    H133671   1.131   5.527   5.213  0.7883 -1.0049 -0.4949
 4060TIP3    H233672   1.281   5.504   5.205  1.0864  0.2581  1.2360
 4061TIP3   OH233673   5.610   2.455   2.913 -0.1617 -0.6031 -0.1615
 4061TIP3    H133674   5.646   2.405   2.839 -0.0497 -3.0072  1.4592
 4061TIP3    H233675   5.533   2.405   2.940 -1.8850  1.8399 -0.4743
 4062TIP3   OH233676   3.589   4.160  11.194  0.1199 -0.5493 -0.2232
 4062TIP3    H133677   3.534   4.086  11.168 -0.4338 -0.4882  0.7869
 4062TIP3    H233678   3.658   4.121  11.248  0.2681 -0.4333 -0.3288
 4063TIP3   OH233679   2.098   6.795   3.969  0.0572  0.3480  0.0883
 4063TIP3    H133680   2.105   6.724   4.034  0.1198  0.4116  0.1501
 4063TIP3    H233681   2.098   6.750   3.885  0.7488  0.3202  0.1029
 4064TIP3   OH233682   2.238   1.490   2.978 -0.0798 -0.2996 -0.4691
 4064TIP3    H133683   2.315   1.513   3.030  0.1343 -0.3060 -0.7792
 4064TIP3    H233684   2.270   1.428   2.913 -0.2631 -0.0060 -0.8500
 4065TIP3   OH233685   6.021   1.247   4.214  0.3095 -0.5889 -0.0792
 4065TIP3    H133686   6.033   1.167   4.162  0.9927 -1.2930  1.1273
 4065TIP3    H233687   5.927   1.264   4.210  0.1903 -1.3151 -0.5689
 4066TIP3   OH233688   1.467   5.980   6.308  0.3110 -0.0699  0.0423
 4066TIP3    H133689   1.556   5.965   6.339  1.1400  0.4532 -1.9688
 4066TIP3    H233690   1.426   6.032   6.378  1.3886 -0.8172  1.2498
 4067TIP3   OH233691   1.584   1.160   6.151  0.2265 -0.1772  0.2465
 4067TIP3    H133692   1.515   1.116   6.101  0.2956 -2.8435  2.3765
 4067TIP3    H233693   1.538   1.197   6.227  1.1930 -2.6362  2.0830
 4068TIP3   OH233694   4.730   4.952   0.926  0.0336 -0.4907 -0.6028
 4068TIP3    H133695   4.825   4.942   0.928  0.0413 -0.5299 -1.1574
 4068TIP3    H233696   4.702   4.928   1.014  0.6098  0.2513 -0.2160
 4069TIP3   OH233697   0.121   5.798   3.528  0.0236 -0.2659 -0.0888
 4069TIP3    H133698   0.192   5.783   3.591  0.5562 -0.2300 -0.6815
 4069TIP3    H233699   0.069   5.719   3.532  0.5155 -0.5973 -0.1947
 4070TIP3   OH233700   2.760   6.527  15.706 -0.1136  0.5206  0.3550
 4070TIP3    H133701   2.795   6.606  15.746 -0.4251  0.9450 -0.2129
 4070TIP3    H233702   2.709   6.558  15.632  1.9167 -0.3585 -1.4669
 4071TIP3   OH233703   0.477   3.469  13.288 -0.2134 -0.4023 -0.0463
 4071TIP3    H133704   0.504   3.378  13.281 -0.6785 -0.6411  1.1898
 4071TIP3    H233705   0.508   3.496  13.375  0.5311  0.8195 -0.6732
 4072TIP3   OH233706   4.038   5.401  14.276 -0.1327  0.4594 -0.2538
 4072TIP3    H133707   4.076   5.486  14.254 -3.3313  2.8250  2.8087
 4072TIP3    H233708   4.082   5.374  14.356 -1.2240  0.6978  0.4346
 4073TIP3   OH233709   0.497   4.431  14.135  0.0009  0.5389  0.1184
 4073TIP3    H133710   0.418   4.410  14.084 -0.7538  2.4444  0.4829
 4073TIP3    H233711   0.529   4.512  14.097  2.8394 -1.1285 -1.1891
 4074TIP3   OH233712   0.180   1.414   6.418 -0.1761  0.4572  0.2570
 4074TIP3    H133713   0.128   1.384   6.492  0.8074  0.6144  1.0255
 4074TIP3    H233714   0.268   1.428   6.455  0.9567 -1.7945 -1.4273
 4075TIP3   OH233715   1.466   2.933   2.532 -0.1154  0.6076 -0.3728
 4075TIP3    H133716   1.496   2.894   2.614 -1.6063 -0.2962 -0.2434
 4075TIP3    H233717   1.485   2.867   2.465 -2.8101 -0.4693 -0.1275
 4076TIP3   OH233718   1.521   4.546   3.250 -0.0093  0.0506 -0.0712
 4076TIP3    H133719   1.594   4.549   3.187 -0.1280  0.3156 -0.1976
 4076TIP3    H233720   1.468   4.472   3.221 -0.4683  0.6343 -0.7345
 4077TIP3   OH233721   1.883   2.832  11.892  0.2745 -0.5998 -0.3593
 4077TIP3    H133722   1.885   2.791  11.806 -1.9457 -0.4665 -0.5080
 4077TIP3    H233723   1.848   2.920  11.877 -0.2775 -0.6224  0.6821
 4078TIP3   OH233724   1.756   2.869  15.302  0.5390  0.1163 -0.1438
 4078TIP3    H133725   1.801   2.911  15.375 -0.6787  1.1524  0.0408
 4078TIP3    H233726   1.742   2.941  15.239  0.5078 -0.5154 -0.8655
 4079TIP3   OH233727   6.479   0.641   6.694  0.1909 -1.0621  0.2575
 4079TIP3    H133728   6.522   0.559   6.672 -0.6445 -1.8451  1.4566
 4079TIP3    H233729   6.415   0.617   6.761 -1.0949  0.3255 -0.4556
 4080TIP3   OH233730   3.155   5.271   3.090  0.1555  0.1065  0.1637
 4080TIP3    H133731   3.144   5.367   3.089  1.1359  0.2394  1.2153
 4080TIP3    H233732   3.127   5.243   3.003 -1.3492  1.2177  0.2624
 4081TIP3   OH233733   2.916   4.889  16.452  0.5321  0.3843  0.3506
 4081TIP3    H133734   2.958   4.915  16.534  0.4416  0.2584  0.4398
 4081TIP3    H233735   2.975   4.920  16.383  1.7471 -1.4702  0.5092
 4082TIP3   OH233736   4.150   1.363  11.452 -0.2150  0.3580  0.0074
 4082TIP3    H133737   4.135   1.345  11.359 -0.1524  2.1945 -0.3719
 4082TIP3    H233738   4.169   1.456  11.455 -1.1554  0.4961  1.9945
 4083TIP3   OH233739   5.652   1.111  11.440  0.4870  0.1759 -0.1218
 4083TIP3    H133740   5.585   1.145  11.380 -0.9511 -1.5396  0.4475
 4083TIP3    H233741   5.612   1.119  11.527  0.4478 -2.0734  0.1026
 4084TIP3   OH233742   4.805   5.678   0.306  0.6729  0.3087 -0.0893
 4084TIP3    H133743   4.734   5.675   0.242  2.0901  0.6795 -1.7031
 4084TIP3    H233744   4.836   5.588   0.313  0.8412  0.3527 -0.2806
 4085TIP3   OH233745   2.413   5.986  16.075 -0.0189  0.6607 -0.8629
 4085TIP3    H133746   2.409   6.002  15.981 -0.9267  1.6062 -0.6756
 4085TIP3    H233747   2.331   6.022  16.109  0.4453  0.6195  0.3322
 4086TIP3   OH233748   0.773   5.915   4.905 -0.1596 -0.3039  0.0587
 4086TIP3    H133749   0.743   5.918   4.996 -0.9005 -1.5303 -0.1337
 4086TIP3    H233750   0.816   5.830   4.897 -1.0863 -0.6856 -1.0318
 4087TIP3   OH233751   6.308   6.147  13.823 -0.6206  0.2065 -0.3041
 4087TIP3    H133752   6.326   6.072  13.767 -0.5292  0.8952 -1.1978
 4087TIP3    H233753   6.269   6.109  13.902  0.4163 -0.8731 -0.2997
 4088TIP3   OH233754   5.318   0.530   4.898 -0.1534 -0.7440 -0.1805
 4088TIP3    H133755   5.404   0.523   4.858  0.6295  0.6018  1.2010
 4088TIP3    H233756   5.323   0.474   4.976 -0.4080 -0.3856  0.0967
 4089TIP3   OH233757   0.233   5.639  16.185  0.1134 -0.4735 -0.6997
 4089TIP3    H133758   0.234   5.545  16.202 -0.2020 -0.6865 -1.7685
 4089TIP3    H233759   0.309   5.655  16.129 -0.5563 -0.3280 -1.5986
 4090TIP3   OH233760   3.164   6.558  12.604  0.0946 -0.5105  0.8530
 4090TIP3    H133761   3.195   6.642  12.569  0.6213 -0.9996  0.1158
 4090TIP3    H233762   3.166   6.569  12.699  0.3225  0.2531  0.7638
 4091TIP3   OH233763   5.748   6.457   1.226 -0.1492 -0.4119 -0.2088
 4091TIP3    H133764   5.685   6.472   1.155  0.2590 -1.0879 -0.7289
 4091TIP3    H233765   5.762   6.543   1.264 -2.4252 -0.4572  0.8200
 4092TIP3   OH233766   6.590   5.682  14.128  0.4180 -0.2151  0.0754
 4092TIP3    H133767   6.508   5.691  14.079  1.4222  0.2045 -1.5474
 4092TIP3    H233768   6.593   5.761  14.183 -2.1654 -2.1063  3.1080
 4093TIP3   OH233769   2.212   0.499  16.257  0.3045  0.9896 -0.2449
 4093TIP3    H133770   2.119   0.507  16.274  0.4565 -0.7175  1.5618
 4093TIP3    H233771   2.246   0.589  16.264 -1.0023  1.4561  0.2255
 4094TIP3   OH233772   3.431   5.108  13.208  0.2662 -0.1391 -0.5595
 4094TIP3    H133773   3.366   5.062  13.155 -0.8059  1.2396 -0.4823
 4094TIP3    H233774   3.509   5.054  13.203 -1.8884 -3.8015  2.3415
 4095TIP3   OH233775   1.786   0.292  11.661  0.0803 -0.6234  0.1014
 4095TIP3    H133776   1.704   0.246  11.645  0.9667 -2.6675  1.2441
 4095TIP3    H233777   1.779   0.373  11.610 -2.3444 -1.0916 -0.3383
 4096TIP3   OH233778   1.236   1.739   3.064  0.6088 -0.3724 -1.1667
 4096TIP3    H133779   1.311   1.704   3.112 -0.0285 -2.3003 -1.5198
 4096TIP3    H233780   1.259   1.830   3.046  2.0039 -0.3878  0.4334
 4097TIP3   OH233781   3.229   5.467   2.769  0.3839 -0.2767 -0.0695
 4097TIP3    H133782   3.166   5.484   2.699  1.1983  1.8586 -0.2917
 4097TIP3    H233783   3.178   5.418   2.834 -0.9061 -0.5476 -1.2513
 4098TIP3   OH233784   4.869   0.146   3.984 -0.1718 -0.4516 -0.1497
 4098TIP3    H133785   4.791   0.178   3.939  1.3718  2.1965 -1.0094
 4098TIP3    H233786   4.859   0.175   4.074 -0.8978 -1.4882  0.1196
 4099TIP3   OH233787   3.118   5.072   4.738 -0.2066  0.5625 -0.1327
 4099TIP3    H133788   3.051   5.102   4.799 -0.0319  1.7969 -0.5422
 4099TIP3    H233789   3.171   5.149   4.720  0.5645 -0.1069 -0.8026
 4100TIP3   OH233790   0.929   2.316  12.348 -0.0258  0.0619 -0.1069
 4100TIP3    H133791   0.938   2.394  12.294 -0.6112 -0.5463 -1.0996
 4100TIP3    H233792   0.835   2.299  12.352  0.0365 -0.1253  0.7882
 4101TIP3   OH233793   5.194   3.979   1.890  0.3511 -0.2413  0.3455
 4101TIP3    H133794   5.203   3.885   1.905  0.2189 -0.2100  0.6094
 4101TIP3    H233795   5.217   4.019   1.973 -1.2918 -0.1149  0.7629
 4102TIP3   OH233796   4.734   0.517   2.172 -0.0445 -0.0729  0.4974
 4102TIP3    H133797   4.801   0.515   2.103 -0.5473  0.4766 -0.0121
 4102TIP3    H233798   4.746   0.435   2.219  1.6867  0.4759  1.0742
 4103TIP3   OH233799   4.411   1.709  14.585 -0.3192 -0.2736  0.1312
 4103TIP3    H133800   4.429   1.802  14.573 -1.6633  0.2455  1.8025
 4103TIP3    H233801   4.449   1.666  14.508  0.0621  1.6809 -0.7964
 4104TIP3   OH233802   4.059   2.192   2.932 -0.3626  0.5035 -0.2775
 4104TIP3    H133803   3.984   2.215   2.877 -1.5401 -0.1324  1.0591
 4104TIP3    H233804   4.023   2.135   3.000  1.5359 -0.7800 -0.3116
 4105TIP3   OH233805   0.262   5.678  14.738  0.1700  0.2610  0.0357
 4105TIP3    H133806   0.266   5.730  14.819  0.6416 -2.2778  1.7097
 4105TIP3    H233807   0.170   5.652  14.730 -0.2267  1.9917 -1.2493
 4106TIP3   OH233808   3.291   2.466   0.374  0.0851 -0.1851 -0.4463
 4106TIP3    H133809   3.208   2.450   0.328  0.0712  0.7669 -0.7697
 4106TIP3    H233810   3.265   2.508   0.456  0.0829 -2.2506  0.6383
 4107TIP3   OH233811   5.585   1.970   6.203 -0.0163  0.0881 -0.4388
 4107TIP3    H133812   5.558   2.061   6.192  0.2145  0.0615 -1.2597
 4107TIP3    H233813   5.524   1.935   6.267  0.6292  1.1471  0.7855
 4108TIP3   OH233814   1.772   5.716   3.813 -0.0275  0.2064 -0.3269
 4108TIP3    H133815   1.823   5.643   3.779  0.9563  0.0218  1.5058
 4108TIP3    H233816   1.784   5.786   3.749  1.4178 -0.2840 -0.6019
 4109TIP3   OH233817   6.266   4.320   4.638  0.0072  0.6413  0.2150
 4109TIP3    H133818   6.240   4.406   4.604  1.0625  0.9891  0.2675
 4109TIP3    H233819   6.183   4.272   4.647 -0.5512  1.4985 -0.2191
 4110TIP3   OH233820   6.237   0.861   3.597 -0.3751  0.2834  0.0453
 4110TIP3    H133821   6.277   0.867   3.684 -0.4755 -0.3336  0.1377
 4110TIP3    H233822   6.311   0.852   3.537 -0.2394  2.1408 -0.0715
 4111TIP3   OH233823   4.976   2.816  11.844  0.0403 -0.2688  0.6091
 4111TIP3    H133824   5.038   2.829  11.773  0.6381  0.1897  1.1950
 4111TIP3    H233825   4.890   2.828  11.805  0.4499  2.2834  0.4209
 4112TIP3   OH233826   6.131   4.585  12.240 -0.2135 -0.0121  0.2873
 4112TIP3    H133827   6.208   4.573  12.295  0.3551  1.9382 -0.0495
 4112TIP3    H233828   6.161   4.563  12.152 -0.4216 -0.6169  0.3666
 4113TIP3   OH233829   5.774   3.704  15.559  0.3745 -0.0337  0.0477
 4113TIP3    H133830   5.754   3.674  15.648 -3.3659  1.8629 -0.0791
 4113TIP3    H233831   5.777   3.624  15.507  2.2339 -1.1365  1.7845
 4114TIP3   OH233832   6.614   0.216   5.260  0.1656 -1.3464  0.2096
 4114TIP3    H133833   6.559   0.148   5.299 -1.3396 -0.0831  0.3431
 4114TIP3    H233834   6.675   0.168   5.203 -0.8063 -2.8073  0.3724
 4115TIP3   OH233835   2.190   2.835  11.170 -0.0061  0.1314 -0.2336
 4115TIP3    H133836   2.127   2.842  11.098  0.8415  0.8069 -0.9232
 4115TIP3    H233837   2.261   2.781  11.134 -0.8518 -1.8575  1.0187
 4116TIP3   OH233838   6.670   5.991  11.520 -0.1127 -0.2554  0.3888
 4116TIP3    H133839   6.635   5.908  11.551 -0.0964 -0.2806  0.3400
 4116TIP3    H233840   6.746   5.967  11.466 -1.1786 -0.3348 -1.1274
 4117TIP3   OH233841   1.886   2.810   0.632 -0.6295 -0.0674  0.0435
 4117TIP3    H133842   1.981   2.804   0.642 -0.2161  1.4314 -2.4290
 4117TIP3    H233843   1.861   2.724   0.597  0.0687  0.0698 -0.8370
 4118TIP3   OH233844   4.701   5.358  15.642 -0.0802 -0.6455 -0.3646
 4118TIP3    H133845   4.650   5.279  15.628 -0.6049 -0.0873 -1.6024
 4118TIP3    H233846   4.659   5.424  15.587  1.3907  0.0541 -0.6627
 4119TIP3   OH233847   0.511   5.763  14.135  0.4700 -0.1567  0.4265
 4119TIP3    H133848   0.565   5.827  14.090 -0.8504  0.1401 -0.7883
 4119TIP3    H233849   0.439   5.814  14.172 -0.1006 -0.7990  0.2228
 4120TIP3   OH233850   2.372   3.632   5.694  0.3479 -0.0081  0.4390
 4120TIP3    H133851   2.329   3.681   5.623  0.9329 -0.8199 -0.4845
 4120TIP3    H233852   2.342   3.676   5.774 -2.4094 -0.7157 -0.1404
 4121TIP3   OH233853   2.121   6.394   0.145 -0.2424 -0.1198 -0.3729
 4121TIP3    H133854   2.210   6.360   0.144 -0.2276 -0.1524  0.9598
 4121TIP3    H233855   2.131   6.488   0.160 -0.4279 -0.1359 -0.1376
 4122TIP3   OH233856   5.607   1.187   3.478 -0.2041 -0.0929  0.2674
 4122TIP3    H133857   5.632   1.168   3.568  1.3264  1.6378  0.2391
 4122TIP3    H233858   5.539   1.254   3.486  1.2740  1.4593  0.1103
 4123TIP3   OH233859   0.883   1.835  10.580 -0.0207  0.3160 -0.0149
 4123TIP3    H133860   0.840   1.752  10.558  0.0414  0.7655 -1.9444
 4123TIP3    H233861   0.972   1.825  10.546  0.1235  0.9791  0.1648
 4124TIP3   OH233862   3.474   2.204   2.719 -0.0921  0.1203 -0.1218
 4124TIP3    H133863   3.474   2.299   2.731  0.8799 -0.0582  1.2747
 4124TIP3    H233864   3.431   2.192   2.634 -1.0788  1.7466  0.1078
 4125TIP3   OH233865   6.483   3.132   1.945  0.5231 -0.7070  0.3395
 4125TIP3    H133866   6.572   3.100   1.931  0.0562 -1.7860 -0.2037
 4125TIP3    H233867   6.429   3.080   1.886 -0.4519  0.0775  0.5210
 4126TIP3   OH233868   0.078   3.367  11.468  0.6304 -0.0053 -0.0156
 4126TIP3    H133869  -0.017   3.373  11.475  0.7808  0.9565  1.2533
 4126TIP3    H233870   0.096   3.375  11.374 -0.5445 -0.3611 -0.2727
 4127TIP3   OH233871   1.811   0.643   3.684 -0.6791 -0.4295  0.2191
 4127TIP3    H133872   1.825   0.714   3.746 -1.1879 -1.3398  1.3936
 4127TIP3    H233873   1.872   0.662   3.612  0.8124 -0.0343  1.5519
 4128TIP3   OH233874   2.662   6.481  15.103 -0.3106  0.0497  0.6818
 4128TIP3    H133875   2.708   6.415  15.155  0.4169 -0.5261 -0.6853
 4128TIP3    H233876   2.626   6.432  15.029  0.0151  1.1475 -0.2065
 4129TIP3   OH233877   0.487   2.034  12.788  0.1053  0.4430  0.3183
 4129TIP3    H133878   0.537   2.075  12.858 -0.0169 -0.1434  0.7536
 4129TIP3    H233879   0.414   1.991  12.833  0.1988 -0.1986 -0.1385
 4130TIP3   OH233880   0.330   2.156  15.738 -0.3909  0.5181  0.0662
 4130TIP3    H133881   0.318   2.125  15.648  0.8980  1.0154 -0.2755
 4130TIP3    H233882   0.336   2.076  15.790  1.8699  0.1693 -0.6838
 4131TIP3   OH233883   3.779   2.594  14.849  0.2372  0.3235 -0.1073
 4131TIP3    H133884   3.742   2.564  14.766  0.9902 -0.9943  0.0256
 4131TIP3    H233885   3.820   2.678  14.827 -0.7793  0.6603 -0.7544
 4132TIP3   OH233886   2.580   6.705  15.567  0.5620 -0.0198  0.1138
 4132TIP3    H133887   2.536   6.782  15.531 -0.2155 -0.9060 -0.8814
 4132TIP3    H233888   2.545   6.697  15.656 -1.8047 -1.0423 -0.8519
 4133TIP3   OH233889   0.970   1.413   4.211 -0.4357  1.3626 -0.0115
 4133TIP3    H133890   0.989   1.466   4.133 -1.2775  0.0912 -1.1138
 4133TIP3    H233891   0.995   1.324   4.186  1.5898  1.3299  2.0564
 4134TIP3   OH233892   0.189   5.664  13.275 -0.1611  0.6878  0.0462
 4134TIP3    H133893   0.162   5.592  13.218 -0.6976  0.5824  0.4303
 4134TIP3    H233894   0.254   5.625  13.334  0.0389  0.6795 -0.1811
 4135TIP3   OH233895   1.854   0.883   3.853  0.4571  0.2696 -0.1737
 4135TIP3    H133896   1.766   0.857   3.877 -0.0064  0.4704 -1.6123
 4135TIP3    H233897   1.873   0.958   3.910 -0.2704  0.1830  0.1879
 4136TIP3   OH233898   3.213   3.527   3.473 -0.0527 -0.3109  0.1115
 4136TIP3    H133899   3.221   3.604   3.416  2.8485 -2.6624 -2.8570
 4136TIP3    H233900   3.303   3.505   3.496 -0.7017 -3.8022 -0.4755
 4137TIP3   OH233901   1.842   0.133   5.169  0.8121  0.2623  0.8455
 4137TIP3    H133902   1.929   0.129   5.210  1.0477  1.1900  0.4686
 4137TIP3    H233903   1.793   0.062   5.209  2.5683 -1.9633 -0.8820
 4138TIP3   OH233904   2.943   5.980  16.969  0.0584 -0.0704  0.5429
 4138TIP3    H133905   2.996   5.914  16.924  0.8277 -0.0799  1.4503
 4138TIP3    H233906   2.925   5.943  17.055 -0.2077  0.5442  0.7592
 4139TIP3   OH233907   5.148   4.318   4.223 -0.4488  0.4297 -0.3211
 4139TIP3    H133908   5.209   4.258   4.181  0.1954  1.5927 -1.0560
 4139TIP3    H233909   5.065   4.303   4.177  0.1847  1.4940 -1.8240
 4140TIP3   OH233910   6.504   4.144  13.652  0.1138 -0.1989  0.2036
 4140TIP3    H133911   6.557   4.223  13.659  0.7696 -0.7771  2.4893
 4140TIP3    H233912   6.518   4.113  13.563  1.8909  0.8643  0.0860
 4141TIP3   OH233913   3.720   4.306   4.347 -0.0851  0.7339  0.5244
 4141TIP3    H133914   3.655   4.238   4.328 -0.8341  1.3856  0.7196
 4141TIP3    H233915   3.726   4.357   4.266  0.9345  0.0584  0.1751
 4142TIP3   OH233916   1.575   2.313  15.631 -0.0637  0.1033  0.1527
 4142TIP3    H133917   1.572   2.223  15.664 -2.1553  0.0148 -0.2156
 4142TIP3    H233918   1.619   2.305  15.546  3.2810  0.0190  1.8062
 4143TIP3   OH233919   4.257   6.172   6.287  0.2962  0.3197  0.4842
 4143TIP3    H133920   4.322   6.146   6.222 -1.1188 -1.0671 -0.4265
 4143TIP3    H233921   4.296   6.148   6.371  0.8218 -0.8259 -0.0699
 4144TIP3   OH233922   0.578   4.230   3.542 -0.6653  0.2058 -0.2237
 4144TIP3    H133923   0.525   4.152   3.526  0.5076 -0.4561 -0.9731
 4144TIP3    H233924   0.591   4.231   3.637 -0.3624 -0.7486 -0.2424
 4145TIP3   OH233925   5.378   0.159   5.975  0.3136  0.1865  0.0546
 4145TIP3    H133926   5.426   0.231   6.017  0.3318 -0.1677  0.6440
 4145TIP3    H233927   5.339   0.111   6.048 -0.9558  0.4817 -0.4183
 4146TIP3   OH233928   2.012   2.438  11.592  0.4223  0.3871 -0.5802
 4146TIP3    H133929   2.093   2.463  11.548  0.3946  0.2912 -0.6847
 4146TIP3    H233930   2.003   2.345  11.574  0.3447  0.3747 -0.4768
 4147TIP3   OH233931   0.085   1.929   1.839  0.1231  0.1616  0.2856
 4147TIP3    H133932   0.166   1.953   1.884 -0.0465 -1.6293  1.6097
 4147TIP3    H233933   0.016   1.956   1.899 -0.2071  0.3552 -0.1801
 4148TIP3   OH233934   0.423   4.712   5.475  0.2757 -0.0246 -0.0015
 4148TIP3    H133935   0.480   4.744   5.405 -0.2764 -0.2170 -0.5511
 4148TIP3    H233936   0.377   4.790   5.506 -0.3974 -0.1299 -0.7141
 4149TIP3   OH233937   4.515   6.174   1.349  0.2915 -0.0851  0.0627
 4149TIP3    H133938   4.554   6.261   1.348 -1.2735  0.6311 -0.5978
 4149TIP3    H233939   4.590   6.114   1.344  1.3277  1.2352 -0.7369
 4150TIP3   OH233940   6.270   5.762  11.359  0.2087 -0.6422  0.1974
 4150TIP3    H133941   6.288   5.702  11.431 -0.5107  0.0776  1.0028
 4150TIP3    H233942   6.174   5.772  11.360  0.2363 -0.3017 -0.5789
 4151TIP3   OH233943   4.270   3.258  16.129  0.3150  0.0807 -0.3035
 4151TIP3    H133944   4.210   3.184  16.131 -0.2907  0.5865  0.8649
 4151TIP3    H233945   4.357   3.219  16.129  0.0161 -0.6235  1.6304
 4152TIP3   OH233946   6.216   0.982   2.568 -0.2763 -0.4909 -0.5501
 4152TIP3    H133947   6.267   1.045   2.620 -0.7988 -0.1800 -0.4110
 4152TIP3    H233948   6.229   1.010   2.478  1.4357 -1.6152 -0.6870
 4153TIP3   OH233949   2.805   5.232  14.996  0.6304  0.5310  0.4581
 4153TIP3    H133950   2.746   5.292  14.950  0.1155 -0.1566  0.2204
 4153TIP3    H233951   2.754   5.201  15.071  1.1150  0.8662  0.9321
 4154TIP3   OH233952   1.719   4.947  14.062  0.5050 -0.5425 -0.4898
 4154TIP3    H133953   1.786   5.014  14.052  1.1763 -0.8627  1.5362
 4154TIP3    H233954   1.690   4.956  14.153 -1.2268 -1.3036 -0.9537
 4155TIP3   OH233955   2.169   6.637  12.342 -0.0072  0.8986 -0.4209
 4155TIP3    H133956   2.153   6.694  12.267  1.3169 -0.8214 -2.0479
 4155TIP3    H233957   2.173   6.548  12.305  0.7533  0.0229  1.6541
 4156TIP3   OH233958   6.022   2.174  12.384 -0.2530 -0.9084 -0.5230
 4156TIP3    H133959   6.064   2.134  12.461 -0.1429  0.8182  0.3404
 4156TIP3    H233960   5.930   2.184  12.409 -0.3660 -1.0207 -0.8963
 4157TIP3   OH233961   4.573   1.981   1.627  0.4207 -0.1648 -0.0302
 4157TIP3    H133962   4.645   1.996   1.688 -0.9381 -0.3569  1.6315
 4157TIP3    H233963   4.613   1.991   1.541  1.8621  2.4486  0.8978
 4158TIP3   OH233964   1.335   5.699  14.488  0.1962 -0.1687  0.4633
 4158TIP3    H133965   1.410   5.732  14.439 -1.8996  1.3283 -1.8775
 4158TIP3    H233966   1.313   5.769  14.549  0.5543 -0.5233  1.0063
 4159TIP3   OH233967   0.264   0.951   3.062  0.7099 -0.2808 -0.2812
 4159TIP3    H133968   0.351   0.943   3.023 -0.2773 -1.8917 -2.2243
 4159TIP3    H233969   0.255   1.045   3.080  2.9824 -0.1482  0.2877
 4160TIP3   OH233970   3.871   2.330   1.231  0.2869 -0.2180 -0.3572
 4160TIP3    H133971   3.867   2.235   1.244 -1.2852 -0.1548 -0.3587
 4160TIP3    H233972   3.859   2.367   1.318  0.3428 -0.0008 -0.4413
 4161TIP3   OH233973   5.082   5.523  14.702 -1.0003  0.1684  0.1175
 4161TIP3    H133974   5.115   5.611  14.721  0.1070 -0.4229  1.0793
 4161TIP3    H233975   5.087   5.478  14.787 -1.1664 -0.9293 -0.4565
 4162TIP3   OH233976   5.525   3.655   6.240  0.1160  0.2665 -0.0725
 4162TIP3    H133977   5.580   3.590   6.283 -1.3154 -1.4084 -0.7127
 4162TIP3    H233978   5.525   3.730   6.300  1.9721 -0.2030  0.5617
 4163TIP3   OH233979   3.283   4.602  12.968  0.9827  0.0574  0.1623
 4163TIP3    H133980   3.318   4.514  12.956  1.1799  0.3317 -1.3587
 4163TIP3    H233981   3.325   4.655  12.900 -1.2314  0.7162 -0.7421
 4164TIP3   OH233982   5.945   4.200   0.638  0.3894  1.2073 -0.0547
 4164TIP3    H133983   5.907   4.120   0.675  1.4679  0.5970 -0.2174
 4164TIP3    H233984   5.904   4.209   0.552  0.5864  0.5735 -0.2197
 4165TIP3   OH233985   2.192   0.171   3.727  0.2729  0.2140  0.2050
 4165TIP3    H133986   2.170   0.088   3.769 -0.1351  0.9440  1.4191
 4165TIP3    H233987   2.284   0.160   3.702  0.0482 -0.8423 -0.2216
 4166TIP3   OH233988   1.454   6.209  11.885 -0.4724 -0.2551  0.0355
 4166TIP3    H133989   1.468   6.209  11.790 -1.9773 -1.6534 -0.2145
 4166TIP3    H233990   1.466   6.118  11.911 -1.7103 -0.1799  0.9177
 4167TIP3   OH233991   2.592   2.032   1.702 -0.3751 -0.8949  0.5058
 4167TIP3    H133992   2.519   1.974   1.679 -0.0743 -0.3057 -2.0486
 4167TIP3    H233993   2.560   2.120   1.681  0.9315 -0.5940 -0.2665
 4168TIP3   OH233994   2.199   3.154  14.788  0.4579 -0.0701 -0.4871
 4168TIP3    H133995   2.226   3.074  14.744  1.3200  0.4365 -0.8953
 4168TIP3    H233996   2.147   3.201  14.723  0.8821  0.2092 -0.6269
 4169TIP3   OH233997   6.155   2.770  17.132  0.1730 -0.5410  0.0368
 4169TIP3    H133998   6.242   2.740  17.108  0.3343 -0.0296 -0.0211
 4169TIP3    H233999   6.128   2.712  17.203 -0.3306 -2.1017 -1.4167
 4170TIP3   OH234000   0.935   6.675   5.157 -0.4853 -0.0667  0.0048
 4170TIP3    H134001   1.014   6.657   5.106 -0.4038  0.3454 -0.0228
 4170TIP3    H234002   0.864   6.665   5.094 -0.4396 -0.2420 -0.0194
 4171TIP3   OH234003   1.555   6.716   2.110  0.0750 -0.0350  0.1622
 4171TIP3    H134004   1.564   6.809   2.089 -1.9958  0.6386  2.0118
 4171TIP3    H234005   1.463   6.707   2.135 -0.0765 -2.8742 -1.2523
 4172TIP3   OH234006   2.852   2.506  10.500  0.6584 -0.2708  0.1670
 4172TIP3    H134007   2.937   2.550  10.490  1.1206 -1.4026 -1.1524
 4172TIP3    H234008   2.798   2.568  10.548  1.8562  0.9932 -0.0809
 4173TIP3   OH234009   6.201   0.003  14.503 -0.2481  0.3676 -0.1370
 4173TIP3    H134010   6.291   0.033  14.515 -0.2154  0.5936 -0.8810
 4173TIP3    H234011   6.209  -0.086  14.469 -0.3099  0.2554  0.1422
 4174TIP3   OH234012   5.012   1.634  14.834 -0.3301 -0.5685  0.7391
 4174TIP3    H134013   5.095   1.680  14.818 -0.9888  0.4701  0.2370
 4174TIP3    H234014   4.963   1.642  14.752 -1.2310 -0.5207  1.2728
 4175TIP3   OH234015   4.022   4.693  14.161  0.5527  0.0517 -0.2757
 4175TIP3    H134016   4.044   4.601  14.150 -1.4084 -0.2979 -1.6389
 4175TIP3    H234017   3.927   4.696  14.149  0.3358  1.9940  1.6051
 4176TIP3   OH234018   4.864   3.882   5.333  0.2761 -0.3629  0.2575
 4176TIP3    H134019   4.944   3.886   5.385  0.7670 -0.3993 -0.4795
 4176TIP3    H234020   4.880   3.942   5.260 -0.8539  0.5663  0.7498
 4177TIP3   OH234021   2.744   3.624   2.023  0.8381 -0.0552 -0.7381
 4177TIP3    H134022   2.819   3.682   2.018 -0.1696  1.1961 -1.6730
 4177TIP3    H234023   2.672   3.680   2.052 -0.1960 -0.7808 -1.8454
 4178TIP3   OH234024   6.759   2.880  15.922 -0.5787  0.1866 -0.0882
 4178TIP3    H134025   6.821   2.913  15.858  1.1589  0.0424  1.4865
 4178TIP3    H234026   6.745   2.788  15.898  0.0886  0.1291 -0.2522
 4179TIP3   OH234027   1.023   6.438   5.623  0.6705  0.5674 -0.3626
 4179TIP3    H134028   1.108   6.458   5.663  0.6461 -0.4779  0.2239
 4179TIP3    H234029   1.026   6.480   5.537  2.1721 -0.3379 -0.7566
 4180TIP3   OH234030   1.467   0.497   5.485 -0.2291 -0.2731 -0.4458
 4180TIP3    H134031   1.415   0.474   5.563 -0.1325  0.8778 -0.0349
 4180TIP3    H234032   1.493   0.588   5.500  0.9587 -0.4842 -1.1816
 4181TIP3   OH234033   1.065   6.327   1.222  0.1235 -0.3232 -0.0211
 4181TIP3    H134034   1.097   6.417   1.215  0.7920 -0.7174 -2.1764
 4181TIP3    H234035   1.007   6.316   1.148  1.0155 -2.0599 -0.4874
 4182TIP3   OH234036   5.496   2.587   5.825 -0.0343  0.3733  0.3223
 4182TIP3    H134037   5.541   2.653   5.773 -0.6612 -0.9466 -1.9851
 4182TIP3    H234038   5.467   2.633   5.904  2.4060  2.0243  0.2867
 4183TIP3   OH234039   3.174   0.476   6.455 -0.0458 -0.2574 -0.1694
 4183TIP3    H134040   3.219   0.425   6.387 -0.2545 -1.2333  0.4158
 4183TIP3    H234041   3.172   0.565   6.420  3.0405 -0.0282  0.1403
 4184TIP3   OH234042   0.440   3.600  17.137 -0.3757 -0.1747 -0.4593
 4184TIP3    H134043   0.460   3.693  17.150  0.9588 -0.5571  0.3351
 4184TIP3    H234044   0.393   3.597  17.054 -1.0122  1.2902 -0.1798
 4185TIP3   OH234045   4.897   3.998  15.308  0.5502 -0.6074 -0.4115
 4185TIP3    H134046   4.939   3.981  15.224  0.6530 -2.1844 -0.0504
 4185TIP3    H234047   4.803   3.992  15.290  0.5802 -1.3882 -0.3322
 4186TIP3   OH234048   1.329   0.693   1.847  0.0570 -0.0344 -0.0412
 4186TIP3    H134049   1.386   0.631   1.893  0.1905  0.0848 -0.0473
 4186TIP3    H234050   1.328   0.771   1.903  0.0790  0.0458 -0.1528
 4187TIP3   OH234051   6.350   1.376   4.934  0.1385 -0.0249 -0.5418
 4187TIP3    H134052   6.427   1.433   4.939  0.1046 -0.0353  0.2201
 4187TIP3    H234053   6.317   1.373   5.024  0.8434 -2.2087 -0.3131
 4188TIP3   OH234054   2.928   0.855  12.434  0.2386 -0.1981 -0.2434
 4188TIP3    H134055   2.956   0.821  12.519 -0.8095  0.7932  0.5143
 4188TIP3    H234056   3.010   0.869  12.386  0.7424 -3.2673 -0.4164
 4189TIP3   OH234057   5.449   0.919   3.565  0.3869 -0.1819 -0.1486
 4189TIP3    H134058   5.536   0.885   3.544  1.2909  0.1165  2.7972
 4189TIP3    H234059   5.419   0.863   3.638 -1.6853  0.0345 -0.7967
 4190TIP3   OH234060   3.953   2.985   3.047  0.1315 -0.2024 -0.3372
 4190TIP3    H134061   3.990   2.903   3.016 -1.7412 -0.4627 -1.9958
 4190TIP3    H234062   3.888   2.959   3.113 -0.9245 -0.1147 -1.3299
 4191TIP3   OH234063   2.871   5.715  16.033  0.1858 -0.1986 -0.3825
 4191TIP3    H134064   2.845   5.801  16.065  1.8123  0.2890 -0.3167
 4191TIP3    H234065   2.872   5.725  15.938  1.6891  0.2679 -0.3291
 4192TIP3   OH234066   2.434   1.867  11.596 -0.2829 -0.6962  0.1736
 4192TIP3    H134067   2.379   1.856  11.518  0.0777 -2.9504  0.1960
 4192TIP3    H234068   2.375   1.903  11.662 -0.5559  1.4055 -1.1726
 4193TIP3   OH234069   2.824   5.259  16.989  0.1744  0.1341  0.1461
 4193TIP3    H134070   2.881   5.268  17.065 -0.3195  1.6479  0.3542
 4193TIP3    H234071   2.875   5.208  16.926  1.5688  1.0714  0.5057
 4194TIP3   OH234072   2.068   0.348   2.000  0.6470 -0.2273 -0.1494
 4194TIP3    H134073   2.090   0.439   1.981 -0.3028  0.5755  2.3396
 4194TIP3    H234074   1.972   0.345   1.996  0.6840 -1.1791 -0.5017
 4195TIP3   OH234075   5.959   5.557  12.914  0.1064  0.3704 -0.0983
 4195TIP3    H134076   5.970   5.464  12.894  1.3145  0.1772  1.3665
 4195TIP3    H234077   6.045   5.585  12.945 -0.1881  2.0496 -0.7616
 4196TIP3   OH234078   5.554   1.029   1.602 -0.6029 -0.0441  0.0442
 4196TIP3    H134079   5.636   1.077   1.604 -2.2249  2.7870  0.2114
 4196TIP3    H234080   5.503   1.070   1.532 -2.0733 -1.4317  0.2725
 4197TIP3   OH234081   2.592   6.043   5.344 -0.4073 -0.0812 -0.1993
 4197TIP3    H134082   2.498   6.034   5.326 -0.2522  1.0894 -1.6589
 4197TIP3    H234083   2.629   6.078   5.263  1.0236  1.1922  0.9843
 4198TIP3   OH234084   2.679   2.891  12.365 -0.1399 -0.1780  0.6595
 4198TIP3    H134085   2.613   2.822  12.355  0.6137 -0.8084  0.0111
 4198TIP3    H234086   2.648   2.962  12.309 -1.8330  0.7142  2.6691
 4199TIP3   OH234087   3.749   2.380  13.548 -0.0789 -0.1979 -0.7129
 4199TIP3    H134088   3.658   2.382  13.577  1.1527 -0.9895  3.6261
 4199TIP3    H234089   3.772   2.287  13.549  1.9209  0.2527  2.4536
 4200TIP3   OH234090   3.008   6.613   2.447  0.0201 -0.0132  0.4070
 4200TIP3    H134091   3.016   6.571   2.362  0.6991 -2.0092  1.4333
 4200TIP3    H234092   2.948   6.687   2.432 -0.3949 -0.7440 -1.6318
 4201TIP3   OH234093   2.012   1.034   0.786  0.0088 -0.1478  0.5571
 4201TIP3    H134094   1.978   1.032   0.696  0.4205  1.3190  0.3512
 4201TIP3    H234095   1.972   0.958   0.828 -0.3656 -0.7282 -0.8038
 4202TIP3   OH234096   2.497   0.993  12.080  0.6714  0.5802  0.2174
 4202TIP3    H134097   2.472   0.936  12.008  1.6922 -2.5825  2.2371
 4202TIP3    H234098   2.433   0.973  12.149  2.0287  0.6339  1.5239
 4203TIP3   OH234099   1.069   2.365  11.519 -0.0047 -0.2657  0.2098
 4203TIP3    H134100   1.117   2.287  11.493  2.3090  0.7533  1.2800
 4203TIP3    H234101   1.018   2.389  11.441  0.8296 -1.6786 -0.7902
 4204TIP3   OH234102   3.342   2.685  17.002 -0.0566  0.3023  1.0167
 4204TIP3    H134103   3.353   2.606  16.948 -2.1489  1.1511 -0.7170
 4204TIP3    H234104   3.282   2.657  17.072  0.8153 -0.1691  1.5908
 4205TIP3   OH234105   0.015   4.438  11.931  0.2191  0.3881  1.1844
 4205TIP3    H134106   0.103   4.447  11.970  1.1075 -1.2846 -0.3571
 4205TIP3    H234107  -0.043   4.431  12.007  1.2570  2.6062  2.2463
 4206TIP3   OH234108   5.762   6.010   3.535  0.1045  0.3366 -0.1299
 4206TIP3    H134109   5.779   6.097   3.571 -1.2702  0.2258  0.8427
 4206TIP3    H234110   5.754   5.954   3.612 -0.4923 -0.3662 -0.7039
 4207TIP3   OH234111   6.337   6.061  12.926  0.2079  0.1794  0.5092
 4207TIP3    H134112   6.242   6.072  12.933  0.1975  0.3106  0.1821
 4207TIP3    H234113   6.350   6.016  12.843  0.3549 -0.9122  1.1186
 4208TIP3   OH234114   2.310   1.865  13.206 -0.1301 -0.0820  0.4091
 4208TIP3    H134115   2.219   1.837  13.197  0.2365 -1.1811  0.0207
 4208TIP3    H234116   2.304   1.951  13.248 -1.3540 -0.0203  0.1453
 4209TIP3   OH234117   4.883   4.437   5.457  0.3389  0.5306 -0.3746
 4209TIP3    H134118   4.880   4.375   5.530  2.1887  2.4052  1.3649
 4209TIP3    H234119   4.793   4.443   5.427 -0.5887  0.2317  2.2045
 4210TIP3   OH234120   4.054   0.936  17.272  0.2492  0.3723  0.8370
 4210TIP3    H134121   4.049   1.031  17.264  1.7938  0.5350  1.5782
 4210TIP3    H234122   4.119   0.909  17.206 -1.2300 -0.3315 -0.3577
 4211TIP3   OH234123   5.159   0.886   5.550  0.2006  0.0605 -0.8080
 4211TIP3    H134124   5.086   0.889   5.488  0.1583 -1.2910 -0.8415
 4211TIP3    H234125   5.216   0.817   5.515  0.7294  0.0646  0.0528
 4212TIP3   OH234126   5.281   2.627   4.531 -0.4601  0.3984 -0.4558
 4212TIP3    H134127   5.368   2.631   4.493  0.2595  0.4417  1.1429
 4212TIP3    H234128   5.232   2.567   4.475  0.7996 -0.1294 -0.9869
 4213TIP3   OH234129   2.099   1.671  11.862  0.5175  0.2720 -0.2980
 4213TIP3    H134130   2.123   1.595  11.914 -0.7940  1.3954  1.9983
 4213TIP3    H234131   2.143   1.744  11.905  0.6426  1.0130 -1.6627
 4214TIP3   OH234132   2.510   3.417  11.601  0.2299  0.4662 -0.3966
 4214TIP3    H134133   2.588   3.396  11.653  0.5347  1.6715 -0.3627
 4214TIP3    H234134   2.478   3.500  11.637 -0.0806  0.8545 -1.5447
 4215TIP3   OH234135   0.678   2.546  10.720 -0.2403  0.1883 -0.2508
 4215TIP3    H134136   0.622   2.624  10.716 -1.2657 -0.5454 -0.4036
 4215TIP3    H234137   0.687   2.518  10.629  0.8450  0.6224 -0.2838
 4216TIP3   OH234138   2.103   0.317  14.550 -0.2271 -0.0789  0.4939
 4216TIP3    H134139   2.029   0.300  14.492  0.7074 -0.4657 -0.5992
 4216TIP3    H234140   2.180   0.307  14.494  0.6341  0.8277  1.5011
 4217TIP3   OH234141   3.036   0.331   6.640  0.3434  0.4357 -0.0061
 4217TIP3    H134142   3.066   0.241   6.625 -0.2981  0.4555 -1.5083
 4217TIP3    H234143   3.074   0.382   6.568 -0.5895  1.0542 -0.0757
 4218TIP3   OH234144   1.742   6.149   6.386  0.0409  0.6694 -0.2172
 4218TIP3    H134145   1.761   6.055   6.382 -0.0612  0.6802 -1.0340
 4218TIP3    H234146   1.825   6.191   6.365 -0.0671  0.7495 -0.4946
 4219TIP3   OH234147   5.275   3.824  12.778 -0.0486  0.2396  0.3012
 4219TIP3    H134148   5.269   3.919  12.771 -0.9048  0.2229  0.6741
 4219TIP3    H234149   5.315   3.809  12.864 -2.2907  0.2374  1.3785
 4220TIP3   OH234150   3.114   0.877   3.965  0.2627  0.7880 -0.0334
 4220TIP3    H134151   3.206   0.856   3.957  0.0794 -0.4146  0.8872
 4220TIP3    H234152   3.092   0.859   4.057 -1.3797 -1.0229 -0.7428
 4221TIP3   OH234153   4.230   0.890   5.424 -0.7759 -0.4884 -0.0825
 4221TIP3    H134154   4.183   0.944   5.487 -1.3621 -0.1465 -0.7976
 4221TIP3    H234155   4.163   0.859   5.364  0.1380  1.6134 -2.2827
 4222TIP3   OH234156   5.189   2.800  16.906 -0.5054  0.4164  0.7178
 4222TIP3    H134157   5.283   2.794  16.891 -0.6372  0.8218 -0.3411
 4222TIP3    H234158   5.180   2.821  16.999  0.5237  2.0346  0.4722
 4223TIP3   OH234159   3.718   5.427  13.449  0.2291  0.7944  0.2655
 4223TIP3    H134160   3.745   5.505  13.499 -2.5517  0.8288  1.8151
 4223TIP3    H234161   3.717   5.356  13.514 -1.0121  0.3207 -0.2521
 4224TIP3   OH234162   1.616   0.463   4.865 -0.4584 -0.0043 -0.1646
 4224TIP3    H134163   1.675   0.430   4.932  1.7307  0.9465 -1.5962
 4224TIP3    H234164   1.627   0.403   4.791 -1.3263  0.1503 -0.4301
 4225TIP3   OH234165   5.193   6.641   6.023  0.2578  0.3530  0.4488
 4225TIP3    H134166   5.289   6.637   6.031  0.3737 -0.0342 -1.0698
 4225TIP3    H234167   5.162   6.569   6.079  0.9951 -1.4462 -1.4145
 4226TIP3   OH234168   5.001   0.518  11.611 -0.5132 -0.5247  0.6932
 4226TIP3    H134169   5.070   0.585  11.604  0.6157 -1.9294 -2.2447
 4226TIP3    H234170   4.956   0.522  11.527 -2.9105 -0.8886  1.9289
 4227TIP3   OH234171   2.813   6.722   1.622  0.3183  0.1063  0.1240
 4227TIP3    H134172   2.856   6.771   1.693  0.2405 -0.6007  0.6670
 4227TIP3    H234173   2.772   6.789   1.568  1.3632  0.7313  0.0945
 4228TIP3   OH234174   6.099   0.659  17.230  0.2819  0.0526 -0.1410
 4228TIP3    H134175   6.140   0.737  17.193  0.1896 -0.2075 -0.7922
 4228TIP3    H234176   6.007   0.683  17.240  0.2492  0.0176 -0.3621
 4229TIP3   OH234177   0.835   1.977   0.311  0.2600 -0.1700  0.2930
 4229TIP3    H134178   0.799   1.932   0.235  0.2594  0.6879 -0.2228
 4229TIP3    H234179   0.924   1.943   0.320  0.0012 -0.8342  0.3727
 4230TIP3   OH234180   2.426   6.371   0.110 -0.4060  0.2315 -0.0824
 4230TIP3    H134181   2.450   6.334   0.195 -1.6691  0.3038  0.3219
 4230TIP3    H234182   2.494   6.436   0.092 -0.4752  0.6710  1.1823
 4231TIP3   OH234183   2.363   5.543  16.844 -0.6979 -0.0459 -0.2424
 4231TIP3    H134184   2.381   5.597  16.767  0.4878  0.1686  0.1786
 4231TIP3    H234185   2.449   5.524  16.881 -1.2897  0.3846  1.4027
 4232TIP3   OH234186   0.713   4.357   0.395 -0.1248 -0.1491  0.6189
 4232TIP3    H134187   0.633   4.399   0.428  0.6477  1.4602  0.4788
 4232TIP3    H234188   0.739   4.410   0.319  2.0588  0.4189  1.7197
 4233TIP3   OH234189   5.561   2.701  17.093  0.2557 -0.5571  0.5891
 4233TIP3    H134190   5.514   2.621  17.069  0.3138 -0.7239  1.0353
 4233TIP3    H234191   5.525   2.726  17.178  1.5522 -1.1357  1.3124
 4234TIP3   OH234192   5.098   3.660   1.669  0.1102 -0.1913 -0.2630
 4234TIP3    H134193   5.002   3.661   1.672  0.1228 -1.6529  1.1436
 4234TIP3    H234194   5.118   3.625   1.582 -0.6232  0.1526 -0.5809
 4235TIP3   OH234195   3.827   6.746  11.383  0.5973  0.0667  0.2495
 4235TIP3    H134196   3.914   6.782  11.363 -0.0831  0.2573 -2.5803
 4235TIP3    H234197   3.837   6.652  11.372  0.3673  0.1141 -0.3537
 4236TIP3   OH234198   3.186   2.856   5.718  0.3724 -0.3537  0.5159
 4236TIP3    H134199   3.279   2.837   5.723  0.2604 -1.8413 -1.9992
 4236TIP3    H234200   3.159   2.823   5.632 -2.1423  1.4679  0.5225
 4237TIP3   OH234201   6.540   1.326   1.213 -0.0379 -0.2671  0.4246
 4237TIP3    H134202   6.576   1.241   1.236  0.0815  0.1168  1.7031
 4237TIP3    H234203   6.510   1.363   1.296 -1.4049  0.3303 -0.3209
 4238TIP3   OH234204   5.918   2.697   2.297 -0.3194 -0.3269  0.3154
 4238TIP3    H134205   6.005   2.692   2.257  0.3981 -2.3564  2.0503
 4238TIP3    H234206   5.924   2.770   2.359  0.4600 -1.0268  1.0860
 4239TIP3   OH234207   5.761   5.111   4.307 -0.2027  0.2277  0.4646
 4239TIP3    H134208   5.735   5.202   4.320 -0.2034 -0.0965  2.7762
 4239TIP3    H234209   5.680   5.065   4.286 -0.2835  0.6269 -0.1285
 4240TIP3   OH234210   2.139   1.337   4.354  0.0415 -0.3487 -0.0689
 4240TIP3    H134211   2.102   1.249   4.346  1.9429 -1.1785  0.1234
 4240TIP3    H234212   2.065   1.391   4.381 -1.4705 -1.6151 -1.5536
 4241TIP3   OH234213   0.873   4.161  12.491 -0.2355  0.3154  0.1812
 4241TIP3    H134214   0.804   4.095  12.492 -0.3499  0.4519  1.2448
 4241TIP3    H234215   0.841   4.230  12.550  0.9709  0.2096  0.9660
 4242TIP3   OH234216   4.803   2.767   5.998 -0.1044 -0.1497 -0.8742
 4242TIP3    H134217   4.875   2.806   5.950 -0.9248  0.8128 -1.3442
 4242TIP3    H234218   4.823   2.674   6.001  1.6394  0.2421 -0.1472
 4243TIP3   OH234219   6.339   1.339   5.948 -0.1025 -0.0706  0.2552
 4243TIP3    H134220   6.341   1.244   5.936 -0.2680 -0.1852  1.0581
 4243TIP3    H234221   6.424   1.369   5.916  0.4849 -0.6520  1.2245
 4244TIP3   OH234222   0.230   6.086   0.851 -0.8718 -0.1068 -0.0908
 4244TIP3    H134223   0.275   6.170   0.842  1.0347 -1.0469  0.2876
 4244TIP3    H234224   0.159   6.089   0.788 -0.5807  1.6375 -0.3533
 4245TIP3   OH234225   4.639   3.638   0.113 -0.3234 -1.0770 -0.6134
 4245TIP3    H134226   4.562   3.686   0.081 -1.1736  0.8672  4.0562
 4245TIP3    H234227   4.704   3.649   0.043 -2.6519  1.3187 -2.5258
 4246TIP3   OH234228   6.288   6.768  12.861  0.6803  0.6848 -0.3916
 4246TIP3    H134229   6.284   6.674  12.848  0.0158  0.7332 -0.5406
 4246TIP3    H234230   6.364   6.796  12.810  0.2906  0.3652 -1.1502
 4247TIP3   OH234231   4.681   6.554  12.444  0.0767 -0.0507 -0.4457
 4247TIP3    H134232   4.768   6.585  12.472 -0.6604  1.4360  0.2405
 4247TIP3    H234233   4.700   6.482  12.383  1.7694 -0.5839  0.6744
 4248TIP3   OH234234   0.046   5.650  11.648  0.1797  0.0988 -0.5121
 4248TIP3    H134235  -0.049   5.652  11.633 -0.0669  2.0116  1.0013
 4248TIP3    H234236   0.055   5.625  11.740  0.9836  2.7066  0.1705
 4249TIP3   OH234237   1.452   0.337  16.940 -0.0985  1.0137  0.1421
 4249TIP3    H134238   1.525   0.285  16.906 -0.2749  0.4463  0.6045
 4249TIP3    H234239   1.424   0.391  16.867  1.0468  1.5364  0.0750
 4250TIP3   OH234240   6.340   1.726  13.230 -0.4907 -0.1352 -0.7793
 4250TIP3    H134241   6.303   1.653  13.181 -2.6660  0.6306 -0.3299
 4250TIP3    H234242   6.398   1.685  13.295 -2.6258 -1.5790  0.2873
 4251TIP3   OH234243   4.408   1.333   1.883  0.0539  0.0267 -0.3117
 4251TIP3    H134244   4.445   1.381   1.957  0.9919 -1.5165  0.2566
 4251TIP3    H234245   4.476   1.335   1.816 -1.3670  2.6902 -1.7293
 4252TIP3   OH234246   6.229   4.522  13.151  0.5967  0.0897 -0.0676
 4252TIP3    H134247   6.141   4.522  13.113 -0.9595 -0.5784  3.4273
 4252TIP3    H234248   6.260   4.433  13.139  0.6015  0.1751 -0.7654
 4253TIP3   OH234249   4.915   1.889  16.864 -0.3972 -0.8471  0.4476
 4253TIP3    H134250   5.009   1.876  16.850 -0.2780 -0.4554  0.9049
 4253TIP3    H234251   4.877   1.803  16.845  0.2128 -1.4157  1.6812
 4254TIP3   OH234252   3.255   0.815   1.819 -0.6320  0.3800  0.5047
 4254TIP3    H134253   3.189   0.878   1.849 -0.2880  0.2867  1.4656
 4254TIP3    H234254   3.225   0.731   1.853 -0.9513  0.0549 -0.5598
 4255TIP3   OH234255   3.295   4.066  13.096 -0.7977  0.2915 -0.0688
 4255TIP3    H134256   3.267   4.054  13.005 -1.5766 -1.3127  0.3603
 4255TIP3    H234257   3.224   4.117  13.136 -2.1203 -1.8846  0.4585
 4256TIP3   OH234258   4.396   6.024  13.661 -0.1053  0.3804  0.1789
 4256TIP3    H134259   4.459   5.952  13.667 -1.0747 -0.7168 -2.4081
 4256TIP3    H234260   4.355   6.014  13.576 -2.5527  2.1286  1.0856
 4257TIP3   OH234261   2.889   1.198   5.450 -0.7081 -0.4701  0.1064
 4257TIP3    H134262   2.885   1.280   5.401 -0.7572  0.1721  1.1723
 4257TIP3    H234263   2.949   1.216   5.523 -0.2172 -1.5799 -0.0234
 4258TIP3   OH234264   6.812   0.445  16.070 -0.1113  0.2359  0.7422
 4258TIP3    H134265   6.898   0.453  16.112  0.2703 -0.2546  0.0477
 4258TIP3    H234266   6.762   0.388  16.129 -0.0271  0.6616  1.2359
 4259TIP3   OH234267   5.523   3.266  15.991  0.0049 -0.4956 -0.3688
 4259TIP3    H134268   5.474   3.238  15.914 -0.4681  0.6446 -0.4997
 4259TIP3    H234269   5.593   3.202  16.000 -0.8562 -1.5069 -0.8401
 4260TIP3   OH234270   5.909   0.679   3.212 -0.3046 -0.1956  0.2915
 4260TIP3    H134271   5.919   0.681   3.308  2.1403 -0.0463  0.0549
 4260TIP3    H234272   5.935   0.767   3.184 -1.8508  0.0353 -0.4631
 4261TIP3   OH234273   0.191   1.079  13.005  0.1488  0.2997 -0.4666
 4261TIP3    H134274   0.185   0.998  13.056 -0.8946 -0.0098 -1.0713
 4261TIP3    H234275   0.164   1.054  12.917 -0.8208  1.4361 -0.5090
 4262TIP3   OH234276   0.402   1.686   4.043 -0.2864  0.5533  0.3887
 4262TIP3    H134277   0.425   1.597   4.072 -2.1975  0.0564  0.4436
 4262TIP3    H234278   0.474   1.712   3.986 -0.1738 -1.4454 -0.4209
 4263TIP3   OH234279   1.599   4.659  11.800  0.0609 -0.4857  0.2609
 4263TIP3    H134280   1.682   4.614  11.816 -0.5831 -1.5791  0.5803
 4263TIP3    H234281   1.613   4.707  11.718  1.1803 -0.2163  0.6059
 4264TIP3   OH234282   5.677   6.416   5.533  0.4933  0.1662  0.5854
 4264TIP3    H134283   5.620   6.476   5.580 -3.1616 -1.6927 -1.2511
 4264TIP3    H234284   5.673   6.334   5.583 -0.9422 -0.8729 -1.1398
 4265TIP3   OH234285   4.956   3.107   2.325  0.4256 -0.4910  0.3013
 4265TIP3    H134286   5.026   3.071   2.380 -0.5055 -2.9575 -0.0661
 4265TIP3    H234287   4.947   3.045   2.253 -0.5168  1.0631 -0.9590
 4266TIP3   OH234288   1.456   2.571  15.218 -0.1980 -0.5407  1.0473
 4266TIP3    H134289   1.402   2.586  15.140  1.3856  1.0875  0.2373
 4266TIP3    H234290   1.401   2.518  15.275 -3.0358  1.8549  0.6515
 4267TIP3   OH234291   0.639   5.978  15.205 -0.4745  0.1042 -1.0974
 4267TIP3    H134292   0.706   5.917  15.235 -0.7203 -0.7320 -2.2235
 4267TIP3    H234293   0.682   6.031  15.138 -0.8063 -0.1317 -1.4995
 4268TIP3   OH234294   2.196   5.281   0.055  0.3363  0.4422  0.2146
 4268TIP3    H134295   2.158   5.296   0.141 -0.2146  1.7807 -0.2570
 4268TIP3    H234296   2.283   5.246   0.074 -0.8692 -2.0839  1.2895
 4269TIP3   OH234297   5.377   0.127   2.470 -0.1023  0.0996  0.2599
 4269TIP3    H134298   5.322   0.123   2.548  0.4105  0.6293  0.6538
 4269TIP3    H234299   5.347   0.205   2.423  0.6424  0.6781  0.7309
 4270TIP3   OH234300   1.131   2.266   5.265  0.1131 -0.3339  0.0437
 4270TIP3    H134301   1.195   2.198   5.243  0.3180 -0.6011  1.4636
 4270TIP3    H234302   1.046   2.224   5.254  0.1574 -0.0550 -1.5874
 4271TIP3   OH234303   4.682   1.708  14.790 -0.7107 -0.6057  0.0897
 4271TIP3    H134304   4.597   1.751  14.786 -0.8662 -0.6845  2.1390
 4271TIP3    H234305   4.669   1.634  14.849  0.6932 -0.8131  0.1585
 4272TIP3   OH234306   5.526   3.791   3.472  0.1209 -0.0472 -0.2762
 4272TIP3    H134307   5.489   3.797   3.561  1.6456 -1.8202  0.5161
 4272TIP3    H234308   5.553   3.880   3.451 -1.0674  0.5551  0.6721
 4273TIP3   OH234309   3.405   3.322   3.405 -0.5275 -0.6774 -0.3542
 4273TIP3    H134310   3.383   3.374   3.327  3.5869 -1.4502 -2.1931
 4273TIP3    H234311   3.435   3.387   3.468 -0.1163 -0.3720 -0.8564
 4274TIP3   OH234312   6.218   1.916   0.946 -0.1756  0.1781  0.7142
 4274TIP3    H134313   6.157   1.872   0.888  0.6109 -2.0394  1.5279
 4274TIP3    H234314   6.167   1.931   1.026 -0.3126  0.3736  0.5920
 4275TIP3   OH234315   1.065   0.192  13.782 -0.0224 -0.2991  0.1270
 4275TIP3    H134316   1.131   0.150  13.727 -1.2141 -1.3418 -0.5436
 4275TIP3    H234317   0.982   0.158  13.749 -0.8480  0.3696  1.4862
 4276TIP3   OH234318   1.995   6.398  14.393  0.2025  0.4085  0.6317
 4276TIP3    H134319   1.936   6.403  14.468 -0.1684 -2.1818  0.5432
 4276TIP3    H234320   2.072   6.352  14.426  0.9146  1.0980 -0.0441
 4277TIP3   OH234321   5.821   2.301   4.567 -0.5655 -0.5050  0.1693
 4277TIP3    H134322   5.812   2.213   4.604 -0.0481 -0.7023 -0.1574
 4277TIP3    H234323   5.845   2.356   4.641  1.3538 -1.0601 -0.0082
 4278TIP3   OH234324   2.185   2.079   2.964  0.6504  0.1083 -0.2679
 4278TIP3    H134325   2.202   2.173   2.967 -0.8731  0.3864  0.1441
 4278TIP3    H234326   2.112   2.066   3.025  0.9776 -1.3679 -0.1754
 4279TIP3   OH234327   4.614   5.509  16.545 -0.2506 -0.1737  0.1688
 4279TIP3    H134328   4.601   5.433  16.489 -1.1581  1.7446 -2.3739
 4279TIP3    H234329   4.690   5.553  16.509 -0.1881  0.5348  1.1362
 4280TIP3   OH234330   0.877   0.506  13.514  0.0041 -0.4628 -0.4121
 4280TIP3    H134331   0.875   0.576  13.579 -0.9996 -0.7304 -0.1370
 4280TIP3    H234332   0.851   0.548  13.432  2.5985  0.1607 -0.9469
 4281TIP3   OH234333   0.101   5.365  15.548  0.0902  0.5740 -0.3069
 4281TIP3    H134334   0.184   5.366  15.500 -0.5217 -1.6493 -1.5001
 4281TIP3    H234335   0.050   5.295  15.506 -1.7486  0.7901  1.4820
 4282TIP3   OH234336   1.809   4.499   3.677  0.4641  0.1375 -0.7748
 4282TIP3    H134337   1.749   4.551   3.622 -1.2401  0.9303  1.7165
 4282TIP3    H234338   1.757   4.423   3.702  0.5944  0.6547  1.1203
 4283TIP3   OH234339   5.955   3.178  10.862  0.0968 -0.1616 -0.1550
 4283TIP3    H134340   5.990   3.199  10.776  0.9178 -1.3463 -0.1137
 4283TIP3    H234341   5.928   3.086  10.856 -0.4519 -0.0593  0.6509
 4284TIP3   OH234342   2.530   1.176  16.856 -0.3514 -0.5056  0.0379
 4284TIP3    H134343   2.448   1.223  16.866 -0.3841 -0.8529  1.5889
 4284TIP3    H234344   2.594   1.243  16.831 -0.7859  0.0428  0.3844
 4285TIP3   OH234345   1.252   0.759   0.490  0.2112 -0.8022  0.1758
 4285TIP3    H134346   1.319   0.811   0.534 -1.1860  0.1371  1.2485
 4285TIP3    H234347   1.230   0.808   0.411  0.3047 -0.7571  0.1784
 4286TIP3   OH234348   6.788   6.127  16.618 -0.1324 -0.5221  0.2218
 4286TIP3    H134349   6.709   6.119  16.671  0.2272 -0.0506  0.8314
 4286TIP3    H234350   6.784   6.052  16.558 -0.4830 -1.1189  0.9827
 4287TIP3   OH234351   2.579   3.571  16.477  0.3201  0.1914  0.3383
 4287TIP3    H134352   2.598   3.565  16.383  2.1636  3.1411  0.4715
 4287TIP3    H234353   2.618   3.492  16.515  0.9503 -0.2254 -1.1646
 4288TIP3   OH234354   2.591   5.948  16.864 -0.0945  0.2655  0.2837
 4288TIP3    H134355   2.533   5.916  16.933  0.7254  1.2272  1.4311
 4288TIP3    H234356   2.532   5.991  16.802 -0.5827  1.6946  1.7038
 4289TIP3   OH234357   2.191   2.852   3.893  0.0200  0.3106  0.7348
 4289TIP3    H134358   2.286   2.859   3.899 -0.0350  1.0799  0.8526
 4289TIP3    H234359   2.170   2.765   3.926  0.6917  0.1074  0.6232
 4290TIP3   OH234360   6.667   1.141  12.596  0.1135  0.4510  0.8508
 4290TIP3    H134361   6.616   1.094  12.662  0.1070  0.4728  0.8616
 4290TIP3    H234362   6.751   1.156  12.638  0.3030 -0.0275  0.6520
 4291TIP3   OH234363   6.604   2.420  14.834 -0.2144  1.1298 -0.0744
 4291TIP3    H134364   6.679   2.363  14.821  0.9914  2.2060  1.8846
 4291TIP3    H234365   6.641   2.508  14.838 -1.5066  1.6490  1.2872
 4292TIP3   OH234366   4.971   2.360   3.368  0.2157  0.6121 -0.3291
 4292TIP3    H134367   5.049   2.321   3.408 -0.3080  0.4306  0.5338
 4292TIP3    H234368   4.973   2.329   3.278  0.8681  0.1863 -0.1756
 4293TIP3   OH234369   0.087   3.103   5.990 -0.0785 -0.0315 -0.1636
 4293TIP3    H134370   0.104   3.132   6.080 -1.3639 -0.5442  0.2573
 4293TIP3    H234371   0.026   3.030   5.999 -0.5730  0.2017 -1.4864
 4294TIP3   OH234372   4.242   5.546   0.360 -0.3671 -0.4313  0.1183
 4294TIP3    H134373   4.293   5.511   0.433  0.1757 -3.2017 -1.5171
 4294TIP3    H234374   4.305   5.596   0.308 -0.1268 -0.7758  0.0763
 4295TIP3   OH234375   0.433   4.276   6.216 -0.1405 -0.2288 -0.1345
 4295TIP3    H134376   0.440   4.258   6.310 -1.3770  0.9492  0.1912
 4295TIP3    H234377   0.501   4.341   6.198 -0.9410  0.7148  0.2532
 4296TIP3   OH234378   2.205   3.288  12.316 -0.4663  0.0115  0.2080
 4296TIP3    H134379   2.228   3.212  12.371  2.7609 -1.1484 -2.5367
 4296TIP3    H234380   2.266   3.356  12.344 -1.8175  0.8711  1.0823
 4297TIP3   OH234381   3.920   5.663  13.397  0.7463  0.3390 -0.7640
 4297TIP3    H134382   3.978   5.607  13.346 -0.6610 -1.5871 -0.2770
 4297TIP3    H234383   3.978   5.712  13.455  1.8919 -1.3636 -0.4710
 4298TIP3   OH234384   0.065   1.362   3.030  0.4287 -0.3221 -0.6206
 4298TIP3    H134385   0.067   1.453   3.058 -1.2211 -0.3497 -0.3443
 4298TIP3    H234386   0.106   1.314   3.101 -1.3898 -0.0995  0.6179
 4299TIP3   OH234387   3.520   4.376  17.106 -0.7185 -0.2705 -0.7103
 4299TIP3    H134388   3.463   4.329  17.167  0.0412 -0.7415 -0.3630
 4299TIP3    H234389   3.578   4.427  17.162 -1.3264  0.8517 -1.0763
 4300TIP3   OH234390   0.504   1.556  14.635  0.3292 -0.6866 -0.4474
 4300TIP3    H134391   0.593   1.546  14.602  0.7389 -0.1408  0.4781
 4300TIP3    H234392   0.501   1.646  14.668 -0.7261 -0.5229 -0.9646
 4301TIP3   OH234393   4.199   1.927  13.929 -0.2266 -0.9306 -0.0060
 4301TIP3    H134394   4.109   1.899  13.943  0.2602 -2.1286  0.7324
 4301TIP3    H234395   4.248   1.893  14.004  0.9483 -0.7850 -0.6862
 4302TIP3   OH234396   2.955   2.092  15.030 -0.4563  0.2406  0.0902
 4302TIP3    H134397   2.878   2.063  14.981 -0.0809  0.7965 -0.8444
 4302TIP3    H234398   2.920   2.126  15.112 -1.0081 -1.7386  0.7047
 4303TIP3   OH234399   5.966   5.202  11.990  0.3823 -0.0031 -0.2504
 4303TIP3    H134400   5.939   5.229  12.078  5.1880 -1.1317  1.6859
 4303TIP3    H234401   5.909   5.128  11.969 -1.6163  1.0288  1.3097
 4304TIP3   OH234402   6.167   0.730  15.678 -0.3988  0.2213  0.4939
 4304TIP3    H134403   6.149   0.815  15.637 -3.3547 -0.1251  0.9571
 4304TIP3    H234404   6.254   0.740  15.717 -0.4675  2.8451  0.0796
 4305TIP3   OH234405   3.357   4.842  15.833  0.4643  1.1711  0.3799
 4305TIP3    H134406   3.448   4.812  15.830  0.2237  0.4190  0.5285
 4305TIP3    H234407   3.363   4.936  15.851  1.3291  1.7751 -2.7609
 4306TIP3   OH234408   5.859   5.194   2.790 -0.1132  0.1804  0.4719
 4306TIP3    H134409   5.926   5.180   2.723  0.4690  0.9939  0.8702
 4306TIP3    H234410   5.877   5.127   2.856 -0.4653 -0.3970 -0.0186
 4307TIP3   OH234411   1.684   6.217  13.209 -0.0910  0.3826  0.0447
 4307TIP3    H134412   1.589   6.214  13.214 -0.0937  0.9320  0.4352
 4307TIP3    H234413   1.706   6.169  13.129 -0.8962  3.0464 -1.8384
 4308TIP3   OH234414   5.910   3.970  15.362  0.6649 -0.2512 -0.0745
 4308TIP3    H134415   5.938   4.004  15.447 -1.7470  0.1055  0.6206
 4308TIP3    H234416   5.823   3.935  15.378 -0.1198  0.4556 -2.5573
 4309TIP3   OH234417   1.486   6.076   2.676 -0.6120 -1.1175  0.0080
 4309TIP3    H134418   1.498   6.160   2.720 -2.1310 -0.7454 -0.2545
 4309TIP3    H234419   1.461   6.015   2.746 -1.1396 -0.9661 -0.0461
 4310TIP3   OH234420   3.294   1.630   2.322 -0.2055  0.2171 -0.3327
 4310TIP3    H134421   3.290   1.648   2.416  0.3797  1.2053 -0.4841
 4310TIP3    H234422   3.214   1.582   2.303  0.2258 -1.0165  0.8841
 4311TIP3   OH234423   2.697   1.489   4.568  0.2019  0.5800 -0.2526
 4311TIP3    H134424   2.618   1.473   4.516  0.1851  0.3296 -0.1519
 4311TIP3    H234425   2.674   1.563   4.624 -0.4712 -0.4411  0.8363
 4312TIP3   OH234426   0.272   6.385   3.013 -0.0317 -0.3709  0.2499
 4312TIP3    H134427   0.201   6.330   2.978 -0.0894  0.3818 -0.8316
 4312TIP3    H234428   0.346   6.325   3.022 -0.6420 -1.0401  0.8595
 4313TIP3   OH234429   2.517   4.629   0.586  0.0372 -0.2474 -0.0801
 4313TIP3    H134430   2.581   4.558   0.581 -0.4715 -0.7241  0.0454
 4313TIP3    H234431   2.536   4.671   0.670  0.5420 -0.0371 -0.2970
 4314TIP3   OH234432   0.625   1.733   6.472  0.2097 -0.1377 -0.1741
 4314TIP3    H134433   0.668   1.685   6.401  0.0358 -0.8902  0.2191
 4314TIP3    H234434   0.595   1.814   6.432  0.6508 -0.2859 -0.8126
 4315TIP3   OH234435   2.721   6.117  14.580  0.4303  0.0177 -0.1637
 4315TIP3    H134436   2.804   6.076  14.556  2.1478  3.0209  0.3347
 4315TIP3    H234437   2.726   6.127  14.676 -0.5196  0.1810 -0.1254
 4316TIP3   OH234438   1.744   0.791  14.903 -0.0217 -0.3693  0.3814
 4316TIP3    H134439   1.821   0.804  14.848  0.7065 -1.8672  0.9922
 4316TIP3    H234440   1.670   0.818  14.849  0.8921  0.5920 -0.4037
 4317TIP3   OH234441   1.227   0.547  11.812 -0.1875 -0.2365  0.1850
 4317TIP3    H134442   1.164   0.480  11.839 -0.2417 -0.5175 -0.6168
 4317TIP3    H234443   1.207   0.562  11.719 -0.4744  1.2213  0.4751
 4318TIP3   OH234444   4.137   5.027  11.769  0.2706 -0.0434  0.1172
 4318TIP3    H134445   4.215   4.971  11.766  0.1511 -0.1878 -0.3018
 4318TIP3    H234446   4.106   5.031  11.679 -1.4184 -1.7059  0.5873
 4319TIP3   OH234447   3.545   3.554   4.408 -0.7243 -0.3513 -0.2207
 4319TIP3    H134448   3.521   3.647   4.408  0.3266 -0.0681 -0.1133
 4319TIP3    H234449   3.637   3.553   4.384 -0.4304 -1.2837  0.8612
 4320TIP3   OH234450   5.986   0.471  15.632  0.1797  0.1286 -0.5470
 4320TIP3    H134451   6.033   0.551  15.659  0.4316 -0.7401  1.6859
 4320TIP3    H234452   5.900   0.502  15.606 -0.2299  1.0071  1.7088
 4321TIP3   OH234453   1.348   3.451   4.227 -0.1224  0.2544  0.2071
 4321TIP3    H134454   1.439   3.460   4.254 -0.0654 -0.1142  0.1473
 4321TIP3    H234455   1.299   3.505   4.289  0.0286 -0.4420  0.9437
 4322TIP3   OH234456   4.601   1.362   1.680  0.5313  0.0937 -0.2038
 4322TIP3    H134457   4.648   1.389   1.602 -0.6969  0.0857 -0.9713
 4322TIP3    H234458   4.598   1.266   1.674  0.2467  0.1058 -0.2666
 4323TIP3   OH234459   3.888   2.845  14.748  0.6695  0.2315 -0.5065
 4323TIP3    H134460   3.828   2.904  14.702 -0.3039 -2.0678 -2.3211
 4323TIP3    H234461   3.973   2.861  14.708  0.2845 -0.0291 -1.4525
 4324TIP3   OH234462   6.600   3.442  11.738  0.3407 -0.2607  0.0515
 4324TIP3    H134463   6.669   3.409  11.796 -0.5981 -0.4504  1.0798
 4324TIP3    H234464   6.580   3.367  11.682  1.3455 -0.0373 -0.6263
 4325TIP3   OH234465   5.546   3.225  11.166 -0.1384  0.4145 -0.0623
 4325TIP3    H134466   5.624   3.248  11.116  1.1467 -1.2603  1.1034
 4325TIP3    H234467   5.495   3.171  11.108  0.5665 -0.1821 -0.1331
 4326TIP3   OH234468   0.249   2.635  16.244  0.0881 -0.7204 -0.2282
 4326TIP3    H134469   0.159   2.637  16.210 -0.0783 -0.9787  0.1972
 4326TIP3    H234470   0.243   2.587  16.326  1.2345 -4.0280 -2.0105
 4327TIP3   OH234471   1.619   1.285  12.366 -0.2621 -0.0334  0.2300
 4327TIP3    H134472   1.613   1.313  12.275  0.5932 -0.2909  0.0957
 4327TIP3    H234473   1.684   1.215  12.366 -2.8109 -2.5065  0.4717
 4328TIP3   OH234474   6.505   1.534   1.603 -0.4700  0.1166  0.0600
 4328TIP3    H134475   6.437   1.539   1.669  1.1347  1.4089  1.6773
 4328TIP3    H234476   6.569   1.472   1.638 -1.0989 -1.6440 -1.7651
 4329TIP3   OH234477   5.900   3.157  14.857 -0.3898 -0.0697  0.4718
 4329TIP3    H134478   5.970   3.220  14.874  0.3470 -1.0895  1.3066
 4329TIP3    H234479   5.944   3.072  14.854 -1.2805 -0.5044 -1.2513
 4330TIP3   OH234480   5.258   4.188   4.623  0.0386  0.2784  0.1045
 4330TIP3    H134481   5.260   4.235   4.539  1.1674 -0.1364 -0.1170
 4330TIP3    H234482   5.194   4.119   4.610 -1.1882  1.3765  0.2223
 4331TIP3   OH234483   1.318   2.632  14.954 -0.3989  0.5045  0.2518
 4331TIP3    H134484   1.248   2.636  15.019 -0.9330 -0.4290 -0.2392
 4331TIP3    H234485   1.306   2.710  14.900 -0.3531  0.9406  0.8695
 4332TIP3   OH234486   2.799   6.198   5.656 -0.1679  0.0351 -0.2594
 4332TIP3    H134487   2.773   6.259   5.587  1.6381 -0.9451 -1.8344
 4332TIP3    H234488   2.792   6.249   5.737 -1.2770  1.5079 -1.2570
 4333TIP3   OH234489   4.092   0.233   3.138  0.0602  0.2949  0.1130
 4333TIP3    H134490   4.104   0.291   3.212 -0.0106 -0.5026  0.7581
 4333TIP3    H234491   4.163   0.256   3.077  0.3588  0.6746  0.6078
 4334TIP3   OH234492   1.025   4.510  13.631 -0.2887  0.4106 -0.2750
 4334TIP3    H134493   1.118   4.520  13.654 -0.2133 -1.8261  0.5715
 4334TIP3    H234494   1.007   4.582  13.571  1.7518  1.4271  0.2744
 4335TIP3   OH234495   6.732   3.614  14.115 -0.2602 -0.3954 -0.0503
 4335TIP3    H134496   6.715   3.657  14.199  0.0534 -0.7537  0.1962
 4335TIP3    H234497   6.676   3.661  14.053  0.5878  0.8312  0.0873
 4336TIP3   OH234498   6.293   1.422   4.096 -0.3287 -0.2799 -0.3487
 4336TIP3    H134499   6.313   1.486   4.165  4.4511  1.0162 -2.7266
 4336TIP3    H234500   6.314   1.337   4.137  2.0149  0.4384  0.0420
 4337TIP3   OH234501   3.869   5.576  14.679 -0.3803  0.4098  0.0637
 4337TIP3    H134502   3.897   5.489  14.706  0.5054  0.1968 -1.4346
 4337TIP3    H234503   3.774   5.575  14.685 -0.3014 -0.2626  1.2082
 4338TIP3   OH234504   5.184   3.101  12.987 -0.3939  0.0245 -0.0115
 4338TIP3    H134505   5.162   3.091  12.895 -2.1722 -0.7865  0.4823
 4338TIP3    H234506   5.266   3.051  12.998  0.0962  0.5425 -1.2296
 4339TIP3   OH234507   1.607   4.300  11.721  0.3175  0.7364  0.2472
 4339TIP3    H134508   1.638   4.209  11.714 -2.2444 -0.4032  2.8194
 4339TIP3    H234509   1.586   4.325  11.631  1.5522 -1.0274 -0.5625
 4340TIP3   OH234510   5.373   3.622   4.940  0.0133  0.1841  0.3213
 4340TIP3    H134511   5.467   3.637   4.948 -0.1816  2.1776 -0.7496
 4340TIP3    H234512   5.334   3.674   5.011 -0.3916  1.2633 -0.6581
 4341TIP3   OH234513   2.367   5.321   2.380 -0.0544 -0.1073 -0.2744
 4341TIP3    H134514   2.289   5.268   2.359 -1.6501  2.5120 -1.1914
 4341TIP3    H234515   2.439   5.276   2.336 -1.3477 -1.5714 -0.9502
 4342TIP3   OH234516   2.876   4.469   2.196  0.1435  0.3395  0.2066
 4342TIP3    H134517   2.829   4.552   2.208  0.0543  0.1503  1.2209
 4342TIP3    H234518   2.854   4.442   2.107 -3.3143 -0.7306  1.2942
 4343TIP3   OH234519   2.243   1.871   5.760  0.4860 -0.2197  0.1422
 4343TIP3    H134520   2.147   1.870   5.754  0.4146 -1.9415  1.2945
 4343TIP3    H234521   2.262   1.920   5.840  0.5770  0.2791 -0.1836
 4344TIP3   OH234522   5.218   0.663  15.623  0.6395 -0.1786 -0.2167
 4344TIP3    H134523   5.137   0.628  15.587  1.0220 -0.8076 -0.4625
 4344TIP3    H234524   5.189   0.731  15.684 -0.0928 -0.7601  0.0906
 4345TIP3   OH234525   6.325   5.930   0.683 -0.1823  0.0969 -0.6954
 4345TIP3    H134526   6.252   5.879   0.646  0.1165 -0.0387 -1.0970
 4345TIP3    H234527   6.309   6.019   0.652 -0.5859  0.2049 -0.1722
 4346TIP3   OH234528   4.424   3.256   4.076 -0.2574  0.5956  0.1932
 4346TIP3    H134529   4.460   3.227   4.160  0.0082  0.7725  0.1417
 4346TIP3    H234530   4.342   3.300   4.099 -0.4954  0.1018  0.3019
 4347TIP3   OH234531   2.929   2.619   4.921 -0.8869 -0.0759  0.2187
 4347TIP3    H134532   2.885   2.535   4.907  0.8984 -1.2585  1.5382
 4347TIP3    H234533   3.016   2.607   4.884 -0.0284  0.6097  1.9849
 4348TIP3   OH234534   4.926   6.342   3.209  0.2836  0.0708  0.0071
 4348TIP3    H134535   4.952   6.425   3.248  0.6210  0.0500 -0.1730
 4348TIP3    H234536   4.990   6.327   3.139 -0.2132  0.0281 -0.4444
 4349TIP3   OH234537   3.935   2.316  15.159 -0.0570  0.4534 -0.2514
 4349TIP3    H134538   3.946   2.410  15.143  0.9438  0.5583  0.9608
 4349TIP3    H234539   3.879   2.312  15.236  0.2268  0.0578 -0.0697
 4350TIP3   OH234540   2.384   2.817   0.589  0.1009  0.1374 -0.0280
 4350TIP3    H134541   2.308   2.759   0.598  0.7842 -0.4679  1.9438
 4350TIP3    H234542   2.404   2.845   0.678  1.1491  1.6536 -0.7276
 4351TIP3   OH234543   0.055   2.018  13.851  0.1170  0.2005 -0.7315
 4351TIP3    H134544  -0.015   1.973  13.897 -0.7794 -0.5400 -2.7438
 4351TIP3    H234545   0.135   1.991  13.897 -0.7199 -0.7431  0.1984
 4352TIP3   OH234546   4.581   4.598   1.466 -0.2648 -0.0198  0.1894
 4352TIP3    H134547   4.498   4.616   1.422 -0.7610 -0.8661  0.7553
 4352TIP3    H234548   4.580   4.652   1.545 -0.3651 -0.1922  0.3047
 4353TIP3   OH234549   6.088   2.099   3.534 -0.2763  0.3912  0.2539
 4353TIP3    H134550   6.168   2.152   3.531 -0.0748  0.0834  0.0793
 4353TIP3    H234551   6.109   2.022   3.482 -1.1068  0.8641 -0.7839
 4354TIP3   OH234552   6.353   5.366   3.822 -0.5181 -0.2246 -0.5376
 4354TIP3    H134553   6.389   5.310   3.891 -1.4807  0.2278  0.3399
 4354TIP3    H234554   6.419   5.363   3.753  1.0836  0.3612  0.9148
 4355TIP3   OH234555   3.194   4.309  16.129 -0.5013  0.4427  0.2349
 4355TIP3    H134556   3.229   4.314  16.217 -0.3540  1.3204  0.1291
 4355TIP3    H234557   3.110   4.355  16.134  0.2396  1.9175 -0.4333
 4356TIP3   OH234558   4.370   0.215   5.395  0.3421 -0.1169  0.3152
 4356TIP3    H134559   4.371   0.197   5.489 -0.0059 -1.0780  0.1405
 4356TIP3    H234560   4.369   0.128   5.355 -0.6475  0.3023 -0.5665
 4357TIP3   OH234561   5.051   5.662  16.016  0.2836  0.2892  0.5841
 4357TIP3    H134562   5.005   5.589  15.973  3.0871 -0.7823 -0.7112
 4357TIP3    H234563   5.031   5.738  15.962  0.1983 -0.2047 -0.0939
 4358TIP3   OH234564   6.809   6.265  15.952 -0.1470 -0.5994 -0.6800
 4358TIP3    H134565   6.732   6.314  15.979 -1.3307 -3.1870  0.9163
 4358TIP3    H234566   6.871   6.276  16.025 -0.4763 -1.5447 -0.2446
 4359TIP3   OH234567   4.577   4.029  16.843 -0.5178 -0.2692  0.0440
 4359TIP3    H134568   4.594   4.085  16.919  2.8110 -0.8489 -0.2081
 4359TIP3    H234569   4.557   4.090  16.772  1.3316  0.5707  0.2052
 4360TIP3   OH234570   5.124   6.721   3.550  0.3009 -0.0730  0.4372
 4360TIP3    H134571   5.142   6.746   3.641  0.6242  1.0935  0.0593
 4360TIP3    H234572   5.069   6.791   3.516  0.7339 -0.1674 -0.4734
 4361TIP3   OH234573   1.279   5.451  11.951  0.3936 -0.5826  0.3188
 4361TIP3    H134574   1.279   5.540  11.987  2.0667  0.3172 -1.8024
 4361TIP3    H234575   1.222   5.456  11.874  2.7112 -0.6013 -1.4503
 4362TIP3   OH234576   3.230   4.166   1.056  0.2547  0.0074  0.0231
 4362TIP3    H134577   3.294   4.097   1.076 -0.7442 -0.8941  0.1145
 4362TIP3    H234578   3.145   4.127   1.075 -0.4939  0.4495 -2.2366
 4363TIP3   OH234579   1.475   4.369  13.638  0.5198 -0.3020  0.6553
 4363TIP3    H134580   1.460   4.442  13.577  0.8864 -1.1616 -0.4808
 4363TIP3    H234581   1.567   4.346  13.625  0.8650  0.1401  2.2565
 4364TIP3   OH234582   3.442   2.737  14.822  0.1098  0.0020  0.4232
 4364TIP3    H134583   3.518   2.762  14.874 -0.1552 -0.2596  0.9313
 4364TIP3    H234584   3.417   2.817  14.775  1.0706 -0.0649 -0.2148
 4365TIP3   OH234585   6.670   3.433   0.064  0.1435 -0.5185 -0.0742
 4365TIP3    H134586   6.726   3.427   0.141 -0.7288  0.1102  0.6212
 4365TIP3    H234587   6.722   3.395  -0.007  1.5945  0.3726  0.4812
 4366TIP3   OH234588   1.486   1.107   4.181 -0.4060  0.2548 -0.4712
 4366TIP3    H134589   1.453   1.018   4.177  0.1517 -0.0017  0.4729
 4366TIP3    H234590   1.532   1.120   4.098 -1.9001  0.2378 -1.3207
 4367TIP3   OH234591   3.481   1.953   6.067 -0.1191 -0.5671 -0.0964
 4367TIP3    H134592   3.498   1.893   6.140 -2.4039  0.0117  0.9646
 4367TIP3    H234593   3.486   1.898   5.989 -2.7948 -2.3152  0.9017
 4368TIP3   OH234594   5.746   2.998  12.155 -0.4972 -0.3045 -0.2533
 4368TIP3    H134595   5.816   3.009  12.219 -0.5251  0.7193 -0.4019
 4368TIP3    H234596   5.790   2.963  12.077 -0.0098  1.1498 -0.6400
 4369TIP3   OH234597   0.580   5.373  13.988  0.1520 -0.3211  0.0762
 4369TIP3    H134598   0.500   5.325  14.010  1.4786 -2.8828 -0.4902
 4369TIP3    H234599   0.562   5.412  13.902 -0.8349 -0.0368  0.4061
 4370TIP3   OH234600   5.407   1.658   2.374 -0.0628 -0.1698 -0.7739
 4370TIP3    H134601   5.468   1.623   2.439  0.1898 -1.6678 -1.8019
 4370TIP3    H234602   5.456   1.661   2.292 -0.5580  1.1698 -1.0526
 4371TIP3   OH234603   2.084   1.518   4.768 -0.0298 -0.9613 -0.0526
 4371TIP3    H134604   2.178   1.504   4.759  0.1157  0.9845 -1.9387
 4371TIP3    H234605   2.077   1.591   4.830 -0.2786 -0.7602 -0.3200
 4372TIP3   OH234606   3.634   4.859  13.657  0.0479  0.0197  0.4809
 4372TIP3    H134607   3.575   4.934  13.665 -1.8763 -1.0503 -2.9990
 4372TIP3    H234608   3.599   4.794  13.719  0.1080  0.9096  1.4732
 4373TIP3   OH234609   3.518   4.683   4.023 -0.1561  0.5542  0.2549
 4373TIP3    H134610   3.610   4.710   4.031  0.2107 -0.5639 -0.0242
 4373TIP3    H234611   3.470   4.746   4.075  0.9642  0.1690  1.7947
 4374TIP3   OH234612   5.687   2.082  15.829 -0.1418 -0.1432  0.1860
 4374TIP3    H134613   5.748   2.154  15.815 -1.0306  0.6514  0.3975
 4374TIP3    H234614   5.704   2.053  15.918  0.7879 -0.7400 -0.1825
 4375TIP3   OH234615   1.419   5.768  14.103 -0.0383 -0.2990  0.1059
 4375TIP3    H134616   1.394   5.827  14.174  1.0494  1.9278 -1.3328
 4375TIP3    H234617   1.351   5.778  14.037  0.3260 -0.3997 -0.2884
 4376TIP3   OH234618   5.760   2.778   0.420 -0.0661  0.6213 -0.0585
 4376TIP3    H134619   5.854   2.791   0.410 -0.0511 -0.7089 -2.0102
 4376TIP3    H234620   5.751   2.714   0.490  0.3700  2.1948  1.4691
 4377TIP3   OH234621   5.257   1.266  16.485 -0.0212  0.0718 -0.5238
 4377TIP3    H134622   5.343   1.229  16.462  0.5455  0.4384  0.9591
 4377TIP3    H234623   5.243   1.239  16.576 -1.3059  0.3523 -0.6383
 4378TIP3   OH234624   4.221   4.428  16.322  0.3407  0.0806  0.4218
 4378TIP3    H134625   4.195   4.520  16.325  1.0234  0.3651 -1.8744
 4378TIP3    H234626   4.204   4.401  16.232 -1.8656 -2.6729  1.5898
 4379TIP3   OH234627   3.621   6.574  15.200  0.4691  0.5246  0.2173
 4379TIP3    H134628   3.595   6.609  15.114  0.4612 -1.0211 -0.4475
 4379TIP3    H234629   3.716   6.569  15.196  0.4331 -0.1390  0.0366
 4380TIP3   OH234630   5.505   1.560  13.837  0.1102  0.6015  0.1385
 4380TIP3    H134631   5.580   1.620  13.844 -0.4062  1.1887  0.6912
 4380TIP3    H234632   5.496   1.543  13.743  1.2462  0.1340  0.1025
 4381TIP3   OH234633   2.130   1.579   3.473 -0.1191  0.2133 -0.3629
 4381TIP3    H134634   2.116   1.579   3.567 -0.0219  2.0313 -0.3322
 4381TIP3    H234635   2.224   1.589   3.462 -0.0332 -0.8017 -0.6661
 4382TIP3   OH234636   3.790   4.767  13.173 -0.7275  0.2365  0.0467
 4382TIP3    H134637   3.717   4.725  13.127 -0.5323  1.6502 -1.6124
 4382TIP3    H234638   3.764   4.858  13.184 -0.0700  0.2882  1.3059
 4383TIP3   OH234639   0.639   3.278  14.266 -0.1360  0.0045 -0.1398
 4383TIP3    H134640   0.656   3.269  14.359  1.2799  1.7590 -0.2121
 4383TIP3    H234641   0.570   3.344  14.260  1.1372  1.3287 -0.4137
 4384TIP3   OH234642   0.195   4.585   1.503  0.4359 -0.0613 -0.1469
 4384TIP3    H134643   0.239   4.670   1.508  2.3985 -0.7067 -4.1363
 4384TIP3    H234644   0.254   4.524   1.548  0.0250  0.2970  0.8966
 4385TIP3   OH234645   4.843   1.337  13.988  0.4938  0.3953  0.6385
 4385TIP3    H134646   4.925   1.290  14.006 -0.0344 -1.5734 -1.7805
 4385TIP3    H234647   4.849   1.417  14.040  4.5301  0.9044 -0.4479
 4386TIP3   OH234648   2.540   1.465   4.097 -0.2690  0.1505 -0.2666
 4386TIP3    H134649   2.578   1.402   4.158  0.0211 -0.9085 -1.5481
 4386TIP3    H234650   2.546   1.424   4.011 -1.4623  1.2776 -0.9185
 4387TIP3   OH234651   4.602   0.655  14.100 -0.0631  0.2237  0.9446
 4387TIP3    H134652   4.540   0.602  14.051  0.4427 -1.2937  1.9290
 4387TIP3    H234653   4.622   0.729  14.042 -0.2321 -1.0229 -0.7198
 4388TIP3   OH234654   5.708   2.827  11.668  0.8772 -0.5798 -0.9389
 4388TIP3    H134655   5.731   2.766  11.738 -1.2041  0.1587  0.4501
 4388TIP3    H234656   5.700   2.911  11.712 -3.8708 -0.6987 -1.3197
 4389TIP3   OH234657   0.462   3.952  13.495 -0.4008  0.4964  0.2170
 4389TIP3    H134658   0.458   4.032  13.443  0.3527  0.1046 -0.4455
 4389TIP3    H234659   0.550   3.951  13.532  0.7400 -1.6195 -2.3670
 4390TIP3   OH234660   6.124   0.178  16.326 -0.3860  0.3036  0.3163
 4390TIP3    H134661   6.143   0.136  16.410 -1.1550 -0.1400  0.2765
 4390TIP3    H234662   6.054   0.240  16.346 -0.1146  0.6675  0.1334
 4391TIP3   OH234663   5.246   1.868   5.341 -0.4793  0.5196  0.3641
 4391TIP3    H134664   5.301   1.816   5.399  0.4668 -0.0396 -1.0075
 4391TIP3    H234665   5.303   1.889   5.267 -0.8644  3.3891  0.8204
 4392TIP3   OH234666   0.062   6.514   5.895 -0.0566 -0.0475 -0.0567
 4392TIP3    H134667   0.084   6.553   5.810  4.5963  0.7194  1.3657
 4392TIP3    H234668   0.027   6.586   5.946 -0.6492  0.0002 -0.5121
 4393TIP3   OH234669   0.727   3.224   5.409 -0.4108  0.2054 -0.1283
 4393TIP3    H134670   0.777   3.303   5.388 -0.5282  0.6393  1.1832
 4393TIP3    H234671   0.699   3.190   5.324  0.6511  0.9122 -0.7703
 4394TIP3   OH234672   2.328   2.172   4.233 -0.8345  0.2303 -0.0736
 4394TIP3    H134673   2.302   2.141   4.146 -1.8163 -0.5993  0.5141
 4394TIP3    H234674   2.307   2.100   4.292 -0.5770  0.9559  0.9178
 4395TIP3   OH234675   2.207   0.703  13.353 -0.6760  0.3084 -0.3045
 4395TIP3    H134676   2.191   0.726  13.262  0.4832 -1.2734 -0.9199
 4395TIP3    H234677   2.233   0.786  13.395  1.6851  0.4821 -2.0574
 4396TIP3   OH234678   6.151   0.155   2.755  0.3935 -0.6766  0.2668
 4396TIP3    H134679   6.205   0.173   2.678 -0.0401 -0.5907 -0.0181
 4396TIP3    H234680   6.133   0.242   2.793 -0.6355 -0.5924 -0.3857
 4397TIP3   OH234681   5.887   1.662  12.181  0.0076 -0.3748 -0.1518
 4397TIP3    H134682   5.934   1.579  12.189 -1.0064 -0.9834 -0.3594
 4397TIP3    H234683   5.842   1.673  12.265 -0.8663 -0.6693 -0.5780
 4398TIP3   OH234684   0.322   4.051  11.395  0.3715 -0.3831  0.5781
 4398TIP3    H134685   0.353   4.114  11.459  0.5010  0.4108 -0.2625
 4398TIP3    H234686   0.360   4.080  11.312 -1.2078 -0.3821 -0.1619
 4399TIP3   OH234687   6.754   6.215   2.518  0.3651  0.2180  0.3766
 4399TIP3    H134688   6.723   6.124   2.512 -0.0298  0.4667 -1.6248
 4399TIP3    H234689   6.674   6.266   2.530  0.3804  0.4791 -0.5843
 4400TIP3   OH234690   2.976   5.377   1.895 -0.8602  0.0005 -0.4431
 4400TIP3    H134691   3.035   5.350   1.966 -1.1886  1.5481  0.4478
 4400TIP3    H234692   2.943   5.462   1.923 -1.5408  0.3132 -2.1498
 4401TIP3   OH234693   5.865   0.027  11.644 -0.0282 -0.2030  0.1453
 4401TIP3    H134694   5.954   0.058  11.626 -0.3077  0.7551  0.3635
 4401TIP3    H234695   5.875  -0.031  11.720  0.4875 -0.5676 -0.1918
 4402TIP3   OH234696   4.304   1.950   6.242  0.0057 -0.0975 -1.0055
 4402TIP3    H134697   4.382   1.999   6.267 -0.2553  0.3726 -1.1133
 4402TIP3    H234698   4.282   1.899   6.319 -0.0944  0.4369 -0.6775
 4403TIP3   OH234699   6.608   4.925   5.219  0.3138 -0.3281 -0.1189
 4403TIP3    H134700   6.616   4.918   5.124  0.6768 -1.8698  0.0126
 4403TIP3    H234701   6.515   4.939   5.235  0.2890  0.1847 -0.7154
 4404TIP3   OH234702   5.816   6.549   3.847  0.0039  0.1317 -0.5736
 4404TIP3    H134703   5.881   6.592   3.791  0.5829 -0.2279 -0.1756
 4404TIP3    H234704   5.739   6.539   3.790  0.8939 -1.0632 -1.6092
 4405TIP3   OH234705   4.202   6.086   5.524  0.2694  0.3076  0.7472
 4405TIP3    H134706   4.141   6.014   5.533  1.1444 -0.7760 -1.6666
 4405TIP3    H234707   4.273   6.065   5.585  1.7288 -2.2235 -1.6902
 4406TIP3   OH234708   4.349   2.071   4.843  0.0702  0.4413  0.0753
 4406TIP3    H134709   4.267   2.038   4.881  0.6571 -0.4235  0.6149
 4406TIP3    H234710   4.387   2.125   4.912 -0.9345  2.3842 -0.8411
 4407TIP3   OH234711   6.700   5.649   3.509  0.1096  0.0904  0.3654
 4407TIP3    H134712   6.661   5.718   3.456  1.2003  1.0955  0.8689
 4407TIP3    H234713   6.717   5.578   3.447  1.4528  1.2849 -0.6686
 4408TIP3   OH234714   0.040   5.912   0.085 -0.0058 -0.7152 -0.3101
 4408TIP3    H134715   0.104   5.853   0.046  0.3865 -0.0611 -0.6655
 4408TIP3    H234716   0.092   5.980   0.127 -0.4483 -0.8004  0.3851
 4409TIP3   OH234717   1.192   3.218  16.930  0.1600 -0.6118 -0.1079
 4409TIP3    H134718   1.132   3.161  16.979 -0.1620 -0.2658 -0.1016
 4409TIP3    H234719   1.270   3.223  16.986  0.1928 -1.0453 -0.1067
 4410TIP3   OH234720   5.900   2.421  15.013  0.0797  0.1021 -0.9268
 4410TIP3    H134721   5.980   2.469  15.037 -0.3406  0.1496  0.4616
 4410TIP3    H234722   5.856   2.478  14.949  0.3780  0.8298 -0.4962
 4411TIP3   OH234723   6.184   1.341  15.806 -0.4285  0.3185  0.7701
 4411TIP3    H134724   6.223   1.370  15.888 -1.0988 -0.7435  1.4877
 4411TIP3    H234725   6.258   1.312  15.753  0.0640  1.5603  0.7602
 4412TIP3   OH234726   5.997   1.141   0.274 -0.0440  0.0003 -0.0350
 4412TIP3    H134727   5.984   1.234   0.290 -2.5603 -0.6149  1.9172
 4412TIP3    H234728   5.963   1.127   0.186 -1.2844  0.6555  0.3207
 4413TIP3   OH234729   2.393   1.642  16.161 -0.0184  0.0134 -0.1415
 4413TIP3    H134730   2.335   1.569  16.179 -0.8121  1.3563  3.1827
 4413TIP3    H234731   2.479   1.612  16.191  0.1226 -0.3731 -0.9256
 4414TIP3   OH234732   3.557   6.479   5.377  0.4044 -0.7589 -0.5989
 4414TIP3    H134733   3.567   6.407   5.315  0.0947 -1.0256 -0.3391
 4414TIP3    H234734   3.463   6.482   5.396  0.5859 -1.1375  0.3979
 4415TIP3   OH234735   6.426   3.939  16.742  0.6142 -0.8619 -0.6985
 4415TIP3    H134736   6.331   3.951  16.732  0.6699 -0.0613 -0.3431
 4415TIP3    H234737   6.464   4.008  16.686  1.0045 -2.4350 -2.4172
 4416TIP3   OH234738   3.730   1.600  11.614 -0.0883  0.2502  0.5957
 4416TIP3    H134739   3.820   1.607  11.583 -1.3175 -0.1892 -3.4920
 4416TIP3    H234740   3.707   1.688  11.643  1.2469  0.6802  0.3687
 4417TIP3   OH234741   6.387   1.923  16.480  0.1094 -0.1185 -0.0850
 4417TIP3    H134742   6.359   1.905  16.570 -1.2595 -0.0161 -0.4672
 4417TIP3    H234743   6.366   1.843  16.432 -3.0421  1.2209 -1.1332
 4418TIP3   OH234744   3.489   3.184  16.870 -0.1835  0.5084 -0.0529
 4418TIP3    H134745   3.554   3.233  16.920  0.2723  0.1821 -0.3182
 4418TIP3    H234746   3.457   3.117  16.931 -0.4640  0.8291  0.1565
 4419TIP3   OH234747   3.883   3.637   2.860 -0.7208 -0.2951 -0.1044
 4419TIP3    H134748   3.948   3.575   2.827 -0.2910 -0.1657  0.4853
 4419TIP3    H234749   3.853   3.684   2.782  0.6633  0.3769 -0.2534
 4420TIP3   OH234750   2.543   5.530   4.444 -0.0570 -0.2585  0.2308
 4420TIP3    H134751   2.561   5.597   4.511  0.7606  0.3408 -0.5786
 4420TIP3    H234752   2.609   5.462   4.460 -0.9143 -0.9086  1.0801
 4421TIP3   OH234753   2.186   4.263   4.117 -0.0710 -0.1419 -0.2380
 4421TIP3    H134754   2.152   4.350   4.137 -2.8129 -0.4549 -3.1167
 4421TIP3    H234755   2.109   4.206   4.124  1.5287 -2.2389  0.9000
 4422TIP3   OH234756   0.802   1.372   2.596 -0.2347  0.3706  0.0012
 4422TIP3    H134757   0.790   1.405   2.685 -1.1357 -0.6368  0.2563
 4422TIP3    H234758   0.868   1.303   2.605 -0.2129  0.3721 -0.1451
 4423TIP3   OH234759   3.310   5.790   2.761  0.0306 -0.2298 -0.5032
 4423TIP3    H134760   3.389   5.736   2.756  0.3636  0.3127 -1.0997
 4423TIP3    H234761   3.306   5.836   2.677  0.8357  2.1956  0.7454
 4424TIP3   OH234762   6.471   4.052   6.337  0.7183 -0.4609 -0.3429
 4424TIP3    H134763   6.471   4.110   6.261 -0.0192 -0.6973 -0.5271
 4424TIP3    H234764   6.530   3.980   6.312  0.1795 -0.7315 -0.8419
 4425TIP3   OH234765   4.328   5.902  12.280  0.6270 -0.8200  0.1458
 4425TIP3    H134766   4.329   5.840  12.353 -0.8945  0.5498  1.3689
 4425TIP3    H234767   4.339   5.988  12.321 -1.1569  0.0503 -1.1306
 4426TIP3   OH234768   4.292   3.672  11.413  0.0395 -0.4894  0.4134
 4426TIP3    H134769   4.265   3.750  11.462  1.1682 -0.0438  0.3318
 4426TIP3    H234770   4.263   3.689  11.324 -0.8839 -0.7448  0.6582
 4427TIP3   OH234771   1.010   6.546  13.646  0.1639 -0.2392 -0.1409
 4427TIP3    H134772   1.088   6.498  13.619  0.5061  1.3893 -2.1636
 4427TIP3    H234773   0.945   6.526  13.579 -0.9497 -1.0059  1.1421
 4428TIP3   OH234774   4.357   0.443   3.629 -0.4436  0.2819 -0.0273
 4428TIP3    H134775   4.266   0.414   3.642 -0.8804  0.8487 -1.7120
 4428TIP3    H234776   4.368   0.514   3.693 -0.7776 -0.5937  1.0359
 4429TIP3   OH234777   4.855   5.994   2.120 -0.2685 -0.0884 -0.0832
 4429TIP3    H134778   4.866   5.900   2.135 -0.2463 -0.0466  0.1641
 4429TIP3    H234779   4.864   6.033   2.207  0.7111  0.2430 -0.3264
 4430TIP3   OH234780   6.417   0.359  13.972  0.5464  0.3029  0.0566
 4430TIP3    H134781   6.353   0.370  13.902 -0.3859 -0.4591  0.7609
 4430TIP3    H234782   6.383   0.412  14.044  0.5932 -0.2493  0.4960
 4431TIP3   OH234783   2.878   2.417  13.849 -0.0276 -0.6534 -0.0895
 4431TIP3    H134784   2.962   2.433  13.892 -0.2929  0.0694  0.1547
 4431TIP3    H234785   2.868   2.322  13.852  0.2121 -0.6545  0.9520
 4432TIP3   OH234786   1.573   5.063  12.992  0.1833  0.3455 -0.0729
 4432TIP3    H134787   1.599   5.125  13.060  0.0957  1.4353 -1.0264
 4432TIP3    H234788   1.620   5.091  12.914  1.9156 -2.1484  0.0113
 4433TIP3   OH234789   1.969   0.808  14.068 -1.3031 -0.6018  0.1012
 4433TIP3    H134790   1.898   0.866  14.096 -0.9584 -0.7473  1.3180
 4433TIP3    H234791   2.048   0.861  14.081 -1.0174 -1.2045  0.8441
 4434TIP3   OH234792   5.479   1.314   2.981 -0.6819 -0.5723 -0.5069
 4434TIP3    H134793   5.406   1.286   3.037 -0.6309  1.0751  0.4254
 4434TIP3    H234794   5.441   1.378   2.922  0.4808  2.2654  1.6990
 4435TIP3   OH234795   6.678   0.047   0.263  0.6091 -0.2096  0.4206
 4435TIP3    H134796   6.669  -0.033   0.315  1.4892  0.1290  1.0949
 4435TIP3    H234797   6.617   0.034   0.190 -1.0154 -0.4868  1.7828
 4436TIP3   OH234798   4.735   0.253  13.898  0.1547 -0.0333  0.1807
 4436TIP3    H134799   4.806   0.207  13.853 -0.6942  0.0596 -1.2937
 4436TIP3    H234800   4.721   0.332  13.845  0.1150  0.8117  1.4375
 4437TIP3   OH234801   3.718   0.827   0.178 -0.0746 -0.1775 -0.2476
 4437TIP3    H134802   3.746   0.763   0.112 -1.0709  0.5513 -1.4202
 4437TIP3    H234803   3.623   0.815   0.183  0.1109 -0.8899  1.7986
 4438TIP3   OH234804   2.621   2.888   2.302 -0.2428  0.1350  0.2247
 4438TIP3    H134805   2.562   2.959   2.275  0.8935  1.2645  0.6188
 4438TIP3    H234806   2.571   2.840   2.368 -0.5717  1.3726  0.9159
 4439TIP3   OH234807   4.716   0.753  11.212  0.1873 -0.1558 -0.0072
 4439TIP3    H134808   4.690   0.712  11.130 -1.0213 -2.1962  1.3621
 4439TIP3    H234809   4.644   0.813  11.233 -1.1581 -2.1663  1.2739
 4440TIP3   OH234810   4.062   0.566   2.149 -0.5960  0.6640  0.2340
 4440TIP3    H134811   4.062   0.642   2.206  1.1647 -0.9919  2.5441
 4440TIP3    H234812   4.126   0.587   2.080 -2.6179  2.5953 -1.1004
 4441TIP3   OH234813   5.397   3.501   3.928  0.0773 -0.4969 -0.8711
 4441TIP3    H134814   5.344   3.423   3.912 -2.3354  0.4184  2.1608
 4441TIP3    H234815   5.477   3.467   3.969  0.1961 -1.5611 -1.9419
 4442TIP3   OH234816   0.309   5.217  13.408  0.5042  0.5885 -0.3187
 4442TIP3    H134817   0.220   5.253  13.408  0.8185  1.4349  1.6212
 4442TIP3    H234818   0.299   5.129  13.372 -1.3099  0.2554  0.9062
 4443TIP3   OH234819   5.405   3.794   2.851  0.1181  0.1175 -0.4406
 4443TIP3    H134820   5.349   3.809   2.927  1.8649 -0.4964  1.0223
 4443TIP3    H234821   5.354   3.823   2.776 -2.3236 -0.8848  0.7902
 4444TIP3   OH234822   0.806   1.079   5.799 -0.1515 -0.0323 -0.3424
 4444TIP3    H134823   0.810   1.171   5.825 -1.0411  0.6525 -2.5104
 4444TIP3    H234824   0.742   1.040   5.859  0.4015  0.7036  0.7408
 4445TIP3   OH234825   2.932   5.507   6.207 -0.1988 -0.8556 -0.2942
 4445TIP3    H134826   2.867   5.545   6.267  0.4781 -0.3398  0.1224
 4445TIP3    H234827   2.993   5.460   6.264  0.3822 -0.4564 -0.5770
 4446TIP3   OH234828   1.910   1.286   4.761 -0.5176  0.2815  0.1019
 4446TIP3    H134829   1.964   1.208   4.757 -1.2881 -0.3418  1.6872
 4446TIP3    H234830   1.972   1.359   4.751  0.3491 -0.4734 -0.0598
 4447TIP3   OH234831   2.926   4.445   2.620 -0.0606  0.2099 -0.2527
 4447TIP3    H134832   3.013   4.485   2.612  0.1312 -0.0431  0.5362
 4447TIP3    H234833   2.866   4.519   2.632  0.2910  0.2693  1.1928
 4448TIP3   OH234834   1.818   3.385   4.789 -0.0296  0.1675 -0.2531
 4448TIP3    H134835   1.817   3.476   4.820  0.0602  0.0534  0.0888
 4448TIP3    H234836   1.840   3.334   4.867 -0.7684 -0.2111 -0.2839
 4449TIP3   OH234837   0.993   1.949  15.312 -0.1669 -0.2170  0.1340
 4449TIP3    H134838   0.991   1.931  15.406 -1.0054 -0.6613  0.0277
 4449TIP3    H234839   0.920   1.900  15.275  0.4237 -0.4035 -0.8207
 4450TIP3   OH234840   5.823   1.216  11.737 -0.1244  0.3048  0.0800
 4450TIP3    H134841   5.806   1.309  11.751 -0.0622  0.4394 -0.7175
 4450TIP3    H234842   5.737   1.177  11.723  0.0219  0.6305 -1.8456
 4451TIP3   OH234843   3.342   5.941   4.609 -0.1416 -0.0955 -0.2433
 4451TIP3    H134844   3.337   6.016   4.668 -0.9567 -1.2523  1.2156
 4451TIP3    H234845   3.250   5.923   4.586 -0.0669 -1.4238  0.4540
 4452TIP3   OH234846   6.009   0.635  15.320 -0.5179 -0.0216 -0.2708
 4452TIP3    H134847   6.020   0.547  15.357 -0.1227  0.3229  0.4426
 4452TIP3    H234848   5.987   0.620  15.229  0.0856 -0.8603 -0.2846
 4453TIP3   OH234849   2.595   6.231   2.132  0.7217 -0.0410 -0.0037
 4453TIP3    H134850   2.532   6.211   2.063 -1.0318  1.3900  1.1226
 4453TIP3    H234851   2.590   6.157   2.192 -1.5398  1.0156  1.1954
 4454TIP3   OH234852   2.801   5.917  12.540  0.2582 -0.1927  0.5343
 4454TIP3    H134853   2.782   5.973  12.465  1.5479 -0.8276 -0.2813
 4454TIP3    H234854   2.896   5.906  12.539  0.4303  0.6326  2.8796
 4455TIP3   OH234855   2.887   2.372  15.989  0.5676 -0.6483 -0.4987
 4455TIP3    H134856   2.803   2.390  16.031 -0.0104 -0.8149 -1.5555
 4455TIP3    H234857   2.901   2.448  15.932  1.2375 -0.5252 -0.1725
 4456TIP3   OH234858   5.562   1.332   0.891  0.2445 -0.0455 -0.0296
 4456TIP3    H134859   5.520   1.257   0.849 -1.1030  0.9760 -0.5538
 4456TIP3    H234860   5.489   1.387   0.918  1.2451  1.4173 -0.2746
 4457TIP3   OH234861   2.428   6.547  14.593  0.1994  0.4196 -0.2504
 4457TIP3    H134862   2.414   6.459  14.558 -1.7340 -0.2364  2.0498
 4457TIP3    H234863   2.368   6.602  14.543 -0.1824  0.0548 -0.1953
 4458TIP3   OH234864   5.752   6.272  14.883 -0.2005  0.2638 -0.4857
 4458TIP3    H134865   5.841   6.272  14.846  0.2911  0.9675  0.6582
 4458TIP3    H234866   5.723   6.363  14.873 -0.0495  0.4701  0.8580
 4459TIP3   OH234867   6.337   6.693   4.545 -0.0804 -0.1398  0.0974
 4459TIP3    H134868   6.384   6.617   4.582 -1.0525 -0.3749  0.8690
 4459TIP3    H234869   6.400   6.733   4.486  0.9167 -0.7773  0.7043
 4460TIP3   OH234870   0.122   0.761   4.393 -0.2217  0.7978  0.5422
 4460TIP3    H134871   0.104   0.770   4.487 -0.4045  3.6054  0.2678
 4460TIP3    H234872   0.157   0.846   4.367  1.2502 -0.4255 -1.6515
 4461TIP3   OH234873   1.660   0.120   3.465  1.1178  0.0912  0.2573
 4461TIP3    H134874   1.651   0.056   3.536  1.7012  0.2473  0.4706
 4461TIP3    H234875   1.601   0.191   3.489  0.2685 -0.4752 -0.1083
 4462TIP3   OH234876   3.061   3.864   3.999 -0.2447  0.2039  0.0123
 4462TIP3    H134877   3.027   3.872   3.910 -2.4610  0.0489  0.7986
 4462TIP3    H234878   2.990   3.822   4.048  0.6977  0.8153  1.9697
 4463TIP3   OH234879   0.228   3.184   6.244 -0.2279  0.1527  0.0415
 4463TIP3    H134880   0.318   3.213   6.260  0.9929 -1.7893 -2.9584
 4463TIP3    H234881   0.216   3.111   6.305 -0.9788  2.4906  2.7943
 4464TIP3   OH234882   3.460   2.888   2.065  0.3672  0.2469  0.1043
 4464TIP3    H134883   3.528   2.838   2.020  2.9143  3.4820  0.2044
 4464TIP3    H234884   3.476   2.872   2.158  2.8211  3.1549  0.2506
 4465TIP3   OH234885   4.348   3.850  12.384  0.6360  0.0920  0.1555
 4465TIP3    H134886   4.391   3.930  12.352  0.4493  0.0061 -0.3073
 4465TIP3    H234887   4.280   3.882  12.443  1.1817  0.2378  0.7142
 4466TIP3   OH234888   3.409   6.446   4.126 -0.3468 -0.4684 -0.0718
 4466TIP3    H134889   3.430   6.375   4.065 -0.7092 -0.4811 -0.1829
 4466TIP3    H234890   3.332   6.416   4.173 -0.4069 -0.2186 -0.0068
 4467TIP3   OH234891   5.299   6.401  16.499  0.0678 -0.2973 -0.7463
 4467TIP3    H134892   5.227   6.420  16.439 -0.5456 -0.1198  0.0397
 4467TIP3    H234893   5.257   6.376  16.581  0.8985  0.1748 -0.1611
 4468TIP3   OH234894   2.244   0.777  12.956 -0.1146  0.0614 -0.1179
 4468TIP3    H134895   2.179   0.805  13.020  0.3545 -1.7479  1.1701
 4468TIP3    H234896   2.292   0.857  12.934 -1.2514  0.9721  0.6405
 4469TIP3   OH234897   5.383   4.809   5.428 -0.2203 -0.1515  0.1005
 4469TIP3    H134898   5.320   4.782   5.361 -0.9733  1.6502  0.0397
 4469TIP3    H234899   5.408   4.728   5.472 -0.8795 -1.1725 -1.3558
 4470TIP3   OH234900   2.782   5.280   6.140  0.3226 -0.6983 -0.0365
 4470TIP3    H134901   2.826   5.361   6.166 -0.3556 -0.3398 -0.0049
 4470TIP3    H234902   2.710   5.308   6.084 -0.0644 -1.2620  0.1671
 4471TIP3   OH234903   5.014   1.928   0.588  0.3356  0.2248 -0.0248
 4471TIP3    H134904   5.042   1.874   0.514  2.0507 -0.7174  1.2802
 4471TIP3    H234905   4.930   1.965   0.561  0.5027 -0.8597 -2.0572
 4472TIP3   OH234906   5.754   0.011  11.224  0.4021 -0.4507 -0.1970
 4472TIP3    H134907   5.673   0.058  11.242  0.3619 -0.9036  0.8307
 4472TIP3    H234908   5.823   0.075  11.243  0.3987 -1.3230  2.8824
 4473TIP3   OH234909   3.520   6.769  15.381  0.1091 -0.3408  0.1541
 4473TIP3    H134910   3.559   6.699  15.329 -1.0079 -1.1817  0.4319
 4473TIP3    H234911   3.448   6.802  15.327 -0.3977 -0.5106  0.7218
 4474TIP3   OH234912   1.468   1.601  14.445  0.2275  0.6556 -0.3264
 4474TIP3    H134913   1.393   1.649  14.479  2.2374  1.4340  3.2225
 4474TIP3    H234914   1.528   1.668  14.414  1.1100  0.2332  0.4484
 4475TIP3   OH234915   3.659   6.655   5.551  0.4380 -0.1652  0.0305
 4475TIP3    H134916   3.620   6.608   5.477  0.9310  1.5884 -1.3685
 4475TIP3    H234917   3.617   6.616   5.628 -1.4815 -0.7237 -1.2578
 4476TIP3   OH234918   6.287   4.032  12.027  0.0268 -0.0609  0.1008
 4476TIP3    H134919   6.317   4.083  11.952 -1.6077  0.3131 -0.3181
 4476TIP3    H234920   6.246   3.955  11.989 -0.8424  0.1456  0.5932
 4477TIP3   OH234921   5.344   3.634   0.001  0.1116  0.0173 -0.3737
 4477TIP3    H134922   5.261   3.601   0.036  1.8495 -1.8203  2.2054
 4477TIP3    H234923   5.347   3.725   0.032 -0.9444  0.1034 -0.4947
 4478TIP3   OH234924   0.584   1.691   5.713 -0.1551 -0.0506  0.3984
 4478TIP3    H134925   0.640   1.675   5.636  0.2525  1.1836  0.4350
 4478TIP3    H234926   0.574   1.604   5.753 -0.6487 -0.7704 -1.2329
 4479TIP3   OH234927   5.035   2.728  14.170  0.0353 -0.0767 -0.1304
 4479TIP3    H134928   5.077   2.642  14.172  1.3200  0.5031 -1.2584
 4479TIP3    H234929   4.976   2.724  14.094 -0.2490 -0.1155  0.0913
 4480TIP3   OH234930   3.425   3.848   5.228 -0.7755 -0.2135 -0.7046
 4480TIP3    H134931   3.358   3.867   5.162 -2.0169 -3.0762 -0.3142
 4480TIP3    H234932   3.475   3.775   5.192  0.3860  0.0782  0.2602
 4481TIP3   OH234933   5.172   2.047   2.515 -0.5242  0.0334  0.6246
 4481TIP3    H134934   5.249   2.032   2.570 -0.0482 -0.9484 -0.2868
 4481TIP3    H234935   5.199   2.019   2.428 -1.2988  1.5001 -0.1127
 4482TIP3   OH234936   6.638   6.495  16.767 -0.0790  0.1390 -0.0122
 4482TIP3    H134937   6.575   6.560  16.800  1.0398  0.7285  0.9697
 4482TIP3    H234938   6.583   6.422  16.738 -1.2714  0.9890  0.0585
 4483TIP3   OH234939   0.562   6.449  14.709 -1.0087 -0.4253  0.0947
 4483TIP3    H134940   0.632   6.481  14.651 -0.7693 -0.1139  0.5584
 4483TIP3    H234941   0.484   6.497  14.680 -1.0955 -0.9699 -0.6008
 4484TIP3   OH234942   1.987   2.478   0.954 -0.4985 -0.5703  0.1677
 4484TIP3    H134943   1.936   2.407   0.992  0.1891 -1.5437 -0.7110
 4484TIP3    H234944   1.926   2.523   0.896 -0.6595 -1.0356 -0.0199
 4485TIP3   OH234945   2.212   0.949   0.108  0.3793  0.1609  0.1926
 4485TIP3    H134946   2.206   0.922   0.199 -0.3903  1.0471  0.4177
 4485TIP3    H234947   2.196   1.044   0.110  1.4214  0.3681 -0.7353
 4486TIP3   OH234948   1.233   2.066   3.875  0.4491  0.1686  0.6264
 4486TIP3    H134949   1.194   2.119   3.944  0.5315 -0.4765  1.1675
 4486TIP3    H234950   1.253   2.129   3.805 -1.2723  0.5429  0.4544
 4487TIP3   OH234951   2.207   5.919  13.258  0.0546  0.2709 -0.2784
 4487TIP3    H134952   2.156   5.961  13.327  0.6979  2.0278 -0.8300
 4487TIP3    H234953   2.203   5.826  13.278  1.3608  0.8153  2.9554
 4488TIP3   OH234954   5.756   6.077   4.984 -0.2911  0.5317 -0.2020
 4488TIP3    H134955   5.695   6.127   4.929 -1.9063  0.7438  1.7147
 4488TIP3    H234956   5.715   6.077   5.070  0.4431 -2.8190  0.2043
 4489TIP3   OH234957   5.647   2.106  16.349  0.5706 -0.2172  0.1000
 4489TIP3    H134958   5.696   2.176  16.392 -0.1685  0.3403  0.0376
 4489TIP3    H234959   5.711   2.036  16.336  1.4158  0.6176 -0.2428
 4490TIP3   OH234960   6.098   4.376   4.249  0.4907  0.3300 -0.0862
 4490TIP3    H134961   6.167   4.313   4.266 -1.0892 -1.0516  1.4347
 4490TIP3    H234962   6.050   4.341   4.174  0.1713  0.1816  0.1842
 4491TIP3   OH234963   4.307   3.283   3.701 -0.0464  0.5072  0.1230
 4491TIP3    H134964   4.248   3.214   3.731  0.7067  0.1420  0.7602
 4491TIP3    H234965   4.325   3.261   3.610 -0.4836  0.3331  0.0774
 4492TIP3   OH234966   0.922   4.291   0.567  0.1774 -0.2127 -0.0995
 4492TIP3    H134967   0.871   4.324   0.641  0.4572  0.0826 -0.0395
 4492TIP3    H234968   0.865   4.306   0.491  0.4018  0.6409 -0.1048
 4493TIP3   OH234969   0.373   3.613  15.439  0.2246  0.0471 -0.4707
 4493TIP3    H134970   0.397   3.658  15.520  1.1437 -0.1258 -0.6491
 4493TIP3    H234971   0.337   3.529  15.468 -0.0069  0.2288 -0.2189
 4494TIP3   OH234972   1.158   3.027  17.230  0.0353 -0.6457 -0.2069
 4494TIP3    H134973   1.142   2.969  17.304  1.9606  0.1268  0.8301
 4494TIP3    H234974   1.240   2.994  17.191 -1.1236 -1.2696 -2.2328
 4495TIP3   OH234975   3.057   3.257  15.576  0.4822  0.4594 -0.2343
 4495TIP3    H134976   3.061   3.201  15.654 -1.0885  1.9687  0.9474
 4495TIP3    H234977   3.033   3.343  15.609  0.0221  1.1734 -2.3638
 4496TIP3   OH234978   3.966   0.168  10.473 -0.2058 -0.3943 -0.2620
 4496TIP3    H134979   3.911   0.204  10.542 -0.2300 -0.4911 -0.2309
 4496TIP3    H234980   3.948   0.074  10.474  0.0498 -0.4426 -0.1702
 4497TIP3   OH234981   2.843   3.817  16.168  0.2423 -0.3224 -0.1432
 4497TIP3    H134982   2.820   3.904  16.200  0.4868 -0.3218  0.0344
 4497TIP3    H234983   2.845   3.827  16.073  1.8611  0.2803 -0.0681
 4498TIP3   OH234984   1.563   0.021  15.859  0.3672  0.1140 -1.0136
 4498TIP3    H134985   1.623  -0.039  15.814 -0.0882 -0.9477 -0.2420
 4498TIP3    H234986   1.478  -0.022  15.852 -0.1577  1.2221 -1.4015
 4499TIP3   OH234987   4.296   1.513  12.642  0.6301  0.1223  0.1147
 4499TIP3    H134988   4.265   1.568  12.714  3.0389  2.2404 -0.4193
 4499TIP3    H234989   4.365   1.459  12.681  0.9589  0.2571 -0.2862
 4500TIP3   OH234990   3.194   6.368   0.693  0.1101 -0.4042 -0.2714
 4500TIP3    H134991   3.105   6.397   0.712  0.4988 -0.4408  1.7987
 4500TIP3    H234992   3.185   6.276   0.666 -0.5354 -0.2561 -0.5427
 4501TIP3   OH234993   2.845   4.301  12.196 -0.2335 -0.3330 -0.0657
 4501TIP3    H134994   2.931   4.270  12.224 -0.0044  0.5232  0.2047
 4501TIP3    H234995   2.821   4.367  12.261  0.5446  2.1022 -2.1800
 4502TIP3   OH234996   3.355   3.385   3.801  0.1349  0.0555  0.5132
 4502TIP3    H134997   3.410   3.393   3.879  0.2773 -0.2176  0.4403
 4502TIP3    H234998   3.297   3.461   3.804 -1.6858 -1.3514  2.3132
 4503TIP3   OH234999   4.089   1.248  14.810 -0.0394  0.5302 -0.9272
 4503TIP3    H135000   4.015   1.236  14.750 -2.6751  2.1113  1.8528
 4503TIP3    H235001   4.075   1.184  14.880  1.2897  0.7541 -0.4296
 4504TIP3   OH235002   2.646   4.280  17.173  0.2554 -0.1739  0.2619
 4504TIP3    H135003   2.682   4.194  17.195 -1.5458 -0.8230  0.7725
 4504TIP3    H235004   2.652   4.285  17.078 -0.4108 -1.2474  0.1482
 4505TIP3   OH235005   6.652   3.339  16.479 -0.7425 -0.2081 -0.0604
 4505TIP3    H135006   6.712   3.282  16.430 -3.1161 -0.6409 -2.5632
 4505TIP3    H235007   6.681   3.428  16.459  1.2550 -0.4140  1.6649
 4506TIP3   OH235008   3.351   6.721  15.598  0.2571 -0.4432 -0.0149
 4506TIP3    H135009   3.267   6.745  15.560  0.2516 -1.4142 -0.6430
 4506TIP3    H235010   3.416   6.747  15.533  0.7259  3.0208  1.7029
 4507TIP3   OH235011   3.455   2.333  13.561  0.0227 -0.0230 -0.1871
 4507TIP3    H135012   3.435   2.413  13.611 -1.6274  0.0125 -0.8820
 4507TIP3    H235013   3.425   2.352  13.473  3.0515 -0.0358 -1.2768
 4508TIP3   OH235014   5.148   5.167  13.850 -0.3537 -0.0391  0.3568
 4508TIP3    H135015   5.215   5.151  13.782 -0.1719 -1.5570  0.8702
 4508TIP3    H235016   5.075   5.111  13.824 -1.3689  1.4941 -0.1051
 4509TIP3   OH235017   4.249   3.020   5.688 -0.0454  0.4165 -0.4782
 4509TIP3    H135018   4.219   3.011   5.778 -0.3576  0.0122 -0.6203
 4509TIP3    H235019   4.169   3.041   5.638 -0.1330 -0.8634 -0.8891
 4510TIP3   OH235020   5.866   4.067  15.073 -0.0082 -0.4270  0.5944
 4510TIP3    H135021   5.778   4.105  15.062  0.3571 -0.0156 -1.0600
 4510TIP3    H235022   5.887   4.082  15.165 -0.3668  2.3904  0.2734
 4511TIP3   OH235023   3.604   1.261   3.629  0.6858  0.0431  0.4455
 4511TIP3    H135024   3.637   1.204   3.698  0.9764 -0.2678  0.0476
 4511TIP3    H235025   3.590   1.204   3.554  2.2182  0.7204 -0.3663
 4512TIP3   OH235026   0.285   5.759   4.918  0.1456  0.1840  0.6988
 4512TIP3    H135027   0.204   5.747   4.868  0.2657  0.0455  0.5393
 4512TIP3    H235028   0.355   5.740   4.856  0.2811 -0.6897  1.1069
 4513TIP3   OH235029   0.598   5.831  16.822 -0.4944  0.4879 -0.3563
 4513TIP3    H135030   0.547   5.852  16.744 -3.2699 -0.4963  1.1486
 4513TIP3    H235031   0.603   5.736  16.823 -0.0954  0.5118  0.4438
 4514TIP3   OH235032   5.517   3.822  15.315 -0.9766  0.0713 -0.5178
 4514TIP3    H135033   5.442   3.764  15.304 -0.0765 -0.9094 -1.6675
 4514TIP3    H235034   5.577   3.797  15.245 -0.8545  2.8564 -1.5055
 4515TIP3   OH235035   2.926   2.468  15.242 -0.2060 -0.3062  0.0029
 4515TIP3    H135036   2.871   2.542  15.270  0.3840  0.5534 -1.0533
 4515TIP3    H235037   2.944   2.420  15.323 -0.7937  0.5813  0.6794
 4516TIP3   OH235038   5.980   3.139   5.895 -0.9324  0.4247  0.4603
 4516TIP3    H135039   5.885   3.130   5.892 -1.2345  2.9496  1.0071
 4516TIP3    H235040   6.002   3.187   5.815 -0.1445  0.0251  0.4337
 4517TIP3   OH235041   5.503   5.302  11.371 -0.1600 -0.3659  0.0642
 4517TIP3    H135042   5.571   5.292  11.304 -0.0471  1.2758 -0.0771
 4517TIP3    H235043   5.535   5.250  11.445  0.5520 -0.7701 -0.5168
 4518TIP3   OH235044   6.600   5.968   0.598  0.3058 -0.1108  0.3591
 4518TIP3    H135045   6.525   5.972   0.657 -1.0718 -0.8585 -1.2858
 4518TIP3    H235046   6.588   5.886   0.550 -0.0625  1.7650 -2.8383
 4519TIP3   OH235047   5.361   2.198  13.030 -0.2000  0.5764 -0.2435
 4519TIP3    H135048   5.273   2.162  13.040 -0.5299  1.2208 -0.7842
 4519TIP3    H235049   5.412   2.155  13.098 -1.1289  0.8107  0.6190
 4520TIP3   OH235050   1.170   0.896   4.296 -0.1822  0.1909  0.0240
 4520TIP3    H135051   1.164   0.849   4.213 -0.7199  1.1328 -0.4745
 4520TIP3    H235052   1.168   0.827   4.362  2.5090 -0.7407 -0.7865
 4521TIP3   OH235053   3.137   5.235   4.092 -0.0096 -0.2489  0.2391
 4521TIP3    H135054   3.173   5.307   4.042 -0.6936 -0.3497 -0.4168
 4521TIP3    H235055   3.200   5.219   4.162  1.1982 -0.4339 -0.8866
 4522TIP3   OH235056   6.760   3.535  12.659  0.7204  0.1317  0.2939
 4522TIP3    H135057   6.803   3.618  12.639 -1.6536  1.0532 -1.2241
 4522TIP3    H235058   6.830   3.480  12.693  2.7617  2.0836 -0.5752
 4523TIP3   OH235059   5.578   4.918   3.104 -0.2710 -0.2774  0.0817
 4523TIP3    H135060   5.559   5.003   3.065 -0.2273 -0.3997 -0.2137
 4523TIP3    H235061   5.521   4.857   3.056  0.4039 -0.5540 -0.3630
 4524TIP3   OH235062   1.761   3.417  15.596  0.4293  0.1950 -0.2835
 4524TIP3    H135063   1.681   3.384  15.553 -1.0698  0.1181  2.4443
 4524TIP3    H235064   1.765   3.509  15.571 -0.4253  0.1534 -0.6160
 4525TIP3   OH235065   6.320   0.126   3.915 -0.1749 -0.1279  0.2080
 4525TIP3    H135066   6.414   0.142   3.920 -0.5169  2.1096 -0.2079
 4525TIP3    H235067   6.307   0.087   3.829  0.1359  1.3010 -0.4959
 4526TIP3   OH235068   5.380   6.028   5.756  0.1026  0.6330  0.1874
 4526TIP3    H135069   5.356   5.960   5.819 -0.9440  0.4546 -0.3864
 4526TIP3    H235070   5.425   5.980   5.686 -0.4687  0.5578 -0.1282
 4527TIP3   OH235071   5.778   4.491  11.390 -0.2995  0.9579 -0.2015
 4527TIP3    H135072   5.698   4.479  11.442 -0.7164 -0.3712 -1.1251
 4527TIP3    H235073   5.747   4.489  11.299  1.0104 -1.4430 -0.6200
 4528TIP3   OH235074   1.500   5.432  12.854 -1.2037 -0.4588 -0.1426
 4528TIP3    H135075   1.445   5.505  12.828 -0.5512 -0.4248 -1.4478
 4528TIP3    H235076   1.439   5.364  12.882 -1.7947  0.8614  1.8842
 4529TIP3   OH235077   4.123   4.741  13.753 -0.0134 -0.1537 -0.2045
 4529TIP3    H135078   4.041   4.774  13.791 -0.9380 -2.2240 -0.3489
 4529TIP3    H235079   4.191   4.771  13.813 -1.1263 -0.5267  1.2735
 4530TIP3   OH235080   2.348   4.564  14.346 -0.2407  0.0187  0.0012
 4530TIP3    H135081   2.392   4.480  14.359 -1.0354 -0.5009 -0.5754
 4530TIP3    H235082   2.418   4.625  14.324  0.4836 -0.2308  1.5779
 4531TIP3   OH235083   1.823   4.183  14.515 -0.4210 -0.6417 -0.1193
 4531TIP3    H135084   1.781   4.176  14.430 -1.9144 -0.8097  0.6232
 4531TIP3    H235085   1.831   4.277  14.530 -2.0843 -0.5926  0.4908
 4532TIP3   OH235086   6.229   3.961   4.835  0.2783  0.2643  0.1343
 4532TIP3    H135087   6.237   4.030   4.901 -2.0309  1.0233 -0.3213
 4532TIP3    H235088   6.253   3.881   4.881  0.2773  1.0065  1.4546
 4533TIP3   OH235089   5.762   4.888  11.971 -0.1062  0.3759  0.5430
 4533TIP3    H135090   5.672   4.860  11.961 -0.1639  1.0295 -0.9286
 4533TIP3    H235091   5.762   4.941  12.051 -1.0560  0.4953  0.4690
 4534TIP3   OH235092   2.560   2.884   4.193 -0.5526  0.4555 -0.0990
 4534TIP3    H135093   2.609   2.823   4.139 -1.9185  0.2556 -1.1406
 4534TIP3    H235094   2.582   2.860   4.283 -0.3604 -0.9582 -0.5170
 4535TIP3   OH235095   2.927   6.562   5.842  0.4553 -0.0311 -0.3080
 4535TIP3    H135096   2.923   6.613   5.760  1.0607  0.3530 -0.1023
 4535TIP3    H235097   2.962   6.477   5.816  1.1204  0.2582 -0.3755
 4536TIP3   OH235098   3.427   1.687  11.759 -0.4738  0.0712  0.1771
 4536TIP3    H135099   3.337   1.710  11.736 -0.5195  0.2712  0.5394
 4536TIP3    H235100   3.420   1.647  11.846 -0.0652  1.3838  0.8437
 4537TIP3   OH235101   0.651   6.079  13.517  0.7175  0.3227  0.4486
 4537TIP3    H135102   0.564   6.087  13.479  0.3488 -0.3145  1.1344
 4537TIP3    H235103   0.650   5.994  13.560  0.8209  1.3779  2.6019
 4538TIP3   OH235104   5.750   4.886  14.097 -0.2577  0.4941 -0.7657
 4538TIP3    H135105   5.752   4.926  14.184  0.1310 -1.4555  0.1569
 4538TIP3    H235106   5.810   4.938  14.045  0.1651  1.1748  0.3789
 4539TIP3   OH235107   2.995   0.447   3.267  0.2785  0.0325  0.0333
 4539TIP3    H135108   3.002   0.503   3.344 -1.2866  0.4571 -0.1292
 4539TIP3    H235109   2.984   0.507   3.193 -2.2160 -0.4623 -0.0503
 4540TIP3   OH235110   3.113   1.098   4.742  0.1503 -0.2067  0.3091
 4540TIP3    H135111   3.025   1.063   4.731 -0.3906  1.2932 -0.2091
 4540TIP3    H235112   3.152   1.092   4.655 -0.7164  2.4936 -0.3106
 4541TIP3   OH235113   6.599   2.709  12.208 -0.2612 -0.0186 -0.1085
 4541TIP3    H135114   6.641   2.630  12.240 -0.7259  0.0213  0.6122
 4541TIP3    H235115   6.665   2.778  12.218 -0.2920 -0.0730  0.4495
 4542TIP3   OH235116   2.245   6.012  12.119  0.3637 -0.3213 -0.0357
 4542TIP3    H135117   2.225   5.936  12.064  0.1480  0.4790 -1.0601
 4542TIP3    H235118   2.332   6.040  12.091  0.5922 -0.3885  0.5864
 4543TIP3   OH235119   2.523   0.183  13.428  0.0304  0.0622  0.5012
 4543TIP3    H135120   2.468   0.176  13.350 -2.5300  1.0551  2.1637
 4543TIP3    H235121   2.571   0.100  13.430 -1.3114 -0.7886 -1.0481
 4544TIP3   OH235122   1.047   6.114   5.487  0.4958 -0.2540 -0.0810
 4544TIP3    H135123   1.040   6.163   5.405 -0.0668  0.5181  0.4180
 4544TIP3    H235124   1.102   6.169   5.543 -0.1263 -0.2044  0.4789
 4545TIP3   OH235125   1.373   0.003   1.526 -0.3986  0.0600 -0.0791
 4545TIP3    H135126   1.413  -0.047   1.455 -0.3590  0.0571 -0.0544
 4545TIP3    H235127   1.414   0.090   1.520 -0.2977  0.0196  0.0238
 4546TIP3   OH235128   2.967   1.054   3.831 -0.2446 -0.4947  0.2997
 4546TIP3    H135129   3.046   1.016   3.868  0.8401  1.7077  0.3224
 4546TIP3    H235130   2.935   0.989   3.769  1.6031 -1.3805  0.2684
 4547TIP3   OH235131   3.867   3.562  16.170  0.1059  0.4507 -0.1010
 4547TIP3    H135132   3.959   3.539  16.184 -0.2793  0.1902  2.1062
 4547TIP3    H235133   3.819   3.483  16.193 -0.7228  0.7917 -0.6410
 4548TIP3   OH235134   4.934   3.545   6.611  0.0784 -0.1417  0.0888
 4548TIP3    H135135   4.997   3.514   6.676  0.3274  1.1698  0.4912
 4548TIP3    H235136   4.859   3.574   6.663 -1.0073 -2.0326 -0.4120
 4549TIP3   OH235137   0.009   2.441  12.282  0.2637 -0.0112 -0.2948
 4549TIP3    H135138  -0.016   2.455  12.373  1.3661 -1.2162  0.1926
 4549TIP3    H235139  -0.070   2.407  12.240 -0.2735  0.6479  0.1710
 4550TIP3   OH235140   4.712   0.717  16.732 -0.3457 -0.4974 -0.4280
 4550TIP3    H135141   4.670   0.639  16.697  0.6395 -1.4522  0.4927
 4550TIP3    H235142   4.709   0.780  16.660 -1.4435 -1.2650 -1.0642
 4551TIP3   OH235143   2.960   3.076  16.455  0.0455 -0.0769  0.6098
 4551TIP3    H135144   2.938   3.004  16.515  1.9721 -0.5646  0.7781
 4551TIP3    H235145   3.055   3.086  16.464 -0.2598  2.8863  1.0235
 4552TIP3   OH235146   2.234   4.773  12.381 -0.2780  0.6661 -0.2617
 4552TIP3    H135147   2.182   4.704  12.341 -0.2828  0.9424 -0.7260
 4552TIP3    H235148   2.172   4.821  12.436 -0.3810  0.6042 -0.3215
 4553TIP3   OH235149   6.307   1.507   0.068 -0.2692 -0.4095  0.2353
 4553TIP3    H135150   6.257   1.483  -0.010  1.6162  0.4834 -1.2774
 4553TIP3    H235151   6.369   1.436   0.080 -1.5776 -1.3089  1.8654
 4554TIP3   OH235152   1.053   2.230   5.886  0.1038  0.2666  1.0086
 4554TIP3    H135153   0.961   2.242   5.912 -0.8503 -0.7788 -1.6676
 4554TIP3    H235154   1.081   2.316   5.856 -0.4324  0.2930  0.5808
 4555TIP3   OH235155   4.599   1.507   5.909  0.7835 -0.7154 -0.0252
 4555TIP3    H135156   4.672   1.500   5.970  0.6091 -1.4028  0.1032
 4555TIP3    H235157   4.590   1.601   5.894  0.3541 -0.4804  1.5740
 4556TIP3   OH235158   1.079   0.168  16.596  0.0297 -0.4516 -0.0403
 4556TIP3    H135159   1.071   0.082  16.638  1.1856 -0.6354 -0.2029
 4556TIP3    H235160   1.091   0.149  16.503 -0.8266 -0.0761 -0.2423
 4557TIP3   OH235161   6.109   4.710  13.448  0.4484 -0.3926 -0.2119
 4557TIP3    H135162   6.104   4.659  13.529 -1.2187 -2.0294 -1.3065
 4557TIP3    H235163   6.033   4.683  13.398 -0.2387  2.8730 -1.0533
 4558TIP3   OH235164   6.384   1.270  12.598 -0.3483  0.6856  0.0478
 4558TIP3    H135165   6.476   1.243  12.597 -0.6723 -0.5718  1.7684
 4558TIP3    H235166   6.338   1.199  12.555 -0.6660  0.7245  0.3258
 4559TIP3   OH235167   5.992   6.440  12.165 -0.8911 -0.3683 -0.0410
 4559TIP3    H135168   5.925   6.436  12.233 -2.9428  1.6958 -1.8461
 4559TIP3    H235169   6.025   6.530  12.171 -1.1527 -0.1468 -1.7809
 4560TIP3   OH235170   5.404   0.098  13.260 -0.2586  0.0311 -0.2996
 4560TIP3    H135171   5.477   0.104  13.199  0.0822 -0.2256  0.0793
 4560TIP3    H235172   5.341   0.041  13.216 -0.5831  0.8930 -0.9743
 4561TIP3   OH235173   3.403   1.528  16.578 -0.0780 -0.1700  0.4575
 4561TIP3    H135174   3.441   1.535  16.491  1.7326  0.7942  1.2949
 4561TIP3    H235175   3.457   1.464  16.623  0.7063  1.3177  1.7046
 4562TIP3   OH235176   1.399   3.856  16.189  0.1345 -0.0372 -0.0832
 4562TIP3    H135177   1.370   3.812  16.269 -1.6727 -0.4696 -0.9508
 4562TIP3    H235178   1.363   3.803  16.118  1.6474  0.3917 -1.1901
 4563TIP3   OH235179   0.207   6.031   0.436 -0.3068 -0.1755  0.2342
 4563TIP3    H135180   0.294   6.062   0.463  0.8340 -0.2498 -3.0944
 4563TIP3    H235181   0.151   6.108   0.444  0.6737  0.5940 -0.1199
 4564TIP3   OH235182   5.575   1.138  13.860 -0.2881  0.3538 -0.0825
 4564TIP3    H135183   5.647   1.077  13.842  0.2141  0.9133  0.0227
 4564TIP3    H235184   5.611   1.201  13.921 -0.6186  1.1225 -0.6685
 4565TIP3   OH235185   6.223   6.520  12.346  0.8136  1.3874  0.1612
 4565TIP3    H135186   6.222   6.591  12.282  1.7661  1.4369  0.2001
 4565TIP3    H235187   6.155   6.543  12.409 -1.7333  0.2091 -2.0529
 4566TIP3   OH235188   5.144   3.923  11.736  0.0988 -0.2125 -0.3311
 4566TIP3    H135189   5.191   3.944  11.655 -0.3872  0.9425 -0.3161
 4566TIP3    H235190   5.068   3.982  11.736  0.7101  0.6088  1.5283
 4567TIP3   OH235191   6.392   4.213  12.435  0.1017  0.0490  0.3175
 4567TIP3    H135192   6.318   4.266  12.404  0.0010  0.2363  0.8805
 4567TIP3    H235193   6.370   4.191  12.525  0.3625 -0.5643  0.2332
 4568TIP3   OH235194   5.118   6.313   1.061 -0.4255 -0.0380  0.0690
 4568TIP3    H135195   5.058   6.347   0.994 -1.0829 -0.2179  0.5539
 4568TIP3    H235196   5.063   6.302   1.138  0.2428 -0.2058  0.5249
 4569TIP3   OH235197   2.880   6.719   1.351 -0.2798 -0.1715 -0.3768
 4569TIP3    H135198   2.932   6.799   1.347  0.8881 -0.9356 -0.9584
 4569TIP3    H235199   2.910   6.674   1.430  0.0049 -0.6561 -0.7566
 4570TIP3   OH235200   0.944   6.124  15.329  0.6348  0.2441 -0.4936
 4570TIP3    H135201   0.971   6.152  15.416  1.6735  0.2486 -0.8222
 4570TIP3    H235202   0.926   6.205  15.282 -0.3327  0.2314 -0.1597
 4571TIP3   OH235203   1.621   0.036  14.911  0.3036 -0.1528 -0.2525
 4571TIP3    H135204   1.639   0.115  14.961  1.1898 -1.1892  1.0795
 4571TIP3    H235205   1.530   0.046  14.882  0.5860  1.6056 -0.5860
 4572TIP3   OH235206   6.614   0.644   0.257  0.5198 -0.1567  0.0865
 4572TIP3    H135207   6.531   0.597   0.258 -0.8461  2.1845  0.9199
 4572TIP3    H235208   6.600   0.717   0.197  2.5780 -0.7139 -1.1494
 4573TIP3   OH235209   6.305   0.734  11.145  0.3040  1.0581 -0.6543
 4573TIP3    H135210   6.391   0.692  11.151 -0.0706  0.3808  0.0413
 4573TIP3    H235211   6.252   0.674  11.093  0.0865  1.1956 -0.5928
 4574TIP3   OH235212   6.388   1.248  11.527 -0.4082 -0.2206  0.1893
 4574TIP3    H135213   6.444   1.171  11.519  0.5347  0.4165  0.5822
 4574TIP3    H235214   6.324   1.225  11.594 -1.6045 -1.5394 -1.3633
 4575TIP3   OH235215   3.463   4.258  11.982  0.5448  0.4843  0.1980
 4575TIP3    H135216   3.411   4.327  11.939  0.2448 -0.3176 -0.7468
 4575TIP3    H235217   3.408   4.180  11.978  0.9480  0.1453  1.1308
 4576TIP3   OH235218   2.582   2.816  15.904  0.3052  0.4148 -0.6730
 4576TIP3    H135219   2.529   2.801  15.982 -0.6081 -2.0260 -1.6874
 4576TIP3    H235220   2.539   2.889  15.859 -0.1949  0.6791  0.2273
 4577TIP3   OH235221   4.226   6.762  11.542 -0.2610 -0.1095 -0.1911
 4577TIP3    H135222   4.319   6.742  11.541 -0.4994 -1.7072  3.1491
 4577TIP3    H235223   4.183   6.676  11.536 -1.6412  0.7118 -4.0216
 4578TIP3   OH235224   3.960   0.039   6.038 -0.1687  0.3205  0.5041
 4578TIP3    H135225   3.866   0.048   6.023 -0.1282 -0.1875 -0.0921
 4578TIP3    H235226   3.999   0.114   5.994 -0.1802 -0.3066 -0.6127
 4579TIP3   OH235227   1.269   1.568   1.970 -0.8762  0.2072  0.8054
 4579TIP3    H135228   1.325   1.638   2.003 -2.5276  1.8645  0.1667
 4579TIP3    H235229   1.292   1.491   2.023  2.1494  0.7714  0.3931
 4580TIP3   OH235230   6.409   5.667   3.255  0.2772 -0.6772 -0.3507
 4580TIP3    H135231   6.395   5.664   3.350 -0.4907 -0.3085 -0.4487
 4580TIP3    H235232   6.333   5.622   3.218  2.1743 -3.7145 -0.6691
 4581TIP3   OH235233   5.940   1.328   5.828  0.7190 -0.0266  0.4170
 4581TIP3    H135234   5.995   1.365   5.758 -0.3526  1.9861  0.6198
 4581TIP3    H235235   5.918   1.240   5.797 -0.0031  0.9516 -1.9537
 4582TIP3   OH235236   1.381   1.572   0.680  0.4001 -0.0155  0.4916
 4582TIP3    H135237   1.448   1.619   0.730  0.5934  1.6736 -1.2825
 4582TIP3    H235238   1.298   1.610   0.710  0.3329 -0.9932  1.5515
 4583TIP3   OH235239   3.608   6.452   1.007 -0.1024  0.4344 -0.2100
 4583TIP3    H135240   3.513   6.443   1.013 -0.1134  1.2804  1.1669
 4583TIP3    H235241   3.641   6.393   1.075  0.4312 -1.1380 -1.8094
 4584TIP3   OH235242   3.427   1.460   0.894 -0.0697  0.1914  0.2655
 4584TIP3    H135243   3.460   1.378   0.858  0.1652  1.0226 -1.4550
 4584TIP3    H235244   3.339   1.469   0.857 -0.0300  0.7873  0.3140
 4585TIP3   OH235245   3.505   1.621  16.310  0.0343  0.2222 -0.0787
 4585TIP3    H135246   3.545   1.683  16.249 -0.8282 -1.2671 -2.2106
 4585TIP3    H235247   3.576   1.560  16.332  0.1550  0.3185 -0.1998
 4586TIP3   OH235248   1.708   5.898  15.782 -0.0662 -0.4044  0.0139
 4586TIP3    H135249   1.795   5.897  15.740  0.2981  2.4603  0.6302
 4586TIP3    H235250   1.714   5.830  15.849  0.8724 -1.8914 -1.5280
 4587TIP3   OH235251   2.932   6.530   3.440  0.1249 -0.4721  0.0054
 4587TIP3    H135252   2.847   6.539   3.482  0.3389 -0.9359  0.5454
 4587TIP3    H235253   2.978   6.612   3.460 -0.4589  0.0871 -0.9082
 4588TIP3   OH235254   2.767   3.177  15.530  0.5593 -0.4083 -0.3719
 4588TIP3    H135255   2.737   3.259  15.490  2.5571  0.8962  0.7117
 4588TIP3    H235256   2.862   3.182  15.527  0.7151 -2.2481  0.6093
 4589TIP3   OH235257   2.453   4.337   3.521  0.5089 -0.4852  0.0732
 4589TIP3    H135258   2.484   4.346   3.431  0.8095 -1.1775  0.1015
 4589TIP3    H235259   2.530   4.307   3.570  0.7805  1.4828  0.8854
 4590TIP3   OH235260   4.794   1.887  15.404 -0.7513 -0.2252 -0.1286
 4590TIP3    H135261   4.799   1.968  15.354 -1.1824 -0.7451 -1.0247
 4590TIP3    H235262   4.884   1.873  15.435 -0.4205 -0.0360 -0.9776
 4591TIP3   OH235263   5.655   4.972   3.996  0.2898 -0.1690 -0.1943
 4591TIP3    H135264   5.667   5.065   3.979 -0.2639 -0.2424 -1.0202
 4591TIP3    H235265   5.560   4.961   3.999  0.3562 -0.4643  1.2922
 4592TIP3   OH235266   2.638   2.330  17.229 -0.4027  0.3183  0.7038
 4592TIP3    H135267   2.639   2.316  17.323 -1.3919  0.2208  0.7041
 4592TIP3    H235268   2.577   2.264  17.196  0.6611 -0.2823 -0.1087
 4593TIP3   OH235269   4.430   4.596  12.092 -0.1731 -0.1086  0.2574
 4593TIP3    H135270   4.435   4.569  12.183 -3.0801 -1.2320  0.1268
 4593TIP3    H235271   4.445   4.515  12.042  0.9087  0.4080 -0.2728
 4594TIP3   OH235272   2.963   2.503   1.296 -0.3542  0.0487 -0.0303
 4594TIP3    H135273   2.964   2.596   1.276  1.0931  0.0455 -0.0577
 4594TIP3    H235274   2.890   2.492   1.357 -0.1053  1.3062  0.5051
 4595TIP3   OH235275   6.137   5.024  15.661 -0.5684 -0.2895 -0.0203
 4595TIP3    H135276   6.217   5.006  15.710  0.2749 -0.0153 -1.2796
 4595TIP3    H235277   6.156   5.102  15.611 -1.4079 -0.5877 -0.8208
 4596TIP3   OH235278   5.785   1.336   3.011  0.8478 -0.2522  0.0996
 4596TIP3    H135279   5.840   1.341   2.933 -0.4564 -0.3151 -0.8354
 4596TIP3    H235280   5.695   1.331   2.977  0.3457 -1.6042  1.5771
 4597TIP3   OH235281   3.306   1.220  16.048 -0.3516  0.2734 -0.0414
 4597TIP3    H135282   3.301   1.301  16.097 -0.0204 -1.3079  2.7195
 4597TIP3    H235283   3.366   1.165  16.098 -0.5089 -1.6647 -1.8789
 4598TIP3   OH235284   4.208   6.505   1.537 -0.0041  0.0385 -0.7900
 4598TIP3    H135285   4.193   6.428   1.483 -0.3975  0.5046 -1.3505
 4598TIP3    H235286   4.299   6.497   1.567  0.3082 -0.0693 -1.7590
 4599TIP3   OH235287   5.996   1.318   4.805 -0.7165  0.1006  0.2486
 4599TIP3    H135288   6.082   1.315   4.763 -0.6288  0.2603  0.4200
 4599TIP3    H235289   5.956   1.399   4.771  0.3971  1.6581  2.5271
 4600TIP3   OH235290   2.933   2.697  16.424  0.2152  0.0691 -0.2563
 4600TIP3    H135291   2.848   2.742  16.421 -0.2222 -0.7153  0.2234
 4600TIP3    H235292   2.924   2.634  16.495  1.1840 -0.0711 -0.2553
 4601TIP3   OH235293   5.526   1.305  15.970 -0.3898 -0.4013 -0.0462
 4601TIP3    H135294   5.439   1.343  15.957 -0.2017  0.1131  0.1759
 4601TIP3    H235295   5.545   1.260  15.887 -0.5225  0.1899 -0.4003
 4602TIP3   OH235296   4.604   4.811   4.288 -0.0298  0.1058  0.4846
 4602TIP3    H135297   4.535   4.744   4.282  0.4693 -0.2585 -1.3953
 4602TIP3    H235298   4.684   4.761   4.303  0.1677  0.3665  0.2927
 4603TIP3   OH235299   3.652   1.231   3.211 -0.0486  0.5553  0.7023
 4603TIP3    H135300   3.643   1.136   3.208  0.6493  0.3607  3.5862
 4603TIP3    H235301   3.698   1.253   3.130  1.4782 -1.7843  0.8836
 4604TIP3   OH235302   0.195   2.939  12.541 -0.4499 -0.3544 -0.0919
 4604TIP3    H135303   0.120   2.910  12.489 -1.0130 -0.2562  0.6683
 4604TIP3    H235304   0.212   3.028  12.511  0.6258 -1.0764 -1.6845
 4605TIP3   OH235305   1.045   3.937  14.781  0.2618  0.5941  0.0648
 4605TIP3    H135306   1.110   3.913  14.716 -1.6791  2.1108 -2.5463
 4605TIP3    H235307   1.076   4.020  14.817 -0.0953  1.2025 -1.0143
 4606TIP3   OH235308   1.258   4.537  14.625 -0.1073 -0.6548 -0.1952
 4606TIP3    H135309   1.195   4.469  14.598  0.4869 -0.8488 -1.1445
 4606TIP3    H235310   1.331   4.488  14.662 -0.2145 -0.4671  0.2595
 4607TIP3   OH235311   3.316   6.152   1.013 -0.3567  0.4735 -0.0475
 4607TIP3    H135312   3.314   6.067   0.968  0.9447  0.7505 -0.6595
 4607TIP3    H235313   3.306   6.216   0.942 -1.4857  0.8282  0.4296
 4608TIP3   OH235314   1.487   0.023   5.520  0.7269 -0.1433  0.2064
 4608TIP3    H135315   1.579   0.045   5.533  0.7384 -0.2685  0.3331
 4608TIP3    H235316   1.485  -0.023   5.436  0.7427  0.0993  0.0750
 4609TIP3   OH235317   2.509   4.097  13.336 -0.1574  0.2918 -0.0860
 4609TIP3    H135318   2.580   4.082  13.398 -0.7479  1.1397  0.8114
 4609TIP3    H235319   2.471   4.181  13.363 -0.5197  0.6017 -1.4960
 4610TIP3   OH235320   1.346   6.573   5.536  0.2933 -0.0673  0.5902
 4610TIP3    H135321   1.419   6.552   5.479  0.3663 -0.4402  0.8175
 4610TIP3    H235322   1.385   6.624   5.608  0.3097 -0.1583  0.6457
 4611TIP3   OH235323   1.299   3.518  12.056  0.1955 -0.0258 -0.0545
 4611TIP3    H135324   1.340   3.435  12.030  0.3790  0.5249 -1.5748
 4611TIP3    H235325   1.256   3.499  12.139  1.0321 -1.3986  0.0773
 4612TIP3   OH235326   1.824   4.387  11.984  0.5841  0.0558 -0.2430
 4612TIP3    H135327   1.918   4.406  11.988  1.4718 -3.5623 -2.5873
 4612TIP3    H235328   1.802   4.396  11.892 -0.9949 -0.9546  0.0349
 4613TIP3   OH235329   2.659   2.122   3.960 -0.4808 -0.2518 -0.6222
 4613TIP3    H135330   2.659   2.027   3.972  0.1507 -0.1138  0.5228
 4613TIP3    H235331   2.644   2.157   4.047  2.0701  0.7635 -0.5546
 4614TIP3   OH235332   1.786   1.361   6.066 -0.0506 -0.1929  0.2019
 4614TIP3    H135333   1.700   1.322   6.054 -0.5101  0.4215  1.3728
 4614TIP3    H235334   1.767   1.451   6.094  0.9475 -0.3296  1.3811
 4615TIP3   OH235335   2.589   0.656  14.336 -0.0433 -0.2428  0.0642
 4615TIP3    H135336   2.574   0.571  14.294 -0.3026 -0.6883  1.0228
 4615TIP3    H235337   2.551   0.720  14.276 -0.0984 -0.8320 -0.5365
 4616TIP3   OH235338   4.456   4.740  14.392 -0.2380  0.4136 -0.3329
 4616TIP3    H135339   4.412   4.803  14.449 -0.6628 -0.1926  0.0035
 4616TIP3    H235340   4.387   4.706  14.336 -0.2439 -0.7268  0.3657
 4617TIP3   OH235341   4.975   2.304   3.090  0.0380 -0.1724 -0.0157
 4617TIP3    H135342   5.045   2.328   3.029 -0.0720 -0.6628 -0.3350
 4617TIP3    H235343   4.898   2.293   3.035 -0.5503  1.4013  0.4583
 4618TIP3   OH235344   0.854   0.033   0.401 -0.0349  0.6232 -0.3114
 4618TIP3    H135345   0.771   0.077   0.416 -0.4652  0.6890 -2.7785
 4618TIP3    H235346   0.881   0.060   0.313  2.0504 -0.2607  0.0164
 4619TIP3   OH235347   0.661   4.344  13.855 -0.5613 -0.5285  0.1114
 4619TIP3    H135348   0.688   4.266  13.903 -1.0982 -0.1740  1.0002
 4619TIP3    H235349   0.569   4.329  13.833 -0.3211 -0.6877 -0.8186
 4620TIP3   OH235350   3.000   3.238  15.322  0.4308  0.0196  0.2360
 4620TIP3    H135351   3.007   3.248  15.417 -1.3147  0.4356  0.3312
 4620TIP3    H235352   2.957   3.319  15.293 -1.7134 -1.3805 -0.5649
 4621TIP3   OH235353   1.841   0.021   2.732 -0.3207  0.0715 -0.2021
 4621TIP3    H135354   1.894  -0.019   2.662 -1.9448 -0.3143 -1.2456
 4621TIP3    H235355   1.751   0.015   2.700 -1.1319 -0.3359  2.0401
 4622TIP3   OH235356   4.433   0.396  14.289  0.6299 -0.5355  0.3203
 4622TIP3    H135357   4.396   0.427  14.206  0.5541 -0.7174  0.2861
 4622TIP3    H235358   4.499   0.332  14.263  1.4030  0.2241  0.3478
 4623TIP3   OH235359   5.383   0.761   3.799 -0.6220 -0.2227  0.2968
 4623TIP3    H135360   5.322   0.809   3.855 -0.7179 -1.1684  1.0208
 4623TIP3    H235361   5.417   0.692   3.855 -0.1506 -0.7268 -0.5993
 4624TIP3   OH235362   0.831   3.284   3.207 -0.8397  0.1664  0.2654
 4624TIP3    H135363   0.781   3.311   3.130  0.2607  1.8225  0.0955
 4624TIP3    H235364   0.802   3.343   3.277 -1.5944 -1.1126  1.0640
 4625TIP3   OH235365   2.629   5.864   6.148 -0.3555 -0.0540  0.4423
 4625TIP3    H135366   2.573   5.927   6.193  0.4071  3.0688 -2.7025
 4625TIP3    H235367   2.710   5.864   6.197 -0.3878  1.4275  0.5152
 4626TIP3   OH235368   3.710   1.099  12.109  0.0614 -0.1364  0.4259
 4626TIP3    H135369   3.770   1.173  12.105 -1.3912  0.9915 -1.3125
 4626TIP3    H235370   3.666   1.108  12.194  0.9014  0.1773  0.8280
 4627TIP3   OH235371   3.503   0.699   6.014 -0.1180  0.1415 -0.4018
 4627TIP3    H135372   3.427   0.749   6.043 -1.6282 -1.6719 -1.1517
 4627TIP3    H235373   3.511   0.628   6.077  1.1588  0.4987 -0.1491
 4628TIP3   OH235374   3.306   2.305   1.964 -0.2485  0.5386  0.2848
 4628TIP3    H135375   3.267   2.252   1.894 -0.3807 -0.5662  1.1738
 4628TIP3    H235376   3.242   2.374   1.981  0.5932  1.9231 -1.9265
 4629TIP3   OH235377   6.667   1.752  12.209 -0.2610 -0.1452 -0.4773
 4629TIP3    H135378   6.724   1.816  12.253 -2.5787 -0.3504  3.0082
 4629TIP3    H235379   6.688   1.669  12.250 -1.6231 -0.5735 -0.6453
 4630TIP3   OH235380   3.381   0.979   3.269  0.5226  0.1927 -0.1308
 4630TIP3    H135381   3.291   0.947   3.281  0.7012 -0.3519 -0.2250
 4630TIP3    H235382   3.377   1.027   3.186  0.1943  0.6289  0.1367
 4631TIP3   OH235383   1.308   1.524   1.549 -0.0990  0.0682 -0.7288
 4631TIP3    H135384   1.307   1.470   1.470  1.2715 -2.1070  0.6834
 4631TIP3    H235385   1.235   1.492   1.601 -0.0475  0.4472 -0.4164
 4632TIP3   OH235386   4.570   3.222   0.642 -0.4481  0.4640 -0.0795
 4632TIP3    H135387   4.604   3.299   0.687  1.1225  0.5249 -1.2991
 4632TIP3    H235388   4.481   3.247   0.615 -0.6282  1.1595  1.1385
 4633TIP3   OH235389   1.038   5.550  14.849  0.4233  0.0116  0.0105
 4633TIP3    H135390   1.095   5.624  14.827  0.4676  0.2633  0.9770
 4633TIP3    H235391   0.972   5.549  14.779  0.5929  0.7744 -0.1667
 4634TIP3   OH235392   4.924   2.075  17.151 -0.1824 -0.4055  0.6500
 4634TIP3    H135393   4.858   2.031  17.097 -1.1687  2.2985 -0.3983
 4634TIP3    H235394   5.004   2.025  17.136 -0.3209  0.4810 -3.6556
 4635TIP3   OH235395   2.598   1.500  15.168  0.4250 -0.7408  0.4309
 4635TIP3    H135396   2.671   1.456  15.212  1.1400  0.5013  0.5259
 4635TIP3    H235397   2.640   1.567  15.114 -0.6489  0.0319  0.5315
 4636TIP3   OH235398   6.699   6.036  10.804  0.0929 -0.0763 -0.1401
 4636TIP3    H135399   6.645   5.959  10.786 -0.3531  0.3353 -0.5735
 4636TIP3    H235400   6.680   6.096  10.732  0.5491  0.3784  0.1189
 4637TIP3   OH235401   2.116   3.698  12.383  0.2244  0.2235 -0.7888
 4637TIP3    H135402   2.038   3.643  12.382 -0.7072  1.5194 -2.3211
 4637TIP3    H235403   2.085   3.784  12.355  1.9586  1.1074 -0.0898
 4638TIP3   OH235404   4.394   6.400   5.848 -0.1406 -0.0812 -0.0533
 4638TIP3    H135405   4.436   6.405   5.934 -1.6203  0.7837  0.6180
 4638TIP3    H235406   4.325   6.334   5.859 -1.2824  1.0911 -0.1745
 4639TIP3   OH235407   3.084   4.526  14.885 -0.7451  0.5300  0.4492
 4639TIP3    H135408   3.135   4.531  14.965  0.8685  0.9883 -0.5914
 4639TIP3    H235409   3.145   4.493  14.819 -1.8455  0.8607 -0.7692
 4640TIP3   OH235410   4.123   1.286   5.168 -0.1994 -0.0624  0.2443
 4640TIP3    H135411   4.069   1.349   5.217 -0.3643  0.6482 -0.8280
 4640TIP3    H235412   4.077   1.203   5.177  0.5850 -0.2937  2.5967
 4641TIP3   OH235413   3.012   0.737   4.646 -0.0073 -0.1606 -0.3250
 4641TIP3    H135414   3.087   0.741   4.706 -0.6305  1.0984  0.3819
 4641TIP3    H235415   2.993   0.643   4.638 -0.1385 -0.3297  1.7104
 4642TIP3   OH235416   0.056   0.380   3.537 -0.0588  0.5866 -0.4328
 4642TIP3    H135417  -0.033   0.392   3.572  0.8866  1.5112  1.7822
 4642TIP3    H235418   0.074   0.461   3.490 -0.6534  0.0900 -1.5360
 4643TIP3   OH235419   1.773   2.255  16.981 -0.2628 -0.3445  0.0654
 4643TIP3    H135420   1.753   2.169  17.017  1.0697  0.4290  2.8030
 4643TIP3    H235421   1.690   2.303  16.988 -0.5164 -0.8058  0.2820
 4644TIP3   OH235422   5.878   4.813   2.750 -0.3178 -0.1790 -0.3378
 4644TIP3    H135423   5.787   4.843   2.753 -0.3390 -0.3572  0.9655
 4644TIP3    H235424   5.924   4.872   2.810  0.4651  0.0104 -1.1149
 4645TIP3   OH235425   3.377   5.081   3.050  0.2185 -0.2269 -0.0719
 4645TIP3    H135426   3.294   5.127   3.059  0.8078  0.6522  1.0438
 4645TIP3    H235427   3.443   5.150   3.048  0.9269 -0.9174 -0.9899
 4646TIP3   OH235428   5.716   0.935  15.720  0.0739 -0.0750 -0.1176
 4646TIP3    H135429   5.669   0.858  15.690  0.6999 -0.2196 -0.7637
 4646TIP3    H235430   5.772   0.959  15.646  1.6068 -0.3865  0.9247
 4647TIP3   OH235431   3.101   6.765  16.407  0.5951 -0.0707  0.5065
 4647TIP3    H135432   3.156   6.768  16.486  0.7859 -1.3381  0.4350
 4647TIP3    H235433   3.149   6.818  16.343  1.5032 -0.7743  0.5903
 4648TIP3   OH235434   6.375   3.571  12.571  0.4873  0.0396 -0.0238
 4648TIP3    H135435   6.377   3.481  12.603  3.1067 -0.0324 -0.3297
 4648TIP3    H235436   6.299   3.574  12.513  0.4240 -1.9753 -0.0718
 4649TIP3   OH235437   0.288   0.183  13.440  0.3396 -0.0961 -0.9790
 4649TIP3    H135438   0.313   0.191  13.532 -1.4039  0.9742 -0.5730
 4649TIP3    H235439   0.204   0.136  13.442  1.9421 -3.1452 -2.2721
 4650TIP3   OH235440   5.898   5.345   1.634  0.3901  0.0272 -0.2110
 4650TIP3    H135441   5.863   5.379   1.552  0.3613 -0.6580 -0.4907
 4650TIP3    H235442   5.962   5.410   1.662  0.3874  0.2744 -0.7708
 4651TIP3   OH235443   1.296   6.785  11.482  0.0712  0.4008 -0.2241
 4651TIP3    H135444   1.244   6.731  11.542  1.9939  0.4928  1.5762
 4651TIP3    H235445   1.246   6.866  11.473 -0.1942  0.4135  1.3328
 4652TIP3   OH235446   5.868   4.015  17.192 -0.0632  0.5666 -0.0270
 4652TIP3    H135447   5.849   4.009  17.099 -0.0463  0.4315 -0.0224
 4652TIP3    H235448   5.916   3.934  17.211 -0.8128  0.1861  0.2773
 4653TIP3   OH235449   0.841   1.956   6.690  0.2760 -0.0940  0.1525
 4653TIP3    H135450   0.864   1.886   6.629  0.4304  1.1613 -1.2553
 4653TIP3    H235451   0.746   1.950   6.700  0.4529 -1.4482  1.2412
 4654TIP3   OH235452   4.088   5.839   1.611  0.2027  0.6534  0.3650
 4654TIP3    H135453   4.042   5.891   1.545  0.6433 -0.3815 -0.7719
 4654TIP3    H235454   4.035   5.759   1.619  1.8706 -0.6511 -1.1217
 4655TIP3   OH235455   6.166   5.456   1.196  0.0344  0.0440 -0.4282
 4655TIP3    H135456   6.139   5.393   1.129  1.1237  1.1341 -1.9292
 4655TIP3    H235457   6.198   5.531   1.146 -0.5827  1.5057  1.3373
 4656TIP3   OH235458   2.042   6.042   0.302  0.3166  0.2540 -0.0719
 4656TIP3    H135459   2.042   6.048   0.398 -2.7258 -0.1865  0.0030
 4656TIP3    H235460   2.018   6.130   0.273  0.6866  0.2409 -0.4075
 4657TIP3   OH235461   3.942   0.515  11.719  0.3146 -0.7627 -0.0161
 4657TIP3    H135462   3.857   0.524  11.675 -0.4798 -0.0546  1.5951
 4657TIP3    H235463   3.954   0.421  11.729 -0.5296 -0.8515  0.1883
 4658TIP3   OH235464   4.899   2.989  16.978  0.4412  0.3493  0.1742
 4658TIP3    H135465   4.935   3.014  17.063  0.1487 -0.0004  0.3992
 4658TIP3    H235466   4.965   2.931  16.940 -0.3182 -1.0901  1.0092
 4659TIP3   OH235467   3.937   5.478  12.936 -0.6855 -0.4612 -0.5454
 4659TIP3    H135468   4.004   5.430  12.983 -0.3204 -0.8164 -1.4243
 4659TIP3    H235469   3.919   5.554  12.991 -0.3483 -0.9337  0.2207
 4660TIP3   OH235470   6.601   3.729  12.509  0.0996 -0.0714  0.0893
 4660TIP3    H135471   6.536   3.661  12.524  0.3131 -0.4316 -0.5996
 4660TIP3    H235472   6.646   3.738  12.593  1.7618 -2.5635 -0.4880
 4661TIP3   OH235473   3.316   2.091   1.023 -0.0926 -0.6720 -0.4454
 4661TIP3    H135474   3.221   2.084   1.027 -0.3263  1.2858 -2.0531
 4661TIP3    H235475   3.333   2.185   1.032  1.6167 -0.8721 -1.5147
 4662TIP3   OH235476   5.123   3.085  11.737 -0.0523 -0.2591  0.2621
 4662TIP3    H135477   5.038   3.078  11.694  0.7578  0.3283 -1.4717
 4662TIP3    H235478   5.173   3.011  11.702  0.8601  0.6634 -0.3688
 4663TIP3   OH235479   1.229   4.902   4.446  0.1743  0.3326 -0.2640
 4663TIP3    H135480   1.253   4.960   4.374 -1.7887 -0.5195 -1.6188
 4663TIP3    H235481   1.184   4.829   4.405 -0.4201 -0.4829  1.7716
 4664TIP3   OH235482   5.287   0.413   1.229 -0.2903 -0.1085 -0.1089
 4664TIP3    H135483   5.321   0.383   1.313  1.9444 -2.1000 -1.6563
 4664TIP3    H235484   5.331   0.497   1.214  1.2933 -0.9836 -0.4557
 4665TIP3   OH235485   1.732   4.947  17.131 -0.5123 -0.2993  0.2400
 4665TIP3    H135486   1.741   4.866  17.081 -1.5524  0.2567 -0.8809
 4665TIP3    H235487   1.652   4.936  17.182 -1.6081  0.6614 -1.2091
 4666TIP3   OH235488   1.833   4.533  11.728  0.2047 -0.1662 -0.2176
 4666TIP3    H135489   1.831   4.501  11.638  0.8588 -0.9572  0.0469
 4666TIP3    H235490   1.909   4.591  11.731 -1.1872  1.7641 -0.7944
 4667TIP3   OH235491   4.474   3.386   6.345  0.2444 -0.0212 -0.1332
 4667TIP3    H135492   4.406   3.453   6.355  1.8642  1.5374  0.5841
 4667TIP3    H235493   4.447   3.316   6.404 -0.9727  0.3842 -0.1949
 4668TIP3   OH235494   0.636   5.498  13.727 -0.5858 -0.3049 -0.2091
 4668TIP3    H135495   0.690   5.525  13.653 -1.0108 -1.0541 -0.8029
 4668TIP3    H235496   0.547   5.492  13.691 -0.8913 -0.0982  0.5032
 4669TIP3   OH235497   4.440   5.798   0.993  0.2291  0.5840  0.2485
 4669TIP3    H135498   4.480   5.722   1.034 -2.2510 -1.2743 -0.6797
 4669TIP3    H235499   4.365   5.819   1.048 -0.0155  1.3873 -0.3667
 4670TIP3   OH235500   3.650   5.884   0.641  0.0529  0.1678  0.4581
 4670TIP3    H135501   3.732   5.931   0.651  0.8160 -1.2151  0.8132
 4670TIP3    H235502   3.624   5.899   0.550 -0.2394  2.1013  0.8506
 4671TIP3   OH235503   1.576   5.487  10.670  0.2695 -0.4665  0.0611
 4671TIP3    H135504   1.665   5.521  10.676  0.0317  0.6776 -2.1929
 4671TIP3    H235505   1.586   5.393  10.661  1.2560 -0.3150 -0.4322
 4672TIP3   OH235506   0.365   1.423   1.611  0.7487  0.6628  0.3763
 4672TIP3    H135507   0.447   1.470   1.596 -0.4158  2.4889 -0.3934
 4672TIP3    H235508   0.326   1.414   1.524  0.2280 -0.4059  0.7039
 4673TIP3   OH235509   6.788   1.655   3.688  0.2212 -0.0281 -0.6344
 4673TIP3    H135510   6.705   1.653   3.736  0.9650  0.6665  0.6900
 4673TIP3    H235511   6.773   1.596   3.613 -0.7722 -1.5377  0.7086
 4674TIP3   OH235512   5.996   4.477   1.568 -0.8777 -0.1677  0.0689
 4674TIP3    H135513   5.919   4.493   1.513 -0.7146  1.7489  0.3704
 4674TIP3    H235514   6.068   4.518   1.521 -0.6621  1.1402  1.5051
 4675TIP3   OH235515   1.670   1.980  13.517 -0.2211 -0.3940 -0.0674
 4675TIP3    H135516   1.633   2.062  13.550 -2.7350 -1.3823 -0.3699
 4675TIP3    H235517   1.679   1.924  13.594  2.4695  0.4723  0.3102
 4676TIP3   OH235518   5.249   6.751   2.310 -1.2556  0.6065  1.1896
 4676TIP3    H135519   5.311   6.808   2.355  1.7152 -0.2246 -1.6768
 4676TIP3    H235520   5.238   6.677   2.369  0.2340  0.9210  1.8956
 4677TIP3   OH235521   1.154   0.448   4.268  0.1825 -0.1426 -0.3109
 4677TIP3    H135522   1.196   0.368   4.300 -1.7924 -0.4321  1.7170
 4677TIP3    H235523   1.185   0.516   4.327  0.6784  0.3295 -1.1048
 4678TIP3   OH235524   3.190   3.002   4.700 -0.4118  0.6522 -1.1071
 4678TIP3    H135525   3.113   3.030   4.749  0.1995  1.2625 -0.4811
 4678TIP3    H235526   3.236   2.942   4.758 -0.8837 -0.4186 -1.8317
 4679TIP3   OH235527   4.141   5.974  12.058  0.3412 -0.3437 -0.6083
 4679TIP3    H135528   4.201   5.922  12.112  3.1742  0.3518 -2.8918
 4679TIP3    H235529   4.182   5.973  11.971 -0.4318  4.2711 -1.1195
 4680TIP3   OH235530   1.377   2.065  10.989 -0.2874  0.3935  0.0272
 4680TIP3    H135531   1.357   2.107  10.905  1.5921  2.4178  0.5633
 4680TIP3    H235532   1.313   2.102  11.050  0.2533  1.1945  0.1184
 4681TIP3   OH235533   3.100   3.730   0.381 -0.0515  0.0253 -0.0367
 4681TIP3    H135534   3.105   3.799   0.447 -0.6596  0.0751 -0.0415
 4681TIP3    H235535   3.168   3.668   0.406  0.5400  0.6572 -0.0700
 4682TIP3   OH235536   1.753   6.761   0.707  0.6783  0.4236 -0.0912
 4682TIP3    H135537   1.703   6.756   0.788 -2.0541  1.8181 -1.6335
 4682TIP3    H235538   1.701   6.818   0.650  3.1195  0.4195 -2.4161
 4683TIP3   OH235539   4.239   1.887  11.569 -0.2656 -0.6945  0.6265
 4683TIP3    H135540   4.199   1.972  11.555  1.2174  0.0987  1.1298
 4683TIP3    H235541   4.231   1.872  11.664 -0.9948 -1.3612  0.4679
 4684TIP3   OH235542   1.354   4.792  15.097 -0.4840 -0.1539  0.5552
 4684TIP3    H135543   1.416   4.790  15.025  0.7152 -2.5725  1.5740
 4684TIP3    H235544   1.376   4.870  15.147  1.6951 -0.9298  0.8366
 4685TIP3   OH235545   6.730   2.750  11.374 -0.1765 -0.0308  0.1663
 4685TIP3    H135546   6.637   2.756  11.393 -0.2037 -1.5179  0.5522
 4685TIP3    H235547   6.735   2.725  11.282 -0.1003  2.3038 -0.5148
 4686TIP3   OH235548   1.693   2.090   1.650 -0.2998  0.8708  0.1790
 4686TIP3    H135549   1.692   2.124   1.740 -3.0069 -0.3535  0.6778
 4686TIP3    H235550   1.605   2.053   1.638  1.3666 -2.7665 -1.5401
 4687TIP3   OH235551   4.140   2.066  11.997  0.2712 -0.1287 -0.6224
 4687TIP3    H135552   4.060   2.033  11.957 -0.4814  1.1543 -0.1733
 4687TIP3    H235553   4.166   2.140  11.943  0.7585 -0.0830 -0.3324
 4688TIP3   OH235554   6.059   3.302   2.797  0.0676 -0.3866 -0.2781
 4688TIP3    H135555   6.025   3.278   2.883 -1.1615 -1.0711 -0.9413
 4688TIP3    H235556   6.152   3.318   2.812  0.0312 -1.2883  1.0261
 4689TIP3   OH235557   4.811   1.153  13.653  0.9304 -0.3923 -0.3952
 4689TIP3    H135558   4.797   1.112  13.739 -1.6153  1.4698  0.1281
 4689TIP3    H235559   4.904   1.174  13.652  0.9078  0.0281  2.1582
 4690TIP3   OH235560   5.690   0.252  12.204 -0.0015 -0.4036  0.1713
 4690TIP3    H135561   5.630   0.299  12.263  0.3120 -0.9167  0.9090
 4690TIP3    H235562   5.770   0.241  12.255  0.9191  0.7355 -0.9964
 4691TIP3   OH235563   1.223   5.519   0.068  0.3210  0.1053 -0.7121
 4691TIP3    H135564   1.193   5.532   0.158 -1.5211 -1.0634 -1.1406
 4691TIP3    H235565   1.250   5.427   0.065  1.1796  0.3659 -1.1404
 4692TIP3   OH235566   4.410   5.491  12.554  0.0141 -0.1860 -0.4442
 4692TIP3    H135567   4.387   5.561  12.492 -0.7500 -0.2619 -0.2592
 4692TIP3    H235568   4.419   5.536  12.638 -0.6084 -0.3171 -0.2992
 4693TIP3   OH235569   0.714   1.676  14.160 -0.2162 -0.6788  0.1771
 4693TIP3    H135570   0.801   1.695  14.127 -0.4713  1.4998  0.7211
 4693TIP3    H235571   0.656   1.737  14.115 -1.2992 -1.2535  0.7466
 4694TIP3   OH235572   2.879   6.656  13.018  0.1819 -0.3045 -0.0687
 4694TIP3    H135573   2.894   6.729  13.078  2.5109 -1.0630  0.3173
 4694TIP3    H235574   2.868   6.580  13.075  0.3593 -0.6810 -0.5280
 4695TIP3   OH235575   5.311   5.129   4.253  0.2349 -0.9875  0.5084
 4695TIP3    H135576   5.343   5.216   4.274  2.2561 -1.8211  0.9649
 4695TIP3    H235577   5.259   5.141   4.173  2.3316  0.2927 -0.6984
 4696TIP3   OH235578   1.543   1.548   3.704  0.1696 -0.0891 -0.4999
 4696TIP3    H135579   1.576   1.473   3.655 -0.2435 -0.4605 -0.2216
 4696TIP3    H235580   1.619   1.584   3.749  1.1652  2.1173 -3.8060
 4697TIP3   OH235581   0.074   1.789  15.369  0.5367 -0.1424 -0.4417
 4697TIP3    H135582   0.028   1.871  15.351 -0.1325 -0.4439 -0.1169
 4697TIP3    H235583   0.167   1.811  15.361  0.3145  0.2772 -1.9019
 4698TIP3   OH235584   5.524   0.338   4.256  0.1064 -0.4458  0.1126
 4698TIP3    H135585   5.469   0.289   4.196 -1.8354  2.5606 -0.6938
 4698TIP3    H235586   5.593   0.375   4.201  1.3556 -1.9198  0.6552
 4699TIP3   OH235587   4.274   5.202  14.340 -0.3927 -0.3321  0.0124
 4699TIP3    H135588   4.240   5.276  14.390 -0.1994 -0.1525 -0.1216
 4699TIP3    H235589   4.348   5.238  14.290  0.1825 -0.7800  0.5243
 4700TIP3   OH235590   3.911   2.020   1.205  0.1450 -0.0335  0.4013
 4700TIP3    H135591   3.988   2.014   1.261 -0.8243  1.1818  1.9267
 4700TIP3    H235592   3.846   1.964   1.247 -0.1204 -0.2754 -0.3214
 4701TIP3   OH235593   4.850   0.891   6.310 -0.5721  0.4610  0.2330
 4701TIP3    H135594   4.928   0.839   6.326 -0.3272  0.6375 -0.3717
 4701TIP3    H235595   4.860   0.968   6.366 -1.3204 -0.5138  1.7468
 4702TIP3   OH235596   4.970   5.913   6.497 -0.3466  0.1069  0.1381
 4702TIP3    H135597   4.990   5.995   6.543 -0.5416 -0.2302  0.8263
 4702TIP3    H235598   4.999   5.929   6.407 -0.7822  1.0966  0.1590
 4703TIP3   OH235599   1.876   6.143  13.692  0.6720 -0.1917  0.2089
 4703TIP3    H135600   1.824   6.173  13.617  1.7299 -0.8278 -0.7987
 4703TIP3    H235601   1.920   6.222  13.723  1.1278 -0.1360 -0.5662
 4704TIP3   OH235602   6.741   1.261   2.467  0.3330  0.3335 -0.0973
 4704TIP3    H135603   6.835   1.275   2.454  0.7291 -0.2977  1.8783
 4704TIP3    H235604   6.710   1.342   2.507  0.3045  0.0874  0.3964
 4705TIP3   OH235605   4.484   5.591   4.892  0.3711 -0.3881 -0.3075
 4705TIP3    H135606   4.391   5.596   4.910  0.1220 -1.8170 -1.1305
 4705TIP3    H235607   4.526   5.596   4.978 -0.4388  0.5262  0.0445
 4706TIP3   OH235608   5.088   2.117  13.031  0.0582 -0.6803  0.5038
 4706TIP3    H135609   5.086   2.021  13.021 -0.1224 -0.4825 -1.7099
 4706TIP3    H235610   4.999   2.139  13.059 -0.5775 -0.9898 -1.1735
 4707TIP3   OH235611   0.468   2.273   4.389 -0.7379  0.0876  0.0199
 4707TIP3    H135612   0.475   2.202   4.324 -0.8093 -1.5012  1.7239
 4707TIP3    H235613   0.402   2.242   4.451  1.7700  0.0612  2.7445
 4708TIP3   OH235614   4.382   6.627   3.180 -0.5923  0.3402  0.0880
 4708TIP3    H135615   4.343   6.698   3.130 -0.7723  1.2907  1.5285
 4708TIP3    H235616   4.471   6.657   3.198  0.3404 -1.1473 -1.8808
 4709TIP3   OH235617   6.707   3.693   0.627 -0.1738 -0.3292  0.0110
 4709TIP3    H135618   6.756   3.645   0.561  0.0910  0.4625 -0.3802
 4709TIP3    H235619   6.744   3.664   0.711  0.6430 -0.0900 -0.2613
 4710TIP3   OH235620   1.721   4.408   0.802  0.2618 -0.3377 -0.3534
 4710TIP3    H135621   1.643   4.450   0.765 -0.2711 -0.8951  0.1181
 4710TIP3    H235622   1.750   4.346   0.735 -2.0367 -3.0036  1.0164
 4711TIP3   OH235623   4.291   0.486  12.331 -0.1234  0.6425  0.4454
 4711TIP3    H135624   4.316   0.411  12.278 -1.3725  0.0264  0.6951
 4711TIP3    H235625   4.339   0.559  12.294  1.5022 -0.3659  0.5260
 4712TIP3   OH235626   0.155   0.198  15.810  0.3912 -0.1757 -0.2973
 4712TIP3    H135627   0.061   0.188  15.792  0.0983 -1.2813  1.6956
 4712TIP3    H235628   0.175   0.288  15.785 -0.8421 -0.3995 -2.2387
 4713TIP3   OH235629   0.637   1.186   3.193  0.4394 -0.1140 -0.5135
 4713TIP3    H135630   0.572   1.257   3.197 -0.1335 -0.7150  1.3050
 4713TIP3    H235631   0.718   1.226   3.225 -0.3514 -0.7447  2.4335
 4714TIP3   OH235632   0.699   3.034   5.809  0.3319  0.1875 -0.7138
 4714TIP3    H135633   0.627   2.976   5.834  0.6659 -0.3630 -1.0037
 4714TIP3    H235634   0.764   3.020   5.878  0.1487  0.7034 -0.4379
 4715TIP3   OH235635   0.114   1.854   4.608 -0.2309 -0.6489 -0.5937
 4715TIP3    H135636   0.062   1.903   4.544 -0.1464  1.7411  1.1068
 4715TIP3    H235637   0.195   1.834   4.562 -0.6275  0.0344 -1.6256
 4716TIP3   OH235638   6.168   2.633   4.938  0.3965  0.2540 -0.0173
 4716TIP3    H135639   6.172   2.718   4.895  4.3065  1.0856  1.8065
 4716TIP3    H235640   6.079   2.630   4.975 -0.3643  2.8118 -1.4735
 4717TIP3   OH235641   1.360   4.768   1.782 -0.1323  0.1425  0.2736
 4717TIP3    H135642   1.445   4.788   1.822 -0.3309 -1.1046  1.3288
 4717TIP3    H235643   1.329   4.853   1.748  1.1753  0.7434  0.5570
 4718TIP3   OH235644   5.471   3.009   5.202 -1.1015 -0.7898 -0.6268
 4718TIP3    H135645   5.424   2.931   5.229 -0.4297 -0.8274  0.4369
 4718TIP3    H235646   5.402   3.075   5.188 -1.4139 -0.4693  2.1596
 4719TIP3   OH235647   0.317   0.305   3.481  0.0174 -0.2251  0.3725
 4719TIP3    H135648   0.354   0.343   3.401  1.2095 -2.5068 -0.2400
 4719TIP3    H235649   0.225   0.331   3.481  0.4786  1.4557 -0.6996
 4720TIP3   OH235650   4.162   5.244  16.690 -0.6012 -0.1553  0.0159
 4720TIP3    H135651   4.244   5.195  16.696 -0.1314  0.8589  2.0165
 4720TIP3    H235652   4.150   5.257  16.596  0.9174 -1.3406 -0.3688
 4721TIP3   OH235653   2.527   3.555  15.005  0.6286  0.3762  0.0616
 4721TIP3    H135654   2.490   3.522  14.923 -1.5090 -0.6247  1.3561
 4721TIP3    H235655   2.586   3.485  15.034  0.4592  0.1910 -0.0355
 4722TIP3   OH235656   6.764   2.298   0.699 -0.5298  0.6454  0.0299
 4722TIP3    H135657   6.753   2.327   0.790  0.8012 -3.4710  1.6204
 4722TIP3    H235658   6.690   2.240   0.683  0.1060  0.1022 -0.9800
 4723TIP3   OH235659   2.298   1.738  12.625 -0.1809 -0.1134  0.3844
 4723TIP3    H135660   2.217   1.719  12.577  0.0040 -2.1197  0.8089
 4723TIP3    H235661   2.356   1.664  12.604  0.9250  0.4348  1.4276
 4724TIP3   OH235662   4.346   4.348  15.733  0.5552 -0.0177 -0.4763
 4724TIP3    H135663   4.428   4.393  15.752  0.2556  1.5033 -2.6084
 4724TIP3    H235664   4.278   4.410  15.763  0.1549 -0.9422  0.5792
 4725TIP3   OH235665   4.096   3.881   0.043 -0.4737 -0.3626  0.1499
 4725TIP3    H135666   4.016   3.828   0.048 -0.6822  0.0033  0.7061
 4725TIP3    H235667   4.101   3.924   0.128 -0.2823  0.4902 -0.2893
 4726TIP3   OH235668   3.804   3.745   2.597  0.1251  0.6225  0.2515
 4726TIP3    H135669   3.792   3.691   2.520 -2.6160  2.4186 -0.6521
 4726TIP3    H235670   3.805   3.835   2.564 -1.5827  1.4486  2.2990
 4727TIP3   OH235671   3.666   1.423   1.610  0.0443  0.0798  0.0621
 4727TIP3    H135672   3.627   1.476   1.541 -0.7919  0.3797  0.7602
 4727TIP3    H235673   3.627   1.336   1.599  1.4368 -0.4159 -1.1007
 4728TIP3   OH235674   2.662   5.068  16.227 -0.5065 -0.4638  0.0666
 4728TIP3    H135675   2.713   5.022  16.293 -0.6737  0.3633  0.7664
 4728TIP3    H235676   2.588   5.009  16.210  0.2331 -1.2821 -0.3582
 4729TIP3   OH235677   3.744   2.543  15.891  0.7088 -0.2343 -0.4077
 4729TIP3    H135678   3.804   2.524  15.963 -0.0952 -0.7709  0.1211
 4729TIP3    H235679   3.766   2.633  15.866  2.4154 -0.7624 -0.8916
 4730TIP3   OH235680   3.868   6.476  10.634  0.2345  0.4098 -0.2520
 4730TIP3    H135681   3.788   6.425  10.623  0.5973 -0.4789  1.1188
 4730TIP3    H235682   3.938   6.410  10.640  0.9650  1.1444 -0.6599
 4731TIP3   OH235683   5.244   6.470   3.026  0.0688 -0.2015 -0.0939
 4731TIP3    H135684   5.178   6.402   3.012  2.2612 -2.3533 -0.3082
 4731TIP3    H235685   5.276   6.454   3.115  1.3340 -0.1441 -0.5301
 4732TIP3   OH235686   6.746   1.385   6.328 -0.4073  0.4673 -0.0887
 4732TIP3    H135687   6.739   1.294   6.355  1.9396  0.4429  0.5490
 4732TIP3    H235688   6.839   1.405   6.334 -0.4820  2.0737 -2.9762
 4733TIP3   OH235689   3.193   1.796  17.204  0.3001  0.1215 -0.1420
 4733TIP3    H135690   3.229   1.834  17.124  1.1423  1.3637  0.8307
 4733TIP3    H235691   3.265   1.798  17.267 -0.6291 -0.0065  0.9392
 4734TIP3   OH235692   2.018   3.298  12.545  0.3874  0.2048  0.3475
 4734TIP3    H135693   2.004   3.245  12.623  1.1730 -0.4184  0.0801
 4734TIP3    H235694   2.060   3.378  12.576 -0.0208  0.2981  0.6564
 4735TIP3   OH235695   6.198   5.215   3.107  0.5117  0.1203 -0.1606
 4735TIP3    H135696   6.218   5.169   3.026  1.5345  0.9887 -0.4220
 4735TIP3    H235697   6.159   5.148   3.164 -0.8700 -0.3223 -1.5983
 4736TIP3   OH235698   1.773   3.401   5.550  0.1687 -0.1807 -0.2769
 4736TIP3    H135699   1.817   3.471   5.598 -0.2792  0.1868 -0.4010
 4736TIP3    H235700   1.819   3.322   5.576 -0.2283 -0.0191  0.9598
 4737TIP3   OH235701   3.578   4.087  15.313 -0.2433 -0.6228  0.3713
 4737TIP3    H135702   3.508   4.153  15.314 -0.2686 -0.5901 -1.4263
 4737TIP3    H235703   3.535   4.007  15.283  0.0506 -1.1520  1.3460
 4738TIP3   OH235704   1.610   1.660   5.542  0.0970  0.3320 -0.4323
 4738TIP3    H135705   1.525   1.618   5.546 -0.0424  0.6572 -0.0184
 4738TIP3    H235706   1.656   1.614   5.472  0.1390 -0.8550  0.3684
 4739TIP3   OH235707   6.177   3.968   5.427  0.0306  0.3869  0.0044
 4739TIP3    H135708   6.247   4.032   5.412  1.2088 -0.5576  1.4113
 4739TIP3    H235709   6.184   3.908   5.353  0.5535  0.4366  0.0110
 4740TIP3   OH235710   0.320   1.754   4.281 -0.0582  0.1467  0.4661
 4740TIP3    H135711   0.398   1.733   4.332 -0.7807 -0.6302  1.2806
 4740TIP3    H235712   0.347   1.745   4.190  1.7920  3.5025  0.6326
 4741TIP3   OH235713   0.767   0.527  13.090  0.1602  0.3138 -0.3676
 4741TIP3    H135714   0.814   0.578  13.156  0.9210 -0.4584 -0.3046
 4741TIP3    H235715   0.804   0.439  13.097 -0.7416 -0.1119 -0.8641
 4742TIP3   OH235716   5.532   4.666  12.944 -0.3405 -0.0433 -0.2647
 4742TIP3    H135717   5.598   4.735  12.936 -1.5530  1.0293 -1.2824
 4742TIP3    H235718   5.571   4.591  12.899  0.3652  0.4448 -0.4917
 4743TIP3   OH235719   1.089   2.568   2.090  0.6803 -0.2388 -0.3337
 4743TIP3    H135720   1.012   2.516   2.112  1.1221 -1.7729 -2.2788
 4743TIP3    H235721   1.119   2.603   2.174 -2.1756  0.4702  0.4431
 4744TIP3   OH235722   3.357   5.317   5.840 -0.3034 -0.6622 -0.0135
 4744TIP3    H135723   3.323   5.275   5.918 -1.2893 -0.2290 -0.1909
 4744TIP3    H235724   3.411   5.389   5.872 -0.2512 -0.8274  0.2675
 4745TIP3   OH235725   0.006   2.435  15.783  0.3520  0.2245 -0.1820
 4745TIP3    H135726  -0.060   2.465  15.722  0.5072  0.5228 -0.2040
 4745TIP3    H235727   0.033   2.514  15.831  0.6762  0.1039 -0.1629
 4746TIP3   OH235728   0.334   3.821  14.102  0.2541  0.1806  0.0813
 4746TIP3    H135729   0.344   3.869  14.184 -1.5987 -1.3344  1.2550
 4746TIP3    H235730   0.317   3.731  14.130 -1.2113 -0.1858 -1.9496
 4747TIP3   OH235731   2.756   5.076   4.391 -1.4570  0.1533  0.6802
 4747TIP3    H135732   2.747   5.049   4.482  0.2039 -1.9960  0.2551
 4747TIP3    H235733   2.849   5.061   4.371 -1.3665  2.4798 -0.7869
 4748TIP3   OH235734   6.533   0.027  17.286  0.1551 -0.1761 -0.1209
 4748TIP3    H135735   6.616  -0.018  17.299  0.4934  0.7650  1.0553
 4748TIP3    H235736   6.467  -0.041  17.295  0.8152 -1.1006 -1.9173
 4749TIP3   OH235737   3.711   6.081  17.115  0.2262 -0.0738  0.0579
 4749TIP3    H135738   3.639   6.050  17.170  0.1716 -0.5313 -0.2636
 4749TIP3    H235739   3.719   6.014  17.047  1.2305 -0.2290  0.3308
 4750TIP3   OH235740   5.624   3.059   4.109 -0.0648 -0.2293 -0.1622
 4750TIP3    H135741   5.638   3.061   4.014  1.5703 -0.5169  0.0617
 4750TIP3    H235742   5.584   2.973   4.124 -0.5230 -0.0997 -0.6151
 4751TIP3   OH235743   3.424   4.308   2.116  0.5787  0.5229  0.7318
 4751TIP3    H135744   3.420   4.332   2.024 -0.4587  0.1850  0.6845
 4751TIP3    H235745   3.463   4.384   2.159  1.4486  0.5193 -0.0349
 4752TIP3   OH235746   2.274   0.700  10.891  0.3021 -0.1560 -0.0827
 4752TIP3    H135747   2.370   0.709  10.886  0.4488 -1.3286  0.3138
 4752TIP3    H235748   2.241   0.789  10.893  1.4611  0.2633  0.8143
 4753TIP3   OH235749   3.648   0.610  16.846 -0.2922 -0.2966 -0.2621
 4753TIP3    H135750   3.613   0.634  16.760  0.0978 -1.6558 -0.8286
 4753TIP3    H235751   3.583   0.549  16.881  0.2270 -0.8270 -0.2111
 4754TIP3   OH235752   5.346   1.287   6.384 -0.4797 -0.2995  0.8697
 4754TIP3    H135753   5.351   1.229   6.459  0.2660 -3.0606 -1.2458
 4754TIP3    H235754   5.436   1.317   6.370 -0.2506 -1.4324 -0.1517
 4755TIP3   OH235755   0.474   0.633  15.972 -0.0800 -0.2596 -0.6131
 4755TIP3    H135756   0.386   0.668  15.981 -1.1284 -2.3055 -2.2952
 4755TIP3    H235757   0.513   0.683  15.900 -0.1910  0.0848 -0.4296
 4756TIP3   OH235758   1.458   5.150  13.314  0.1531  0.0214  0.0770
 4756TIP3    H135759   1.502   5.234  13.312  0.1004  0.0685  0.7523
 4756TIP3    H235760   1.529   5.086  13.322  0.3238 -0.1332 -2.4745
 4757TIP3   OH235761   3.549   2.356  12.312  0.5102 -0.1088  0.2155
 4757TIP3    H135762   3.561   2.314  12.227  5.4448  1.0010  0.1877
 4757TIP3    H235763   3.481   2.422  12.297  0.2219 -0.9736 -2.4634
 4758TIP3   OH235764   0.637   3.631   0.172 -0.2374 -0.6383 -0.0426
 4758TIP3    H135765   0.589   3.679   0.105 -0.0515 -0.2925  0.0653
 4758TIP3    H235766   0.659   3.698   0.237 -1.2079 -1.1347  0.8126
 4759TIP3   OH235767   4.506   5.038   5.449 -1.1188 -0.2652 -0.1073
 4759TIP3    H135768   4.550   4.968   5.401 -0.6349 -0.3056  0.3891
 4759TIP3    H235769   4.422   5.002   5.474 -0.8213 -0.7024  0.2488
 4760TIP3   OH235770   2.480   1.551  10.322  0.8402  0.3938  0.1996
 4760TIP3    H135771   2.486   1.508  10.407 -0.1035  0.6243  0.3848
 4760TIP3    H235772   2.474   1.644  10.342  3.5092  0.6868 -0.2293
 4761TIP3   OH235773   6.309   2.097  16.287  0.2058 -0.5474 -0.1388
 4761TIP3    H135774   6.343   2.027  16.342  0.3422 -0.4631 -0.1146
 4761TIP3    H235775   6.382   2.118  16.228  0.2285 -0.3003 -0.0238
 4762TIP3   OH235776   5.832   5.969  14.679 -0.2550 -0.0987  0.2187
 4762TIP3    H135777   5.894   6.040  14.694  1.0933 -1.1245 -0.3420
 4762TIP3    H235778   5.810   5.975  14.587  1.9970 -2.0236 -0.5141
 4763TIP3   OH235779   5.255   4.506  16.975  0.7755  0.0916 -0.0612
 4763TIP3    H135780   5.202   4.546  16.906  2.7826  2.3200 -0.4055
 4763TIP3    H235781   5.306   4.439  16.930  1.3961  0.9067 -0.6012
 4764TIP3   OH235782   6.356   0.526   2.427  0.1113 -0.1441  0.1156
 4764TIP3    H135783   6.340   0.558   2.516  0.8209  1.8087 -0.4499
 4764TIP3    H235784   6.404   0.596   2.384  1.1641 -1.7210 -1.3478
 4765TIP3   OH235785   0.339   3.138  14.600 -0.1533  0.3189 -0.1441
 4765TIP3    H135786   0.389   3.064  14.566  0.7857 -0.1085  2.1052
 4765TIP3    H235787   0.248   3.115  14.583  0.2079 -0.5817 -0.9405
 4766TIP3   OH235788   2.363   0.006  15.006 -0.5067 -0.3588  0.3892
 4766TIP3    H135789   2.324  -0.019  15.090 -0.6068  3.2163  1.4950
 4766TIP3    H235790   2.291   0.042  14.955 -0.6638 -3.5064 -1.7394
 4767TIP3   OH235791   2.738   6.127  14.870 -0.1239 -0.1538  0.0202
 4767TIP3    H135792   2.816   6.071  14.868  0.0767  0.0856  1.0328
 4767TIP3    H235793   2.683   6.089  14.939 -0.3210  0.4486  0.1981
 4768TIP3   OH235794   6.407   6.785  16.369  0.2401  0.2755 -0.1152
 4768TIP3    H135795   6.445   6.710  16.414  2.4739  1.8156  0.6765
 4768TIP3    H235796   6.392   6.849  16.439  0.8900  1.5517 -1.1092
 4769TIP3   OH235797   3.330   5.946  13.167 -0.0754  0.0655  1.1604
 4769TIP3    H135798   3.383   5.897  13.230  0.1953  0.0191  0.8974
 4769TIP3    H235799   3.342   6.038  13.191  0.8957  0.1150  0.5044
 4770TIP3   OH235800   6.199   5.364  12.702  0.1561 -0.2289 -0.0517
 4770TIP3    H135801   6.229   5.405  12.784  0.5651 -1.1810  0.2866
 4770TIP3    H235802   6.234   5.420  12.633  1.2979 -0.3724  0.3882
 4771TIP3   OH235803   1.903   2.287   5.533 -0.2794  0.3150  0.2081
 4771TIP3    H135804   1.835   2.219   5.532  0.4153 -0.3944  0.7609
 4771TIP3    H235805   1.866   2.356   5.588 -1.5725  1.0164 -1.4861
 4772TIP3   OH235806   6.453   0.201   4.515 -0.3113 -0.9919  0.0965
 4772TIP3    H135807   6.360   0.193   4.536 -0.3715  0.8682  0.6412
 4772TIP3    H235808   6.454   0.242   4.428 -0.0009 -0.0417  0.5437
 4773TIP3   OH235809   4.209   3.756   4.591  0.4483  0.0700 -0.0516
 4773TIP3    H135810   4.245   3.817   4.656  2.0152 -1.5578  0.6518
 4773TIP3    H235811   4.192   3.676   4.640  1.6111 -1.1703 -1.6260
 4774TIP3   OH235812   3.684   1.875  12.466 -0.0996 -0.0535  0.0163
 4774TIP3    H135813   3.749   1.888  12.535 -0.5714 -2.1317  0.8766
 4774TIP3    H235814   3.734   1.883  12.384  1.1645 -1.1651  0.6543
 4775TIP3   OH235815   4.109   5.729   2.048  0.3220 -0.2561  0.6973
 4775TIP3    H135816   4.117   5.805   1.990  2.0448 -0.7438  0.2541
 4775TIP3    H235817   4.188   5.677   2.030 -0.3656 -1.6731  1.6756
 4776TIP3   OH235818   0.929   4.966  16.365 -0.2312 -0.7346 -0.6115
 4776TIP3    H135819   0.948   4.947  16.273 -1.2730 -2.2126 -0.5339
 4776TIP3    H235820   0.873   5.043  16.362  1.3432  0.4161 -1.1035
 4777TIP3   OH235821   1.935   1.192  14.366  0.1590 -0.1274 -0.0481
 4777TIP3    H135822   1.938   1.276  14.320  0.6648 -0.2963 -0.3332
 4777TIP3    H235823   1.849   1.190  14.407  0.3275  0.7389  0.3588
 4778TIP3   OH235824   1.862   2.572   2.019 -0.0888 -0.3084 -0.1130
 4778TIP3    H135825   1.888   2.481   2.004  1.4285 -0.0211  0.6170
 4778TIP3    H235826   1.809   2.569   2.099 -0.4320 -0.6038 -0.3477
 4779TIP3   OH235827   0.509   6.510  16.138 -0.1930  0.1388  0.5387
 4779TIP3    H135828   0.449   6.447  16.099 -1.1776  1.1397  0.4253
 4779TIP3    H235829   0.506   6.585  16.079  1.9783 -0.2013 -0.0506
 4780TIP3   OH235830   0.574   2.966  14.208 -0.1058  0.2018 -0.6927
 4780TIP3    H135831   0.667   2.944  14.198  0.4163  2.2737 -0.5759
 4780TIP3    H235832   0.563   3.048  14.161 -1.6343  0.5602  0.2448
 4781TIP3   OH235833   6.420   0.290   2.925  0.3510 -0.3644 -0.1456
 4781TIP3    H135834   6.389   0.330   3.007 -0.0040 -0.6401 -0.1456
 4781TIP3    H235835   6.376   0.341   2.856  1.2173  0.3512 -0.1918
 4782TIP3   OH235836   3.436   0.727  12.260  0.1535 -0.4951  0.4531
 4782TIP3    H135837   3.434   0.756  12.352  0.1430  0.1480  0.2503
 4782TIP3    H235838   3.442   0.808  12.210  0.5244 -0.8665 -0.1036
 4783TIP3   OH235839   5.357   6.401   4.355  0.3167  0.0174 -0.2244
 4783TIP3    H135840   5.435   6.456   4.362  1.5706 -1.8850  1.6931
 4783TIP3    H235841   5.389   6.319   4.319 -1.0340 -0.3740 -0.5496
 4784TIP3   OH235842   4.350   5.867   4.776  0.7533  0.7889 -0.2801
 4784TIP3    H135843   4.276   5.812   4.749 -1.2189  2.6833  1.0640
 4784TIP3    H235844   4.393   5.818   4.846 -0.4393  0.5284  0.2814
 4785TIP3   OH235845   3.533   2.738   2.384 -0.2388  0.0911 -0.0862
 4785TIP3    H135846   3.556   2.675   2.315 -1.2849 -2.0223  1.4485
 4785TIP3    H235847   3.605   2.734   2.446 -0.3357  0.3825  0.0487
 4786TIP3   OH235848   1.865   1.898   3.957 -0.4064  0.1987 -0.0984
 4786TIP3    H135849   1.791   1.955   3.936  0.2856  1.1559 -0.0020
 4786TIP3    H235850   1.930   1.918   3.890 -0.2403 -0.6432 -0.1893
 4787TIP3   OH235851   1.538   1.946  12.286 -0.9792  0.3546 -0.4362
 4787TIP3    H135852   1.543   1.884  12.358 -1.6164 -0.7563 -1.3324
 4787TIP3    H235853   1.602   1.915  12.222  0.0759  1.7219 -0.0715
 4788TIP3   OH235854   3.612   1.803   2.571 -0.7790 -0.0247  0.1414
 4788TIP3    H135855   3.663   1.861   2.628 -0.9631 -0.8283  1.1532
 4788TIP3    H235856   3.525   1.843   2.567 -0.9983 -0.3703  1.0985
 4789TIP3   OH235857   0.152   0.463  12.194  0.5883 -0.2722  0.6661
 4789TIP3    H135858   0.100   0.394  12.154  0.7155  0.5601 -1.0037
 4789TIP3    H235859   0.093   0.538  12.199  1.7271  0.8526 -1.7666
 4790TIP3   OH235860   3.579   4.156  13.047 -0.4324  0.0183  0.1402
 4790TIP3    H135861   3.501   4.116  13.088 -1.0399 -0.6471 -1.6393
 4790TIP3    H235862   3.624   4.083  13.006  0.5271  0.5971  0.1675
 4791TIP3   OH235863   6.305   4.726  15.906  0.3975 -0.1654 -0.5358
 4791TIP3    H135864   6.317   4.820  15.890 -0.9277  0.3287  1.1808
 4791TIP3    H235865   6.256   4.694  15.830  0.3340  0.6502 -0.8365
 4792TIP3   OH235866   3.453   3.367  12.963 -0.3349  0.4949 -0.1292
 4792TIP3    H135867   3.497   3.404  13.040  0.1636  0.4919 -0.4056
 4792TIP3    H235868   3.362   3.394  12.971 -0.4491 -0.1667  0.8711
 4793TIP3   OH235869   3.495   1.438   2.335 -0.2519 -0.3025  0.1168
 4793TIP3    H135870   3.429   1.497   2.299  0.0391 -1.9243 -3.3811
 4793TIP3    H235871   3.569   1.494   2.356 -0.7291  0.8578 -1.1852
 4794TIP3   OH235872   5.206   4.983   1.848  0.0533  0.4274 -0.2872
 4794TIP3    H135873   5.131   5.014   1.897  0.1463  1.1184 -0.5801
 4794TIP3    H235874   5.276   4.973   1.913 -0.3036 -0.2736 -0.0070
 4795TIP3   OH235875   5.850   3.349   3.544  0.1147  0.1815 -0.3898
 4795TIP3    H135876   5.844   3.262   3.505 -0.3238  0.3299 -0.6613
 4795TIP3    H235877   5.910   3.397   3.488  0.6057 -0.0401 -0.0583
 4796TIP3   OH235878   1.700   4.878  11.010  0.1321 -0.2204 -0.7339
 4796TIP3    H135879   1.686   4.834  10.926  1.4490 -1.8029 -0.1569
 4796TIP3    H235880   1.612   4.893  11.044 -0.3599 -2.2234 -1.0618
 4797TIP3   OH235881   1.502   4.859  17.240 -0.0206 -0.2928  0.4750
 4797TIP3    H135882   1.484   4.771  17.273  1.5416 -1.3530 -1.4288
 4797TIP3    H235883   1.420   4.887  17.200 -0.8622 -0.4019  2.0466
 4798TIP3   OH235884   3.830   1.977  12.246 -0.1502 -0.1246  0.5218
 4798TIP3    H135885   3.749   2.016  12.212  0.1361 -0.6067 -0.7365
 4798TIP3    H235886   3.846   1.902  12.188 -0.5878 -2.0028  2.7629
 4799TIP3   OH235887   0.377   4.993   1.602  0.5293  0.0768  0.5322
 4799TIP3    H135888   0.466   5.028   1.609 -0.2240  2.1646  0.1811
 4799TIP3    H235889   0.326   5.042   1.667 -0.8460  0.6206 -0.9081
 4800TIP3   OH235890   2.100   0.588   6.080  0.1498  0.7326  0.3346
 4800TIP3    H135891   2.098   0.493   6.072 -1.8620  0.7078  0.7800
 4800TIP3    H235892   2.193   0.610   6.093  0.8109 -1.0143 -1.2931
 4801TIP3   OH235893   3.726   3.073  14.643 -0.6082  0.0033  0.4890
 4801TIP3    H135894   3.803   3.110  14.686  1.7896 -1.7385 -2.1101
 4801TIP3    H235895   3.677   3.149  14.611  1.5673  1.0618 -0.3867
 4802TIP3   OH235896   4.872   0.733   3.738 -0.8807  0.4755  0.1098
 4802TIP3    H135897   4.911   0.768   3.658  2.0656 -1.8902  0.4270
 4802TIP3    H235898   4.893   0.799   3.805 -1.9078  1.6460 -0.6839
 4803TIP3   OH235899   4.365   5.508  16.022 -0.1117  0.5044 -0.1963
 4803TIP3    H135900   4.369   5.588  15.970  1.5415  0.8009  0.3738
 4803TIP3    H235901   4.356   5.438  15.957  2.2599  0.8459 -0.9413
 4804TIP3   OH235902   3.539   2.056  13.533 -0.8740  0.0856  0.1501
 4804TIP3    H135903   3.516   2.148  13.545  0.2489  0.4983 -0.7801
 4804TIP3    H235904   3.479   2.009  13.591 -0.9216  1.4417  1.2300
 4805TIP3   OH235905   1.509   0.891  17.093  0.1698  0.2497 -0.5349
 4805TIP3    H135906   1.443   0.843  17.143  0.7389  0.6058  0.5819
 4805TIP3    H235907   1.583   0.899  17.154  0.3225  1.9764 -0.9376
 4806TIP3   OH235908   5.232   2.328   5.048 -0.1886 -0.0077 -0.6131
 4806TIP3    H135909   5.149   2.365   5.016 -0.8953 -0.4765  0.6616
 4806TIP3    H235910   5.240   2.244   5.002 -0.7742 -0.2901 -0.1937
 4807TIP3   OH235911   6.725   3.115   2.705 -0.3251  0.7115  0.4744
 4807TIP3    H135912   6.697   3.122   2.613  0.1354 -1.4961  0.1378
 4807TIP3    H235913   6.816   3.144   2.704 -0.1914  0.3003  0.1369
 4808TIP3   OH235914   3.430   2.780   6.074 -0.3265 -0.0217  0.5671
 4808TIP3    H135915   3.371   2.707   6.089 -0.5429 -0.5424 -2.4620
 4808TIP3    H235916   3.503   2.765   6.135 -1.9796 -0.8617  2.3768
 4809TIP3   OH235917   4.972   0.440   3.470 -0.1816 -0.0982  0.9426
 4809TIP3    H135918   5.011   0.465   3.554  0.4303  1.3897  0.2395
 4809TIP3    H235919   5.031   0.479   3.404 -1.7372  0.4596 -0.1440
 4810TIP3   OH235920   0.143   3.296   5.819 -0.0173 -0.0525 -0.4184
 4810TIP3    H135921   0.206   3.357   5.858  1.5377 -1.7083 -0.2754
 4810TIP3    H235922   0.141   3.222   5.879  0.1831 -1.3276 -1.9407
 4811TIP3   OH235923   6.399   2.461   0.908 -0.1192  0.2198 -0.0113
 4811TIP3    H135924   6.341   2.521   0.861  0.2384  1.1307  0.6858
 4811TIP3    H235925   6.429   2.399   0.841 -0.0286  1.1783 -0.8786
 4812TIP3   OH235926   2.774   2.745   6.577  0.6610  0.2405  0.2016
 4812TIP3    H135927   2.761   2.836   6.550 -1.2927 -0.2510 -0.6353
 4812TIP3    H235928   2.833   2.750   6.652  0.7188  2.1810  0.0596
 4813TIP3   OH235929   4.097   5.792  16.199 -0.0637  0.2708  0.2908
 4813TIP3    H135930   4.178   5.793  16.250 -0.2421  1.0708  0.5577
 4813TIP3    H235931   4.038   5.850  16.246 -0.7054 -0.0954 -0.0564
 4814TIP3   OH235932   6.608   5.206   5.190  0.3005  0.0843 -0.2599
 4814TIP3    H135933   6.632   5.257   5.268 -0.0483 -1.6736  1.0260
 4814TIP3    H235934   6.677   5.140   5.183  0.4099  0.3389 -1.5326
 4815TIP3   OH235935   1.192   6.660  15.370  0.2350  0.0559  0.2466
 4815TIP3    H135936   1.286   6.674  15.377  0.2162  1.9752 -2.7521
 4815TIP3    H235937   1.184   6.575  15.327  0.5655 -0.3690  1.0086
 4816TIP3   OH235938   2.183   0.373  15.422 -0.4207 -0.2040  0.2026
 4816TIP3    H135939   2.138   0.297  15.386  1.1137 -0.5735 -0.9538
 4816TIP3    H235940   2.125   0.447  15.401 -1.9803 -1.0375  1.4600
 4817TIP3   OH235941   5.619   4.436   3.508  0.0259 -0.3909  0.2663
 4817TIP3    H135942   5.584   4.525   3.504  0.1122 -0.2971  1.6586
 4817TIP3    H235943   5.548   4.381   3.472 -0.2604  0.1614 -0.0173
 4818TIP3   OH235944   5.068   6.200  12.450  0.4714  0.9323  0.0154
 4818TIP3    H135945   4.980   6.202  12.487  0.1202  2.5613 -0.8556
 4818TIP3    H235946   5.107   6.120  12.484 -1.0326  0.6634  1.1337
 4819TIP3   OH235947   3.067   2.377  14.031  0.1663  0.5036  0.0395
 4819TIP3    H135948   3.144   2.378  13.973 -1.3614 -0.3544 -2.0659
 4819TIP3    H235949   3.100   2.411  14.114  2.8220  0.2005 -0.8256
 4820TIP3   OH235950   2.559   6.201   1.501 -0.1273 -0.8439 -0.4775
 4820TIP3    H135951   2.630   6.141   1.524  0.2411 -1.1137 -2.2256
 4820TIP3    H235952   2.503   6.151   1.441 -0.6482  0.0421 -0.7405
 4821TIP3   OH235953   5.429   4.537   1.089  0.1023  0.3355  0.0515
 4821TIP3    H135954   5.468   4.517   1.004 -0.8485  2.1980 -0.8348
 4821TIP3    H235955   5.364   4.468   1.102 -0.4933  0.6474 -1.2170
 4822TIP3   OH235956   5.145   1.998   6.225 -0.2700  0.2168  0.5060
 4822TIP3    H135957   5.125   2.071   6.284 -1.2756  0.4854 -0.1705
 4822TIP3    H235958   5.203   1.941   6.277 -2.2188 -0.2270  2.2590
 4823TIP3   OH235959   5.789   0.416   5.369  0.2086 -0.5150  0.1407
 4823TIP3    H135960   5.736   0.344   5.334  1.2394 -1.3170  0.2217
 4823TIP3    H235961   5.874   0.406   5.326  0.0473  1.2917 -0.6596
 4824TIP3   OH235962   5.285   2.937  12.122  0.0202 -0.8570  0.4188
 4824TIP3    H135963   5.279   3.001  12.051 -0.4247 -0.7451  0.5558
 4824TIP3    H235964   5.378   2.912  12.124  0.1423 -0.4304  0.1766
 4825TIP3   OH235965   5.343   2.381  14.613 -0.4647 -0.1641 -0.3645
 4825TIP3    H135966   5.335   2.341  14.700  0.3159  3.7058  1.5910
 4825TIP3    H235967   5.435   2.369  14.591 -0.6058 -0.9219 -0.5659
 4826TIP3   OH235968   6.553   6.115   2.966  0.1349 -0.1128  0.2296
 4826TIP3    H135969   6.523   6.167   3.041 -0.8891 -0.0680 -0.2059
 4826TIP3    H235970   6.648   6.127   2.965  0.3126 -1.1795  2.3108
 4827TIP3   OH235971   4.291   0.740   1.832  0.7950 -0.7869 -0.5333
 4827TIP3    H135972   4.201   0.760   1.856  0.4883 -1.5623 -1.0153
 4827TIP3    H235973   4.331   0.825   1.814 -0.1453 -0.5242 -1.3849
 4828TIP3   OH235974   4.990   2.669  15.634 -0.3048  0.5225 -0.0407
 4828TIP3    H135975   4.969   2.673  15.727 -1.8852  0.2207 -0.3860
 4828TIP3    H235976   5.078   2.632  15.631  0.4608  2.1553  1.4165
 4829TIP3   OH235977   5.116   3.519   3.821 -0.2882 -0.2404  0.6137
 4829TIP3    H135978   5.174   3.447   3.844 -0.1273 -0.3879 -0.2360
 4829TIP3    H235979   5.073   3.543   3.903  0.6593 -0.4100  1.1604
 4830TIP3   OH235980   5.030   4.907   5.261 -0.1320  0.0653  0.0621
 4830TIP3    H135981   5.067   4.982   5.307 -0.9671 -0.2995  1.3503
 4830TIP3    H235982   5.105   4.852   5.240  0.1789 -0.1306  1.6593
 4831TIP3   OH235983   3.647   4.428   0.715 -0.2847 -0.1752 -0.5301
 4831TIP3    H135984   3.591   4.412   0.791  0.1791 -2.5770 -0.6427
 4831TIP3    H235985   3.646   4.345   0.667  1.0488  0.6749 -2.0741
 4832TIP3   OH235986   1.221   4.568   2.848 -0.6669 -0.5766 -0.0039
 4832TIP3    H135987   1.163   4.496   2.870 -0.6750 -0.6999 -0.4245
 4832TIP3    H235988   1.181   4.646   2.887 -0.6944 -0.7889  0.3873
 4833TIP3   OH235989   4.925   4.240  10.696  0.1185 -0.3569  0.3268
 4833TIP3    H135990   4.971   4.157  10.699  1.5813  0.3422 -1.7265
 4833TIP3    H235991   4.985   4.303  10.737  0.0064  0.1236 -0.2394
 4834TIP3   OH235992   4.545   6.733  12.263  0.1506  0.3056 -0.1292
 4834TIP3    H135993   4.574   6.823  12.278  0.3930  0.1613  0.2791
 4834TIP3    H235994   4.588   6.682  12.332  0.5780 -0.2354 -0.7979
 4835TIP3   OH235995   3.707   1.847  13.794 -0.7051 -0.6551 -0.5089
 4835TIP3    H135996   3.788   1.799  13.808 -0.6164 -0.1945  0.5990
 4835TIP3    H235997   3.733   1.939  13.792 -1.1196 -0.5402 -0.7406
 4836TIP3   OH235998   5.051   2.347   1.112  0.0528 -0.1575 -0.4053
 4836TIP3    H135999   5.043   2.441   1.128 -1.5680 -0.2853 -0.3883
 4836TIP3    H236000   5.067   2.340   1.018 -0.5971  0.1086 -0.5413
 4837TIP3   OH236001   5.001   5.752  11.933  0.0743 -0.2724 -0.7206
 4837TIP3    H136002   4.924   5.795  11.971 -0.0485 -1.0642 -0.0483
 4837TIP3    H236003   5.050   5.823  11.892 -0.9172  0.2712 -0.9950
 4838TIP3   OH236004   0.552   6.382  11.931 -0.0930  0.1755  0.7684
 4838TIP3    H136005   0.500   6.322  11.878  0.9034 -0.8549  0.9379
 4838TIP3    H236006   0.624   6.409  11.874  0.5681 -0.3573  1.3395
 4839TIP3   OH236007   2.150   2.842   0.757  0.7561  0.1568  0.1755
 4839TIP3    H136008   2.117   2.834   0.847 -0.3485  0.6450 -0.1764
 4839TIP3    H236009   2.179   2.933   0.750  0.1443  0.3280 -0.1843
 4840TIP3   OH236010   4.147   4.459  11.754 -0.3871 -0.1602  0.9511
 4840TIP3    H136011   4.222   4.486  11.702  0.0213  1.8436  2.5595
 4840TIP3    H236012   4.073   4.506  11.716 -0.3659  0.0402  1.1608
 4841TIP3   OH236013   6.142   1.593  14.096 -0.1085 -0.5109 -0.3480
 4841TIP3    H136014   6.158   1.654  14.023 -2.1358 -0.3377 -0.6605
 4841TIP3    H236015   6.226   1.590  14.142 -0.3439  3.8102  0.6272
 4842TIP3   OH236016   1.770   0.849  15.514 -0.2052  0.5179 -0.6947
 4842TIP3    H136017   1.767   0.874  15.422  0.4723 -1.2471 -1.2008
 4842TIP3    H236018   1.773   0.933  15.561 -2.3295  1.4606 -2.1825
 4843TIP3   OH236019   6.168   4.566  11.876 -0.0022  0.1214  0.3414
 4843TIP3    H136020   6.123   4.488  11.845  0.4462  0.0040 -0.0123
 4843TIP3    H236021   6.108   4.638  11.858 -0.0911 -0.0489 -0.0322
 4844TIP3   OH236022   5.423   3.973  13.659 -0.3438  0.2042 -0.4039
 4844TIP3    H136023   5.448   4.010  13.744  0.0193 -0.5972 -0.1644
 4844TIP3    H236024   5.405   3.881  13.677  0.7063 -0.2003 -1.3839
 4845TIP3   OH236025   3.074   0.085  11.491  0.6418  0.0620  0.0942
 4845TIP3    H136026   3.043   0.114  11.577 -1.4818 -1.5669 -0.0468
 4845TIP3    H236027   3.059  -0.010  11.492  1.4787 -0.1084 -1.7250
 4846TIP3   OH236028   5.433   1.702   5.199 -0.6835 -0.0770  0.2057
 4846TIP3    H136029   5.464   1.634   5.259  1.4830 -0.1529 -0.9043
 4846TIP3    H236030   5.470   1.783   5.233 -1.4015  0.2123  0.2896
 4847TIP3   OH236031   4.970   2.907  15.450 -0.5010  0.1585  0.0315
 4847TIP3    H136032   5.004   2.830  15.495 -0.1594 -0.2416 -0.9067
 4847TIP3    H236033   4.946   2.876  15.363  1.1937  1.4382 -0.9339
 4848TIP3   OH236034   1.529   4.769  13.894 -0.1268 -0.1212  0.3982
 4848TIP3    H136035   1.579   4.812  13.964  0.2117  1.3443 -0.7274
 4848TIP3    H236036   1.595   4.741  13.831 -0.5194 -0.5116  0.1589
 4849TIP3   OH236037   2.662   5.382   3.025  0.1762 -0.2175 -0.2688
 4849TIP3    H136038   2.737   5.431   3.059 -0.0792  0.0204 -0.0491
 4849TIP3    H236039   2.667   5.395   2.930 -1.7373  2.9277  0.0100
 4850TIP3   OH236040   2.316   1.365  12.933 -0.5017  0.4322  0.1833
 4850TIP3    H136041   2.351   1.451  12.956  1.5233 -0.0450 -0.9450
 4850TIP3    H236042   2.364   1.304  12.989 -0.7894 -0.0966 -0.1401
 4851TIP3   OH236043   3.450   0.530  17.018  0.1030 -0.4584  0.1126
 4851TIP3    H136044   3.392   0.570  16.954  0.7063 -0.9560 -0.7555
 4851TIP3    H236045   3.406   0.448  17.042  0.4317 -0.8265 -0.5307
 4852TIP3   OH236046   1.529   0.623   2.273 -0.5206 -0.4578  0.2783
 4852TIP3    H136047   1.542   0.593   2.183  0.2863  1.0430 -0.1336
 4852TIP3    H236048   1.606   0.677   2.291 -0.2006 -1.5370  2.2260
 4853TIP3   OH236049   0.945   5.501   1.227  0.5152 -0.6359  0.1476
 4853TIP3    H136050   0.855   5.471   1.210  0.0234 -0.3716  2.1407
 4853TIP3    H236051   0.946   5.519   1.321  2.2627  0.7209 -0.1213
 4854TIP3   OH236052   6.516   6.560  11.340 -0.1097 -0.7033 -0.4345
 4854TIP3    H136053   6.453   6.530  11.406  0.3563  1.3318  0.9723
 4854TIP3    H236054   6.467   6.620  11.285  0.6999  1.3241  1.0049
 4855TIP3   OH236055   0.220   1.476   0.449  0.2088 -0.4583 -0.2403
 4855TIP3    H136056   0.235   1.382   0.459 -0.8595 -0.9743 -3.1048
 4855TIP3    H236057   0.137   1.492   0.493 -0.0025 -1.0142 -0.4301
 4856TIP3   OH236058   6.657   5.090  11.352 -0.0932 -0.1563  0.2918
 4856TIP3    H136059   6.662   5.028  11.425 -0.7602 -0.4223  0.1186
 4856TIP3    H236060   6.666   5.035  11.274  4.5681  0.5487  0.2277
 4857TIP3   OH236061   3.371   5.499   3.624 -0.1128  0.4987  0.0962
 4857TIP3    H136062   3.322   5.418   3.630 -0.1155  0.3748 -1.3193
 4857TIP3    H236063   3.316   5.558   3.572 -0.1116  1.4025  1.1040
 4858TIP3   OH236064   1.830   1.500   4.416  0.0536 -0.5960  0.0845
 4858TIP3    H136065   1.738   1.474   4.424 -0.8279  1.8762 -1.4514
 4858TIP3    H236066   1.857   1.468   4.330  0.0237  0.5182 -0.3323
 4859TIP3   OH236067   3.371   2.585  13.617  0.0940 -0.1233 -0.0026
 4859TIP3    H136068   3.277   2.584  13.596 -0.0020 -0.1268  0.4131
 4859TIP3    H236069   3.384   2.670  13.660 -0.2105 -1.1021  2.1223
 4860TIP3   OH236070   1.393   0.801   3.120 -0.4184 -0.4661  0.1673
 4860TIP3    H136071   1.312   0.825   3.075  0.2752  1.0825 -0.2930
 4860TIP3    H236072   1.405   0.708   3.100 -1.4666 -0.4197 -0.7307
 4861TIP3   OH236073   0.412   5.701  11.237  0.0345 -0.0718  0.0894
 4861TIP3    H136074   0.373   5.752  11.166  0.4408 -0.5911 -0.5172
 4861TIP3    H236075   0.374   5.738  11.317 -1.7976 -0.6287 -0.4872
 4862TIP3   OH236076   5.115   3.218  16.743 -0.2956  0.1219 -0.0046
 4862TIP3    H136077   5.111   3.208  16.838 -0.8195  0.1278 -0.0270
 4862TIP3    H236078   5.190   3.165  16.717  0.7015  1.2278  0.5571
 4863TIP3   OH236079   4.255   3.497   5.564  0.5728 -0.1788  0.1627
 4863TIP3    H136080   4.192   3.531   5.627  0.4425 -0.2292  0.0587
 4863TIP3    H236081   4.202   3.466   5.491  0.7474  0.1781 -0.1135
 4864TIP3   OH236082   5.616   0.337  10.629 -0.6787 -0.4136  0.1585
 4864TIP3    H136083   5.605   0.256  10.581  0.3997  0.0030 -0.8064
 4864TIP3    H236084   5.542   0.340  10.689 -1.7920 -1.1472 -1.1735
 4865TIP3   OH236085   3.328   3.610   6.297 -0.1395  0.4614  0.4017
 4865TIP3    H136086   3.339   3.645   6.386  1.1240 -1.6148  1.0986
 4865TIP3    H236087   3.417   3.601   6.264 -0.5503 -0.0015 -0.5986
 4866TIP3   OH236088   6.202   1.723   5.890  0.1490  0.1261  0.3148
 4866TIP3    H136089   6.241   1.686   5.969 -0.0479 -1.0749 -0.1277
 4866TIP3    H236090   6.212   1.653   5.824 -0.3156  0.8378 -0.5216
 4867TIP3   OH236091   3.125   5.128  16.545 -0.6393  0.9289  0.2050
 4867TIP3    H136092   3.061   5.149  16.477 -1.2508  2.1213  1.1258
 4867TIP3    H236093   3.187   5.070  16.502 -1.1178  1.5158 -1.3265
 4868TIP3   OH236094   5.434   2.775  14.054 -0.0493  0.0252 -0.0185
 4868TIP3    H136095   5.387   2.846  14.097 -1.7694 -0.6268 -0.7545
 4868TIP3    H236096   5.519   2.812  14.032  1.0846  0.2391  4.3212
 4869TIP3   OH236097   0.811   2.835  16.748 -0.8016  0.4093 -0.4618
 4869TIP3    H136098   0.881   2.900  16.758 -0.3392 -0.1710  0.1416
 4869TIP3    H236099   0.736   2.885  16.717  0.3362  0.7761 -2.7252
 4870TIP3   OH236100   3.156   3.567   5.723 -0.1173  0.0327 -0.6874
 4870TIP3    H136101   3.155   3.662   5.736  0.7793  0.2564 -2.1349
 4870TIP3    H236102   3.244   3.540   5.749 -1.2845 -0.8888  2.6704
 4871TIP3   OH236103   6.768   4.318  16.376  0.4060  0.2935  0.1258
 4871TIP3    H136104   6.848   4.321  16.323  1.0187 -2.3092  0.8329
 4871TIP3    H236105   6.735   4.229  16.364 -1.0504  0.5850  1.8257
 4872TIP3   OH236106   3.342   5.484   1.537  0.3971  0.0344 -0.1151
 4872TIP3    H136107   3.301   5.398   1.544 -0.6732  0.6267  1.2147
 4872TIP3    H236108   3.311   5.518   1.453 -0.7704 -0.0806  0.2606
 4873TIP3   OH236109   3.743   3.882  14.417  0.3060 -0.5097 -0.0960
 4873TIP3    H136110   3.818   3.930  14.383  1.9987 -2.0719  1.2994
 4873TIP3    H236111   3.671   3.903  14.357  1.7793  1.2294 -1.2999
 4874TIP3   OH236112   3.905   5.443   0.636 -0.5295  0.2307  0.2481
 4874TIP3    H136113   3.974   5.509   0.628 -2.4910  2.2577 -0.3755
 4874TIP3    H236114   3.902   5.423   0.730  0.8496  0.1439  0.2897
 4875TIP3   OH236115   4.663   4.854  13.638  0.4115  0.0279  0.6219
 4875TIP3    H136116   4.753   4.823  13.632 -0.1524 -1.3065 -1.3603
 4875TIP3    H236117   4.611   4.776  13.657 -0.3399  0.8233  2.0374
 4876TIP3   OH236118   6.216   1.830   6.327 -0.0839  0.4048  0.7151
 4876TIP3    H136119   6.252   1.785   6.251 -0.8293  0.0723  0.5477
 4876TIP3    H236120   6.289   1.837   6.388  0.4762  0.5240  0.0326
 4877TIP3   OH236121   1.811   2.052   0.883 -0.0987  0.2537 -0.3789
 4877TIP3    H136122   1.723   2.080   0.910 -0.2815  1.3283 -1.9812
 4877TIP3    H236123   1.832   2.109   0.809  1.5299 -0.7063 -0.6782
 4878TIP3   OH236124   0.104   1.575   3.973 -0.1935 -0.5186 -0.5483
 4878TIP3    H136125   0.193   1.609   3.962 -0.4822  0.1853 -0.6756
 4878TIP3    H236126   0.085   1.530   3.891  1.1209 -3.1641  0.5069
 4879TIP3   OH236127   2.252   4.667  12.938 -0.2447 -0.0152  0.0338
 4879TIP3    H136128   2.211   4.583  12.958 -2.0318  1.6773  4.1350
 4879TIP3    H236129   2.187   4.714  12.887  0.9113 -1.2044 -2.5983
 4880TIP3   OH236130   2.544   1.332  11.885 -0.0474  0.8034 -0.1365
 4880TIP3    H136131   2.564   1.425  11.896  0.2711  0.8065 -0.7073
 4880TIP3    H236132   2.549   1.296  11.973 -0.1620  1.3252  0.0862
 4881TIP3   OH236133   3.001   2.436   0.563  0.2098 -0.2014  0.7229
 4881TIP3    H136134   2.977   2.528   0.552  1.0912  0.1313  1.5549
 4881TIP3    H236135   2.980   2.396   0.478 -1.1728  0.5349  0.7104
 4882TIP3   OH236136   3.901   4.200  16.654  0.6073 -0.1430 -0.5337
 4882TIP3    H136137   3.960   4.249  16.711  0.5107  1.4909 -1.8224
 4882TIP3    H236138   3.863   4.265  16.595 -1.8811 -1.2809 -0.2849
 4883TIP3   OH236139   4.786   1.461   0.392  0.2739  0.8696 -0.0949
 4883TIP3    H136140   4.860   1.521   0.401  0.1097  0.8796  1.1970
 4883TIP3    H236141   4.730   1.501   0.326  1.3231  0.9589 -0.9501
 4884TIP3   OH236142   1.531   3.237  14.584 -0.2176 -0.0123 -0.0546
 4884TIP3    H136143   1.549   3.266  14.673  1.1712  0.7391 -0.5644
 4884TIP3    H236144   1.596   3.170  14.566 -0.8775 -0.5952 -0.2970
 4885TIP3   OH236145   6.562   3.414  12.829 -0.1537 -0.0905 -0.2140
 4885TIP3    H136146   6.643   3.447  12.790  0.6561 -0.6966  0.9168
 4885TIP3    H236147   6.570   3.319  12.826 -0.4152 -0.1524  0.7151
 4886TIP3   OH236148   6.288   1.456  14.621  0.8831  0.1588  0.3865
 4886TIP3    H136149   6.279   1.517  14.548  1.0689  1.1374  1.1727
 4886TIP3    H236150   6.199   1.442  14.653  1.0155  1.4454  1.3518
 4887TIP3   OH236151   5.726   3.391   5.988  0.5392 -0.3470  0.2807
 4887TIP3    H136152   5.642   3.434   6.001  0.6579 -0.2528  0.7474
 4887TIP3    H236153   5.710   3.326   5.919  0.1602 -0.1254  0.1598
 4888TIP3   OH236154   6.232   1.476   5.749 -0.2466  0.4008 -0.0546
 4888TIP3    H136155   6.272   1.431   5.823 -1.0544 -0.1730  0.0302
 4888TIP3    H236156   6.256   1.424   5.673  0.2031  0.7440 -0.1546
 4889TIP3   OH236157   5.286   0.941  13.584  0.2414 -0.2221 -0.5538
 4889TIP3    H136158   5.291   0.888  13.504  1.3470 -2.8049  1.1707
 4889TIP3    H236159   5.375   0.973  13.597 -0.1222  0.8990 -0.8108
 4890TIP3   OH236160   3.701   5.610  15.381 -0.1069  0.0752 -0.3514
 4890TIP3    H136161   3.616   5.642  15.350 -1.2519 -1.0955  1.4437
 4890TIP3    H236162   3.682   5.521  15.413  1.5292  0.2924  1.2815
 4891TIP3   OH236163   0.382   6.019  13.383 -0.3660 -0.2465 -0.2429
 4891TIP3    H136164   0.300   6.033  13.431  1.4518  0.4604  2.8092
 4891TIP3    H236165   0.405   5.928  13.401 -0.0792 -0.2130 -0.4390
 4892TIP3   OH236166   2.241   4.524  15.699  0.1843  0.5676 -0.0493
 4892TIP3    H136167   2.218   4.509  15.608  0.7101 -0.5421 -0.0048
 4892TIP3    H236168   2.161   4.503  15.748  0.5523 -0.9297 -0.0846
 4893TIP3   OH236169   6.416   3.546  14.770 -0.2342 -0.8655  0.4904
 4893TIP3    H136170   6.449   3.597  14.843 -0.5149  2.1876 -1.4090
 4893TIP3    H236171   6.323   3.532  14.790  0.4512 -3.1089  2.3237
 4894TIP3   OH236172   2.243   2.864  13.329  0.3639 -0.6361 -0.6927
 4894TIP3    H136173   2.159   2.893  13.365  0.6609 -0.8546  0.1962
 4894TIP3    H236174   2.279   2.807  13.397  1.0539 -0.8526 -1.2367
 4895TIP3   OH236175   6.638   4.276  12.662  0.1728 -0.4700 -0.2653
 4895TIP3    H136176   6.545   4.279  12.682  0.2268 -0.6412  0.0171
 4895TIP3    H236177   6.654   4.185  12.635  0.6305 -0.9340  1.5347
 4896TIP3   OH236178   4.860   2.568  17.067  0.2252 -0.3557 -0.9064
 4896TIP3    H136179   4.776   2.579  17.023 -1.4194 -2.0788  1.6638
 4896TIP3    H236180   4.891   2.482  17.039 -0.0437 -0.7573  0.0182
 4897TIP3   OH236181   0.117   3.828   0.538 -0.0257  0.1938 -0.0788
 4897TIP3    H136182   0.191   3.885   0.557 -0.7475  1.5915 -1.3047
 4897TIP3    H236183   0.133   3.749   0.588  2.8059  0.0677 -1.1315
 4898TIP3   OH236184   6.021   5.756   0.709 -0.2058 -0.1273  0.1237
 4898TIP3    H136185   5.933   5.729   0.684  0.8582 -2.8079 -0.9893
 4898TIP3    H236186   6.074   5.744   0.630  1.0409  2.1954  0.5438
 4899TIP3   OH236187   4.628   4.769   0.614  0.2364  0.4078  0.3409
 4899TIP3    H136188   4.648   4.676   0.613 -0.7443  0.1662  1.9451
 4899TIP3    H236189   4.689   4.807   0.677 -0.4952  0.5620  0.9709
 4900TIP3   OH236190   3.647   6.332   5.917  0.2496 -0.3479 -0.2086
 4900TIP3    H136191   3.652   6.265   5.849 -1.0919 -0.4257 -0.2446
 4900TIP3    H236192   3.554   6.336   5.940  0.6438 -0.0869  1.3930
 4901TIP3   OH236193   0.729   6.343   3.497 -0.7925 -0.3146  0.4426
 4901TIP3    H136194   0.810   6.297   3.474 -1.1363 -0.2569 -0.9106
 4901TIP3    H236195   0.725   6.339   3.593  0.7165 -0.4731  0.5024
 4902TIP3   OH236196   0.889   0.242  15.282  0.3029  0.7042  0.3870
 4902TIP3    H136197   0.937   0.310  15.235 -0.1683  1.3934  0.9013
 4902TIP3    H236198   0.941   0.225  15.360  0.8804 -0.1604 -0.1779
 4903TIP3   OH236199   5.573   6.257   3.858 -0.6803  0.3959 -0.2218
 4903TIP3    H136200   5.578   6.317   3.933  0.6633 -0.8849  0.7328
 4903TIP3    H236201   5.507   6.297   3.800 -0.4429  2.3276  0.7979
 4904TIP3   OH236202   1.448   0.844   4.145  0.3672  0.3714 -0.4413
 4904TIP3    H136203   1.506   0.832   4.070  1.1532  1.5585 -0.0402
 4904TIP3    H236204   1.447   0.759   4.189 -0.4565 -0.4711 -2.0253
 4905TIP3   OH236205   5.107   2.225  16.450  0.1135  0.1762  0.0795
 4905TIP3    H136206   5.137   2.281  16.522 -1.6743 -0.2368  1.1719
 4905TIP3    H236207   5.105   2.137  16.488  1.1142 -0.3745 -1.0870
 4906TIP3   OH236208   5.676   4.339   0.310 -0.0922  0.2609  1.1463
 4906TIP3    H136209   5.759   4.292   0.303  0.4758  1.5127 -1.2784
 4906TIP3    H236210   5.684   4.393   0.389  1.6754  0.8402  0.5948
 4907TIP3   OH236211   5.056   2.435   2.472  0.1403 -0.0488  0.2203
 4907TIP3    H136212   5.149   2.455   2.484  0.2168 -0.2212 -0.0524
 4907TIP3    H236213   5.045   2.349   2.512  0.8692 -1.5909 -2.7222
 4908TIP3   OH236214   3.798   4.543  15.359 -0.0860 -0.2511 -0.2117
 4908TIP3    H136215   3.823   4.451  15.368 -1.1636 -0.5126  0.2054
 4908TIP3    H236216   3.717   4.551  15.410  1.8736  1.7347  2.7090
 4909TIP3   OH236217   5.038   4.623   0.535 -0.3102 -0.3948  0.1888
 4909TIP3    H136218   4.976   4.561   0.496  1.1957 -1.6484 -0.2185
 4909TIP3    H236219   4.983   4.696   0.564 -1.6872 -0.2419 -2.6595
 4910TIP3   OH236220   0.032   5.429   0.420  0.0400  0.2122  0.0325
 4910TIP3    H136221   0.126   5.413   0.421 -0.3876 -2.4827  0.1173
 4910TIP3    H236222   0.018   5.487   0.344  1.3586 -2.0150 -1.9645
 4911TIP3   OH236223   4.720   5.040   2.034  0.1502  0.4961  0.0700
 4911TIP3    H136224   4.675   5.069   2.113 -0.7264 -1.4727  0.3297
 4911TIP3    H236225   4.797   4.994   2.066 -0.4474 -0.7086 -0.1714
 4912TIP3   OH236226   5.585   5.214   1.433  0.5985 -0.0784  0.5414
 4912TIP3    H136227   5.505   5.246   1.474  0.0389 -0.8174  0.0312
 4912TIP3    H236228   5.576   5.119   1.433  1.3056 -0.1519  0.1293
 4913TIP3   OH236229   6.708   6.528  17.068  0.3043 -0.1992  0.2083
 4913TIP3    H136230   6.751   6.550  16.986  0.9695 -0.8691  0.3680
 4913TIP3    H236231   6.714   6.607  17.121 -1.5433  0.7663 -0.9650
 4914TIP3   OH236232   0.661   0.850   0.694 -0.5647  0.4464 -0.4305
 4914TIP3    H136233   0.628   0.821   0.779 -1.3773  0.7496 -0.6331
 4914TIP3    H236234   0.756   0.845   0.702 -0.6501 -0.1900  0.2610
 4915TIP3   OH236235   0.731   4.088  13.965  0.0574 -0.0688 -0.1522
 4915TIP3    H136236   0.718   3.999  13.998  0.2979 -0.0657 -0.0508
 4915TIP3    H236237   0.816   4.114  13.998  0.5193 -0.2479 -1.1778
 4916TIP3   OH236238   2.852   0.981   4.247 -0.2679  0.0530 -0.5090
 4916TIP3    H136239   2.843   1.056   4.189 -2.1792 -0.3714 -0.8178
 4916TIP3    H236240   2.782   0.992   4.312  0.7628 -0.3685  0.7066
 4917TIP3   OH236241   4.965   1.703  16.613  0.4247  0.0984  0.1057
 4917TIP3    H136242   5.044   1.651  16.623  1.5858  1.6797 -0.6766
 4917TIP3    H236243   4.896   1.649  16.652  1.0745 -3.2149 -2.9999
 4918TIP3   OH236244   1.490   0.594   4.227  0.0727 -0.2106 -0.0858
 4918TIP3    H136245   1.508   0.574   4.319 -0.2953  0.1867  0.0709
 4918TIP3    H236246   1.512   0.514   4.180  0.3842 -0.3696  0.3362
 4919TIP3   OH236247   4.667   0.475  16.022  0.6683  0.1621  0.0026
 4919TIP3    H136248   4.741   0.475  16.082  1.2279  1.6573 -0.6648
 4919TIP3    H236249   4.592   0.448  16.076  1.5216 -0.4514  0.8888
 4920TIP3   OH236250   4.661   4.991  13.032  0.5114 -0.2307 -0.1678
 4920TIP3    H136251   4.569   5.001  13.056  0.3253  1.2112 -1.4360
 4920TIP3    H236252   4.678   4.897  13.042 -0.7957 -0.3542  1.1025
 4921TIP3   OH236253   6.414   2.452   3.798 -0.1461  0.3539  0.1687
 4921TIP3    H136254   6.435   2.519   3.732 -1.0413  0.0120 -0.4676
 4921TIP3    H236255   6.499   2.425   3.833  0.4369 -0.4330 -1.8098
 4922TIP3   OH236256   0.478   1.864  10.595 -0.2869 -0.1002 -0.1411
 4922TIP3    H136257   0.489   1.938  10.656 -2.5648 -2.1351  2.8609
 4922TIP3    H236258   0.443   1.904  10.515 -2.4275  2.0205  1.7647
 4923TIP3   OH236259   6.757   1.343  11.678 -0.2457 -0.5713 -0.1701
 4923TIP3    H136260   6.848   1.374  11.679 -0.8083  1.4629 -3.0042
 4923TIP3    H236261   6.723   1.366  11.764  0.9799  1.8367 -0.2718
 4924TIP3   OH236262   6.270   6.421   4.001  0.3108  0.0452  0.3392
 4924TIP3    H136263   6.241   6.511   3.989  0.5319  0.0551 -0.1123
 4924TIP3    H236264   6.191   6.368   3.989  0.3532  0.1176 -0.2380
 4925TIP3   OH236265   2.643   5.450   2.470  0.0807  0.2222  0.4345
 4925TIP3    H136266   2.595   5.495   2.401 -2.2523 -1.4901  0.8992
 4925TIP3    H236267   2.591   5.373   2.490  2.5110 -1.1543  1.7027
 4926TIP3   OH236268   2.190   1.982  16.917  0.0128 -0.2351  0.2259
 4926TIP3    H136269   2.285   1.982  16.905 -0.2499  1.4683 -2.2681
 4926TIP3    H236270   2.175   2.048  16.985  0.6805 -1.3358  1.4605
 4927TIP3   OH236271   0.782   5.029   3.235 -0.1392  0.2560  0.1008
 4927TIP3    H136272   0.860   4.998   3.281  1.7476  3.1733 -0.9705
 4927TIP3    H236273   0.779   4.976   3.155  0.4038 -0.2625  0.4203
 4928TIP3   OH236274   0.289   4.956  13.302  0.0017 -0.9953  0.0569
 4928TIP3    H136275   0.363   4.924  13.354 -0.4451 -0.3467  1.0929
 4928TIP3    H236276   0.237   4.878  13.283  0.5011 -1.3266  0.0326
 4929TIP3   OH236277   2.501   5.634  13.081  0.3240  0.0515  0.2825
 4929TIP3    H136278   2.529   5.600  13.166  0.8253 -0.8585 -0.2286
 4929TIP3    H236279   2.506   5.558  13.023 -0.6915  0.5001 -0.4059
 4930TIP3   OH236280   5.180   5.256  15.219  0.1982  0.0246  0.4340
 4930TIP3    H136281   5.219   5.215  15.296  0.3082 -1.8820 -0.6108
 4930TIP3    H236282   5.123   5.189  15.182 -1.1389  1.4868 -0.2111
 4931TIP3   OH236283   0.813   1.226  17.087 -0.9817 -0.8863 -0.5691
 4931TIP3    H136284   0.870   1.157  17.053 -0.0071 -0.5167  0.3240
 4931TIP3    H236285   0.805   1.288  17.014  1.4756  0.1330 -0.0176
 4932TIP3   OH236286   4.933   3.772  10.888  0.2621 -0.2981  0.4739
 4932TIP3    H136287   4.948   3.836  10.958 -1.9382  1.3247 -0.4614
 4932TIP3    H236288   4.840   3.750  10.896 -0.6552  1.8092 -3.4458
 4933TIP3   OH236289   2.343   6.028   0.482 -0.7690  0.3969 -0.2162
 4933TIP3    H136290   2.425   6.012   0.530 -0.1081  3.0876 -0.3738
 4933TIP3    H236291   2.274   5.997   0.540  0.2269  0.5341  1.0501
 4934TIP3   OH236292   2.257   5.982   2.918  0.5173 -0.2771 -0.0199
 4934TIP3    H136293   2.197   5.908   2.906  1.5667 -1.1154 -0.1835
 4934TIP3    H236294   2.200   6.056   2.938 -0.4921 -1.3127  1.0230
 4935TIP3   OH236295   2.429   4.139  14.419  0.5662 -0.5896 -0.1258
 4935TIP3    H136296   2.379   4.061  14.394  0.9344 -1.1743  0.9271
 4935TIP3    H236297   2.378   4.179  14.489 -0.4401  1.0168 -1.7392
 4936TIP3   OH236298   0.207   5.285   5.960  0.2497  0.6986 -0.0266
 4936TIP3    H136299   0.244   5.208   6.002  1.2437 -0.1349 -2.3601
 4936TIP3    H236300   0.224   5.356   6.021  2.9037 -0.2336  0.3812
 4937TIP3   OH236301   1.420   6.226  14.498  0.4076 -0.1815  0.1340
 4937TIP3    H136302   1.465   6.203  14.417  1.7925 -1.2734  1.1820
 4937TIP3    H236303   1.490   6.243  14.561 -0.6395 -0.0432  1.2969
 4938TIP3   OH236304   1.399   5.621  12.332  0.7856 -0.2196 -0.0637
 4938TIP3    H136305   1.427   5.708  12.302  0.8073 -0.1485  0.1675
 4938TIP3    H236306   1.425   5.618  12.424 -2.4910  0.9231  0.9476
 4939TIP3   OH236307   1.722   0.431   1.362 -0.0956  0.2920 -0.1681
 4939TIP3    H136308   1.713   0.489   1.438  0.1441  0.3189 -0.1582
 4939TIP3    H236309   1.804   0.460   1.321  0.3999 -0.5293  0.2470
 4940TIP3   OH236310   2.167   4.456   1.511 -0.1054  0.2590  0.8683
 4940TIP3    H136311   2.225   4.525   1.545  0.8842 -0.6532  1.0645
 4940TIP3    H236312   2.103   4.503   1.457 -0.8610  1.5887  2.8406
 4941TIP3   OH236313   3.670   3.926   0.067 -0.5536 -0.3329 -0.5963
 4941TIP3    H136314   3.608   3.960   0.003 -0.4262  0.7492 -0.1503
 4941TIP3    H236315   3.710   4.004   0.106  0.5088 -1.0007 -0.3171
 4942TIP3   OH236316   5.966   0.812  15.852 -0.3478  0.0695 -0.1559
 4942TIP3    H136317   6.011   0.894  15.833 -2.5106  0.9429 -1.7337
 4942TIP3    H236318   5.883   0.819  15.805 -0.4198 -3.1786 -0.6207
 4943TIP3   OH236319   1.813   2.842   2.785  0.4677 -0.0575  0.1829
 4943TIP3    H136320   1.859   2.798   2.713  2.0925 -0.9444  1.7225
 4943TIP3    H236321   1.811   2.934   2.760  1.6458 -0.2580 -0.6883
 4944TIP3   OH236322   2.522   5.691   1.999  0.2961  0.4566  0.2986
 4944TIP3    H136323   2.547   5.763   1.941  0.4400  0.5115  0.4275
 4944TIP3    H236324   2.554   5.612   1.956 -0.4794  0.4019 -0.1890
 4945TIP3   OH236325   5.411   5.760   3.180  0.6620 -0.7022  0.3510
 4945TIP3    H136326   5.500   5.742   3.150  0.7139  1.8904 -1.2047
 4945TIP3    H236327   5.423   5.813   3.259  0.4983 -0.0633 -0.0528
 4946TIP3   OH236328   3.412   2.835   4.167 -0.5529  0.1120 -0.4003
 4946TIP3    H136329   3.354   2.853   4.241 -0.6808  0.5756 -0.6086
 4946TIP3    H236330   3.494   2.879   4.190 -0.5594  0.1679 -0.4841
 4947TIP3   OH236331   3.839   5.252   0.420 -0.0861 -0.5274 -0.2700
 4947TIP3    H136332   3.824   5.275   0.329  0.7743  0.7364 -0.1006
 4947TIP3    H236333   3.861   5.334   0.463 -2.6100 -0.7492  1.5487
 4948TIP3   OH236334   5.134   5.106   2.853  0.0668  0.3057  0.3069
 4948TIP3    H136335   5.086   5.063   2.781 -1.0208  1.6929  0.1890
 4948TIP3    H236336   5.150   5.194   2.821 -0.3474  0.9090  1.7320
 4949TIP3   OH236337   3.455   1.090  11.847 -0.0541 -0.2534  0.1377
 4949TIP3    H136338   3.434   1.153  11.778 -1.6952  1.3071  1.9907
 4949TIP3    H236339   3.550   1.082  11.844 -0.1600 -0.8897 -2.8544
 4950TIP3   OH236340   4.741   2.811   2.934 -0.3526 -0.0907 -0.3239
 4950TIP3    H136341   4.714   2.731   2.888  0.4211 -0.3755 -0.2841
 4950TIP3    H236342   4.665   2.834   2.987 -1.1400  0.0511 -1.4808
 4951TIP3   OH236343   2.479   4.804   2.267 -0.1958  0.4053 -0.7040
 4951TIP3    H136344   2.467   4.844   2.353  0.8195  0.5827 -0.6336
 4951TIP3    H236345   2.447   4.869   2.205  1.0240  1.1545 -0.5646
 4952TIP3   OH236346   1.917   4.707   0.658  0.6416 -0.5936  0.0052
 4952TIP3    H136347   2.009   4.682   0.644  0.4885 -1.8159  1.1106
 4952TIP3    H236348   1.867   4.649   0.601  0.6024  0.7901 -1.4022
 4953TIP3   OH236349   5.130   6.733   2.628 -0.7859 -0.2195  0.3772
 4953TIP3    H136350   5.174   6.689   2.556 -1.8503  0.3578 -0.6470
 4953TIP3    H236351   5.197   6.742   2.696  0.4435 -0.0832 -0.8372
 4954TIP3   OH236352   6.396   2.301   4.714 -0.0933  0.2228  0.3162
 4954TIP3    H136353   6.373   2.262   4.629  0.7922 -0.1433  0.2484
 4954TIP3    H236354   6.426   2.389   4.692  0.0330  0.1658  0.2592
 4955TIP3   OH236355   6.484   1.917   5.109  0.2324  0.5846 -0.2604
 4955TIP3    H136356   6.423   1.987   5.133  0.4018  0.4095  0.6697
 4955TIP3    H236357   6.460   1.895   5.019 -0.7835  0.8294 -0.0549
 4956TIP3   OH236358   2.874   3.000  12.534  0.4647 -0.2083  0.1427
 4956TIP3    H136359   2.840   3.006  12.624 -0.1021  0.0756 -0.0900
 4956TIP3    H236360   2.799   2.970  12.482  0.7149 -0.0974 -0.2827
 4957TIP3   OH236361   3.293   1.482   0.427  0.5749 -0.1260 -0.0545
 4957TIP3    H136362   3.343   1.518   0.500  0.6508 -0.7523  0.2093
 4957TIP3    H236363   3.241   1.555   0.394  2.2112  0.7226 -0.7973
 4958TIP3   OH236364   1.560   0.814   3.889 -0.2388 -0.2331 -0.0881
 4958TIP3    H136365   1.545   0.909   3.894 -0.9476 -0.3494  0.0533
 4958TIP3    H236366   1.515   0.786   3.810  0.2801 -0.3961 -0.3250
 4959TIP3   OH236367   2.376   3.457   2.142 -0.3305  0.0257  0.3957
 4959TIP3    H136368   2.432   3.427   2.070 -0.8065 -0.9121  0.4090
 4959TIP3    H236369   2.436   3.490   2.208  0.2163 -1.0921  0.4618
 4960TIP3   OH236370   6.313   1.718  16.287 -0.1337  0.4834 -0.2520
 4960TIP3    H136371   6.394   1.667  16.277 -0.0638  0.3115  1.0618
 4960TIP3    H236372   6.274   1.719  16.200  2.5012  2.6187 -1.4738
 4961TIP3   OH236373   0.734   1.571   0.364  0.0983 -0.0957 -0.3665
 4961TIP3    H136374   0.724   1.650   0.417  2.2953 -0.7840  1.1573
 4961TIP3    H236375   0.718   1.499   0.425  1.0669 -0.8789 -1.0225
 4962TIP3   OH236376   0.225   5.148   5.567  0.1928  0.3667 -0.5116
 4962TIP3    H136377   0.181   5.063   5.565  0.6731  0.0623  1.1755
 4962TIP3    H236378   0.303   5.134   5.621 -0.2456  2.1241  0.6383
 4963TIP3   OH236379   0.861   6.377   6.661  0.2745 -0.1499  0.2512
 4963TIP3    H136380   0.899   6.409   6.742 -0.3771 -1.5887  1.1422
 4963TIP3    H236381   0.802   6.306   6.688  0.0513 -0.6436 -1.4624
 4964TIP3   OH236382   0.235   3.846   0.021 -0.0844 -0.1037  0.5518
 4964TIP3    H136383   0.250   3.752   0.033 -1.3305 -0.1999  1.4419
 4964TIP3    H236384   0.170   3.869   0.088 -2.1591  0.7723 -1.7059
 4965TIP3   OH236385   5.204   5.041  10.477 -0.0491 -0.0757 -0.0207
 4965TIP3    H136386   5.263   4.976  10.515  0.3085  0.1306 -0.2214
 4965TIP3    H236387   5.138   4.989  10.429 -1.5149 -0.4163  2.2867
 4966TIP3   OH236388   1.973   2.490  15.185 -0.2192 -0.1419 -0.5867
 4966TIP3    H136389   1.999   2.552  15.117 -0.9475 -2.6193 -3.2444
 4966TIP3    H236390   1.880   2.508  15.198 -0.2579 -0.1555 -0.8273
 4967TIP3   OH236391   4.181   5.183   3.894 -0.2978  0.1781  0.2847
 4967TIP3    H136392   4.100   5.198   3.845 -0.4456  2.3859  1.1548
 4967TIP3    H236393   4.251   5.212   3.835 -0.3207  0.6446  0.4825
 4968TIP3   OH236394   6.599   3.432  15.685  0.1056  0.1730 -0.2050
 4968TIP3    H136395   6.626   3.477  15.765  0.7652 -0.6239  0.0251
 4968TIP3    H236396   6.602   3.499  15.618  3.9898 -0.1762 -0.4663
 4969TIP3   OH236397   0.368   4.646  11.814 -0.1041 -0.1265 -0.7871
 4969TIP3    H136398   0.419   4.621  11.738  0.4741  1.7851 -1.0409
 4969TIP3    H236399   0.406   4.595  11.886  1.6781  0.7385 -1.1067
 4970TIP3   OH236400   0.467   0.478  13.313  0.0198  0.2190  0.1431
 4970TIP3    H136401   0.482   0.413  13.244  0.8076  0.2332  0.3014
 4970TIP3    H236402   0.505   0.440  13.392  0.4813  0.8674  0.2398
 4971TIP3   OH236403   2.514   4.846   1.590 -0.6405  0.5285 -0.0368
 4971TIP3    H136404   2.520   4.850   1.494 -0.3693  1.3729  0.0122
 4971TIP3    H236405   2.590   4.896   1.620 -0.7489  0.2940  0.6237
 4972TIP3   OH236406   1.066   1.327  12.014  0.3536  0.5133 -0.1325
 4972TIP3    H136407   1.158   1.308  11.997  0.2100 -0.1749 -0.1753
 4972TIP3    H236408   1.067   1.403  12.072  1.0093 -0.4271  1.1410
 4973TIP3   OH236409   4.508   6.109   2.200  0.2920  0.0812  0.3185
 4973TIP3    H136410   4.596   6.114   2.238  0.9099 -0.2235 -1.0351
 4973TIP3    H236411   4.456   6.170   2.251  1.1997 -0.0470  1.4032
 4974TIP3   OH236412   5.730   5.346  12.624  0.0642 -0.9811 -0.5695
 4974TIP3    H136413   5.647   5.299  12.633  0.2854 -1.5656 -1.4881
 4974TIP3    H236414   5.705   5.438  12.615 -0.4876 -1.1570 -0.8633
 4975TIP3   OH236415   3.078   1.329   0.180 -0.1242  0.2733 -0.2899
 4975TIP3    H136416   3.036   1.372   0.106 -0.1633 -0.1644 -0.5201
 4975TIP3    H236417   3.034   1.366   0.257 -0.5057  0.2715 -0.5071
 4976TIP3   OH236418   6.654   1.511  12.322 -0.2891 -0.2814  0.0344
 4976TIP3    H136419   6.684   1.423  12.344 -0.0389  0.3403  2.3251
 4976TIP3    H236420   6.582   1.527  12.384  1.3778  2.0972  1.4422
 4977TIP3   OH236421   4.147   0.743   3.559 -0.4167 -0.2852  0.2204
 4977TIP3    H136422   4.117   0.706   3.476  2.2337  1.2841 -1.5577
 4977TIP3    H236423   4.074   0.733   3.619 -1.9771 -2.5402 -1.9950
 4978TIP3   OH236424   4.510   0.899  15.906  0.1310  0.5858 -0.6485
 4978TIP3    H136425   4.466   0.885  15.822  1.5856 -0.0329 -1.3277
 4978TIP3    H236426   4.547   0.988  15.900 -1.0927  1.1449 -0.0398
 4979TIP3   OH236427   3.956   5.544   0.306  0.2705 -0.0153 -0.1361
 4979TIP3    H136428   4.044   5.550   0.270  0.2394  0.3275 -0.1558
 4979TIP3    H236429   3.930   5.635   0.322 -0.0814 -0.1129 -0.1428
 4980TIP3   OH236430   3.508   5.863   0.381  0.2436  0.0013  0.1940
 4980TIP3    H136431   3.452   5.836   0.454 -0.1090 -1.4465 -0.5894
 4980TIP3    H236432   3.472   5.818   0.305  0.9083  1.1118 -0.7922
 4981TIP3   OH236433   0.741   1.790   0.529 -0.0298  0.7890  0.2921
 4981TIP3    H136434   0.837   1.781   0.529 -0.0158  0.8107  1.7933
 4981TIP3    H236435   0.720   1.820   0.617 -1.2786  2.4550 -0.5439
 4982TIP3   OH236436   4.048   3.287  11.157  0.1674  0.1356 -0.2276
 4982TIP3    H136437   3.954   3.275  11.165 -0.0177  1.2635 -0.6468
 4982TIP3    H236438   4.058   3.351  11.086  1.2177  0.4918  0.2324
 4983TIP3   OH236439   2.152   3.384   3.311  0.7626  0.3582  0.6374
 4983TIP3    H136440   2.225   3.437   3.280 -1.3803  2.4892 -0.9544
 4983TIP3    H236441   2.173   3.365   3.403  2.8093  1.7394  0.4814
 4984TIP3   OH236442   3.564   1.096   5.446  0.1640 -0.7711 -0.3647
 4984TIP3    H136443   3.481   1.111   5.492  0.2657 -1.8151  0.1678
 4984TIP3    H236444   3.543   1.108   5.354 -0.5976 -1.1258 -0.2366
 4985TIP3   OH236445   6.352   0.719   6.427  0.3925 -0.1711 -0.0347
 4985TIP3    H136446   6.303   0.667   6.489  1.2921  0.2663  1.0643
 4985TIP3    H236447   6.409   0.656   6.382 -0.1713 -0.4668 -0.3369
 4986TIP3   OH236448   2.618   6.419   4.535  0.0541 -0.9204 -0.4768
 4986TIP3    H136449   2.601   6.390   4.445 -0.0936 -1.3204 -0.3205
 4986TIP3    H236450   2.583   6.349   4.589  1.3794 -1.3312 -0.1262
 4987TIP3   OH236451   1.879   2.718  16.314  0.4557  0.1312  0.0124
 4987TIP3    H136452   1.814   2.689  16.250  0.9995 -3.6323  1.0550
 4987TIP3    H236453   1.960   2.726  16.264  0.5338 -1.2285 -0.0861
 4988TIP3   OH236454   4.991   4.948  14.125  0.0852 -0.3637 -0.2878
 4988TIP3    H136455   4.940   4.868  14.141 -0.5481 -0.6556 -3.5392
 4988TIP3    H236456   5.082   4.919  14.133 -0.1501 -0.6859  1.6450
 4989TIP3   OH236457   1.430   1.794  13.694  0.3555  0.1202 -0.1450
 4989TIP3    H136458   1.426   1.889  13.708  3.0121  0.1009  1.0333
 4989TIP3    H236459   1.397   1.783  13.605 -0.9990  2.0362  0.0757
 4990TIP3   OH236460   5.451   2.684   2.723 -0.3997 -0.4901  0.0378
 4990TIP3    H136461   5.449   2.597   2.685 -1.0678  0.5459 -2.3925
 4990TIP3    H236462   5.538   2.718   2.701 -1.2892  0.6382 -1.8565
 4991TIP3   OH236463   2.987   2.861   3.400 -0.2945 -0.2555  0.0803
 4991TIP3    H136464   2.950   2.900   3.321 -1.7051 -2.0642 -0.1971
 4991TIP3    H236465   3.081   2.879   3.394 -0.5099  0.4286 -1.5543
 4992TIP3   OH236466   1.473   0.899   5.785  0.0620 -0.1011  0.1816
 4992TIP3    H136467   1.519   0.983   5.776  1.3913 -0.7591  0.7712
 4992TIP3    H236468   1.482   0.857   5.700 -0.3716  0.2379 -0.0319
 4993TIP3   OH236469   4.522   4.295   2.462  0.0498  0.0820  0.2927
 4993TIP3    H136470   4.507   4.304   2.368 -1.8514 -0.5733  0.5108
 4993TIP3    H236471   4.585   4.364   2.483  2.6771 -1.5163 -1.9393
 4994TIP3   OH236472   0.722   1.072  12.241  0.0502  0.5152  0.0536
 4994TIP3    H136473   0.774   1.105  12.168 -1.9538  3.1891 -0.2080
 4994TIP3    H236474   0.645   1.033  12.200  0.8370 -1.7024  0.5651
 4995TIP3   OH236475   5.441   2.404  11.924  0.3101  0.3912  0.8533
 4995TIP3    H136476   5.415   2.390  12.015 -0.4089  0.3904  0.6464
 4995TIP3    H236477   5.512   2.341  11.909  0.4027  0.3656  1.3994
 4996TIP3   OH236478   0.806   4.001  15.121  0.7383 -0.8818  0.0275
 4996TIP3    H136479   0.716   4.010  15.089  0.9592 -0.4349 -0.4682
 4996TIP3    H236480   0.797   3.971  15.212  0.0954 -1.1753 -0.1358
 4997TIP3   OH236481   2.070   5.568   5.548 -0.2507 -0.3699  0.3459
 4997TIP3    H136482   2.136   5.575   5.478  0.3475 -0.4325  0.9009
 4997TIP3    H236483   2.061   5.474   5.563 -0.1901 -0.3453  0.5323
 4998TIP3   OH236484   1.765   3.493   1.458  0.3699  0.0507 -0.2735
 4998TIP3    H136485   1.745   3.474   1.550  1.3120  1.1806  0.1622
 4998TIP3    H236486   1.704   3.563   1.434  1.6542  1.3308  0.1535
 4999TIP3   OH236487   5.786   2.004   1.265 -0.1564 -0.1166  0.1601
 4999TIP3    H136488   5.714   2.054   1.227 -1.2723  0.4626  2.8989
 4999TIP3    H236489   5.759   1.913   1.259 -0.9470  0.0745  0.7975
 5000TIP3   OH236490   4.957   2.594   4.417  0.7061 -0.5280 -0.2029
 5000TIP3    H136491   5.000   2.623   4.337 -0.1353 -0.7138 -0.7286
 5000TIP3    H236492   4.865   2.581   4.392 -0.0453  1.5459  1.2966
 5001TIP3   OH236493   0.777   2.925   2.428 -0.2067 -0.8214  0.1679
 5001TIP3    H136494   0.743   2.970   2.351 -1.2319 -1.6255  0.1321
 5001TIP3    H236495   0.788   2.834   2.400  0.2498 -0.9445  0.7182
 5002TIP3   OH236496   5.435   6.026  16.490  0.3168  0.0807 -0.1618
 5002TIP3    H136497   5.460   5.934  16.481 -1.4138 -0.2324 -2.1714
 5002TIP3    H236498   5.340   6.025  16.496  0.2968  1.7325  0.0078
 5003TIP3   OH236499   2.670   2.647   3.334 -0.3269  0.0846  0.3266
 5003TIP3    H136500   2.640   2.650   3.425 -0.4216 -0.1570  0.3039
 5003TIP3    H236501   2.710   2.560   3.325 -1.7690 -0.5252 -0.3164
 5004TIP3   OH236502   5.442   2.170  15.283 -0.3595 -0.1305  0.1197
 5004TIP3    H136503   5.481   2.256  15.299 -2.3809  0.6545  0.9876
 5004TIP3    H236504   5.421   2.170  15.190 -0.1402  0.2192  0.0686
 5005TIP3   OH236505   5.340   6.323  15.883 -0.1284 -0.1454 -0.2786
 5005TIP3    H136506   5.270   6.282  15.934 -0.1910  0.8148  0.4145
 5005TIP3    H236507   5.296   6.388  15.829  0.2165  0.3867  0.0811
 5006TIP3   OH236508   6.781   6.594   6.537 -0.0413  0.2903 -0.1913
 5006TIP3    H136509   6.802   6.678   6.578 -0.6442 -0.5793  1.9952
 5006TIP3    H236510   6.691   6.576   6.566 -0.2939 -0.5925 -1.5224
 5007TIP3   OH236511   0.695   5.136  14.135  0.0451  0.1270 -0.0129
 5007TIP3    H136512   0.676   5.098  14.220 -1.7557 -1.0452 -0.9077
 5007TIP3    H236513   0.611   5.136  14.089  1.4117 -1.4256 -2.6217
 5008TIP3   OH236514   6.507   6.689  11.750 -0.5673  0.4010 -0.2245
 5008TIP3    H136515   6.482   6.638  11.827  0.9915  1.6774  1.1520
 5008TIP3    H236516   6.497   6.627  11.677  0.4683 -1.6401  1.2940
 5009TIP3   OH236517   0.563   2.316   1.721  0.8438  0.0717 -0.3244
 5009TIP3    H136518   0.649   2.357   1.733  0.2431  0.6019  2.5507
 5009TIP3    H236519   0.555   2.254   1.793 -0.1283 -1.9214 -2.0858
 5010TIP3   OH236520   5.373   0.335   3.707  0.5299 -0.2208 -0.6884
 5010TIP3    H136521   5.297   0.391   3.723  1.4912  1.3897 -1.6692
 5010TIP3    H236522   5.403   0.360   3.619  4.3363  1.7716  1.0474
 5011TIP3   OH236523   1.382   4.322   3.191  0.3101 -0.3233  0.0023
 5011TIP3    H136524   1.412   4.267   3.119 -1.0748 -0.4989 -0.4567
 5011TIP3    H236525   1.333   4.262   3.247  0.2344  0.1011  0.3876
 5012TIP3   OH236526   0.390   1.469   3.638 -0.3068 -0.0751  0.3043
 5012TIP3    H136527   0.353   1.547   3.677 -0.1826 -0.6505  1.6021
 5012TIP3    H236528   0.441   1.429   3.708 -0.4088 -1.3480 -0.3270
 5013TIP3   OH236529   0.553   6.270  16.393 -0.3516 -0.6854 -0.0844
 5013TIP3    H136530   0.508   6.264  16.478 -0.3968  0.6830  0.0044
 5013TIP3    H236531   0.484   6.255  16.329 -0.4880 -0.8650  0.1015
 5014TIP3   OH236532   3.725   1.718   5.422  0.0242  0.4340 -0.5004
 5014TIP3    H136533   3.815   1.699   5.447 -0.0117 -1.7816 -1.8550
 5014TIP3    H236534   3.681   1.737   5.505  1.1606 -1.1383  0.5054
 5015TIP3   OH236535   5.480   1.822  12.168 -0.4527 -0.1430  0.3942
 5015TIP3    H136536   5.503   1.808  12.260 -0.6024  1.3049  0.6732
 5015TIP3    H236537   5.539   1.765  12.119 -0.2752 -0.8175  1.3772
 5016TIP3   OH236538   0.156   4.504  13.643 -0.6232 -0.4506  0.2843
 5016TIP3    H136539   0.084   4.538  13.590 -0.0300 -1.3657 -1.1475
 5016TIP3    H236540   0.223   4.572  13.640 -0.9895 -0.0628  0.7281
 5017TIP3   OH236541   3.284   0.627   0.815  0.0137 -0.3083 -0.0932
 5017TIP3    H136542   3.311   0.536   0.820  0.2029 -0.3293 -1.2690
 5017TIP3    H236543   3.297   0.661   0.903 -0.5692 -1.5508  0.4891
 5018TIP3   OH236544   5.269   4.606   4.950 -0.1336 -0.0763 -0.0849
 5018TIP3    H136545   5.192   4.607   4.893  0.0024  1.7472 -0.2602
 5018TIP3    H236546   5.289   4.513   4.961 -0.9458 -0.5003 -1.9545
 5019TIP3   OH236547   6.630   2.038   5.306 -0.2160 -0.7237 -0.0348
 5019TIP3    H136548   6.579   1.985   5.245 -0.0897 -2.0014  0.9354
 5019TIP3    H236549   6.570   2.054   5.379  0.1545 -0.5942  0.2418
 5020TIP3   OH236550   2.016   0.056  15.674  0.9463 -0.5802  0.1281
 5020TIP3    H136551   2.010  -0.040  15.666  3.5254 -0.7955  0.4931
 5020TIP3    H236552   1.966   0.089  15.599 -1.1341 -2.1638  0.7445
 5021TIP3   OH236553   1.453   4.431  14.768  0.1327 -0.0303  0.5154
 5021TIP3    H136554   1.410   4.365  14.822 -0.5381  1.2526  1.5717
 5021TIP3    H236555   1.545   4.404  14.766 -0.2806 -1.4601  0.2288
 5022TIP3   OH236556   0.317   1.864  10.962 -0.1144  0.1626  0.7846
 5022TIP3    H136557   0.288   1.789  10.911 -0.4252  0.6533  0.2299
 5022TIP3    H236558   0.355   1.924  10.897 -3.1406  2.0804  0.6664
 5023TIP3   OH236559   2.310   3.264   1.464 -0.5137  0.1520  0.6732
 5023TIP3    H136560   2.297   3.239   1.373 -0.2825 -2.2296  1.2598
 5023TIP3    H236561   2.395   3.226   1.488  0.4707  2.6417  1.2564
 5024TIP3   OH236562   0.874   2.107   3.067  0.1505  0.0247  0.1298
 5024TIP3    H136563   0.830   2.038   3.018  0.1622  1.8906 -2.6227
 5024TIP3    H236564   0.805   2.172   3.083  0.7296  0.5861  0.3431
 5025TIP3   OH236565   0.573   2.823  10.695  0.4735  0.6451 -0.2807
 5025TIP3    H136566   0.521   2.819  10.615  0.7014  2.7136 -0.5534
 5025TIP3    H236567   0.514   2.865  10.759  1.5105  2.2577 -0.3679
 5026TIP3   OH236568   4.469   6.686   5.499  0.0021 -0.4732 -0.3907
 5026TIP3    H136569   4.425   6.640   5.571 -0.8022 -0.5961 -0.9602
 5026TIP3    H236570   4.506   6.616   5.445 -3.3492 -0.6136 -2.6374
 5027TIP3   OH236571   4.788   4.224  14.800  0.3360  0.3234 -0.0149
 5027TIP3    H136572   4.692   4.227  14.801  0.3617  1.0931  0.8161
 5027TIP3    H236573   4.809   4.157  14.735 -0.7747 -1.7311  1.6941
 5028TIP3   OH236574   0.666   4.248  10.921  0.1621  0.0638 -0.1046
 5028TIP3    H136575   0.695   4.339  10.915 -2.6847  0.8881 -2.9324
 5028TIP3    H236576   0.705   4.205  10.844  2.1787 -1.3931  1.6601
 5029TIP3   OH236577   4.446   6.386  14.765  0.2462  0.0834  0.6728
 5029TIP3    H136578   4.393   6.340  14.700  1.7373 -1.7157  0.6828
 5029TIP3    H236579   4.513   6.432  14.713  1.8837 -1.9372  0.9129
 5030TIP3   OH236580   5.964   5.014   2.198  0.2691  0.3417 -0.0074
 5030TIP3    H136581   6.043   4.974   2.161 -0.3410  2.0357 -3.4292
 5030TIP3    H236582   5.997   5.088   2.249  0.9422  0.8322 -1.1261
 5031TIP3   OH236583   3.233   3.087   3.931 -0.0166 -0.1547 -0.2836
 5031TIP3    H136584   3.293   3.020   3.899  1.0194  0.5982  0.0697
 5031TIP3    H236585   3.188   3.119   3.853 -0.9447 -1.6583 -0.3860
 5032TIP3   OH236586   4.844   3.335   2.525  0.6606 -0.3014 -0.0267
 5032TIP3    H136587   4.770   3.309   2.580 -0.4926  1.9412 -0.4865
 5032TIP3    H236588   4.882   3.251   2.497 -0.3071 -1.4834  2.0287
 5033TIP3   OH236589   6.776   4.011  13.812  0.7232 -0.0106  0.9775
 5033TIP3    H136590   6.758   4.080  13.877 -0.4599  0.2485  0.3898
 5033TIP3    H236591   6.823   4.056  13.742  0.3044  0.1146  0.7765
 5034TIP3   OH236592   0.446   0.170   6.720 -0.4548  0.6008 -0.3949
 5034TIP3    H136593   0.446   0.076   6.741  1.3867  1.3663  3.3992
 5034TIP3    H236594   0.354   0.193   6.714 -0.9480 -1.2015 -0.2533
 5035TIP3   OH236595   6.525   6.251   3.964 -0.0525  0.2833 -0.6582
 5035TIP3    H136596   6.430   6.252   3.978 -0.0891  0.3996 -0.9090
 5035TIP3    H236597   6.540   6.316   3.895 -0.0686 -1.3427 -2.2401
 5036TIP3   OH236598   0.850   3.351  13.194 -0.2196 -1.0240  0.0116
 5036TIP3    H136599   0.793   3.426  13.210  0.5292 -0.1026 -1.5252
 5036TIP3    H236600   0.792   3.284  13.158 -0.8515 -1.1253  1.1944
 5037TIP3   OH236601   4.553   0.028  14.239 -0.0069  0.8209  0.1488
 5037TIP3    H136602   4.541  -0.034  14.311 -1.6029 -1.1980 -1.7612
 5037TIP3    H236603   4.605  -0.020  14.174 -0.2429  1.9030 -0.8655
 5038TIP3   OH236604   0.307   1.692  11.465  0.3114 -0.1060  0.2131
 5038TIP3    H136605   0.316   1.756  11.395  2.3882 -1.0170 -0.3957
 5038TIP3    H236606   0.267   1.615  11.423  0.7186 -0.3227  0.2129
 5039TIP3   OH236607   3.510   1.822   1.905 -0.3995 -0.0958 -0.7087
 5039TIP3    H136608   3.515   1.768   1.983  0.7745  0.6343 -0.2742
 5039TIP3    H236609   3.517   1.761   1.832  1.5714 -0.4605 -0.2191
 5040TIP3   OH236610   4.984   0.193  16.309 -0.2930 -0.2040 -0.3001
 5040TIP3    H136611   4.924   0.139  16.257 -3.1711  0.4309  2.2401
 5040TIP3    H236612   5.032   0.130  16.363 -0.7800 -0.5172 -0.2281
 5041TIP3   OH236613   1.504   4.927  13.577  0.1210 -0.3534 -0.5591
 5041TIP3    H136614   1.568   4.931  13.506 -0.8992  1.5664 -1.3859
 5041TIP3    H236615   1.557   4.923  13.657  1.2836  1.9288 -1.1917
 5042TIP3   OH236616   1.734   1.967  15.616 -0.6051 -0.2607  0.4992
 5042TIP3    H136617   1.827   1.987  15.607 -0.8663  1.4405  1.2400
 5042TIP3    H236618   1.712   1.916  15.539  0.9214 -0.5725  0.2622
 5043TIP3   OH236619   1.077   6.503   3.491  0.3451 -0.0777 -0.1038
 5043TIP3    H136620   1.124   6.574   3.447  2.6259 -1.0610  0.7191
 5043TIP3    H236621   1.022   6.548   3.555  1.2096  1.0096 -0.1028
 5044TIP3   OH236622   3.049   0.071   6.567  0.3207  0.1182 -0.0904
 5044TIP3    H136623   3.070  -0.013   6.526 -0.6283 -0.4878  0.6473
 5044TIP3    H236624   2.958   0.062   6.595  0.1795  1.4265 -0.0803
 5045TIP3   OH236625   0.960   2.048   4.923 -0.1721 -0.3977  0.5668
 5045TIP3    H136626   0.870   2.021   4.906  0.3472 -1.8256  0.0345
 5045TIP3    H236627   0.999   2.055   4.836 -0.2384  1.9104  0.7013
 5046TIP3   OH236628   3.370   1.979  11.441 -0.1038 -0.3347 -0.6505
 5046TIP3    H136629   3.298   1.968  11.503 -0.4755 -0.5796 -1.1170
 5046TIP3    H236630   3.348   1.919  11.369  0.2055  0.1199 -1.1223
 5047TIP3   OH236631   0.893   2.055  14.832  0.5656  0.1252  0.2164
 5047TIP3    H136632   0.985   2.034  14.849  0.0336 -2.0673  0.4659
 5047TIP3    H236633   0.870   2.119  14.900  1.8758  0.6437  0.1819
 5048TIP3   OH236634   5.147   2.244  13.974  0.5418  0.2951  0.2296
 5048TIP3    H136635   5.218   2.308  13.965 -0.0316  1.2156  1.8937
 5048TIP3    H236636   5.192   2.160  13.987  1.3112  0.6402 -0.1546
 5049TIP3   OH236637   5.083   5.069   6.382 -0.0060 -0.6786 -0.0109
 5049TIP3    H136638   5.115   5.153   6.348 -0.0180 -0.4866  0.4569
 5049TIP3    H236639   5.048   5.025   6.304 -0.0864 -0.2149 -0.2452
 5050TIP3   OH236640   6.563   3.444  10.936  0.3146  0.4964 -0.3332
 5050TIP3    H136641   6.558   3.480  11.024  0.2799  1.7863 -0.8532
 5050TIP3    H236642   6.476   3.409  10.919  1.0481 -2.2001  1.1401
 5051TIP3   OH236643   1.552   2.697  14.122 -0.3637  0.3641  0.3988
 5051TIP3    H136644   1.617   2.720  14.188  1.5278  3.1891 -2.2725
 5051TIP3    H236645   1.604   2.680  14.043 -2.6861 -0.4227 -1.0248
 5052TIP3   OH236646   6.401   4.255   2.524  0.1290  0.1892  0.0474
 5052TIP3    H136647   6.335   4.247   2.456  0.2366 -1.9965  0.1706
 5052TIP3    H236648   6.351   4.270   2.605 -0.0222  2.1973 -0.3948
 5053TIP3   OH236649   1.533   2.787   2.297  0.1083 -0.1206 -0.4012
 5053TIP3    H136650   1.599   2.717   2.297  0.3835  0.1395  0.4442
 5053TIP3    H236651   1.504   2.792   2.206 -1.1298 -2.4861 -0.1710
 5054TIP3   OH236652   3.654   4.870  16.196 -0.0095  0.6604 -0.1569
 5054TIP3    H136653   3.722   4.888  16.132  0.3448 -1.0688 -0.2941
 5054TIP3    H236654   3.587   4.822  16.148  0.2597 -0.6474  0.7465
 5055TIP3   OH236655   2.818   1.585  12.699 -1.1616  0.1757 -0.2036
 5055TIP3    H136656   2.731   1.592  12.660 -1.1964 -1.4221 -0.4574
 5055TIP3    H236657   2.803   1.547  12.785 -0.6990 -0.3334 -0.3450
 5056TIP3   OH236658   4.279   0.733  11.199 -0.4053 -0.0941 -0.8053
 5056TIP3    H136659   4.288   0.691  11.113 -2.0248  2.2921 -2.1698
 5056TIP3    H236660   4.362   0.778  11.212 -0.2226 -0.3190 -1.1773
 5057TIP3   OH236661   6.054   5.730   4.687  0.5502 -0.1538 -0.4864
 5057TIP3    H136662   6.098   5.666   4.743  0.4260 -1.0876 -1.4337
 5057TIP3    H236663   5.998   5.779   4.747  0.4049 -1.1411  0.2076
 5058TIP3   OH236664   6.564   1.572   3.102 -0.2452 -0.2363  0.9539
 5058TIP3    H136665   6.639   1.629   3.083 -1.5034  0.9188 -0.6895
 5058TIP3    H236666   6.515   1.620   3.169 -0.1936 -0.4044  1.1136
 5059TIP3   OH236667   6.278   5.447  16.119 -0.4343 -0.0551  0.3032
 5059TIP3    H136668   6.253   5.424  16.208 -2.4140 -2.3596 -0.7977
 5059TIP3    H236669   6.226   5.526  16.100 -0.8167 -0.1743  0.8276
 5060TIP3   OH236670   0.101   0.139   4.250 -0.2900 -0.1217  0.6705
 5060TIP3    H136671   0.090   0.166   4.341 -2.1616 -0.8971  0.6876
 5060TIP3    H236672   0.139   0.052   4.255 -0.9870 -0.4256  0.7272
 5061TIP3   OH236673   2.832   0.795   1.228  0.3835  0.3400  0.2743
 5061TIP3    H136674   2.750   0.841   1.246 -0.0985 -0.0031 -0.9993
 5061TIP3    H236675   2.894   0.865   1.207  0.3730  0.5863  1.0484
 5062TIP3   OH236676   6.281   1.144   0.271  0.4388  0.1691  0.1942
 5062TIP3    H136677   6.263   1.198   0.348 -0.9517  1.8072 -1.2331
 5062TIP3    H236678   6.197   1.103   0.251  0.8891 -0.5590 -0.2148
 5063TIP3   OH236679   6.228   5.408   1.673 -0.2877  0.5008 -0.1728
 5063TIP3    H136680   6.194   5.399   1.763 -1.7677 -2.0815 -0.9101
 5063TIP3    H236681   6.278   5.328   1.659 -1.5594  0.0392 -2.2343
 5064TIP3   OH236682   5.892   3.751  12.602  0.2225  0.4195 -0.2098
 5064TIP3    H136683   5.846   3.722  12.523  2.2506 -0.8646 -0.9500
 5064TIP3    H236684   5.888   3.676  12.661  0.2133  0.7786  0.2481
 5065TIP3   OH236685   4.426   3.628   4.975 -0.0251 -0.0174  0.0826
 5065TIP3    H136686   4.473   3.585   5.046  0.9158 -0.5400 -0.8636
 5065TIP3    H236687   4.480   3.703   4.952 -0.9218  0.8425  0.7116
 5066TIP3   OH236688   2.618   3.725  15.365  0.5323  0.1801 -0.3503
 5066TIP3    H136689   2.532   3.691  15.339  0.6458  0.9917 -1.8208
 5066TIP3    H236690   2.672   3.647  15.377 -0.6404 -0.3971  1.5277
 5067TIP3   OH236691   2.755   4.284   0.374  0.6728  0.1206 -0.4615
 5067TIP3    H136692   2.835   4.326   0.341  1.1956 -1.8519 -1.7819
 5067TIP3    H236693   2.690   4.299   0.306  0.8459 -1.1301 -0.9119
 5068TIP3   OH236694   4.363   0.081  12.991 -0.7671 -0.0672  0.2284
 5068TIP3    H136695   4.400   0.136  12.922 -3.1637 -0.9494 -1.8323
 5068TIP3    H236696   4.424   0.008  12.999  1.0936  1.5329  1.2027
 5069TIP3   OH236697   6.192   0.990  11.059 -0.1033  0.4198  0.2013
 5069TIP3    H136698   6.248   0.919  11.089  1.1723  1.0261 -0.6606
 5069TIP3    H236699   6.113   0.947  11.026  2.5031 -1.0755 -4.5576
 5070TIP3   OH236700   4.394   1.059  12.810  0.4644 -0.5713 -0.1527
 5070TIP3    H136701   4.447   1.137  12.800 -0.2467  0.1634  1.6051
 5070TIP3    H236702   4.425   0.999  12.741  0.7964  1.3496 -1.6991
 5071TIP3   OH236703   6.024   2.705   1.211 -0.3291 -0.4970 -0.0971
 5071TIP3    H136704   5.979   2.715   1.295 -0.9629 -1.1187 -0.3516
 5071TIP3    H236705   6.107   2.663   1.233  0.0123  0.3934  0.3464
 5072TIP3   OH236706   0.422   3.827   2.049 -0.4852  0.0016  0.5678
 5072TIP3    H136707   0.396   3.843   1.959  1.0240 -1.8099 -0.2306
 5072TIP3    H236708   0.507   3.869   2.058  0.3809 -1.6860  0.4669
 5073TIP3   OH236709   4.697   0.126   1.696 -0.0637  0.1197  0.0558
 5073TIP3    H136710   4.622   0.185   1.699  1.5013  2.1774 -0.4195
 5073TIP3    H236711   4.660   0.039   1.713 -2.8044  0.8191 -2.0182
 5074TIP3   OH236712   5.302   0.609  16.645  0.3074 -0.4241  0.9171
 5074TIP3    H136713   5.377   0.627  16.702  1.3614  1.2492 -0.9567
 5074TIP3    H236714   5.339   0.563  16.570 -1.0240 -2.3131  1.3844
 5075TIP3   OH236715   3.280   1.669   2.583 -0.5644  0.5790 -0.0153
 5075TIP3    H136716   3.247   1.596   2.635  2.2354 -1.6280 -1.1870
 5075TIP3    H236717   3.343   1.713   2.640  0.1604  0.0691 -0.4068
 5076TIP3   OH236718   6.320   2.983   4.263 -0.4318  0.0555 -0.2157
 5076TIP3    H136719   6.401   3.028   4.242 -0.6470  0.7657  0.4583
 5076TIP3    H236720   6.259   3.011   4.194  0.7327 -2.9586 -2.6099
 5077TIP3   OH236721   2.128   0.011  12.146  0.4920 -0.1743 -0.0723
 5077TIP3    H136722   2.048   0.048  12.109  1.6619  1.3759 -1.1584
 5077TIP3    H236723   2.173   0.086  12.185  1.9373 -0.7966 -0.4764
 5078TIP3   OH236724   0.688   4.186   5.861 -0.4363 -0.4500  0.4825
 5078TIP3    H136725   0.597   4.188   5.831 -0.1222  0.6923 -0.4429
 5078TIP3    H236726   0.714   4.278   5.865  1.2701 -0.8239 -1.1880
 5079TIP3   OH236727   2.800   0.233  13.852 -0.0561 -0.0127 -0.1168
 5079TIP3    H136728   2.795   0.296  13.924  1.6215  1.6356 -1.4020
 5079TIP3    H236729   2.738   0.165  13.876  1.2530 -0.0694  3.4542
 5080TIP3   OH236730   6.740   5.883  12.116  0.0835 -0.1538 -0.0909
 5080TIP3    H136731   6.815   5.940  12.135  0.9948 -1.3983  0.1320
 5080TIP3    H236732   6.772   5.825  12.047 -0.2520 -1.5315  0.8913
 5081TIP3   OH236733   0.335   5.847   4.423  0.8611 -0.1580  0.5090
 5081TIP3    H136734   0.414   5.896   4.447 -0.2210  0.3215  3.3110
 5081TIP3    H236735   0.263   5.902   4.452 -0.4390 -1.9187  0.7227
 5082TIP3   OH236736   2.212   1.347   5.684 -0.1069  0.2702  0.1606
 5082TIP3    H136737   2.291   1.342   5.631 -0.3103 -0.6210 -0.0583
 5082TIP3    H236738   2.152   1.402   5.632 -0.4315 -0.8785 -0.7075
 5083TIP3   OH236739   3.136   0.338  17.164  0.5667 -0.0226 -0.1267
 5083TIP3    H136740   3.089   0.315  17.244  1.9652 -0.2700  0.6412
 5083TIP3    H236741   3.149   0.254  17.119  2.3145 -0.2682  0.8079
 5084TIP3   OH236742   0.914   5.727  14.110  0.0475 -0.0203  0.1771
 5084TIP3    H136743   0.978   5.668  14.070 -0.4582  0.2201 -1.0135
 5084TIP3    H236744   0.861   5.757  14.037 -2.0826 -1.0011  1.2639
 5085TIP3   OH236745   1.414   3.380   2.027 -0.0315  0.1223 -0.2355
 5085TIP3    H136746   1.459   3.443   2.084 -1.6909  0.0201  1.2438
 5085TIP3    H236747   1.396   3.429   1.947 -1.1350  1.5097  0.8332
 5086TIP3   OH236748   1.902   5.036   4.298  0.3700  0.1872  0.5200
 5086TIP3    H136749   1.975   5.082   4.339  0.0480  1.6210 -0.4828
 5086TIP3    H236750   1.871   5.096   4.230 -1.4162 -0.6210  0.6047
 5087TIP3   OH236751   4.588   4.134   1.665 -0.0025  0.3650 -0.3911
 5087TIP3    H136752   4.637   4.055   1.645  0.8796  0.8001  0.0599
 5087TIP3    H236753   4.627   4.168   1.746 -0.2278  1.3790 -0.6957
 5088TIP3   OH236754   0.852   2.136   5.489  0.1550 -0.5274 -0.4269
 5088TIP3    H136755   0.830   2.140   5.396 -0.1281  0.9226 -0.3103
 5088TIP3    H236756   0.909   2.212   5.503  1.4698 -1.6147  0.2573
 5089TIP3   OH236757   5.632   5.205  11.592  0.4668 -0.0102  0.2243
 5089TIP3    H136758   5.684   5.211  11.672 -1.1282  0.3324  1.2612
 5089TIP3    H236759   5.683   5.253  11.527  1.4796  0.2502  1.1927
 5090TIP3   OH236760   5.603   3.749   3.098 -0.3570 -0.0353 -0.4415
 5090TIP3    H136761   5.536   3.815   3.114 -0.4562 -0.3809  0.6175
 5090TIP3    H236762   5.631   3.764   3.008  1.3517  2.9996  0.5374
 5091TIP3   OH236763   0.289   6.531  13.174  0.2463 -0.6312 -0.6081
 5091TIP3    H136764   0.260   6.599  13.234 -3.2555 -2.0257 -0.6031
 5091TIP3    H236765   0.335   6.467  13.229  0.0725 -0.2129  0.0146
 5092TIP3   OH236766   3.402   0.464  15.350  0.4035  0.2884  0.0329
 5092TIP3    H136767   3.476   0.415  15.385 -0.1649  0.6238  1.7782
 5092TIP3    H236768   3.327   0.436  15.404 -0.7279 -0.0055 -1.6631
 5093TIP3   OH236769   3.852   4.114  16.107  0.0353 -0.2322 -0.4657
 5093TIP3    H136770   3.933   4.067  16.086  0.8248  0.4894  0.9159
 5093TIP3    H236771   3.790   4.045  16.132  0.2378 -0.7802 -1.4553
 5094TIP3   OH236772   1.540   6.430  15.750 -0.1993  0.1474  0.7400
 5094TIP3    H136773   1.615   6.477  15.786  0.3831 -1.0567  1.1170
 5094TIP3    H236774   1.578   6.369  15.687 -1.0797  1.1732 -0.8051
 5095TIP3   OH236775   1.972   0.560   1.270 -0.0684 -0.1216  0.3697
 5095TIP3    H136776   2.049   0.579   1.323  0.4799 -1.5032  0.0839
 5095TIP3    H236777   1.957   0.640   1.219  1.6179 -0.1060 -0.1140
 5096TIP3   OH236778   6.376   0.630   0.469 -1.0196  0.2909 -0.4229
 5096TIP3    H136779   6.419   0.622   0.554 -0.8385  0.3677 -0.5066
 5096TIP3    H236780   6.293   0.583   0.479 -0.3324 -0.9847 -0.6623
 5097TIP3   OH236781   5.002   2.839  12.159 -0.1716 -0.6086 -0.7705
 5097TIP3    H136782   5.066   2.895  12.114  1.6315 -2.6267 -0.8210
 5097TIP3    H236783   4.941   2.812  12.090 -1.2452  1.4776 -0.6843
 5098TIP3   OH236784   4.224   2.468   1.875  0.3281 -0.3176  0.5599
 5098TIP3    H136785   4.145   2.451   1.925 -0.2715 -0.2365 -0.3546
 5098TIP3    H236786   4.295   2.465   1.940 -0.3536 -0.9750  1.2765
 5099TIP3   OH236787   5.451   2.279  17.018  0.3597  0.5670 -0.3424
 5099TIP3    H136788   5.502   2.273  17.099  0.5337 -0.3022 -0.5118
 5099TIP3    H236789   5.487   2.355  16.973  0.7310  0.6449  0.0738
 5100TIP3   OH236790   1.414   4.631   3.881 -0.2189  0.1949 -0.1299
 5100TIP3    H136791   1.438   4.720   3.908 -0.4585  0.5227 -0.9734
 5100TIP3    H236792   1.395   4.639   3.788  0.9993 -1.0057 -0.4789
 5101TIP3   OH236793   4.221   4.761   0.100 -0.3271 -0.3605 -0.5091
 5101TIP3    H136794   4.144   4.817   0.097  0.0859  0.2714  0.4977
 5101TIP3    H236795   4.290   4.810   0.055  0.2401  0.2924  1.0201
 5102TIP3   OH236796   1.227   5.691  13.600 -0.3727 -0.2094  0.3458
 5102TIP3    H136797   1.305   5.643  13.630 -0.2093  0.0512  0.3369
 5102TIP3    H236798   1.242   5.703  13.507 -0.3459 -0.0111  0.3763
 5103TIP3   OH236799   5.844   1.735  11.856 -0.1377  0.1594  0.2074
 5103TIP3    H136800   5.922   1.744  11.911  0.3042 -0.2458 -0.3434
 5103TIP3    H236801   5.837   1.819  11.810 -0.0118  0.1875  0.2412
 5104TIP3   OH236802   4.325   4.683   4.255 -0.1137  0.5622 -0.0651
 5104TIP3    H136803   4.347   4.638   4.174  0.8524 -1.0533  1.0719
 5104TIP3    H236804   4.236   4.656   4.275 -0.6032  1.4947 -0.9147
 5105TIP3   OH236805   2.350   1.617   3.918 -0.3291 -0.3818  0.2857
 5105TIP3    H136806   2.396   1.576   3.846 -0.8553  0.0508 -0.3059
 5105TIP3    H236807   2.416   1.627   3.987  0.7851  1.3149 -0.9698
 5106TIP3   OH236808   1.460   2.677   0.768  0.1091  0.3186 -0.0776
 5106TIP3    H136809   1.388   2.650   0.710 -1.3453  1.5102  1.1121
 5106TIP3    H236810   1.519   2.726   0.712  0.4364 -1.3781 -1.2535
 5107TIP3   OH236811   5.459   6.469   0.223  0.0585 -0.1092  0.2487
 5107TIP3    H136812   5.443   6.390   0.276 -0.8624  0.3156  0.6058
 5107TIP3    H236813   5.374   6.512   0.218  0.5185  0.7554 -0.1328
 5108TIP3   OH236814   2.721   5.327  16.459 -0.1059  0.4901 -0.2396
 5108TIP3    H136815   2.676   5.400  16.417 -0.3946 -0.7294 -2.1120
 5108TIP3    H236816   2.652   5.265  16.480  0.1955  0.5284  0.8867
 5109TIP3   OH236817   2.303   6.576   2.201  0.0035  0.5537  0.2049
 5109TIP3    H136818   2.336   6.541   2.118  1.0965  2.6838 -0.2925
 5109TIP3    H236819   2.379   6.575   2.258  0.1671  2.5635  0.0285
 5110TIP3   OH236820   4.916   0.721   2.506 -0.2031  0.3333  0.4746
 5110TIP3    H136821   4.875   0.728   2.592 -0.9765  0.7663  0.0767
 5110TIP3    H236822   4.969   0.801   2.498  0.9104 -0.3238  1.0733
 5111TIP3   OH236823   0.211   5.105   2.831 -0.2237 -0.3802  0.1763
 5111TIP3    H136824   0.280   5.155   2.787 -0.8563 -0.0271 -0.4274
 5111TIP3    H236825   0.248   5.018   2.841  0.7095  0.0809  0.7963
 5112TIP3   OH236826   4.119   5.549  16.799  0.1961 -0.3305 -0.7764
 5112TIP3    H136827   4.077   5.570  16.716 -1.1653 -0.3112 -0.0902
 5112TIP3    H236828   4.129   5.634  16.843  0.1816 -0.4377 -0.5681
 5113TIP3   OH236829   5.775   0.995  12.960  0.2415 -0.2114 -0.1713
 5113TIP3    H136830   5.851   0.992  12.902 -0.7030 -1.0689 -1.4066
 5113TIP3    H236831   5.701   0.974  12.903 -0.9149  0.5383  1.0243
 5114TIP3   OH236832   5.762   0.178  15.786  0.3229 -0.1609 -0.0831
 5114TIP3    H136833   5.833   0.116  15.771 -0.1474 -1.0610  1.2560
 5114TIP3    H236834   5.759   0.188  15.882  0.3252  1.8529 -0.2594
 5115TIP3   OH236835   2.295   3.236   5.311 -0.3670 -0.1666 -0.1885
 5115TIP3    H136836   2.298   3.157   5.365  0.9782 -0.6831 -1.0042
 5115TIP3    H236837   2.247   3.299   5.365 -1.5136 -1.5402  0.4451
 5116TIP3   OH236838   4.106   5.627   0.599 -0.1461  0.0672 -0.5089
 5116TIP3    H136839   4.120   5.621   0.504 -1.1676 -0.1659 -0.6455
 5116TIP3    H236840   4.182   5.583   0.637  0.4096  0.3993 -1.2092
 5117TIP3   OH236841   4.697   6.653  11.802 -0.0841  0.7652 -0.3757
 5117TIP3    H136842   4.792   6.660  11.797  0.0441  0.6850  1.5774
 5117TIP3    H236843   4.681   6.589  11.872 -1.5617 -0.0102 -1.3945
 5118TIP3   OH236844   4.363   1.042  16.883  0.0632  0.1030 -0.3238
 5118TIP3    H136845   4.352   1.097  16.961  0.1593 -0.3276 -0.0048
 5118TIP3    H236846   4.363   1.103  16.810  1.4704  0.6705  0.1248
 5119TIP3   OH236847   0.224   0.206  16.387  0.3385  0.1189  0.5686
 5119TIP3    H136848   0.254   0.248  16.307 -1.8969  1.5227  0.4032
 5119TIP3    H236849   0.197   0.119  16.360 -1.4941  0.9761 -0.4887
 5120TIP3   OH236850   4.494   5.940  12.718  0.9171 -0.8012 -0.3538
 5120TIP3    H136851   4.454   6.027  12.728  2.6918 -0.2067  2.0542
 5120TIP3    H236852   4.429   5.880  12.755  0.4304 -0.3016 -0.3908
 5121TIP3   OH236853   6.249   0.207   1.527 -0.2507 -0.1735 -0.3062
 5121TIP3    H136854   6.305   0.242   1.597 -0.9416 -0.4771  0.4056
 5121TIP3    H236855   6.299   0.132   1.493 -1.4346 -2.2117  2.2347
 5122TIP3   OH236856   0.981   4.462   2.756  0.0171  0.5784 -0.4942
 5122TIP3    H136857   0.914   4.476   2.822  0.0254  1.9407 -0.7414
 5122TIP3    H236858   0.935   4.472   2.673  0.0027 -1.1372 -0.7108
 5123TIP3   OH236859   6.405   3.732  11.816  0.2699  0.4126 -0.3930
 5123TIP3    H136860   6.475   3.744  11.752  0.4782  0.7513 -0.1072
 5123TIP3    H236861   6.443   3.763  11.899  1.0447 -2.8282  0.5170
 5124TIP3   OH236862   3.115   4.182   2.119  0.4561  0.0047 -0.0289
 5124TIP3    H136863   3.081   4.214   2.035 -0.5032  0.9731  0.7118
 5124TIP3    H236864   3.152   4.096   2.099 -1.4128 -0.5875 -1.1158
 5125TIP3   OH236865   6.231   3.879  15.296 -0.7657 -0.3070  0.4632
 5125TIP3    H136866   6.167   3.882  15.224 -0.4097  0.5286  0.1758
 5125TIP3    H236867   6.264   3.789  15.294 -0.3882 -0.1576 -0.7618
 5126TIP3   OH236868   1.433   1.879   6.094  0.1295 -0.6430 -0.4812
 5126TIP3    H136869   1.419   1.973   6.100  1.3099 -0.5615  1.6115
 5126TIP3    H236870   1.497   1.868   6.024  1.7842  0.3343  0.8567
 5127TIP3   OH236871   4.718   1.488  11.863 -0.3677 -0.1119  0.2225
 5127TIP3    H136872   4.776   1.436  11.919 -2.0277 -2.8070 -0.4631
 5127TIP3    H236873   4.773   1.517  11.791  0.9217  0.2852  1.3525
 5128TIP3   OH236874   0.815   4.993  12.798 -0.0803 -0.0445  0.4849
 5128TIP3    H136875   0.745   5.006  12.862 -1.3815 -2.6522 -0.3177
 5128TIP3    H236876   0.771   4.999  12.713  0.8766 -0.5451 -0.0563
 5129TIP3   OH236877   0.682   4.719  15.267 -0.1931  0.1610 -0.1482
 5129TIP3    H136878   0.755   4.765  15.227 -0.2399  0.5072  0.1482
 5129TIP3    H236879   0.680   4.752  15.357 -0.8101  0.2789 -0.2011
 5130TIP3   OH236880   0.784   4.918   2.467 -0.3475  0.2034 -0.3382
 5130TIP3    H136881   0.863   4.869   2.445 -1.1291 -1.4780  0.4378
 5130TIP3    H236882   0.730   4.913   2.388  0.3633  1.4998 -0.9284
 5131TIP3   OH236883   3.840   0.817   1.864  0.4505  0.3742 -0.2406
 5131TIP3    H136884   3.901   0.814   1.937  0.0272 -0.5373  0.0701
 5131TIP3    H236885   3.833   0.911   1.843 -1.0393  0.8506  2.2215
 5132TIP3   OH236886   4.204   5.257  14.777 -0.0785  0.7898 -0.3840
 5132TIP3    H136887   4.291   5.298  14.778  0.2485  0.1193  1.1068
 5132TIP3    H236888   4.219   5.169  14.813 -1.4596  0.8562  0.3782
 5133TIP3   OH236889   2.891   5.230   2.876 -0.1374  0.4005  0.1764
 5133TIP3    H136890   2.908   5.269   2.791 -0.9739  0.0548 -0.1621
 5133TIP3    H236891   2.956   5.160   2.884 -0.3396  0.1446 -0.3783
 5134TIP3   OH236892   0.292   2.106   3.553  0.1349  0.0178 -0.3919
 5134TIP3    H136893   0.292   2.152   3.637 -1.8860  0.6621 -0.7137
 5134TIP3    H236894   0.236   2.030   3.566 -0.2248  0.1442 -1.1754
 5135TIP3   OH236895   3.757   0.953  12.504  0.1099 -0.0691  0.6040
 5135TIP3    H136896   3.716   1.022  12.452  0.8393 -0.6576 -0.7872
 5135TIP3    H236897   3.738   0.872  12.455  0.2770 -0.7119  1.5866
 5136TIP3   OH236898   6.359   3.679   5.423 -0.0223  0.2350 -0.1125
 5136TIP3    H136899   6.421   3.750   5.403  1.9948 -1.4385  0.0324
 5136TIP3    H236900   6.409   3.620   5.480 -0.9720 -2.3548 -1.9204
 5137TIP3   OH236901   5.363   4.866   2.459  0.3556  0.1802  0.2528
 5137TIP3    H136902   5.436   4.810   2.487 -0.5127 -0.1526  1.9160
 5137TIP3    H236903   5.378   4.949   2.503 -0.9044 -0.2779  1.5853
 5138TIP3   OH236904   4.976   1.103   3.734  0.0899 -0.2521  0.1221
 5138TIP3    H136905   4.883   1.102   3.712  0.0127 -0.5369  0.4442
 5138TIP3    H236906   4.991   1.190   3.772 -0.6508 -1.1190  2.5295
 5139TIP3   OH236907   2.443   5.447   5.608 -0.0296 -0.0777 -0.2707
 5139TIP3    H136908   2.462   5.516   5.670  0.4265 -1.0871  0.7187
 5139TIP3    H236909   2.362   5.407   5.640  0.3725 -0.8028 -0.1466
 5140TIP3   OH236910   3.657   6.118   2.272  0.1004  0.1208 -0.1994
 5140TIP3    H136911   3.745   6.081   2.264  0.2732  0.9152 -2.4883
 5140TIP3    H236912   3.672   6.213   2.276 -0.5917  0.1970  0.6036
 5141TIP3   OH236913   3.889   1.217  14.254  0.4156 -0.2111  0.6519
 5141TIP3    H136914   3.871   1.128  14.224  0.7788 -0.0410 -0.0806
 5141TIP3    H236915   3.844   1.224  14.339 -0.5437 -0.7237  0.1865
 5142TIP3   OH236916   3.804   6.265  12.472  0.0689  0.5582 -0.0330
 5142TIP3    H136917   3.858   6.305  12.540  1.5205 -0.9611 -0.2718
 5142TIP3    H236918   3.821   6.318  12.393  0.7571  0.4334  0.0320
 5143TIP3   OH236919   0.541   5.117  11.388 -0.1834  0.1980 -0.2423
 5143TIP3    H136920   0.566   5.027  11.367 -1.5973 -0.2580 -0.0071
 5143TIP3    H236921   0.516   5.155  11.304  0.9384  0.5467 -0.4242
 5144TIP3   OH236922   3.239   2.478   0.671  0.7276 -0.2000  0.1296
 5144TIP3    H136923   3.148   2.468   0.643 -0.2100  1.0644  2.6945
 5144TIP3    H236924   3.274   2.389   0.668 -0.6928 -0.7527 -0.5011
 5145TIP3   OH236925   1.982   4.786  14.294 -0.4425 -0.6443  0.1402
 5145TIP3    H136926   2.035   4.782  14.215 -1.9091 -1.1524 -0.8286
 5145TIP3    H236927   1.982   4.879  14.318 -1.5737 -0.2030 -1.5361
 5146TIP3   OH236928   0.064   5.299  12.826 -0.2013 -0.5078  1.0012
 5146TIP3    H136929   0.124   5.258  12.764 -1.1272 -1.2063  0.5562
 5146TIP3    H236930   0.091   5.266  12.911  1.4671  0.9348  1.0561
 5147TIP3   OH236931   3.416   2.229  11.552  0.0470 -0.3548 -0.7304
 5147TIP3    H136932   3.497   2.242  11.602 -0.7727 -1.8347  0.9992
 5147TIP3    H236933   3.428   2.143  11.510  0.5703  0.7014 -2.8402
 5148TIP3   OH236934   6.793   3.851   0.175 -0.0243 -0.1224  0.1814
 5148TIP3    H136935   6.788   3.946   0.170 -0.5659 -0.1385  0.2957
 5148TIP3    H236936   6.709   3.821   0.139 -0.1025 -0.5341  0.6960
 5149TIP3   OH236937   1.725   5.515  14.524  0.1583 -0.4430 -0.5722
 5149TIP3    H136938   1.638   5.487  14.554 -1.1766  3.8768 -0.0432
 5149TIP3    H236939   1.733   5.479  14.436 -2.4558 -0.4369 -0.8615
 5150TIP3   OH236940   0.322   5.186   3.620 -0.4142 -0.1894  0.2101
 5150TIP3    H136941   0.382   5.261   3.617 -1.1737  0.4587  1.1837
 5150TIP3    H236942   0.349   5.138   3.698 -0.8909 -0.1285  0.4096
 5151TIP3   OH236943   3.442   2.461   4.171 -0.2174 -0.2820 -0.3491
 5151TIP3    H136944   3.363   2.407   4.178 -0.2421 -0.5154 -2.2330
 5151TIP3    H236945   3.475   2.467   4.261 -1.9649 -0.7915  0.3528
 5152TIP3   OH236946   1.521   2.105   4.828 -0.3102  0.2490  0.1935
 5152TIP3    H136947   1.481   2.019   4.817  1.4515 -0.5819  0.1056
 5152TIP3    H236948   1.461   2.153   4.885 -2.1629 -0.4462 -1.1104
 5153TIP3   OH236949   5.130   3.468  15.179 -0.4114 -0.2495 -0.2227
 5153TIP3    H136950   5.095   3.460  15.090  1.2543  0.4607 -0.9604
 5153TIP3    H236951   5.067   3.525  15.223 -0.3080  0.8867 -1.4878
 5154TIP3   OH236952   6.121   3.354  14.882 -0.0721  0.2016 -0.0783
 5154TIP3    H136953   6.130   3.445  14.854  1.2759  0.3814  0.8989
 5154TIP3    H236954   6.149   3.302  14.806  3.3211  0.6785  0.7703
 5155TIP3   OH236955   1.681   1.447  12.717 -0.0962 -0.1544 -0.1260
 5155TIP3    H136956   1.651   1.457  12.626 -2.9641 -1.6892  0.5866
 5155TIP3    H236957   1.641   1.521  12.763 -0.2385 -0.4616  0.2428
 5156TIP3   OH236958   2.206   1.332   2.668  0.3134  0.0064 -0.0500
 5156TIP3    H136959   2.174   1.420   2.649  0.8844  0.4595  1.0004
 5156TIP3    H236960   2.240   1.300   2.585 -0.0689  0.7095 -0.4822
 5157TIP3   OH236961   3.570   1.166  14.135  0.5017 -0.1102 -0.7717
 5157TIP3    H136962   3.480   1.187  14.113  0.4767  0.5900 -0.0080
 5157TIP3    H236963   3.623   1.226  14.081  0.4396  1.6376  1.0426
 5158TIP3   OH236964   1.611   3.504   4.306  0.2161 -0.2855 -0.3654
 5158TIP3    H136965   1.620   3.600   4.302  0.6856 -0.3573 -0.9652
 5158TIP3    H236966   1.648   3.481   4.391 -0.0933  0.0870 -0.1256
 5159TIP3   OH236967   3.469   0.975  14.805 -0.3027 -0.7305  0.2890
 5159TIP3    H136968   3.512   0.904  14.758 -0.0394  0.3924 -1.1981
 5159TIP3    H236969   3.530   0.999  14.874 -0.0447 -1.4181  0.2963
 5160TIP3   OH236970   4.694   6.156  16.682 -0.5658 -0.9203 -0.7404
 5160TIP3    H136971   4.684   6.108  16.600  0.2422 -1.1884 -0.6850
 5160TIP3    H236972   4.764   6.220  16.665 -0.8536 -0.5266 -0.4660
 5161TIP3   OH236973   2.124   5.917  13.541 -0.2729  0.2801 -0.4228
 5161TIP3    H136974   2.066   5.977  13.587 -0.5735 -0.0002 -0.4332
 5161TIP3    H236975   2.207   5.924  13.587 -0.6207 -0.1303  0.2830
 5162TIP3   OH236976   5.144   2.727  15.288 -0.6647  0.8101  0.1729
 5162TIP3    H136977   5.129   2.730  15.194 -0.5903  2.9592  0.1917
 5162TIP3    H236978   5.207   2.657  15.301 -2.9223 -1.5031 -1.0398
 5163TIP3   OH236979   5.346   0.655  12.767 -1.0609 -0.2982  0.1451
 5163TIP3    H136980   5.275   0.669  12.829 -1.5628 -0.9801 -0.2680
 5163TIP3    H236981   5.406   0.596  12.813 -0.7822  0.2404  0.4753
 5164TIP3   OH236982   2.850   1.152  14.547 -0.0383 -0.3409 -0.3654
 5164TIP3    H136983   2.843   1.060  14.574  2.2598 -0.4019  0.1706
 5164TIP3    H236984   2.872   1.198  14.628 -0.4801  0.5817 -0.7732
 5165TIP3   OH236985   3.774   2.909   3.241  0.1947 -0.0616  0.1226
 5165TIP3    H136986   3.709   2.977   3.258  0.9509  1.3539 -2.2317
 5165TIP3    H236987   3.734   2.828   3.272 -3.2027  0.5653 -2.3241
 5166TIP3   OH236988   2.433   3.012  15.721 -0.4065 -0.0815  0.3953
 5166TIP3    H136989   2.446   3.073  15.649  0.8287  0.0301  0.7089
 5166TIP3    H236990   2.431   3.067  15.799 -3.7762  0.0443  0.3297
 5167TIP3   OH236991   4.684   1.810   5.082 -0.1737 -0.9568 -0.2922
 5167TIP3    H136992   4.622   1.819   5.009  0.4746 -4.2619 -1.3299
 5167TIP3    H236993   4.707   1.717   5.082  6.0638  0.3738 -1.0742
 5168TIP3   OH236994   1.142   5.752  12.946 -0.2120  0.2839  0.1932
 5168TIP3    H136995   1.155   5.841  12.912  0.3591  0.0743 -0.1401
 5168TIP3    H236996   1.080   5.763  13.018 -0.6233  0.8726 -0.2403
 5169TIP3   OH236997   6.028   5.283  14.197 -0.0697  0.1471  0.3991
 5169TIP3    H136998   5.947   5.268  14.148  0.5322 -1.8251 -0.0207
 5169TIP3    H236999   6.087   5.324  14.135 -1.2066  2.9862  1.1158
 5170TIP3   OH237000   6.461   5.837   2.114 -0.4393  0.2305  0.6122
 5170TIP3    H137001   6.515   5.904   2.156  2.7366 -1.6147 -0.3243
 5170TIP3    H237002   6.483   5.756   2.161 -0.4560 -0.9956 -1.4376
 5171TIP3   OH237003   2.771   2.086  11.358 -0.1242  0.7626 -0.2674
 5171TIP3    H137004   2.726   2.144  11.420  1.2157 -1.5826  2.9867
 5171TIP3    H237005   2.708   2.016  11.341  0.7415 -0.3452  1.0571
 5172TIP3   OH237006   3.334   6.547  12.261 -0.2351 -0.3150 -0.0811
 5172TIP3    H137007   3.296   6.461  12.280 -1.6977  0.8241  2.3624
 5172TIP3    H237008   3.416   6.548  12.311  0.2397 -0.6049 -0.8362
 5173TIP3   OH237009   6.678   3.030   1.028  0.8840  0.1821  0.1237
 5173TIP3    H137010   6.638   3.092   0.967 -0.2886 -0.3966  0.2788
 5173TIP3    H237011   6.771   3.030   1.006  0.4482 -0.1409 -1.7838
 5174TIP3   OH237012   5.379   5.458  15.663  0.2719 -0.1504  0.0566
 5174TIP3    H137013   5.426   5.422  15.738  1.1303  1.3792  0.2773
 5174TIP3    H237014   5.352   5.381  15.613  0.5501 -1.1530  1.4072
 5175TIP3   OH237015   2.516   3.797   4.011  0.7766  0.3035  0.7122
 5175TIP3    H137016   2.461   3.849   3.953  2.1193 -0.3160 -1.1532
 5175TIP3    H237017   2.460   3.725   4.039 -0.5039  1.6938  1.8131
 5176TIP3   OH237018   1.886   6.519   6.262 -0.0979  0.0104  0.3010
 5176TIP3    H137019   1.914   6.440   6.216  0.3324  0.4503 -0.1971
 5176TIP3    H237020   1.950   6.530   6.333 -0.3379 -0.2560  0.5634
 5177TIP3   OH237021   6.166   3.237  16.682 -0.3878 -0.6295 -0.2783
 5177TIP3    H137022   6.129   3.325  16.691  0.7635 -0.3135  1.6253
 5177TIP3    H237023   6.239   3.248  16.621 -0.3161 -0.2791 -0.1303
 5178TIP3   OH237024   1.720   5.501  14.250  0.1661  0.0597 -0.4428
 5178TIP3    H137025   1.753   5.411  14.253 -0.5680 -0.2060 -0.2017
 5178TIP3    H237026   1.715   5.522  14.156 -1.4806 -0.8382 -0.5742
 5179TIP3   OH237027   2.131   5.326   2.778 -0.1371  0.4574 -0.2853
 5179TIP3    H137028   2.187   5.383   2.727  1.7629 -0.4705  0.6787
 5179TIP3    H237029   2.191   5.280   2.837 -1.9545 -0.3242  1.0311
 5180TIP3   OH237030   2.890   1.259  11.117  0.1354 -0.2341  0.2473
 5180TIP3    H137031   2.813   1.264  11.060  0.5107  0.2096 -0.2162
 5180TIP3    H237032   2.917   1.167  11.113  1.7910  0.3041 -2.4390
 5181TIP3   OH237033   6.369   2.423   2.172 -0.3066 -0.3172 -0.1736
 5181TIP3    H137034   6.459   2.400   2.151 -0.4012 -0.6271 -0.2463
 5181TIP3    H237035   6.332   2.344   2.211 -0.7153 -0.3779 -0.6740
 5182TIP3   OH237036   5.904   1.610   2.287 -0.0401  0.0320 -0.6538
 5182TIP3    H137037   5.899   1.528   2.239  2.2785 -0.0378 -0.8240
 5182TIP3    H237038   5.905   1.678   2.219 -0.2952  0.1171 -0.5736
 5183TIP3   OH237039   4.251   0.139   6.078  0.2883  0.4254 -0.2569
 5183TIP3    H137040   4.326   0.080   6.074  1.2059  1.2161  3.3180
 5183TIP3    H237041   4.287   0.223   6.104 -1.5550  1.4188 -0.8251
 5184TIP3   OH237042   1.190   4.169   5.517 -0.1697  0.1452  0.2731
 5184TIP3    H137043   1.234   4.252   5.500 -0.3091  0.2503  0.4282
 5184TIP3    H237044   1.103   4.178   5.477 -0.0418 -0.0742 -0.0624
 5185TIP3   OH237045   3.918   5.802  10.907  0.0250 -0.4447  0.1657
 5185TIP3    H137046   3.903   5.730  10.968  0.7250  0.1400  1.0312
 5185TIP3    H237047   3.873   5.775  10.827  0.4957 -1.9546  0.4008
 5186TIP3   OH237048   3.705   5.855  15.488  0.4992  0.0016 -0.4484
 5186TIP3    H137049   3.709   5.761  15.472  2.2534 -0.0345  0.0549
 5186TIP3    H237050   3.733   5.865  15.579  0.8822  1.0496 -0.6691
 5187TIP3   OH237051   2.696   2.211   6.359  0.3322 -0.1446  0.7243
 5187TIP3    H137052   2.650   2.270   6.418  0.5725 -1.8452  2.6624
 5187TIP3    H237053   2.634   2.140   6.343  0.1781  0.4086 -1.2929
 5188TIP3   OH237054   0.013   4.967  11.586 -1.0547 -0.0828 -0.1985
 5188TIP3    H137055   0.022   4.890  11.642 -0.0436  1.2478  1.5361
 5188TIP3    H237056   0.048   4.940  11.502  0.3546 -1.1804  0.7202
 5189TIP3   OH237057   1.715   6.455   0.347 -0.0660  0.2832  0.2610
 5189TIP3    H137058   1.643   6.399   0.378 -0.7644  1.6740  1.2014
 5189TIP3    H237059   1.787   6.394   0.332 -0.8499 -0.8970  1.1483
 5190TIP3   OH237060   5.292   1.071  15.977  0.0173  0.0468  0.2875
 5190TIP3    H137061   5.255   1.093  16.063  0.3329 -1.2355  0.7588
 5190TIP3    H237062   5.386   1.081  15.988  0.1336 -1.1422  0.3906
 5191TIP3   OH237063   1.921   0.508   0.837 -0.3093  0.4013 -0.0665
 5191TIP3    H137064   1.989   0.447   0.806 -0.5955  0.5329 -0.9579
 5191TIP3    H237065   1.840   0.474   0.800 -0.3822  1.6942 -1.1093
 5192TIP3   OH237066   4.881   5.916  11.104 -0.3223 -0.2585 -0.3021
 5192TIP3    H137067   4.825   5.958  11.038 -1.2899  0.4690  0.9629
 5192TIP3    H237068   4.954   5.977  11.115  0.0340 -0.5607 -0.9758
 5193TIP3   OH237069   2.465   3.802   5.290 -0.1199 -0.9715 -0.4605
 5193TIP3    H137070   2.507   3.835   5.370 -2.2459 -0.6811  0.5664
 5193TIP3    H237071   2.483   3.869   5.224  0.0071 -0.2800  0.2676
 5194TIP3   OH237072   5.788   4.472   3.709  0.6650 -0.5200  0.3802
 5194TIP3    H137073   5.767   4.561   3.737  2.9555  0.3410 -0.4709
 5194TIP3    H237074   5.748   4.464   3.622 -0.4460 -0.7132  0.8990
 5195TIP3   OH237075   3.933   0.899  12.707  0.0944  0.2125 -0.0982
 5195TIP3    H137076   3.885   0.824  12.742 -2.1898  1.9331  0.5996
 5195TIP3    H237077   3.879   0.931  12.634  0.5873  1.6888  0.1616
 5196TIP3   OH237078   0.903   0.544   3.001 -0.0608  0.5008  0.8220
 5196TIP3    H137079   0.924   0.494   2.922  1.2235  0.7305  1.0025
 5196TIP3    H237080   0.820   0.508   3.031 -1.2787  1.3399 -1.4139
 5197TIP3   OH237081   2.715   2.162  13.829  0.2511  0.1778  0.4371
 5197TIP3    H137082   2.634   2.126  13.793 -0.5862  0.9197  1.5317
 5197TIP3    H237083   2.784   2.118  13.780 -0.8272  0.8615 -1.7726
 5198TIP3   OH237084   5.526   2.870  12.410  0.1014 -0.4749  0.0046
 5198TIP3    H137085   5.608   2.885  12.457  1.4473 -0.0175 -2.3843
 5198TIP3    H237086   5.534   2.780  12.377 -1.3418 -1.2085  1.5962
 5199TIP3   OH237087   1.504   1.460   2.623 -0.2457  0.0997  0.2301
 5199TIP3    H137088   1.562   1.409   2.680  0.4252 -1.3250 -1.6612
 5199TIP3    H237089   1.479   1.399   2.554 -0.0015  2.1252 -1.7174
 5200TIP3   OH237090   4.395   5.529  17.121 -0.1320 -0.0428 -0.0750
 5200TIP3    H137091   4.429   5.457  17.175 -1.5971 -0.8430 -0.1824
 5200TIP3    H237092   4.380   5.489  17.035  0.6907  0.8400 -0.6380
 5201TIP3   OH237093   2.293   5.320   3.752 -0.2508 -0.2359 -0.3864
 5201TIP3    H137094   2.297   5.230   3.786 -1.7926 -0.2257 -0.1343
 5201TIP3    H237095   2.200   5.341   3.752 -0.0817  0.5864 -2.5119
 5202TIP3   OH237096   4.623   2.573  16.294  0.4339 -0.4359 -0.3952
 5202TIP3    H137097   4.624   2.616  16.209  0.3353 -0.7062 -0.5328
 5202TIP3    H237098   4.549   2.612  16.341  2.2518  1.8853  0.6873
 5203TIP3   OH237099   3.663   1.210  15.504  0.4337 -0.2755 -0.3986
 5203TIP3    H137100   3.632   1.220  15.414  0.9452 -0.4618 -0.5968
 5203TIP3    H237101   3.584   1.219  15.558  0.2510  0.6517 -0.8158
 5204TIP3   OH237102   6.080   3.041   3.630 -0.2262  0.3933  0.1197
 5204TIP3    H137103   6.145   3.049   3.561 -1.2529  1.2976 -0.7562
 5204TIP3    H237104   6.114   2.972   3.688  0.9168  0.0419 -0.9640
 5205TIP3   OH237105   3.873   6.792  15.156 -0.4363  0.4009 -0.3087
 5205TIP3    H137106   3.876   6.707  15.112 -0.7320  0.0166  0.4041
 5205TIP3    H237107   3.875   6.856  15.084 -1.3979 -0.2194 -0.8993
 5206TIP3   OH237108   4.973   5.282   1.235 -0.2551 -0.6559  0.4069
 5206TIP3    H137109   5.000   5.374   1.236 -0.6128 -0.5484  1.7148
 5206TIP3    H237110   5.049   5.234   1.267 -0.2301 -0.7645  0.1846
 5207TIP3   OH237111   1.249   6.343  14.909  0.5771 -0.2691 -0.5190
 5207TIP3    H137112   1.202   6.420  14.877 -0.1786 -0.5760 -0.1713
 5207TIP3    H237113   1.202   6.269  14.869  1.6929 -0.5341 -1.3754
 5208TIP3   OH237114   1.082   2.715  12.293 -0.1089 -0.0092  0.5624
 5208TIP3    H137115   1.150   2.782  12.299  0.7105 -0.7902  0.1516
 5208TIP3    H237116   1.000   2.763  12.302  0.5136  0.8370  2.0656
 5209TIP3   OH237117   0.052   1.245  14.240  0.1446  0.7631 -0.0241
 5209TIP3    H137118   0.122   1.303  14.210  0.0642  0.1909 -1.3492
 5209TIP3    H237119  -0.001   1.229  14.162 -0.7629  0.2172  0.6999
 5210TIP3   OH237120   4.745   5.574   4.375 -0.3138 -0.0685  0.1931
 5210TIP3    H137121   4.749   5.558   4.469 -0.8466 -0.9335  0.0810
 5210TIP3    H237122   4.831   5.547   4.342  0.1712  1.0488  0.5475
 5211TIP3   OH237123   1.754   3.787  15.237  0.3063  0.2005  0.0905
 5211TIP3    H137124   1.707   3.714  15.196  0.6040  1.3467 -2.3703
 5211TIP3    H237125   1.841   3.784  15.198  0.3523  1.8249  0.0450
 5212TIP3   OH237126   1.795   3.433   2.325 -0.6763  0.6284 -0.3324
 5212TIP3    H137127   1.832   3.356   2.282 -0.9588  0.5044 -0.3506
 5212TIP3    H237128   1.785   3.407   2.417 -1.0873  0.5310 -0.4055
 5213TIP3   OH237129   0.094   1.510   1.663 -0.3299  0.1863 -0.3417
 5213TIP3    H137130   0.145   1.442   1.618 -0.8201  0.4264 -1.2777
 5213TIP3    H237131   0.126   1.592   1.626  1.1549  0.5824  1.6897
 5214TIP3   OH237132   2.465   2.046   5.164  0.1872 -0.0620 -0.0825
 5214TIP3    H137133   2.406   2.075   5.095  1.3552  0.7254 -0.7761
 5214TIP3    H237134   2.442   2.099   5.240 -1.6637 -1.5154  0.3961
 5215TIP3   OH237135   4.711   5.698  14.729  0.1349  0.1675  0.1192
 5215TIP3    H137136   4.790   5.737  14.690  0.1963  0.5461  0.6219
 5215TIP3    H237137   4.686   5.629  14.668  2.4101 -1.7635  1.2981
 5216TIP3   OH237138   1.836   2.860   3.716  0.0980  0.3200 -0.4978
 5216TIP3    H137139   1.904   2.862   3.783  0.2841  0.0067 -0.6784
 5216TIP3    H237140   1.881   2.885   3.636 -0.1248  0.6934 -0.5105
 5217TIP3   OH237141   5.252   4.691  12.918  0.1893  0.2783  0.0863
 5217TIP3    H137142   5.345   4.670  12.927 -0.0791 -0.8423  0.3512
 5217TIP3    H237143   5.229   4.657  12.831 -0.3267 -0.8632  0.6529
 5218TIP3   OH237144   2.280   3.498  15.922  0.5501 -0.2685 -0.0857
 5218TIP3    H137145   2.304   3.588  15.898 -1.5821  0.3581  0.0658
 5218TIP3    H237146   2.314   3.487  16.010  0.6060  0.4800 -0.0080
 5219TIP3   OH237147   0.714   5.580  11.877  0.4934 -0.0042  0.8626
 5219TIP3    H137148   0.762   5.597  11.958 -0.2563 -1.5900  1.6532
 5219TIP3    H237149   0.632   5.539  11.906 -0.6426  1.2112 -0.5694
 5220TIP3   OH237150   5.800   3.497   0.052  0.1925 -0.0532 -0.3657
 5220TIP3    H137151   5.750   3.577   0.066  1.9610  0.8525  0.8525
 5220TIP3    H237152   5.876   3.504   0.110  1.8827 -1.2827 -2.3299
 5221TIP3   OH237153   1.536   4.309   1.514  0.1255 -0.0602  0.1626
 5221TIP3    H137154   1.467   4.374   1.497  0.3826  0.3753  0.7436
 5221TIP3    H237155   1.489   4.227   1.530 -0.3665  0.5428  2.0404
 5222TIP3   OH237156   0.779   5.365  15.071  0.4700 -0.2487  0.2350
 5222TIP3    H137157   0.789   5.393  15.162 -0.1547 -1.2881  0.6298
 5222TIP3    H237158   0.739   5.278  15.077 -2.2974  0.8830 -1.0982
 5223TIP3   OH237159   4.630   2.590   5.519 -0.0004  0.0173 -0.1902
 5223TIP3    H137160   4.723   2.572   5.506 -0.3849 -0.2461 -2.9047
 5223TIP3    H237161   4.627   2.675   5.563  1.5042 -0.0278  0.0229
 5224TIP3   OH237162   2.364   6.173   5.510 -0.2604 -0.0909 -0.6844
 5224TIP3    H137163   2.439   6.175   5.569 -1.6036 -1.1650  1.1280
 5224TIP3    H237164   2.354   6.080   5.487 -0.4473  0.1723 -1.6887
 5225TIP3   OH237165   2.547   5.808   0.986 -0.1124  0.8667  0.1477
 5225TIP3    H137166   2.532   5.734   0.927  1.7952 -0.3538  1.1002
 5225TIP3    H237167   2.618   5.857   0.945  1.4401 -0.1616  1.5018
 5226TIP3   OH237168   4.497   2.967   5.138  0.0947  0.2820  0.6764
 5226TIP3    H137169   4.495   2.956   5.043  0.0841 -0.4156  0.7557
 5226TIP3    H237170   4.586   2.944   5.164  1.4522  4.8269  0.3317
 5227TIP3   OH237171   0.350   6.234   6.059 -0.2953  0.0797  0.2484
 5227TIP3    H137172   0.385   6.220   5.971  2.9353 -0.0358  1.4810
 5227TIP3    H237173   0.422   6.209   6.118 -1.5254  2.4571  2.8837
 5228TIP3   OH237174   5.877   4.137   0.335  0.4588 -0.1826 -0.2230
 5228TIP3    H137175   5.938   4.172   0.271  1.7795 -1.5076  0.3005
 5228TIP3    H237176   5.890   4.042   0.333  0.5869 -0.2403  2.0550
 5229TIP3   OH237177   2.009   1.892   6.821 -0.0170  0.2718 -0.2317
 5229TIP3    H137178   2.018   1.841   6.901 -0.9764 -0.8692 -0.8473
 5229TIP3    H237179   2.061   1.971   6.837  1.2543 -0.7609  0.8318
 5230TIP3   OH237180   0.460   6.391   5.269 -0.7658  0.5791  0.1957
 5230TIP3    H137181   0.399   6.317   5.266  1.8999 -1.6656 -2.4197
 5230TIP3    H237182   0.539   6.358   5.225  1.5029  4.1134  1.4292
 5231TIP3   OH237183   2.955   3.681  14.704 -0.3330  0.3718  0.3441
 5231TIP3    H137184   3.025   3.622  14.678 -0.2328 -0.1575  1.7702
 5231TIP3    H237185   2.888   3.623  14.741  0.9252  1.3052  4.3580
 5232TIP3   OH237186   4.434   0.216   3.924 -0.5176  0.1515  0.1024
 5232TIP3    H137187   4.352   0.249   3.960 -1.4919 -0.6487 -1.3468
 5232TIP3    H237188   4.444   0.129   3.963 -0.1398  0.4202  0.6064
 5233TIP3   OH237189   4.468   6.066   5.306 -0.5672  0.2938  0.4583
 5233TIP3    H137190   4.405   6.127   5.342 -1.3665 -0.8779  1.0837
 5233TIP3    H237191   4.535   6.056   5.374  0.2480  1.4510 -0.1611
 5234TIP3   OH237192   1.656   6.054  12.593  0.6358  0.3386  0.1161
 5234TIP3    H137193   1.653   5.967  12.554  1.2410  0.7316 -0.8404
 5234TIP3    H237194   1.707   6.106  12.530  0.9964  1.1642  1.0828
 5235TIP3   OH237195   5.121   4.249  15.075  0.2695 -0.5146 -0.2393
 5235TIP3    H137196   5.192   4.286  15.129  0.7822 -1.0590 -0.5408
 5235TIP3    H237197   5.123   4.156  15.094  0.7539 -0.7770 -1.5562
 5236TIP3   OH237198   5.303   3.032   1.683 -0.3889 -0.1343  0.0185
 5236TIP3    H137199   5.339   2.959   1.734  0.0022  0.6502  0.8769
 5236TIP3    H237200   5.370   3.051   1.617 -1.3128 -1.7843 -1.4436
 5237TIP3   OH237201   0.242   2.203   4.543  0.4308 -0.1459  0.2813
 5237TIP3    H137202   0.234   2.189   4.637 -2.0226 -1.4972 -0.0721
 5237TIP3    H237203   0.152   2.218   4.513  1.0935 -0.3391 -1.9296
 5238TIP3   OH237204   0.375   2.461  14.185  0.5708 -0.4424 -0.3134
 5238TIP3    H137205   0.393   2.554  14.195 -1.3808 -0.1480  0.8636
 5238TIP3    H237206   0.440   2.417  14.240  0.9735  0.2670 -0.2253
 5239TIP3   OH237207   0.482   5.731   0.787  0.0862  0.2496  0.4514
 5239TIP3    H137208   0.577   5.715   0.783 -0.0898 -0.6423 -0.5694
 5239TIP3    H237209   0.474   5.819   0.824  1.3195  0.3645  0.4834
 5240TIP3   OH237210   2.895   6.725  11.326  0.2792 -0.3894 -0.1660
 5240TIP3    H137211   2.948   6.804  11.319 -0.5617  0.4131  2.1873
 5240TIP3    H237212   2.805   6.756  11.327 -0.1320 -1.5150 -0.7683
 5241TIP3   OH237213   3.443   3.996   1.147  0.3222 -0.1160 -0.2200
 5241TIP3    H137214   3.534   3.998   1.117  0.2467 -0.5012 -0.4715
 5241TIP3    H237215   3.431   4.081   1.190  1.0135 -0.3519  0.4542
 5242TIP3   OH237216   1.018   1.073  14.371  0.5672  0.0022 -0.2749
 5242TIP3    H137217   1.054   1.005  14.429  1.7413  0.1234 -0.8465
 5242TIP3    H237218   0.956   1.121  14.426  0.3687 -0.9919  0.3802
 5243TIP3   OH237219   1.677   2.216   0.275 -0.3021  0.1583  0.4206
 5243TIP3    H137220   1.644   2.193   0.362 -0.2878  1.2308  0.7197
 5243TIP3    H237221   1.762   2.256   0.291 -0.2316  0.2215 -0.1000
 5244TIP3   OH237222   3.032   2.317  13.487  0.1459  0.1364 -0.1804
 5244TIP3    H137223   3.050   2.306  13.394 -2.1649  0.0198 -0.6617
 5244TIP3    H237224   3.086   2.251  13.531  0.1079 -0.8525 -1.5867
 5245TIP3   OH237225   1.707   3.486  16.503  0.5311 -0.3476  0.3360
 5245TIP3    H137226   1.768   3.477  16.577 -0.8002 -1.1665  1.3736
 5245TIP3    H237227   1.621   3.463  16.540 -0.1730 -0.7098 -1.4621
 5246TIP3   OH237228   6.106   0.980   4.735  0.0856  0.4126 -0.0583
 5246TIP3    H137229   6.107   0.944   4.824  0.6103  0.2758 -0.1185
 5246TIP3    H237230   6.080   0.907   4.680  0.5501  0.2885 -0.1106
 5247TIP3   OH237231   0.527   4.541  11.072  0.3231  0.4764  0.2912
 5247TIP3    H137232   0.603   4.549  11.015  0.1291  0.0624 -0.0254
 5247TIP3    H237233   0.454   4.521  11.013  0.4999 -2.0704  0.8756
 5248TIP3   OH237234   3.372   4.224  14.640  0.3996 -0.5132 -0.1638
 5248TIP3    H137235   3.279   4.228  14.616 -0.2753  1.6468  2.5241
 5248TIP3    H237236   3.411   4.301  14.599  0.6398 -0.5014  0.0819
 5249TIP3   OH237237   0.006   5.495  17.162 -0.1115  0.4695 -0.2848
 5249TIP3    H137238   0.001   5.458  17.250 -0.2947 -0.3250 -0.6338
 5249TIP3    H237239   0.099   5.516  17.150 -0.1828  1.1874  0.3412
 5250TIP3   OH237240   2.092   0.274  12.282 -0.3910 -0.4009  0.5859
 5250TIP3    H137241   2.009   0.309  12.250 -0.6774 -0.8705  0.8080
 5250TIP3    H237242   2.130   0.346  12.333 -1.1318 -0.5251  1.3222
 5251TIP3   OH237243   0.021   2.254   5.870 -0.3814 -0.5552 -0.0029
 5251TIP3    H137244  -0.042   2.213   5.811 -0.6205 -0.6075  0.2888
 5251TIP3    H237245   0.106   2.237   5.829 -0.3267 -2.7514  0.9471
 5252TIP3   OH237246   4.137   4.383  13.070 -0.4309 -0.1358 -0.2307
 5252TIP3    H137247   4.048   4.389  13.104  0.1271  0.2987  1.1806
 5252TIP3    H237248   4.130   4.413  12.979 -1.6987  0.0061 -0.0898
 5253TIP3   OH237249   2.185   1.854   5.434 -0.3654  0.1381 -0.1023
 5253TIP3    H137250   2.226   1.850   5.521  1.1308  1.0716 -0.7469
 5253TIP3    H237251   2.252   1.821   5.374 -1.5282 -0.8435 -0.8629
 5254TIP3   OH237252   1.807   0.201   0.481 -0.3261  0.1060  0.4103
 5254TIP3    H137253   1.824   0.250   0.401 -1.9276 -0.2790 -0.1787
 5254TIP3    H237254   1.891   0.159   0.502  0.1000  0.2173 -1.0557
 5255TIP3   OH237255   3.744   2.806   4.472 -0.1026  0.0217 -0.2366
 5255TIP3    H137256   3.760   2.718   4.508  1.1757 -0.1104 -1.1163
 5255TIP3    H237257   3.673   2.840   4.526 -0.9242 -1.7257 -0.1738
 5256TIP3   OH237258   2.925   4.960  13.099 -0.6270 -0.0177 -0.3921
 5256TIP3    H137259   3.010   4.985  13.062 -0.9008  1.2283 -0.2021
 5256TIP3    H237260   2.946   4.917  13.181 -0.1980  1.0328  0.0618
 5257TIP3   OH237261   6.588   3.398  14.219 -0.0570 -0.6314 -0.1763
 5257TIP3    H137262   6.595   3.314  14.175 -0.5421 -0.5725 -0.3698
 5257TIP3    H237263   6.645   3.456  14.169  1.8877 -1.3220  1.1600
 5258TIP3   OH237264   6.498   5.586  17.225 -0.3920  0.7158 -0.1555
 5258TIP3    H137265   6.462   5.673  17.242 -1.5949  0.1939  0.0168
 5258TIP3    H237266   6.446   5.527  17.279 -0.5693 -0.2877 -1.3856
 5259TIP3   OH237267   4.433   5.154  15.142 -0.2854 -0.2362  0.0535
 5259TIP3    H137268   4.343   5.183  15.124 -0.2258 -0.4903 -0.6604
 5259TIP3    H237269   4.478   5.232  15.171 -0.5353  0.0634 -0.3568
 5260TIP3   OH237270   1.893   5.518  11.581  0.7142  0.1072  0.0226
 5260TIP3    H137271   1.960   5.453  11.599 -0.3002 -1.1459 -0.6929
 5260TIP3    H237272   1.920   5.558  11.499  0.3502 -0.7136 -0.4985
 5261TIP3   OH237273   4.020   2.070  14.189  0.0648 -0.4636  0.0241
 5261TIP3    H137274   4.084   2.078  14.260 -0.2548  0.9687  0.1698
 5261TIP3    H237275   4.023   1.978  14.164  1.7775 -0.5285  0.4099
 5262TIP3   OH237276   0.864   6.348  15.203 -0.3377 -0.1414  0.1275
 5262TIP3    H137277   0.775   6.381  15.191  0.0384  0.6852 -0.4939
 5262TIP3    H237278   0.920   6.416  15.164  0.5554 -0.6946  0.4222
 5263TIP3   OH237279   1.730   6.682   1.136  0.7390 -0.1371 -0.1290
 5263TIP3    H137280   1.823   6.692   1.117  0.6759  0.2730 -0.2301
 5263TIP3    H237281   1.707   6.758   1.188  0.3744 -0.0308 -0.4364
 5264TIP3   OH237282   3.541   5.874   4.338  0.1241  0.1812 -0.3692
 5264TIP3    H137283   3.535   5.804   4.403 -1.7497  0.6154 -0.0595
 5264TIP3    H237284   3.628   5.911   4.351  0.9788 -1.7853 -0.2450
 5265TIP3   OH237285   1.219   2.841   4.578  0.6638  0.2647  0.5111
 5265TIP3    H137286   1.137   2.886   4.557 -0.1264 -1.0614  0.6968
 5265TIP3    H237287   1.284   2.881   4.519 -0.2029  1.0243  0.0588
 5266TIP3   OH237288   2.217   5.637   0.264 -0.4562  0.2110  0.0333
 5266TIP3    H137289   2.202   5.711   0.204 -0.4692  1.6822  1.7978
 5266TIP3    H237290   2.312   5.627   0.267 -0.5295 -2.0253 -2.7259
 5267TIP3   OH237291   0.794   4.552   2.244  0.2830  0.4966 -0.0635
 5267TIP3    H137292   0.851   4.475   2.252  0.5380  0.8504  1.6527
 5267TIP3    H237293   0.837   4.606   2.178 -0.8194 -1.6112 -2.5684
 5268TIP3   OH237294   3.445   2.475  14.319  0.2513  0.2649 -0.3338
 5268TIP3    H137295   3.389   2.550  14.337  1.0345  0.2328  2.6520
 5268TIP3    H237296   3.534   2.509  14.328  0.6591 -0.4838 -1.4069
 5269TIP3   OH237297   3.983   0.716  14.598  0.3997 -0.0448 -0.0966
 5269TIP3    H137298   3.977   0.639  14.655 -1.3058  0.3875  0.3135
 5269TIP3    H237299   4.040   0.776  14.645 -0.6700  0.1437  0.9736
 5270TIP3   OH237300   5.849   4.765   4.080 -0.0372 -0.4724  0.1239
 5270TIP3    H137301   5.925   4.814   4.049  0.5745 -1.1094  0.5909
 5270TIP3    H237302   5.773   4.816   4.051  0.5664  0.0686 -0.5026
 5271TIP3   OH237303   2.203   6.304   5.313  0.7342 -0.3206  0.5657
 5271TIP3    H137304   2.256   6.246   5.367 -1.4493 -0.8921  2.2001
 5271TIP3    H237305   2.134   6.248   5.278 -0.8571  1.0720  1.3865
 5272TIP3   OH237306   4.301   2.584   3.548  0.0305 -0.3430 -0.0774
 5272TIP3    H137307   4.373   2.594   3.610  0.5427 -2.7986 -0.2231
 5272TIP3    H237308   4.235   2.647   3.577  1.3681  0.4236  1.3369
 5273TIP3   OH237309   0.223   5.398  14.546  0.0504  0.7020 -0.1938
 5273TIP3    H137310   0.156   5.423  14.482 -0.2518 -0.2138 -0.2400
 5273TIP3    H237311   0.246   5.480  14.589 -1.0994  1.0335 -0.1859
 5274TIP3   OH237312   4.821   4.274  15.339  0.4793 -0.2931  0.3562
 5274TIP3    H137313   4.859   4.187  15.331 -0.7942 -0.7675 -0.8121
 5274TIP3    H237314   4.893   4.334  15.319  0.9580 -1.1363 -0.4760
 5275TIP3   OH237315   1.302   0.867  12.271  0.4801 -0.2639 -0.1907
 5275TIP3    H137316   1.296   0.784  12.224  2.0275 -0.0790 -0.7728
 5275TIP3    H237317   1.266   0.932  12.210  0.3547 -0.3501 -0.2076
 5276TIP3   OH237318   2.976   0.192  16.691 -0.1549  0.0465 -0.6829
 5276TIP3    H137319   3.003   0.274  16.733  1.3524 -0.9635  0.3890
 5276TIP3    H237320   2.965   0.215  16.599  0.9218  1.3168 -0.5225
 5277TIP3   OH237321   4.250   3.931  11.512 -0.0869 -0.1615 -0.4197
 5277TIP3    H137322   4.240   3.970  11.599 -0.4538  0.9008 -0.9417
 5277TIP3    H237323   4.249   4.005  11.452  2.8674 -0.6678 -1.1459
 5278TIP3   OH237324   4.531   2.458  16.009 -0.1688  0.2695 -0.0766
 5278TIP3    H137325   4.620   2.426  16.020 -0.1520  0.0430 -0.8385
 5278TIP3    H237326   4.535   2.517  15.934 -0.8440 -0.5034 -0.7384
 5279TIP3   OH237327   0.974   4.360   2.145 -0.0745 -0.1927  0.2918
 5279TIP3    H137328   0.988   4.307   2.067 -0.6242 -1.1551  0.8450
 5279TIP3    H237329   1.034   4.434   2.134  2.1894 -1.9285  0.4604
 5280TIP3   OH237330   3.828   0.877   0.590  0.0861  0.1098  0.1060
 5280TIP3    H137331   3.803   0.957   0.544 -1.9935 -0.2323  0.6062
 5280TIP3    H237332   3.824   0.899   0.683  3.0323  0.4287  0.1918
 5281TIP3   OH237333   3.111   1.992   0.408  0.1316 -0.9498 -0.5360
 5281TIP3    H137334   3.089   2.071   0.359  2.1239 -0.5402 -0.8449
 5281TIP3    H237335   3.027   1.950   0.428 -0.8685  0.6532 -1.3540
 5282TIP3   OH237336   3.301   6.187   1.635  0.0158  0.0548  0.0818
 5282TIP3    H137337   3.389   6.156   1.659 -0.2161 -0.4541  0.2804
 5282TIP3    H237338   3.246   6.110   1.642 -0.5570  0.4941  0.5018
 5283TIP3   OH237339   0.505   6.538   1.516 -0.2144 -0.2539  0.3200
 5283TIP3    H137340   0.419   6.509   1.545 -0.0272 -1.1413 -0.0007
 5283TIP3    H237341   0.538   6.592   1.588 -1.3279  0.6755  0.1486
 5284TIP3   OH237342   3.887   4.995  13.506  0.1021 -0.4038 -0.4894
 5284TIP3    H137343   3.841   4.949  13.577 -0.0680 -2.0024 -1.6016
 5284TIP3    H237344   3.972   4.951  13.501  1.3802  1.8039  0.8132
 5285TIP3   OH237345   6.625   0.659   3.887  0.7427  0.1643 -0.1645
 5285TIP3    H137346   6.567   0.647   3.962  0.4645  1.5512 -0.1468
 5285TIP3    H237347   6.699   0.708   3.921  0.3108  1.3526 -0.9299
 5286TIP3   OH237348   5.443   4.002   5.022  0.1240 -0.1133  0.5362
 5286TIP3    H137349   5.498   4.031   5.094  0.2060  0.6266  0.1718
 5286TIP3    H237350   5.406   3.918   5.053 -0.8813  0.8281  1.9799
 5287TIP3   OH237351   4.680   4.470  15.604 -0.1709 -0.5535 -0.7169
 5287TIP3    H137352   4.763   4.432  15.636 -1.0824 -1.6388  0.4446
 5287TIP3    H237353   4.627   4.394  15.581 -1.1279  0.1100 -0.7152
 5288TIP3   OH237354   3.503   6.092   6.489  0.0642  0.4227  0.8116
 5288TIP3    H137355   3.598   6.091   6.483  0.0358 -1.1735  0.5268
 5288TIP3    H237356   3.484   6.102   6.582  0.5162 -1.8463  1.1594
 5289TIP3   OH237357   1.731   6.813   3.758 -0.3286 -0.4618  0.5001
 5289TIP3    H137358   1.821   6.833   3.734  0.4036 -0.3243  3.1803
 5289TIP3    H237359   1.683   6.895   3.745 -0.2012 -0.6858 -1.4478
 5290TIP3   OH237360   6.764   2.182   4.503 -0.4253 -0.2055 -0.0497
 5290TIP3    H137361   6.760   2.149   4.593  0.4742  0.6796  0.3250
 5290TIP3    H237362   6.777   2.104   4.449  1.4122 -0.5066  0.7961
 5291TIP3   OH237363   1.224   1.347  16.554 -0.7596 -0.1319  0.3208
 5291TIP3    H137364   1.280   1.358  16.631 -2.1218 -0.1689  1.3501
 5291TIP3    H237365   1.172   1.427  16.551  1.3641  1.1922 -2.3466
 5292TIP3   OH237366   3.577   4.530  13.587 -0.9416  0.2698 -0.2821
 5292TIP3    H137367   3.482   4.531  13.587 -0.9786 -1.1412  0.9137
 5292TIP3    H237368   3.602   4.558  13.499 -2.4576  0.1802 -0.7512
 5293TIP3   OH237369   2.022   5.075  11.400 -0.3385 -0.2309 -0.2541
 5293TIP3    H137370   1.969   5.149  11.371 -0.5925 -1.2277 -2.4047
 5293TIP3    H237371   1.959   5.004  11.413  0.2466 -0.9104 -1.0762
 5294TIP3   OH237372   6.164   4.947  13.310 -0.4858  0.7667  0.2258
 5294TIP3    H137373   6.232   5.004  13.345 -0.4245 -0.1585  1.6745
 5294TIP3    H237374   6.151   4.881  13.379 -0.5684 -0.9386 -1.3915
 5295TIP3   OH237375   1.527   3.064   5.218  0.3013  0.4398  0.5114
 5295TIP3    H137376   1.457   3.019   5.264  0.8142 -0.7944  0.0903
 5295TIP3    H237377   1.602   3.060   5.277  1.3657 -2.3548 -0.9351
 5296TIP3   OH237378   3.448   3.863  15.237 -0.1283 -0.3667  0.9151
 5296TIP3    H137379   3.355   3.855  15.257 -0.2812  0.5564  0.6121
 5296TIP3    H237380   3.480   3.773  15.235 -1.4013 -0.8068 -0.7295
 5297TIP3   OH237381   3.660   0.930   3.255 -0.2253 -0.6751  0.5048
 5297TIP3    H137382   3.569   0.915   3.280 -0.0017 -2.3231  0.3914
 5297TIP3    H237383   3.711   0.908   3.333  0.0749  0.4485  0.6366
 5298TIP3   OH237384   0.628   4.987   2.230  0.2142  0.4121  0.2964
 5298TIP3    H137385   0.614   5.017   2.140  0.0623  0.3472  0.3002
 5298TIP3    H237386   0.675   5.060   2.271  1.7853 -0.2413 -0.2971
 5299TIP3   OH237387   1.606   4.699   2.586  0.5770 -0.0252  0.0747
 5299TIP3    H137388   1.684   4.720   2.535  0.2734 -0.4508 -0.5729
 5299TIP3    H237389   1.639   4.657   2.665  1.0902  1.2346  0.5497
 5300TIP3   OH237390   4.258   0.351  14.663  0.5835  1.0145 -0.2104
 5300TIP3    H137391   4.265   0.426  14.603  0.0422 -0.6062 -2.3613
 5300TIP3    H237392   4.172   0.361  14.704  0.8016  1.9386  0.0452
 5301TIP3   OH237393   0.942   2.171  17.105  0.2753  0.4167 -0.7438
 5301TIP3    H137394   1.011   2.133  17.160  0.2821  2.6873  0.8969
 5301TIP3    H237395   0.977   2.168  17.016  2.0402  0.5596 -0.0727
 5302TIP3   OH237396   6.117   4.375   5.080 -0.0633  0.0807  0.3727
 5302TIP3    H137397   6.138   4.405   5.168 -1.0312  0.7597  0.3875
 5302TIP3    H237398   6.106   4.455   5.028 -1.5587 -0.2478  0.1447
 5303TIP3   OH237399   3.791   0.603   6.471  0.8098  0.4216  0.6012
 5303TIP3    H137400   3.725   0.614   6.539  1.4085  0.1839  1.2291
 5303TIP3    H237401   3.799   0.508   6.460  1.3050  0.4399  0.7860
 5304TIP3   OH237402   5.465   4.710  11.478  0.5731 -0.1222  0.1666
 5304TIP3    H137403   5.453   4.624  11.518  2.4775 -0.0065  1.0494
 5304TIP3    H237404   5.471   4.692  11.384  1.4754 -1.0003  0.3881
 5305TIP3   OH237405   0.879   5.606  12.102  0.4651 -0.3474  0.1118
 5305TIP3    H137406   0.951   5.548  12.128  2.9643  1.9963 -1.3883
 5305TIP3    H237407   0.891   5.685  12.154 -0.7217  0.2806 -0.5483
 5306TIP3   OH237408   1.866   5.426  16.926 -0.5594 -0.1997 -0.0258
 5306TIP3    H137409   1.855   5.443  17.020  2.5819  0.9732  0.1955
 5306TIP3    H237410   1.879   5.332  16.919 -0.0472 -0.1962  0.8271
 5307TIP3   OH237411   2.424   3.804   3.044 -0.7017  0.0536 -0.0689
 5307TIP3    H137412   2.474   3.839   2.970 -0.5303 -0.1745 -0.0624
 5307TIP3    H237413   2.338   3.848   3.038  0.0836  1.7875  0.9712
 5308TIP3   OH237414   2.023   4.933   5.145  0.5380  0.6039 -0.0624
 5308TIP3    H137415   1.939   4.930   5.098  1.2149  0.5393 -1.2831
 5308TIP3    H237416   2.067   5.010   5.110  0.2330  1.6765  1.8991
 5309TIP3   OH237417   2.923   2.075  10.684 -0.6573  0.2091 -0.2716
 5309TIP3    H137418   2.917   2.126  10.604 -0.6775 -0.2894 -0.5910
 5309TIP3    H237419   2.839   2.087  10.728 -1.4195 -1.1653 -1.3316
 5310TIP3   OH237420   6.285   5.268   1.364  0.5602 -0.0694 -0.1016
 5310TIP3    H137421   6.330   5.213   1.300  2.9047  0.8794  0.6975
 5310TIP3    H237422   6.264   5.348   1.316 -1.2372 -0.8836 -0.7487
 5311TIP3   OH237423   4.440   5.084  17.140  0.0357 -0.1542 -1.0171
 5311TIP3    H137424   4.480   5.152  17.195 -0.3893  0.1498 -1.0767
 5311TIP3    H237425   4.485   5.090  17.057 -0.5661  0.6210 -1.2966
 5312TIP3   OH237426   5.778   3.342  10.141 -0.1685 -0.6281 -0.0815
 5312TIP3    H137427   5.732   3.412  10.187 -0.6142 -0.8436 -0.2021
 5312TIP3    H237428   5.734   3.262  10.169  0.2709 -0.8515 -0.0248
 5313TIP3   OH237429   3.707   2.925   4.207 -0.5118 -0.0878 -0.3063
 5313TIP3    H137430   3.698   2.879   4.290 -2.0455  3.8038  1.8372
 5313TIP3    H237431   3.697   2.857   4.140 -2.8851 -2.7945  2.6413
 5314TIP3   OH237432   5.069   1.619  11.819 -0.5464  0.1978  0.3806
 5314TIP3    H137433   5.157   1.657  11.814 -1.1224  1.5133  0.0133
 5314TIP3    H237434   5.047   1.619  11.912 -0.5185  0.7360  0.3892
 5315TIP3   OH237435   0.058   1.059   3.503 -0.3734  0.6937 -0.0070
 5315TIP3    H137436   0.114   1.133   3.524  0.9044  0.5684 -2.8590
 5315TIP3    H237437   0.075   0.995   3.573  0.7910  1.8469  0.7724
 5316TIP3   OH237438   3.508   2.140   3.039 -0.1036  0.0506 -0.0025
 5316TIP3    H137439   3.574   2.209   3.042  0.9492 -0.8822 -1.2906
 5316TIP3    H237440   3.495   2.124   2.945  0.1016 -1.9154  0.2986
 5317TIP3   OH237441   4.176   4.356  16.572  0.2279  0.2688 -0.4446
 5317TIP3    H137442   4.170   4.383  16.480 -0.6392  1.5122 -0.0501
 5317TIP3    H237443   4.104   4.404  16.615  0.8088 -0.0676  0.9280
 5318TIP3   OH237444   0.800   1.170  12.016 -0.1496  0.0043  0.3413
 5318TIP3    H137445   0.887   1.209  12.010 -0.6686  1.0956 -0.1617
 5318TIP3    H237446   0.795   1.110  11.942  0.1353  0.0109  0.3189
 5319TIP3   OH237447   2.454   2.136  13.981 -0.0484 -0.4524 -0.0478
 5319TIP3    H137448   2.427   2.227  13.969  1.1319  0.1007  1.3272
 5319TIP3    H237449   2.500   2.113  13.900  3.1513  1.4879  1.1238
 5320TIP3   OH237450   6.370   0.590   1.157 -0.6347 -0.0579 -0.5390
 5320TIP3    H137451   6.353   0.513   1.211  1.9806  0.0046  0.4694
 5320TIP3    H237452   6.394   0.554   1.072 -2.8492 -0.2145 -1.1327
 5321TIP3   OH237453   4.205   0.804  16.661 -0.1004 -0.1963  0.0931
 5321TIP3    H137454   4.291   0.792  16.702 -0.2950 -0.4433  0.4278
 5321TIP3    H237455   4.200   0.735  16.595  1.0032  1.3554 -1.6697
 5322TIP3   OH237456   1.070   5.700   1.079  0.2653 -0.1166 -0.0034
 5322TIP3    H137457   1.012   5.639   1.125 -1.2497  0.8507 -0.6235
 5322TIP3    H237458   1.123   5.739   1.149 -1.0761  0.3295  0.7839
 5323TIP3   OH237459   4.689   5.327   1.344 -0.3458 -0.0048 -0.3081
 5323TIP3    H137460   4.763   5.299   1.291  1.7942  4.5750 -0.0494
 5323TIP3    H237461   4.704   5.288   1.430  2.5773  1.8597  0.1010
 5324TIP3   OH237462   5.314   1.812  15.504 -0.5119  0.2857 -0.6290
 5324TIP3    H137463   5.337   1.840  15.415  0.6125  1.6630  0.0725
 5324TIP3    H237464   5.393   1.829  15.556 -1.6205  0.8744  0.9164
 5325TIP3   OH237465   3.958   4.836   2.030 -0.1154  0.2797 -0.4334
 5325TIP3    H137466   3.974   4.928   2.005  0.8609  0.3563  0.4341
 5325TIP3    H237467   3.867   4.835   2.060  0.3093  1.2867  0.9480
 5326TIP3   OH237468   6.034   4.202   4.725  0.1793  0.5961  0.4111
 5326TIP3    H137469   6.054   4.161   4.810  1.0502  1.7733  0.7892
 5326TIP3    H237470   5.945   4.235   4.735 -0.8460 -1.8618 -0.1690
 5327TIP3   OH237471   5.345   3.342   5.299  0.0807 -0.0185  0.5450
 5327TIP3    H137472   5.419   3.316   5.353 -0.6628 -0.7752  1.2215
 5327TIP3    H237473   5.273   3.353   5.361 -0.5018  0.1917 -0.1623
 5328TIP3   OH237474   3.225   3.046  15.134  0.1389  0.5310 -0.2422
 5328TIP3    H137475   3.310   3.090  15.127  0.3168  0.0963 -0.9189
 5328TIP3    H237476   3.226   3.005  15.220 -0.6188  3.0533  1.0062
 5329TIP3   OH237477   3.438   1.174   0.835  0.0454  0.2016 -0.2572
 5329TIP3    H137478   3.491   1.212   0.765 -0.2091 -0.5196 -0.8426
 5329TIP3    H237479   3.490   1.100   0.867 -0.2847 -0.0650 -0.3418
 5330TIP3   OH237480   2.405   5.579   5.100  0.0014 -0.7657  0.2260
 5330TIP3    H137481   2.376   5.598   5.011 -0.4452  0.2908  0.5842
 5330TIP3    H237482   2.480   5.637   5.114  1.1052 -2.1246 -0.0345
 5331TIP3   OH237483   2.667   1.451  14.278 -0.3410  0.9308 -0.3064
 5331TIP3    H137484   2.587   1.439  14.329  0.1790 -0.0380  0.3107
 5331TIP3    H237485   2.738   1.427  14.338  0.1604 -2.6722 -2.1523
 5332TIP3   OH237486   5.809   6.761   5.305 -0.0440  0.1334  0.2907
 5332TIP3    H137487   5.736   6.821   5.316  0.3883  0.7684 -0.2696
 5332TIP3    H237488   5.862   6.799   5.234 -0.3861 -1.4944 -0.8782
 5333TIP3   OH237489   3.554   2.941   4.656  0.7702  0.6606  0.2347
 5333TIP3    H137490   3.578   2.854   4.688  0.1919  0.2422 -0.4432
 5333TIP3    H237491   3.527   2.988   4.734  1.6907  0.4325  0.6908
 5334TIP3   OH237492   2.497   4.683   6.485 -0.0265  0.0501  0.1670
 5334TIP3    H137493   2.578   4.731   6.468 -0.3196  0.3460 -0.3850
 5334TIP3    H237494   2.526   4.594   6.504  0.5591  0.5686  1.7592
 5335TIP3   OH237495   5.953   5.992   1.579  0.3435  0.5769 -0.7717
 5335TIP3    H137496   6.028   5.934   1.573 -1.1051 -1.2264 -2.0801
 5335TIP3    H237497   5.903   5.976   1.498 -0.9669  2.3966 -0.3635
 5336TIP3   OH237498   1.512   5.009  11.297  0.4638  0.1474  0.1365
 5336TIP3    H137499   1.600   4.984  11.325  0.0722 -0.2847  1.0194
 5336TIP3    H237500   1.454   4.952  11.348 -0.3315  0.5508 -0.3060
 5337TIP3   OH237501   3.673   2.185   2.147  0.1217 -0.4965 -0.2116
 5337TIP3    H137502   3.656   2.131   2.070 -0.8949 -1.1252  0.4322
 5337TIP3    H237503   3.589   2.187   2.194  1.1100 -1.3634  1.6361
 5338TIP3   OH237504   1.911   4.664   1.944 -0.1596 -0.1104  0.3704
 5338TIP3    H137505   1.935   4.754   1.964 -2.0600  0.5854 -0.3164
 5338TIP3    H237506   1.989   4.626   1.904  0.7558  1.1275  0.9496
 5339TIP3   OH237507   4.225   6.252  11.697 -0.3179  1.0354 -0.3451
 5339TIP3    H137508   4.283   6.256  11.621 -0.2136 -2.2883 -0.4995
 5339TIP3    H237509   4.267   6.308  11.763  1.7140  0.7304 -1.3546
 5340TIP3   OH237510   5.045   2.683   0.519  0.4815 -0.3636  0.1202
 5340TIP3    H137511   5.017   2.774   0.526  4.6208  0.9738  0.1550
 5340TIP3    H237512   5.020   2.657   0.431 -0.8865  0.7163  0.1635
 5341TIP3   OH237513   4.058   2.607  16.321 -0.1171  0.2281  0.0763
 5341TIP3    H137514   4.079   2.699  16.339 -0.5698  0.3810 -0.1800
 5341TIP3    H237515   4.135   2.573  16.276 -0.2524  0.6807 -0.5017
 5342TIP3   OH237516   5.330   0.701   1.251  0.7516  0.4471 -0.7665
 5342TIP3    H137517   5.354   0.676   1.340 -1.9403 -1.2045 -0.4476
 5342TIP3    H237518   5.322   0.796   1.254  1.2518  0.4571  0.6038
 5343TIP3   OH237519   6.792   5.656  12.522 -0.4913  0.4781 -0.5970
 5343TIP3    H137520   6.817   5.687  12.609  0.9053 -3.2136  0.4063
 5343TIP3    H237521   6.865   5.601  12.493 -3.0586 -2.4554 -1.9016
 5344TIP3   OH237522   1.268   1.927  11.241 -0.4262 -0.0511 -0.0743
 5344TIP3    H137523   1.260   2.006  11.188 -0.8245  1.3945  2.0438
 5344TIP3    H237524   1.274   1.959  11.331 -0.0850 -2.4213  0.7988
 5345TIP3   OH237525   3.031   5.475  15.726 -0.6539  0.2690 -0.1351
 5345TIP3    H137526   3.105   5.435  15.772 -1.1871 -0.7720 -0.1451
 5345TIP3    H237527   3.069   5.546  15.675 -0.0173  1.3474  1.7815
 5346TIP3   OH237528   4.141   0.320   0.032  0.9539 -0.2565 -0.7038
 5346TIP3    H137529   4.123   0.414   0.022  2.7545 -0.0534 -2.3454
 5346TIP3    H237530   4.215   0.304  -0.026  2.9002 -2.0032  2.1481
 5347TIP3   OH237531   0.676   5.562  15.681 -0.2709 -0.0289 -0.0187
 5347TIP3    H137532   0.674   5.591  15.590  1.3746 -0.3935 -0.1837
 5347TIP3    H237533   0.744   5.615  15.722 -2.7209  1.9235  1.6527
 5348TIP3   OH237534   1.828   3.404   2.599  0.1092 -0.0355 -0.0301
 5348TIP3    H137535   1.880   3.459   2.658  0.5571  1.0999 -1.4625
 5348TIP3    H237536   1.746   3.390   2.646  0.3555  1.0844  0.7546
 5349TIP3   OH237537   4.242   3.793   3.943 -0.4112  0.2331 -0.4267
 5349TIP3    H137538   4.206   3.736   3.875  1.3834  2.3574 -3.2678
 5349TIP3    H237539   4.330   3.814   3.913 -0.0139  2.2648  1.9614
 5350TIP3   OH237540   1.986   4.000  13.377 -0.3775 -0.1035  0.5840
 5350TIP3    H137541   1.994   4.078  13.322 -0.6529 -0.5323 -0.0709
 5350TIP3    H237542   2.076   3.976  13.398 -0.1545 -1.1825 -1.4499
 5351TIP3   OH237543   6.556   2.498  14.493 -0.1521 -0.1561  0.1228
 5351TIP3    H137544   6.593   2.437  14.557 -0.6650 -0.1230  0.4573
 5351TIP3    H237545   6.485   2.542  14.540 -0.3990  0.0201 -0.4038
 5352TIP3   OH237546   0.803   1.039  16.489  0.4115 -0.2989 -0.6545
 5352TIP3    H137547   0.809   1.007  16.579  1.4848 -3.0079 -1.6208
 5352TIP3    H237548   0.709   1.043  16.471  0.2197 -0.9814  0.1874
 5353TIP3   OH237549   3.877   6.767  13.343 -0.2121 -0.2776  0.1178
 5353TIP3    H137550   3.800   6.730  13.386 -1.3277 -0.4128 -1.9689
 5353TIP3    H237551   3.950   6.740  13.399 -1.6063 -0.6007  1.8185
 5354TIP3   OH237552   4.482   4.203  15.108  0.0229 -0.1595  0.1372
 5354TIP3    H137553   4.521   4.120  15.137 -0.7206 -1.0954 -1.4386
 5354TIP3    H237554   4.521   4.218  15.021  1.1965  1.8677  0.9799
 5355TIP3   OH237555   3.305   6.817   5.041  0.1669  0.0329 -0.5735
 5355TIP3    H137556   3.292   6.904   5.080  1.3608  0.3372 -0.8398
 5355TIP3    H237557   3.363   6.833   4.967  0.6075 -1.0415 -0.4554
 5356TIP3   OH237558   0.938   0.203   4.445  0.1331  0.1581  0.3972
 5356TIP3    H137559   0.931   0.124   4.390 -1.0280 -0.2423  1.1117
 5356TIP3    H237560   1.012   0.185   4.503  0.4117 -0.0453 -0.0183
 5357TIP3   OH237561   5.639   4.419  17.171  0.0423 -0.0532  0.4649
 5357TIP3    H137562   5.725   4.440  17.207  0.6691 -0.8711 -0.5242
 5357TIP3    H237563   5.658   4.371  17.091 -1.3410 -1.5321  0.9986
 5358TIP3   OH237564   5.351   6.428  10.899 -0.2378 -0.6072  0.1786
 5358TIP3    H137565   5.294   6.438  10.822  2.5705  1.7251 -1.6768
 5358TIP3    H237566   5.312   6.484  10.966 -0.9497 -0.1964 -0.5777
 5359TIP3   OH237567   3.670   0.674  11.507  0.4289 -1.3697 -0.2427
 5359TIP3    H137568   3.755   0.662  11.466  1.7971 -0.1252  2.1119
 5359TIP3    H237569   3.660   0.598  11.565  0.1837 -1.2446 -0.1196
 5360TIP3   OH237570   5.841   1.174  13.455  0.1071 -0.4727  0.0382
 5360TIP3    H137571   5.789   1.224  13.392  0.5851 -0.6288 -0.4817
 5360TIP3    H237572   5.906   1.236  13.488 -0.1255 -0.3986  0.3551
 5361TIP3   OH237573   4.368   0.961   3.233  0.4852  0.4964 -0.1789
 5361TIP3    H137574   4.369   0.996   3.323  0.6997  0.2319 -0.0776
 5361TIP3    H237575   4.459   0.938   3.216  0.3164 -0.1714 -0.1865
 5362TIP3   OH237576   1.943   5.289   4.823 -0.7151 -0.2549  0.4968
 5362TIP3    H137577   1.955   5.270   4.730  0.5756 -0.8301  0.7838
 5362TIP3    H237578   1.855   5.327   4.827 -0.7978 -0.2388 -0.9527
 5363TIP3   OH237579   6.742   1.154  15.428  0.3286  0.2149 -0.4255
 5363TIP3    H137580   6.834   1.165  15.407  0.2843  1.0416 -0.1914
 5363TIP3    H237581   6.731   1.196  15.514  0.0747 -1.3022  0.3072
 5364TIP3   OH237582   0.237   5.223   5.022  0.2377  0.0017  0.1687
 5364TIP3    H137583   0.310   5.203   5.080 -1.5105 -2.1435  1.6905
 5364TIP3    H237584   0.243   5.158   4.952  1.3742  1.5643 -1.2397
 5365TIP3   OH237585   1.055   3.249   1.911 -0.8556 -0.0487 -0.2944
 5365TIP3    H137586   1.003   3.279   1.986 -0.5216  0.5198 -0.2885
 5365TIP3    H237587   1.143   3.282   1.929 -0.7364 -0.0672 -0.8497
 5366TIP3   OH237588   3.414   5.871  16.851  0.0094  0.5945 -0.1740
 5366TIP3    H137589   3.363   5.882  16.931 -0.5601 -0.1247 -0.4277
 5366TIP3    H237590   3.505   5.876  16.880 -0.1717 -1.0190  0.7451
 5367TIP3   OH237591   2.572   6.237  13.975 -0.3609  0.0889  0.2073
 5367TIP3    H137592   2.477   6.248  13.966 -0.3694  0.5725  0.9019
 5367TIP3    H237593   2.595   6.177  13.904 -1.1129  0.3483 -0.2706
 5368TIP3   OH237594   5.358   4.665  11.203  0.0207  0.1786  0.0555
 5368TIP3    H137595   5.315   4.586  11.236 -0.3709  0.7562  0.9639
 5368TIP3    H237596   5.288   4.714  11.160  0.4404 -0.3617 -1.2449
 5369TIP3   OH237597   5.607   0.679   5.190 -0.1750  0.4412  0.1845
 5369TIP3    H137598   5.647   0.601   5.151 -1.7916  0.0349 -0.6845
 5369TIP3    H237599   5.531   0.646   5.237 -0.4263  1.4086  0.4671
 5370TIP3   OH237600   5.551   0.407   3.316  0.0340  0.1567 -0.4168
 5370TIP3    H137601   5.575   0.366   3.400  1.4208 -0.3331 -1.0368
 5370TIP3    H237602   5.533   0.498   3.338  0.3305  0.0148  0.4269
 5371TIP3   OH237603   6.020   0.198  12.055  0.5127  0.5365 -0.0551
 5371TIP3    H137604   6.046   0.107  12.039 -2.0069 -0.4670  1.2503
 5371TIP3    H237605   5.949   0.213  11.992  0.8475  1.5701 -0.1845
 5372TIP3   OH237606   5.052   0.322   2.438 -0.2329  0.3873 -0.0403
 5372TIP3    H137607   5.067   0.364   2.523 -0.6812 -1.3034  0.9035
 5372TIP3    H237608   5.140   0.305   2.404 -0.0500  2.2891 -0.5484
 5373TIP3   OH237609   2.886   0.396   1.252  0.6272  0.0774  0.1468
 5373TIP3    H137610   2.972   0.436   1.243  0.6125  0.1534  0.3509
 5373TIP3    H237611   2.829   0.467   1.280  0.7448 -0.2397  1.2079
 5374TIP3   OH237612   1.347   4.805  11.410  0.3205 -0.3681 -0.1462
 5374TIP3    H137613   1.418   4.753  11.448  1.0940  1.2762  0.6799
 5374TIP3    H237614   1.273   4.789  11.468  0.9747  0.6233  0.9852
 5375TIP3   OH237615   2.985   2.122   5.593  0.5048 -0.5922  0.4040
 5375TIP3    H137616   2.980   2.029   5.618  3.3239 -1.0971 -0.7202
 5375TIP3    H237617   3.041   2.123   5.516  0.5170  2.0743  0.4067
 5376TIP3   OH237618   1.506   0.012   5.235 -0.0197 -0.2054  0.5816
 5376TIP3    H137619   1.588  -0.034   5.254  1.1934  0.8786 -1.7216
 5376TIP3    H237620   1.470  -0.034   5.158 -1.5706 -0.6424  1.5427
 5377TIP3   OH237621   2.918   4.513  15.574 -0.0553 -0.3998  0.1486
 5377TIP3    H137622   2.973   4.542  15.646  0.0543 -2.0918  0.7629
 5377TIP3    H237623   2.932   4.578  15.505  1.5134  0.0178  0.8585
 5378TIP3   OH237624   1.083   0.285  16.348  0.7659  0.6203  0.2517
 5378TIP3    H137625   1.170   0.276  16.388  1.2259 -0.1961 -0.9084
 5378TIP3    H237626   1.082   0.374  16.313  1.1996  0.5660  0.0968
 5379TIP3   OH237627   5.215   1.150  15.198 -0.2655  0.3728  0.5147
 5379TIP3    H137628   5.125   1.118  15.208 -0.7594  0.4650 -2.9284
 5379TIP3    H237629   5.249   1.100  15.123  2.5901  0.3154  1.8145
 5380TIP3   OH237630   2.270   0.727  11.535  0.1518  0.5161 -0.5167
 5380TIP3    H137631   2.323   0.727  11.615 -0.6113  0.1180 -0.0011
 5380TIP3    H237632   2.326   0.767  11.469  1.5444 -0.9987 -0.2864
 5381TIP3   OH237633   0.787   6.361   5.737 -0.3045 -0.1455 -0.1252
 5381TIP3    H137634   0.762   6.386   5.648 -0.6671  1.0326  0.2949
 5381TIP3    H237635   0.882   6.366   5.738 -0.3700  1.2625 -0.0510
 5382TIP3   OH237636   5.876   6.018   0.698  0.1119 -0.2220 -0.4379
 5382TIP3    H137637   5.829   6.016   0.615 -0.0768 -0.4250 -0.3265
 5382TIP3    H237638   5.952   5.962   0.685 -0.4982 -1.1433 -0.1266
 5383TIP3   OH237639   1.901   4.383  16.240  0.4024  0.1627 -0.3832
 5383TIP3    H137640   1.817   4.419  16.269  1.4595  1.8677  0.6427
 5383TIP3    H237641   1.901   4.292  16.271 -1.0552  0.1604 -0.3877
 5384TIP3   OH237642   4.734   5.794   6.062 -0.0527  0.4496  0.4096
 5384TIP3    H137643   4.777   5.774   5.979 -1.9032  1.0224 -0.7155
 5384TIP3    H237644   4.684   5.874   6.045 -1.1982  0.0565  1.7893
 5385TIP3   OH237645   1.014   6.550   4.161  0.0833  0.2192  0.2516
 5385TIP3    H137646   0.929   6.537   4.119 -0.0255 -1.1497  0.8952
 5385TIP3    H237647   1.075   6.564   4.088 -0.3018 -1.0381 -0.3155
 5386TIP3   OH237648   1.848   6.575   3.129  0.0084 -0.4620 -0.5112
 5386TIP3    H137649   1.781   6.516   3.094 -0.7237 -0.8928  1.5518
 5386TIP3    H237650   1.801   6.631   3.190  1.0805  0.9188 -0.9282
 5387TIP3   OH237651   1.219   2.581   4.388  0.2552 -0.0398 -0.7416
 5387TIP3    H137652   1.154   2.637   4.346 -0.2607  0.4025  0.6328
 5387TIP3    H237653   1.168   2.516   4.436  0.8330 -0.3608 -0.5596
 5388TIP3   OH237654   3.616   4.401   1.116  0.1276 -0.0065 -0.1347
 5388TIP3    H137655   3.709   4.384   1.098 -0.0225 -0.2325 -0.7144
 5388TIP3    H237656   3.607   4.495   1.108  0.7170  0.2551  1.8987
 5389TIP3   OH237657   0.605   3.394  11.659  0.8790 -0.0377 -0.4241
 5389TIP3    H137658   0.605   3.467  11.720  0.5365  0.7904 -1.4029
 5389TIP3    H237659   0.597   3.316  11.714 -1.4921  0.7929  0.4565
 5390TIP3   OH237660   5.458   0.290  15.686 -0.4232 -0.2049  0.5776
 5390TIP3    H137661   5.497   0.370  15.722 -0.5213 -0.1551  0.5719
 5390TIP3    H237662   5.482   0.293  15.593  0.4361 -0.6928  0.7745
 5391TIP3   OH237663   6.654   5.357  15.739  0.0047 -0.0005  0.2711
 5391TIP3    H137664   6.731   5.411  15.720  0.2347 -0.5376 -0.2987
 5391TIP3    H237665   6.581   5.405  15.699 -0.0306  0.7409  1.1987
 5392TIP3   OH237666   3.882   1.915   1.973  0.5960 -0.1902 -0.3061
 5392TIP3    H137667   3.953   1.960   1.929 -0.6592  1.4530 -0.6824
 5392TIP3    H237668   3.803   1.961   1.945 -0.7533 -2.7463 -0.8600
 5393TIP3   OH237669   1.525   2.795   5.418 -0.0586  0.0013 -0.1285
 5393TIP3    H137670   1.447   2.793   5.363 -0.1264 -0.6041 -0.0173
 5393TIP3    H237671   1.500   2.749   5.498  0.6855 -1.0025 -0.4629
 5394TIP3   OH237672   5.017   5.626  12.168 -0.1988  0.1759  0.2354
 5394TIP3    H137673   4.971   5.641  12.085  0.5773 -0.4268 -0.3197
 5394TIP3    H237674   5.110   5.627  12.144  0.1447  2.4434  1.5055
 5395TIP3   OH237675   6.661   2.142  16.952  0.0118  0.0113 -0.7365
 5395TIP3    H137676   6.585   2.085  16.961 -1.3652  1.8838 -0.2523
 5395TIP3    H237677   6.723   2.111  17.019 -1.2499 -0.0754  0.3999
 5396TIP3   OH237678   5.579   5.752  14.679 -0.4749  0.4721 -0.7324
 5396TIP3    H137679   5.665   5.789  14.660 -1.1820  1.8434 -1.3339
 5396TIP3    H237680   5.517   5.821  14.655 -1.6615  0.2482  1.5583
 5397TIP3   OH237681   4.378   6.556   0.182  0.2108  0.1614  0.5008
 5397TIP3    H137682   4.386   6.494   0.255  2.5083 -1.2929 -0.9433
 5397TIP3    H237683   4.423   6.635   0.213  1.1567 -0.4423  0.6860
 5398TIP3   OH237684   4.333   5.967   4.194  0.2552 -0.6749 -0.1055
 5398TIP3    H137685   4.304   5.876   4.198 -0.5696 -0.5734 -3.1023
 5398TIP3    H237686   4.253   6.018   4.199  0.5169 -0.1877 -0.8967
 5399TIP3   OH237687   0.115   1.336  14.822  0.3559 -0.0138  0.0066
 5399TIP3    H137688   0.113   1.350  14.727  1.6744  1.1346  0.1364
 5399TIP3    H237689   0.036   1.379  14.854 -0.0374 -0.3119 -0.5440
 5400TIP3   OH237690   6.065   2.322  14.058 -0.5910  0.1164 -0.2748
 5400TIP3    H137691   6.058   2.409  14.017 -1.2539  0.8887  1.4294
 5400TIP3    H237692   6.157   2.298  14.047 -0.5723  0.6626 -1.4819
 5401TIP3   OH237693   3.027   3.601  13.035 -0.8033 -0.2865 -0.5200
 5401TIP3    H137694   2.964   3.601  13.106 -0.7662  1.1767 -0.4692
 5401TIP3    H237695   3.109   3.572  13.075 -0.2339  2.6690  0.5772
 5402TIP3   OH237696   6.257   6.325  16.179 -0.8032  0.1604 -0.4865
 5402TIP3    H137697   6.210   6.375  16.113 -3.3577 -2.4056 -0.6688
 5402TIP3    H237698   6.201   6.329  16.257 -0.5382 -1.4956 -0.1876
 5403TIP3   OH237699   3.578   5.111  14.961  0.1458  0.0252  0.0489
 5403TIP3    H137700   3.653   5.145  15.009  0.3785  1.5778 -1.3896
 5403TIP3    H237701   3.514   5.087  15.029  1.8561 -1.1926  1.2709
 5404TIP3   OH237702   2.500   0.307  13.674 -0.5035 -0.2248  0.5966
 5404TIP3    H137703   2.406   0.294  13.689 -0.8003  0.6436 -0.4737
 5404TIP3    H237704   2.520   0.251  13.599  0.3927 -2.4057  2.4119
 5405TIP3   OH237705   6.216   1.329   0.711  0.6067 -0.2254 -0.1407
 5405TIP3    H137706   6.239   1.237   0.702  2.5559  0.3760 -1.7244
 5405TIP3    H237707   6.192   1.339   0.803  0.7926 -2.2067  0.1456
 5406TIP3   OH237708   2.096   0.107   1.430  0.0342  0.4806  0.0110
 5406TIP3    H137709   2.147   0.118   1.510 -1.5857  2.7380  0.7754
 5406TIP3    H237710   2.154   0.137   1.360  1.0828 -0.5331  0.4233
 5407TIP3   OH237711   6.411   2.897  13.891  0.4476  0.2295 -0.1584
 5407TIP3    H137712   6.493   2.930  13.857  0.7100  0.7575  0.9877
 5407TIP3    H237713   6.350   2.971  13.885 -0.2944 -0.5033 -2.1433
 5408TIP3   OH237714   0.461   3.344   0.122 -0.3510 -0.6397 -0.3907
 5408TIP3    H137715   0.463   3.294   0.040 -0.1327 -1.7219  0.2694
 5408TIP3    H237716   0.527   3.302   0.177 -0.9991 -0.3674  0.6011
 5409TIP3   OH237717   0.658   4.651  17.034 -0.2925 -0.1566  0.1546
 5409TIP3    H137718   0.576   4.655  16.985 -0.8176 -0.0578  1.0258
 5409TIP3    H237719   0.724   4.682  16.972 -1.4114  3.1322  0.4706
 5410TIP3   OH237720   5.605   3.719  14.545  0.6472 -0.4300 -0.1306
 5410TIP3    H137721   5.527   3.771  14.525 -0.3208 -1.6275  0.4864
 5410TIP3    H237722   5.575   3.629  14.543  2.0767 -0.9144 -0.1026
 5411TIP3   OH237723   2.884   1.306  13.508 -0.4311  0.0549  0.1303
 5411TIP3    H137724   2.920   1.388  13.476 -1.2739  0.4175  0.1036
 5411TIP3    H237725   2.937   1.238  13.466  0.5464  0.5896  0.4848
 5412TIP3   OH237726   4.473   3.383   2.203  0.2855 -0.2356 -0.5267
 5412TIP3    H137727   4.476   3.463   2.256  0.4692 -0.3509 -0.3644
 5412TIP3    H237728   4.550   3.334   2.230 -0.7529 -1.2590  0.5968
 5413TIP3   OH237729   1.526   0.458  14.999 -0.1341  0.2604  0.0877
 5413TIP3    H137730   1.438   0.493  14.987 -0.7454 -0.7152  1.5271
 5413TIP3    H237731   1.572   0.525  15.049 -0.8438 -0.2924  1.5270
 5414TIP3   OH237732   3.069   0.702   6.043  0.1400  0.3703 -0.0886
 5414TIP3    H137733   3.019   0.708   6.125  1.8913  0.7791  0.9791
 5414TIP3    H237734   3.107   0.614   6.045  2.0896  1.1986  0.7003
 5415TIP3   OH237735   1.278   0.030   3.099  0.3306  0.1608  0.0778
 5415TIP3    H137736   1.328  -0.050   3.080 -1.6687 -1.5785  1.8237
 5415TIP3    H237737   1.335   0.080   3.157  1.1110 -0.5546 -0.0531
 5416TIP3   OH237738   5.765   3.982   4.026  0.1163  0.2114 -0.1675
 5416TIP3    H137739   5.686   4.021   4.064 -0.5235 -1.4627  0.2769
 5416TIP3    H237740   5.746   3.888   4.024  2.4754 -0.3057  0.8194
 5417TIP3   OH237741   3.932   4.427  13.244  0.1129  0.0514  0.0403
 5417TIP3    H137742   3.937   4.519  13.268 -0.3075  0.0493  0.1373
 5417TIP3    H237743   3.872   4.388  13.308  0.6733 -0.3893  0.3025
 5418TIP3   OH237744   2.011   3.976  11.513 -0.4225  0.1827 -0.2219
 5418TIP3    H137745   2.079   3.918  11.478 -2.9865 -2.2397 -1.3858
 5418TIP3    H237746   2.013   3.961  11.607 -0.0160 -0.6503 -0.3571
 5419TIP3   OH237747   0.305   3.571  14.212 -0.3899 -0.1722  0.7183
 5419TIP3    H137748   0.377   3.610  14.261  0.6620  0.0363 -0.9375
 5419TIP3    H237749   0.330   3.480  14.200  0.3710  0.2514 -1.1715
 5420TIP3   OH237750   6.785   1.122  16.858 -0.1154 -0.2904  0.1372
 5420TIP3    H137751   6.863   1.080  16.822 -1.0147 -0.5953 -1.5183
 5420TIP3    H237752   6.728   1.049  16.884 -1.2577 -0.1526 -1.8270
 5421TIP3   OH237753   3.371   6.755   1.640  0.0713  0.8422  0.1109
 5421TIP3    H137754   3.364   6.742   1.546  0.2335 -2.0859  0.4420
 5421TIP3    H237755   3.282   6.775   1.669 -0.1024  1.0419 -0.5552
 5422TIP3   OH237756   2.494   2.064   3.054 -0.1857  0.2896 -0.1847
 5422TIP3    H137757   2.507   2.153   3.021  0.8967  0.2365  0.0845
 5422TIP3    H237758   2.500   2.072   3.149  0.0979 -0.0983 -0.1674
 5423TIP3   OH237759   2.960   0.665   1.868 -0.4734  0.3433  0.0774
 5423TIP3    H137760   2.972   0.759   1.858  0.5633  0.1706 -0.3717
 5423TIP3    H237761   2.870   0.655   1.899 -1.3334  1.3398 -2.0599
 5424TIP3   OH237762   4.308   6.798  16.677 -0.3975 -0.1416 -0.0476
 5424TIP3    H137763   4.330   6.891  16.672 -0.5800 -0.0835  0.2012
 5424TIP3    H237764   4.264   6.780  16.593 -2.7273  0.6376  0.9541
 5425TIP3   OH237765   2.181   2.457  12.741 -0.3463 -0.3904  0.4378
 5425TIP3    H137766   2.261   2.404  12.741 -0.0916 -0.0171 -0.7010
 5425TIP3    H237767   2.208   2.542  12.777  0.1478  0.2840 -1.5103
 5426TIP3   OH237768   2.207   4.261   5.135 -0.0944 -0.3544 -0.1695
 5426TIP3    H137769   2.219   4.192   5.070  0.3665  1.1018 -1.6658
 5426TIP3    H237770   2.122   4.299   5.113 -0.5720 -0.7398  0.9529
 5427TIP3   OH237771   0.351   4.813  11.134  0.1633 -0.2566  0.2725
 5427TIP3    H137772   0.293   4.758  11.083  1.5512 -0.4689 -1.1218
 5427TIP3    H237773   0.435   4.808  11.088  0.4705  2.5388  0.4491
 5428TIP3   OH237774   0.546   3.336   4.037  0.0591  0.4225 -0.7659
 5428TIP3    H137775   0.481   3.397   4.003  1.4283  2.8867  0.7699
 5428TIP3    H237776   0.625   3.354   3.986  0.0065 -1.3805 -1.5158
 5429TIP3   OH237777   2.510   1.030   5.471  0.3930 -0.3689  0.2978
 5429TIP3    H137778   2.543   0.968   5.535 -1.0678  1.3126  2.7882
 5429TIP3    H237779   2.524   1.116   5.511 -0.0936  0.7604 -1.8715
 5430TIP3   OH237780   5.273   3.534   3.467 -0.2224 -0.3657  0.0478
 5430TIP3    H137781   5.338   3.473   3.433 -1.0523  0.2312 -2.6810
 5430TIP3    H237782   5.189   3.496   3.443 -1.0045 -1.3690  3.9470
 5431TIP3   OH237783   1.598   0.139  11.971  0.1576  0.0465  0.0055
 5431TIP3    H137784   1.579   0.226  12.007 -0.0354 -0.2039  0.5147
 5431TIP3    H237785   1.591   0.080  12.046 -3.3222 -0.9392 -1.0106
 5432TIP3   OH237786   4.111   3.720  11.754 -0.3462  0.3137 -0.2380
 5432TIP3    H137787   4.189   3.773  11.770  0.2548 -0.8192  0.6143
 5432TIP3    H237788   4.070   3.710  11.840 -0.7791 -0.1205 -0.4888
 5433TIP3   OH237789   2.874   0.827   5.894  0.0905 -0.3400  0.0051
 5433TIP3    H137790   2.821   0.756   5.858 -0.7462  0.3552 -0.1578
 5433TIP3    H237791   2.938   0.784   5.949  0.0484 -1.2783 -0.6634
 5434TIP3   OH237792   5.839   2.555  15.866  0.3227 -0.3942  0.2331
 5434TIP3    H137793   5.806   2.551  15.776 -1.3250  0.4114  0.7764
 5434TIP3    H237794   5.894   2.634  15.868 -0.8110  0.4118  0.2879
 5435TIP3   OH237795   1.001   0.407  16.734  0.4567  0.0298  0.0071
 5435TIP3    H137796   0.906   0.419  16.729  0.3481 -0.5284  0.6310
 5435TIP3    H237797   1.018   0.323  16.693  0.6148 -0.1326  0.3977
 5436TIP3   OH237798   5.682   4.647   5.415  0.3734 -0.0314  0.0278
 5436TIP3    H137799   5.661   4.664   5.507  1.9252  0.3923  0.3076
 5436TIP3    H237800   5.755   4.585   5.418 -0.3928 -1.0094 -0.9369
 5437TIP3   OH237801   3.877   0.351   4.224 -0.3945  1.0801  0.7287
 5437TIP3    H137802   3.886   0.409   4.149 -0.2584  1.4937  1.0592
 5437TIP3    H237803   3.785   0.358   4.249 -0.8353 -0.3686 -0.4393
 5438TIP3   OH237804   0.088   3.780   0.917  0.1094  0.0273  0.0090
 5438TIP3    H137805   0.115   3.735   0.837  0.2996 -0.3209  0.2672
 5438TIP3    H237806  -0.007   3.781   0.913  0.1617  1.4734 -1.0226
 5439TIP3   OH237807   3.476   4.279   1.327 -0.6625 -0.0461  0.4195
 5439TIP3    H137808   3.520   4.301   1.410 -0.3677 -0.4435  0.3708
 5439TIP3    H237809   3.533   4.316   1.259  1.2992 -3.2198  0.1904
 5440TIP3   OH237810   1.788   3.098   2.691 -0.3578 -0.1526 -0.1380
 5440TIP3    H137811   1.802   3.084   2.597 -2.0195 -0.2908 -0.3860
 5440TIP3    H237812   1.841   3.174   2.712  1.9851 -1.5858 -0.6389
 5441TIP3   OH237813   4.728   1.161   6.702  0.3850 -0.1629 -0.5204
 5441TIP3    H137814   4.779   1.169   6.621 -0.3793 -0.6537 -1.0567
 5441TIP3    H237815   4.793   1.165   6.771  1.0473  0.2852 -1.1625
 5442TIP3   OH237816   2.860   2.404  17.062  0.3032 -0.1311  0.9760
 5442TIP3    H137817   2.797   2.366  17.122 -0.2737  0.6625  0.8813
 5442TIP3    H237818   2.872   2.338  16.994  1.9204 -1.5771  2.6093
 5443TIP3   OH237819   4.181   4.332  16.036 -0.1835 -0.7651 -0.3743
 5443TIP3    H137820   4.218   4.420  16.046 -0.1171 -0.7748 -0.5256
 5443TIP3    H237821   4.086   4.346  16.035 -0.1606 -0.6090 -1.1499
 5444TIP3   OH237822   1.159   5.807  12.533 -0.2594 -0.2175  0.1849
 5444TIP3    H137823   1.211   5.877  12.493 -0.6461 -0.5628 -0.9594
 5444TIP3    H237824   1.075   5.849  12.554  0.0493  0.0380  0.8921
 5445TIP3   OH237825   0.017   5.017   5.074 -0.3713 -0.1395 -0.0441
 5445TIP3    H137826   0.039   5.104   5.042  0.0703  0.2722  1.3315
 5445TIP3    H237827   0.048   4.957   5.006  3.3447  0.5225  0.9735
 5446TIP3   OH237828   2.390   0.006   0.019  0.4612 -0.6180 -0.5283
 5446TIP3    H137829   2.427   0.038  -0.063  0.4131 -1.4166 -0.8685
 5446TIP3    H237830   2.438   0.053   0.087  1.4496 -0.9399 -0.9928
 5447TIP3   OH237831   0.826   0.016   3.009  0.3056  0.3285  0.1601
 5447TIP3    H137832   0.809  -0.046   3.080 -1.6093  0.7349  0.0853
 5447TIP3    H237833   0.814  -0.035   2.929 -0.5432  0.5851  0.1108
 5448TIP3   OH237834   2.995   5.006   3.997 -0.0687  0.1618  0.7326
 5448TIP3    H137835   3.015   5.099   4.006 -0.8152  0.2737  1.2361
 5448TIP3    H237836   3.017   4.986   3.905 -2.5183  1.4905 -0.1791
 5449TIP3   OH237837   6.253   5.201  11.566 -0.0380  0.0164 -0.0944
 5449TIP3    H137838   6.343   5.234  11.559  1.0387 -2.1612  2.4748
 5449TIP3    H237839   6.220   5.238  11.648 -1.1990  0.1135 -0.5962
 5450TIP3   OH237840   3.324   4.719   0.700 -0.0772 -0.4088  0.2489
 5450TIP3    H137841   3.281   4.691   0.781  0.9001 -0.8314  0.6315
 5450TIP3    H237842   3.341   4.812   0.713 -1.1303 -0.1776 -0.0212
 5451TIP3   OH237843   4.817   3.898   0.944 -0.6312  0.7506 -0.0665
 5451TIP3    H137844   4.791   3.807   0.931 -0.0140  0.2360  2.0745
 5451TIP3    H237845   4.897   3.893   0.996  0.4588  2.4844 -1.4906
 5452TIP3   OH237846   4.274   6.644  14.740 -0.7480 -0.3291  0.1552
 5452TIP3    H137847   4.294   6.595  14.660 -1.1920 -0.1584 -0.0613
 5452TIP3    H237848   4.340   6.615  14.803 -0.5859 -0.6927 -0.1798
 5453TIP3   OH237849   0.817   5.333  13.278 -0.2739 -0.3392  0.4571
 5453TIP3    H137850   0.895   5.355  13.227 -1.0842 -0.5949 -0.9340
 5453TIP3    H237851   0.745   5.341  13.215 -1.3911  0.0876  1.7708
 5454TIP3   OH237852   4.444   2.232   4.458  0.4948 -0.9931 -0.3369
 5454TIP3    H137853   4.462   2.139   4.467 -0.4525 -1.2765 -1.3552
 5454TIP3    H237854   4.361   2.237   4.411 -0.6611  0.3352  1.7467
 5455TIP3   OH237855   1.549   6.210  13.839 -0.1030 -0.3610 -0.0814
 5455TIP3    H137856   1.639   6.176  13.848 -0.5138 -1.3224  0.5413
 5455TIP3    H237857   1.544   6.242  13.749  0.4563 -1.5202 -0.5371
 5456TIP3   OH237858   3.215   4.136   1.367  0.2793  0.6892 -0.1622
 5456TIP3    H137859   3.278   4.200   1.401 -1.0599  1.8097  0.2423
 5456TIP3    H237860   3.146   4.189   1.328 -0.6819 -0.5175 -0.1270
 5457TIP3   OH237861   0.017   3.200  10.380 -0.4459  0.4555  0.0773
 5457TIP3    H137862  -0.014   3.283  10.416 -0.6731  0.8832 -1.0719
 5457TIP3    H237863   0.090   3.174  10.437 -1.5116  0.5304  1.5081
 5458TIP3   OH237864   0.259   6.681   3.971 -0.1200  0.3980  0.8010
 5458TIP3    H137865   0.334   6.637   4.013  0.7532  0.7505 -0.3936
 5458TIP3    H237866   0.294   6.764   3.940 -0.9236  0.4198 -0.0591
 5459TIP3   OH237867   4.269   6.030  15.841  0.8002 -0.4071 -0.7567
 5459TIP3    H137868   4.301   5.974  15.912  1.2944  1.0588  0.2197
 5459TIP3    H237869   4.173   6.028  15.850  0.9022  1.3641  1.2789
 5460TIP3   OH237870   5.305   4.575   0.486  0.5340 -0.1907 -0.1976
 5460TIP3    H137871   5.211   4.593   0.480  0.3636 -0.8790  0.2563
 5460TIP3    H237872   5.329   4.543   0.400 -0.1395 -2.2001  0.3398
 5461TIP3   OH237873   0.219   0.089  15.049  0.5924 -0.1553 -0.2372
 5461TIP3    H137874   0.230   0.036  14.971  0.0313 -1.1489  0.3538
 5461TIP3    H237875   0.190   0.174  15.016  0.1508 -0.6320 -1.0958
 5462TIP3   OH237876   3.993   3.315  12.893  0.1794  0.5846  0.0351
 5462TIP3    H137877   3.899   3.333  12.898  0.2783  1.2824 -0.6200
 5462TIP3    H237878   4.016   3.330  12.801  0.7355 -0.5714 -0.0257
 5463TIP3   OH237879   5.411   5.889  13.829  0.1302 -0.3960  0.5138
 5463TIP3    H137880   5.488   5.916  13.879 -0.7059 -0.6337  1.9646
 5463TIP3    H237881   5.364   5.829  13.887 -2.3076  1.4437  0.5506
 5464TIP3   OH237882   2.892   4.328   0.832  0.2804  0.4717 -0.6520
 5464TIP3    H137883   2.853   4.361   0.913 -0.8968  0.4727 -1.2148
 5464TIP3    H237884   2.859   4.387   0.764  0.2953 -0.2574 -1.2986
 5465TIP3   OH237885   1.766   6.678  16.792 -0.0063  0.0062 -0.5984
 5465TIP3    H137886   1.850   6.711  16.760  0.7781 -0.0581  1.3570
 5465TIP3    H237887   1.772   6.683  16.887 -2.5757  0.8983 -0.4284
 5466TIP3   OH237888   1.100   1.168  15.223 -0.2303  0.3593 -0.2926
 5466TIP3    H137889   1.120   1.138  15.312  0.8156 -2.8319 -1.5416
 5466TIP3    H237890   1.009   1.142  15.210  0.2914 -1.2055 -0.9208
 5467TIP3   OH237891   1.997   1.578   3.067  0.2280 -0.0140 -0.1356
 5467TIP3    H137892   2.051   1.504   3.036 -0.0283  0.3985 -1.5733
 5467TIP3    H237893   1.965   1.549   3.152  0.6073 -1.3315 -0.4241
 5468TIP3   OH237894   5.577   1.710   2.107  0.2592  0.0532 -0.2417
 5468TIP3    H137895   5.661   1.748   2.080  0.1016  0.8976  0.4306
 5468TIP3    H237896   5.531   1.693   2.025  0.7212  0.4288 -0.5854
 5469TIP3   OH237897   1.105   3.241   0.701  0.6122 -0.3893 -0.5335
 5469TIP3    H137898   1.057   3.256   0.619 -1.6878 -0.4596  0.7612
 5469TIP3    H237899   1.102   3.326   0.746 -0.9950 -1.2153  0.9360
 5470TIP3   OH237900   1.513   6.636   5.809 -0.5517 -0.2006 -0.0034
 5470TIP3    H137901   1.577   6.636   5.880  0.5534  1.7727 -0.9559
 5470TIP3    H237902   1.429   6.654   5.852  0.0221  0.3849  0.8873
 5471TIP3   OH237903   6.736   4.048   0.503  0.3980  0.1775 -0.4630
 5471TIP3    H137904   6.788   3.972   0.478  0.4969  0.2472 -0.4683
 5471TIP3    H237905   6.788   4.092   0.570 -0.7344 -1.0610  1.2684
 5472TIP3   OH237906   0.260   3.634  11.011 -0.4814  0.7736  0.3056
 5472TIP3    H137907   0.299   3.626  10.924 -0.3463 -1.8362  0.5670
 5472TIP3    H237908   0.168   3.612  10.999 -0.3153 -0.3214  0.9105
 5473TIP3   OH237909   0.098   1.277   2.724  0.6098 -0.2282  0.8191
 5473TIP3    H137910   0.099   1.362   2.680  3.1660 -0.4722  0.3745
 5473TIP3    H237911   0.057   1.294   2.808  1.8537  1.6156  1.0635
 5474TIP3   OH237912   4.504   1.408   6.281 -0.0953 -0.6524 -0.1708
 5474TIP3    H137913   4.479   1.426   6.372 -1.5456 -2.3181 -0.2099
 5474TIP3    H237914   4.594   1.378   6.285  0.2721  0.5213  0.5633
 5475TIP3   OH237915   3.598   1.262  13.633 -0.3099 -0.0759  0.2483
 5475TIP3    H137916   3.506   1.277  13.658 -0.0125  0.0558  1.3008
 5475TIP3    H237917   3.612   1.320  13.558 -0.3599  1.8957  1.7073
 5476TIP3   OH237918   1.637   1.631  15.764 -0.1366  0.3625 -0.0279
 5476TIP3    H137919   1.574   1.641  15.692 -0.6237 -1.5664  0.1082
 5476TIP3    H237920   1.586   1.649  15.843 -0.8479 -2.3458  0.1696
 5477TIP3   OH237921   0.935   5.438  16.055  0.3485  0.3539  0.2001
 5477TIP3    H137922   0.856   5.387  16.038  1.2250 -1.3276  1.0520
 5477TIP3    H237923   0.908   5.504  16.119 -0.2324 -0.5617  0.9012
 5478TIP3   OH237924   1.482   2.258   3.820 -0.6957  0.3136  0.2402
 5478TIP3    H137925   1.532   2.335   3.847 -1.0822 -0.2051  2.5143
 5478TIP3    H237926   1.433   2.287   3.743 -1.6945  2.6839  1.7178
 5479TIP3   OH237927   5.433   3.099  13.969  0.5948  0.4508 -0.2073
 5479TIP3    H137928   5.412   3.094  14.062 -1.3743  0.9085 -0.6085
 5479TIP3    H237929   5.420   3.191  13.945 -0.4940  0.0408 -1.2749
 5480TIP3   OH237930   4.077   0.775  11.876 -0.1533 -0.1342  0.3420
 5480TIP3    H137931   4.048   0.861  11.908 -0.4787 -0.6195  1.3584
 5480TIP3    H237932   4.106   0.792  11.786 -0.4091  1.0012  0.4642
 5481TIP3   OH237933   6.463   5.303   0.345  0.3756 -0.0306 -0.0781
 5481TIP3    H137934   6.383   5.256   0.368  0.9063 -1.0581 -0.3124
 5481TIP3    H237935   6.468   5.375   0.409 -0.2479 -0.5011  0.5037
 5482TIP3   OH237936   4.498   6.264   0.661 -0.0830  0.0846 -0.1574
 5482TIP3    H137937   4.579   6.219   0.633  0.5213  1.3452 -0.4498
 5482TIP3    H237938   4.446   6.195   0.702  0.7503 -0.9404 -0.7903
 5483TIP3   OH237939   0.301   1.133   2.665  0.3768  0.2520  0.0959
 5483TIP3    H137940   0.282   1.042   2.641  1.4461 -0.1643  0.7788
 5483TIP3    H237941   0.215   1.175   2.671 -0.1060 -0.6337 -0.5238
 5484TIP3   OH237942   5.477   2.142  13.274  0.4952 -0.1927  0.0656
 5484TIP3    H137943   5.432   2.156  13.357  0.0622 -0.2066 -0.1640
 5484TIP3    H237944   5.568   2.129  13.298  0.3846 -0.1186  0.5337
 5485TIP3   OH237945   5.258   5.272   3.913 -0.1676  0.1789  0.0298
 5485TIP3    H137946   5.181   5.227   3.878  0.6549 -1.6444  0.5403
 5485TIP3    H237947   5.226   5.314   3.993 -1.1066  1.1446 -0.8255
 5486TIP3   OH237948   1.327   3.809   4.413 -0.5496 -0.1518 -0.3552
 5486TIP3    H137949   1.278   3.769   4.485  0.1074 -0.4364 -0.0614
 5486TIP3    H237950   1.279   3.782   4.335 -0.7562 -0.5952 -0.0836
 5487TIP3   OH237951   1.452   6.653  16.281  0.0990  0.0488 -0.1418
 5487TIP3    H137952   1.497   6.588  16.335 -0.0343 -0.4586 -0.6274
 5487TIP3    H237953   1.518   6.719  16.263  0.4045 -0.2485 -0.1227
 5488TIP3   OH237954   1.344   4.236  14.917  0.2309 -0.1942  0.4470
 5488TIP3    H137955   1.279   4.178  14.955 -1.3194  2.8206  2.6327
 5488TIP3    H237956   1.428   4.195  14.939 -0.7782 -0.9411  3.1496
 5489TIP3   OH237957   5.851   5.590  16.700 -0.9813  0.5569 -0.1107
 5489TIP3    H137958   5.811   5.510  16.668  0.4662  1.0029 -3.1691
 5489TIP3    H237959   5.910   5.561  16.770 -1.6165 -0.8588 -0.1437
 5490TIP3   OH237960   4.432   4.968  12.794 -0.3374  0.5603 -0.1803
 5490TIP3    H137961   4.443   4.910  12.718 -1.5339  0.5339 -0.3308
 5490TIP3    H237962   4.417   4.908  12.867 -0.7224  0.6478 -0.1881
 5491TIP3   OH237963   6.199   3.765   3.237 -0.2361 -0.0235  1.0299
 5491TIP3    H137964   6.274   3.735   3.286  0.2980  1.1649  0.9670
 5491TIP3    H237965   6.160   3.834   3.291  0.1405  1.0346 -0.0234
 5492TIP3   OH237966   4.983   4.363   2.831  0.0093  0.1270 -0.2473
 5492TIP3    H137967   4.899   4.331   2.800 -0.0610  2.0212 -2.2199
 5492TIP3    H237968   4.978   4.458   2.819  2.0882  0.3518  0.4207
 5493TIP3   OH237969   0.894   3.623   5.398  0.3438  0.0848 -0.1884
 5493TIP3    H137970   0.799   3.624   5.391  0.1391  0.9670  2.1609
 5493TIP3    H237971   0.918   3.716   5.408  1.4772 -0.1079 -1.0164
 5494TIP3   OH237972   5.373   2.954   2.022 -0.3998  0.1830  0.0239
 5494TIP3    H137973   5.442   2.969   1.957  1.0404  2.1947  1.9737
 5494TIP3    H237974   5.410   2.888   2.081 -0.8742 -0.0639  0.0471
 5495TIP3   OH237975   0.586   4.725  10.788 -0.4475  0.5857  0.9197
 5495TIP3    H137976   0.495   4.725  10.757  0.0374 -2.1773 -0.6279
 5495TIP3    H237977   0.633   4.779  10.725 -0.6459  0.3379  0.5592
 5496TIP3   OH237978   1.450   4.102   4.063  0.1985  0.1022  0.2137
 5496TIP3    H137979   1.411   4.187   4.045 -2.2670 -1.2386 -1.1795
 5496TIP3    H237980   1.464   4.063   3.977 -0.1417 -1.4804  0.8548
 5497TIP3   OH237981   0.026   6.090  14.028 -0.2631  0.2513  0.2212
 5497TIP3    H137982   0.103   6.146  14.016  0.0103 -0.1952 -0.1348
 5497TIP3    H237983   0.052   6.027  14.095 -1.6032  2.3941  2.8494
 5498TIP3   OH237984   4.401   4.252  11.619  1.1776  0.5540 -0.3134
 5498TIP3    H137985   4.323   4.196  11.626  2.0050 -1.0106 -2.9678
 5498TIP3    H237986   4.372   4.325  11.565  1.4587  0.1282 -1.0446
 5499TIP3   OH237987   6.611   5.114   1.487  0.0004 -0.3668  0.1420
 5499TIP3    H137988   6.702   5.139   1.506 -0.2452  0.6676  0.0073
 5499TIP3    H237989   6.618   5.053   1.414  0.5819 -0.2789  0.1193
 5500TIP3   OH237990   3.882   4.111   5.988 -0.6004  0.3184  0.2518
 5500TIP3    H137991   3.973   4.119   6.015  0.3430 -1.9175 -2.1348
 5500TIP3    H237992   3.834   4.097   6.070  1.4301 -0.3932  1.3330
 5501TIP3   OH237993   3.426   4.139  14.311  0.0148  0.0302 -0.2731
 5501TIP3    H137994   3.473   4.059  14.338  1.1022  0.7716  0.0784
 5501TIP3    H237995   3.337   4.109  14.293  0.0242 -1.0274  1.2614
 5502TIP3   OH237996   5.812   6.059  13.171  0.2815  0.6157  0.6943
 5502TIP3    H137997   5.901   6.085  13.195  0.1790  0.6815  1.0092
 5502TIP3    H237998   5.817   5.963  13.164  0.3952  0.6260  0.6390
 5503TIP3   OH237999   4.166   1.801  14.427 -0.2698 -0.3086 -0.1899
 5503TIP3    H138000   4.174   1.889  14.464  1.4302 -0.1599 -0.8893
 5503TIP3    H238001   4.221   1.746  14.484  1.4576 -0.2782 -1.7967
 5504TIP3   OH238002   5.223   5.234   0.316  0.5146 -0.2405 -0.1510
 5504TIP3    H138003   5.175   5.174   0.259  0.5183 -1.2423  0.8698
 5504TIP3    H238004   5.293   5.269   0.262 -0.2417 -0.2123 -1.1179
 5505TIP3   OH238005   4.586   4.623   1.043  0.9633 -0.6869  0.1628
 5505TIP3    H138006   4.641   4.564   0.991  2.6817 -0.2455  1.4378
 5505TIP3    H238007   4.607   4.602   1.134  0.7868  1.1412  0.6519
 5506TIP3   OH238008   1.700   6.249   5.474 -0.0745  0.4519  0.5084
 5506TIP3    H138009   1.622   6.194   5.463  0.1478  0.4688 -1.2489
 5506TIP3    H238010   1.746   6.211   5.549 -1.3534 -0.0466  1.0590
 5507TIP3   OH238011   4.780   3.466   3.238  0.4338  0.1098  0.0433
 5507TIP3    H138012   4.847   3.456   3.171  0.9303  0.5001  0.4808
 5507TIP3    H238013   4.749   3.556   3.228 -0.3646 -0.2224 -0.4746
 5508TIP3   OH238014   5.478   4.049   4.744  0.0840  0.0655  0.4725
 5508TIP3    H138015   5.478   4.030   4.838  1.7248  0.5822  0.6030
 5508TIP3    H238016   5.399   4.100   4.728 -0.2719 -0.1549  1.5515
 5509TIP3   OH238017   6.091   0.631  14.838 -0.3961 -0.1835  0.3350
 5509TIP3    H138018   6.090   0.587  14.923  0.8126 -2.1021 -0.5973
 5509TIP3    H238019   6.176   0.609  14.800 -1.8046 -1.3245 -2.3495
 5510TIP3   OH238020   5.069   6.513  15.918 -0.1613 -0.1008 -0.2923
 5510TIP3    H138021   5.145   6.569  15.933 -0.7546  0.4303  0.7518
 5510TIP3    H238022   4.997   6.573  15.900 -0.4427 -0.5906 -0.8537
 5511TIP3   OH238023   2.885   6.687   6.251  0.1755  0.3004  0.1608
 5511TIP3    H138024   2.829   6.745   6.303 -1.0663 -0.3012 -0.4732
 5511TIP3    H238025   2.956   6.663   6.310  1.3355  3.3560  0.0818
 5512TIP3   OH238026   6.440   6.171   2.713 -0.2698  0.6175  0.1249
 5512TIP3    H138027   6.366   6.121   2.747  0.3349 -0.5008 -0.1692
 5512TIP3    H238028   6.497   6.183   2.789 -1.3867  2.6543  0.6513
 5513TIP3   OH238029   4.984   3.032   1.896  0.4553  0.6760 -0.0330
 5513TIP3    H138030   4.916   2.971   1.927  0.1507  0.4636 -1.0738
 5513TIP3    H238031   5.056   3.021   1.957  0.3395 -0.6323 -0.1156
 5514TIP3   OH238032   0.631   6.773   3.524 -0.1313 -0.0836 -0.7018
 5514TIP3    H138033   0.569   6.823   3.471  2.0104  1.3552 -1.9411
 5514TIP3    H238034   0.596   6.778   3.613 -2.2453 -0.0835 -1.5022
 5515TIP3   OH238035   2.608   6.535   5.777  0.1752 -0.3066  0.2699
 5515TIP3    H138036   2.563   6.525   5.693  1.8587 -2.1607 -0.4531
 5515TIP3    H238037   2.671   6.606   5.762  1.5723 -1.6929 -0.5514
 5516TIP3   OH238038   6.665   0.895   5.958 -0.2912  0.4658 -0.0292
 5516TIP3    H138039   6.698   0.914   6.045 -0.1002  0.6101 -0.1342
 5516TIP3    H238040   6.594   0.832   5.973  1.3336 -1.3828  0.0240
 5517TIP3   OH238041   0.562   2.406   1.197  0.3355 -0.6148 -0.3439
 5517TIP3    H138042   0.543   2.379   1.287  0.0141  2.3765  0.5780
 5517TIP3    H238043   0.475   2.424   1.159  0.6315  2.0442  0.1300
 5518TIP3   OH238044   2.141   6.541  13.365 -0.2379  0.2821 -0.2371
 5518TIP3    H138045   2.197   6.617  13.382  2.2734 -1.6173  0.2244
 5518TIP3    H238046   2.055   6.566  13.400  0.9331  2.3047  1.2851
 5519TIP3   OH238047   1.160   2.254   4.225  0.0961  0.0765 -0.2206
 5519TIP3    H138048   1.201   2.295   4.148  0.6315 -1.4126 -0.7504
 5519TIP3    H238049   1.076   2.222   4.193  0.0638 -0.0210 -0.0379
 5520TIP3   OH238050   5.492   4.732   5.014  0.5920  0.2579  0.2915
 5520TIP3    H138051   5.400   4.715   4.994  0.4333  2.0971 -0.7548
 5520TIP3    H238052   5.513   4.673   5.086  0.1567 -4.1636 -2.9892
 5521TIP3   OH238053   6.426   5.125   2.676 -0.0474 -0.2816  0.2432
 5521TIP3    H138054   6.481   5.141   2.752  1.1890  0.9898 -0.8860
 5521TIP3    H238055   6.420   5.210   2.633 -3.5112 -0.2231  0.7229
 5522TIP3   OH238056   6.175   3.019  16.022 -0.0921 -0.1607  0.3905
 5522TIP3    H138057   6.263   2.995  16.051  0.5931  0.2827 -1.3165
 5522TIP3    H238058   6.122   3.013  16.102  1.9926  2.2409  2.0563
 5523TIP3   OH238059   5.193   6.226  11.634  0.5985 -0.2453 -0.5353
 5523TIP3    H138060   5.098   6.224  11.641  0.4239 -0.6854 -2.7697
 5523TIP3    H238061   5.221   6.140  11.664  0.2658 -0.2554 -0.2564
 5524TIP3   OH238062   3.022   5.706   6.472 -0.1335  0.2860 -0.2587
 5524TIP3    H138063   3.094   5.760   6.503  0.2260  0.8334 -1.9728
 5524TIP3    H238064   3.051   5.616   6.485 -0.5210  0.4840  2.1302
 5525TIP3   OH238065   4.776   5.695  14.100 -0.5841 -0.4274 -0.4501
 5525TIP3    H138066   4.856   5.648  14.077 -1.0952 -1.1654 -0.7272
 5525TIP3    H238067   4.804   5.786  14.108  0.5811 -0.8768  0.9154
 5526TIP3   OH238068   5.080   0.343  12.737 -0.1342  0.0846  0.0482
 5526TIP3    H138069   4.990   0.373  12.741  0.1753  0.8297  1.8402
 5526TIP3    H238070   5.129   0.418  12.703  0.0259  0.1804  0.4896
 5527TIP3   OH238071   4.717   0.397   0.610  0.1139  0.0165  0.5800
 5527TIP3    H138072   4.678   0.310   0.625 -0.5939 -0.1155 -1.8744
 5527TIP3    H238073   4.808   0.387   0.639  0.2900 -1.8302 -0.5220
 5528TIP3   OH238074   3.775   1.390   4.493  0.1247 -0.4531  0.0473
 5528TIP3    H138075   3.857   1.415   4.535 -1.4620 -0.2478  3.1159
 5528TIP3    H238076   3.768   1.296   4.509 -1.2647 -0.0913  1.7034
 5529TIP3   OH238077   1.184   0.131  15.818  0.2511 -0.2802 -0.2025
 5529TIP3    H138078   1.172   0.063  15.752  0.0886 -0.2950 -0.1589
 5529TIP3    H238079   1.167   0.087  15.901  1.4308 -0.5004 -0.0806
 5530TIP3   OH238080   2.567   0.166   0.167  0.3418  0.2959  0.1959
 5530TIP3    H138081   2.514   0.198   0.240  1.0620  0.1591  0.7832
 5530TIP3    H238082   2.583   0.244   0.113  0.0271  0.4434  0.3129
 5531TIP3   OH238083   0.383   6.339  15.816  0.4665 -0.0547  0.3619
 5531TIP3    H138084   0.390   6.340  15.720  3.0847 -1.7939  0.4811
 5531TIP3    H238085   0.289   6.341  15.833 -0.0669 -0.7790 -2.2591
 5532TIP3   OH238086   6.302   1.678   1.039 -0.2480  0.2300  0.1069
 5532TIP3    H138087   6.282   1.762   0.998  0.3631  0.5787  0.5122
 5532TIP3    H238088   6.312   1.698   1.132 -2.2438 -0.6542  0.5464
 5533TIP3   OH238089   2.430   4.341  16.543  0.2336  0.2784 -0.1338
 5533TIP3    H138090   2.366   4.400  16.583 -1.0426 -0.5601 -0.9080
 5533TIP3    H238091   2.406   4.254  16.575 -1.1211 -0.4804 -3.0280
 5534TIP3   OH238092   2.120   3.250   0.876  0.1271 -0.8193 -0.1589
 5534TIP3    H138093   2.049   3.203   0.919 -0.8760 -0.2734 -1.1837
 5534TIP3    H238094   2.178   3.181   0.844 -0.7003 -1.3411 -0.5731
 5535TIP3   OH238095   4.714   2.479  14.033 -0.3002 -0.2696  0.3084
 5535TIP3    H138096   4.739   2.405  13.979  0.5338 -0.7494  1.3214
 5535TIP3    H238097   4.790   2.536  14.032 -0.6611  0.2118  0.1389
 5536TIP3   OH238098   0.303   4.641   4.458 -0.1801  0.0174 -0.2408
 5536TIP3    H138099   0.272   4.712   4.514 -0.3364 -0.2385 -0.0068
 5536TIP3    H238100   0.279   4.669   4.369 -0.9197 -0.0914 -0.0803
 5537TIP3   OH238101   0.063   6.551  16.833 -0.1146  0.4015 -0.2990
 5537TIP3    H138102  -0.020   6.520  16.796  0.1120  0.6300 -1.0093
 5537TIP3    H238103   0.125   6.541  16.761  0.9648 -1.8567  0.8907
 5538TIP3   OH238104   5.947   6.439  13.794 -0.2583 -0.3447  0.0087
 5538TIP3    H138105   5.921   6.529  13.813 -1.6882 -1.2900  2.7455
 5538TIP3    H238106   6.029   6.447  13.746 -0.1370  2.3879  0.6126
 5539TIP3   OH238107   0.692   6.709  15.630  0.5050 -0.6188  0.0331
 5539TIP3    H138108   0.607   6.667  15.623  0.3586 -0.3185  0.0338
 5539TIP3    H238109   0.741   6.677  15.554 -0.1529  0.4915 -0.8656
 5540TIP3   OH238110   4.907   5.606   5.541  0.3125  0.4223  0.6799
 5540TIP3    H138111   4.924   5.536   5.604  1.7976  1.0665  1.0329
 5540TIP3    H238112   4.994   5.640   5.519 -0.2250  0.5277 -1.3604
 5541TIP3   OH238113   1.211   1.305  15.502  0.0390 -0.4988 -0.1721
 5541TIP3    H138114   1.176   1.217  15.485 -1.2380  0.1525 -1.0055
 5541TIP3    H238115   1.192   1.320  15.595  0.3128 -1.1195 -0.0088
 5542TIP3   OH238116   3.258   0.387   4.846  0.2641  0.0038  0.1963
 5542TIP3    H138117   3.208   0.450   4.898 -2.7383 -0.9459 -1.3970
 5542TIP3    H238118   3.285   0.437   4.769 -0.7715 -0.2233 -0.3239
 5543TIP3   OH238119   1.553   2.276  11.152 -0.3517  0.2603  0.1010
 5543TIP3    H138120   1.523   2.200  11.102 -0.6611 -0.0193  0.7096
 5543TIP3    H238121   1.642   2.293  11.119  0.3166 -1.3183  1.0422
 5544TIP3   OH238122   3.058   2.054   5.243 -0.1844 -0.0882  0.2975
 5544TIP3    H138123   3.084   2.126   5.301 -1.3099 -0.6485  1.5216
 5544TIP3    H238124   3.138   2.003   5.231  1.0700  2.2985 -1.9899
 5545TIP3   OH238125   2.957   3.538   1.585 -0.2496  0.5591 -0.0016
 5545TIP3    H138126   2.995   3.516   1.670 -1.2014 -2.4255 -0.3139
 5545TIP3    H238127   2.986   3.468   1.526 -3.0815  0.2629 -1.1210
 5546TIP3   OH238128   5.408   1.536  11.172  0.2818 -0.0638 -0.3579
 5546TIP3    H138129   5.350   1.580  11.111  1.5279  1.8897 -0.1604
 5546TIP3    H238130   5.386   1.574  11.257 -0.4037 -1.6996  0.2340
 5547TIP3   OH238131   3.030   5.605  13.133 -0.7780 -0.6343 -0.8641
 5547TIP3    H138132   3.112   5.559  13.112 -1.1791 -1.3186 -0.9533
 5547TIP3    H238133   3.044   5.694  13.101 -0.0081 -0.7034 -0.7358
 5548TIP3   OH238134   0.446   2.381   3.327  0.3249  0.1371 -0.2405
 5548TIP3    H138135   0.477   2.448   3.266 -0.5276  0.8026  0.0483
 5548TIP3    H238136   0.444   2.425   3.412 -1.6597  0.2225 -0.2927
 5549TIP3   OH238137   1.125   5.917  13.400 -0.0875 -0.2312  0.3161
 5549TIP3    H138138   1.214   5.943  13.374  0.6475 -1.3004  1.6646
 5549TIP3    H238139   1.069   5.989  13.371  1.4948  1.4434  1.3196
 5550TIP3   OH238140   1.115   1.651   1.761 -0.0955 -0.0699 -0.2373
 5550TIP3    H138141   1.165   1.620   1.837 -0.6776 -0.1338  0.1272
 5550TIP3    H238142   1.075   1.572   1.725 -1.1488  0.1793  0.3748
 5551TIP3   OH238143   0.956   5.719  15.473 -0.3193 -0.3685  0.0474
 5551TIP3    H138144   0.981   5.652  15.537 -0.3141  0.8630  1.3422
 5551TIP3    H238145   0.898   5.778  15.521  0.7998  1.3578 -0.6850
 5552TIP3   OH238146   0.075   0.759   3.097  0.2559  0.4611 -0.2295
 5552TIP3    H138147   0.126   0.835   3.068  0.4337  0.7679  0.8491
 5552TIP3    H238148   0.141   0.694   3.122  0.1239  0.5624  0.3987
 5553TIP3   OH238149   3.182   5.807  11.314  0.1617 -0.0517 -0.5149
 5553TIP3    H138150   3.128   5.729  11.316 -0.7529  0.5694 -0.7839
 5553TIP3    H238151   3.161   5.849  11.231  0.3989  0.6465 -0.2293
 5554TIP3   OH238152   6.266   3.605  16.879 -0.2932 -0.4353  0.5565
 5554TIP3    H138153   6.294   3.547  16.950  2.2000 -0.8784 -0.7562
 5554TIP3    H238154   6.285   3.557  16.799 -1.6268  0.7068 -0.4753
 5555TIP3   OH238155   3.216   0.241  13.542 -0.0593 -0.2247  0.1873
 5555TIP3    H138156   3.250   0.302  13.607 -0.7029 -0.9556  1.2418
 5555TIP3    H238157   3.249   0.156  13.570  1.3388 -0.3084 -1.6168
 5556TIP3   OH238158   5.829   1.251   5.376 -0.1774 -0.1731 -0.4247
 5556TIP3    H138159   5.760   1.201   5.332 -1.4229  0.9995  0.1745
 5556TIP3    H238160   5.837   1.210   5.462 -0.6362  0.1446 -0.2291
 5557TIP3   OH238161   5.660   5.707  14.406  0.1510 -0.4000 -0.3562
 5557TIP3    H138162   5.594   5.719  14.475 -0.1309  0.3599 -0.7584
 5557TIP3    H238163   5.684   5.614  14.413 -0.8380 -0.6459 -0.0932
 5558TIP3   OH238164   4.965   5.382  12.282  0.0776 -0.7801 -0.1902
 5558TIP3    H138165   4.971   5.477  12.276 -0.9723 -0.5460  1.9665
 5558TIP3    H238166   4.915   5.356  12.204  0.1592  0.4543 -0.6603
 5559TIP3   OH238167   2.270   2.300  13.494  0.5699 -0.5727 -0.0466
 5559TIP3    H138168   2.344   2.283  13.553  1.3748  0.2238 -0.7989
 5559TIP3    H238169   2.196   2.255  13.534  1.0419  0.1729  1.7282
 5560TIP3   OH238170   1.520   0.774  11.646 -0.6373 -0.6920  0.2542
 5560TIP3    H138171   1.474   0.806  11.724 -0.7231 -1.9676  0.7396
 5560TIP3    H238172   1.602   0.824  11.646 -1.3398  0.4926  0.2404
 5561TIP3   OH238173   5.056   4.852   3.787  0.0278  0.7350  0.2944
 5561TIP3    H138174   5.138   4.803   3.787  0.4353  1.4026 -0.5114
 5561TIP3    H238175   5.023   4.845   3.876 -1.4168 -3.5212 -0.4320
 5562TIP3   OH238176   3.431   3.653  14.135  0.3810  0.6037 -0.4267
 5562TIP3    H138177   3.447   3.562  14.108 -1.8573  0.1177 -0.2273
 5562TIP3    H238178   3.491   3.668  14.207 -1.3708 -1.7591  1.5896
 5563TIP3   OH238179   0.143   4.317   3.675  0.1034 -0.1149  0.4287
 5563TIP3    H138180   0.111   4.343   3.588  0.4612  0.0147  0.3346
 5563TIP3    H238181   0.088   4.365   3.736 -1.4028 -1.6399  0.3071
 5564TIP3   OH238182   4.334   5.682   3.154  0.0462  0.3994 -0.0550
 5564TIP3    H138183   4.385   5.601   3.149  1.1832  1.1233 -0.3586
 5564TIP3    H238184   4.370   5.729   3.230 -0.0963  0.9583 -0.3261
 5565TIP3   OH238185   2.693   3.237  13.463 -0.1161 -0.4030 -0.1402
 5565TIP3    H138186   2.648   3.271  13.540  0.1801  0.8884 -0.5261
 5565TIP3    H238187   2.770   3.193  13.498 -0.8396 -1.2627  0.4095
 5566TIP3   OH238188   0.457   2.443  15.421  0.0569 -0.0351 -0.5236
 5566TIP3    H138189   0.430   2.512  15.481  0.3055  0.3708 -0.8801
 5566TIP3    H238190   0.466   2.365  15.476  1.7066  0.6630  0.2125
 5567TIP3   OH238191   1.444   2.871   0.337  0.3940 -0.0308 -0.3173
 5567TIP3    H138192   1.384   2.848   0.408 -0.0445 -0.7047 -0.8986
 5567TIP3    H238193   1.513   2.922   0.379  0.3348 -0.7475  0.6560
 5568TIP3   OH238194   1.659   2.368  12.714 -0.2704  0.1863  0.4739
 5568TIP3    H138195   1.581   2.314  12.699  0.8912 -1.0099 -1.4950
 5568TIP3    H238196   1.691   2.340  12.800  0.0981 -2.0450 -0.3480
 5569TIP3   OH238197   2.545   0.008   0.537  0.1123 -0.5663 -0.1561
 5569TIP3    H138198   2.580  -0.011   0.451  1.7366  1.4754  0.0251
 5569TIP3    H238199   2.470   0.065   0.521  0.0685 -0.6457 -0.2343
 5570TIP3   OH238200   0.598   1.197   1.811  0.0092 -0.0851  0.0275
 5570TIP3    H138201   0.680   1.243   1.830 -0.2109  0.1200  0.4711
 5570TIP3    H238202   0.530   1.250   1.852 -0.1177 -1.4482  1.6182
 5571TIP3   OH238203   1.134   6.609   3.948  0.2240  0.2119  0.3921
 5571TIP3    H138204   1.140   6.671   3.875 -0.8968  0.0383  0.1481
 5571TIP3    H238205   1.170   6.527   3.914  1.8352  0.7453  0.7557
 5572TIP3   OH238206   5.768   5.243  16.915  0.5447  0.8142 -0.2812
 5572TIP3    H138207   5.793   5.162  16.870  0.3974 -0.3503  1.6931
 5572TIP3    H238208   5.676   5.231  16.936  0.4986  1.5438 -0.0816
 5573TIP3   OH238209   3.229   4.040  12.461  0.0556  0.6690 -0.1499
 5573TIP3    H138210   3.272   3.978  12.520  0.7158  2.2829  1.0915
 5573TIP3    H238211   3.298   4.065  12.399 -0.9351 -1.9040 -2.3848
 5574TIP3   OH238212   6.149   3.872  14.213  0.3067 -0.2569 -0.1890
 5574TIP3    H138213   6.129   3.894  14.304  1.1761 -1.4319  0.3014
 5574TIP3    H238214   6.117   3.946  14.162 -1.7508 -0.3647  0.9109
 5575TIP3   OH238215   1.528   2.974   1.055  0.0293 -0.1398 -0.1548
 5575TIP3    H138216   1.589   2.989   0.984  0.0697  0.2645 -0.0361
 5575TIP3    H238217   1.513   2.879   1.055 -0.9985  0.0079 -1.5463
 5576TIP3   OH238218   1.688   5.251  13.514  0.0309 -0.6244 -0.0941
 5576TIP3    H138219   1.665   5.160  13.497 -1.2612 -0.3969  0.3771
 5576TIP3    H238220   1.737   5.250  13.596  0.7854 -0.9865 -0.5430
 5577TIP3   OH238221   0.670   4.488  15.385 -0.7078 -0.1589 -0.0150
 5577TIP3    H138222   0.634   4.412  15.340 -0.5377  0.2043 -0.7827
 5577TIP3    H238223   0.663   4.559  15.321 -1.1956  0.5538  0.8113
 5578TIP3   OH238224   4.125   3.317   4.144  0.5879 -0.4199  0.0249
 5578TIP3    H138225   4.042   3.279   4.115 -0.2545  1.7372 -0.4408
 5578TIP3    H238226   4.150   3.377   4.074  1.1251  1.0397  1.4428
 5579TIP3   OH238227   2.223   6.164   3.485 -0.1070  0.2724  0.1363
 5579TIP3    H138228   2.242   6.117   3.566  1.4120 -2.1425 -1.5705
 5579TIP3    H238229   2.127   6.163   3.480 -0.1667 -1.0985  1.0498
 5580TIP3   OH238230   4.120   5.648   5.905  0.5155  0.5917 -0.3527
 5580TIP3    H138231   4.150   5.626   5.993  0.4033 -0.6130 -0.5975
 5580TIP3    H238232   4.200   5.651   5.853  0.4627 -0.0092 -0.4732
 5581TIP3   OH238233   0.694   1.752  15.742  0.3968 -0.4687  0.2343
 5581TIP3    H138234   0.788   1.766  15.746  0.6573 -2.3644  1.2953
 5581TIP3    H238235   0.672   1.757  15.649  1.3901  0.7746  0.0531
 5582TIP3   OH238236   4.535   1.955   3.273 -0.2322  0.0397  0.0288
 5582TIP3    H138237   4.571   1.931   3.188  2.6244  0.8864  0.9328
 5582TIP3    H238238   4.586   1.903   3.336  0.6167  2.5340  1.4689
 5583TIP3   OH238239   5.735   3.762  11.067 -0.2873 -0.4671  0.5431
 5583TIP3    H138240   5.814   3.802  11.104 -0.4415 -0.2038  0.5912
 5583TIP3    H238241   5.768   3.692  11.011  0.0288  0.2112 -0.1293
 5584TIP3   OH238242   1.203   0.261   3.680  0.4518  0.6548  0.0043
 5584TIP3    H138243   1.252   0.265   3.762  1.2678 -0.1430 -0.4372
 5584TIP3    H238244   1.169   0.171   3.677 -0.4034  0.9795 -0.0522
 5585TIP3   OH238245   4.309   4.551  13.329  0.1699  0.1679  0.2694
 5585TIP3    H138246   4.223   4.533  13.290  1.3223 -2.0342 -1.3270
 5585TIP3    H238247   4.292   4.553  13.423 -1.5760 -0.5895 -0.0063
 5586TIP3   OH238248   6.304   0.651   2.056  0.2652 -0.3080 -0.3300
 5586TIP3    H138249   6.278   0.739   2.082 -1.5027 -0.8988 -0.0590
 5586TIP3    H238250   6.297   0.651   1.961  1.8851  0.3222 -0.4784
 5587TIP3   OH238251   1.415   0.541  16.751 -0.4414  0.3733 -0.0585
 5587TIP3    H138252   1.328   0.543  16.710 -0.2398  0.5752 -0.4775
 5587TIP3    H238253   1.418   0.619  16.806 -0.0127  1.0880 -1.0943
 5588TIP3   OH238254   3.850   2.081  11.606  0.1321 -0.0047  0.2796
 5588TIP3    H138255   3.940   2.108  11.586 -0.1107 -0.0326 -0.9064
 5588TIP3    H238256   3.837   2.002  11.555 -0.1941 -0.6396  1.3405
 5589TIP3   OH238257   1.282   5.248   5.884  0.5242  0.7432  0.3377
 5589TIP3    H138258   1.205   5.304   5.876 -0.2037 -0.5236 -1.8286
 5589TIP3    H238259   1.255   5.177   5.943  0.4318  0.9558  0.5497
 5590TIP3   OH238260   0.318   2.221  13.330  0.1973  0.1016 -0.4686
 5590TIP3    H138261   0.373   2.272  13.272  1.9011 -0.3835  0.6817
 5590TIP3    H238262   0.350   2.131  13.322  1.1296  0.1675  1.9152
 5591TIP3   OH238263   1.689   2.864   3.446  0.0071 -0.2412 -0.0484
 5591TIP3    H138264   1.781   2.839   3.435 -0.0381 -0.6176  0.3773
 5591TIP3    H238265   1.685   2.956   3.423  0.4704 -0.2576 -0.1893
 5592TIP3   OH238266   5.773   1.605  16.893  0.1041  0.0639  0.0845
 5592TIP3    H138267   5.835   1.588  16.964  1.7022 -0.1199 -1.3265
 5592TIP3    H238268   5.758   1.700  16.897 -0.3668 -0.0443  1.0946
 5593TIP3   OH238269   6.140   1.835  12.242 -0.5063  0.4945  0.0882
 5593TIP3    H138270   6.081   1.777  12.194  1.3763 -1.1156 -0.3498
 5593TIP3    H238271   6.124   1.814  12.334  0.1121 -0.7080 -0.0618
 5594TIP3   OH238272   1.171   0.863   2.292 -0.2527  0.0840 -0.3360
 5594TIP3    H138273   1.102   0.863   2.226 -0.7115 -2.1560  0.1171
 5594TIP3    H238274   1.124   0.869   2.375  0.2573  1.5844 -0.1451
 5595TIP3   OH238275   1.055   5.296  14.981  0.1667  0.3848  0.1089
 5595TIP3    H138276   1.062   5.378  14.933 -0.9739  0.6556  0.3934
 5595TIP3    H238277   0.972   5.302  15.028  0.1603 -0.8530  0.2790
 5596TIP3   OH238278   6.148   2.604  15.722  0.7518 -0.2360 -0.3581
 5596TIP3    H138279   6.143   2.577  15.630 -0.7600 -0.8227 -0.1104
 5596TIP3    H238280   6.110   2.531  15.770  0.7965  0.4189  0.6844
 5597TIP3   OH238281   0.818   2.712  12.579  0.1552  0.2267 -0.9708
 5597TIP3    H138282   0.796   2.707  12.486 -1.0295  0.0725 -0.6945
 5597TIP3    H238283   0.879   2.639  12.593 -0.5675 -0.4771 -1.3908
 5598TIP3   OH238284   2.779   4.003  12.277  0.0474 -0.4421  0.6022
 5598TIP3    H138285   2.819   4.007  12.191  0.6097  2.0905  0.9537
 5598TIP3    H238286   2.719   3.928  12.272 -0.6008  0.2037 -2.2611
 5599TIP3   OH238287   5.932   2.763   3.097 -0.4521 -0.0402  0.1922
 5599TIP3    H138288   6.017   2.729   3.123 -1.3738 -1.4236  1.4853
 5599TIP3    H238289   5.903   2.704   3.027 -0.4608  0.2469 -0.0433
 5600TIP3   OH238290   4.508   3.459   9.962 -0.6084  0.0819  0.8376
 5600TIP3    H138291   4.508   3.521   9.890 -0.4687 -0.9920 -0.1021
 5600TIP3    H238292   4.591   3.475  10.008 -0.1603 -0.0069  0.0683
 5601TIP3   OH238293   0.401   2.161  13.618 -0.4080 -0.0234 -0.2529
 5601TIP3    H138294   0.334   2.093  13.609 -1.2228  0.7847 -0.3768
 5601TIP3    H238295   0.402   2.205  13.533  1.1717 -0.8308 -0.6648
 5602TIP3   OH238296   4.135   1.451  10.662  0.0640  0.5020  0.0398
 5602TIP3    H138297   4.064   1.487  10.714  0.3983 -1.9665  2.2880
 5602TIP3    H238298   4.215   1.485  10.703  0.2918  1.5831 -1.2211
 5603TIP3   OH238299   2.225   1.202  14.364 -0.0521 -0.6741  0.5124
 5603TIP3    H138300   2.129   1.206  14.356  0.0240  0.4002 -0.0187
 5603TIP3    H238301   2.254   1.158  14.284 -0.1967 -2.4117  1.4000
 5604TIP3   OH238302   3.159   3.569  14.427  0.2063 -0.5193 -0.4128
 5604TIP3    H138303   3.121   3.484  14.448 -1.9413  0.3851 -0.4542
 5604TIP3    H238304   3.191   3.603  14.510 -1.3417 -0.2429  0.0907
 5605TIP3   OH238305   0.459   6.572   2.158  0.3848  0.1865 -0.0524
 5605TIP3    H138306   0.530   6.559   2.221  0.6928 -1.5382 -0.7354
 5605TIP3    H238307   0.446   6.487   2.118 -0.1452  1.1418 -1.9811
 5606TIP3   OH238308   0.259   4.128  15.051 -0.4480  0.5507 -0.0733
 5606TIP3    H138309   0.354   4.138  15.056 -0.3765 -0.0911 -0.0467
 5606TIP3    H238310   0.229   4.205  15.002  0.2306  0.0733 -1.2637
 5607TIP3   OH238311   2.962   2.734  13.264 -0.3336  0.2849  0.6154
 5607TIP3    H138312   3.001   2.807  13.215 -0.4184  0.2014  0.4267
 5607TIP3    H238313   2.872   2.761  13.280 -0.4257  0.1292  0.3611
 5608TIP3   OH238314   4.139   2.131   1.023 -0.5633  0.2009  0.0150
 5608TIP3    H138315   4.166   2.042   1.045 -1.6334 -0.0838  0.2333
 5608TIP3    H238316   4.209   2.165   0.968  0.3892 -0.3784  0.8520
 5609TIP3   OH238317   3.789   4.254   3.847 -0.6116 -0.1686  0.0003
 5609TIP3    H138318   3.820   4.204   3.771  1.4834  1.1018 -0.0128
 5609TIP3    H238319   3.729   4.318   3.810 -0.3558 -0.1953 -0.4696
 5610TIP3   OH238320   6.426   5.942   3.625 -0.8101  0.2035  0.0958
 5610TIP3    H138321   6.447   6.033   3.606 -1.3818  0.1623 -0.7740
 5610TIP3    H238322   6.511   5.898   3.629 -0.5653  0.6703 -0.0407
 5611TIP3   OH238323   3.325   6.516   2.961  0.2034 -0.0839  0.3220
 5611TIP3    H138324   3.284   6.582   3.017 -1.0421  0.9161 -1.7150
 5611TIP3    H238325   3.252   6.477   2.913  1.3890  0.1978 -1.7572
 5612TIP3   OH238326   4.101   5.321   5.609  0.5637  0.2390 -0.1109
 5612TIP3    H138327   4.031   5.270   5.570  0.8765 -0.2157 -0.0796
 5612TIP3    H238328   4.176   5.307   5.551  0.7715  0.3125  0.1404
 5613TIP3   OH238329   1.309   1.742  11.552  0.1012 -0.0539  0.3609
 5613TIP3    H138330   1.324   1.684  11.477  2.5806  1.4982 -0.3818
 5613TIP3    H238331   1.214   1.739  11.564  0.0102 -3.0861 -0.5807
 5614TIP3   OH238332   4.816   2.131  16.201  0.0486  0.1294  0.1847
 5614TIP3    H138333   4.886   2.146  16.137  0.4851  0.0080  0.6295
 5614TIP3    H238334   4.791   2.040  16.187 -0.8990  0.5458 -0.8383
 5615TIP3   OH238335   0.294   4.680  15.607 -0.5892  0.3051 -0.5948
 5615TIP3    H138336   0.242   4.609  15.570  0.0988 -0.1643 -0.6765
 5615TIP3    H238337   0.383   4.644  15.613 -0.7156  0.2609  1.7139
 5616TIP3   OH238338   5.354   2.444   2.358  0.0914 -0.4157  0.1432
 5616TIP3    H138339   5.435   2.491   2.339  0.5343 -1.4357 -0.5221
 5616TIP3    H238340   5.369   2.402   2.442 -0.1505  0.2655  0.5359
 5617TIP3   OH238341   0.489   2.534   3.103 -0.3826 -0.8398 -0.4725
 5617TIP3    H138342   0.515   2.468   3.039  0.9320  0.4408 -1.2667
 5617TIP3    H238343   0.429   2.592   3.056  0.6881  0.1796 -0.6072
 5618TIP3   OH238344   3.379   0.666  10.987 -0.6612  0.1769  0.4247
 5618TIP3    H138345   3.327   0.722  10.930  0.0623 -0.5782 -1.0062
 5618TIP3    H238346   3.373   0.579  10.948 -0.8606 -0.5317  1.9926
 5619TIP3   OH238347   4.737   1.098  12.965  0.2623 -0.4989  0.0145
 5619TIP3    H138348   4.658   1.151  12.951 -0.6418 -2.0298 -0.8415
 5619TIP3    H238349   4.729   1.066  13.055  0.4211  0.1847  0.2710
 5620TIP3   OH238350   4.381   4.902  11.670 -0.2490 -0.4521 -0.0544
 5620TIP3    H138351   4.375   4.906  11.574 -0.7177  0.0434 -0.0085
 5620TIP3    H238352   4.414   4.814  11.688 -2.9563 -1.6231 -0.5676
 5621TIP3   OH238353   4.708   2.950  10.987 -0.1459  0.1646  0.5684
 5621TIP3    H138354   4.775   2.908  11.041  1.1329  2.3187  0.6905
 5621TIP3    H238355   4.735   2.929  10.897 -0.2515 -0.3717  0.6586
 5622TIP3   OH238356   2.812   6.786  15.420 -0.2690  0.1980 -0.2665
 5622TIP3    H138357   2.763   6.817  15.344  0.9786  0.8016 -0.8342
 5622TIP3    H238358   2.745   6.776  15.489 -1.6541 -1.9041 -1.8783
 5623TIP3   OH238359   1.687   5.349  15.450 -0.6443  0.0283 -0.2876
 5623TIP3    H138360   1.667   5.411  15.520  1.3157  1.2325 -0.7855
 5623TIP3    H238361   1.660   5.393  15.370  2.1845  0.9193 -0.7902
 5624TIP3   OH238362   4.276   0.057  13.397 -0.2635  0.5490  0.1883
 5624TIP3    H138363   4.362   0.046  13.439 -1.1567  1.5627  2.3429
 5624TIP3    H238364   4.255  -0.030  13.364  1.8699  0.4147 -0.9352
 5625TIP3   OH238365   6.465   4.054   1.130  0.4508  0.1317 -0.4626
 5625TIP3    H138366   6.548   4.012   1.110  1.3142  0.9549  1.3112
 5625TIP3    H238367   6.466   4.135   1.078  1.8212  1.3018  1.3231
 5626TIP3   OH238368   2.420   1.990  12.656 -0.2476 -0.2219 -0.2631
 5626TIP3    H138369   2.383   2.042  12.585 -2.3180  2.7930  2.8635
 5626TIP3    H238370   2.362   1.914  12.664 -0.0213 -0.5612 -1.6898
 5627TIP3   OH238371   5.853   0.496  12.269 -0.4407  0.5830  0.0764
 5627TIP3    H138372   5.938   0.456  12.251 -1.4922 -1.6024 -0.0756
 5627TIP3    H238373   5.841   0.485  12.363 -0.2915  1.4858  0.2143
 5628TIP3   OH238374   2.830   2.147  15.298  0.3948  0.2758  0.3331
 5628TIP3    H138375   2.878   2.198  15.363  0.6261 -1.0383  1.2276
 5628TIP3    H238376   2.760   2.205  15.269  0.9141  1.2478  1.0030
 5629TIP3   OH238377   1.357   3.929  11.726 -0.0196  0.0608 -0.1780
 5629TIP3    H138378   1.419   3.956  11.793 -0.4387  0.9053 -0.1258
 5629TIP3    H238379   1.271   3.936  11.768 -0.6236  4.1404 -1.8737
 5630TIP3   OH238380   0.105   2.226  13.018  0.5032  0.5191  0.2631
 5630TIP3    H138381   0.139   2.312  12.993  2.0725  0.1149  0.8917
 5630TIP3    H238382   0.184   2.176  13.041 -0.5707 -0.2556  2.4215
 5631TIP3   OH238383   1.409   4.985  15.519  0.1610  0.3485  0.5178
 5631TIP3    H138384   1.326   5.016  15.555  0.3048 -2.5704  3.5846
 5631TIP3    H238385   1.473   5.002  15.589  1.4257 -0.8966 -0.3130
 5632TIP3   OH238386   4.498   3.069   5.577  0.5826 -0.7428  0.7021
 5632TIP3    H138387   4.409   3.058   5.610  0.6198  0.6611  1.3255
 5632TIP3    H238388   4.488   3.119   5.496  0.7111 -1.7326  0.0666
 5633TIP3   OH238389   6.767   0.754  11.677 -0.2395  0.3483  0.5447
 5633TIP3    H138390   6.767   0.845  11.648 -1.4903  0.6636  1.4519
 5633TIP3    H238391   6.857   0.738  11.706  0.9527  0.1213 -3.0469
 5634TIP3   OH238392   3.247   2.626  13.006  0.2235 -0.0731  0.0940
 5634TIP3    H138393   3.338   2.642  13.030 -0.1317 -0.1280  1.4874
 5634TIP3    H238394   3.198   2.629  13.088 -0.9719 -0.5109 -0.5726
 5635TIP3   OH238395   4.369   4.226   2.999 -0.1844 -0.2228 -0.0596
 5635TIP3    H138396   4.327   4.228   2.913  0.6490 -0.0405 -0.4597
 5635TIP3    H238397   4.435   4.158   2.992  0.6544  0.5719  0.0815
 5636TIP3   OH238398   5.142   5.529  17.219  0.1388 -1.0385 -0.4007
 5636TIP3    H138399   5.137   5.461  17.151 -1.5725 -0.9142 -0.4228
 5636TIP3    H238400   5.135   5.611  17.171 -3.6480 -0.9973  0.0747
 5637TIP3   OH238401   3.281   4.731   2.718 -0.1025  0.4952  0.1414
 5637TIP3    H138402   3.321   4.727   2.805 -0.8786 -1.4321  0.4402
 5637TIP3    H238403   3.238   4.646   2.708 -1.1771  1.2182 -1.5733
 5638TIP3   OH238404   4.332   6.000  12.990 -0.3109  0.8634 -0.0567
 5638TIP3    H138405   4.288   5.993  13.075 -0.8176 -0.1475 -0.3877
 5638TIP3    H238406   4.263   6.026  12.929 -0.4282 -0.4656 -0.5269
 5639TIP3   OH238407   2.855   0.592  15.054 -0.5290 -0.0942 -0.0304
 5639TIP3    H138408   2.926   0.632  15.105 -0.4648 -0.6377  0.3232
 5639TIP3    H238409   2.842   0.506  15.096 -1.5124  0.0707  0.0075
 5640TIP3   OH238410   1.376   4.591   0.996 -0.3334  0.5668 -0.0668
 5640TIP3    H138411   1.295   4.553   1.031 -0.2995 -0.9407 -1.6274
 5640TIP3    H238412   1.348   4.639   0.918  0.4665 -1.0401 -1.3481
 5641TIP3   OH238413   2.566   4.899   6.189 -0.6820  0.5423 -0.3780
 5641TIP3    H138414   2.579   4.898   6.094 -0.3330  0.5792 -0.3314
 5641TIP3    H238415   2.471   4.898   6.200 -0.7168 -0.5964 -0.7153
 5642TIP3   OH238416   5.173   0.126   0.718 -0.8198 -0.4597  0.5041
 5642TIP3    H138417   5.268   0.135   0.725 -0.9520  0.1743  1.5883
 5642TIP3    H238418   5.159   0.041   0.676  0.2724  0.3640 -1.5803
 5643TIP3   OH238419   3.928   2.684   3.645 -0.1535 -0.3792 -0.3200
 5643TIP3    H138420   3.859   2.617   3.650 -0.5523  0.0618  0.1189
 5643TIP3    H238421   3.926   2.712   3.553 -1.4338  0.5423 -0.0189
 5644TIP3   OH238422   3.430   1.598  15.887  0.3219 -0.4039  0.0841
 5644TIP3    H138423   3.404   1.651  15.962 -0.7734 -0.6513 -0.1240
 5644TIP3    H238424   3.415   1.653  15.811 -0.5025 -0.8939 -0.1071
 5645TIP3   OH238425   3.287   0.381  13.757  0.6534 -0.1332  0.3071
 5645TIP3    H138426   3.234   0.388  13.837 -0.3744  1.1944 -0.4518
 5645TIP3    H238427   3.312   0.472  13.738  0.9553 -0.4571 -0.8397
 5646TIP3   OH238428   3.956   5.257   3.780 -0.2412 -0.7004 -0.1494
 5646TIP3    H138429   3.869   5.267   3.819  0.3037  2.7345  0.2996
 5646TIP3    H238430   3.972   5.339   3.735  2.8823 -1.1927 -0.0669
 5647TIP3   OH238431   2.887   1.625   0.574 -0.3670  0.0441 -0.0185
 5647TIP3    H138432   2.891   1.708   0.528 -1.8828 -0.0479 -0.3296
 5647TIP3    H238433   2.910   1.560   0.507 -0.7433  0.0664 -0.1662
 5648TIP3   OH238434   5.841   6.741  12.263  0.0483  0.3006  0.6993
 5648TIP3    H138435   5.921   6.726  12.212  0.0847 -0.5405  0.9906
 5648TIP3    H238436   5.785   6.666  12.241 -1.0955  1.4411 -0.3458
 5649TIP3   OH238437   5.686   3.219  12.535 -0.2261  0.1157  0.0854
 5649TIP3    H138438   5.613   3.176  12.492 -0.0363  0.3656 -0.4851
 5649TIP3    H238439   5.647   3.291  12.584 -0.2012  1.1810 -1.4322
 5650TIP3   OH238440   5.100   2.733   5.416  0.3643  0.5197 -0.4254
 5650TIP3    H138441   5.075   2.660   5.472  0.4268  1.2120  0.5055
 5650TIP3    H238442   5.017   2.770   5.386  0.3043 -1.3939 -2.8622
 5651TIP3   OH238443   0.055   3.052  15.676  0.1145  0.2713  0.2795
 5651TIP3    H138444   0.076   3.145  15.666  0.2043  0.2346  0.1169
 5651TIP3    H238445  -0.018   3.038  15.616  0.5270  0.0929 -0.1938
 5652TIP3   OH238446   6.432   2.492   4.180 -0.3334 -0.0933  0.0125
 5652TIP3    H138447   6.368   2.422   4.167  0.4469 -0.7405 -0.3932
 5652TIP3    H238448   6.443   2.498   4.275  0.4333 -1.2999  0.0137
 5653TIP3   OH238449   3.567   1.837  11.948  0.1599  0.0358 -0.0316
 5653TIP3    H138450   3.483   1.803  11.916 -0.0447  1.3218 -0.9183
 5653TIP3    H238451   3.620   1.759  11.964 -1.3928 -0.8209  1.1065
 5654TIP3   OH238452   3.943   6.624   2.125 -0.0524 -0.5370  0.6415
 5654TIP3    H138453   3.874   6.670   2.076 -1.2877 -2.5855  0.4181
 5654TIP3    H238454   4.019   6.626   2.066 -0.9643 -1.3220 -0.5654
 5655TIP3   OH238455   3.141   1.487   0.822 -0.3203  0.4412  0.6649
 5655TIP3    H138456   3.137   1.419   0.889 -1.0203 -0.1358  0.0378
 5655TIP3    H238457   3.119   1.443   0.740 -0.0675  1.2681  0.1390
 5656TIP3   OH238458   2.785   2.271   4.665 -0.2667  0.1782 -0.0289
 5656TIP3    H138459   2.815   2.191   4.707  0.8693  0.2896 -0.6240
 5656TIP3    H238460   2.776   2.334   4.737  0.0783 -0.1136  0.2697
 5657TIP3   OH238461   5.651   2.543   2.341  0.1806  0.6902  0.4319
 5657TIP3    H138462   5.632   2.635   2.320  0.5308  0.7266  0.2776
 5657TIP3    H238463   5.744   2.532   2.321  0.2959  0.4751  1.0698
 5658TIP3   OH238464   0.618   6.481  12.479 -0.0389  0.2768 -0.9725
 5658TIP3    H138465   0.560   6.554  12.500 -0.7326 -0.4880 -0.1781
 5658TIP3    H238466   0.573   6.435  12.408 -1.5880 -1.6579  1.2045
 5659TIP3   OH238467   0.505   1.565   2.365  0.1802 -0.1657 -0.2542
 5659TIP3    H138468   0.434   1.624   2.393 -0.3278 -1.3860  1.0881
 5659TIP3    H238469   0.497   1.489   2.423 -0.1554 -2.2740 -2.9643
 5660TIP3   OH238470   6.085   3.559  14.646 -0.1125 -0.3033 -0.2485
 5660TIP3    H138471   6.012   3.571  14.707 -0.7531 -0.8883 -0.8881
 5660TIP3    H238472   6.044   3.524  14.566  0.6120  1.1901 -1.2944
 5661TIP3   OH238473   3.094   5.224  17.210  0.3797  0.8417 -0.1639
 5661TIP3    H138474   3.146   5.203  17.287  0.1108  1.2518  0.1298
 5661TIP3    H238475   3.134   5.304  17.175  0.0072  1.1052  0.0103
 5662TIP3   OH238476   2.120   5.074   5.532 -0.0844 -0.4298  0.0219
 5662TIP3    H138477   2.153   5.031   5.453 -3.3219 -3.5407  0.2124
 5662TIP3    H238478   2.122   5.005   5.599 -0.9735  1.0734  1.6252
 5663TIP3   OH238479   3.735   6.234   4.861  0.9306 -0.4033  0.1367
 5663TIP3    H138480   3.717   6.179   4.784 -1.4633 -0.3314  0.6071
 5663TIP3    H238481   3.703   6.183   4.935 -0.7659  1.3628  0.6418
 5664TIP3   OH238482   5.812   0.521  13.010  0.2241 -0.3914  0.4755
 5664TIP3    H138483   5.879   0.523  13.079  1.6238 -1.2150 -0.8035
 5664TIP3    H238484   5.820   0.433  12.972  2.2558  1.2866 -3.3204
 5665TIP3   OH238485   6.799   6.719   6.295  0.3850 -0.0472 -0.2597
 5665TIP3    H138486   6.794   6.803   6.342 -1.3685 -0.1728 -0.2114
 5665TIP3    H238487   6.801   6.653   6.365  0.9685 -0.0953 -0.3158
 5666TIP3   OH238488   1.388   0.761   3.625  0.1781 -0.1328 -0.0841
 5666TIP3    H138489   1.386   0.770   3.530 -0.5057 -3.3526 -0.4302
 5666TIP3    H238490   1.309   0.806   3.655  1.6000  2.9847 -0.7507
 5667TIP3   OH238491   1.698   6.475  12.455 -0.3750  0.4667  0.4928
 5667TIP3    H138492   1.702   6.532  12.378  0.4172 -0.2880 -0.0262
 5667TIP3    H238493   1.606   6.450  12.462 -0.2246 -0.5193 -0.9812
 5668TIP3   OH238494   3.651   2.861  17.217  0.1312  0.7170 -0.4364
 5668TIP3    H138495   3.648   2.765  17.212  0.3416  0.5325  2.4904
 5668TIP3    H238496   3.744   2.882  17.209  0.4721  0.4195  2.2819
 5669TIP3   OH238497   4.174   4.922  12.555  0.2076  0.1088 -0.0114
 5669TIP3    H138498   4.134   4.931  12.468  2.4910  1.3668 -0.9755
 5669TIP3    H238499   4.189   5.012  12.584 -0.0928 -0.3186  1.4773
 5670TIP3   OH238500   0.282   2.808  17.238  0.0743 -0.1890 -0.2842
 5670TIP3    H138501   0.201   2.807  17.289 -0.1401 -0.7426 -0.6246
 5670TIP3    H238502   0.332   2.881  17.274 -1.3690  1.3386 -1.3085
 5671TIP3   OH238503   0.644   3.454   3.058 -0.1653  0.1140 -0.3506
 5671TIP3    H138504   0.550   3.435   3.052 -0.3150  0.9573 -0.7304
 5671TIP3    H238505   0.654   3.539   3.015  0.7256  0.1743 -0.0284
 5672TIP3   OH238506   2.881   0.019   0.688 -0.6370 -0.2019 -0.1736
 5672TIP3    H138507   2.812  -0.037   0.723 -1.0427  1.0454  1.0653
 5672TIP3    H238508   2.962  -0.016   0.727 -0.8861  0.0335  0.5747
 5673TIP3   OH238509   4.218   3.438  10.650 -0.2948  0.2308 -0.0621
 5673TIP3    H138510   4.124   3.444  10.632 -0.3369 -2.0770 -0.6886
 5673TIP3    H238511   4.258   3.427  10.563  0.2370 -2.2580  0.4679
 5674TIP3   OH238512   1.229   1.862  17.032  0.2785 -0.5660 -0.4048
 5674TIP3    H138513   1.297   1.871  17.099 -0.5657 -0.1202  0.3954
 5674TIP3    H238514   1.154   1.910  17.067 -0.6975 -1.6680 -0.9515
 5675TIP3   OH238515   1.358   6.287  11.562  0.0521 -0.1906 -0.2536
 5675TIP3    H138516   1.447   6.316  11.540 -0.4290  1.5368  0.0303
 5675TIP3    H238517   1.322   6.255  11.479  0.6788 -0.1741 -0.5330
 5676TIP3   OH238518   1.110   6.382   0.249 -0.5557  0.3184 -0.1941
 5676TIP3    H138519   1.094   6.421   0.163 -3.4509 -0.6489 -0.1632
 5676TIP3    H238520   1.042   6.419   0.306  1.0365  0.5922  1.5736
 5677TIP3   OH238521   3.664   2.852   6.290 -0.0388 -0.1313 -0.3255
 5677TIP3    H138522   3.740   2.816   6.335  1.5301  2.7768 -0.5472
 5677TIP3    H238523   3.589   2.824   6.343  1.3724 -1.0033  1.2436
 5678TIP3   OH238524   0.736   5.494  14.835  0.3219 -0.0943  0.4214
 5678TIP3    H138525   0.755   5.583  14.867  0.4514  0.3764 -0.9332
 5678TIP3    H238526   0.722   5.443  14.915 -1.7215  1.5800  1.1843
 5679TIP3   OH238527   5.195   2.822   3.430  0.0320  0.0953 -0.3491
 5679TIP3    H138528   5.226   2.875   3.358 -1.3837  2.1077  0.4526
 5679TIP3    H238529   5.135   2.880   3.478 -0.8670 -1.9395  1.0733
 5680TIP3   OH238530   4.051   6.018   6.394  0.2043  0.3221 -0.3272
 5680TIP3    H138531   4.121   6.083   6.390 -0.8949  1.5354 -0.4162
 5680TIP3    H238532   4.083   5.952   6.455  2.1743 -0.0598 -1.7126
 5681TIP3   OH238533   2.723   2.292   1.499  0.0729 -0.2144  0.0482
 5681TIP3    H138534   2.755   2.286   1.589 -0.0462  1.8121  0.2590
 5681TIP3    H238535   2.669   2.371   1.498  0.5719  0.1314 -1.9428
 5682TIP3   OH238536   3.408   6.662  16.065 -0.3788 -0.3575  0.0476
 5682TIP3    H138537   3.448   6.673  15.979 -0.6020  0.1807  0.0104
 5682TIP3    H238538   3.464   6.712  16.124 -2.7077  2.9824 -0.4867
 5683TIP3   OH238539   3.623   6.223   4.205 -0.1655  0.2137  0.3303
 5683TIP3    H138540   3.692   6.278   4.169 -0.2750  1.1668  1.5537
 5683TIP3    H238541   3.568   6.201   4.130  1.3564 -0.4150 -0.6300
 5684TIP3   OH238542   1.155   3.536  13.740 -0.6541 -0.0218  0.3724
 5684TIP3    H138543   1.227   3.596  13.757 -0.0243 -0.2690 -1.2995
 5684TIP3    H238544   1.119   3.515  13.827  2.5107 -1.4246  1.4224
 5685TIP3   OH238545   1.036   0.321  11.343 -0.1833  0.2619 -0.2020
 5685TIP3    H138546   1.025   0.240  11.392  1.0473  0.1136 -0.1491
 5685TIP3    H238547   1.068   0.294  11.257  1.1932  0.7378  0.1488
 5686TIP3   OH238548   6.614   0.279  13.053  0.4132  0.0673  0.2907
 5686TIP3    H138549   6.689   0.336  13.071  0.2786 -0.1172  1.4508
 5686TIP3    H238550   6.572   0.318  12.977  0.1230  1.7157  1.2861
 5687TIP3   OH238551   2.150   6.272  11.148 -0.1194 -0.1118 -0.3900
 5687TIP3    H138552   2.152   6.283  11.053 -1.6319 -2.0107 -0.6803
 5687TIP3    H238553   2.241   6.255  11.173 -0.0314 -1.9519 -1.8348
 5688TIP3   OH238554   3.244   1.167   1.769 -0.0876 -0.6369 -0.2858
 5688TIP3    H138555   3.184   1.119   1.711  0.1057 -1.6831  0.3731
 5688TIP3    H238556   3.273   1.241   1.716 -0.4534 -1.1973 -1.2991
 5689TIP3   OH238557   5.062   0.293  15.842  0.4491  0.3478 -0.3042
 5689TIP3    H138558   4.993   0.270  15.780  1.4213 -0.4548 -1.0981
 5689TIP3    H238559   5.046   0.385  15.863  0.1734  0.6618 -1.8312
 5690TIP3   OH238560   4.034   5.614  11.991  0.5764 -1.0444 -0.0018
 5690TIP3    H138561   4.061   5.700  11.960  1.0283 -0.8725  0.8677
 5690TIP3    H238562   4.077   5.552  11.932  0.0810 -0.6815 -0.7579
 5691TIP3   OH238563   0.936   3.499  12.966 -0.3768 -0.0403  0.2478
 5691TIP3    H138564   1.026   3.474  12.946 -1.2860 -1.3517 -2.3856
 5691TIP3    H238565   0.924   3.471  13.057  1.6368 -0.4775  0.4071
 5692TIP3   OH238566   4.824   2.261  13.855 -0.7147  0.3802 -0.4548
 5692TIP3    H138567   4.767   2.232  13.784 -0.0765  0.5682 -1.0497
 5692TIP3    H238568   4.904   2.290  13.812 -0.3754  0.6407  0.3287
 5693TIP3   OH238569   1.909   3.589   0.138  0.5439 -0.7983 -0.5954
 5693TIP3    H138570   1.904   3.664   0.079 -0.2704 -0.9071 -0.6660
 5693TIP3    H238571   1.999   3.558   0.129  0.1841 -1.3957 -2.5333
 5694TIP3   OH238572   2.888   4.862   0.611  0.2201 -0.2477  0.5797
 5694TIP3    H138573   2.932   4.800   0.553 -1.1980 -0.0533 -0.7298
 5694TIP3    H238574   2.832   4.808   0.666 -0.2194 -0.2461  0.1457
 5695TIP3   OH238575   5.085   1.156  17.085 -0.5485  0.4195 -0.0901
 5695TIP3    H138576   5.177   1.127  17.081 -0.8065 -0.6399  1.3150
 5695TIP3    H238577   5.069   1.174  17.177 -1.7451  0.6277 -0.3314
 5696TIP3   OH238578   2.327   6.035  15.266  0.2049  0.4641  0.2443
 5696TIP3    H138579   2.253   6.045  15.206 -0.5796  1.1322  1.3178
 5696TIP3    H238580   2.300   5.967  15.328 -0.0141  1.5666  1.3776
 5697TIP3   OH238581   4.028   5.761   2.406 -0.4943 -0.4517 -0.0692
 5697TIP3    H138582   3.977   5.808   2.472  1.2170  0.4207  0.6802
 5697TIP3    H238583   4.075   5.830   2.358 -0.1317 -1.2172 -0.8324
 5698TIP3   OH238584   2.592   4.867  12.027 -0.6492  0.0454 -0.1258
 5698TIP3    H138585   2.554   4.784  11.999  2.0038 -0.7580 -1.5822
 5698TIP3    H238586   2.599   4.919  11.947 -1.4978  1.3530  0.6286
 5699TIP3   OH238587   4.501   1.053   3.510 -0.2458  0.7015 -0.5214
 5699TIP3    H138588   4.545   0.971   3.485 -1.5680 -0.8763  2.0230
 5699TIP3    H238589   4.571   1.110   3.539  0.5260 -0.3689 -0.2280
 5700TIP3   OH238590   5.683   0.839   4.963  0.0847  0.4989  0.3617
 5700TIP3    H138591   5.643   0.781   5.028 -0.9353  0.9488  0.1514
 5700TIP3    H238592   5.677   0.927   5.002  1.1248  0.5469  0.4452
 5701TIP3   OH238593   4.253   4.991   5.563 -0.0435 -0.7072  0.4547
 5701TIP3    H138594   4.221   4.903   5.587  0.1071 -0.5865  1.1002
 5701TIP3    H238595   4.282   5.029   5.646  1.6200 -0.7447 -0.1001
 5702TIP3   OH238596   5.852   3.745  14.422  0.6555  0.0373  0.4517
 5702TIP3    H138597   5.890   3.818  14.470 -0.0284 -0.3289  1.5884
 5702TIP3    H238598   5.763   3.737  14.457 -0.2889  0.5284 -1.7484
 5703TIP3   OH238599   0.563   2.782   5.718  0.3153  0.1603  0.2598
 5703TIP3    H138600   0.474   2.765   5.749 -0.1628 -1.2522 -1.8267
 5703TIP3    H238601   0.551   2.828   5.635  1.5364 -0.1218 -0.0765
 5704TIP3   OH238602   3.733   4.694   1.366 -0.2522  0.0866  0.1768
 5704TIP3    H138603   3.774   4.612   1.338  0.5670  0.4808  0.2126
 5704TIP3    H238604   3.640   4.672   1.377  0.4357 -1.5839  3.0254
 5705TIP3   OH238605   2.437   1.622   4.933 -0.7815  0.0090  0.3223
 5705TIP3    H138606   2.376   1.688   4.902  0.9007  0.9094 -1.1265
 5705TIP3    H238607   2.405   1.540   4.896 -1.2779  0.4230 -0.1643
 5706TIP3   OH238608   2.331   0.634  14.013 -0.2565  0.1322  0.4048
 5706TIP3    H138609   2.354   0.543  13.996 -0.1286 -0.1579  2.0727
 5706TIP3    H238610   2.341   0.678  13.929  3.3688 -0.6156  0.3907
 5707TIP3   OH238611   1.490   6.113   1.141  0.2983 -0.0057 -0.1771
 5707TIP3    H138612   1.509   6.052   1.070  0.8833 -2.0372  1.6539
 5707TIP3    H238613   1.551   6.185   1.129  1.2654 -0.9538 -1.0035
 5708TIP3   OH238614   6.118   0.692  12.828  0.6952  0.0680 -0.2260
 5708TIP3    H138615   6.024   0.705  12.835  0.8849  0.3622  2.0765
 5708TIP3    H238616   6.129   0.597  12.834  0.4626 -0.0843 -1.9117
 5709TIP3   OH238617   1.636   1.518  13.145  0.1951  0.7760  0.3475
 5709TIP3    H138618   1.567   1.497  13.208  0.8666  0.7056  1.0766
 5709TIP3    H238619   1.703   1.451  13.161 -1.1789 -1.4713 -2.9285
 5710TIP3   OH238620   1.937   3.662  16.442  0.0434 -0.7108 -0.0355
 5710TIP3    H138621   1.859   3.619  16.409 -0.4478  0.5830 -0.5887
 5710TIP3    H238622   1.928   3.659  16.537 -2.2741  2.2105 -0.0848
 5711TIP3   OH238623   3.181   3.621   4.465  0.1020 -0.0055 -0.0680
 5711TIP3    H138624   3.244   3.689   4.440 -1.0283  1.3979  0.7753
 5711TIP3    H238625   3.220   3.578   4.540  0.6666 -0.0413 -0.3797
 5712TIP3   OH238626   5.282   4.982  15.283 -0.1594 -0.3615 -0.1447
 5712TIP3    H138627   5.346   5.050  15.260 -0.5153 -0.7409 -2.3775
 5712TIP3    H238628   5.247   5.010  15.368  0.7281  1.5019 -0.3610
 5713TIP3   OH238629   2.468   0.591  13.017  0.0616 -0.0881  0.2525
 5713TIP3    H138630   2.508   0.606  12.931 -0.6115 -1.1286 -0.2596
 5713TIP3    H238631   2.383   0.633  13.012  0.6659  1.2355  0.9813
 5714TIP3   OH238632   1.593   3.176   6.052  0.0056 -0.1476  0.4783
 5714TIP3    H138633   1.534   3.246   6.024 -0.5194  0.1114  2.1358
 5714TIP3    H238634   1.672   3.189   6.000 -1.8103 -1.2497 -2.6955
 5715TIP3   OH238635   3.583   5.818   5.613 -0.2736  0.2554  0.1016
 5715TIP3    H138636   3.571   5.864   5.696  0.6767  1.4412 -0.4098
 5715TIP3    H238637   3.644   5.747   5.633  0.2582  0.7743  0.3402
 5716TIP3   OH238638   3.585   1.172  15.945  0.0430 -0.2786 -0.2457
 5716TIP3    H138639   3.491   1.187  15.952  0.1252 -1.1304  4.1152
 5716TIP3    H238640   3.622   1.259  15.933 -1.2459  0.1121 -1.5261
 5717TIP3   OH238641   5.523   3.388   3.673  0.6178  0.1531  0.1216
 5717TIP3    H138642   5.589   3.452   3.647  0.9001 -0.3309 -0.3468
 5717TIP3    H238643   5.476   3.430   3.746  0.7593  0.9161 -0.2253
 5718TIP3   OH238644   6.453   5.473   5.303 -0.5280 -0.1592 -0.3086
 5718TIP3    H138645   6.467   5.563   5.274 -0.2291 -0.8549 -2.3885
 5718TIP3    H238646   6.358   5.463   5.307 -0.5637  0.5156  0.8539
 5719TIP3   OH238647   5.738   3.386  15.430 -0.3167 -0.5153 -0.2915
 5719TIP3    H138648   5.811   3.331  15.402 -0.4151 -0.1685 -1.2549
 5719TIP3    H238649   5.696   3.336  15.500  1.2309 -0.4077  0.7217
 5720TIP3   OH238650   0.192   2.515   5.720 -0.0000 -0.4724 -0.3214
 5720TIP3    H138651   0.113   2.513   5.666 -0.2337 -0.6689  0.0218
 5720TIP3    H238652   0.196   2.604   5.754 -1.3260 -1.0602  1.4783
 5721TIP3   OH238653   3.303   5.504   2.469 -0.4501  0.1119  0.6156
 5721TIP3    H138654   3.246   5.556   2.412 -0.6016 -1.1309 -0.3880
 5721TIP3    H238655   3.376   5.477   2.413 -0.0823 -0.2867  1.2696
 5722TIP3   OH238656   0.448   5.169  16.464  0.2828  0.3885  0.0839
 5722TIP3    H138657   0.427   5.242  16.406  0.2466 -0.3603 -0.8694
 5722TIP3    H238658   0.364   5.134  16.491  0.2838 -0.5634 -1.1012
 5723TIP3   OH238659   2.216   5.970   2.501  0.3372  0.0519 -0.2565
 5723TIP3    H138660   2.236   6.061   2.523 -0.6462  0.8069 -2.4655
 5723TIP3    H238661   2.140   5.949   2.555 -0.1775  0.9270 -0.6256
 5724TIP3   OH238662   3.520   2.647  13.023 -0.1831  0.7232 -0.0308
 5724TIP3    H138663   3.540   2.612  13.110  0.3334  2.3396  0.5092
 5724TIP3    H238664   3.562   2.586  12.963  0.4577  0.2427  0.8901
 5725TIP3   OH238665   2.019   5.351   3.692  0.4829  0.6015 -0.1416
 5725TIP3    H138666   1.983   5.412   3.627 -0.7807  0.9746  0.8914
 5725TIP3    H238667   1.965   5.365   3.770  0.9390 -1.0113  0.4697
 5726TIP3   OH238668   6.187   0.549   6.183 -0.4357 -0.4412  0.2655
 5726TIP3    H138669   6.234   0.497   6.118 -2.1750 -0.6677 -0.8567
 5726TIP3    H238670   6.178   0.492   6.258  1.2857 -0.3031  0.5970
 5727TIP3   OH238671   2.169   5.715   4.318  0.5405 -0.6153  0.1312
 5727TIP3    H138672   2.147   5.648   4.253 -0.1888  0.0615 -0.3268
 5727TIP3    H238673   2.172   5.797   4.268 -0.9340  0.0584  1.0950
 5728TIP3   OH238674   0.624   5.888   0.492 -0.4698  0.2394 -0.4325
 5728TIP3    H138675   0.715   5.914   0.509 -0.7843  0.2774  1.2782
 5728TIP3    H238676   0.631   5.818   0.427  0.9812 -1.8791  1.9390
 5729TIP3   OH238677   2.939   0.297   0.459 -0.3692 -0.0202 -0.8985
 5729TIP3    H138678   2.996   0.347   0.401  2.3394 -1.7977  0.1247
 5729TIP3    H238679   2.946   0.207   0.428  0.4650 -0.8542  1.6035
 5730TIP3   OH238680   4.627   2.299  16.319  0.1160 -0.0896 -0.2457
 5730TIP3    H138681   4.675   2.258  16.247  0.1065  0.1156 -0.3687
 5730TIP3    H238682   4.623   2.392  16.296  2.7217  0.5086  1.4692
 5731TIP3   OH238683   2.120   2.728  10.276 -0.4894  0.0414  0.2364
 5731TIP3    H138684   2.047   2.705  10.218  0.7463 -0.4414 -1.1871
 5731TIP3    H238685   2.093   2.809  10.318 -1.0786  0.9020 -1.7193
 5732TIP3   OH238686   6.764   3.254  13.795 -0.1275  0.1665 -0.1828
 5732TIP3    H138687   6.738   3.161  13.791 -0.4531  0.2894 -1.1495
 5732TIP3    H238688   6.705   3.297  13.733  1.3010  0.7268 -1.1607
 5733TIP3   OH238689   3.832   6.654  16.040 -0.1272 -0.2685 -0.3131
 5733TIP3    H138690   3.771   6.626  15.973  0.5077  0.3981 -1.1834
 5733TIP3    H238691   3.854   6.745  16.017  1.2698 -0.5265 -0.0828
 5734TIP3   OH238692   3.158   6.209   1.918 -0.0375 -0.1410  0.0671
 5734TIP3    H138693   3.187   6.141   1.857 -0.5885 -1.5686  1.3850
 5734TIP3    H238694   3.239   6.244   1.956  0.3218  0.8698 -1.5597
 5735TIP3   OH238695   2.648   1.649  11.689 -0.2574 -0.0626  0.5774
 5735TIP3    H138696   2.569   1.638  11.636  0.9186 -1.5277 -0.9138
 5735TIP3    H238697   2.676   1.738  11.671 -0.3659 -0.2544 -0.5693
 5736TIP3   OH238698   1.585   0.074   0.519  0.4647 -0.3822 -0.0111
 5736TIP3    H138699   1.664   0.119   0.487 -0.0800  0.4803 -0.1586
 5736TIP3    H238700   1.556   0.023   0.444 -0.9166  1.7894 -0.9919
 5737TIP3   OH238701   2.189   4.360  15.155 -0.1970  0.3621  0.0404
 5737TIP3    H138702   2.134   4.433  15.126 -1.5612 -1.2604 -1.5750
 5737TIP3    H238703   2.126   4.292  15.180  1.0504 -0.1438  1.9268
 5738TIP3   OH238704   1.606   3.843  14.057  0.3272  0.1640 -0.0935
 5738TIP3    H138705   1.561   3.758  14.061  0.6547 -0.1186 -1.8487
 5738TIP3    H238706   1.650   3.842  13.972  0.5516  1.9947 -0.0081
 5739TIP3   OH238707   2.464   3.672   0.245  0.2158 -0.0967  0.2624
 5739TIP3    H138708   2.459   3.659   0.150 -1.9788 -0.4006  0.3912
 5739TIP3    H238709   2.523   3.603   0.275  1.2816  0.2875 -0.9344
 5740TIP3   OH238710   3.866   1.792  12.638  0.8374  0.1227  0.1748
 5740TIP3    H138711   3.917   1.725  12.593 -0.2206  0.7170 -1.9842
 5740TIP3    H238712   3.801   1.743  12.689 -0.6989 -0.5139 -2.3256
 5741TIP3   OH238713   0.566   3.584  14.945 -0.2053 -0.0198  0.0737
 5741TIP3    H138714   0.652   3.594  14.987  1.2267  0.1679 -2.7962
 5741TIP3    H238715   0.503   3.611  15.012  2.0800  1.8689  1.5285
 5742TIP3   OH238716   3.799   3.364  12.670 -0.4080  0.2536 -0.0058
 5742TIP3    H138717   3.775   3.335  12.582 -0.9895 -2.1907  0.9302
 5742TIP3    H238718   3.789   3.286  12.725 -0.0587  1.7392  2.2331
 5743TIP3   OH238719   0.763   3.998   4.238  0.0038  0.7504 -0.4051
 5743TIP3    H138720   0.842   3.982   4.290 -1.7036  1.6805  2.5991
 5743TIP3    H238721   0.706   3.924   4.258 -1.0076  1.5508 -0.2962
 5744TIP3   OH238722   4.319   4.917   1.168 -0.0772 -0.7516  0.0604
 5744TIP3    H138723   4.226   4.901   1.152 -0.3406  1.4236 -0.7874
 5744TIP3    H238724   4.329   4.907   1.263 -1.7187  1.3822  0.5070
 5745TIP3   OH238725   3.721   4.375  16.506  0.3900  0.8168  0.3787
 5745TIP3    H138726   3.667   4.399  16.431  0.3209  0.3905  0.2962
 5745TIP3    H238727   3.703   4.444  16.571  1.3263  1.8175 -0.4102
 5746TIP3   OH238728   3.456   6.263  15.500  0.4949 -0.0727  0.4597
 5746TIP3    H138729   3.379   6.206  15.506  1.1778 -0.8540  2.0526
 5746TIP3    H238730   3.444   6.328  15.569  0.0195  1.3855 -0.9619
 5747TIP3   OH238731   1.611   0.772  15.775  0.0298 -0.0888  0.2518
 5747TIP3    H138732   1.678   0.763  15.707  2.0206 -0.0504  2.1325
 5747TIP3    H238733   1.616   0.691  15.825 -0.1780  0.5741  1.3833
 5748TIP3   OH238734   5.552   6.577   2.205 -0.0591  0.1902  0.1864
 5748TIP3    H138735   5.504   6.494   2.204  1.0964 -0.4968 -2.1165
 5748TIP3    H238736   5.504   6.633   2.144 -0.3453  0.9482  1.0906
 5749TIP3   OH238737   6.601   0.962   4.196  0.1807  0.0373 -0.4989
 5749TIP3    H138738   6.538   0.931   4.131  1.2419 -0.3897 -1.3440
 5749TIP3    H238739   6.600   0.894   4.264 -1.3824  0.7892  0.2524
 5750TIP3   OH238740   0.095   4.421  14.638 -0.4191 -0.1453 -0.3542
 5750TIP3    H138741   0.102   4.401  14.731  0.0180  0.9460 -0.1450
 5750TIP3    H238742   0.092   4.517  14.634  0.2653 -0.1618 -1.5000
 5751TIP3   OH238743   6.498   2.915   0.483 -0.3163 -0.3806  0.7436
 5751TIP3    H138744   6.422   2.915   0.425 -0.3867 -0.1352  0.8360
 5751TIP3    H238745   6.462   2.921   0.571 -0.2026 -0.6045  0.8052
 5752TIP3   OH238746   1.227   0.643  12.085  0.0039 -0.4800 -0.8228
 5752TIP3    H138747   1.150   0.598  12.122  0.2026  1.3911  2.0123
 5752TIP3    H238748   1.194   0.685  12.005 -3.0621  3.5586  2.3268
 5753TIP3   OH238749   0.625   5.003   0.202  0.1379 -0.7185 -0.3858
 5753TIP3    H138750   0.604   5.001   0.295 -0.4495 -2.5149 -0.5478
 5753TIP3    H238751   0.675   4.923   0.186 -1.0973 -1.2370 -1.9026
 5754TIP3   OH238752   3.050   1.489   3.816  0.3252  0.3439 -0.1635
 5754TIP3    H138753   3.121   1.507   3.878  0.0504  2.8996 -0.5513
 5754TIP3    H238754   2.970   1.494   3.868  0.2642 -0.2073 -0.1983
 5755TIP3   OH238755   2.102   2.643  11.926 -0.5936 -0.6000  0.0219
 5755TIP3    H138756   2.071   2.555  11.944  1.0039 -1.5298 -1.6022
 5755TIP3    H238757   2.024   2.698  11.935 -2.0668 -2.4610 -0.9672
 5756TIP3   OH238758   4.681   4.144   4.136  0.0181  0.0074  0.1654
 5756TIP3    H138759   4.606   4.188   4.175  0.2022  1.4031 -0.9780
 5756TIP3    H238760   4.653   4.124   4.047  1.2938  1.3854 -0.5726
 5757TIP3   OH238761   2.734   3.593  15.915  0.7880  0.2621 -0.1385
 5757TIP3    H138762   2.707   3.506  15.883 -2.4531  1.4140 -0.7623
 5757TIP3    H238763   2.741   3.646  15.835  0.1428  1.2393  0.4477
 5758TIP3   OH238764   6.577   4.833   2.672 -0.2867  0.6623  0.1562
 5758TIP3    H138765   6.516   4.899   2.703 -2.6660 -1.2233 -0.3201
 5758TIP3    H238766   6.573   4.764   2.739 -0.2880 -0.4015 -0.9229
 5759TIP3   OH238767   0.307   4.452  13.921  0.2119  0.0103  0.3834
 5759TIP3    H138768   0.315   4.377  13.862 -0.9696  0.5189 -0.4348
 5759TIP3    H238769   0.261   4.518  13.869 -0.2636  0.6951  1.6671
 5760TIP3   OH238770   2.909   6.048   1.428 -0.4083 -0.0850 -0.5793
 5760TIP3    H138771   2.902   6.141   1.449  2.6836 -0.1969  1.3470
 5760TIP3    H238772   2.968   6.044   1.353 -1.1797 -0.4691 -1.1750
 5761TIP3   OH238773   3.836   3.059  16.203 -0.8716  0.0491  0.1013
 5761TIP3    H138774   3.825   3.090  16.114 -1.5640 -1.2016 -0.2609
 5761TIP3    H238775   3.845   2.964  16.195  0.7396  0.0746  1.2167
 5762TIP3   OH238776   0.238   0.180  11.914 -0.2093 -0.0207  0.0072
 5762TIP3    H138777   0.302   0.166  11.983 -1.4766 -0.7714  1.0624
 5762TIP3    H238778   0.162   0.218  11.959 -1.8153 -2.3775 -0.5913
 5763TIP3   OH238779   1.213   2.196  11.152 -0.4183  0.1167 -0.0930
 5763TIP3    H138780   1.258   2.235  11.227 -0.9678 -0.9082  0.7785
 5763TIP3    H238781   1.187   2.271  11.099  0.4082  0.8281  0.4890
 5764TIP3   OH238782   4.333   0.311   0.324  0.4173 -0.0322 -0.2989
 5764TIP3    H138783   4.295   0.397   0.344  2.3811  0.4847  1.4029
 5764TIP3    H238784   4.291   0.251   0.386 -1.1282 -0.3728 -1.6441
 5765TIP3   OH238785   4.712   4.176  16.452  0.2256  0.3293  0.3749
 5765TIP3    H138786   4.737   4.227  16.374  2.2319 -2.5381 -0.9407
 5765TIP3    H238787   4.626   4.210  16.476  0.1611  2.2186 -2.3036
 5766TIP3   OH238788   4.482   3.843  16.491 -1.1576 -0.0686  0.1193
 5766TIP3    H138789   4.416   3.818  16.426 -2.2278 -0.0806  1.1984
 5766TIP3    H238790   4.439   3.909  16.546 -0.1180  0.2696  0.5451
 5767TIP3   OH238791   5.280   5.350  12.292  0.3064 -0.2741  0.3555
 5767TIP3    H138792   5.284   5.441  12.322 -0.5405  0.5399 -1.8863
 5767TIP3    H238793   5.188   5.334  12.274  0.0931 -2.4085  3.0334
 5768TIP3   OH238794   2.107   2.293  14.060  0.4307 -0.2637 -0.1116
 5768TIP3    H138795   2.089   2.306  13.967  0.5335  0.5088 -0.0252
 5768TIP3    H238796   2.156   2.211  14.064  1.9219  0.5685 -0.9100
 5769TIP3   OH238797   6.098   1.822  10.399  0.5544 -0.8178 -0.1379
 5769TIP3    H138798   6.013   1.838  10.440  0.3109  0.6809 -1.2349
 5769TIP3    H238799   6.090   1.733  10.363 -1.1760 -0.0125 -1.8001
 5770TIP3   OH238800   6.231   1.938  16.796 -0.2620  0.5345 -0.2137
 5770TIP3    H138801   6.226   2.012  16.736  3.5033  0.3287 -0.8545
 5770TIP3    H238802   6.248   1.977  16.882 -1.6397  0.5731  0.0611
 5771TIP3   OH238803   5.162   0.980  12.914 -0.0974 -0.2302  0.5304
 5771TIP3    H138804   5.080   1.010  12.875  0.3890 -1.0900 -1.1656
 5771TIP3    H238805   5.136   0.940  12.997 -1.1047  1.8575  1.2704
 5772TIP3   OH238806   3.807   6.099  14.886  0.3030 -1.0313  0.1018
 5772TIP3    H138807   3.850   6.111  14.801  1.7950 -1.3508  0.7986
 5772TIP3    H238808   3.736   6.037  14.868 -1.7477  1.6289 -1.6442
 5773TIP3   OH238809   2.395   0.004  16.041  0.3735 -0.0108  0.0606
 5773TIP3    H138810   2.336   0.002  16.116 -0.7414 -0.6273 -0.8116
 5773TIP3    H238811   2.383   0.092  16.003 -1.2346 -0.6701 -1.0558
 5774TIP3   OH238812   2.454   5.711  12.108 -0.0367  0.3232  0.2965
 5774TIP3    H138813   2.537   5.683  12.069 -0.2972  0.9668 -0.7249
 5774TIP3    H238814   2.407   5.629  12.124  1.5862 -0.2113  2.7682
 5775TIP3   OH238815   5.602   6.621   0.836 -0.3658  0.1881  0.1668
 5775TIP3    H138816   5.597   6.583   0.923  0.9768 -0.2294  0.0733
 5775TIP3    H238817   5.673   6.574   0.793 -1.5894 -0.2320 -1.4671
 5776TIP3   OH238818   4.453   2.933   3.690  0.4197  0.0981 -0.4643
 5776TIP3    H138819   4.391   2.918   3.619  0.8373  0.4261 -0.9014
 5776TIP3    H238820   4.409   2.993   3.750  0.0204 -0.2796 -0.3761
 5777TIP3   OH238821   4.818   6.200   2.712 -0.5883  0.5007 -0.1446
 5777TIP3    H138822   4.739   6.208   2.660 -1.1666  0.6449  0.7500
 5777TIP3    H238823   4.822   6.107   2.736 -0.4027  0.4628 -0.3183
 5778TIP3   OH238824   4.399   5.627  11.981 -0.5390  0.3268 -0.0853
 5778TIP3    H138825   4.332   5.675  11.931  1.8391  2.2647 -1.5564
 5778TIP3    H238826   4.415   5.548  11.930 -0.6118  0.6295 -0.5855
 5779TIP3   OH238827   4.826   3.935  15.004  0.1031  0.3328 -0.1840
 5779TIP3    H138828   4.820   3.916  14.910 -0.5666  1.0349 -0.2886
 5779TIP3    H238829   4.736   3.954  15.030  0.0839 -1.1210  0.8821
 5780TIP3   OH238830   3.872   1.704   1.114  0.3994  1.1320 -0.1916
 5780TIP3    H138831   3.878   1.795   1.142 -0.4329  0.6036  1.8522
 5780TIP3    H238832   3.795   1.670   1.159  0.3537 -0.4285 -1.3879
 5781TIP3   OH238833   5.689   4.082   6.410 -0.0459  1.0488  0.7522
 5781TIP3    H138834   5.779   4.070   6.378  0.2910  0.0213  2.0680
 5781TIP3    H238835   5.647   3.998   6.395 -0.4981  1.2151  1.0848
 5782TIP3   OH238836   3.314   5.693   0.746 -0.3692  0.5648  0.3918
 5782TIP3    H138837   3.248   5.744   0.698  1.0731  1.3263 -0.8294
 5782TIP3    H238838   3.309   5.605   0.707  1.5106  1.4455 -1.9266
 5783TIP3   OH238839   1.613   2.908   5.032  0.4879  0.0854  0.0330
 5783TIP3    H138840   1.680   2.851   5.071  0.1005 -0.1530  0.3509
 5783TIP3    H238841   1.568   2.946   5.107  0.2440  0.2218 -0.1849
 5784TIP3   OH238842   1.735   0.028  13.993  0.3047 -0.2022  0.3086
 5784TIP3    H138843   1.677  -0.011  14.059  1.7212  0.4934  1.9829
 5784TIP3    H238844   1.756   0.115  14.028 -2.4888  2.0426 -3.1729
 5785TIP3   OH238845   6.220   6.057   5.616 -0.3757  0.8357 -0.0060
 5785TIP3    H138846   6.185   6.024   5.699 -0.6988  0.4218 -0.3043
 5785TIP3    H238847   6.290   6.116   5.642  0.4734 -0.3877  0.5342
 5786TIP3   OH238848   0.081   2.703   3.825  0.0408 -0.5217 -0.9748
 5786TIP3    H138849   0.108   2.626   3.875  0.9508  0.6690  0.4225
 5786TIP3    H238850   0.121   2.777   3.871 -0.6631  0.7817 -2.3882
 5787TIP3   OH238851   3.017   4.679  12.909  0.2505  0.3464 -0.3171
 5787TIP3    H138852   3.024   4.753  12.969  0.4138  0.7434 -0.8291
 5787TIP3    H238853   3.107   4.649  12.896  0.1840  0.0571 -0.1057
 5788TIP3   OH238854   4.128   5.738  14.919  0.0836  0.3764 -0.0056
 5788TIP3    H138855   4.035   5.741  14.940 -0.0347 -1.7719 -0.1186
 5788TIP3    H238856   4.142   5.813  14.861 -1.6575  0.5009 -0.2911
 5789TIP3   OH238857   2.924   3.295  11.055 -0.0377  0.1091  0.0723
 5789TIP3    H138858   2.936   3.329  10.967 -0.4242 -2.9042 -1.2105
 5789TIP3    H238859   3.013   3.271  11.083 -0.5789 -5.5845 -2.4161
 5790TIP3   OH238860   3.433   3.938   5.989  0.4519  0.9208  0.4240
 5790TIP3    H138861   3.487   3.866   6.020 -1.1653 -0.7788 -0.6146
 5790TIP3    H238862   3.463   3.955   5.900 -0.1848  0.5088  0.1287
 5791TIP3   OH238863   3.467   0.423   5.524  0.2166  0.6046 -0.1141
 5791TIP3    H138864   3.423   0.358   5.469  0.0692 -0.2769  1.0157
 5791TIP3    H238865   3.559   0.394   5.527  0.2470  0.7095  0.0033
 5792TIP3   OH238866   5.407   0.350  12.227 -0.0383 -0.1212 -0.1465
 5792TIP3    H138867   5.397   0.442  12.252  0.0136  0.0594 -0.7869
 5792TIP3    H238868   5.393   0.302  12.309  1.6542  0.5432  0.5681
 5793TIP3   OH238869   1.971   0.277   6.672 -0.1096  0.3778  0.0174
 5793TIP3    H138870   1.992   0.209   6.607  0.9694 -0.6957  1.4553
 5793TIP3    H238871   1.945   0.228   6.750 -0.4574  1.6437  0.7044
 5794TIP3   OH238872   3.220   2.672  16.670  0.4430  0.0988  0.2984
 5794TIP3    H138873   3.281   2.612  16.713  2.5697 -1.0590 -4.0292
 5794TIP3    H238874   3.276   2.738  16.630 -1.3703  0.8455 -1.0798
 5795TIP3   OH238875   5.917   0.706   4.220 -0.1185  0.1819 -0.5369
 5795TIP3    H138876   5.862   0.784   4.226  0.6763  0.6413  1.0934
 5795TIP3    H238877   5.862   0.640   4.177 -0.8271  1.5948 -1.8603
 5796TIP3   OH238878   0.535   3.319  11.190 -0.2673  0.0977  0.9558
 5796TIP3    H138879   0.475   3.299  11.261 -0.8806  2.1323  1.0440
 5796TIP3    H238880   0.516   3.253  11.123 -0.5562 -1.0572  2.1510
 5797TIP3   OH238881   5.060   5.650   0.524  0.0699 -0.2050  0.2470
 5797TIP3    H138882   5.014   5.733   0.512 -0.5724 -0.6227 -0.2246
 5797TIP3    H238883   5.053   5.633   0.618 -1.0979 -0.4596  0.1217
 5798TIP3   OH238884   0.769   0.096   5.111 -0.2567  0.3406 -0.5112
 5798TIP3    H138885   0.856   0.137   5.111 -0.4779  0.8139 -0.5883
 5798TIP3    H238886   0.774   0.029   5.180 -0.6958  2.1854  1.3449
 5799TIP3   OH238887   0.023   0.305   5.682 -0.1519  0.7897  0.0341
 5799TIP3    H138888  -0.032   0.362   5.735  1.3085  0.9259  1.4310
 5799TIP3    H238889   0.044   0.358   5.605  0.1765  1.6982  0.7346
 5800TIP3   OH238890   2.460   5.164   5.610 -0.2283  0.0702 -0.0029
 5800TIP3    H138891   2.434   5.174   5.702  0.6352  1.4883  0.1134
 5800TIP3    H238892   2.493   5.251   5.585  2.7485 -1.1783 -0.6235
 5801TIP3   OH238893   0.381   4.940  15.295 -0.1805 -0.3038  0.2608
 5801TIP3    H138894   0.355   4.891  15.373 -0.1157  1.5464  1.4710
 5801TIP3    H238895   0.476   4.946  15.301 -0.2220  0.3032  0.3057
 5802TIP3   OH238896   4.845   4.857   3.633 -0.2640 -0.2504  0.2082
 5802TIP3    H138897   4.912   4.838   3.698 -1.0431  0.0641  1.1124
 5802TIP3    H238898   4.786   4.919   3.676  0.8454  2.3054 -1.8323
 5803TIP3   OH238899   5.737   2.876  11.408  0.1641 -0.2091 -0.4163
 5803TIP3    H138900   5.747   2.970  11.394  2.1609 -0.3444 -0.0647
 5803TIP3    H238901   5.742   2.866  11.503 -0.7870 -0.6054 -0.4043
 5804TIP3   OH238902   0.140   1.914   0.388 -0.1598  0.1025 -0.4725
 5804TIP3    H138903   0.051   1.885   0.407 -0.4995  1.9487  0.9518
 5804TIP3    H238904   0.178   1.844   0.335 -1.8459 -1.5379  0.4507
 5805TIP3   OH238905   4.370   0.209   5.687 -0.4239  0.1131 -0.1342
 5805TIP3    H138906   4.392   0.244   5.774 -0.7997  2.2893 -0.8875
 5805TIP3    H238907   4.454   0.181   5.651 -0.2004 -0.3752  0.7355
 5806TIP3   OH238908   3.724   5.094  13.023 -0.0396  0.0833  0.4006
 5806TIP3    H138909   3.752   5.130  13.108  0.3435  1.3489 -0.2481
 5806TIP3    H238910   3.664   5.160  12.988  0.6625  0.0926 -0.8113
 5807TIP3   OH238911   2.498   1.654  13.326  0.1817 -0.4210 -0.3770
 5807TIP3    H138912   2.419   1.603  13.342  1.3089 -1.4533  2.0427
 5807TIP3    H238913   2.556   1.594  13.279  0.5961 -0.5945  0.3530
 5808TIP3   OH238914   5.519   0.390  14.834  0.5824  0.1423 -0.0934
 5808TIP3    H138915   5.477   0.432  14.758 -1.8886  0.0602  1.1929
 5808TIP3    H238916   5.554   0.308  14.799 -2.5522 -0.9902 -0.6758
 5809TIP3   OH238917   2.078   6.278  15.065  0.7089  0.2174  0.1892
 5809TIP3    H138918   2.097   6.185  15.053  1.8046  0.8758 -4.0658
 5809TIP3    H238919   2.164   6.321  15.064  0.1718  1.3552  1.2658
 5810TIP3   OH238920   2.914   0.080  11.957  0.4330 -0.4983  0.5321
 5810TIP3    H138921   2.888  -0.001  11.913  1.4819 -0.3150 -0.4278
 5810TIP3    H238922   2.887   0.150  11.898 -1.4436 -0.0619  1.8406
 5811TIP3   OH238923   5.745   4.463   4.061  0.2995  0.1367 -0.0236
 5811TIP3    H138924   5.832   4.423   4.050  0.6076  0.8409 -0.2131
 5811TIP3    H238925   5.746   4.537   4.000  0.8225  2.1844  2.3874
 5812TIP3   OH238926   0.282   0.317  12.491 -0.3623  0.5546  0.7003
 5812TIP3    H138927   0.288   0.350  12.401 -0.3988  0.4245  0.6496
 5812TIP3    H238928   0.365   0.341  12.531  0.0542 -0.2573  0.3344
 5813TIP3   OH238929   2.072   6.110   2.136  0.0340 -0.3438 -0.2212
 5813TIP3    H138930   2.048   6.203   2.133  1.5049  0.0895  0.7714
 5813TIP3    H238931   2.044   6.076   2.051 -1.3241  0.7965 -0.2501
 5814TIP3   OH238932   4.872   2.817   1.432 -0.5440  0.0937 -0.3816
 5814TIP3    H138933   4.787   2.861   1.441 -0.2781  0.7297 -1.0001
 5814TIP3    H238934   4.904   2.808   1.522 -1.1661  0.0505 -0.1619
 5815TIP3   OH238935   6.012   1.511  12.963  0.1785  0.0970 -0.6837
 5815TIP3    H138936   6.057   1.457  12.898  0.1164  1.2861 -1.7479
 5815TIP3    H238937   5.989   1.591  12.915 -0.4189  0.7359  0.6473
 5816TIP3   OH238938   1.486   5.406  14.835  0.4134 -0.3737 -0.4261
 5816TIP3    H138939   1.417   5.353  14.873  1.5867 -1.5628  0.0814
 5816TIP3    H238940   1.545   5.343  14.794  0.9698  0.6547 -1.2369
 5817TIP3   OH238941   3.150   4.305  15.544 -0.9280  0.0074 -0.2531
 5817TIP3    H138942   3.143   4.392  15.504 -0.6559  1.5914  2.9029
 5817TIP3    H238943   3.063   4.287  15.578 -0.8184 -0.6543 -0.3265
 5818TIP3   OH238944   1.139   1.708   0.075 -0.0070 -0.2817  0.0666
 5818TIP3    H138945   1.203   1.643   0.044 -0.0190 -1.4107  2.2792
 5818TIP3    H238946   1.064   1.656   0.102 -1.1860  0.9168 -0.8862
 5819TIP3   OH238947   1.900   6.150  16.209 -0.0670 -0.0317 -0.0320
 5819TIP3    H138948   1.841   6.076  16.224 -1.6704  1.6904  2.5821
 5819TIP3    H238949   1.878   6.181  16.122 -1.8957 -0.4288  0.2646
 5820TIP3   OH238950   2.071   3.383  17.166 -0.2166 -0.5467  0.2608
 5820TIP3    H138951   2.028   3.457  17.208 -1.8727 -1.2492 -0.1655
 5820TIP3    H238952   2.081   3.318  17.236  0.7761 -0.1236  0.5168
 5821TIP3   OH238953   1.073   0.085   2.923  0.3383  0.2208 -0.0930
 5821TIP3    H138954   1.149   0.071   2.979 -0.3901 -2.0663  0.3529
 5821TIP3    H238955   0.998   0.065   2.979 -0.4395 -1.0338 -1.5469
 5822TIP3   OH238956   6.208   5.425  13.989 -0.6263 -0.2471  0.3826
 5822TIP3    H138957   6.258   5.353  13.951  0.9973  1.4283 -0.6815
 5822TIP3    H238958   6.165   5.467  13.915 -1.3988  0.0302  0.9794
 5823TIP3   OH238959   4.829   2.891  16.067  0.1166 -0.0849  0.0393
 5823TIP3    H138960   4.912   2.901  16.114 -1.2044  1.0483  2.2365
 5823TIP3    H238961   4.811   2.977  16.029  1.2595 -1.0412 -2.7971
 5824TIP3   OH238962   0.365   4.257  13.423  0.1029 -0.0974  0.5516
 5824TIP3    H138963   0.372   4.350  13.443 -0.3013  0.2826 -1.0224
 5824TIP3    H238964   0.438   4.240  13.364  0.5113 -0.9064  1.2835
 5825TIP3   OH238965   1.448   0.832   5.391 -0.0064  0.5313 -0.3951
 5825TIP3    H138966   1.383   0.779   5.345 -1.0720  0.3451  1.3072
 5825TIP3    H238967   1.406   0.917   5.403  0.4831  0.7543 -0.2257
 5826TIP3   OH238968   1.278   4.630   4.459  0.2755  0.1942 -0.1666
 5826TIP3    H138969   1.296   4.537   4.472 -0.9007  0.1037  0.8031
 5826TIP3    H238970   1.341   4.656   4.392  1.7086 -0.9191  0.7115
 5827TIP3   OH238971   3.893   6.189   0.241 -0.0810  0.3531 -0.0287
 5827TIP3    H138972   3.836   6.166   0.315  0.1899 -3.7888 -1.0271
 5827TIP3    H238973   3.976   6.215   0.282 -1.0931  1.7426  1.2207
 5828TIP3   OH238974   2.076   4.969  16.418  0.6919  0.4708  0.3334
 5828TIP3    H138975   2.037   5.052  16.390  0.1891  0.3635  0.7172
 5828TIP3    H238976   2.082   4.976  16.513 -1.1305 -0.7001  0.5593
 5829TIP3   OH238977   5.081   6.323  14.627  0.5305  0.2329  0.1802
 5829TIP3    H138978   5.117   6.253  14.682  1.8394  1.5640  1.0616
 5829TIP3    H238979   5.111   6.301  14.539  1.2677 -0.1176  0.5095
 5830TIP3   OH238980   6.788   4.365   4.406  0.7805 -0.0316 -0.5852
 5830TIP3    H138981   6.726   4.317   4.352  0.3944  1.6165 -1.6327
 5830TIP3    H238982   6.864   4.380   4.349  1.0788  0.2096 -0.1297
 5831TIP3   OH238983   3.165   4.466  11.293  0.3329  0.1009  0.0238
 5831TIP3    H138984   3.094   4.489  11.352  0.5033 -0.9822  0.6624
 5831TIP3    H238985   3.125   4.408  11.228  0.9005 -1.5804  1.1539
 5832TIP3   OH238986   3.101   3.866  11.229  0.0736  0.9105 -0.2714
 5832TIP3    H138987   3.068   3.812  11.157  0.3548  0.9783 -0.4513
 5832TIP3    H238988   3.079   3.956  11.203 -0.3449  0.8912  0.0028
 5833TIP3   OH238989   5.234   2.547  15.593 -0.4373 -0.2520  0.7195
 5833TIP3    H138990   5.188   2.464  15.583  1.4926 -1.0930 -1.4424
 5833TIP3    H238991   5.301   2.530  15.659 -0.1860 -0.3514  0.4404
 5834TIP3   OH238992   2.842   3.094   0.326  0.1175 -0.1545  1.2407
 5834TIP3    H138993   2.929   3.056   0.313  0.0173 -0.9842  2.8064
 5834TIP3    H238994   2.803   3.040   0.395 -1.6760  0.1569  0.4967
 5835TIP3   OH238995   2.429   0.773   4.700  0.0632  0.0788 -0.2013
 5835TIP3    H138996   2.399   0.808   4.784 -1.7622  0.7127 -1.0930
 5835TIP3    H238997   2.524   0.766   4.709 -0.0993  0.3719  1.8225
 5836TIP3   OH238998   3.618   1.355  14.745 -0.3475 -0.4551  0.2896
 5836TIP3    H138999   3.704   1.398  14.752  0.2997 -1.5457 -0.7606
 5836TIP3    H239000   3.620   1.288  14.813  0.7418 -2.2888 -1.4740
 5837TIP3   OH239001   0.480   2.666  16.926  0.4352  0.4925  0.1397
 5837TIP3    H139002   0.570   2.678  16.957  0.2010  3.3817 -0.1917
 5837TIP3    H239003   0.468   2.735  16.861 -2.5877  1.1918  1.3998
 5838TIP3   OH239004   2.215   5.363   1.693  0.9361 -0.3673  0.2934
 5838TIP3    H139005   2.260   5.290   1.649  0.9045  1.0643 -2.1993
 5838TIP3    H239006   2.284   5.408   1.742  1.8530  0.5889 -1.8352
 5839TIP3   OH239007   3.778   4.217  17.156 -0.1021  0.0766 -0.4952
 5839TIP3    H139008   3.764   4.307  17.125 -1.0231  0.3502  0.6753
 5839TIP3    H239009   3.813   4.227  17.244 -0.8314 -0.7189 -0.1132
 5840TIP3   OH239010   1.453   1.950   0.741 -0.7634  0.2216 -0.1468
 5840TIP3    H139011   1.500   1.871   0.770  0.2917  0.9997  0.2866
 5840TIP3    H239012   1.377   1.955   0.798 -0.7569 -0.4056 -0.0778
 5841TIP3   OH239013   4.167   1.109  13.966 -0.1143 -0.8301 -0.5627
 5841TIP3    H139014   4.104   1.126  13.895 -0.9005  0.5117  0.4215
 5841TIP3    H239015   4.121   1.050  14.025 -0.6502  0.4965  0.3799
 5842TIP3   OH239016   1.668   0.101   2.948  0.3140  0.0143 -0.2636
 5842TIP3    H139017   1.603   0.100   2.878  1.3166  2.5452 -1.3099
 5842TIP3    H239018   1.749   0.072   2.905  1.0375  2.0220 -0.3143
 5843TIP3   OH239019   1.553   5.589  12.545 -0.1776 -0.4148  0.2512
 5843TIP3    H139020   1.532   5.559  12.634 -0.1692  1.8386  1.0329
 5843TIP3    H239021   1.647   5.606  12.547  0.1360 -1.9511 -0.6934
 5844TIP3   OH239022   2.606   3.442   0.985  0.0082  0.4207 -0.6472
 5844TIP3    H139023   2.696   3.455   0.953  0.2171  0.3976 -0.0734
 5844TIP3    H239024   2.602   3.350   1.010 -0.1270  0.4602 -0.5239
 5845TIP3   OH239025   2.877   2.447   2.866 -0.4105  0.4140 -0.0651
 5845TIP3    H139026   2.924   2.511   2.919  0.2183  0.5554 -0.7978
 5845TIP3    H239027   2.945   2.392   2.829 -0.8954 -0.0907 -0.2115
 5846TIP3   OH239028   1.570   0.947  13.471  0.2569  0.5621 -0.2311
 5846TIP3    H139029   1.660   0.915  13.481 -0.3540 -1.2859 -0.3520
 5846TIP3    H239030   1.556   1.003  13.547 -0.1157 -3.1175  2.5702
 5847TIP3   OH239031   3.898   2.941  16.567 -0.6109  0.4720 -0.1641
 5847TIP3    H139032   3.930   3.007  16.505  2.2414  0.5817  1.3289
 5847TIP3    H239033   3.854   2.992  16.635  0.6615  0.7773  0.4432
 5848TIP3   OH239034   2.070   6.211  17.018  0.6015 -0.1241  0.1778
 5848TIP3    H139035   2.046   6.287  17.071  1.2760 -0.6457  1.2663
 5848TIP3    H239036   2.051   6.136  17.074  0.1146 -0.7505 -0.8208
 5849TIP3   OH239037   4.991   4.237  12.616 -0.6288  0.2436 -0.1239
 5849TIP3    H139038   4.992   4.189  12.533  0.5472 -0.4379  0.2681
 5849TIP3    H239039   5.027   4.323  12.595  0.5954 -0.2601 -0.1462
 5850TIP3   OH239040   4.444   5.307  11.461  0.2787 -0.4469  0.0344
 5850TIP3    H139041   4.476   5.339  11.376  1.8533  0.1221  0.8163
 5850TIP3    H239042   4.480   5.369  11.525  1.1499 -2.2385  1.3305
 5851TIP3   OH239043   4.780   3.813  12.237  0.2283 -0.1073 -0.5110
 5851TIP3    H139044   4.795   3.812  12.142  0.9407 -0.2214 -0.3975
 5851TIP3    H239045   4.867   3.798  12.275 -0.4958 -3.1833  0.0991
 5852TIP3   OH239046   1.741   0.863   5.262 -0.3026 -0.7073 -0.0356
 5852TIP3    H139047   1.651   0.860   5.293  0.1437  3.4875  1.9691
 5852TIP3    H239048   1.737   0.907   5.177 -0.1736 -0.9973 -0.1947
 5853TIP3   OH239049   2.693   0.864  15.841 -0.7951  0.0438 -0.1181
 5853TIP3    H139050   2.690   0.770  15.823  1.3913  0.3703 -2.4931
 5853TIP3    H239051   2.629   0.903  15.782 -1.0051  0.1306  0.1660
 5854TIP3   OH239052   2.872   4.179   5.056 -0.0530 -0.3666  0.1037
 5854TIP3    H139053   2.879   4.235   5.133  0.7500 -0.7616  0.3221
 5854TIP3    H239054   2.854   4.092   5.092 -2.6689 -0.0269 -0.2815
 5855TIP3   OH239055   5.748   5.021  16.445 -0.3527 -0.0832 -0.0045
 5855TIP3    H139056   5.825   5.040  16.392 -0.6365 -0.2157 -0.4695
 5855TIP3    H239057   5.706   4.947  16.401 -0.7235 -0.0405  0.2719
 5856TIP3   OH239058   2.237   1.773   3.068 -0.3034  0.1404 -0.1335
 5856TIP3    H139059   2.196   1.689   3.049  3.0073 -1.8154  1.0597
 5856TIP3    H239060   2.191   1.804   3.147 -0.0089 -1.6847  0.7846
 5857TIP3   OH239061   4.306   3.938   5.558 -0.1258  0.0020  0.2029
 5857TIP3    H139062   4.359   3.870   5.601  1.4652  0.6934 -0.6240
 5857TIP3    H239063   4.237   3.958   5.621 -0.8034 -2.5855  0.3607
 5858TIP3   OH239064   0.706   4.251   6.540 -0.0457  0.5367 -0.4422
 5858TIP3    H139065   0.696   4.319   6.608  0.3369  0.0133  0.1497
 5858TIP3    H239066   0.641   4.185   6.562 -0.3917  0.6984 -0.9960
 5859TIP3   OH239067   2.437   2.203   3.311  0.5878  0.0770  0.1037
 5859TIP3    H139068   2.459   2.210   3.404 -0.8555 -2.3622  0.6941
 5859TIP3    H239069   2.386   2.282   3.293  1.4283  0.8939  1.2190
 5860TIP3   OH239070   2.746   5.572  16.692  0.7607 -0.2817 -0.0332
 5860TIP3    H139071   2.760   5.662  16.661 -1.6498 -0.3446 -1.4184
 5860TIP3    H239072   2.763   5.518  16.616  1.3456 -0.9637  0.5740
 5861TIP3   OH239073   0.167   4.753  11.619  0.2562  0.0668 -0.6311
 5861TIP3    H139074   0.222   4.801  11.557  1.0104 -0.0259 -0.0322
 5861TIP3    H239075   0.227   4.721  11.686 -0.3725 -0.9549 -0.5466
 5862TIP3   OH239076   2.077   6.494   4.875 -0.1748 -0.2372 -0.0463
 5862TIP3    H139077   2.143   6.529   4.815 -1.2588  0.8307 -0.6548
 5862TIP3    H239078   2.108   6.407   4.898  2.1118  0.7276  0.7073
 5863TIP3   OH239079   6.491   1.001  12.757 -0.2418 -0.0987  0.1554
 5863TIP3    H139080   6.446   0.929  12.713 -0.0597 -0.3593  0.3913
 5863TIP3    H239081   6.442   1.015  12.837  0.2672 -0.5785  0.5530
 5864TIP3   OH239082   4.832   5.075  17.099  0.0484 -0.0264  0.2008
 5864TIP3    H139083   4.831   4.985  17.066 -0.4109 -0.8476  2.3579
 5864TIP3    H239084   4.922   5.105  17.084 -0.1628 -0.3123 -1.8430
 5865TIP3   OH239085   5.879   0.658   4.899  0.1014 -0.3665  0.1377
 5865TIP3    H139086   5.868   0.573   4.942 -0.5618  0.0338  0.7700
 5865TIP3    H239087   5.799   0.706   4.919  0.7059  0.6133  0.2534
 5866TIP3   OH239088   3.097   5.092  12.125 -0.1045  0.5021  0.4394
 5866TIP3    H139089   3.179   5.090  12.175 -0.8731  0.8921  1.7599
 5866TIP3    H239090   3.124   5.105  12.035  1.3242 -0.1172  0.7662
 5867TIP3   OH239091   5.590   1.862  11.804 -0.1745  0.3661 -0.1068
 5867TIP3    H139092   5.668   1.914  11.787  0.6759 -0.8919 -0.1487
 5867TIP3    H239093   5.553   1.899  11.884  1.0837  0.2690  0.5314
 5868TIP3   OH239094   5.450   5.251   0.737 -0.3998  0.1385  0.5954
 5868TIP3    H139095   5.517   5.258   0.669 -0.3344 -2.4174  0.3375
 5868TIP3    H239096   5.391   5.324   0.721 -0.5675 -0.6041 -2.4201
 5869TIP3   OH239097   0.963   1.665  11.874  0.4885 -0.0804  0.0299
 5869TIP3    H139098   1.055   1.660  11.901 -0.1066 -2.1208  1.7746
 5869TIP3    H239099   0.924   1.729  11.934  0.6867  0.5239 -0.4819
 5870TIP3   OH239100   1.706   2.649  12.724 -0.1168  0.4524  0.1328
 5870TIP3    H139101   1.703   2.558  12.754  2.6584  0.2871 -0.0163
 5870TIP3    H239102   1.668   2.646  12.636  1.9145 -0.9799 -0.7499
 5871TIP3   OH239103   2.840   4.063  16.333 -0.6857 -0.2255 -0.2259
 5871TIP3    H139104   2.852   4.106  16.418 -1.0468  0.7710 -0.6727
 5871TIP3    H239105   2.853   4.132  16.269 -1.2566 -0.7888 -0.9609
 5872TIP3   OH239106   2.078   3.814   3.903 -0.5617 -0.2823  0.5347
 5872TIP3    H139107   2.133   3.887   3.932  0.3908 -0.7433 -0.0703
 5872TIP3    H239108   2.081   3.818   3.807  1.4560 -2.5195  0.4527
 5873TIP3   OH239109   5.001   6.329  11.990 -0.2647 -0.2181 -0.0382
 5873TIP3    H139110   4.917   6.345  12.033 -0.3856 -0.3159 -0.2371
 5873TIP3    H239111   5.063   6.314  12.062 -0.3332  0.2643  0.1198
 5874TIP3   OH239112   4.908   2.164  15.088 -0.5211 -0.2473 -0.0584
 5874TIP3    H139113   4.850   2.200  15.155  1.9856 -0.4192  2.3217
 5874TIP3    H239114   4.907   2.070  15.103 -0.7228 -0.3898 -0.9342
 5875TIP3   OH239115   4.101   1.013   4.112 -0.0411 -0.4090 -0.4244
 5875TIP3    H139116   4.124   0.946   4.177  0.7576 -0.0759 -0.3582
 5875TIP3    H239117   4.062   0.963   4.040  1.7604 -1.1203 -0.9529
 5876TIP3   OH239118   6.107   6.770   2.931 -0.0280  0.2101  0.6787
 5876TIP3    H139119   6.183   6.713   2.940 -0.3287 -0.7085 -2.1274
 5876TIP3    H239120   6.135   6.839   2.870 -1.0036  0.6377  0.7015
 5877TIP3   OH239121   6.324   2.371  13.459 -0.6659 -0.1822  0.5153
 5877TIP3    H139122   6.309   2.464  13.440  0.0679 -0.2993 -0.7056
 5877TIP3    H239123   6.362   2.371  13.547  1.3919  0.8833 -0.3207
 5878TIP3   OH239124   5.842   6.589   3.324  0.0234  0.1040 -0.4275
 5878TIP3    H139125   5.883   6.564   3.242 -0.1175  0.3683 -0.5811
 5878TIP3    H239126   5.750   6.605   3.301 -0.5517 -2.0758  0.2133
 5879TIP3   OH239127   3.027   5.021   3.619 -0.4704 -0.3850  0.1627
 5879TIP3    H139128   3.085   4.966   3.672  0.7183  1.7952  1.1975
 5879TIP3    H239129   3.063   5.016   3.531  0.9547  0.4242  0.6696
 5880TIP3   OH239130   5.217   3.327   5.585  0.3532  0.1753  0.4916
 5880TIP3    H139131   5.179   3.251   5.542  0.9410  1.3783 -2.2684
 5880TIP3    H239132   5.311   3.311   5.582  0.4676  0.8942  0.0790
 5881TIP3   OH239133   6.760   3.227  15.207 -0.0803 -0.1216 -0.1854
 5881TIP3    H139134   6.696   3.157  15.193  0.6600 -0.5608 -1.4992
 5881TIP3    H239135   6.790   3.250  15.119  2.5431 -0.8708  0.4724
 5882TIP3   OH239136   4.626   0.917   1.223 -0.0849 -0.0028 -0.2743
 5882TIP3    H139137   4.666   0.984   1.278  0.4357 -1.2099  0.8423
 5882TIP3    H239138   4.692   0.897   1.157 -1.1653  2.3274 -2.1549
 5883TIP3   OH239139   2.058   4.554   3.375  0.4586  0.7021  0.1439
 5883TIP3    H139140   2.013   4.638   3.374 -1.0553 -0.0882  1.0546
 5883TIP3    H239141   1.992   4.491   3.347  1.0212 -0.4615  1.3739
 5884TIP3   OH239142   3.373   0.297   5.133  0.0338  0.6322 -0.0664
 5884TIP3    H139143   3.369   0.333   5.044  0.1340  1.3182  0.2070
 5884TIP3    H239144   3.454   0.246   5.134  0.3704  1.1597 -0.1703
 5885TIP3   OH239145   1.289   5.799  17.187 -0.2836  0.1746  0.2790
 5885TIP3    H139146   1.235   5.784  17.265  0.2578 -0.0220  0.6188
 5885TIP3    H239147   1.254   5.738  17.122 -1.7163  1.3809 -0.1161
 5886TIP3   OH239148   4.482   2.867  11.876  0.1269  0.3009 -0.4419
 5886TIP3    H139149   4.474   2.772  11.886  0.6926  0.2877 -0.0625
 5886TIP3    H239150   4.560   2.879  11.821  0.9340  0.5784  0.7307
 5887TIP3   OH239151   0.816   4.073  11.818  0.3912 -0.0609 -0.4348
 5887TIP3    H139152   0.751   4.124  11.867  0.8093 -1.4938  1.6764
 5887TIP3    H239153   0.823   3.991  11.867  1.3049 -1.2762 -2.5811
 5888TIP3   OH239154   5.165   4.060  16.183 -0.1613  0.1111  0.4150
 5888TIP3    H139155   5.116   4.101  16.254  0.4076 -0.4542  1.1470
 5888TIP3    H239156   5.178   3.970  16.212  0.7130  0.0747 -0.0814
 5889TIP3   OH239157   3.712   4.202  11.750 -0.3073  0.1014 -0.4394
 5889TIP3    H139158   3.672   4.128  11.795 -0.6127  0.3164 -0.3582
 5889TIP3    H239159   3.795   4.167  11.716 -0.0266 -0.0259  0.3832
 5890TIP3   OH239160   4.881   0.095   6.196 -0.2858 -0.1844  0.5943
 5890TIP3    H139161   4.834   0.144   6.263 -3.4307 -2.8536  0.5003
 5890TIP3    H239162   4.891   0.007   6.233  1.7255 -0.5822 -0.7674
 5891TIP3   OH239163   0.764   1.888   1.727  0.1075  0.5390  0.2951
 5891TIP3    H139164   0.833   1.950   1.748 -0.1349  1.5145 -1.6611
 5891TIP3    H239165   0.739   1.850   1.811  2.1411  1.0868  1.1751
 5892TIP3   OH239166   4.383   4.514   5.166 -0.0275  0.1832 -0.1477
 5892TIP3    H139167   4.440   4.442   5.139  0.2340 -0.7020  2.5640
 5892TIP3    H239168   4.303   4.501   5.115  0.9774 -0.4810 -1.6028
 5893TIP3   OH239169   0.073   6.011   1.089  0.7736 -0.0816  0.2717
 5893TIP3    H139170   0.089   6.050   1.003 -0.7767 -2.9665 -1.3941
 5893TIP3    H239171  -0.021   5.993   1.090  0.8633 -0.4953  2.4112
 5894TIP3   OH239172   0.990   1.355  16.124  0.5650 -0.1888 -0.4775
 5894TIP3    H139173   0.948   1.322  16.204  1.9340  0.4056  0.4930
 5894TIP3    H239174   0.997   1.277  16.068  1.7721 -1.1236  0.9267
 5895TIP3   OH239175   3.607   5.131   0.928  0.3370  0.1273 -0.0089
 5895TIP3    H139176   3.512   5.118   0.924  0.4783 -1.1119  0.5240
 5895TIP3    H239177   3.635   5.126   0.837  0.2239 -2.1886  0.0554
 5896TIP3   OH239178   6.374   0.160  15.348 -0.0912  0.0621  0.3431
 5896TIP3    H139179   6.423   0.148  15.429 -1.7573 -2.1191  1.0959
 5896TIP3    H239180   6.407   0.092  15.290 -0.7905 -0.1127  0.1446
 5897TIP3   OH239181   4.909   0.928  11.746  0.4623  0.1608 -0.4741
 5897TIP3    H139182   4.902   1.021  11.768  0.8318  0.4272 -1.4876
 5897TIP3    H239183   4.915   0.925  11.651  0.2402 -0.9192 -0.4663
 5898TIP3   OH239184   5.727   4.160  14.506  0.2544 -0.0755 -0.4065
 5898TIP3    H139185   5.635   4.146  14.528  0.7313  0.1917  1.8849
 5898TIP3    H239186   5.751   4.239  14.554  1.4417  0.3927 -1.7458
 5899TIP3   OH239187   4.828   0.524  13.948 -0.6011 -0.0073  0.1205
 5899TIP3    H139188   4.792   0.564  13.869  0.0773 -0.1594 -0.2681
 5899TIP3    H239189   4.761   0.538  14.015 -1.7339 -1.0102 -0.7896
 5900TIP3   OH239190   4.116   3.638  17.146  0.4883  0.6801  0.7117
 5900TIP3    H139191   4.188   3.668  17.090  0.3879 -0.3424  0.0239
 5900TIP3    H239192   4.138   3.672  17.233 -0.2704  3.8414 -0.2686
 5901TIP3   OH239193   0.195   1.066   2.153  0.2714 -0.0410  0.9349
 5901TIP3    H139194   0.285   1.079   2.184 -0.3088  1.3001  2.1576
 5901TIP3    H239195   0.155   1.010   2.220 -0.6536  1.9021  2.0803
 5902TIP3   OH239196   1.814   1.085  12.374  0.5279  0.2007 -0.7174
 5902TIP3    H139197   1.819   1.012  12.436 -0.7176 -0.3683 -1.2528
 5902TIP3    H239198   1.811   1.043  12.288 -2.8362  0.7221 -0.9238
 5903TIP3   OH239199   6.557   2.047   0.439 -0.3817 -0.1713  0.3045
 5903TIP3    H139200   6.490   1.987   0.406  0.6482 -0.0142 -2.1808
 5903TIP3    H239201   6.594   2.002   0.515 -1.8966 -1.1631  0.4762
 5904TIP3   OH239202   0.901   5.644   4.851  1.0127  0.1905 -0.2395
 5904TIP3    H139203   0.858   5.569   4.810 -0.4227  0.4791  0.7237
 5904TIP3    H239204   0.938   5.693   4.778  0.6266 -0.6264 -0.9884
 5905TIP3   OH239205   5.602   2.999  16.571  0.2312 -0.6454  0.3998
 5905TIP3    H139206   5.535   2.986  16.504  0.3742 -2.8581  0.6705
 5905TIP3    H239207   5.649   3.078  16.543 -0.8981 -0.4888 -1.0957
 5906TIP3   OH239208   2.009   4.110  11.985  0.1745 -0.6103 -0.9890
 5906TIP3    H139209   2.011   4.202  11.956  1.2011 -0.9527 -2.0273
 5906TIP3    H239210   2.099   4.092  12.014 -0.7299 -0.3710  2.2070
 5907TIP3   OH239211   4.151   0.652   4.001  0.4275 -0.5195 -0.6944
 5907TIP3    H139212   4.229   0.679   3.952  2.0073  0.1113  2.0483
 5907TIP3    H239213   4.183   0.589   4.065 -1.2176  0.0881  0.7794
 5908TIP3   OH239214   3.759   0.031  14.759 -0.4563  0.1148 -0.2718
 5908TIP3    H139215   3.837   0.029  14.815  1.3994  3.1008 -2.5570
 5908TIP3    H239216   3.746  -0.061  14.734  1.8847 -0.5462  0.7542
 5909TIP3   OH239217   2.739   4.705   2.248 -0.0815 -0.3537  0.3938
 5909TIP3    H139218   2.781   4.746   2.323 -1.5495 -1.8903  2.0989
 5909TIP3    H239219   2.673   4.768   2.220 -0.7808 -0.5716  1.5561
 5910TIP3   OH239220   5.524   5.654   0.897  0.4022 -0.3016 -0.8738
 5910TIP3    H139221   5.612   5.637   0.865  0.8046  1.7036 -0.9348
 5910TIP3    H239222   5.496   5.732   0.848 -0.5581  0.3495  0.6769
 5911TIP3   OH239223   0.813   6.223   0.058  0.0914 -0.0688 -0.5302
 5911TIP3    H139224   0.827   6.130   0.040  0.3680 -0.0965 -0.1700
 5911TIP3    H239225   0.753   6.251  -0.011 -1.1373 -0.8547  0.1979
 5912TIP3   OH239226   2.471   2.491  12.573 -0.5488 -0.2998  0.2173
 5912TIP3    H139227   2.497   2.405  12.539  0.9608 -0.0228  0.6197
 5912TIP3    H239228   2.398   2.518  12.518  0.1366 -1.0363 -1.0822
 5913TIP3   OH239229   0.477   1.451   5.513  0.5657  0.5879 -0.3892
 5913TIP3    H139230   0.426   1.480   5.588 -1.7445  0.1126 -1.7293
 5913TIP3    H239231   0.496   1.359   5.530  0.6154  0.6588 -0.0682
 5914TIP3   OH239232   6.651   2.435   4.460  0.0525 -0.3372  0.3910
 5914TIP3    H139233   6.695   2.497   4.402  0.0388  1.1131  1.9009
 5914TIP3    H239234   6.712   2.362   4.468  1.0886  0.5351  0.4897
 5915TIP3   OH239235   1.366   0.224  13.449  0.4276  0.4287  0.0310
 5915TIP3    H139236   1.290   0.277  13.473  1.1018  1.2143  0.4510
 5915TIP3    H239237   1.348   0.196  13.359 -0.6390  0.0962  0.3369
 5916TIP3   OH239238   5.479   5.371   4.541  0.2142  0.1663 -0.6274
 5916TIP3    H139239   5.467   5.388   4.448  0.2013  1.6502 -0.3668
 5916TIP3    H239240   5.418   5.430   4.585  1.0871  0.3712  0.3470
 5917TIP3   OH239241   2.563   4.203  13.083  0.1576  0.2071 -0.5008
 5917TIP3    H139242   2.474   4.231  13.061  0.0456 -0.5268 -1.0141
 5917TIP3    H239243   2.555   4.109  13.099  0.5455  0.4333  1.0726
 5918TIP3   OH239244   2.160   6.308   2.426 -0.4698  0.1224 -0.0584
 5918TIP3    H139245   2.214   6.294   2.504  0.2861  0.6601 -0.4794
 5918TIP3    H239246   2.131   6.399   2.433  1.2183  0.7944 -1.3794
 5919TIP3   OH239247   1.191   6.459   4.657  0.3765  0.5733  0.5638
 5919TIP3    H139248   1.194   6.406   4.578  2.3306  0.6547  0.5707
 5919TIP3    H239249   1.172   6.397   4.727  2.9536 -0.2035  0.6185
 5920TIP3   OH239250   5.331   4.216   3.001 -0.3663 -0.1101 -0.3914
 5920TIP3    H139251   5.394   4.172   3.058 -2.9405 -1.2285  1.6965
 5920TIP3    H239252   5.362   4.307   2.997  1.8455 -0.8276 -0.1571
 5921TIP3   OH239253   5.623   2.895   5.003 -0.3343 -0.0438 -0.5075
 5921TIP3    H139254   5.703   2.856   5.039 -0.3268  0.3839 -0.0657
 5921TIP3    H239255   5.585   2.944   5.076 -1.5634 -1.1180 -0.4181
 5922TIP3   OH239256   5.087   5.065   0.144 -0.5581 -0.1906  0.6577
 5922TIP3    H139257   5.055   5.015   0.070  1.4952 -0.7767  0.1440
 5922TIP3    H239258   5.077   5.156   0.118 -1.2226 -0.3760  0.2659
 5923TIP3   OH239259   3.967   3.603  11.987 -0.1361 -0.1702  0.0802
 5923TIP3    H139260   3.982   3.521  12.034  1.9850 -0.0559 -0.3561
 5923TIP3    H239261   3.889   3.641  12.028 -0.3656 -1.7715  1.1407
 5924TIP3   OH239262   0.846   1.593   6.297 -0.1644 -0.0890 -0.2922
 5924TIP3    H139263   0.894   1.592   6.380 -0.4685 -0.8167 -0.1248
 5924TIP3    H239264   0.902   1.545   6.236 -0.0555  0.2335 -0.4496
 5925TIP3   OH239265   0.300   0.989  11.263  0.4574  0.0338 -0.1099
 5925TIP3    H139266   0.297   0.992  11.167  1.3822 -0.2152 -0.1514
 5925TIP3    H239267   0.335   1.075  11.289 -1.9468  0.9924  0.1274
 5926TIP3   OH239268   2.387   2.068  14.997 -0.3379  0.4713  0.4142
 5926TIP3    H139269   2.323   2.049  15.065 -1.4938  0.1096 -0.7626
 5926TIP3    H239270   2.468   2.028  15.028 -1.0266 -0.2867  1.2539
 5927TIP3   OH239271   0.071   3.324  12.808  0.3087 -0.2411  0.4578
 5927TIP3    H139272   0.127   3.264  12.760 -0.0054 -0.2277  0.0789
 5927TIP3    H239273  -0.012   3.278  12.818  0.6314 -0.5643  1.6856
 5928TIP3   OH239274   2.380   5.183   1.502  0.5409 -0.5801  0.4021
 5928TIP3    H139275   2.463   5.139   1.484 -0.3772 -2.2904  0.2612
 5928TIP3    H239276   2.327   5.170   1.423 -0.4461 -0.8932  1.0991
 5929TIP3   OH239277   3.791   0.183  16.581  0.4564 -0.2025  0.4519
 5929TIP3    H139278   3.707   0.196  16.536  0.7233  2.2324  0.6309
 5929TIP3    H239279   3.827   0.104  16.541 -2.2610 -1.7357  0.8947
 5930TIP3   OH239280   2.538   1.088  14.450  0.0632  0.3978 -0.5312
 5930TIP3    H139281   2.623   1.058  14.418  0.2630  0.4769 -0.0677
 5930TIP3    H239282   2.552   1.178  14.477 -0.0851  0.2947 -0.1137
 5931TIP3   OH239283   5.058   6.098  11.212 -0.3708  0.1279 -0.3399
 5931TIP3    H139284   5.070   6.147  11.131 -1.7908  1.9178  0.4918
 5931TIP3    H239285   5.111   6.145  11.277 -0.7861 -0.1327  0.1921
 5932TIP3   OH239286   3.895   1.668   1.796 -0.8004 -1.0711  0.0231
 5932TIP3    H139287   3.928   1.730   1.732  0.7785 -2.4789 -0.5777
 5932TIP3    H239288   3.888   1.717   1.877  2.0405 -0.5183 -0.0393
 5933TIP3   OH239289   3.986   2.474   0.961 -0.4568 -0.2917  0.3088
 5933TIP3    H139290   3.918   2.509   0.903  0.4818 -1.2966 -1.4519
 5933TIP3    H239291   3.938   2.436   1.034 -1.7193  0.2757 -0.2061
 5934TIP3   OH239292   3.318   0.755   1.078  0.4121  0.5985 -0.0849
 5934TIP3    H139293   3.250   0.754   1.145 -0.4111 -0.8322 -0.9200
 5934TIP3    H239294   3.359   0.841   1.087 -0.6739  0.9936  1.2608
 5935TIP3   OH239295   3.734   6.129  14.272 -0.0718  0.0982  1.0171
 5935TIP3    H139296   3.810   6.186  14.283  1.3353 -1.4582 -0.2586
 5935TIP3    H239297   3.769   6.040  14.281 -1.8949 -0.6263  1.2823
 5936TIP3   OH239298   5.754   6.431  11.965  0.4561  0.6499  0.2565
 5936TIP3    H139299   5.849   6.426  11.975  0.4373  2.4340  1.6620
 5936TIP3    H239300   5.723   6.344  11.991  1.6987  0.0344 -0.2614
 5937TIP3   OH239301   0.818   2.498  14.697 -0.4778  0.4240  0.3843
 5937TIP3    H139302   0.895   2.465  14.743  1.5922  2.6321 -1.3699
 5937TIP3    H239303   0.821   2.593  14.710 -1.1323  0.8543 -2.2876
 5938TIP3   OH239304   4.687   3.336  14.750 -0.2762 -0.1448 -0.1381
 5938TIP3    H139305   4.734   3.404  14.703 -0.5046  0.5324  0.5970
 5938TIP3    H239306   4.655   3.277  14.682  0.1235  0.3550 -0.7606
 5939TIP3   OH239307   5.403   0.061   5.607  0.3673  0.5927  0.3486
 5939TIP3    H139308   5.497   0.069   5.621  0.5701  0.5360 -0.8988
 5939TIP3    H239309   5.394   0.055   5.512 -0.9323  1.0646  0.4343
 5940TIP3   OH239310   1.448   1.236  17.266  0.0283  0.0481 -0.2659
 5940TIP3    H139311   1.457   1.307  17.202 -0.1323  0.0278 -0.3110
 5940TIP3    H239312   1.380   1.179  17.229  1.6807 -1.2975 -1.3348
 5941TIP3   OH239313   0.303   3.351  16.381 -0.2933 -0.2533  0.0712
 5941TIP3    H139314   0.221   3.380  16.420  1.6840  0.2222  4.1045
 5941TIP3    H239315   0.331   3.277  16.434  2.0881 -0.1215 -0.9218
 5942TIP3   OH239316   6.389   3.774  10.396  0.0259 -0.2347 -0.1350
 5942TIP3    H139317   6.452   3.757  10.326  1.5802  1.5646  0.8052
 5942TIP3    H239318   6.442   3.787  10.474 -1.2961  3.9133  0.1959
 5943TIP3   OH239319   2.010   1.686   4.556 -0.3664  0.0654  0.1308
 5943TIP3    H139320   2.046   1.629   4.624 -0.7242  0.4325  0.6335
 5943TIP3    H239321   1.950   1.630   4.507  1.0427 -0.6048 -0.8421
 5944TIP3   OH239322   6.515   5.966  15.826 -0.0965 -0.3770  0.5684
 5944TIP3    H139323   6.521   5.994  15.918 -0.0749 -2.2643  1.1716
 5944TIP3    H239324   6.604   5.939  15.804 -0.1049  0.0692 -0.0112
 5945TIP3   OH239325   1.629   2.211   2.321 -0.4539  0.3183  0.2436
 5945TIP3    H139326   1.651   2.304   2.310 -0.1567  0.2411  0.1910
 5945TIP3    H239327   1.535   2.207   2.303 -0.0776  0.2649 -1.7999
 5946TIP3   OH239328   6.647   4.320   0.794 -0.2373 -0.1901 -0.5225
 5946TIP3    H139329   6.575   4.308   0.732  1.5853  1.8588 -3.1910
 5946TIP3    H239330   6.631   4.405   0.834  0.9417  0.5581 -1.5744
 5947TIP3   OH239331   4.255   5.535   2.324 -0.0265 -0.5403  0.0040
 5947TIP3    H139332   4.226   5.456   2.278 -0.5406  0.0109 -0.6208
 5947TIP3    H239333   4.174   5.577   2.352  0.2251  0.0544 -0.1555
 5948TIP3   OH239334   2.836   4.953  13.514 -0.3820 -0.5081  0.3482
 5948TIP3    H139335   2.898   4.959  13.442 -1.5126  2.1678 -0.4873
 5948TIP3    H239336   2.750   4.949  13.472 -0.9179 -1.2976  1.5061
 5949TIP3   OH239337   1.056   4.984   5.317 -0.5677  0.8412  0.1966
 5949TIP3    H139338   1.127   4.933   5.356 -0.3101  0.0826 -1.2150
 5949TIP3    H239339   1.100   5.060   5.278 -0.9099  1.9835  1.9912
 5950TIP3   OH239340   4.922   4.084   1.505 -0.0781 -0.9938  0.0959
 5950TIP3    H139341   4.873   4.038   1.574 -0.0929  0.8624  1.3497
 5950TIP3    H239342   5.011   4.049   1.512  0.5134  0.8988  2.6947
 5951TIP3   OH239343   2.063   5.415  13.376 -0.8655  0.4499 -0.4525
 5951TIP3    H139344   2.064   5.460  13.292  1.8585  0.9952 -0.1640
 5951TIP3    H239345   2.030   5.480  13.438 -1.0009  0.6687 -0.7517
 5952TIP3   OH239346   0.477   0.463   1.464  0.0203 -0.3885 -0.2981
 5952TIP3    H139347   0.462   0.536   1.525  0.9307 -0.3329 -0.1366
 5952TIP3    H239348   0.478   0.385   1.519  1.1687 -0.3052 -0.1992
 5953TIP3   OH239349   1.863   5.304   1.639 -0.5300 -0.2311  0.2144
 5953TIP3    H139350   1.829   5.218   1.663  1.3988 -0.9747  0.3316
 5953TIP3    H239351   1.838   5.314   1.547  0.3099 -1.4585 -0.1637
 5954TIP3   OH239352   4.864   1.251  16.887 -0.5870  0.3140 -0.3881
 5954TIP3    H139353   4.911   1.183  16.839  1.6187  0.6259  1.2118
 5954TIP3    H239354   4.772   1.233  16.871  0.0329 -1.5026 -2.0781
 5955TIP3   OH239355   2.203   2.311  11.177 -0.1072  0.1660 -0.1987
 5955TIP3    H139356   2.227   2.261  11.099  0.0636 -0.1065  0.0257
 5955TIP3    H239357   2.127   2.363  11.150  0.8604  1.2016 -0.9849
 5956TIP3   OH239358   0.861   5.984   5.636  0.0889 -0.5521 -0.4005
 5956TIP3    H139359   0.851   5.911   5.575  0.5914 -1.6404  0.8052
 5956TIP3    H239360   0.948   6.021   5.615 -0.3887  0.0527 -1.3663
 5957TIP3   OH239361   4.456   2.400  11.061 -0.4996 -0.0951  0.1497
 5957TIP3    H139362   4.442   2.309  11.035 -0.1593  0.5642 -2.4446
 5957TIP3    H239363   4.371   2.442  11.046  0.1960  0.6993 -1.8034
 5958TIP3   OH239364   0.997   4.442  15.928 -0.5100 -0.2207  0.3039
 5958TIP3    H139365   0.992   4.377  15.998  1.8517 -0.4397  0.3345
 5958TIP3    H239366   1.040   4.396  15.856 -0.6545  0.7287 -0.3972
 5959TIP3   OH239367   5.673   4.718   3.816  0.3299  0.0316 -0.0665
 5959TIP3    H139368   5.710   4.804   3.798  0.3835 -0.1486 -0.8004
 5959TIP3    H239369   5.594   4.736   3.868  1.2154  0.4374  1.1473
 5960TIP3   OH239370   6.376   0.336   5.329  0.1277  0.2885 -0.3027
 5960TIP3    H139371   6.471   0.344   5.322  0.2668 -0.9722  0.0316
 5960TIP3    H239372   6.346   0.324   5.238  0.3840 -0.2731 -0.3140
 5961TIP3   OH239373   6.252   3.165  13.346 -0.0300  0.2540  0.2925
 5961TIP3    H139374   6.173   3.156  13.292  0.0446  0.8360  0.0796
 5961TIP3    H239375   6.312   3.216  13.292  1.1672 -1.6636 -0.2597
 5962TIP3   OH239376   1.947   1.858   4.318  0.3730  0.0728  0.1543
 5962TIP3    H139377   1.906   1.792   4.263  0.4734  0.5743 -0.5361
 5962TIP3    H239378   2.008   1.810   4.374  0.6529 -0.3853 -0.5398
 5963TIP3   OH239379   6.799   5.349   2.832  0.1392  0.2843 -0.8539
 5963TIP3    H139380   6.884   5.356   2.876  0.6112 -1.6067 -1.4010
 5963TIP3    H239381   6.799   5.260   2.796 -2.1382  0.2142 -0.7171
 5964TIP3   OH239382   5.101   3.717  11.344  0.4447 -0.4825 -0.2550
 5964TIP3    H139383   5.153   3.796  11.327 -0.6919  0.8538  2.2145
 5964TIP3    H239384   5.012   3.750  11.357 -0.0874 -2.2047  0.5547
 5965TIP3   OH239385   2.385   0.303   1.841 -0.2324  0.4729  0.6570
 5965TIP3    H139386   2.335   0.384   1.828 -1.4936 -0.7659 -2.9722
 5965TIP3    H239387   2.464   0.315   1.789 -0.2206 -0.4472  0.4506
 5966TIP3   OH239388   4.793   6.154   1.887 -0.6970  0.5517  0.4025
 5966TIP3    H139389   4.874   6.197   1.859 -0.5799  0.3761  0.4732
 5966TIP3    H239390   4.812   6.121   1.975 -0.7517  0.2532  0.3003
 5967TIP3   OH239391   4.651   3.048  12.312 -0.1873 -0.0139 -0.0678
 5967TIP3    H139392   4.631   3.141  12.311 -1.7507 -0.3089  1.3615
 5967TIP3    H239393   4.586   3.010  12.373  2.1513 -1.6182  1.5060
 5968TIP3   OH239394   1.833   2.870  12.994  0.0307 -0.2326  0.0790
 5968TIP3    H139395   1.895   2.798  12.983 -0.7635 -0.9589  0.3006
 5968TIP3    H239396   1.762   2.833  13.047 -1.0587  0.3162 -0.9765
 5969TIP3   OH239397   0.104   4.591  16.787  0.1220  0.1020 -0.0859
 5969TIP3    H139398   0.159   4.549  16.853 -1.1310 -0.7301  0.4576
 5969TIP3    H239399   0.096   4.526  16.717  2.2061  1.3286 -1.5276
 5970TIP3   OH239400   1.716   2.528   1.764  0.2190 -0.5558  0.3767
 5970TIP3    H139401   1.739   2.552   1.853  2.3797 -0.6447 -0.1102
 5970TIP3    H239402   1.662   2.450   1.773  1.5689 -1.3818  1.5798
 5971TIP3   OH239403   1.986   0.749  15.858  0.4252 -0.5947 -0.2943
 5971TIP3    H139404   1.896   0.720  15.842  0.2812 -1.2409  1.5911
 5971TIP3    H239405   2.015   0.697  15.933  2.2254 -0.0607 -0.5938
 5972TIP3   OH239406   0.873   4.818   5.225 -0.0640 -0.7564 -0.6073
 5972TIP3    H139407   0.911   4.741   5.183 -0.7405 -1.1859 -0.4420
 5972TIP3    H239408   0.948   4.872   5.249  0.3751 -1.0009 -1.4242
 5973TIP3   OH239409   3.580   4.471  16.730 -0.0789  0.7136 -0.4130
 5973TIP3    H139410   3.614   4.404  16.790 -1.8985 -0.2459 -0.4120
 5973TIP3    H239411   3.532   4.531  16.787 -0.8413  0.4342 -0.7460
 5974TIP3   OH239412   6.153   2.186   1.752 -0.2698 -0.0519 -0.3519
 5974TIP3    H139413   6.220   2.190   1.684  1.4017 -0.5745  1.2117
 5974TIP3    H239414   6.159   2.270   1.797  0.9231 -0.9581  1.2251
 5975TIP3   OH239415   2.132   5.426   4.969  0.5752 -0.0596 -0.6110
 5975TIP3    H139416   2.114   5.518   4.987  1.7664  0.4071 -1.7654
 5975TIP3    H239417   2.055   5.396   4.921 -0.1532  0.1205  0.4194
 5976TIP3   OH239418   0.074   0.867   0.664 -0.2216 -0.6292  0.1566
 5976TIP3    H139419   0.138   0.833   0.601 -1.0931 -1.9595 -0.0478
 5976TIP3    H239420   0.114   0.946   0.699  1.6010 -1.5081  0.1389
 5977TIP3   OH239421   3.959   0.996   5.726 -0.1325  0.0728 -0.5736
 5977TIP3    H139422   3.943   1.075   5.777  0.8224 -0.3193  0.3470
 5977TIP3    H239423   4.051   1.003   5.698  0.3936 -1.3877  0.7203
 5978TIP3   OH239424   1.798   1.534   0.178 -0.5904 -0.0418 -0.3594
 5978TIP3    H139425   1.855   1.508   0.250 -0.0621  1.4764 -0.2058
 5978TIP3    H239426   1.846   1.605   0.134 -1.4180 -0.1821 -1.5094
 5979TIP3   OH239427   2.818   1.166   2.328  0.2855 -0.2950  0.1371
 5979TIP3    H139428   2.885   1.228   2.357  0.5435 -0.2753 -0.4935
 5979TIP3    H239429   2.736   1.201   2.364  0.6594 -0.5095  1.2067
 5980TIP3   OH239430   5.395   4.773   3.791 -0.6377  0.1261 -0.0636
 5980TIP3    H139431   5.351   4.727   3.863 -1.0234  0.7262  0.0889
 5980TIP3    H239432   5.376   4.865   3.807  2.0895  0.5295  0.9491
 5981TIP3   OH239433   6.510   5.319   1.876  0.0733  0.0700 -0.0381
 5981TIP3    H139434   6.468   5.289   1.796 -2.9311 -0.5651  1.7114
 5981TIP3    H239435   6.564   5.246   1.904 -2.0688 -1.2853  0.6690
 5982TIP3   OH239436   5.029   0.111   0.960  0.1682 -0.3710  0.1780
 5982TIP3    H139437   5.101   0.143   0.906  0.0561  0.7518  0.6720
 5982TIP3    H239438   5.052   0.020   0.980  1.0932 -0.2362 -0.2648
 5983TIP3   OH239439   5.423   5.486   1.099  0.0992 -0.1320 -0.4431
 5983TIP3    H139440   5.396   5.395   1.087  0.1860 -0.0129 -1.5936
 5983TIP3    H239441   5.453   5.515   1.012  1.3403  0.5834  0.1937
 5984TIP3   OH239442   2.504   3.987   1.578 -0.2206 -0.2457 -0.2195
 5984TIP3    H139443   2.464   3.977   1.665 -1.4491 -1.6266 -0.9344
 5984TIP3    H239444   2.430   3.995   1.518  0.5978 -1.3201 -1.3880
 5985TIP3   OH239445   5.027   4.119  14.453 -0.1868 -0.3287  0.1874
 5985TIP3    H139446   5.038   4.069  14.372 -0.8443 -0.3421  0.1048
 5985TIP3    H239447   5.085   4.194  14.443 -0.5561 -0.1248 -0.4583
 5986TIP3   OH239448   5.230   3.684  16.611  0.4397 -0.1552 -0.2204
 5986TIP3    H139449   5.169   3.753  16.638  0.1713 -0.0345 -1.1054
 5986TIP3    H239450   5.218   3.614  16.676 -0.2843  0.0728 -0.1004
 5987TIP3   OH239451   4.451   6.411   1.596 -0.4842 -0.4683  0.4358
 5987TIP3    H139452   4.506   6.394   1.671  0.5971  2.0227  0.2508
 5987TIP3    H239453   4.462   6.334   1.540  1.0827 -0.9601  1.3991
 5988TIP3   OH239454   1.540   6.468   5.365  0.2514 -0.2675 -0.3794
 5988TIP3    H139455   1.551   6.471   5.270  1.0994  0.9595 -0.2498
 5988TIP3    H239456   1.587   6.389   5.392  2.7050  1.0455 -0.6446
 5989TIP3   OH239457   2.174   2.232   0.843  0.5986 -0.6285 -0.2774
 5989TIP3    H139458   2.182   2.148   0.888 -1.4896  0.0924  1.5137
 5989TIP3    H239459   2.182   2.298   0.912  0.0488  0.5871 -1.3398
 5990TIP3   OH239460   3.415   2.888   3.079 -0.3720  0.2231 -0.3669
 5990TIP3    H139461   3.477   2.848   3.018 -1.2313 -0.1438 -1.0150
 5990TIP3    H239462   3.349   2.929   3.023 -0.5455  0.8851  0.3083
 5991TIP3   OH239463   6.353   3.284   4.339  0.0132  0.3193 -0.1291
 5991TIP3    H139464   6.311   3.255   4.258  0.6237  0.2232 -0.4151
 5991TIP3    H239465   6.441   3.311   4.312 -0.2325  1.5928  0.2740
 5992TIP3   OH239466   2.931   2.059   1.679  0.0583  0.2596 -0.2358
 5992TIP3    H139467   3.023   2.036   1.690 -0.5877 -1.5665  1.6016
 5992TIP3    H239468   2.900   2.002   1.608 -0.5228 -1.7907  1.5950
 5993TIP3   OH239469   3.111   6.785   0.795 -0.1654 -0.2081 -0.1037
 5993TIP3    H139470   3.180   6.722   0.814  0.3129  0.0669 -0.9185
 5993TIP3    H239471   3.142   6.868   0.833 -0.5080 -0.3158  0.4161
 5994TIP3   OH239472   3.666   4.160  14.569  0.0664 -0.6578  0.0356
 5994TIP3    H139473   3.581   4.175  14.610  1.0691  0.7153  1.7373
 5994TIP3    H239474   3.665   4.069  14.542 -1.5142 -0.9655  1.0828
 5995TIP3   OH239475   6.019   2.425  16.393  0.1800 -0.4876  0.7594
 5995TIP3    H139476   6.021   2.377  16.310 -1.7684  0.4415  0.1481
 5995TIP3    H239477   6.092   2.389  16.443  0.4816 -2.0874 -0.7866
 5996TIP3   OH239478   3.018   0.131  15.145  0.9242  0.0526  0.2833
 5996TIP3    H139479   2.955   0.198  15.172  2.4502  1.3922  0.6149
 5996TIP3    H239480   3.066   0.109  15.225 -0.0672 -2.0388  0.3467
 5997TIP3   OH239481   4.882   2.170  15.368 -0.2900 -0.1430  0.0056
 5997TIP3    H139482   4.976   2.151  15.374 -0.0522  1.1007  0.3342
 5997TIP3    H239483   4.858   2.200  15.455 -1.7469 -3.6670  0.8893
 5998TIP3   OH239484   2.469   5.496   6.684 -0.9272  0.5236 -0.1340
 5998TIP3    H139485   2.404   5.509   6.753  0.5210  1.0549  1.1561
 5998TIP3    H239486   2.520   5.420   6.713  2.0431  2.9367  1.2952
 5999TIP3   OH239487   0.996   0.465   6.564  0.2675 -0.0826  0.0431
 5999TIP3    H139488   0.917   0.435   6.520  0.1120  1.1751 -0.5708
 5999TIP3    H239489   0.964   0.513   6.640  0.4012  0.9534 -0.5394
 6000TIP3   OH239490   5.250   3.238   4.500 -0.3276 -0.2414 -0.0167
 6000TIP3    H139491   5.274   3.316   4.551 -0.4965  0.1956 -0.5928
 6000TIP3    H239492   5.316   3.173   4.523 -0.6293 -0.1780  1.0534
 6001TIP3   OH239493   6.523   1.079  11.856  0.4831 -1.2492 -0.1633
 6001TIP3    H139494   6.521   0.984  11.864  0.8810 -1.2105  0.4452
 6001TIP3    H239495   6.434   1.107  11.881 -0.1077 -1.5680 -1.8819
 6002TIP3   OH239496   4.926   5.492   6.150 -0.0962  0.3909 -0.0174
 6002TIP3    H139497   4.960   5.413   6.108 -0.0312  0.4532 -0.0832
 6002TIP3    H239498   4.895   5.463   6.236 -0.8886  0.1272 -0.3826
 6003TIP3   OH239499   5.442   0.585   3.535  0.6293 -0.3229  0.5938
 6003TIP3    H139500   5.444   0.636   3.454  0.0103  0.6795  1.2105
 6003TIP3    H239501   5.369   0.621   3.585  0.8037 -1.1558  1.4635
 6004TIP3   OH239502   3.864   4.256   0.143 -0.0933  0.2687 -0.1127
 6004TIP3    H139503   3.786   4.311   0.136  0.2835  0.6122 -1.8655
 6004TIP3    H239504   3.917   4.298   0.211  0.5223  2.5308 -1.9413
 6005TIP3   OH239505   0.056   4.424   0.145  1.0883 -0.5165 -0.0544
 6005TIP3    H139506   0.120   4.493   0.158 -0.5052  1.1836 -0.9359
 6005TIP3    H239507   0.080   4.356   0.208  2.5256  0.9623  1.0202
 6006TIP3   OH239508   1.649   5.545  12.195  0.2745  0.7463  0.5509
 6006TIP3    H139509   1.572   5.558  12.250 -0.0005  1.2468  0.0557
 6006TIP3    H239510   1.702   5.480  12.242 -0.1735  0.8266  1.1715
 6007TIP3   OH239511   4.889   2.261   5.027 -0.1199 -0.3666  0.2848
 6007TIP3    H139512   4.979   2.281   5.054  0.1456 -0.0391 -0.8102
 6007TIP3    H239513   4.882   2.166   5.036  1.0233 -0.6599 -1.6101
 6008TIP3   OH239514   4.096   5.337   2.805  0.6922 -0.0452 -0.1479
 6008TIP3    H139515   4.164   5.281   2.769  0.7924  0.2540 -0.4228
 6008TIP3    H239516   4.062   5.385   2.729  0.3215 -0.0410  0.0199
 6009TIP3   OH239517   3.260   6.091   6.351 -0.1785  0.5243 -0.3301
 6009TIP3    H139518   3.247   6.008   6.306 -0.9114 -0.1376  1.0588
 6009TIP3    H239519   3.355   6.095   6.367 -0.0424  0.3164 -1.0574
 6010TIP3   OH239520   5.403   1.948   0.110  0.3102 -0.2402 -0.6635
 6010TIP3    H139521   5.463   2.023   0.108 -0.6778  0.6268  0.5225
 6010TIP3    H239522   5.430   1.892   0.038  2.3361  0.2903 -0.3402
 6011TIP3   OH239523   0.242   3.335   3.639  0.1000  0.5024 -0.3567
 6011TIP3    H139524   0.160   3.306   3.598 -0.3350 -1.1363  1.6129
 6011TIP3    H239525   0.223   3.336   3.733  1.8761  1.6518  0.0236
 6012TIP3   OH239526   3.684   1.074  12.734  0.0821  0.1319 -0.6223
 6012TIP3    H139527   3.756   1.138  12.732  1.5624 -1.4283  1.2744
 6012TIP3    H239528   3.699   1.019  12.657 -0.1317  0.9149 -1.2314
 6013TIP3   OH239529   6.258   6.211   3.198  0.9014  0.2034 -0.2971
 6013TIP3    H139530   6.236   6.200   3.106 -0.5831  1.1955 -0.0825
 6013TIP3    H239531   6.188   6.266   3.233  1.5070 -0.0619  1.3961
 6014TIP3   OH239532   4.452   5.166   0.713 -0.4033  0.0163 -0.5144
 6014TIP3    H139533   4.544   5.154   0.691 -0.7649  2.4023 -3.8223
 6014TIP3    H239534   4.414   5.078   0.707  1.8892 -1.2151  2.3602
 6015TIP3   OH239535   1.982   6.102  14.695  0.3859 -0.3050 -0.5181
 6015TIP3    H139536   1.956   6.028  14.750 -1.0698  1.8448  1.7919
 6015TIP3    H239537   1.933   6.090  14.614 -1.9799 -0.4320  0.8882
 6016TIP3   OH239538   5.849   6.397   1.805  0.1231 -0.4819  0.0233
 6016TIP3    H139539   5.778   6.455   1.777 -0.2642 -0.4144  1.1161
 6016TIP3    H239540   5.869   6.345   1.727 -1.1613 -0.5382 -0.2931
 6017TIP3   OH239541   3.852   3.513   5.658  0.2367 -0.2989 -0.0751
 6017TIP3    H139542   3.819   3.435   5.702  0.1765 -0.1278  0.1868
 6017TIP3    H239543   3.842   3.495   5.565 -1.6191  0.1827  0.0161
 6018TIP3   OH239544   6.705   2.135   2.312 -0.4089  0.2685 -0.1643
 6018TIP3    H139545   6.684   2.128   2.405 -0.8179  0.4670 -0.2398
 6018TIP3    H239546   6.720   2.045   2.283 -0.5303  0.1846  0.0350
 6019TIP3   OH239547   1.791   4.245   0.587  0.1688  0.0901  0.2525
 6019TIP3    H139548   1.863   4.208   0.639  1.3428  0.6252 -0.9524
 6019TIP3    H239549   1.766   4.174   0.528  0.0482  0.0649  0.3346
 6020TIP3   OH239550   2.809   3.076  17.005  0.1981 -0.1125 -0.0168
 6020TIP3    H139551   2.871   3.141  16.970 -0.4962  1.3488  1.4025
 6020TIP3    H239552   2.747   3.128  17.056 -1.5177 -1.6986 -0.4415
 6021TIP3   OH239553   1.445   5.405  16.157  0.1177 -0.0827 -0.0134
 6021TIP3    H139554   1.406   5.362  16.233  1.8325  1.1160  1.6095
 6021TIP3    H239555   1.377   5.464  16.125  0.6527  2.4203  3.1453
 6022TIP3   OH239556   2.070   2.902   5.211 -0.1565  0.4310 -0.5823
 6022TIP3    H139557   2.052   2.942   5.126  0.6736 -0.9721 -1.4394
 6022TIP3    H239558   2.158   2.933   5.234  1.1157 -1.9605 -1.9425
 6023TIP3   OH239559   0.017   6.094   0.675  0.5098 -0.2483 -0.2420
 6023TIP3    H139560   0.013   6.186   0.650 -0.6731 -0.5604 -1.2838
 6023TIP3    H239561  -0.058   6.054   0.630  0.5141 -1.5526  0.8779
 6024TIP3   OH239562   3.317   6.227  12.243  0.0295 -0.0536  0.1813
 6024TIP3    H139563   3.370   6.245  12.166  1.4896 -0.4867  1.0594
 6024TIP3    H239564   3.375   6.178  12.301 -1.7076 -1.5786  0.6785
 6025TIP3   OH239565   0.826   1.815   4.611 -0.4698  0.3759 -0.5101
 6025TIP3    H139566   0.921   1.818   4.602 -0.4911  0.2472 -0.7697
 6025TIP3    H239567   0.792   1.825   4.522 -0.6965  0.3295 -0.4299
 6026TIP3   OH239568   0.973   6.237  11.081 -0.4336  0.4952 -0.0164
 6026TIP3    H139569   0.985   6.244  11.176 -0.9980  0.3850  0.0641
 6026TIP3    H239570   0.953   6.326  11.052 -2.2136  0.1971  0.2497
 6027TIP3   OH239571   4.567   5.031  10.931  0.7133  0.2959 -0.8174
 6027TIP3    H139572   4.619   4.951  10.927  0.3283  0.0339 -0.6335
 6027TIP3    H239573   4.490   5.011  10.877  1.7144  1.3594 -2.7159
 6028TIP3   OH239574   1.055   0.550   3.247  0.0998 -0.1459 -0.2954
 6028TIP3    H139575   1.013   0.562   3.162 -1.0661  0.4568  0.3505
 6028TIP3    H239576   1.038   0.458   3.270 -0.3533 -0.0651 -0.3066
 6029TIP3   OH239577   1.576   3.862   4.485  0.0164  0.4215 -0.0506
 6029TIP3    H139578   1.572   3.921   4.560  0.8686  0.7972 -0.2964
 6029TIP3    H239579   1.489   3.821   4.483  0.4021 -0.5504  1.8902
 6030TIP3   OH239580   1.229   5.192   3.927  0.4234 -0.7463 -0.5572
 6030TIP3    H139581   1.204   5.226   3.841  0.4181 -0.4630 -0.4455
 6030TIP3    H239582   1.321   5.218   3.937 -0.1486  0.9680  0.3674
 6031TIP3   OH239583   3.211   6.743  10.849 -0.1920 -0.2087 -0.0558
 6031TIP3    H139584   3.232   6.836  10.862 -0.3500  0.1864 -2.2919
 6031TIP3    H239585   3.293   6.697  10.867  0.8376  0.7095 -2.1834
 6032TIP3   OH239586   0.444   5.105  14.020  0.4643 -0.3699 -0.8272
 6032TIP3    H139587   0.439   5.050  13.942 -0.0538 -0.3357 -0.8209
 6032TIP3    H239588   0.377   5.071  14.078 -1.4937  1.7354 -1.7754
 6033TIP3   OH239589   5.331   1.765  13.849 -0.3547 -0.0678 -0.0421
 6033TIP3    H139590   5.409   1.712  13.830  0.9648  1.1782  1.7325
 6033TIP3    H239591   5.310   1.744  13.940 -2.0409 -0.2742 -0.4605
 6034TIP3   OH239592   2.775   0.257  15.696  0.0797  0.4030 -0.1986
 6034TIP3    H139593   2.777   0.338  15.747  0.1967 -0.0893  0.5698
 6034TIP3    H239594   2.702   0.270  15.635  0.1834  1.1415 -0.1759
 6035TIP3   OH239595   6.761   0.100  12.694 -0.0906  0.1779 -0.3664
 6035TIP3    H139596   6.805   0.114  12.610  0.6745 -0.1179 -0.0215
 6035TIP3    H239597   6.797   0.167  12.752 -0.5149  0.2947 -0.2349
 6036TIP3   OH239598   0.876   4.885   2.805 -0.3790 -0.0022 -0.4601
 6036TIP3    H139599   0.923   4.960   2.768  0.9459 -0.1553  0.8770
 6036TIP3    H239600   0.784   4.912   2.803  0.1255  1.9537  0.5698
 6037TIP3   OH239601   2.319   4.304  15.922 -0.0872  0.4174  0.2749
 6037TIP3    H139602   2.232   4.344  15.912 -0.0398  0.6100  0.6279
 6037TIP3    H239603   2.379   4.371  15.890 -0.0435  0.4196  0.3643
 6038TIP3   OH239604   5.661   0.102   5.627  0.3136 -0.5979 -1.3960
 6038TIP3    H139605   5.688   0.192   5.644 -1.1464 -0.2082 -1.0879
 6038TIP3    H239606   5.663   0.059   5.713 -1.2218 -0.2371 -1.1707
 6039TIP3   OH239607   6.110   4.503  16.318  0.8345 -0.0430  0.2123
 6039TIP3    H139608   6.035   4.527  16.265 -0.4425 -0.3036  1.8646
 6039TIP3    H239609   6.152   4.587  16.340 -0.0597  0.2437  0.8444
 6040TIP3   OH239610   4.565   1.299   5.322  0.3054  0.4250  0.3255
 6040TIP3    H139611   4.626   1.313   5.250 -0.2169 -0.3772 -0.2826
 6040TIP3    H239612   4.515   1.381   5.328  0.4221  0.5271 -0.1600
 6041TIP3   OH239613   1.076   6.647  14.111  0.0814  0.0946 -0.1044
 6041TIP3    H139614   1.151   6.613  14.062 -0.2313 -0.0077 -0.5094
 6041TIP3    H239615   1.000   6.627  14.056 -0.1159  1.3160 -0.2756
 6042TIP3   OH239616   1.584   2.432   2.018 -0.5264  0.1338  0.0361
 6042TIP3    H139617   1.499   2.476   2.025 -0.2431  0.9215 -1.4557
 6042TIP3    H239618   1.619   2.434   2.107 -2.0818 -0.2396  0.6855
 6043TIP3   OH239619   0.033   3.397  14.031 -0.4003  0.5375  0.7193
 6043TIP3    H139620   0.004   3.384  13.941 -2.5157 -0.6208  1.5495
 6043TIP3    H239621   0.039   3.492  14.041 -0.0997  0.6687 -0.6412
 6044TIP3   OH239622   1.770   4.523  13.991 -0.4090 -0.4511 -0.1928
 6044TIP3    H139623   1.846   4.579  14.006 -0.0432 -1.1448  0.5951
 6044TIP3    H239624   1.807   4.435  13.979 -1.0381 -0.6732 -0.5441
 6045TIP3   OH239625   3.666   5.010  11.847 -0.2706  0.1726 -0.1353
 6045TIP3    H139626   3.618   4.979  11.770  0.0763 -0.2563 -0.1824
 6045TIP3    H239627   3.745   4.955  11.850 -0.2507  0.2315  0.4883
 6046TIP3   OH239628   3.525   2.916  12.341 -0.4654  0.1481  0.2868
 6046TIP3    H139629   3.480   2.837  12.372  0.9929 -0.0108  2.1593
 6046TIP3    H239630   3.612   2.884  12.316  0.1342  1.1501  1.0764
 6047TIP3   OH239631   0.319   5.794   3.741  0.1570 -0.1266 -0.2867
 6047TIP3    H139632   0.370   5.834   3.671 -0.0623  0.3322 -0.1879
 6047TIP3    H239633   0.377   5.799   3.818 -0.8912  2.5500  0.4026
 6048TIP3   OH239634   1.038   0.243   1.565  0.1142  0.1800 -0.3781
 6048TIP3    H139635   0.986   0.299   1.623  0.7254 -0.4227  0.7732
 6048TIP3    H239636   0.975   0.209   1.502 -0.9333 -0.6326  1.0682
 6049TIP3   OH239637   3.602   0.738  16.287 -0.5901 -0.1825  0.7883
 6049TIP3    H139638   3.549   0.745  16.207 -1.1766 -0.4119  1.1529
 6049TIP3    H239639   3.668   0.806  16.278 -0.0464 -0.8527 -0.3497
 6050TIP3   OH239640   3.313   2.288   2.513 -0.0419  0.5464  0.1464
 6050TIP3    H139641   3.273   2.374   2.503 -1.1797 -0.0217 -0.2969
 6050TIP3    H239642   3.241   2.226   2.498  1.3813 -0.5297 -2.4730
 6051TIP3   OH239643   3.396   1.099   4.887  0.1649 -0.6845  0.1781
 6051TIP3    H139644   3.339   1.156   4.937  1.7142 -0.4946  1.8037
 6051TIP3    H239645   3.342   1.023   4.866 -0.6172 -0.6281  1.8983
 6052TIP3   OH239646   0.473   4.595  16.830  0.1549 -0.0020 -0.3815
 6052TIP3    H139647   0.441   4.670  16.780 -1.8381  0.4222  1.4581
 6052TIP3    H239648   0.400   4.572  16.887  2.0154 -1.0819  1.6115
 6053TIP3   OH239649   6.785   4.892  12.992  0.6294 -0.2623  0.3821
 6053TIP3    H139650   6.824   4.977  12.972 -0.6548 -0.0487 -1.3001
 6053TIP3    H239651   6.700   4.913  13.031 -0.7012 -0.7378 -2.1202
 6054TIP3   OH239652   5.158   0.300  14.262  0.1427 -0.3683  0.0807
 6054TIP3    H139653   5.240   0.285  14.214 -0.3566 -1.1401 -0.5353
 6054TIP3    H239654   5.096   0.239  14.223 -0.1074 -1.4587  2.1686
 6055TIP3   OH239655   5.289   4.905   0.214 -0.0976 -0.3058  0.6565
 6055TIP3    H139656   5.216   4.967   0.210  0.5149  0.4128  0.7640
 6055TIP3    H239657   5.316   4.905   0.305  1.0431  0.5762  0.3181
 6056TIP3   OH239658   1.848   3.004  17.009  0.5631 -0.4093  0.1533
 6056TIP3    H139659   1.812   3.078  17.057 -0.5055 -1.9911  1.8794
 6056TIP3    H239660   1.939   3.027  16.992  0.6879  0.5990  2.1185
 6057TIP3   OH239661   3.213   3.580  13.512 -0.0050 -0.1662 -0.2502
 6057TIP3    H139662   3.267   3.577  13.591  0.9039 -1.4898 -0.9043
 6057TIP3    H239663   3.169   3.665  13.516  2.2573  1.0127  0.1978
 6058TIP3   OH239664   5.339   2.178   1.330 -0.5164  0.6939 -0.1613
 6058TIP3    H139665   5.348   2.126   1.410  0.1135  1.0805  0.0237
 6058TIP3    H239666   5.365   2.120   1.260 -0.7220  0.4657 -0.0499
 6059TIP3   OH239667   2.974   3.996  12.590 -0.5593 -0.6259 -0.3453
 6059TIP3    H139668   2.911   4.066  12.571 -1.5855 -1.4445 -0.0214
 6059TIP3    H239669   3.057   4.029  12.557 -1.3648  0.0319 -1.7635
 6060TIP3   OH239670   6.690   4.354   4.024 -0.5383 -0.6111  0.4145
 6060TIP3    H139671   6.625   4.283   4.025  0.5105 -1.6843 -1.7643
 6060TIP3    H239672   6.747   4.335   4.098 -1.0642 -1.2667  0.6603
 6061TIP3   OH239673   1.022   0.364  12.992  0.2147 -0.0148  0.2197
 6061TIP3    H139674   1.103   0.313  13.001  1.1275  1.8536  2.9998
 6061TIP3    H239675   1.051   0.451  12.965 -1.1248 -0.0843 -1.5539
 6062TIP3   OH239676   5.182   0.068   4.249  0.2074 -0.0323  0.2212
 6062TIP3    H139677   5.246   0.063   4.320 -0.4765 -1.8729  0.7330
 6062TIP3    H239678   5.114   0.004   4.273 -0.9112  0.5934 -1.2095
 6063TIP3   OH239679   1.363   3.488  17.113 -0.5039  0.8607 -0.3011
 6063TIP3    H139680   1.370   3.420  17.181  0.6346  0.8974 -0.3675
 6063TIP3    H239681   1.438   3.546  17.129 -1.8273  2.4748  0.1444
 6064TIP3   OH239682   2.008   0.151  16.970 -0.2878  0.0885  0.1310
 6064TIP3    H139683   2.098   0.182  16.979 -0.7346  1.1530  1.0020
 6064TIP3    H239684   1.984   0.121  17.057 -0.6563 -0.5560 -0.1877
 6065TIP3   OH239685   2.097   5.512   6.296  0.5331  0.0399 -0.2447
 6065TIP3    H139686   2.031   5.581   6.301  0.6631  0.3137 -1.9927
 6065TIP3    H239687   2.050   5.437   6.261  0.8388 -0.1709 -0.2036
 6066TIP3   OH239688   1.545   3.040  16.380  0.5252 -0.2424 -0.6271
 6066TIP3    H139689   1.540   2.972  16.448  0.3071  0.8737  0.4737
 6066TIP3    H239690   1.598   2.999  16.311  1.3806 -1.1343  0.5124
 6067TIP3   OH239691   2.014   1.130  15.345  0.4497  0.2870 -0.3905
 6067TIP3    H139692   1.948   1.144  15.277  1.3554  1.1707 -1.1129
 6067TIP3    H239693   1.997   1.198  15.410 -0.6074 -0.7500  0.4182
 6068TIP3   OH239694   3.093   6.263   6.211 -0.5041 -0.4289 -0.2891
 6068TIP3    H139695   3.163   6.208   6.246  0.7569  1.1211 -0.3430
 6068TIP3    H239696   3.066   6.318   6.284 -0.9447 -0.2985 -0.5480
 6069TIP3   OH239697   0.860   1.835   4.063 -0.0452  0.9377 -0.5231
 6069TIP3    H139698   0.876   1.751   4.019  0.8217 -0.8518  2.9586
 6069TIP3    H239699   0.897   1.901   4.005  1.4169 -1.3392 -2.2689
 6070TIP3   OH239700   3.570   4.909   1.168  0.2832  0.1269 -0.4472
 6070TIP3    H139701   3.572   4.932   1.261  0.7375 -0.2009 -0.3718
 6070TIP3    H239702   3.491   4.950   1.135 -0.8400 -1.2605  0.4835
 6071TIP3   OH239703   6.428   1.441  10.712  0.6004  0.4642  1.1630
 6071TIP3    H139704   6.487   1.514  10.691 -0.4524  1.4355  1.5475
 6071TIP3    H239705   6.341   1.480  10.710  0.0074 -0.8581  1.0949
 6072TIP3   OH239706   6.434   4.059   5.949  0.0976 -0.6285 -0.2923
 6072TIP3    H139707   6.362   4.108   5.907  0.2181 -1.3784 -1.3982
 6072TIP3    H239708   6.476   4.123   6.006 -1.4435 -0.1645  0.3709
 6073TIP3   OH239709   1.254   4.998   0.887  0.1082 -0.7961  0.6548
 6073TIP3    H139710   1.318   4.930   0.906  0.4435 -0.9477 -0.9695
 6073TIP3    H239711   1.289   5.077   0.930  1.3566 -0.8889 -0.1626
 6074TIP3   OH239712   6.153   4.122  12.976 -0.4456  0.0742  0.3099
 6074TIP3    H139713   6.226   4.168  13.019  0.3418 -0.8513 -0.0073
 6074TIP3    H239714   6.110   4.073  13.046  0.9749 -1.6139  0.0404
 6075TIP3   OH239715   5.716   0.752   2.392  0.0913 -0.0355  0.9208
 6075TIP3    H139716   5.746   0.804   2.466  0.8799  1.8894 -0.7382
 6075TIP3    H239717   5.792   0.700   2.366 -0.6474 -1.9786  2.4680
 6076TIP3   OH239718   1.249   0.729   6.540 -0.0293 -0.2392 -0.2995
 6076TIP3    H139719   1.307   0.677   6.485  1.4521  0.6196  0.4288
 6076TIP3    H239720   1.245   0.681   6.623 -0.7505 -0.5487 -0.5110
 6077TIP3   OH239721   0.555   4.727   2.373  0.1169  0.3252  0.1048
 6077TIP3    H139722   0.612   4.664   2.329 -0.0559  0.8254 -0.8545
 6077TIP3    H239723   0.506   4.768   2.302 -0.7450  0.5769  0.8441
 6078TIP3   OH239724   2.580   0.418   1.278  0.1295  0.6787 -0.7351
 6078TIP3    H139725   2.550   0.472   1.205 -1.3507  1.4109  0.3768
 6078TIP3    H239726   2.599   0.481   1.348 -0.0464 -0.1166  0.0467
 6079TIP3   OH239727   3.086   5.012  10.744  0.2511 -0.0476  0.5328
 6079TIP3    H139728   3.080   5.050  10.656  0.3600 -1.4001 -0.0740
 6079TIP3    H239729   3.004   4.963  10.754 -0.3214  1.1160  1.6905
 6080TIP3   OH239730   2.440   3.169  10.847 -0.3734 -0.0657 -0.3640
 6080TIP3    H139731   2.425   3.110  10.921  2.5283  0.3084  0.5919
 6080TIP3    H239732   2.355   3.209  10.830 -1.9476 -3.0352  0.2482
 6081TIP3   OH239733   1.369   6.796  13.744  0.1188  0.0024 -0.6875
 6081TIP3    H139734   1.341   6.751  13.664  0.3232  0.0452 -0.7849
 6081TIP3    H239735   1.451   6.838  13.719  1.5227 -2.0762  0.2525
 6082TIP3   OH239736   0.741   2.950  13.763 -0.2063 -0.5160 -0.4199
 6082TIP3    H139737   0.707   2.874  13.809 -0.0876 -1.0028 -1.1326
 6082TIP3    H239738   0.817   2.978  13.815 -0.3516 -0.7863 -0.0691
 6083TIP3   OH239739   6.334   3.798   5.060  0.1077  0.5126  0.1666
 6083TIP3    H139740   6.260   3.791   5.121  1.1662 -0.6134  1.3434
 6083TIP3    H239741   6.390   3.865   5.099  1.3443 -1.0190  1.0279
 6084TIP3   OH239742   1.467   1.484  11.873  0.5272 -0.1225 -0.1904
 6084TIP3    H139743   1.373   1.501  11.879  0.2189 -1.7556  0.0301
 6084TIP3    H239744   1.508   1.568  11.889 -0.8922  0.4857  0.3526
 6085TIP3   OH239745   5.555   2.597   5.398  1.1721 -0.4354 -0.0719
 6085TIP3    H139746   5.484   2.580   5.460  0.4361  0.6013 -0.6107
 6085TIP3    H239747   5.512   2.637   5.323  2.2727 -0.2115 -0.5875
 6086TIP3   OH239748   3.382   3.706   0.126  0.3113 -0.2730 -0.1665
 6086TIP3    H139749   3.438   3.645   0.077 -1.3635 -1.4369 -0.6611
 6086TIP3    H239750   3.294   3.668   0.120 -0.4598  1.2881  1.0033
 6087TIP3   OH239751   5.215   3.930   0.828 -0.5010  0.3233  0.2210
 6087TIP3    H139752   5.299   3.974   0.816 -0.6056  0.8383  1.3504
 6087TIP3    H239753   5.150   3.994   0.801 -0.7047  1.2614  2.7464
 6088TIP3   OH239754   0.796   3.042  11.570 -0.3182 -0.1023 -0.5144
 6088TIP3    H139755   0.757   3.091  11.497  1.1282  1.5487 -0.1993
 6088TIP3    H239756   0.740   3.064  11.645 -1.3223 -1.1594 -0.9365
 6089TIP3   OH239757   2.122   5.776  12.037  1.0742  0.2852 -0.0931
 6089TIP3    H139758   2.049   5.787  12.098  1.4588  0.8430  0.2849
 6089TIP3    H239759   2.090   5.809  11.954  1.4578  2.2588  0.4890
 6090TIP3   OH239760   0.799   1.416   3.268  0.0700 -0.4411  0.1213
 6090TIP3    H139761   0.781   1.483   3.202 -0.4340 -0.7330 -0.0410
 6090TIP3    H239762   0.869   1.453   3.322 -0.9761  0.6927  0.7179
 6091TIP3   OH239763   5.557   1.007  15.975 -0.3864  0.0023  0.3230
 6091TIP3    H139764   5.591   0.982  15.889  0.4644 -2.9464  1.4619
 6091TIP3    H239765   5.551   0.925  16.024 -1.8270  1.4864  2.7627
 6092TIP3   OH239766   3.671   1.250   5.159  0.2103 -0.1549 -0.2718
 6092TIP3    H139767   3.763   1.259   5.185  0.4488  0.0041 -1.1857
 6092TIP3    H239768   3.655   1.156   5.164  0.4423 -0.1916 -0.1827
 6093TIP3   OH239769   1.811   6.055   4.873  0.1388  0.4509  0.1618
 6093TIP3    H139770   1.798   6.149   4.882  0.0204  0.3201  1.3707
 6093TIP3    H239771   1.782   6.035   4.784  1.5979  1.8062 -0.6554
 6094TIP3   OH239772   6.686   3.467   5.413  0.0919 -0.2551 -0.0003
 6094TIP3    H139773   6.724   3.412   5.482 -0.3045  0.0987  0.5116
 6094TIP3    H239774   6.592   3.464   5.429  0.0250  0.1172 -0.3089
 6095TIP3   OH239775   2.837   0.918   5.302 -0.1359  0.1042  0.2827
 6095TIP3    H139776   2.831   1.001   5.349 -1.0121  0.7473 -0.9325
 6095TIP3    H239777   2.783   0.931   5.224  0.9763 -1.0784 -0.6955
 6096TIP3   OH239778   2.446   1.347   1.265 -0.0528 -0.0287  0.1567
 6096TIP3    H139779   2.390   1.423   1.249  0.2841  0.0822 -0.5440
 6096TIP3    H239780   2.533   1.384   1.280  0.1781 -0.2895 -0.5159
 6097TIP3   OH239781   3.492   2.586   1.473  0.3850 -0.1514 -0.1164
 6097TIP3    H139782   3.535   2.649   1.416 -0.7929  1.1949  0.4565
 6097TIP3    H239783   3.411   2.564   1.427  0.2606 -0.3886  0.2135
 6098TIP3   OH239784   2.394   2.010   2.728  0.1402 -0.7265  0.1732
 6098TIP3    H139785   2.407   1.996   2.635 -0.0905  0.9877 -0.1467
 6098TIP3    H239786   2.415   2.103   2.741 -0.6446 -0.7402  1.6673
 6099TIP3   OH239787   3.558   4.815  15.550  0.1623  0.0661  0.4673
 6099TIP3    H139788   3.593   4.744  15.496  1.9532  0.8734  0.5202
 6099TIP3    H239789   3.579   4.790  15.640  0.1130  0.2776  0.5381
 6100TIP3   OH239790   2.457   3.400  12.457 -0.0079 -0.2892  0.1390
 6100TIP3    H139791   2.459   3.312  12.421 -4.4018 -0.2824 -0.3824
 6100TIP3    H239792   2.450   3.388  12.552  2.1371 -0.4070  0.3093
 6101TIP3   OH239793   0.008   5.450  10.721  0.2923  0.2132 -0.3306
 6101TIP3    H139794  -0.015   5.368  10.767 -0.7094 -0.3621 -1.8189
 6101TIP3    H239795   0.065   5.422  10.650  1.0268  0.9883 -0.0495
 6102TIP3   OH239796   3.626   6.793  14.090 -0.1710  0.0743 -0.1129
 6102TIP3    H139797   3.625   6.814  13.997  0.3358  1.0390  0.1011
 6102TIP3    H239798   3.674   6.865  14.131 -2.1379  0.7035  1.1494
 6103TIP3   OH239799   3.693   2.227   1.628  0.0412 -0.2902 -0.5030
 6103TIP3    H139800   3.781   2.202   1.601  0.0070 -0.5862 -0.3419
 6103TIP3    H239801   3.639   2.214   1.550 -0.0804 -1.2633 -0.2598
 6104TIP3   OH239802   6.330   1.420  15.995  0.0423 -0.3121  0.3027
 6104TIP3    H139803   6.316   1.420  16.090  0.0372  0.6085  0.3134
 6104TIP3    H239804   6.423   1.401  15.985 -0.2035 -1.6145  0.4388
 6105TIP3   OH239805   1.534   5.422   0.121 -0.2618 -0.1012  0.8609
 6105TIP3    H139806   1.574   5.502   0.086 -2.1582 -0.2528 -1.8567
 6105TIP3    H239807   1.505   5.446   0.209 -0.4436  2.1188  0.2272
 6106TIP3   OH239808   3.315   0.973   2.359  0.4696  0.2488 -0.3383
 6106TIP3    H139809   3.225   0.955   2.332  0.6869  1.3306 -1.8096
 6106TIP3    H239810   3.369   0.918   2.302  0.7953  0.3279 -0.1109
 6107TIP3   OH239811   5.461   1.432   3.481 -0.4058 -1.0933 -0.0506
 6107TIP3    H139812   5.549   1.468   3.493 -0.6608 -0.6045  0.4047
 6107TIP3    H239813   5.438   1.455   3.391 -0.0928 -1.1621 -0.1486
 6108TIP3   OH239814   0.727   0.394  16.753 -0.2043 -0.4031  0.1449
 6108TIP3    H139815   0.713   0.309  16.711 -0.7521  0.1200 -0.7564
 6108TIP3    H239816   0.715   0.458  16.682 -1.8694  0.5461  1.2435
 6109TIP3   OH239817   2.966   3.466  10.837 -0.7386 -0.1684 -0.5868
 6109TIP3    H139818   2.949   3.555  10.868 -1.5793 -0.6248  0.2678
 6109TIP3    H239819   3.062   3.460  10.832 -0.6301  0.2826  0.8177
 6110TIP3   OH239820   2.658   6.118  12.683 -0.0968 -0.0518 -0.0865
 6110TIP3    H139821   2.699   6.038  12.649 -0.3841 -0.9107  1.5461
 6110TIP3    H239822   2.717   6.148  12.752 -1.3481 -0.3702  1.1476
 6111TIP3   OH239823   3.362   5.768   4.980  0.1290 -0.0202 -0.2972
 6111TIP3    H139824   3.418   5.731   5.049 -0.4068 -1.1193 -0.4369
 6111TIP3    H239825   3.417   5.767   4.902 -0.7957 -3.3387 -0.9965
 6112TIP3   OH239826   6.184   5.599  10.597  0.9740  0.2356  0.0383
 6112TIP3    H139827   6.182   5.693  10.580  1.8416  0.1349 -0.6356
 6112TIP3    H239828   6.155   5.591  10.688  0.4938  1.1130 -0.0256
 6113TIP3   OH239829   3.858   2.337  12.948  0.5297  0.3237  0.0954
 6113TIP3    H139830   3.816   2.325  13.033  0.1516  2.5794  0.2667
 6113TIP3    H239831   3.835   2.427  12.923  2.9295  0.6292 -1.1180
 6114TIP3   OH239832   5.052   4.348   4.479 -0.1734 -0.6266  0.3386
 6114TIP3    H139833   5.095   4.343   4.394  1.3655  0.3396  1.0285
 6114TIP3    H239834   5.014   4.261   4.491  1.2555 -1.3952 -0.4966
 6115TIP3   OH239835   3.278   5.805  16.546  0.1630  0.5168 -0.2028
 6115TIP3    H139836   3.194   5.811  16.500 -0.0988  0.1607  0.2182
 6115TIP3    H239837   3.334   5.757  16.486  0.2204  1.1911 -0.6968
 6116TIP3   OH239838   6.666   4.148  11.962  0.4337 -0.1665 -0.3132
 6116TIP3    H139839   6.673   4.211  12.033  0.5643  0.0100 -0.4812
 6116TIP3    H239840   6.713   4.189  11.889  1.3798 -0.8804 -0.1226
 6117TIP3   OH239841   1.371   4.854   0.494 -0.5908  0.1056 -0.1308
 6117TIP3    H139842   1.276   4.858   0.487 -0.5671  0.8242 -0.0915
 6117TIP3    H239843   1.399   4.946   0.495  0.1538 -0.1106 -0.8675
 6118TIP3   OH239844   0.460   6.770  13.884 -0.4585 -0.6487  0.7315
 6118TIP3    H139845   0.514   6.692  13.899 -0.1613 -0.6819 -0.4466
 6118TIP3    H239846   0.523   6.840  13.869 -0.7263 -0.7589 -1.0191
 6119TIP3   OH239847   4.147   6.252   1.400 -0.0955 -0.0938 -0.6393
 6119TIP3    H139848   4.146   6.246   1.304  2.2305 -1.3492 -0.6106
 6119TIP3    H239849   4.115   6.166   1.429  1.1561 -0.4356 -0.2825
 6120TIP3   OH239850   2.952   4.548   2.951  0.2778 -0.1431  0.0748
 6120TIP3    H139851   2.891   4.483   2.916  0.4699  0.6989 -1.8824
 6120TIP3    H239852   2.937   4.626   2.898  1.9955  0.5458  0.5702
 6121TIP3   OH239853   4.646   5.812  11.720  0.0567  0.3676  0.1824
 6121TIP3    H139854   4.732   5.776  11.700  0.2139  1.2086 -0.6625
 6121TIP3    H239855   4.591   5.785  11.646 -0.2499  0.3926  0.4003
 6122TIP3   OH239856   4.685   0.887   0.779  0.1179 -0.6783 -0.2740
 6122TIP3    H139857   4.655   0.808   0.822 -1.2397 -0.1482 -0.2428
 6122TIP3    H239858   4.650   0.881   0.690 -2.7480  1.4007  0.6503
 6123TIP3   OH239859   6.334   5.784  16.241 -0.0627  0.0888  0.2323
 6123TIP3    H139860   6.272   5.816  16.306  1.8024 -0.5877  2.4121
 6123TIP3    H239861   6.280   5.757  16.167 -2.2595  0.5877  1.6292
 6124TIP3   OH239862   6.238   4.665   0.173 -0.1473  0.0548 -0.6708
 6124TIP3    H139863   6.173   4.660   0.244  1.1490 -0.6060  0.4967
 6124TIP3    H239864   6.288   4.744   0.192  1.3947 -1.1049  0.2316
 6125TIP3   OH239865   6.118   5.213  14.460  0.3118 -0.1081  0.8461
 6125TIP3    H139866   6.086   5.242  14.374  1.9814  1.5298  0.7386
 6125TIP3    H239867   6.177   5.140  14.440  0.6609  0.2394  0.5806
 6126TIP3   OH239868   4.926   6.341  17.010 -0.1154 -0.1656  0.1146
 6126TIP3    H139869   4.992   6.279  16.979  1.6133  2.4891 -1.7504
 6126TIP3    H239870   4.858   6.339  16.943  0.9554  1.4519 -1.0603
 6127TIP3   OH239871   4.529   3.844  14.965  0.3205  0.0296  0.1305
 6127TIP3    H139872   4.443   3.873  14.997 -0.1305 -1.8157  0.6777
 6127TIP3    H239873   4.533   3.751  14.989  2.3719  0.0279 -0.1121
 6128TIP3   OH239874   4.386   3.405  14.795  0.3826  0.0601 -0.1120
 6128TIP3    H139875   4.373   3.497  14.770 -0.9328 -0.0874 -0.0209
 6128TIP3    H239876   4.481   3.395  14.800  0.5998  0.9170 -1.9875
 6129TIP3   OH239877   1.178   5.720   6.449  0.3813  0.5922  0.4750
 6129TIP3    H139878   1.173   5.629   6.421  0.0075  0.8172 -0.2055
 6129TIP3    H239879   1.257   5.724   6.504  3.1080  0.8289 -3.2472
 6130TIP3   OH239880   5.182   0.767   4.569 -0.3706  0.4588  0.2198
 6130TIP3    H139881   5.247   0.790   4.636 -0.3256  0.8349  0.0489
 6130TIP3    H239882   5.204   0.677   4.545 -0.3483  0.3413  0.6636
 6131TIP3   OH239883   4.562   5.092  14.567 -0.3284  0.4269  0.4982
 6131TIP3    H139884   4.531   5.080  14.656  1.1837  0.0959  0.9875
 6131TIP3    H239885   4.482   5.099  14.514 -1.2371  1.4682  1.9759
 6132TIP3   OH239886   6.295   0.704   1.495 -0.3396  0.5613  0.5774
 6132TIP3    H139887   6.337   0.726   1.411 -2.1404 -1.4921 -0.9263
 6132TIP3    H239888   6.310   0.781   1.550  0.1819  2.3144 -1.9075
 6133TIP3   OH239889   5.315   1.723  11.723 -0.1218 -0.0244  0.2941
 6133TIP3    H139890   5.410   1.723  11.735 -0.3511  0.5719  2.3658
 6133TIP3    H239891   5.293   1.631  11.709  0.8054 -0.1170 -0.6153
 6134TIP3   OH239892   2.701   3.110   5.053  0.3741  0.4947  0.2985
 6134TIP3    H139893   2.760   3.056   5.106  0.3797  1.5727  1.3981
 6134TIP3    H239894   2.758   3.164   4.999  0.3713 -0.9789 -1.2384
 6135TIP3   OH239895   4.252   1.610  15.156 -0.2223 -1.0271  0.3250
 6135TIP3    H139896   4.204   1.628  15.076 -1.3065 -3.6898  0.3172
 6135TIP3    H239897   4.340   1.643  15.140 -1.6466  2.6929 -0.1702
 6136TIP3   OH239898   5.333   2.103  12.758 -0.2644 -0.2138 -0.0917
 6136TIP3    H139899   5.379   2.019  12.765 -0.7380 -0.6399 -1.7972
 6136TIP3    H239900   5.338   2.140  12.846  0.3305 -1.8279  0.5839
 6137TIP3   OH239901   5.551   1.328   1.921 -0.0706 -0.0848  0.1237
 6137TIP3    H139902   5.554   1.247   1.871 -0.5603 -0.2385  0.3374
 6137TIP3    H239903   5.470   1.370   1.894  0.5881  0.7310 -0.5919
 6138TIP3   OH239904   2.771   5.825   3.285 -0.0496  0.0917 -0.2732
 6138TIP3    H139905   2.798   5.858   3.200 -0.2893 -1.5412 -1.0092
 6138TIP3    H239906   2.711   5.891   3.319  1.6871  1.7557 -0.4313
 6139TIP3   OH239907   4.805   1.830   4.482  0.0111 -0.1014  0.0896
 6139TIP3    H139908   4.884   1.865   4.440  0.3728 -0.1027  0.7639
 6139TIP3    H239909   4.761   1.906   4.519 -0.0770 -0.1550  0.0966
 6140TIP3   OH239910   6.486   5.111   6.043  0.5074  0.4044  0.5029
 6140TIP3    H139911   6.393   5.124   6.024  0.4230 -1.2450 -0.3090
 6140TIP3    H239912   6.505   5.172   6.114 -1.0012  1.3207  0.1365
 6141TIP3   OH239913   2.628   0.623   1.607 -0.6202 -0.7837  0.3146
 6141TIP3    H139914   2.719   0.645   1.590 -0.6541 -1.6402 -1.0898
 6141TIP3    H239915   2.581   0.706   1.604  0.3676 -0.0880  2.9343
 6142TIP3   OH239916   6.160   6.712   3.385 -0.2232 -0.7176  0.1136
 6142TIP3    H139917   6.119   6.796   3.406  2.5806  0.9242 -0.7555
 6142TIP3    H239918   6.143   6.656   3.461 -1.5398  0.8299  0.9760
 6143TIP3   OH239919   3.300   1.913  13.075  0.1131 -0.2359 -0.5918
 6143TIP3    H139920   3.244   1.924  12.998 -0.8148  0.5048  0.1585
 6143TIP3    H239921   3.239   1.895  13.147  0.8969 -0.1466  0.1121
 6144TIP3   OH239922   6.437   2.157   3.913  0.0718 -0.4561 -0.4797
 6144TIP3    H139923   6.473   2.078   3.954 -0.9804 -0.4313  0.5321
 6144TIP3    H239924   6.513   2.201   3.876  1.2524  0.0399  2.3696
 6145TIP3   OH239925   4.490   0.224  10.713  0.2361  0.7250 -0.0427
 6145TIP3    H139926   4.486   0.310  10.670  1.2696  0.4917 -0.6054
 6145TIP3    H239927   4.488   0.161  10.642  0.2424  0.2916  0.3414
 6146TIP3   OH239928   2.327   2.127  16.096  0.3512  0.3215  0.1150
 6146TIP3    H139929   2.246   2.108  16.143  0.8554 -1.3250  0.3464
 6146TIP3    H239930   2.392   2.068  16.135  1.7550  1.8369  0.1619
 6147TIP3   OH239931   6.222   2.357  12.284  0.0914  0.4845  0.5739
 6147TIP3    H139932   6.144   2.303  12.296  0.1537 -0.0857 -1.4721
 6147TIP3    H239933   6.295   2.296  12.297  0.2105  0.9316  2.0883
 6148TIP3   OH239934   3.622   4.750  15.823 -0.3000  0.4596  0.0335
 6148TIP3    H139935   3.659   4.666  15.796 -2.0437 -0.3928  0.2534
 6148TIP3    H239936   3.697   4.799  15.856  1.0414 -0.3453 -1.6910
 6149TIP3   OH239937   3.750   3.019  14.291 -0.4670  0.0625  0.0887
 6149TIP3    H139938   3.793   2.944  14.249 -0.8939 -0.1811  0.0778
 6149TIP3    H239939   3.778   3.095  14.239 -0.7506 -0.2009 -0.4597
 6150TIP3   OH239940   2.384   3.002   6.488 -0.4847  0.5543 -0.5253
 6150TIP3    H139941   2.471   3.015   6.526 -1.3575  2.5119  0.9206
 6150TIP3    H239942   2.367   3.084   6.441 -1.4765  0.1076 -0.9502
 6151TIP3   OH239943   6.606   6.409  10.891 -0.0105 -0.2381 -0.6320
 6151TIP3    H139944   6.700   6.419  10.875 -0.1473  1.2524 -0.5729
 6151TIP3    H239945   6.565   6.433  10.808 -0.3412 -1.1010 -0.7289
 6152TIP3   OH239946   0.466   2.609   1.920  0.3520 -0.3904 -0.4418
 6152TIP3    H139947   0.385   2.598   1.970  1.2159 -0.4586  0.9443
 6152TIP3    H239948   0.535   2.573   1.976  1.2688 -0.9039 -1.8795
 6153TIP3   OH239949   1.779   2.324   1.029 -0.1425  0.3248  0.2794
 6153TIP3    H139950   1.704   2.295   1.082 -0.0188 -1.0193 -0.2553
 6153TIP3    H239951   1.742   2.337   0.942  0.3990 -1.1929 -0.1958
 6154TIP3   OH239952   0.816   2.431   5.173 -0.4943 -0.2160  0.4291
 6154TIP3    H139953   0.876   2.356   5.179  0.3551  0.5085  1.1557
 6154TIP3    H239954   0.767   2.417   5.092 -2.4416 -3.1144  1.9961
 6155TIP3   OH239955   4.691   1.358   2.899  0.9549  0.4063 -0.6730
 6155TIP3    H139956   4.626   1.347   2.829  2.0983 -0.6560 -1.6045
 6155TIP3    H239957   4.736   1.440   2.877  0.6709  0.5773 -0.6279
 6156TIP3   OH239958   2.326   1.587   1.251  0.2951 -0.1309 -0.0056
 6156TIP3    H139959   2.260   1.653   1.230 -0.2851  0.2095  2.7154
 6156TIP3    H239960   2.392   1.633   1.303 -0.4900 -1.7841  2.5704
 6157TIP3   OH239961   5.806   1.427   1.825  0.4525  0.0585  0.2593
 6157TIP3    H139962   5.808   1.490   1.754  2.8939  0.0648  0.2901
 6157TIP3    H239963   5.718   1.434   1.862 -0.7147  0.3029 -2.5063
 6158TIP3   OH239964   6.710   3.610   3.015  0.2384  0.1317  0.1319
 6158TIP3    H139965   6.648   3.539   3.031 -0.4739  0.5108 -0.8558
 6158TIP3    H239966   6.656   3.689   3.014  0.2680  0.1985 -3.4993
 6159TIP3   OH239967   4.595   4.066   1.012  0.2572  0.1282 -0.4074
 6159TIP3    H139968   4.682   4.031   1.033 -0.1776 -0.2755  0.7455
 6159TIP3    H239969   4.598   4.157   1.040  0.0056 -0.1400  0.5045
 6160TIP3   OH239970   5.093   3.422  12.748  0.1662 -0.6821 -0.2194
 6160TIP3    H139971   5.021   3.427  12.811 -0.7930 -0.0854 -1.3555
 6160TIP3    H239972   5.102   3.328  12.730  0.6084 -0.8808  0.9755
 6161TIP3   OH239973   3.587   5.852  17.261  0.5242  0.4885 -0.5853
 6161TIP3    H139974   3.498   5.833  17.231  0.6965  2.6165 -2.5654
 6161TIP3    H239975   3.640   5.781  17.224 -0.4944 -1.6779  1.8864
 6162TIP3   OH239976   5.043   1.003   3.323  0.1108 -0.5603  0.7576
 6162TIP3    H139977   5.127   0.992   3.369  0.8888  1.7623 -0.0279
 6162TIP3    H239978   5.001   1.077   3.367  0.3165  0.9069 -1.4299
 6163TIP3   OH239979   3.168   3.867   2.185  0.0249  0.1154  0.4846
 6163TIP3    H139980   3.218   3.928   2.239  0.8451 -1.2988  1.3369
 6163TIP3    H239981   3.231   3.800   2.159 -1.0143 -0.7312  0.0996
 6164TIP3   OH239982   1.342   0.981  10.815  0.4686  0.5151  0.2091
 6164TIP3    H139983   1.362   1.075  10.821 -2.0221  1.1741 -1.2842
 6164TIP3    H239984   1.355   0.959  10.723 -0.5343 -0.2194  0.2326
 6165TIP3   OH239985   1.804   0.195   4.375 -0.3386 -0.2866 -0.0477
 6165TIP3    H139986   1.787   0.121   4.433  0.6750 -0.2339  0.3306
 6165TIP3    H239987   1.836   0.155   4.294  1.1591 -0.2495  0.4944
 6166TIP3   OH239988   4.223   6.651  10.752  0.4672  0.5189  0.3193
 6166TIP3    H139989   4.312   6.670  10.782  0.9934 -0.3783 -0.6598
 6166TIP3    H239990   4.231   6.642  10.657 -0.2285 -1.9060  0.4646
 6167TIP3   OH239991   4.139   6.653   0.757  0.5757  0.5314 -0.1592
 6167TIP3    H139992   4.147   6.629   0.665 -3.8904 -1.2138 -0.2042
 6167TIP3    H239993   4.162   6.574   0.805 -0.1306  0.4870  0.1169
 6168TIP3   OH239994   6.015   1.754  15.965 -0.0698  0.0641  0.0040
 6168TIP3    H139995   6.105   1.724  15.965  0.1737  0.7710  0.5743
 6168TIP3    H239996   6.003   1.797  15.880  0.3255  0.5273  0.1801
 6169TIP3   OH239997   4.019   3.743  14.048 -0.1553  0.7032 -0.1744
 6169TIP3    H139998   3.988   3.653  14.042  2.7685 -0.4279  0.5937
 6169TIP3    H239999   3.971   3.780  14.122  0.7150 -1.1470  1.3491
 6170TIP3   OH240000   5.182   4.752   2.742 -0.2139  0.2602  0.3410
 6170TIP3    H140001   5.210   4.675   2.691  3.0296  1.4885  0.1503
 6170TIP3    H240002   5.189   4.825   2.680  0.2987  1.2251  1.5121
 6171TIP3   OH240003   0.465   6.165  12.739  0.5394  0.3889 -0.1986
 6171TIP3    H140004   0.482   6.212  12.657  3.0197 -0.3098 -0.1354
 6171TIP3    H240005   0.383   6.119  12.724  1.0465  0.1403 -2.3767
 6172TIP3   OH240006   6.375   5.663   3.523  0.2983 -0.1491  0.3115
 6172TIP3    H140007   6.466   5.649   3.551 -0.4178 -2.3266  1.7219
 6172TIP3    H240008   6.345   5.739   3.573  0.7958 -0.5386  1.2073
 6173TIP3   OH240009   5.991   5.682  15.014 -0.1283  0.3356 -0.2626
 6173TIP3    H140010   6.008   5.776  15.014 -1.5040  0.6036 -0.9894
 6173TIP3    H240011   5.990   5.657  15.106 -1.9698  1.4710  0.0616
 6174TIP3   OH240012   6.754   6.351  14.709  0.4654 -0.1247  0.2016
 6174TIP3    H140013   6.797   6.407  14.774 -0.5557  2.2206 -1.0771
 6174TIP3    H240014   6.660   6.366  14.722  0.2254 -0.3415 -1.1886
 6175TIP3   OH240015   3.636   0.939   1.321  0.3369  0.2028 -0.2158
 6175TIP3    H140016   3.681   0.967   1.241  0.2396 -2.1661 -1.1538
 6175TIP3    H240017   3.673   0.852   1.339 -0.1067  0.4507  1.9526
 6176TIP3   OH240018   3.514   6.651  12.090 -0.5227  0.4457  0.2409
 6176TIP3    H140019   3.579   6.668  12.159  1.0434  1.0012 -1.3391
 6176TIP3    H240020   3.438   6.616  12.137  0.9109 -0.2261  2.1286
 6177TIP3   OH240021   1.127   0.805  13.862 -0.4396 -0.5260  0.4845
 6177TIP3    H140022   1.175   0.886  13.842 -1.6955 -0.1877 -1.3461
 6177TIP3    H240023   1.057   0.833  13.921 -1.1363 -0.1646 -0.4881
 6178TIP3   OH240024   4.429   6.105  14.838 -0.3408 -0.7995  0.2426
 6178TIP3    H140025   4.512   6.075  14.802 -1.3052 -1.2136 -1.7347
 6178TIP3    H240026   4.429   6.200  14.824 -0.1396 -0.7873  0.3320
 6179TIP3   OH240027   3.127   6.693   4.603  0.1627 -0.0008 -0.1956
 6179TIP3    H140028   3.096   6.603   4.618  0.8369 -0.0865  0.7488
 6179TIP3    H240029   3.222   6.684   4.600  0.1878  0.5614 -0.9714
 6180TIP3   OH240030   6.658   0.035   5.513 -0.2856  0.4557  0.4560
 6180TIP3    H140031   6.642   0.104   5.578 -0.5977  0.4935  0.3401
 6180TIP3    H240032   6.752   0.040   5.495 -0.0384 -0.0802  1.5084
 6181TIP3   OH240033   6.523   6.478   4.578 -0.1860 -0.3175  0.3158
 6181TIP3    H140034   6.523   6.418   4.651 -0.2590 -1.7675 -0.8542
 6181TIP3    H240035   6.460   6.440   4.516  0.5202  0.4174 -0.8676
 6182TIP3   OH240036   1.319   3.266   0.196 -0.4979 -0.2766  0.6092
 6182TIP3    H140037   1.375   3.191   0.177 -0.8641 -0.4060  0.0342
 6182TIP3    H240038   1.248   3.260   0.132  0.6880  1.8757 -0.9392
 6183TIP3   OH240039   1.569   3.905  16.876 -0.2580  0.2793 -0.3001
 6183TIP3    H140040   1.535   3.913  16.965  0.2644  1.0270 -0.1602
 6183TIP3    H240041   1.635   3.974  16.869  0.4905 -0.4811 -0.9076
 6184TIP3   OH240042   5.637   4.445  12.812  0.1456  0.0644 -0.6157
 6184TIP3    H140043   5.660   4.409  12.898 -2.2104  1.6557  0.7237
 6184TIP3    H240044   5.601   4.370  12.764 -0.4704 -0.4026  0.5470
 6185TIP3   OH240045   6.008   2.708  10.357  0.4986  0.0970  0.2527
 6185TIP3    H140046   6.082   2.769  10.356  0.0306  0.6837  0.8103
 6185TIP3    H240047   5.931   2.763  10.349  0.1565 -0.6137 -1.5574
 6186TIP3   OH240048   3.664   4.457  14.188  0.0831 -0.1743 -0.1564
 6186TIP3    H140049   3.649   4.433  14.097 -1.2002 -1.2308  0.3224
 6186TIP3    H240050   3.656   4.552  14.190  2.0993  0.0654 -1.4957
 6187TIP3   OH240051   0.127   5.036  13.633  0.3441 -0.3169 -0.0686
 6187TIP3    H140052   0.110   5.047  13.726  0.0573  1.5955 -0.3198
 6187TIP3    H240053   0.211   4.991  13.629  0.7889  0.4025  1.1073
 6188TIP3   OH240054   4.681   4.824   3.213 -0.6596  0.1130  0.6619
 6188TIP3    H140055   4.590   4.845   3.190 -1.0258 -2.0545  0.0122
 6188TIP3    H240056   4.732   4.850   3.136 -0.8324  0.4298  0.6514
 6189TIP3   OH240057   2.840   4.494  17.078  0.0152 -0.2050 -0.0156
 6189TIP3    H140058   2.799   4.450  17.004 -1.1072  0.5215  0.1648
 6189TIP3    H240059   2.868   4.422  17.136 -1.1537 -0.7092 -0.0598
 6190TIP3   OH240060   2.400   3.572  15.366 -0.7858 -0.2629  0.7303
 6190TIP3    H140061   2.417   3.485  15.330  0.9534  0.5706 -0.5513
 6190TIP3    H240062   2.406   3.561  15.460  2.6628 -0.9018  0.4841
 6191TIP3   OH240063   1.821   3.645   4.850 -0.0544 -0.1212  0.2143
 6191TIP3    H140064   1.893   3.706   4.833  0.4409 -0.3474  1.4406
 6191TIP3    H240065   1.759   3.695   4.903 -0.5757 -0.0804 -0.4279
 6192TIP3   OH240066   2.933   2.440   4.226 -0.4457  0.5892 -0.8268
 6192TIP3    H140067   2.987   2.371   4.265 -1.3839 -0.4553 -1.3617
 6192TIP3    H240068   2.861   2.451   4.288 -0.8220  0.3972 -1.2315
 6193TIP3   OH240069   4.537   6.696  12.969  0.1815  0.2374 -0.2113
 6193TIP3    H140070   4.590   6.639  12.914 -1.0891 -0.2693 -0.9370
 6193TIP3    H240071   4.494   6.637  13.031 -0.7570  0.4462 -0.6488
 6194TIP3   OH240072   4.442   0.640  15.588  0.2107  0.1637 -0.0883
 6194TIP3    H140073   4.441   0.724  15.541 -1.5481 -0.2293 -0.8003
 6194TIP3    H240074   4.416   0.663  15.677 -0.7548  0.3188 -0.4037
 6195TIP3   OH240075   3.912   5.389   4.127  0.1114  0.5641  0.4407
 6195TIP3    H140076   3.914   5.313   4.069 -0.6081  0.1050  1.0201
 6195TIP3    H240077   3.979   5.371   4.193 -0.3518  0.2474  0.8198
 6196TIP3   OH240078   1.034   0.032  15.190 -0.9454  0.4150 -0.3891
 6196TIP3    H140079   1.084  -0.040  15.228 -0.7424  1.4369  1.3392
 6196TIP3    H240080   1.016   0.090  15.264 -0.6150  2.4202 -1.8505
 6197TIP3   OH240081   5.813   3.634   1.250  0.0334  0.1126  0.2018
 6197TIP3    H140082   5.814   3.653   1.156 -0.8486 -1.3277 -0.1062
 6197TIP3    H240083   5.821   3.720   1.291  2.9986  0.5585 -1.1797
 6198TIP3   OH240084   6.754   6.006   5.568 -0.5752  0.3982 -0.1706
 6198TIP3    H140085   6.847   6.018   5.550  0.1718 -1.5796  2.0780
 6198TIP3    H240086   6.735   6.071   5.636 -0.0469 -1.2761  1.6107
 6199TIP3   OH240087   3.933   2.417  14.303  0.2102  0.0472 -0.2991
 6199TIP3    H140088   3.946   2.406  14.209  0.3445 -1.5368 -0.1129
 6199TIP3    H240089   3.984   2.495  14.325  1.0323 -0.1698 -1.3671
 6200TIP3   OH240090   2.912   4.072  14.468 -0.4915 -0.3513 -0.1808
 6200TIP3    H140091   2.887   4.109  14.383  0.8484 -0.7083 -0.7455
 6200TIP3    H240092   2.842   4.097  14.527 -0.2424  1.9790 -0.8536
 6201TIP3   OH240093   2.817   3.496  13.804  0.0917 -0.1838  0.6750
 6201TIP3    H140094   2.894   3.467  13.854 -0.3633  0.2286  1.6342
 6201TIP3    H240095   2.743   3.451  13.846 -0.1550 -0.9150 -0.5154
 6202TIP3   OH240096   1.676   5.289  14.033 -0.2161 -0.0180  0.1208
 6202TIP3    H140097   1.633   5.357  13.980 -0.9761 -1.3923 -1.0602
 6202TIP3    H240098   1.769   5.311  14.029 -0.2064 -0.3587 -2.2064
 6203TIP3   OH240099   1.407   1.003   0.372  0.6937 -0.5890 -0.0855
 6203TIP3    H140100   1.449   0.932   0.324 -2.2010 -2.0954 -0.5203
 6203TIP3    H240101   1.447   1.001   0.459  0.8508 -2.5822 -0.1839
 6204TIP3   OH240102   6.281   1.772  15.558 -0.3846  0.1842 -0.4371
 6204TIP3    H140103   6.333   1.775  15.478 -0.2276  1.4483 -0.3025
 6204TIP3    H240104   6.343   1.794  15.627 -0.6457 -0.3565 -0.0301
 6205TIP3   OH240105   4.523   2.983   0.397 -0.4548 -0.6297  0.8050
 6205TIP3    H140106   4.602   2.970   0.449  0.6740 -0.2875 -0.8153
 6205TIP3    H240107   4.533   3.070   0.359 -0.7595 -1.2945 -0.8471
 6206TIP3   OH240108   0.736   6.365   1.630  0.3395  0.1210 -0.2506
 6206TIP3    H140109   0.726   6.287   1.684 -1.1510 -0.5802 -1.4993
 6206TIP3    H240110   0.754   6.331   1.542 -0.3310  1.1762 -0.8118
 6207TIP3   OH240111   4.678   2.959  11.705  0.1085 -0.1512 -0.7551
 6207TIP3    H140112   4.649   3.028  11.646 -0.0666 -1.1831 -1.9018
 6207TIP3    H240113   4.739   2.906  11.652  1.9672  0.3943  0.7792
 6208TIP3   OH240114   5.645   3.483   6.457 -0.0812  0.0559 -0.1218
 6208TIP3    H140115   5.699   3.423   6.406  3.0603  1.5358  1.2920
 6208TIP3    H240116   5.670   3.466   6.548 -1.9259  0.8706  0.5555
 6209TIP3   OH240117   2.156   4.695   4.974 -0.3275 -0.1868  0.0089
 6209TIP3    H140118   2.215   4.771   4.977  0.0819 -0.5221  0.4165
 6209TIP3    H240119   2.147   4.668   5.065 -0.8803 -0.3233 -0.0813
 6210TIP3   OH240120   6.185   4.980   1.099 -1.1042 -0.2900  0.4812
 6210TIP3    H140121   6.136   4.954   1.021 -0.7905 -0.6301  0.3954
 6210TIP3    H240122   6.194   4.899   1.150 -0.0654 -0.3668  0.1809
 6211TIP3   OH240123   6.076   2.475   0.263  0.1766  0.0522 -0.1871
 6211TIP3    H140124   6.040   2.442   0.346  0.1436 -1.7776 -0.9060
 6211TIP3    H240125   6.121   2.400   0.225  0.0486  0.8245 -1.9157
 6212TIP3   OH240126   5.923   3.872   5.463 -0.6743 -0.4156 -0.6247
 6212TIP3    H140127   5.910   3.897   5.555  0.1644 -0.6479 -0.4330
 6212TIP3    H240128   6.011   3.903   5.442  0.5746 -3.5067 -0.2566
 6213TIP3   OH240129   6.249   5.134  16.143  0.1108 -0.2630  0.4225
 6213TIP3    H140130   6.287   5.208  16.095 -1.3075  0.5786  0.5630
 6213TIP3    H240131   6.323   5.096  16.190  0.8164  1.2609  0.5832
 6214TIP3   OH240132   3.600   6.741  13.218 -0.5776 -0.3204  0.6339
 6214TIP3    H140133   3.670   6.806  13.208 -0.9380 -0.0993 -0.5578
 6214TIP3    H240134   3.520   6.793  13.222 -0.9953 -0.7180 -1.6696
 6215TIP3   OH240135   1.913   0.482  11.448 -0.5815  0.1139 -0.8374
 6215TIP3    H140136   1.869   0.567  11.442  0.6403  0.6569 -2.4834
 6215TIP3    H240137   1.856   0.423  11.399 -0.3291  0.4522 -1.5401
 6216TIP3   OH240138   6.518   3.334   6.341  0.4672 -0.1366 -0.5597
 6216TIP3    H140139   6.561   3.366   6.420  0.5365 -0.8831 -0.2942
 6216TIP3    H240140   6.587   3.287   6.293 -0.2027 -1.9819  0.2277
 6217TIP3   OH240141   6.038   1.275   3.639 -0.3401  0.2584  0.7072
 6217TIP3    H140142   6.059   1.197   3.586  1.5194 -0.0835  1.8977
 6217TIP3    H240143   6.115   1.287   3.695 -0.8936  2.5673  1.0170
 6218TIP3   OH240144   0.781   1.139   0.099  0.1805 -0.0801 -0.0645
 6218TIP3    H140145   0.857   1.171   0.148  1.0699  0.0938 -1.5391
 6218TIP3    H240146   0.749   1.216   0.052  0.8972 -0.8215 -1.7829
 6219TIP3   OH240147   2.097   0.204  14.030  0.6375  0.4178 -0.3430
 6219TIP3    H140148   2.012   0.213  13.987  0.8755 -1.6956 -1.2987
 6219TIP3    H240149   2.082   0.237  14.119 -2.0038 -2.6413  0.4508
 6220TIP3   OH240150   4.007   0.668  13.116  0.0449  0.1036 -0.4816
 6220TIP3    H140151   3.948   0.643  13.044  0.0353 -0.5765 -0.2396
 6220TIP3    H240152   3.963   0.743  13.157  0.0412  0.4874 -1.1667
 6221TIP3   OH240153   3.560   4.158   3.959  0.3031 -0.2260 -0.0725
 6221TIP3    H140154   3.648   4.183   3.932  0.6307  0.1935  1.3505
 6221TIP3    H240155   3.566   4.147   4.054 -0.4157 -3.2441 -0.3035
 6222TIP3   OH240156   2.651   3.128  14.240  0.1247 -0.0591  0.1312
 6222TIP3    H140157   2.571   3.135  14.293 -0.8902  2.3795 -1.6300
 6222TIP3    H240158   2.716   3.180  14.288 -0.7246  1.9474 -0.8405
 6223TIP3   OH240159   0.589   3.860   3.389  0.6247 -0.3529 -0.5694
 6223TIP3    H140160   0.677   3.825   3.399 -0.4821 -3.3818 -1.0707
 6223TIP3    H240161   0.569   3.853   3.296 -0.8416 -1.4777 -0.1951
 6224TIP3   OH240162   0.656   4.874  11.050  0.3576  0.0254  0.4338
 6224TIP3    H140163   0.741   4.832  11.061 -0.1724 -1.2125  0.0313
 6224TIP3    H240164   0.627   4.846  10.962  0.7682  2.7079 -0.5826
 6225TIP3   OH240165   4.773   2.874   4.240 -0.0145 -0.7485  0.1987
 6225TIP3    H140166   4.686   2.846   4.268 -0.7323  0.5805 -0.6406
 6225TIP3    H240167   4.772   2.867   4.145  0.4768  0.1550  0.1218
 6226TIP3   OH240168   5.966   0.004  15.105 -0.3584 -0.0156 -0.1494
 6226TIP3    H140169   5.999   0.010  15.015 -0.2823 -3.0709 -0.3819
 6226TIP3    H240170   6.045   0.009  15.159 -0.3871  1.6338 -0.2238
 6227TIP3   OH240171   5.156   6.318  12.205  0.4169  0.9856 -0.1885
 6227TIP3    H140172   5.226   6.272  12.160  1.8870  2.1187  0.8622
 6227TIP3    H240173   5.131   6.260  12.277 -0.4772  0.1037 -1.2073
 6228TIP3   OH240174   5.153   0.425   0.800  0.0808  0.0277  0.6670
 6228TIP3    H140175   5.192   0.353   0.850 -0.3928  0.2171  1.3250
 6228TIP3    H240176   5.204   0.502   0.824 -1.8012  0.6233  2.9514
 6229TIP3   OH240177   1.140   1.515  13.939  0.0427  0.0555  0.6058
 6229TIP3    H140178   1.078   1.551  13.875  1.0362  2.4624  0.9134
 6229TIP3    H240179   1.182   1.593  13.976  2.3712 -1.4910  1.2605
 6230TIP3   OH240180   4.046   4.420   2.060  0.4676  0.1525 -0.0295
 6230TIP3    H140181   4.080   4.335   2.032 -0.2809  0.4040 -1.8063
 6230TIP3    H240182   3.952   4.413   2.049  0.4813  1.5365 -1.1512
 6231TIP3   OH240183   5.358   1.158   0.867 -0.1431 -0.5381 -0.2448
 6231TIP3    H140184   5.310   1.172   0.949 -1.7628 -2.4798 -0.8084
 6231TIP3    H240185   5.294   1.177   0.798  0.4791 -1.2256 -1.0326
 6232TIP3   OH240186   6.616   3.528   2.037 -0.2162 -0.0987  0.1821
 6232TIP3    H140187   6.544   3.584   2.007  1.7329  1.9386 -0.7982
 6232TIP3    H240188   6.688   3.546   1.977  0.9060 -2.6860  0.6845
 6233TIP3   OH240189   5.060   1.686   5.380 -0.3727 -0.2851 -0.2053
 6233TIP3    H140190   5.133   1.741   5.353 -0.8200  0.7004  0.5717
 6233TIP3    H240191   5.094   1.637   5.455 -1.5268  2.7014  2.3898
 6234TIP3   OH240192   0.472   1.802   2.874  0.4959  0.2487  0.1039
 6234TIP3    H140193   0.394   1.759   2.908  0.0761  1.7630  1.0959
 6234TIP3    H240194   0.523   1.731   2.834 -0.8686 -0.9170  0.4028
 6235TIP3   OH240195   2.719   2.687  11.663  0.0327 -0.4144 -0.2011
 6235TIP3    H140196   2.800   2.651  11.625 -0.0506 -1.7233  0.8385
 6235TIP3    H240197   2.659   2.613  11.666 -0.6379  0.1610  0.6138
 6236TIP3   OH240198   1.915   1.126  12.107  0.1029 -0.0760  0.3156
 6236TIP3    H140199   1.906   1.179  12.028  0.9669  1.1461  1.0272
 6236TIP3    H240200   2.004   1.143  12.138  1.0167 -3.2240 -0.3507
 6237TIP3   OH240201   6.100   0.901  13.175  0.5721  0.3792  0.7353
 6237TIP3    H140202   6.041   0.976  13.169  0.6576  0.4297  0.5347
 6237TIP3    H240203   6.171   0.921  13.113 -0.1199 -0.5154 -0.3607
 6238TIP3   OH240204   6.795   4.481   3.804  0.1127  0.0141 -0.0124
 6238TIP3    H140205   6.765   4.448   3.888 -0.5913  0.9188  0.1156
 6238TIP3    H240206   6.715   4.514   3.762  0.5030 -0.1426 -0.8948
 6239TIP3   OH240207   2.692   2.370  12.209  0.2520  0.6749 -0.6540
 6239TIP3    H140208   2.764   2.372  12.146 -1.6354  1.8434 -2.8822
 6239TIP3    H240209   2.678   2.462  12.232 -1.6029  0.6530 -1.5780
 6240TIP3   OH240210   1.333   5.233   1.022  0.0084  0.3622  0.3634
 6240TIP3    H140211   1.422   5.264   1.009 -0.0462  0.2775 -0.2787
 6240TIP3    H240212   1.301   5.280   1.099  0.1064  1.5045 -0.2790
 6241TIP3   OH240213   0.346   4.592   4.177 -0.1414  0.3418 -0.1124
 6241TIP3    H140214   0.439   4.615   4.178 -0.5647  2.2008 -0.3367
 6241TIP3    H240215   0.316   4.619   4.090 -0.3389 -2.7076 -1.0353
 6242TIP3   OH240216   4.496   3.591  14.577 -0.4976  0.1273  0.2809
 6242TIP3    H140217   4.551   3.513  14.569  0.8819  1.0734  0.4079
 6242TIP3    H240218   4.440   3.589  14.500 -0.0842 -0.6840 -0.0023
 6243TIP3   OH240219   5.550   4.592  11.883  0.4925 -0.6111 -0.0769
 6243TIP3    H140220   5.595   4.630  11.806 -0.0238  1.2136  0.4845
 6243TIP3    H240221   5.599   4.627  11.958  0.7020 -2.0042  0.4367
 6244TIP3   OH240222   2.757   0.358  13.368 -0.3075  0.3197  0.6638
 6244TIP3    H140223   2.678   0.305  13.373  1.0577 -1.6127  2.4803
 6244TIP3    H240224   2.780   0.376  13.459  2.3842 -0.8009  0.2548
 6245TIP3   OH240225   0.002   2.292  10.881 -0.2981 -0.2713  0.0957
 6245TIP3    H140226   0.086   2.251  10.862  0.1298 -0.3437  1.9975
 6245TIP3    H240227  -0.063   2.238  10.836  0.4026 -2.0525  1.1687
 6246TIP3   OH240228   6.536   2.584   6.137  0.2116 -0.4692 -0.0082
 6246TIP3    H140229   6.443   2.591   6.158 -0.1114 -1.3321 -1.0954
 6246TIP3    H240230   6.581   2.603   6.219 -0.9462 -1.1520  0.7988
 6247TIP3   OH240231   5.695   2.959  15.310 -0.3392  0.5950 -0.1968
 6247TIP3    H140232   5.748   3.039  15.306 -3.0628  2.5032 -0.1666
 6247TIP3    H240233   5.731   2.902  15.242  0.3694  2.7002 -1.6328
 6248TIP3   OH240234   0.641   6.460   6.095 -0.2831 -0.4276 -0.0890
 6248TIP3    H140235   0.695   6.383   6.113  1.9758  1.1632  0.0682
 6248TIP3    H240236   0.602   6.482   6.179  0.1334 -0.5999  0.1508
 6249TIP3   OH240237   1.176   2.513   5.205 -0.2717  0.0570 -0.1921
 6249TIP3    H140238   1.133   2.428   5.209  0.7286 -0.5299 -1.5554
 6249TIP3    H240239   1.209   2.528   5.294 -1.2366 -0.5460  0.2787
 6250TIP3   OH240240   4.818   1.957  14.320  0.2160 -0.9823 -0.1839
 6250TIP3    H140241   4.848   1.998  14.238  1.0752 -1.4122 -0.0902
 6250TIP3    H240242   4.897   1.916  14.356 -0.1525 -0.7766  0.8727
 6251TIP3   OH240243   3.561   2.060   1.135  0.5755  0.3293 -0.5860
 6251TIP3    H140244   3.568   1.970   1.166 -0.2474  0.1886 -0.7865
 6251TIP3    H240245   3.470   2.069   1.106  0.8262  1.0239 -1.1975
 6252TIP3   OH240246   6.007   0.609   2.543  0.0263  0.4757 -0.0741
 6252TIP3    H140247   5.980   0.645   2.458 -1.3064  0.0747  0.1676
 6252TIP3    H240248   6.020   0.515   2.525 -0.8810  0.2765  0.3097
 6253TIP3   OH240249   2.573   4.332  12.742  0.4609  0.0536  0.1877
 6253TIP3    H140250   2.666   4.312  12.751  0.8504  1.8198  0.1710
 6253TIP3    H240251   2.563   4.420  12.777 -1.0150  0.2960 -0.7912
 6254TIP3   OH240252   2.179   2.620  14.435  0.0878 -0.1364 -0.2070
 6254TIP3    H140253   2.181   2.534  14.394 -0.6168  0.6763 -2.0229
 6254TIP3    H240254   2.226   2.609  14.518 -1.6144 -2.6936  0.4884
 6255TIP3   OH240255   0.144   2.147   3.008 -0.6773  0.2216  0.3974
 6255TIP3    H140256   0.078   2.118   2.944 -0.1004  0.4117 -0.2899
 6255TIP3    H240257   0.224   2.102   2.982 -0.5897 -0.2016  1.3864
 6256TIP3   OH240258   0.136   2.616   0.805  0.2605  0.0005  0.0964
 6256TIP3    H140259   0.176   2.562   0.738  2.7805  2.4488 -0.4717
 6256TIP3    H240260   0.075   2.558   0.850  0.5782 -2.4158 -2.4810
 6257TIP3   OH240261   1.052   6.774   3.292 -0.4813  0.1131  0.2155
 6257TIP3    H140262   1.039   6.693   3.243  0.7437  0.4377 -0.6767
 6257TIP3    H240263   1.128   6.815   3.251 -0.4318  1.1941  1.3479
 6258TIP3   OH240264   6.000   2.699   0.126 -0.5031 -0.4572  0.1203
 6258TIP3    H140265   6.030   2.786   0.154  1.0770 -1.1011  0.5122
 6258TIP3    H240266   6.023   2.642   0.200 -3.2874 -0.9100  0.7022
 6259TIP3   OH240267   4.334   3.210   1.859  0.7352  0.0225  0.1304
 6259TIP3    H140268   4.262   3.170   1.812 -0.3585 -0.7823  2.4510
 6259TIP3    H240269   4.375   3.139   1.907  2.1810  0.7276 -0.0268
 6260TIP3   OH240270   6.265   0.269   5.093 -0.3639  0.2738 -0.1171
 6260TIP3    H140271   6.196   0.239   5.034  0.5656  0.0600 -1.1096
 6260TIP3    H240272   6.328   0.313   5.036  0.5450  0.0560  0.7064
 6261TIP3   OH240273   2.900   3.854   2.169 -0.2025 -0.1026 -0.0708
 6261TIP3    H140274   2.995   3.854   2.156 -0.3220  0.1095 -0.9428
 6261TIP3    H240275   2.888   3.887   2.258  0.5570 -0.3960  0.1446
 6262TIP3   OH240276   2.506   1.066   0.992  0.2262  0.6360 -0.1926
 6262TIP3    H140277   2.430   1.086   0.937  0.9853 -1.0213 -1.9221
 6262TIP3    H240278   2.575   1.124   0.959  0.3223  0.5414 -0.1578
 6263TIP3   OH240279   2.216   2.928  12.579 -0.1919 -0.3036 -0.6947
 6263TIP3    H140280   2.226   2.840  12.614 -0.2576  0.5329  1.5363
 6263TIP3    H240281   2.126   2.930  12.544  0.1553 -1.4055 -1.6642
 6264TIP3   OH240282   0.073   2.757   2.799  0.1922  0.4341  0.4014
 6264TIP3    H140283   0.008   2.699   2.760 -0.2154  1.0207  0.2078
 6264TIP3    H240284   0.139   2.770   2.730  0.0052  0.6362  0.2612
 6265TIP3   OH240285   4.714   3.625  10.930 -0.1965 -0.1408  0.1223
 6265TIP3    H140286   4.697   3.605  10.838  0.1556  0.9397 -0.1887
 6265TIP3    H240287   4.639   3.679  10.957  0.7615  1.3316 -0.1383
 6266TIP3   OH240288   1.475   4.252   6.351  0.0283 -0.2128 -1.1720
 6266TIP3    H140289   1.476   4.157   6.345  0.6861 -0.3360  0.5032
 6266TIP3    H240290   1.541   4.282   6.289  1.0512 -0.9463 -0.4518
 6267TIP3   OH240291   2.310   4.487  12.129  0.1442  0.4486 -0.4426
 6267TIP3    H140292   2.350   4.572  12.115 -0.8213  0.9950  0.0530
 6267TIP3    H240293   2.383   4.425  12.130  1.0647  1.5172  1.1815
 6268TIP3   OH240294   1.175   6.155  10.881  0.4444 -0.1595  0.6541
 6268TIP3    H140295   1.151   6.091  10.814 -0.0573  0.5688  0.1180
 6268TIP3    H240296   1.103   6.153  10.943  0.6929 -0.5115  0.9303
 6269TIP3   OH240297   5.188   6.537  17.269  0.5184 -0.5203 -0.0522
 6269TIP3    H140298   5.094   6.537  17.285  0.2904  1.4147 -1.1670
 6269TIP3    H240299   5.226   6.504  17.350 -1.0572 -0.0827  0.8884
 6270TIP3   OH240300   3.336   1.192  15.233 -0.2298  0.2998  0.0779
 6270TIP3    H140301   3.299   1.158  15.315 -0.7310  2.1943  0.6415
 6270TIP3    H240302   3.299   1.135  15.165 -1.0360 -0.3082  1.0134
 6271TIP3   OH240303   5.177   2.101   4.906 -0.1035  0.4793  0.4881
 6271TIP3    H140304   5.102   2.046   4.884  0.9034 -0.1633 -1.4533
 6271TIP3    H240305   5.235   2.044   4.955  0.4676  0.0931 -0.6230
 6272TIP3   OH240306   0.400   3.146  17.177  0.1457  0.1333  0.2646
 6272TIP3    H140307   0.334   3.110  17.117  0.3204  1.0843 -0.5012
 6272TIP3    H240308   0.390   3.094  17.257  0.0428 -1.2721 -0.6517
 6273TIP3   OH240309   4.850   1.249  15.228 -0.0447  0.2418  0.3159
 6273TIP3    H140310   4.790   1.244  15.153  0.8283 -1.1121 -0.3126
 6273TIP3    H240311   4.793   1.248  15.304 -0.9236  1.0981 -0.3167
 6274TIP3   OH240312   4.457   3.589  15.068  0.2169 -0.7589 -0.7055
 6274TIP3    H140313   4.365   3.615  15.058  0.3258  1.0351  2.2840
 6274TIP3    H240314   4.453   3.495  15.084 -1.3437 -0.3191  1.8267
 6275TIP3   OH240315   2.123   5.391   0.293  0.1564  0.2951 -0.3408
 6275TIP3    H140316   2.034   5.396   0.328 -0.2917 -1.5796 -1.1194
 6275TIP3    H240317   2.150   5.482   0.280 -1.3180  0.8924  0.6983
 6276TIP3   OH240318   0.231   3.630   2.171  0.1012 -0.2555 -0.5351
 6276TIP3    H140319   0.307   3.678   2.138  1.2022 -0.2097  2.0094
 6276TIP3    H240320   0.165   3.697   2.186  0.3911  0.0104 -0.4359
 6277TIP3   OH240321   3.618   3.830   2.321  0.0485  0.1607  0.0812
 6277TIP3    H140322   3.676   3.754   2.327  0.3972  0.4611  0.5596
 6277TIP3    H240323   3.651   3.890   2.388  0.4315  1.1750 -1.0007
 6278TIP3   OH240324   6.494   5.091  15.045 -0.3900 -0.1680 -0.4256
 6278TIP3    H140325   6.468   5.030  15.114  0.3803 -0.0934 -0.0717
 6278TIP3    H240326   6.502   5.176  15.088  2.3262 -0.5515 -0.1345
 6279TIP3   OH240327   4.642   1.040  16.283 -0.4054  0.1020 -0.0349
 6279TIP3    H140328   4.700   1.071  16.214 -0.4965  0.2565 -0.0426
 6279TIP3    H240329   4.628   0.947  16.262  0.0811 -0.0126  0.1377
 6280TIP3   OH240330   0.580   4.161   4.474 -0.3598 -0.4364  0.3417
 6280TIP3    H140331   0.601   4.155   4.381  0.2957  1.1230  0.3789
 6280TIP3    H240332   0.490   4.193   4.476  0.5012  2.0565  0.2494
 6281TIP3   OH240333   2.922   2.648   3.680  0.5683 -0.3720  0.5429
 6281TIP3    H140334   2.970   2.695   3.748  0.2666 -0.4269  0.7960
 6281TIP3    H240335   2.896   2.715   3.618  0.4137 -0.2507  0.7392
 6282TIP3   OH240336   5.431   4.696   0.696 -0.4335  0.4944 -1.0545
 6282TIP3    H140337   5.506   4.644   0.724 -1.4531 -0.4470 -0.0060
 6282TIP3    H240338   5.395   4.650   0.621  1.2537  2.0741 -2.8873
 6283TIP3   OH240339   5.672   5.649  12.554  0.1885 -0.5381  0.1222
 6283TIP3    H140340   5.763   5.668  12.577 -0.1871 -0.9952  2.1170
 6283TIP3    H240341   5.621   5.711  12.607 -0.6387  0.2933 -1.6202
 6284TIP3   OH240342   3.818   3.283  12.005  0.0173 -0.0791 -0.4600
 6284TIP3    H140343   3.785   3.193  12.007 -0.6341  0.1923  1.7451
 6284TIP3    H240344   3.873   3.291  12.083 -0.0303  1.4689 -0.5659
 6285TIP3   OH240345   4.696   5.740   3.027  0.2649 -0.0172  0.1633
 6285TIP3    H140346   4.649   5.774   3.103  0.6882 -1.8173  1.2609
 6285TIP3    H240347   4.768   5.802   3.014  1.5608 -0.9326  2.6844
 6286TIP3   OH240348   0.929   2.952  16.240 -0.5798 -0.0091 -0.2178
 6286TIP3    H140349   0.862   2.924  16.302 -0.5389 -2.7063 -1.3011
 6286TIP3    H240350   1.012   2.936  16.285 -0.5808 -0.7153 -0.4610
 6287TIP3   OH240351   1.764   6.082   2.976  0.2980  0.7783  0.0417
 6287TIP3    H140352   1.851   6.068   3.015  0.9181  3.1933 -0.3750
 6287TIP3    H240353   1.726   5.995   2.970  3.3182 -0.5322 -1.1926
 6288TIP3   OH240354   0.856   2.555   4.572  0.2099 -0.2835  0.1750
 6288TIP3    H140355   0.775   2.516   4.606 -1.1540  1.1583 -1.3013
 6288TIP3    H240356   0.905   2.481   4.537 -0.9638 -1.0456  0.1191
 6289TIP3   OH240357   2.472   5.973   4.844  0.2811 -0.8260 -0.1547
 6289TIP3    H140358   2.558   5.960   4.805  0.1816 -3.7476  0.5392
 6289TIP3    H240359   2.411   5.933   4.781 -0.3386 -1.1134  0.6246
 6290TIP3   OH240360   0.347   1.987  16.505 -0.6470  0.1317  0.4664
 6290TIP3    H140361   0.428   2.012  16.461 -0.7095 -0.9756 -0.3002
 6290TIP3    H240362   0.291   2.064  16.496 -0.7422 -0.1425 -1.6217
 6291TIP3   OH240363   5.817   1.966   5.808  0.5220  0.1857  0.1169
 6291TIP3    H140364   5.910   1.955   5.789  0.7285  1.0632  0.6348
 6291TIP3    H240365   5.813   1.993   5.900 -0.2856 -0.5865  0.3216
 6292TIP3   OH240366   2.117   2.979   6.361 -0.2632  0.0827 -0.2389
 6292TIP3    H140367   2.094   2.970   6.453  0.3571  2.2366  0.1426
 6292TIP3    H240368   2.181   3.050   6.359  1.7133 -1.6491 -2.0098
 6293TIP3   OH240369   1.480   3.966  14.748 -0.1823  0.3013  0.5988
 6293TIP3    H140370   1.536   4.038  14.776 -0.3324  0.9674 -0.7798
 6293TIP3    H240371   1.515   3.890  14.795  1.8128  0.7230 -0.1366
 6294TIP3   OH240372   5.519   5.773  17.246 -0.0677 -0.2927 -0.3500
 6294TIP3    H140373   5.614   5.759  17.248  0.0841  0.7213  0.1140
 6294TIP3    H240374   5.486   5.722  17.319  0.0664 -1.0276 -0.7987
 6295TIP3   OH240375   1.501   5.682  13.667 -0.0290 -0.2083 -0.4383
 6295TIP3    H140376   1.486   5.738  13.590  2.6937  1.3140  0.0954
 6295TIP3    H240377   1.505   5.593  13.631 -2.9204  0.0296 -1.4901
 6296TIP3   OH240378   5.670   0.060   2.103  0.3049 -0.3932  0.7290
 6296TIP3    H140379   5.639   0.150   2.095  0.2569 -0.3602  1.3071
 6296TIP3    H240380   5.667   0.041   2.196 -0.5463 -1.3098  0.5183
 6297TIP3   OH240381   2.219   3.186  16.505  0.3311  0.5342  0.9700
 6297TIP3    H140382   2.174   3.233  16.575 -1.1368  1.6008 -0.6566
 6297TIP3    H240383   2.150   3.135  16.462  1.3327 -0.5872  0.6605
 6298TIP3   OH240384   0.849   6.399  11.907 -0.3095 -0.0636  0.0653
 6298TIP3    H140385   0.864   6.328  11.844  2.1836 -1.0101  1.6233
 6298TIP3    H240386   0.864   6.479  11.857  1.1303 -0.7880 -0.6940
 6299TIP3   OH240387   4.892   2.346  14.618  0.0385  0.0289  0.3624
 6299TIP3    H140388   4.902   2.432  14.577 -1.3932  0.8693  1.7096
 6299TIP3    H240389   4.832   2.362  14.691 -1.4898 -2.4331 -0.3247
 6300TIP3   OH240390   4.253   2.620  12.851 -0.0468  0.2616  0.1487
 6300TIP3    H140391   4.323   2.556  12.836 -1.0265 -1.3137  2.0783
 6300TIP3    H240392   4.268   2.650  12.940 -0.7518  1.2932 -0.0804
 6301TIP3   OH240393   5.440   4.092  14.551  0.1552 -0.5281  0.2618
 6301TIP3    H140394   5.419   4.069  14.642  2.2172 -1.2485  0.5754
 6301TIP3    H240395   5.418   4.013  14.501 -0.4456 -0.3301  0.2136
 6302TIP3   OH240396   5.457   6.188   2.150  0.3320 -0.5106  0.0336
 6302TIP3    H140397   5.460   6.270   2.101  1.2544 -0.8359 -0.4829
 6302TIP3    H240398   5.461   6.120   2.083 -0.3949 -0.9738  0.4598
 6303TIP3   OH240399   6.658   4.153   4.268 -0.2162  0.2249  0.1975
 6303TIP3    H140400   6.683   4.071   4.311 -0.4203  0.1558  0.1850
 6303TIP3    H240401   6.604   4.126   4.194  1.6700  0.2561 -1.1963
 6304TIP3   OH240402   5.284   1.033   4.366 -0.0376  0.5630  0.1233
 6304TIP3    H140403   5.204   1.017   4.417  0.6729 -2.5135  0.3413
 6304TIP3    H240404   5.344   1.073   4.429 -0.3773  0.0895  0.7586
 6305TIP3   OH240405   0.138   2.760   4.148 -0.1883  0.0925  0.5795
 6305TIP3    H140406   0.067   2.712   4.191  1.8981 -1.9260  1.8939
 6305TIP3    H240407   0.216   2.708   4.165  1.9595  3.2248  0.8471
 6306TIP3   OH240408   5.707   4.858  13.783  0.1026  0.3281 -0.6317
 6306TIP3    H140409   5.750   4.776  13.757 -0.5144 -0.5952  1.2176
 6306TIP3    H240410   5.770   4.901  13.840 -0.4737  0.1000  0.1752
 6307TIP3   OH240411   5.402   5.490   3.589  0.3887  0.7539  0.0552
 6307TIP3    H140412   5.405   5.397   3.613 -3.0552  1.0162  1.6725
 6307TIP3    H240413   5.440   5.536   3.664  0.3126  0.8088  0.0592
 6308TIP3   OH240414   6.335   0.263  12.734 -0.1581  0.1011  0.2230
 6308TIP3    H140415   6.278   0.206  12.786 -1.1305 -0.8171 -1.7543
 6308TIP3    H240416   6.362   0.208  12.661  0.6607  1.5367 -0.5696
 6309TIP3   OH240417   2.738   0.189   5.839 -0.7198 -0.7690 -0.3339
 6309TIP3    H140418   2.642   0.194   5.839 -0.7201  0.1738  1.9367
 6309TIP3    H240419   2.758   0.116   5.897 -0.0475 -1.4036 -1.3462
 6310TIP3   OH240420   0.553   0.314   1.180 -0.2380  0.5070  0.2098
 6310TIP3    H140421   0.559   0.407   1.158 -0.2699  0.6766  0.9166
 6310TIP3    H240422   0.470   0.306   1.227 -0.4662  0.0342 -0.2665
 6311TIP3   OH240423   1.914   6.505   5.150  0.1049 -1.2051  0.6942
 6311TIP3    H140424   1.902   6.449   5.074 -1.6474  1.2397 -0.9193
 6311TIP3    H240425   1.978   6.570   5.122 -0.6056 -0.2400  1.2622
 6312TIP3   OH240426   0.857   4.138  12.118  0.6321 -0.3266  0.2013
 6312TIP3    H140427   0.785   4.158  12.058  0.8459  0.2553  0.1310
 6312TIP3    H240428   0.847   4.045  12.138  1.5869 -0.9882 -2.1594
 6313TIP3   OH240429   3.650   0.675  13.976 -0.2655 -0.7674 -0.3583
 6313TIP3    H140430   3.594   0.648  14.049  0.1147 -0.7057 -0.0381
 6313TIP3    H240431   3.602   0.650  13.897 -1.1709  0.1684 -0.0984
 6314TIP3   OH240432   6.618   5.547  16.998  0.4219  0.3682  0.7587
 6314TIP3    H140433   6.561   5.580  17.068  0.8797 -0.3876  1.4926
 6314TIP3    H240434   6.704   5.542  17.038  0.3944 -1.5458  0.6010
 6315TIP3   OH240435   0.211   5.948   2.623 -0.7616  0.1563 -0.3550
 6315TIP3    H140436   0.216   5.855   2.642  0.6271 -0.2946 -2.6480
 6315TIP3    H240437   0.191   5.952   2.529 -1.0922  2.1648 -0.2287
 6316TIP3   OH240438   3.599   0.141   5.163  1.0282 -0.1031 -0.3220
 6316TIP3    H140439   3.599   0.132   5.258 -1.6043  0.3466 -0.2468
 6316TIP3    H240440   3.597   0.051   5.131  0.1997 -0.2415  0.0921
 6317TIP3   OH240441   6.041   0.012  16.925 -0.6629 -0.1987 -0.2703
 6317TIP3    H140442   6.115   0.013  16.985 -1.0042 -0.5622  0.1654
 6317TIP3    H240443   6.077  -0.017  16.842 -0.0360  1.0871 -0.4443
 6318TIP3   OH240444   0.558   5.690   5.156 -0.4011 -0.0250  0.1721
 6318TIP3    H140445   0.502   5.628   5.204  0.2327 -1.0323 -0.3633
 6318TIP3    H240446   0.550   5.663   5.065  2.2971 -1.2877  0.2762
 6319TIP3   OH240447   3.166   6.675  11.921  0.1342 -0.2303 -0.1768
 6319TIP3    H140448   3.178   6.767  11.942 -2.0928  0.1931 -0.6078
 6319TIP3    H240449   3.115   6.640  11.994  0.0309 -0.8708 -0.5446
 6320TIP3   OH240450   5.601   2.095   4.330  0.4173  0.3292  0.0937
 6320TIP3    H140451   5.634   2.137   4.409 -1.5115  3.0228 -0.4558
 6320TIP3    H240452   5.547   2.022   4.362  3.0520 -1.2358  1.0863
 6321TIP3   OH240453   6.411   4.846   1.252  0.2180  0.5855 -0.0377
 6321TIP3    H140454   6.461   4.774   1.212 -1.7689 -2.2795  2.3440
 6321TIP3    H240455   6.477   4.907   1.284  2.1973 -2.4282  1.8372
 6322TIP3   OH240456   6.768   2.805  12.886 -0.1535 -0.8262 -0.1505
 6322TIP3    H140457   6.676   2.790  12.865  0.1659 -2.6592 -0.2692
 6322TIP3    H240458   6.817   2.751  12.824  1.0385  0.4167 -0.3388
 6323TIP3   OH240459   1.536   0.651  14.091  0.4269  0.4996  0.3956
 6323TIP3    H140460   1.470   0.605  14.039 -0.5604  2.3967 -0.0832
 6323TIP3    H240461   1.617   0.602  14.076 -0.7620 -1.6583  0.7006
 6324TIP3   OH240462   6.307   3.846  13.526  0.1093 -0.4979  0.1468
 6324TIP3    H140463   6.296   3.754  13.552  2.2419 -0.1427  2.5251
 6324TIP3    H240464   6.234   3.892  13.566  0.2467 -0.8461  0.8075
 6325TIP3   OH240465   1.801   6.086  16.625 -0.0386  0.0589  0.3129
 6325TIP3    H140466   1.736   6.066  16.692 -1.4995  0.9712 -0.8001
 6325TIP3    H240467   1.813   6.003  16.578 -0.4042 -0.1001  0.5002
 6326TIP3   OH240468   6.270   6.168  16.948 -0.4592  0.1729  0.0973
 6326TIP3    H140469   6.313   6.234  17.003  0.0125  0.0514 -0.1156
 6326TIP3    H240470   6.239   6.218  16.872  1.8064 -0.1825 -1.1091
 6327TIP3   OH240471   1.454   5.707   1.035  0.3009  0.1998 -0.2413
 6327TIP3    H140472   1.413   5.643   0.978  2.4883 -0.3577 -1.2179
 6327TIP3    H240473   1.387   5.727   1.101 -0.7447 -2.3080 -0.5078
 6328TIP3   OH240474   2.322   2.051   5.947  0.4091  0.8107 -0.1134
 6328TIP3    H140475   2.322   2.140   5.982  1.5653 -0.1628  2.4697
 6328TIP3    H240476   2.415   2.030   5.938  0.1667 -0.6683  0.7287
 6329TIP3   OH240477   3.872   5.358   6.144 -0.3575  0.2851  0.0181
 6329TIP3    H140478   3.931   5.353   6.069 -0.4279 -0.0797 -0.0122
 6329TIP3    H240479   3.842   5.449   6.144 -0.0098  0.4021 -0.1286
 6330TIP3   OH240480   3.056   5.246   5.910 -0.1902 -0.1286  0.3616
 6330TIP3    H140481   3.135   5.235   5.963  0.3615 -1.8926 -0.7954
 6330TIP3    H240482   2.990   5.194   5.955  0.0954 -1.0676 -0.3087
 6331TIP3   OH240483   5.643   3.098  13.085 -0.0333  0.2668  0.1516
 6331TIP3    H140484   5.623   3.115  12.993 -0.7807  1.2471  0.4843
 6331TIP3    H240485   5.558   3.075  13.123  0.5493 -1.9125  0.2378
 6332TIP3   OH240486   6.157   0.017   2.371  0.0253  0.1661 -0.1561
 6332TIP3    H140487   6.122   0.063   2.294 -1.7733 -0.8739  0.0100
 6332TIP3    H240488   6.177   0.087   2.433  2.7860  1.1103 -2.0583
 6333TIP3   OH240489   2.245   2.633   2.110  0.5550  0.4395 -0.3769
 6333TIP3    H140490   2.229   2.549   2.068  0.7195  1.2428 -2.1003
 6333TIP3    H240491   2.178   2.691   2.074 -0.0698  0.8602  1.4077
 6334TIP3   OH240492   4.472   6.774  10.784  0.5076 -0.6655  0.4551
 6334TIP3    H140493   4.466   6.868  10.766  3.0547 -0.7762 -1.2137
 6334TIP3    H240494   4.558   6.763  10.825  0.0955 -2.2281  0.9396
 6335TIP3   OH240495   3.389   0.450  16.742 -0.6008 -0.2723  0.6776
 6335TIP3    H140496   3.295   0.429  16.745 -1.4962  3.5920  3.4075
 6335TIP3    H240497   3.432   0.370  16.772 -3.0624 -1.7454  0.4704
 6336TIP3   OH240498   4.487   3.743  15.459 -0.1634  0.3964 -0.5765
 6336TIP3    H140499   4.477   3.651  15.482 -0.9446  0.7642  0.6401
 6336TIP3    H240500   4.405   3.767  15.415 -0.8037  0.9955  0.8911
 6337TIP3   OH240501   1.674   6.061  12.158 -0.5720 -0.3866 -0.0578
 6337TIP3    H140502   1.714   6.147  12.155  1.8981 -1.4440  1.2411
 6337TIP3    H240503   1.714   6.013  12.085  2.2686 -2.1061  2.4829
 6338TIP3   OH240504   5.106   1.544   1.170 -0.1842  0.2190  0.1270
 6338TIP3    H140505   5.114   1.635   1.197 -0.2389  0.2443  0.0600
 6338TIP3    H240506   5.085   1.549   1.076 -0.4122  0.1445  0.1717
 6339TIP3   OH240507   5.192   3.590   2.693 -0.7212 -0.3666  0.1996
 6339TIP3    H140508   5.132   3.569   2.621 -0.9761 -0.7457  0.5215
 6339TIP3    H240509   5.175   3.682   2.713  0.0511  0.0154 -0.8872
 6340TIP3   OH240510   5.941   0.197  17.208 -0.2691  0.3535 -0.2374
 6340TIP3    H140511   5.992   0.258  17.155 -0.4367  2.0391  1.4754
 6340TIP3    H240512   5.850   0.222  17.193 -0.3207  0.7682  0.7507
 6341TIP3   OH240513   2.403   3.106  12.477 -0.2460  0.3379  0.3501
 6341TIP3    H140514   2.329   3.051  12.506  0.1961 -0.1198  0.6108
 6341TIP3    H240515   2.448   3.052  12.412  1.4003 -0.4489  2.0948
 6342TIP3   OH240516   4.805   5.657  16.423 -0.1901 -0.0871  0.0522
 6342TIP3    H140517   4.814   5.729  16.486 -0.2250  0.3413 -0.4285
 6342TIP3    H240518   4.762   5.697  16.347 -1.6080 -0.9484  0.3684
 6343TIP3   OH240519   4.220   0.024   4.528 -0.1669 -0.3041  0.3742
 6343TIP3    H140520   4.178  -0.050   4.572  0.5912 -1.4640 -0.8342
 6343TIP3    H240521   4.156   0.095   4.536 -2.0521 -1.8159 -0.7552
 6344TIP3   OH240522   6.606   5.341  14.849  0.0562  0.1337 -0.0680
 6344TIP3    H140523   6.699   5.324  14.862 -0.2007 -0.4313  0.9811
 6344TIP3    H240524   6.574   5.372  14.933 -1.1649 -1.6855  0.1722
 6345TIP3   OH240525   5.651   2.857   5.996 -0.2250 -0.6245 -0.2622
 6345TIP3    H140526   5.557   2.842   6.000 -0.3911  0.5788  0.4842
 6345TIP3    H240527   5.673   2.899   6.079  0.8957 -0.4772 -0.6190
 6346TIP3   OH240528   0.894   0.921  15.822  0.4935  0.3853  0.2082
 6346TIP3    H140529   0.879   0.977  15.898  1.8073  1.0848 -0.0439
 6346TIP3    H240530   0.989   0.914  15.816  0.3478 -1.6830  0.0901
 6347TIP3   OH240531   6.521   3.107  16.903 -0.2769  0.2153  0.5089
 6347TIP3    H140532   6.561   3.076  16.984  0.5483  0.0409  0.0316
 6347TIP3    H240533   6.587   3.092  16.835  0.0587  2.7209  0.2068
 6348TIP3   OH240534   2.088   0.324  13.495  0.4130  0.3667 -0.1647
 6348TIP3    H140535   2.031   0.382  13.545 -0.9312  0.5613 -1.8744
 6348TIP3    H240536   2.031   0.285  13.429  2.0780 -0.1411 -1.3464
 6349TIP3   OH240537   6.493   2.716  16.375 -0.5999  0.0782  0.8689
 6349TIP3    H140538   6.416   2.697  16.428 -0.9749 -1.9229 -0.3591
 6349TIP3    H240539   6.567   2.692  16.431 -0.9709 -1.2953  0.7951
 6350TIP3   OH240540   4.467   2.874   2.238  0.7446  0.2979 -0.1376
 6350TIP3    H140541   4.397   2.937   2.226 -0.7968 -1.6989 -2.0901
 6350TIP3    H240542   4.458   2.844   2.328  1.6020  2.9044  0.8652
 6351TIP3   OH240543   5.973   5.711   2.632  0.3363 -0.3857  0.2380
 6351TIP3    H140544   5.982   5.667   2.547 -0.2500 -0.8400  0.4109
 6351TIP3    H240545   6.055   5.761   2.641  0.2517 -0.0545 -0.7480
 6352TIP3   OH240546   5.960   4.636  15.969 -0.2950  0.2296 -0.8009
 6352TIP3    H140547   6.051   4.637  15.941  0.5011 -0.9279  1.6338
 6352TIP3    H240548   5.924   4.557  15.928  0.3640 -0.4661 -0.0408
 6353TIP3   OH240549   4.330   3.234  10.803 -0.1333  0.0413  0.3493
 6353TIP3    H140550   4.423   3.246  10.779 -0.0340 -0.8990  0.2362
 6353TIP3    H240551   4.282   3.286  10.738  0.1625 -2.1210 -1.6608
 6354TIP3   OH240552   5.504   5.425  10.841  0.2574  0.1919  0.1384
 6354TIP3    H140553   5.439   5.428  10.771  1.8001 -1.3463 -1.4211
 6354TIP3    H240554   5.501   5.334  10.873  1.2647  0.2216  0.3607
 6355TIP3   OH240555   0.826   0.421  14.166  0.1781 -0.2023 -0.4898
 6355TIP3    H140556   0.835   0.514  14.185  0.6656 -0.1895 -0.7910
 6355TIP3    H240557   0.805   0.417  14.073  2.8604 -0.5220 -1.1154
 6356TIP3   OH240558   4.358   1.360  15.146  0.3083  0.2763  0.7161
 6356TIP3    H140559   4.321   1.449  15.143  1.1918  0.6353 -0.1078
 6356TIP3    H240560   4.442   1.371  15.190  1.4226  0.2505 -1.3196
 6357TIP3   OH240561   0.846   4.501   3.048 -0.5294  0.9857  0.7431
 6357TIP3    H140562   0.793   4.456   3.114 -0.2429  1.6293  1.4186
 6357TIP3    H240563   0.785   4.517   2.975 -1.1444  1.3379  1.3334
 6358TIP3   OH240564   0.562   3.456   5.185  0.1251  0.3227 -0.4430
 6358TIP3    H140565   0.592   3.521   5.250  1.6568 -1.2390  0.4415
 6358TIP3    H240566   0.472   3.482   5.166  0.0965  1.6136  1.2937
 6359TIP3   OH240567   2.315   6.257   2.646 -0.7593  0.3545 -0.2551
 6359TIP3    H140568   2.397   6.214   2.623  0.3302  1.9515  0.5139
 6359TIP3    H240569   2.332   6.298   2.731 -2.5322  0.2424  0.1700
 6360TIP3   OH240570   4.563   6.198   2.581 -0.3096 -0.2835 -0.6778
 6360TIP3    H140571   4.549   6.127   2.517  0.5622 -1.1497  0.0912
 6360TIP3    H240572   4.484   6.252   2.573 -0.3587 -0.5474 -2.2751
 6361TIP3   OH240573   0.846   2.763  14.855 -0.9448 -0.3936  0.5642
 6361TIP3    H140574   0.899   2.703  14.908  0.6033 -1.7861 -2.4686
 6361TIP3    H240575   0.799   2.816  14.920 -0.0166 -2.7957  3.3241
 6362TIP3   OH240576   6.243   1.668  16.727  0.6726  0.0870  0.0631
 6362TIP3    H140577   6.227   1.760  16.705 -1.6176 -0.2965  0.0105
 6362TIP3    H240578   6.263   1.670  16.821  1.1899  0.7006 -0.0569
 6363TIP3   OH240579   3.590   0.292   3.271 -0.8027 -0.1176  0.5138
 6363TIP3    H140580   3.522   0.355   3.246 -2.4013 -2.5518 -1.5069
 6363TIP3    H240581   3.547   0.235   3.335  0.1348 -0.1816  1.1001
 6364TIP3   OH240582   0.730   1.093   5.173  0.3257  0.4734 -0.3636
 6364TIP3    H140583   0.714   1.170   5.229  1.0670  0.5073 -0.1916
 6364TIP3    H240584   0.825   1.093   5.159  0.1413  0.5058 -1.6914
 6365TIP3   OH240585   3.119   0.971   0.507  0.3401 -0.4030  0.0364
 6365TIP3    H140586   3.190   0.909   0.523  0.3916 -0.1009  0.9881
 6365TIP3    H240587   3.162   1.057   0.506 -0.1306 -0.1282  1.5669
 6366TIP3   OH240588   2.853   2.337  14.629 -0.0755  0.1823  0.1504
 6366TIP3    H140589   2.882   2.327  14.538  0.9964 -0.1242  0.5182
 6366TIP3    H240590   2.798   2.415  14.628 -2.5937 -1.5357 -1.3563
 6367TIP3   OH240591   1.065   4.126   0.951  0.0880  0.3184  0.1613
 6367TIP3    H140592   1.081   4.039   0.915 -2.2892 -1.2838  2.7481
 6367TIP3    H240593   0.970   4.130   0.965  0.5524  1.8880  3.5111
 6368TIP3   OH240594   2.619   3.267   1.555  0.1618  0.1741  0.8916
 6368TIP3    H140595   2.698   3.217   1.577 -0.2916 -1.7237 -1.5987
 6368TIP3    H240596   2.653   3.350   1.521  1.1216 -0.9555 -0.9462
 6369TIP3   OH240597   1.182   4.306   0.208  0.3837 -0.0332 -0.0082
 6369TIP3    H140598   1.159   4.291   0.116 -1.0057  2.9021 -0.1789
 6369TIP3    H240599   1.250   4.373   0.205  0.3357  0.0790  1.1331
 6370TIP3   OH240600   2.169   3.565   3.871  0.0040  0.3450  0.0185
 6370TIP3    H140601   2.145   3.655   3.892  1.5032  0.9939 -0.9838
 6370TIP3    H240602   2.124   3.547   3.788 -1.2093 -0.2200  0.7949
 6371TIP3   OH240603   4.685   3.256  14.471  0.2567 -0.3291  0.3406
 6371TIP3    H140604   4.750   3.213  14.416  0.4864  0.3075  0.1087
 6371TIP3    H240605   4.660   3.335  14.422  0.6093  0.3474  1.2352
 6372TIP3   OH240606   4.763   3.758   0.345 -0.4324  0.2363  0.3043
 6372TIP3    H140607   4.709   3.700   0.292 -0.1079  0.9098 -0.7699
 6372TIP3    H240608   4.711   3.838   0.355  0.4962  1.0271 -1.0466
 6373TIP3   OH240609   2.641   0.711  13.914 -0.3574  1.1076  0.4492
 6373TIP3    H140610   2.575   0.752  13.969 -1.5010  0.4638 -0.4145
 6373TIP3    H240611   2.591   0.668  13.845  0.8558 -1.1731  0.9570
 6374TIP3   OH240612   5.913   2.605  11.073  0.1010  0.3059 -0.4201
 6374TIP3    H140613   5.862   2.611  11.154  0.0647 -0.7846 -0.3548
 6374TIP3    H240614   5.961   2.522  11.081 -0.0177  0.1161 -1.5737
 6375TIP3   OH240615   5.616   6.503   2.498  0.6085 -0.0144 -0.1625
 6375TIP3    H140616   5.595   6.593   2.472 -0.8750  0.4664  2.5843
 6375TIP3    H240617   5.549   6.449   2.457 -1.5726  0.7165  2.3352
 6376TIP3   OH240618   5.051   1.537  13.948 -0.2327 -0.0414  0.0811
 6376TIP3    H140619   5.073   1.553  14.040 -0.3451 -0.0212  0.1036
 6376TIP3    H240620   4.963   1.574  13.937 -0.1406  0.1275 -0.0829
 6377TIP3   OH240621   4.280   0.909   2.915  0.7131  0.3424  0.2329
 6377TIP3    H140622   4.281   0.863   2.999 -1.5006  0.9657  0.6261
 6377TIP3    H240623   4.355   0.873   2.867  2.2395  0.2585  2.6016
 6378TIP3   OH240624   5.057   2.229  14.882  0.3880  0.6616  0.0360
 6378TIP3    H140625   5.006   2.193  14.955  1.2166  0.9785  0.7851
 6378TIP3    H240626   5.069   2.156  14.823  0.8328  0.0671  0.8575
 6379TIP3   OH240627   5.939   3.080  12.332 -0.2374 -0.1130  0.3328
 6379TIP3    H140628   5.978   3.066  12.418 -0.3439  0.0920  0.4143
 6379TIP3    H240629   5.912   3.172  12.332 -0.6459 -0.2315  0.2470
 6380TIP3   OH240630   5.540   6.494  13.777 -0.3621 -1.1293  0.1875
 6380TIP3    H140631   5.602   6.566  13.787 -1.8854  0.3090 -0.3884
 6380TIP3    H240632   5.585   6.418  13.813  2.2116 -0.3980 -1.3718
 6381TIP3   OH240633   3.456   6.259   3.932 -0.3473  0.1489  0.2658
 6381TIP3    H140634   3.485   6.171   3.906 -0.1202  0.0015  1.0048
 6381TIP3    H240635   3.364   6.263   3.904 -0.3248 -0.2774  0.1234
 6382TIP3   OH240636   5.165   1.939   3.898  0.1851  0.0203 -0.2653
 6382TIP3    H140637   5.171   1.996   3.821  0.0082  0.7691  0.2647
 6382TIP3    H240638   5.098   1.979   3.952 -0.0927 -0.8228  0.0224
 6383TIP3   OH240639   3.102   2.721   0.890  0.0286  0.2048 -0.8456
 6383TIP3    H140640   3.033   2.658   0.872 -0.4444  1.3351 -3.0979
 6383TIP3    H240641   3.139   2.742   0.805  1.4072  1.6158  0.0638
 6384TIP3   OH240642   6.370   5.072  12.541  1.0921 -0.1154 -0.2547
 6384TIP3    H140643   6.334   5.144  12.490  1.1832  1.1525  1.4095
 6384TIP3    H240644   6.297   5.042  12.596  1.4530 -0.3063  0.1247
 6385TIP3   OH240645   4.593   6.522   5.324  0.0718 -0.4825 -0.3129
 6385TIP3    H140646   4.564   6.510   5.233  1.0944 -0.8101 -0.5981
 6385TIP3    H240647   4.657   6.453   5.338  1.1091  0.5605  0.1384
 6386TIP3   OH240648   1.772   1.304  13.203 -0.1382  0.1737 -0.0211
 6386TIP3    H140649   1.732   1.225  13.167 -0.4159  0.9133 -1.3837
 6386TIP3    H240650   1.850   1.318  13.149  0.5335  0.1952  0.9482
 6387TIP3   OH240651   1.321   6.425  15.506 -0.7015  0.0728  0.2764
 6387TIP3    H140652   1.380   6.484  15.458  0.5745 -0.6053  0.9927
 6387TIP3    H240653   1.305   6.469  15.589  1.8790 -1.5007  1.6411
 6388TIP3   OH240654   2.774   3.337   5.244  0.2529 -0.2957  0.2065
 6388TIP3    H140655   2.683   3.308   5.251  0.6570 -2.3247 -2.0638
 6388TIP3    H240656   2.825   3.262   5.273  1.2187  0.4204  0.3567
 6389TIP3   OH240657   6.213   2.022   1.371 -0.2386  0.1399  0.4240
 6389TIP3    H140658   6.288   2.021   1.312 -2.1086  2.1477 -2.0481
 6389TIP3    H240659   6.246   2.063   1.451  1.3441  0.8481 -0.5760
 6390TIP3   OH240660   5.385   4.580  15.996  0.6258 -0.3871  0.3679
 6390TIP3    H140661   5.294   4.609  15.987  0.6642  0.2612  1.8332
 6390TIP3    H240662   5.378   4.497  16.045  0.8409 -0.1372  0.8234
 6391TIP3   OH240663   6.481   0.994  14.012 -0.5331  0.6756 -0.0823
 6391TIP3    H140664   6.427   1.038  14.078 -0.3547 -0.0731  0.5673
 6391TIP3    H240665   6.428   0.996  13.932 -0.8796  1.3107  0.1668
 6392TIP3   OH240666   4.991   3.335  17.268  0.0231  0.1473  0.0343
 6392TIP3    H140667   4.936   3.275  17.318 -0.2217  2.2667  2.4145
 6392TIP3    H240668   5.080   3.314  17.295  0.0642 -0.1328 -0.3004
 6393TIP3   OH240669   4.693   3.548   2.058  0.0128  0.0565  0.1748
 6393TIP3    H140670   4.606   3.573   2.026  0.1046  1.2205  0.7752
 6393TIP3    H240671   4.704   3.599   2.138  1.4170  0.2339 -0.1162
 6394TIP3   OH240672   0.602   0.101   5.742  0.9330  0.2898 -0.3892
 6394TIP3    H140673   0.580   0.191   5.719  0.2402  0.5197  1.1673
 6394TIP3    H240674   0.648   0.108   5.826 -0.3116 -0.9128  0.4024
 6395TIP3   OH240675   0.329   5.448  11.183 -0.5613 -0.1306  0.4414
 6395TIP3    H140676   0.324   5.447  11.087 -2.7370 -0.4911  0.5539
 6395TIP3    H240677   0.382   5.526  11.203 -0.4690  0.1977 -1.0293
 6396TIP3   OH240678   2.635   5.398  15.353  0.4608  0.0042  0.1989
 6396TIP3    H140679   2.561   5.382  15.412 -1.7384  1.3255 -2.1028
 6396TIP3    H240680   2.697   5.327  15.372  0.1927  0.8056  4.5601
 6397TIP3   OH240681   6.612   6.073   4.660  0.1137 -0.2149 -0.1280
 6397TIP3    H140682   6.563   5.991   4.650  2.0418 -1.2273 -1.8148
 6397TIP3    H240683   6.601   6.118   4.576 -1.3495  1.5221  0.9703
 6398TIP3   OH240684   0.286   5.326   1.704 -0.0186 -0.6630  0.4137
 6398TIP3    H140685   0.319   5.242   1.737 -0.4163 -1.6642 -1.6754
 6398TIP3    H240686   0.363   5.383   1.703  0.4870 -1.3349  0.8052
 6399TIP3   OH240687   0.202   5.154   0.320  0.2664 -0.3256 -0.8777
 6399TIP3    H140688   0.244   5.176   0.237  1.4587 -1.8270 -0.7072
 6399TIP3    H240689   0.259   5.191   0.387 -0.0075 -0.2355 -0.6906
 6400TIP3   OH240690   6.049   6.771  17.206  0.1763  0.2101 -0.0701
 6400TIP3    H140691   5.997   6.850  17.197 -1.4100 -0.8264 -0.2066
 6400TIP3    H240692   6.025   6.736  17.292  0.8232 -0.1545 -0.0343
 6401TIP3   OH240693   0.953   1.755  12.719  0.1447 -0.6895 -0.6166
 6401TIP3    H140694   1.030   1.801  12.753  0.4839 -1.8677  0.2735
 6401TIP3    H240695   0.985   1.711  12.640  1.0850 -3.1405  1.0338
 6402TIP3   OH240696   5.767   3.111   3.383 -0.3903  0.1523 -0.5281
 6402TIP3    H140697   5.853   3.105   3.343  0.3125 -0.4687  1.0144
 6402TIP3    H240698   5.717   3.039   3.345  0.6693 -1.2270  0.5998
 6403TIP3   OH240699   2.740   4.018   3.167 -0.4755 -0.0395  0.4777
 6403TIP3    H140700   2.786   3.991   3.246 -1.0507 -0.2475  0.7437
 6403TIP3    H240701   2.660   3.965   3.166 -1.7535  1.8253  1.1515
 6404TIP3   OH240702   1.750   2.292   4.184  0.1350 -0.0993 -0.1901
 6404TIP3    H140703   1.732   2.386   4.186 -0.2384 -0.1145 -1.8528
 6404TIP3    H240704   1.762   2.267   4.276 -0.3057  1.4659  0.2979
 6405TIP3   OH240705   0.594   4.889  15.467 -0.0475 -0.3018 -0.4369
 6405TIP3    H140706   0.664   4.954  15.474 -0.1453 -0.2210 -0.2110
 6405TIP3    H240707   0.597   4.841  15.550 -0.0803 -0.4816 -0.5383
 6406TIP3   OH240708   4.950   4.854  12.832  0.1231  0.4463  0.0969
 6406TIP3    H140709   4.972   4.782  12.772 -0.1868 -0.3627  0.9286
 6406TIP3    H240710   4.905   4.810  12.905 -0.3400  1.5313  0.4653
 6407TIP3   OH240711   1.039   0.095  11.477 -0.2508 -0.3455  0.0424
 6407TIP3    H140712   0.981   0.116  11.550  0.6520 -1.5065  1.1110
 6407TIP3    H240713   1.003   0.014  11.440 -0.4933  0.0417 -0.5813
 6408TIP3   OH240714   5.655   5.975   0.501  0.3468 -0.1233 -0.4528
 6408TIP3    H140715   5.647   5.965   0.407  1.1170 -0.0788 -0.5234
 6408TIP3    H240716   5.570   6.009   0.529  0.2456  0.2178 -1.1729
 6409TIP3   OH240717   4.924   1.295  12.688 -0.4384  0.1176 -0.1006
 6409TIP3    H140718   4.961   1.328  12.606 -0.8574 -1.3954 -0.9146
 6409TIP3    H240719   5.001   1.280  12.744 -0.0877  0.2982 -0.5299
 6410TIP3   OH240720   1.029   6.454  15.676 -0.7129  0.0487  0.3103
 6410TIP3    H140721   1.026   6.534  15.623 -1.0665  1.0531  1.7900
 6410TIP3    H240722   0.995   6.482  15.762  0.3159 -1.4113  1.2013
 6411TIP3   OH240723   0.074   1.313  12.560 -0.3595  0.1866 -0.1744
 6411TIP3    H140724  -0.007   1.288  12.516 -0.4782 -0.9891  0.6728
 6411TIP3    H240725   0.061   1.404  12.587 -0.6274  0.6262 -1.7625
 6412TIP3   OH240726   2.773   3.076  11.058 -0.4895  0.1033  0.2639
 6412TIP3    H140727   2.798   3.034  10.976 -0.6032  0.3289  0.1160
 6412TIP3    H240728   2.836   3.147  11.070  0.5460 -0.9392  1.1935
 6413TIP3   OH240729   2.546   1.684   1.734  0.2723 -0.3351 -0.4191
 6413TIP3    H140730   2.618   1.737   1.700  1.7457 -2.4592 -0.6839
 6413TIP3    H240731   2.517   1.731   1.812  0.6285  1.5614 -1.3866
 6414TIP3   OH240732   3.428   3.447   6.048 -0.1065 -0.5513 -0.1890
 6414TIP3    H140733   3.383   3.501   5.983  1.2228  0.2515 -0.4517
 6414TIP3    H240734   3.513   3.489   6.060  1.2502 -2.9545 -0.9433
 6415TIP3   OH240735   5.522   2.472  12.583  0.2229 -0.3118 -0.5704
 6415TIP3    H140736   5.513   2.384  12.546  2.4863 -0.7388 -0.1899
 6415TIP3    H240737   5.492   2.463  12.674 -0.2573 -0.5026 -0.7439
 6416TIP3   OH240738   1.763   3.621   3.670  0.0794  0.0235  0.3026
 6416TIP3    H140739   1.846   3.574   3.679  1.1088  1.6779 -0.4073
 6416TIP3    H240740   1.732   3.600   3.582  0.0615 -0.0794  0.3334
 6417TIP3   OH240741   6.709   6.615  13.766 -0.1205 -0.0116  0.5033
 6417TIP3    H140742   6.777   6.657  13.714 -2.4035 -0.2260 -2.7806
 6417TIP3    H240743   6.671   6.686  13.818  0.8086  0.5882  0.3780
 6418TIP3   OH240744   1.643   1.372   1.439 -0.0968  0.4916  0.3282
 6418TIP3    H140745   1.672   1.388   1.349 -0.6985  1.8665  0.3690
 6418TIP3    H240746   1.721   1.339   1.484  0.5821  1.1698 -0.3426
 6419TIP3   OH240747   1.703   5.404   4.799  0.2851 -0.2925 -0.5316
 6419TIP3    H140748   1.668   5.440   4.880 -0.3838  0.8382 -1.3085
 6419TIP3    H240749   1.631   5.412   4.736  0.5045 -1.9413 -1.0277
 6420TIP3   OH240750   5.961   5.577   3.769 -0.2321 -0.3604  0.1471
 6420TIP3    H140751   6.026   5.561   3.837  0.2415  0.5761 -0.0682
 6420TIP3    H240752   6.014   5.598   3.691 -0.7829 -0.2746 -0.2043
 6421TIP3   OH240753   4.363   3.245  13.316  0.0698  0.4005 -0.5459
 6421TIP3    H140754   4.345   3.312  13.250  1.8436  1.6257  0.1940
 6421TIP3    H240755   4.296   3.178  13.300 -1.3071  2.0065 -1.7447
 6422TIP3   OH240756   1.894   6.648  17.062  0.1425  0.2853  0.1807
 6422TIP3    H140757   1.976   6.639  17.013 -1.2969 -0.3596 -2.1823
 6422TIP3    H240758   1.909   6.721  17.121  3.2284 -1.2896  1.4465
 6423TIP3   OH240759   6.009   2.558  14.574  0.2196 -0.1075  0.2116
 6423TIP3    H140760   6.007   2.626  14.507 -0.7223 -0.1757  0.1595
 6423TIP3    H240761   6.056   2.597  14.647  0.5194  0.2594 -0.1767
 6424TIP3   OH240762   2.753   4.607   3.185  0.5958  0.1859 -0.0426
 6424TIP3    H140763   2.768   4.643   3.272 -3.4033  1.8002  0.0728
 6424TIP3    H240764   2.763   4.512   3.196  1.6970  0.5055  1.7876
 6425TIP3   OH240765   6.423   3.949  14.234  0.6806  1.1070  0.1203
 6425TIP3    H140766   6.461   3.985  14.153 -0.1018  0.0008 -0.7491
 6425TIP3    H240767   6.330   3.939  14.215  0.5469  0.5188  1.0450
 6426TIP3   OH240768   1.064   4.245  16.107 -0.4431  0.0217 -0.4305
 6426TIP3    H140769   1.062   4.166  16.053 -0.6662 -0.2123 -0.0780
 6426TIP3    H240770   1.064   4.213  16.197 -3.8628  0.4697 -0.2225
 6427TIP3   OH240771   3.505   4.417  13.149  0.7827  0.1227  0.2262
 6427TIP3    H140772   3.500   4.329  13.111  1.2663 -0.3902  1.3529
 6427TIP3    H240773   3.414   4.440  13.167  0.6881 -0.3191  0.3187
 6428TIP3   OH240774   4.441   6.331  11.866 -0.2447 -0.2686 -0.3163
 6428TIP3    H140775   4.492   6.264  11.820 -2.2721 -2.7337  0.8934
 6428TIP3    H240776   4.419   6.290  11.949 -0.3611  2.4749  1.0305
 6429TIP3   OH240777   4.004   2.080  13.607 -0.0513  0.5627  0.5393
 6429TIP3    H140778   3.927   2.076  13.551 -1.4887 -0.3639  2.5285
 6429TIP3    H240779   4.054   2.001  13.586 -0.3737  0.4292  0.2768
 6430TIP3   OH240780   2.081   0.850  12.713 -0.9248  0.1953  0.3038
 6430TIP3    H140781   2.143   0.889  12.774  0.6851  0.9040 -1.7145
 6430TIP3    H240782   2.105   0.757  12.711 -0.8719  0.2019  0.6343
 6431TIP3   OH240783   3.876   0.134   3.515  0.1937 -0.1062 -0.0537
 6431TIP3    H140784   3.858   0.078   3.439 -1.5602  0.2944  0.0425
 6431TIP3    H240785   3.950   0.092   3.559 -0.5651 -1.9024 -0.4387
 6432TIP3   OH240786   3.806   4.882   5.525  0.5631  0.6463 -0.9594
 6432TIP3    H140787   3.884   4.833   5.499  0.6626  0.5366 -0.4690
 6432TIP3    H240788   3.738   4.854   5.464  1.0142  1.0604 -1.6563
 6433TIP3   OH240789   0.052   3.861   3.875 -0.5944  0.1022 -0.0037
 6433TIP3    H140790   0.144   3.886   3.882 -0.8652  1.0700  0.1944
 6433TIP3    H240791   0.013   3.929   3.819 -0.9933 -0.8200 -0.8670
 6434TIP3   OH240792   6.282   4.067   6.562  0.1744  0.2187 -0.4961
 6434TIP3    H140793   6.272   3.972   6.572 -1.1248  0.3969 -0.0412
 6434TIP3    H240794   6.324   4.078   6.477  0.5066 -0.7787 -0.4633
 6435TIP3   OH240795   1.261   3.181   2.870 -0.5162 -0.2170 -0.8612
 6435TIP3    H140796   1.211   3.205   2.948 -1.4112  1.3787 -1.8932
 6435TIP3    H240797   1.194   3.159   2.805  0.1230  1.0754 -1.9859
 6436TIP3   OH240798   0.042   2.870   0.662 -0.4729 -0.4405  0.9632
 6436TIP3    H140799   0.077   2.786   0.693  1.0193  0.1332  0.8773
 6436TIP3    H240800   0.007   2.850   0.575  2.5123 -0.4148 -0.3289
 6437TIP3   OH240801   2.205   5.151  15.241 -0.5165 -0.1846  0.0618
 6437TIP3    H140802   2.145   5.226  15.235  0.5138  0.5384 -1.5410
 6437TIP3    H240803   2.171   5.088  15.178 -0.2529 -0.2480 -0.0187
 6438TIP3   OH240804   5.578   1.180   1.128 -0.7179 -0.3997 -0.3594
 6438TIP3    H140805   5.562   1.249   1.064  3.3887  0.6462 -0.4163
 6438TIP3    H240806   5.613   1.107   1.076 -0.5905 -0.7749  0.2458
 6439TIP3   OH240807   1.712   1.788  15.413  0.5030 -0.1148  0.3837
 6439TIP3    H140808   1.694   1.863  15.356 -0.6870  0.3969  1.4045
 6439TIP3    H240809   1.627   1.765  15.450  1.0898 -1.1043  1.1510
 6440TIP3   OH240810   0.712   1.632   5.030 -0.1665 -0.2723  0.1109
 6440TIP3    H140811   0.689   1.651   5.121  0.0640  2.4760 -0.3465
 6440TIP3    H240812   0.802   1.602   5.034 -0.5087 -1.2335  0.8823
 6441TIP3   OH240813   6.307   3.339  11.349 -0.1042 -0.8822 -0.4752
 6441TIP3    H140814   6.249   3.319  11.423  0.4348  0.1891  0.2525
 6441TIP3    H240815   6.287   3.272  11.284 -1.0143 -1.4821  0.4091
 6442TIP3   OH240816   4.089   4.721   1.679 -0.5338  0.4542 -0.4773
 6442TIP3    H140817   3.994   4.712   1.671 -0.8347  2.0189  0.8601
 6442TIP3    H240818   4.108   4.808   1.644  0.5509 -0.2262 -1.6296
 6443TIP3   OH240819   1.540   1.899  14.743  0.2837 -0.2907  0.3743
 6443TIP3    H140820   1.621   1.897  14.692  0.0235 -1.4283 -0.0071
 6443TIP3    H240821   1.520   1.807  14.761 -0.5216  0.0150  1.1143
 6444TIP3   OH240822   5.133   2.433  12.491 -0.0639  0.0709  0.5169
 6444TIP3    H140823   5.115   2.495  12.419 -2.1490 -0.7682  0.2938
 6444TIP3    H240824   5.178   2.486  12.557  0.6399  1.1829 -0.8176
 6445TIP3   OH240825   4.581   0.404   5.499  0.6822 -0.0505  0.1132
 6445TIP3    H140826   4.520   0.331   5.500 -0.1131  0.6188  1.3674
 6445TIP3    H240827   4.591   0.429   5.591  2.0885  0.4767 -0.1577
 6446TIP3   OH240828   4.745   6.356  11.576 -0.1810 -0.5572 -0.5793
 6446TIP3    H140829   4.796   6.306  11.640  0.3598  1.7720  0.8905
 6446TIP3    H240830   4.665   6.380  11.622 -1.0887 -1.2721 -1.7472
 6447TIP3   OH240831   5.494   6.018   4.506 -0.2132 -0.3278  0.4769
 6447TIP3    H140832   5.409   6.062   4.514 -0.1456 -0.1862  0.4089
 6447TIP3    H240833   5.495   5.956   4.579 -1.9400 -2.9309 -1.5980
 6448TIP3   OH240834   3.289   3.103  14.222 -0.2212 -0.1123 -0.0967
 6448TIP3    H140835   3.250   3.045  14.287  0.3599 -1.0378 -0.5581
 6448TIP3    H240836   3.251   3.189  14.240  0.2692 -0.2601  1.7398
 6449TIP3   OH240837   3.677   5.658  13.227  0.3357  0.0684 -0.4894
 6449TIP3    H140838   3.710   5.741  13.262 -1.2089  0.2504  0.5698
 6449TIP3    H240839   3.745   5.594  13.251  1.2468  0.9175 -0.7948
 6450TIP3   OH240840   0.180   4.119   2.824 -0.0373  0.3253  0.2434
 6450TIP3    H140841   0.146   4.029   2.827 -0.1021  0.3842  1.1732
 6450TIP3    H240842   0.275   4.108   2.826 -0.0369  0.2704  0.0273
 6451TIP3   OH240843   2.146   5.294  16.760 -0.1000  0.1379  0.3623
 6451TIP3    H140844   2.216   5.310  16.823  0.2364 -1.2466  0.3531
 6451TIP3    H240845   2.176   5.338  16.680 -0.4705  1.7897  1.0945
 6452TIP3   OH240846   4.557   4.196  13.988  0.4398 -0.3987  0.2343
 6452TIP3    H140847   4.504   4.120  13.965  1.3939 -1.2566  0.8150
 6452TIP3    H240848   4.600   4.222  13.906 -2.3738  1.5490 -0.7109
 6453TIP3   OH240849   3.751   1.992  13.135  0.4517  0.2191 -0.5416
 6453TIP3    H140850   3.837   1.976  13.097 -0.1142 -1.6973 -1.0623
 6453TIP3    H240851   3.698   2.026  13.062  1.0289  2.4372  0.0281
 6454TIP3   OH240852   3.030   3.811  12.302  0.1419 -0.7474  0.3127
 6454TIP3    H140853   3.073   3.738  12.347  0.8030 -0.3864  0.2698
 6454TIP3    H240854   2.969   3.846  12.368  1.8979  0.4751  1.3383
 6455TIP3   OH240855   6.210   6.038  14.798 -0.0170  0.6775  0.2387
 6455TIP3    H140856   6.138   6.087  14.758 -1.9112 -1.4095  0.9652
 6455TIP3    H240857   6.175   5.950  14.810  1.6061  0.3962  3.4833
 6456TIP3   OH240858   5.990   0.736   0.732  0.2699  0.7854 -0.1047
 6456TIP3    H140859   6.084   0.752   0.721  0.0751  1.5387 -0.7193
 6456TIP3    H240860   5.948   0.806   0.683 -0.6205  0.4896  0.2255
 6457TIP3   OH240861   0.895   5.697   1.707  0.3593  0.2232 -0.0708
 6457TIP3    H140862   0.916   5.676   1.798 -1.4303 -0.7155  0.1428
 6457TIP3    H240863   0.844   5.778   1.713 -0.1230 -0.0668 -0.1830
 6458TIP3   OH240864   3.150   4.706  16.614  0.6145 -0.0931  0.4202
 6458TIP3    H140865   3.227   4.707  16.671  1.2290  0.5327 -0.3957
 6458TIP3    H240866   3.084   4.658  16.663  0.6645  1.6794  2.2844
 6459TIP3   OH240867   3.616   4.301   4.771 -0.4616 -0.4193 -0.2326
 6459TIP3    H140868   3.602   4.229   4.710 -0.3495 -2.3492  1.9396
 6459TIP3    H240869   3.711   4.303   4.783 -0.4251  0.4182 -0.6916
 6460TIP3   OH240870   0.771   5.667   6.670  0.1882 -0.0140  0.8130
 6460TIP3    H140871   0.686   5.625   6.663  0.6130 -0.8751  0.7884
 6460TIP3    H240872   0.833   5.595   6.685  0.9455  0.5746  0.5652
 6461TIP3   OH240873   0.721   2.950   0.138 -0.1833  0.2263 -0.1080
 6461TIP3    H140874   0.758   2.913   0.218 -2.0832  0.0684  0.7248
 6461TIP3    H240875   0.726   2.879   0.075 -0.5741 -0.3229  0.4715
 6462TIP3   OH240876   0.639   0.055  11.689 -0.0373  0.4585 -1.1488
 6462TIP3    H140877   0.612   0.131  11.637  0.9985  1.2097 -0.6181
 6462TIP3    H240878   0.573   0.048  11.758  1.5875  2.8983  0.7484
 6463TIP3   OH240879   3.376   3.246   0.668  0.3501  0.2669  0.2594
 6463TIP3    H140880   3.386   3.291   0.751  3.5710  0.6777 -0.2774
 6463TIP3    H240881   3.293   3.278   0.633 -1.3694 -0.3799  3.5357
 6464TIP3   OH240882   0.520   2.278  15.875  0.6034  0.6524  0.1298
 6464TIP3    H140883   0.546   2.348  15.816 -0.9078  1.7613  0.7429
 6464TIP3    H240884   0.446   2.236  15.831  0.8261  0.1136  0.2621
 6465TIP3   OH240885   3.726   6.515   3.533 -0.4803 -0.6794  0.0303
 6465TIP3    H140886   3.659   6.465   3.580 -0.2454 -1.5085 -0.5093
 6465TIP3    H240887   3.729   6.475   3.446 -0.7850  0.7292 -0.6397
 6466TIP3   OH240888   5.439   1.189  12.524 -0.0005 -0.2444  0.4717
 6466TIP3    H140889   5.394   1.142  12.595 -0.9714 -0.2802 -0.1543
 6466TIP3    H240890   5.506   1.242  12.568 -0.3013 -0.6124  1.3720
 6467TIP3   OH240891   0.868   0.004   1.758 -0.3150  0.2579 -0.4038
 6467TIP3    H140892   0.961   0.022   1.773 -0.4982  0.2588  0.7877
 6467TIP3    H240893   0.867  -0.068   1.695  0.5025 -0.0146 -0.1102
 6468TIP3   OH240894   5.940   1.111  14.379 -0.8908  0.3297 -0.2968
 6468TIP3    H140895   5.869   1.134  14.439  1.2402 -1.2507  2.9768
 6468TIP3    H240896   5.949   1.016  14.389  1.4695  0.4707 -0.9038
 6469TIP3   OH240897   6.375   5.332   2.517 -0.2543 -0.1598 -0.3422
 6469TIP3    H140898   6.294   5.302   2.558  1.5420 -1.5278  2.2849
 6469TIP3    H240899   6.382   5.424   2.541 -0.7612 -0.1703 -0.1568
 6470TIP3   OH240900   5.052   1.041  12.119  0.4769  0.0910  0.3520
 6470TIP3    H140901   5.125   1.079  12.168  0.4764 -0.3380  0.6905
 6470TIP3    H240902   5.092   1.007  12.039  1.0075 -1.9658  1.4496
 6471TIP3   OH240903   3.054   4.758   3.282 -0.4481  0.0358  0.1965
 6471TIP3    H140904   3.077   4.810   3.205 -1.8995  1.1754  0.5152
 6471TIP3    H240905   2.972   4.796   3.313 -0.0852 -0.6623  2.0769
 6472TIP3   OH240906   1.193   0.931   2.599  0.0684  0.1920 -0.0208
 6472TIP3    H140907   1.161   0.977   2.677 -2.2289 -1.1428 -0.1408
 6472TIP3    H240908   1.182   0.838   2.619  0.1540 -0.1808 -1.6416
 6473TIP3   OH240909   4.081   1.444   1.943  0.1279 -0.1018  1.3250
 6473TIP3    H140910   4.158   1.489   1.907  1.6242 -0.7009  3.6674
 6473TIP3    H240911   4.096   1.351   1.921 -2.4843  0.2990 -2.6639
 6474TIP3   OH240912   3.714   2.152  14.263  0.4795 -0.0584 -0.6718
 6474TIP3    H140913   3.809   2.157  14.250  0.6300 -0.3055  0.2909
 6474TIP3    H240914   3.683   2.240  14.241  1.0643  0.3302  0.0332
 6475TIP3   OH240915   5.339   5.173   1.086  0.3227  0.6798 -0.1554
 6475TIP3    H140916   5.430   5.158   1.062  0.0968 -1.2315  0.1027
 6475TIP3    H240917   5.289   5.111   1.033 -0.6532  0.3219  1.1530
 6476TIP3   OH240918   6.722   1.364  15.196  0.2686 -0.1141 -0.9071
 6476TIP3    H140919   6.731   1.317  15.279  1.7786 -1.0230 -1.5626
 6476TIP3    H240920   6.753   1.453  15.215  0.5840 -0.3125 -0.4916
 6477TIP3   OH240921   6.263   5.820   2.638 -0.3108  0.1960 -0.1743
 6477TIP3    H140922   6.263   5.889   2.573 -0.2986 -0.1505 -0.5462
 6477TIP3    H240923   6.313   5.855   2.711 -2.1170  1.4096  0.5214
 6478TIP3   OH240924   1.820   6.481   4.007 -0.2949 -0.2674  0.3705
 6478TIP3    H140925   1.735   6.524   4.014  0.3778  0.9058  1.4262
 6478TIP3    H240926   1.802   6.388   4.019 -1.0388  0.2650  3.5740
 6479TIP3   OH240927   0.547   0.260  14.829  0.5174  0.3166  0.1831
 6479TIP3    H140928   0.591   0.345  14.825  1.2631 -0.0513  0.4836
 6479TIP3    H240929   0.585   0.217  14.905  1.7612 -1.1742 -1.2589
 6480TIP3   OH240930   2.709   1.823  16.372  0.2239 -0.2184 -0.1023
 6480TIP3    H140931   2.680   1.744  16.326 -0.9897 -0.0473  0.3298
 6480TIP3    H240932   2.628   1.858  16.411  1.2049 -0.3806  2.1629
 6481TIP3   OH240933   3.280   2.986   2.886 -0.1269 -0.4325  0.1078
 6481TIP3    H140934   3.340   3.024   2.821 -0.0509 -0.4544  0.1642
 6481TIP3    H240935   3.207   3.047   2.889 -0.9049 -1.2648 -1.1996
 6482TIP3   OH240936   2.930   4.241  15.891  0.6227 -0.4486  0.1693
 6482TIP3    H140937   2.908   4.212  15.802  0.3785 -2.0086  0.7290
 6482TIP3    H240938   2.847   4.268  15.929  0.7085  0.0985 -0.0277
 6483TIP3   OH240939   3.231   2.070  12.012 -0.5279  0.2169 -0.4264
 6483TIP3    H140940   3.319   2.032  12.018  0.4702  1.8738 -3.4773
 6483TIP3    H240941   3.177   2.000  11.976  0.0830 -0.0804 -0.7784
 6484TIP3   OH240942   0.238   1.356   2.089 -0.4007  0.2029  0.4460
 6484TIP3    H140943   0.232   1.268   2.052  0.5813  0.1195  0.4944
 6484TIP3    H240944   0.146   1.383   2.099 -0.7041 -0.6674  0.1001
 6485TIP3   OH240945   2.408   4.217  14.124  0.2216  0.2235 -0.4097
 6485TIP3    H140946   2.361   4.238  14.044  1.1363 -0.6809 -1.1955
 6485TIP3    H240947   2.340   4.206  14.190 -0.6296 -0.5580 -1.4120
 6486TIP3   OH240948   4.298   3.964   4.768 -0.1356 -0.9393  0.0931
 6486TIP3    H140949   4.386   3.956   4.731 -0.2343  1.7440 -0.8464
 6486TIP3    H240950   4.313   3.986   4.861  0.2139 -0.5304 -0.0542
 6487TIP3   OH240951   3.105   2.677   1.796 -0.0359 -0.3615 -0.7180
 6487TIP3    H140952   3.139   2.753   1.844 -0.9112 -0.2363 -0.2759
 6487TIP3    H240953   3.037   2.713   1.739 -2.1177 -1.0939  1.2033
 6488TIP3   OH240954   4.237   3.565   6.347 -0.3024 -0.1031  0.2358
 6488TIP3    H140955   4.195   3.499   6.292 -3.7947  2.1698 -0.0362
 6488TIP3    H240956   4.193   3.558   6.431  1.1967  0.0801  1.0479
 6489TIP3   OH240957   5.366   3.154  15.503  0.2920 -0.1567 -0.1423
 6489TIP3    H140958   5.301   3.223  15.488 -1.3834 -1.2683  1.6983
 6489TIP3    H240959   5.340   3.083  15.445  1.0718  0.1757 -0.8904
 6490TIP3   OH240960   0.299   5.470  15.320 -0.6697 -0.3944  0.0031
 6490TIP3    H140961   0.318   5.382  15.350 -0.5682 -1.1083 -2.0801
 6490TIP3    H240962   0.203   5.473  15.312 -0.6807 -0.2852  0.1760
 6491TIP3   OH240963   3.616   2.973   1.528 -0.5578  0.1208  0.0716
 6491TIP3    H140964   3.520   2.972   1.524 -0.5836 -0.2372  0.7013
 6491TIP3    H240965   3.636   2.969   1.622  0.0692  0.8522 -0.0197
 6492TIP3   OH240966   3.180   6.605   1.853 -0.6197  0.5138 -0.0346
 6492TIP3    H140967   3.217   6.579   1.768  0.6058 -0.8445  0.9049
 6492TIP3    H240968   3.237   6.564   1.918 -2.2408  0.5580  1.4498
 6493TIP3   OH240969   6.482   0.902  10.832 -0.2601  0.4280 -0.7090
 6493TIP3    H140970   6.400   0.873  10.791 -0.2944  1.2192 -1.2048
 6493TIP3    H240971   6.486   0.996  10.815  0.1617  0.6074  0.3569
 6494TIP3   OH240972   5.704   1.245  15.671 -0.3042 -0.0368  0.4682
 6494TIP3    H140973   5.767   1.174  15.685  0.2272  0.5138  0.8798
 6494TIP3    H240974   5.671   1.230  15.582  1.4200  0.4560 -0.2740
 6495TIP3   OH240975   3.509   5.632   5.154 -0.3687  0.2673 -0.0415
 6495TIP3    H140976   3.594   5.599   5.186  0.5363  1.4423 -1.1735
 6495TIP3    H240977   3.452   5.628   5.231  0.5681 -0.9760  0.6262
 6496TIP3   OH240978   0.463   6.774   0.371 -0.0487 -0.0391  0.3332
 6496TIP3    H140979   0.522   6.840   0.408  0.6206 -1.3859  1.7056
 6496TIP3    H240980   0.446   6.804   0.282  3.2579  0.0033 -0.3211
 6497TIP3   OH240981   4.499   4.377  11.939 -0.4080  0.2185 -0.7170
 6497TIP3    H140982   4.566   4.321  11.978  0.5057  2.2782  0.7372
 6497TIP3    H240983   4.473   4.331  11.859 -1.4689 -3.4806  1.6373
 6498TIP3   OH240984   0.482   4.509   1.583 -0.3518 -0.1669 -0.3171
 6498TIP3    H140985   0.568   4.482   1.616  0.2053 -0.0620 -1.6324
 6498TIP3    H240986   0.446   4.430   1.543 -0.7890 -0.1674  0.0814
 6499TIP3   OH240987   2.536   1.799  13.068 -0.0301 -0.3571 -0.1758
 6499TIP3    H140988   2.483   1.803  12.989 -1.5263  0.7874  0.8736
 6499TIP3    H240989   2.473   1.795  13.139  1.3076 -1.7323  0.9699
 6500TIP3   OH240990   1.970   3.691   1.401 -0.4455  0.4272 -0.2024
 6500TIP3    H140991   1.889   3.640   1.404 -0.4006  0.4203  1.0353
 6500TIP3    H240992   1.942   3.782   1.414 -0.3261  0.5104 -0.5134
 6501TIP3   OH240993   1.458   3.588  12.349  0.3386  0.1340  0.2384
 6501TIP3    H140994   1.474   3.682  12.346 -1.0173  0.3218 -1.7986
 6501TIP3    H240995   1.363   3.579  12.351  0.4698 -1.1852  1.6360
 6502TIP3   OH240996   1.167   3.809  10.409 -0.5046  0.3807 -0.6301
 6502TIP3    H140997   1.081   3.815  10.450 -1.5889 -1.6635 -2.4617
 6502TIP3    H240998   1.181   3.896  10.371 -0.7965  1.3730  1.4620
 6503TIP3   OH240999   0.600   1.948   5.618 -0.5710  0.1292 -0.7040
 6503TIP3    H141000   0.671   1.986   5.670 -0.9084 -0.7697  0.4323
 6503TIP3    H241001   0.575   1.869   5.666 -1.7286 -0.0421 -1.5785
 6504TIP3   OH241002   3.094   5.975  11.819 -0.6854 -0.0659  0.0569
 6504TIP3    H141003   3.167   5.971  11.756  0.5445  2.4387  1.2743
 6504TIP3    H241004   3.022   5.931  11.774  0.8593 -0.4221 -2.1694
 6505TIP3   OH241005   0.827   5.170   4.123 -0.2396 -0.1317  0.1537
 6505TIP3    H141006   0.754   5.225   4.154  0.9351  0.8140  1.2902
 6505TIP3    H241007   0.894   5.232   4.096  0.6566 -1.0036  0.3493
 6506TIP3   OH241008   6.052   5.776  14.683 -0.2929  0.2003  0.5337
 6506TIP3    H141009   5.969   5.817  14.661 -0.3673  0.5110  1.3685
 6506TIP3    H241010   6.030   5.706  14.744 -0.1221 -0.8393 -0.5767
 6507TIP3   OH241011   5.868   6.774   2.782  0.6087  0.3542  0.1338
 6507TIP3    H141012   5.957   6.760   2.815  0.1358  0.1931  1.3531
 6507TIP3    H241013   5.878   6.844   2.718  1.4297  1.1285  1.0958
 6508TIP3   OH241014   3.381   1.054   6.182  0.2129 -0.1477 -0.2897
 6508TIP3    H141015   3.351   0.964   6.175  0.7905 -0.3672  0.0430
 6508TIP3    H241016   3.453   1.051   6.245  0.2717  0.5349 -0.3161
 6509TIP3   OH241017   5.012   4.507  17.179 -0.3150  0.2680  0.2457
 6509TIP3    H141018   5.065   4.509  17.099 -1.3098  1.2528 -0.4127
 6509TIP3    H241019   5.059   4.563  17.240  0.4436 -0.4746  0.3521
 6510TIP3   OH241020   6.759   3.107   1.661  0.3910 -0.1715 -0.2726
 6510TIP3    H141021   6.747   3.196   1.693  0.3407  0.2942 -1.5929
 6510TIP3    H241022   6.692   3.096   1.594  0.3592 -1.2290 -0.0870
 6511TIP3   OH241023   5.291   4.376  11.219  0.2354 -0.0939 -0.5254
 6511TIP3    H141024   5.353   4.324  11.270 -1.0490 -1.4482 -0.3078
 6511TIP3    H241025   5.330   4.379  11.131  1.2928  0.2791 -0.0625
 6512TIP3   OH241026   2.609   2.051  13.206 -0.0286 -0.0893  0.4968
 6512TIP3    H141027   2.601   1.998  13.127 -2.3722  0.1117  0.5593
 6512TIP3    H241028   2.665   2.125  13.180 -0.1632 -0.4245 -0.7523
 6513TIP3   OH241029   2.659   6.618   3.307 -0.7435  0.4528  0.2971
 6513TIP3    H141030   2.582   6.606   3.363  0.7166 -0.3151  2.1977
 6513TIP3    H241031   2.680   6.529   3.277 -0.2300  0.5781  0.2876
 6514TIP3   OH241032   5.783   1.374  13.222  0.2353  0.2229  0.3883
 6514TIP3    H141033   5.691   1.384  13.245 -0.1052 -1.5137 -0.1417
 6514TIP3    H241034   5.809   1.459  13.186 -1.1088  0.7604  0.6771
 6515TIP3   OH241035   2.404   1.329  11.605 -0.3184  0.0772  0.4652
 6515TIP3    H141036   2.439   1.290  11.686  0.9118  0.0553 -0.0697
 6515TIP3    H241037   2.417   1.262  11.538 -3.9329 -1.0325  0.7773
 6516TIP3   OH241038   3.327   2.376  13.333  0.4580  0.1764  0.1845
 6516TIP3    H141039   3.299   2.465  13.354  0.5790 -0.0941  1.5149
 6516TIP3    H241040   3.247   2.332  13.305  0.0035  0.1105  1.5614
 6517TIP3   OH241041   3.491   4.859  16.427  0.5568 -0.0542 -0.0844
 6517TIP3    H141042   3.494   4.849  16.332  0.7881 -2.4507  0.1523
 6517TIP3    H241043   3.404   4.894  16.444  0.1919 -0.4176 -1.1172
 6518TIP3   OH241044   6.166   5.732  12.994  0.6511 -0.2101 -0.1582
 6518TIP3    H141045   6.160   5.826  12.976 -2.8509 -0.5290 -0.9324
 6518TIP3    H241046   6.217   5.697  12.921  1.3921  0.9673 -0.2257
 6519TIP3   OH241047   6.071   0.918  16.273 -0.1007 -0.0014  0.2800
 6519TIP3    H141048   5.997   0.941  16.217 -0.5434 -2.5023 -0.2105
 6519TIP3    H241049   6.050   0.956  16.358 -0.7962  1.3443 -0.4772
 6520TIP3   OH241050   2.640   3.123  12.222  0.2014 -0.1764 -0.0158
 6520TIP3    H141051   2.592   3.189  12.172 -0.2853 -0.7313 -0.2876
 6520TIP3    H241052   2.731   3.135  12.196  0.1172  0.3995 -0.0522
 6521TIP3   OH241053   4.258   4.927   4.155 -0.3165 -0.7248  0.8186
 6521TIP3    H141054   4.315   4.855   4.180  1.6207  0.4506 -0.0903
 6521TIP3    H241055   4.303   5.006   4.186  0.6051  0.5301 -3.4004
 6522TIP3   OH241056   3.673   1.092   1.694 -0.0536  0.2566  0.5351
 6522TIP3    H141057   3.666   1.125   1.604  0.6615 -0.4534  0.2221
 6522TIP3    H241058   3.757   1.125   1.725  0.4088 -0.8105  0.4124
 6523TIP3   OH241059   3.871   3.740   0.074 -0.5082 -0.8226  0.3163
 6523TIP3    H141060   3.804   3.808   0.084 -0.8655 -0.9839 -0.9687
 6523TIP3    H241061   3.836   3.680   0.008 -0.3139 -2.4252  1.6372
 6524TIP3   OH241062   1.233   3.105  14.574 -0.2407 -0.3047  0.0467
 6524TIP3    H141063   1.200   3.173  14.634 -3.0894 -1.0569 -0.6031
 6524TIP3    H241064   1.294   3.152  14.517 -1.4577  1.5220  0.1954
 6525TIP3   OH241065   2.192   2.022   0.002 -0.2114 -0.1854  0.1792
 6525TIP3    H141066   2.156   2.109  -0.014 -0.5242  0.1404  2.4815
 6525TIP3    H241067   2.115   1.964   0.002 -0.0718 -0.3676 -0.7653
 6526TIP3   OH241068   1.802   1.754  14.070 -0.0669  0.1205 -0.0416
 6526TIP3    H141069   1.786   1.686  14.135  1.5945 -0.2687 -0.0366
 6526TIP3    H241070   1.719   1.802  14.065 -0.2819 -0.0037  2.1512
 6527TIP3   OH241071   3.989   5.639  12.732  0.3201  0.0580  0.0404
 6527TIP3    H141072   3.955   5.596  12.811  1.4641  2.2334  1.7426
 6527TIP3    H241073   3.997   5.731  12.756  2.0819  0.5080 -2.1663
 6528TIP3   OH241074   2.626   1.023   3.084 -0.9286 -0.0301  0.1393
 6528TIP3    H141075   2.616   0.989   2.994 -1.4139 -0.1548  0.2366
 6528TIP3    H241076   2.547   1.075   3.098 -0.1118  1.2919 -0.0639
 6529TIP3   OH241077   3.336   4.080   2.274 -0.0819  0.2783 -0.5032
 6529TIP3    H141078   3.295   4.145   2.216  0.1482  1.1208  0.2687
 6529TIP3    H241079   3.428   4.106   2.278  0.0960 -0.3309 -0.4989
 6530TIP3   OH241080   2.935   5.590  17.092 -0.0136  0.5218 -0.1529
 6530TIP3    H141081   2.848   5.603  17.055 -0.0849 -1.2145 -0.6391
 6530TIP3    H241082   2.962   5.677  17.121 -1.5407  1.2289 -0.8043
 6531TIP3   OH241083   0.753   1.456  11.845  0.0760 -0.2652 -0.0973
 6531TIP3    H141084   0.803   1.385  11.805 -1.1135 -0.3998 -1.3848
 6531TIP3    H241085   0.819   1.520  11.872  1.0765 -1.3253  0.0242
 6532TIP3   OH241086   2.222   1.613  14.113 -0.2978 -0.1665  0.2770
 6532TIP3    H141087   2.263   1.648  14.192 -2.0088  2.0407  0.2269
 6532TIP3    H241088   2.179   1.689  14.073 -0.9061 -1.6045 -1.8533
 6533TIP3   OH241089   1.538   3.838  15.424 -0.0907 -0.3283 -0.2413
 6533TIP3    H141090   1.619   3.832  15.372 -1.0946  0.8083 -1.9810
 6533TIP3    H241091   1.563   3.887  15.502  0.9422 -0.1303 -0.6897
 6534TIP3   OH241092   3.861   0.383  13.108 -0.2851  0.6030  0.1771
 6534TIP3    H141093   3.936   0.427  13.147  1.1336 -1.6732  0.1182
 6534TIP3    H241094   3.867   0.403  13.015 -0.6662  1.7234  0.3888
 6535TIP3   OH241095   3.080   3.656   0.706 -0.0531  0.0146  0.4396
 6535TIP3    H141096   3.047   3.746   0.700 -1.7057 -0.6112 -0.0786
 6535TIP3    H241097   3.001   3.602   0.718  0.9380 -1.3483  0.9882
 6536TIP3   OH241098   6.645   6.100   5.806  0.0026 -0.2040 -0.2367
 6536TIP3    H141099   6.677   6.175   5.856  0.3206  0.6838 -1.7403
 6536TIP3    H241100   6.643   6.028   5.869  0.8677  0.7662  0.9217
 6537TIP3   OH241101   4.928   2.383   0.239 -0.1785  0.2463 -0.0324
 6537TIP3    H141102   4.843   2.343   0.223  0.7475 -1.8321  0.0919
 6537TIP3    H241103   4.963   2.336   0.315  0.7527  1.6174  0.4184
 6538TIP3   OH241104   3.973   5.265   0.100 -0.0579 -0.0738  0.2387
 6538TIP3    H141105   4.011   5.208   0.167  1.2395  1.6289  0.9914
 6538TIP3    H241106   3.995   5.354   0.129 -1.5124  0.7974 -1.2233
 6539TIP3   OH241107   4.322   4.240  12.857  0.8721  0.1308  0.5112
 6539TIP3    H141108   4.383   4.198  12.917  1.4438 -0.3274 -0.3867
 6539TIP3    H241109   4.362   4.230  12.770 -0.4439 -0.1148 -0.0760
 6540TIP3   OH241110   5.642   0.882  11.785  0.4090  0.2713  0.2156
 6540TIP3    H141111   5.561   0.835  11.804  0.3330 -0.5458 -1.9837
 6540TIP3    H241112   5.706   0.813  11.768  0.9471  0.9264 -0.4642
 6541TIP3   OH241113   3.005   0.338  13.230 -0.2415 -0.7253 -0.1218
 6541TIP3    H141114   2.923   0.354  13.277  1.6657  0.5059  2.9854
 6541TIP3    H241115   2.986   0.361  13.139 -3.3731 -0.6766  0.5004
 6542TIP3   OH241116   6.590   6.163  14.021  0.0437 -0.1613 -0.0335
 6542TIP3    H141117   6.595   6.195  14.111 -1.8794 -2.8674  1.1030
 6542TIP3    H241118   6.661   6.099  14.014  0.7808  0.7213 -0.7595
 6543TIP3   OH241119   1.851   5.739   2.078 -0.0909  0.5395 -0.4213
 6543TIP3    H141120   1.829   5.646   2.078 -3.9921  1.3900  0.0077
 6543TIP3    H241121   1.917   5.748   2.147  0.4551 -1.8833 -0.5803
 6544TIP3   OH241122   2.408   1.479   4.418  0.6243 -0.1569  0.4073
 6544TIP3    H141123   2.359   1.428   4.353  0.1842  0.8936 -0.0915
 6544TIP3    H241124   2.340   1.524   4.468  1.0060 -0.2671  1.0313
 6545TIP3   OH241125   0.514   0.945   5.147 -0.1623 -0.3405  0.3760
 6545TIP3    H141126   0.485   0.966   5.235 -0.7782 -1.7381  0.5201
 6545TIP3    H241127   0.590   1.001   5.132 -0.7005  0.6629  1.3937
 6546TIP3   OH241128   6.196   1.507   2.385  0.2393  0.0092 -0.1628
 6546TIP3    H141129   6.197   1.602   2.395 -2.5771  0.1071 -0.4417
 6546TIP3    H241130   6.132   1.476   2.450  0.0770 -1.5523 -1.0344
 6547TIP3   OH241131   1.551   5.162  11.846  0.0707  0.3483 -0.5492
 6547TIP3    H141132   1.492   5.218  11.896 -2.0257 -1.1819 -1.2532
 6547TIP3    H241133   1.609   5.123  11.911 -2.1102 -1.0056  0.6448
 6548TIP3   OH241134   3.351   5.882  15.496 -0.0145 -0.7674 -0.3053
 6548TIP3    H141135   3.332   5.895  15.404  0.1421  0.0243 -0.2399
 6548TIP3    H241136   3.441   5.848  15.498 -0.3472 -1.6445 -0.4841
 6549TIP3   OH241137   2.740   6.446   2.965 -0.1894  0.2113 -0.0573
 6549TIP3    H141138   2.766   6.394   3.041  1.3415  0.0562 -0.6638
 6549TIP3    H241139   2.815   6.502   2.947  0.0759 -0.8056 -2.3473
 6550TIP3   OH241140   5.955   5.573  12.302  0.4245  0.2514  0.2059
 6550TIP3    H141141   5.962   5.641  12.369  0.1223  0.2965  0.1925
 6550TIP3    H241142   5.905   5.613  12.232  0.7124  0.1934 -0.0359
 6551TIP3   OH241143   6.299   1.312   6.434 -0.2868 -0.5924  0.2296
 6551TIP3    H141144   6.210   1.284   6.454  0.2425 -0.7975  2.4360
 6551TIP3    H241145   6.294   1.348   6.346 -2.4527 -1.0142  0.1598
 6552TIP3   OH241146   2.084   4.575  12.274 -0.2942 -0.0261  0.0552
 6552TIP3    H141147   2.001   4.527  12.267 -0.0139 -0.4306 -0.4754
 6552TIP3    H241148   2.146   4.525  12.222 -0.2995  1.5958 -1.5932
 6553TIP3   OH241149   4.229   0.616   2.805  0.0008  0.0738 -0.0448
 6553TIP3    H141150   4.257   0.629   2.896  1.9870  1.3821 -0.8185
 6553TIP3    H241151   4.286   0.672   2.754 -1.2579 -0.4751 -2.1116
 6554TIP3   OH241152   3.121   1.296  15.534 -0.4569  0.2371 -0.2222
 6554TIP3    H141153   3.200   1.252  15.503 -0.2174  0.8138 -0.4372
 6554TIP3    H241154   3.144   1.326  15.622 -0.0448  1.3859 -0.7074
 6555TIP3   OH241155   1.891   3.167  12.762 -0.1119  0.1155 -0.2211
 6555TIP3    H141156   1.819   3.105  12.768 -1.4415  1.5536 -1.0992
 6555TIP3    H241157   1.968   3.117  12.788 -1.2950 -1.6604 -0.0906
 6556TIP3   OH241158   0.256   6.129  17.230  0.0231  0.0981 -0.2046
 6556TIP3    H141159   0.181   6.125  17.171 -0.4424 -4.7533  0.5719
 6556TIP3    H241160   0.230   6.189  17.299 -1.2348  2.1630 -2.3938
 6557TIP3   OH241161   2.513   0.579   1.885 -0.4039  0.0456  0.2072
 6557TIP3    H141162   2.567   0.566   1.807 -0.2141 -1.0390  0.5205
 6557TIP3    H241163   2.553   0.524   1.951 -1.6938 -0.4879  0.5414
 6558TIP3   OH241164   3.563   6.632  10.665 -0.2761 -0.3142 -0.5749
 6558TIP3    H141165   3.600   6.703  10.717 -2.0883  0.4711 -0.3091
 6558TIP3    H241166   3.487   6.672  10.622 -0.9229 -1.9185 -0.9419
 6559TIP3   OH241167   2.288   6.179  13.956 -0.3844 -0.4278  0.0884
 6559TIP3    H141168   2.257   6.160  13.868 -0.5348 -0.0449  0.0586
 6559TIP3    H241169   2.212   6.216  14.001 -0.2692 -0.4905  0.3393
 6560TIP3   OH241170   4.132   2.113   3.802 -0.4291  0.6053 -0.6548
 6560TIP3    H141171   4.155   2.055   3.729  1.0848 -0.4251  0.5885
 6560TIP3    H241172   4.171   2.197   3.780  1.7529 -0.2341 -0.1561
 6561TIP3   OH241173   6.766   5.265  14.497  0.3705  0.3652  0.1861
 6561TIP3    H141174   6.733   5.351  14.523  0.8691  1.6758 -3.3442
 6561TIP3    H241175   6.858   5.266  14.521  0.3546  0.7776  0.2345
 6562TIP3   OH241176   1.837   3.626   1.996 -0.3277  0.1875 -0.3304
 6562TIP3    H141177   1.921   3.653   2.032 -0.9301 -1.4295  2.4455
 6562TIP3    H241178   1.851   3.536   1.967 -1.0987 -0.0971  0.1640
 6563TIP3   OH241179   4.600   4.095   3.846  0.2765 -0.1611 -0.2878
 6563TIP3    H141180   4.587   4.096   3.751 -1.7502 -2.2065 -0.0809
 6563TIP3    H241181   4.666   4.027   3.860 -1.0734 -1.4455 -0.0805
 6564TIP3   OH241182   0.639   2.543   0.038 -0.0137 -0.5332  0.3492
 6564TIP3    H141183   0.548   2.526   0.014 -0.0742  0.6107 -0.2942
 6564TIP3    H241184   0.689   2.474  -0.006 -0.2941  0.5256 -1.7422
 6565TIP3   OH241185   1.940   2.148  11.627  0.4568  0.5499 -0.3829
 6565TIP3    H141186   1.867   2.147  11.565 -0.4722 -0.3494  0.6969
 6565TIP3    H241187   1.901   2.183  11.708  1.7368  2.0725 -0.4069
 6566TIP3   OH241188   6.513   3.894   1.838  0.4555  0.5250  0.0133
 6566TIP3    H141189   6.608   3.902   1.831  0.7257 -0.9006  1.5470
 6566TIP3    H241190   6.485   3.975   1.881  1.1204  0.4635  0.5716
 6567TIP3   OH241191   4.511   1.189   2.388  0.2146  0.0720 -0.2865
 6567TIP3    H141192   4.447   1.173   2.458  0.1877 -1.2712 -0.6101
 6567TIP3    H241193   4.567   1.112   2.388  0.4126  0.1986 -1.5349
 6568TIP3   OH241194   5.552   6.631  15.988  0.0185  0.3968 -0.0909
 6568TIP3    H141195   5.587   6.547  15.958  1.1581  0.9754 -0.4229
 6568TIP3    H241196   5.480   6.650  15.928  0.4369  0.1628 -0.6701
 6569TIP3   OH241197   3.333   3.402  14.317  0.1920  0.6649  0.3005
 6569TIP3    H141198   3.310   3.327  14.372  2.1093  0.0909  0.3530
 6569TIP3    H241199   3.284   3.475  14.354 -0.7624 -0.3108  0.9958
 6570TIP3   OH241200   6.624   4.305  16.039  0.1588 -0.1808  0.2007
 6570TIP3    H141201   6.564   4.279  16.110  0.4666  1.3218  1.0225
 6570TIP3    H241202   6.643   4.397  16.056  1.3611 -0.1872 -1.0462
 6571TIP3   OH241203   1.051   0.793  14.813 -0.0548 -0.2566  0.2748
 6571TIP3    H141204   1.117   0.806  14.881 -0.8385  0.4230  0.9251
 6571TIP3    H241205   1.018   0.881  14.794 -1.0076 -0.6144  0.2115
 6572TIP3   OH241206   2.164   4.912  13.824  0.0162 -0.0291 -0.4194
 6572TIP3    H141207   2.175   4.928  13.730 -3.4749 -0.1468 -0.9325
 6572TIP3    H241208   2.179   4.996  13.866 -0.9121  0.6149 -1.3647
 6573TIP3   OH241209   3.470   0.193   4.462 -0.2363 -0.2306  0.1255
 6573TIP3    H141210   3.396   0.254   4.464  0.4751  0.6016  1.9629
 6573TIP3    H241211   3.536   0.238   4.409 -1.1512 -1.1119 -1.7821
 6574TIP3   OH241212   4.842   5.705  11.566  0.7911  0.2725 -0.3731
 6574TIP3    H141213   4.800   5.723  11.482  0.2698  0.2869 -0.1083
 6574TIP3    H241214   4.848   5.610  11.570 -4.3602 -0.0677  2.0886
 6575TIP3   OH241215   0.488   0.789   1.266 -0.0629  0.3077  0.1890
 6575TIP3    H141216   0.479   0.870   1.216 -2.0625  0.1758  0.2648
 6575TIP3    H241217   0.463   0.813   1.355  1.7085  0.1359  0.7483
 6576TIP3   OH241218   3.863   1.625  16.261 -0.3258 -0.2802  0.1180
 6576TIP3    H141219   3.811   1.555  16.300  0.1924 -0.9719 -0.4231
 6576TIP3    H241220   3.891   1.591  16.176 -0.4528  0.7611 -0.3511
 6577TIP3   OH241221   0.393   4.341   1.180  0.4019  0.1920 -0.1065
 6577TIP3    H141222   0.372   4.433   1.197  0.5827  0.1433  0.3827
 6577TIP3    H241223   0.470   4.323   1.234 -0.5410 -0.6698  0.9928
 6578TIP3   OH241224   5.670   1.013   5.339 -0.3530 -0.8319  0.1791
 6578TIP3    H141225   5.757   0.991   5.371 -0.2060  0.4012  0.6331
 6578TIP3    H241226   5.613   1.002   5.416 -0.9867 -3.7472 -0.6065
 6579TIP3   OH241227   4.791   6.454  13.094 -0.2128 -0.5076 -0.1792
 6579TIP3    H141228   4.831   6.384  13.145  0.5635 -0.8921 -1.3210
 6579TIP3    H241229   4.758   6.515  13.160  0.9079 -0.9313  0.7847
 6580TIP3   OH241230   2.375   4.314   0.355  0.5797  0.0673 -0.2771
 6580TIP3    H141231   2.393   4.254   0.283 -1.0649 -0.1612 -0.5097
 6580TIP3    H241232   2.358   4.257   0.430 -3.9852  0.1044 -1.1894
 6581TIP3   OH241233   2.356   4.808   5.538  0.2342 -0.7039  0.2060
 6581TIP3    H141234   2.384   4.742   5.474 -1.8205 -1.7484  0.3308
 6581TIP3    H241235   2.300   4.867   5.487 -1.8984 -1.8743  1.0865
 6582TIP3   OH241236   2.542   6.239  15.605 -0.1127  0.5283  0.1477
 6582TIP3    H141237   2.616   6.179  15.614  0.1304  1.0854  2.2233
 6582TIP3    H241238   2.570   6.301  15.538  1.0795  0.3942  0.5003
 6583TIP3   OH241239   0.024   6.378  13.188 -0.3133 -0.3544 -0.2125
 6583TIP3    H141240   0.031   6.433  13.266  1.5603 -2.0548  0.8425
 6583TIP3    H241241  -0.046   6.316  13.208  0.2196 -0.8394  0.1388
 6584TIP3   OH241242   6.759   3.881   3.481 -0.0167 -0.2332  0.4889
 6584TIP3    H141243   6.691   3.814   3.479  0.2394 -0.5020  0.6398
 6584TIP3    H241244   6.719   3.955   3.527  0.0022 -0.6273  1.1446
 6585TIP3   OH241245   2.318   0.093   4.262 -0.1680 -0.7276 -0.0489
 6585TIP3    H141246   2.361   0.121   4.181 -0.0662  0.3044  0.3531
 6585TIP3    H241247   2.365   0.139   4.332 -1.6022  0.0413  0.4342
 6586TIP3   OH241248   1.701   2.999   5.419 -0.9250 -0.0719 -0.0427
 6586TIP3    H141249   1.645   2.922   5.419 -1.9471  0.6419  2.6640
 6586TIP3    H241250   1.785   2.967   5.384 -1.2499 -2.4450  1.2543
 6587TIP3   OH241251   6.061   4.281  15.012  0.1372  0.2957 -0.2279
 6587TIP3    H141252   5.983   4.228  15.027  0.9492 -0.9856 -0.4576
 6587TIP3    H241253   6.134   4.225  15.039  1.1503  0.4943 -2.3799
 6588TIP3   OH241254   3.285   5.872  13.616 -0.2508  0.3623 -0.1756
 6588TIP3    H141255   3.334   5.796  13.646  0.0344  0.7470  0.3593
 6588TIP3    H241256   3.306   5.881  13.523  0.2837  0.2179 -0.0675
 6589TIP3   OH241257   2.359   3.650  13.033  0.2251 -0.1616  0.2227
 6589TIP3    H141258   2.394   3.739  13.039  1.0185 -0.3610 -1.2385
 6589TIP3    H241259   2.437   3.594  13.028 -0.2592 -0.9795  1.5256
 6590TIP3   OH241260   5.862   2.994  10.128 -0.0292  0.1770  0.0355
 6590TIP3    H141261   5.938   3.036  10.089 -0.3332  0.2792 -0.4509
 6590TIP3    H241262   5.789   3.016  10.070 -0.0439 -1.7377 -0.7048
 6591TIP3   OH241263   0.804   6.694  10.670  0.1126  0.1619 -0.0393
 6591TIP3    H141264   0.737   6.740  10.721 -1.1672 -1.1534 -0.5052
 6591TIP3    H241265   0.877   6.683  10.731 -1.1110 -0.7184  1.2954
 6592TIP3   OH241266   3.929   2.319  12.673 -0.1518 -0.6211  0.0528
 6592TIP3    H141267   3.872   2.313  12.596  2.6410  0.3685 -2.1648
 6592TIP3    H241268   3.949   2.412  12.681  0.7664 -0.8977  1.0942
 6593TIP3   OH241269   6.265   0.992  13.826  0.0512 -0.3972 -0.1114
 6593TIP3    H141270   6.230   1.067  13.779 -0.5609  0.3333  1.4664
 6593TIP3    H241271   6.271   0.923  13.760  0.4313  0.9643 -1.5335
 6594TIP3   OH241272   5.366   2.896   4.602  0.5796 -0.7450 -0.4532
 6594TIP3    H141273   5.319   2.862   4.526  1.3113 -0.9819 -0.8057
 6594TIP3    H241274   5.458   2.884   4.580  0.8063 -0.2294  0.2066
 6595TIP3   OH241275   3.689   5.688   1.041 -0.3845  0.1810 -0.0149
 6595TIP3    H141276   3.639   5.743   1.101 -1.0622  1.7966 -2.0193
 6595TIP3    H241277   3.759   5.651   1.095 -1.3678  1.0564  1.9122
 6596TIP3   OH241278   3.111   3.635  11.742  0.2904  0.1066  0.1782
 6596TIP3    H141279   3.156   3.638  11.827  0.6144  0.1781  0.0057
 6596TIP3    H241280   3.151   3.561  11.697 -0.9636 -0.8882  0.6901
 6597TIP3   OH241281   2.927   2.318   6.238 -0.2488  0.4597  0.0408
 6597TIP3    H141282   2.943   2.309   6.144 -1.1360  0.1197 -0.0790
 6597TIP3    H241283   2.838   2.286   6.251 -0.7277  2.0055  0.7545
 6598TIP3   OH241284   3.612   6.488   6.357  0.0733 -0.7522 -0.1375
 6598TIP3    H141285   3.598   6.583   6.350  1.0004 -0.6631 -0.9032
 6598TIP3    H241286   3.642   6.476   6.447  0.5820 -0.2238 -0.2269
 6599TIP3   OH241287   4.382   0.231   4.656 -0.0618  0.6378 -0.2633
 6599TIP3    H141288   4.346   0.292   4.591  0.0779 -0.6129 -1.5356
 6599TIP3    H241289   4.321   0.157   4.656  1.0112 -0.2541 -0.4108
 6600TIP3   OH241290   2.501   5.066   1.190  0.1417 -0.0335  0.3802
 6600TIP3    H141291   2.518   5.064   1.096  1.2168  1.3052  0.5216
 6600TIP3    H241292   2.472   5.156   1.207  1.1379  0.0876  1.5169
 6601TIP3   OH241293   1.616   1.726  16.790 -0.5294  0.2955 -0.0453
 6601TIP3    H141294   1.633   1.820  16.799 -1.4033  0.2977  1.8782
 6601TIP3    H241295   1.697   1.684  16.819 -0.1359  0.4508 -0.9131
 6602TIP3   OH241296   5.185   5.505   2.503  0.4950  0.4185 -0.2417
 6602TIP3    H141297   5.149   5.453   2.575 -1.0135  2.7163  0.7655
 6602TIP3    H241298   5.247   5.565   2.546  1.6309 -0.0345 -1.2469
 6603TIP3   OH241299   5.222   3.920   1.350 -0.2531  0.0116 -0.7670
 6603TIP3    H141300   5.192   3.952   1.435  2.3936  1.4589 -0.3529
 6603TIP3    H241301   5.268   3.838   1.370 -0.3144 -0.0656 -0.9360
 6604TIP3   OH241302   3.628   4.015  14.166  0.1354 -0.2060  0.3355
 6604TIP3    H141303   3.697   4.045  14.108  0.1214  0.7529  0.8002
 6604TIP3    H241304   3.569   4.091  14.175 -0.7766 -0.8879  0.2323
 6605TIP3   OH241305   1.779   3.287   2.936 -0.1663 -0.2019  0.1326
 6605TIP3    H141306   1.767   3.217   3.001 -0.1329 -0.4861 -0.1659
 6605TIP3    H241307   1.710   3.272   2.872  0.6837 -0.7834 -0.6584
 6606TIP3   OH241308   3.153   5.260   2.407 -0.4997 -0.0105 -0.4974
 6606TIP3    H141309   3.221   5.312   2.449 -0.1409  0.4788 -1.6398
 6606TIP3    H241310   3.201   5.191   2.360 -0.9938 -1.6153  1.2999
 6607TIP3   OH241311   2.109   4.449  14.193  0.3551 -0.1352 -0.3084
 6607TIP3    H141312   2.115   4.355  14.209 -0.8788 -0.3956 -1.3181
 6607TIP3    H241313   2.159   4.489  14.264 -0.0874 -1.5044  0.7810
 6608TIP3   OH241314   3.951   0.851   2.216 -0.1997  0.1354 -0.4030
 6608TIP3    H141315   3.970   0.910   2.289  1.7620 -1.3037  0.2995
 6608TIP3    H241316   3.857   0.836   2.220 -0.0138 -0.4609  2.2395
 6609TIP3   OH241317   5.197   4.691  14.179  0.5630 -0.1291  0.0554
 6609TIP3    H141318   5.289   4.671  14.197  1.0983  2.4212  0.3547
 6609TIP3    H241319   5.148   4.636  14.240  2.0330  0.7988  2.1398
 6610TIP3   OH241320   3.924   3.127   1.694 -0.0607 -0.1306 -0.4462
 6610TIP3    H141321   3.845   3.074   1.696 -0.3920  0.3010 -1.5434
 6610TIP3    H241322   3.943   3.138   1.601  0.1581  1.4299 -0.2298
 6611TIP3   OH241323   4.899   5.321   2.054 -0.2254  0.4979 -0.4558
 6611TIP3    H141324   4.989   5.352   2.058  0.2600 -1.0713  1.1310
 6611TIP3    H241325   4.865   5.330   2.143 -0.7549 -1.4703 -0.4404
 6612TIP3   OH241326   3.066   4.853  12.324  0.3984 -0.1239  0.5693
 6612TIP3    H141327   3.060   4.875  12.231  0.5044  0.8362  0.7895
 6612TIP3    H241328   3.070   4.757  12.325  0.3720 -0.1441 -0.4115
 6613TIP3   OH241329   4.933   0.752  10.929 -0.1349 -0.2630 -0.1965
 6613TIP3    H141330   4.898   0.780  10.845 -0.0372 -0.0591 -0.1699
 6613TIP3    H241331   5.028   0.751  10.916 -0.1497 -0.8269 -0.2733
 6614TIP3   OH241332   4.001   4.307   0.411  0.1352  0.5538 -0.4471
 6614TIP3    H141333   3.934   4.264   0.465  1.0455 -1.6477 -1.0058
 6614TIP3    H241334   4.021   4.388   0.458 -2.4453  0.9317  0.0550
 6615TIP3   OH241335   4.435   4.604   3.593  0.3808  0.0907 -0.0841
 6615TIP3    H141336   4.525   4.588   3.620  0.0498  0.8271  1.5477
 6615TIP3    H241337   4.383   4.582   3.671 -0.7347  0.9761 -0.5589
 6616TIP3   OH241338   5.059   4.236  14.824  0.0929  0.4999  0.0197
 6616TIP3    H141339   4.964   4.241  14.814  0.2242  0.4016 -1.4110
 6616TIP3    H241340   5.073   4.225  14.918 -1.2714  1.3932  0.3376
 6617TIP3   OH241341   2.195   4.236   3.446 -0.2521  0.4932  0.7038
 6617TIP3    H141342   2.274   4.288   3.456  0.1288  0.2100 -0.7140
 6617TIP3    H241343   2.145   4.253   3.526 -0.1165  2.9884  0.2986
 6618TIP3   OH241344   6.462   2.158  15.089 -0.5149 -0.2283  0.3085
 6618TIP3    H141345   6.396   2.223  15.064 -0.6486 -0.4543  0.0719
 6618TIP3    H241346   6.417   2.100  15.150 -0.1992  0.3025  1.0641
 6619TIP3   OH241347   5.980   0.502  13.216  0.2209  0.3161  0.3411
 6619TIP3    H141348   5.921   0.454  13.273 -0.0275  1.2299  0.8681
 6619TIP3    H241349   6.068   0.483  13.250  0.1261  0.2133  0.5292
 6620TIP3   OH241350   6.464   3.552  13.031  0.1558  0.0256  0.2004
 6620TIP3    H141351   6.524   3.507  12.970 -0.6923 -0.2659 -0.4286
 6620TIP3    H241352   6.377   3.531  12.998 -0.2632  1.9947  0.0064
 6621TIP3   OH241353   1.860   5.358   0.598  0.8570 -0.1365 -0.3811
 6621TIP3    H141354   1.886   5.300   0.670 -1.0352 -0.8145 -0.2293
 6621TIP3    H241355   1.889   5.445   0.627 -0.8517 -0.2122  1.7401
 6622TIP3   OH241356   4.808   4.223   5.963  0.2310 -0.1885  0.3853
 6622TIP3    H141357   4.898   4.198   5.984  0.4033 -0.5123 -0.7330
 6622TIP3    H241358   4.769   4.243   6.048  0.9300 -1.4349  1.0151
 6623TIP3   OH241359   6.483   4.017  13.420 -0.2504  0.0770 -0.0832
 6623TIP3    H141360   6.416   3.964  13.462  0.6708 -0.2016  1.0766
 6623TIP3    H241361   6.503   3.971  13.339  0.4532 -1.3284  0.8537
 6624TIP3   OH241362   2.805   2.473  12.506  0.2922 -0.0980 -0.2499
 6624TIP3    H141363   2.842   2.391  12.472 -2.2579 -1.2423 -0.3983
 6624TIP3    H241364   2.787   2.525  12.428  1.1913  0.3151 -0.1960
 6625TIP3   OH241365   5.651   3.204  15.605 -0.0211  1.0944  0.1720
 6625TIP3    H141366   5.662   3.121  15.651  0.4631  0.1986 -1.5204
 6625TIP3    H241367   5.558   3.206  15.581 -0.3339  1.6869  1.3891
 6626TIP3   OH241368   0.539   3.134  15.072 -0.3799 -0.2578 -0.0216
 6626TIP3    H141369   0.490   3.210  15.038  0.5603 -0.4960 -1.9814
 6626TIP3    H241370   0.557   3.081  14.994  0.1177 -1.8450  1.1605
 6627TIP3   OH241371   6.014   2.945  14.999 -0.5471  0.4769  0.0444
 6627TIP3    H141372   6.003   2.998  15.078 -1.8872  0.0270  0.1737
 6627TIP3    H241373   5.972   2.862  15.020 -0.5261  0.1990 -0.9899
 6628TIP3   OH241374   5.062   2.461   6.521 -0.0167 -0.0886 -0.0355
 6628TIP3    H141375   5.153   2.450   6.550  0.1424 -0.4015 -0.6601
 6628TIP3    H241376   5.025   2.524   6.583  0.6781  0.1820  0.1066
 6629TIP3   OH241377   1.093   6.027  12.917 -0.6206  0.4486  0.3536
 6629TIP3    H141378   1.029   6.069  12.975  0.2966  0.5972  1.2810
 6629TIP3    H241379   1.107   6.091  12.847 -1.0153  0.6744  0.4736
 6630TIP3   OH241380   3.590   0.353   4.036  0.5509  0.4252 -0.1427
 6630TIP3    H141381   3.653   0.284   4.015 -1.0177 -0.7985 -0.9614
 6630TIP3    H241382   3.506   0.316   4.010 -0.6197  1.6519  1.8650
 6631TIP3   OH241383   1.502   1.861   5.362  0.3170  0.2109 -0.2328
 6631TIP3    H141384   1.533   1.783   5.408 -0.3899  0.0672  0.0066
 6631TIP3    H241385   1.543   1.856   5.276  0.9082 -0.0072  0.0569
 6632TIP3   OH241386   5.894   5.106  13.672  0.3282 -0.1149  0.0647
 6632TIP3    H141387   5.915   5.093  13.579  1.7007  0.1719  0.3233
 6632TIP3    H241388   5.812   5.155  13.672 -0.5697 -1.5548 -0.9830
 6633TIP3   OH241389   0.799   4.087  14.438 -0.1527  0.4886 -0.0996
 6633TIP3    H141390   0.861   4.119  14.373  0.5746  0.3128  0.4914
 6633TIP3    H241391   0.713   4.109  14.403  0.2329  0.4756 -1.0701
 6634TIP3   OH241392   2.229   1.313  15.970 -0.2520  0.4448 -0.0570
 6634TIP3    H141393   2.256   1.345  16.057  0.5470  0.2882 -0.2418
 6634TIP3    H241394   2.248   1.219  15.973  1.6253  0.7659 -1.0677
 6635TIP3   OH241395   6.333   3.089   5.056 -0.0472  0.4389 -0.6060
 6635TIP3    H141396   6.422   3.092   5.093  0.0980  2.0666 -1.0587
 6635TIP3    H241397   6.325   3.170   5.006 -2.6900  1.5787  1.5312
 6636TIP3   OH241398   1.594   1.050  15.180 -0.4051  0.2990 -0.4000
 6636TIP3    H141399   1.561   1.022  15.265 -0.9106  1.9120 -0.0632
 6636TIP3    H241400   1.554   0.988  15.118 -1.9613  0.5904  0.2848
 6637TIP3   OH241401   0.448   3.126   5.690 -0.4791 -0.0623 -0.1326
 6637TIP3    H141402   0.402   3.168   5.763 -0.7662 -1.3991  0.4741
 6637TIP3    H241403   0.540   3.124   5.717 -0.1390  2.0743 -1.0868
 6638TIP3   OH241404   1.821   0.739   3.274  0.7032 -0.4384  0.2842
 6638TIP3    H141405   1.853   0.711   3.188 -0.5782 -0.0161 -0.3507
 6638TIP3    H241406   1.753   0.803   3.254  1.5548  0.9408  1.6499
 6639TIP3   OH241407   2.655   5.331   1.076  0.3463 -0.5522  0.3572
 6639TIP3    H141408   2.569   5.326   1.034  0.7191 -1.8986 -0.2656
 6639TIP3    H241409   2.708   5.382   1.016 -0.0622  0.4517  0.8362
 6640TIP3   OH241410   4.133   5.907   3.411 -0.2648 -1.3746 -0.1098
 6640TIP3    H141411   4.081   5.880   3.487 -0.4952 -1.9181 -0.4623
 6640TIP3    H241412   4.173   5.990   3.439 -3.0553  0.2279 -0.6188
 6641TIP3   OH241413   5.580   4.489   4.249  0.5596 -0.0686 -0.4005
 6641TIP3    H141414   5.621   4.474   4.164  0.6098  0.9741 -0.5673
 6641TIP3    H241415   5.642   4.543   4.297 -1.1411  2.6008 -1.1192
 6642TIP3   OH241416   5.564   5.476  15.384 -0.7363  0.4697  0.6378
 6642TIP3    H141417   5.576   5.439  15.471  0.5967  0.0552  0.2855
 6642TIP3    H241418   5.469   5.472  15.369 -0.9023 -0.0565  1.7939
 6643TIP3   OH241419   5.131   4.388   4.784  0.2347  0.1192  0.5858
 6643TIP3    H141420   5.182   4.334   4.723 -0.4468  0.1595 -0.0404
 6643TIP3    H241421   5.097   4.326   4.848 -0.1153 -0.1236  0.1697
 6644TIP3   OH241422   1.885   1.235   1.513 -0.2646 -0.4109  0.2027
 6644TIP3    H141423   1.931   1.279   1.585  0.1611  0.5843 -0.6680
 6644TIP3    H241424   1.933   1.262   1.434 -1.6047 -0.3451 -0.5980
 6645TIP3   OH241425   5.767   5.144   4.993  0.1797  0.2989 -0.5642
 6645TIP3    H141426   5.741   5.059   4.956  2.3904 -0.5949 -0.1621
 6645TIP3    H241427   5.835   5.122   5.057 -1.9651  2.0401  2.4219
 6646TIP3   OH241428   1.487   2.032   4.542  0.3874 -0.1395 -0.3297
 6646TIP3    H141429   1.517   2.058   4.629 -0.2757 -0.5527  0.0217
 6646TIP3    H241430   1.541   1.957   4.519  0.3245 -0.2450 -0.1300
 6647TIP3   OH241431   0.887   5.560   5.753  0.2326  0.3101 -0.3092
 6647TIP3    H141432   0.804   5.548   5.708  0.3943 -0.2693 -0.4580
 6647TIP3    H241433   0.879   5.645   5.796 -1.1476 -0.5948  1.2495
 6648TIP3   OH241434   0.554   1.020  13.069 -0.2322 -0.1211 -0.1787
 6648TIP3    H141435   0.650   1.030  13.069 -0.3084  0.7113  0.6138
 6648TIP3    H241436   0.539   0.929  13.042  0.7726 -0.1416 -0.6727
 6649TIP3   OH241437   1.209   4.481   2.123  0.2469  0.1981 -0.3430
 6649TIP3    H141438   1.276   4.429   2.167 -1.3510 -1.9643 -0.3155
 6649TIP3    H241439   1.217   4.568   2.160 -0.2720 -1.2641  3.4245
 6650TIP3   OH241440   4.390   5.409  16.825 -0.5082  0.7978  0.3305
 6650TIP3    H141441   4.411   5.322  16.791 -0.8861  0.9357 -0.2596
 6650TIP3    H241442   4.295   5.407  16.838 -0.8176  1.8007 -1.6258
 6651TIP3   OH241443   3.099   4.441   3.526 -0.1634 -0.0347 -0.0574
 6651TIP3    H141444   3.140   4.424   3.611 -0.1353 -1.5474 -0.3537
 6651TIP3    H241445   3.022   4.494   3.546 -0.6088 -1.0591  1.0158
 6652TIP3   OH241446   3.165   1.388  12.896  0.2082  0.2363  0.3155
 6652TIP3    H141447   3.176   1.415  12.804  1.8625 -1.4564 -0.0069
 6652TIP3    H241448   3.167   1.470  12.945 -0.9165  1.1882 -1.1592
 6653TIP3   OH241449   0.396   2.049   1.162 -0.5394  1.0756  0.4166
 6653TIP3    H141450   0.365   2.026   1.250 -1.3888 -2.4455 -0.7193
 6653TIP3    H241451   0.316   2.072   1.114 -0.2592  1.5187  0.1683
 6654TIP3   OH241452   3.286   3.006  13.919  0.4688  0.2613 -0.0686
 6654TIP3    H141453   3.308   3.095  13.946  0.6008  0.1259  0.2737
 6654TIP3    H241454   3.339   2.950  13.975 -0.1520 -0.0483  0.2203
 6655TIP3   OH241455   5.199   5.347  11.049  0.3602  0.2152  0.1327
 6655TIP3    H141456   5.284   5.374  11.084  0.4244  0.2098 -0.0204
 6655TIP3    H241457   5.183   5.406  10.976  0.6238 -0.3272 -0.3618
 6656TIP3   OH241458   2.239   2.794  15.928  0.2507  0.4351  0.1381
 6656TIP3    H141459   2.288   2.753  15.857 -1.5290 -0.3787 -0.6480
 6656TIP3    H241460   2.181   2.856  15.884 -0.2766  0.5341  0.9635
 6657TIP3   OH241461   5.390   1.445   6.022 -0.1395  0.3325  0.9988
 6657TIP3    H141462   5.442   1.387   6.078  0.9753  0.2435 -0.0944
 6657TIP3    H241463   5.334   1.493   6.082 -0.2171 -1.0109  2.0340
 6658TIP3   OH241464   3.095   4.882  15.947  0.4087 -0.0593 -0.2688
 6658TIP3    H141465   3.170   4.849  15.898  0.2183  0.3811 -0.8636
 6658TIP3    H241466   3.099   4.977  15.936 -0.5199 -0.0656 -0.7371
 6659TIP3   OH241467   4.577   2.431   4.579  0.5865 -0.6491 -0.0787
 6659TIP3    H141468   4.530   2.352   4.551 -0.3827 -0.2984  0.5032
 6659TIP3    H241469   4.632   2.401   4.652  0.8955 -0.9652 -0.4413
 6660TIP3   OH241470   6.555   4.944  13.150 -0.3359  0.1957 -0.1575
 6660TIP3    H141471   6.496   5.003  13.102  0.0821  1.5137  0.9249
 6660TIP3    H241472   6.498   4.873  13.179 -1.1288  0.7558 -0.3186
 6661TIP3   OH241473   5.085   1.783   4.168 -0.4318 -0.0209  0.0902
 6661TIP3    H141474   5.053   1.865   4.131  0.5658  1.8086  3.0969
 6661TIP3    H241475   5.180   1.790   4.166 -0.3333 -1.1243  0.3702
 6662TIP3   OH241476   2.944   4.939   5.626  0.7033 -0.2883 -0.0469
 6662TIP3    H141477   2.851   4.945   5.605  0.4065  1.0316  1.4675
 6662TIP3    H241478   2.949   4.871   5.693  0.9619 -1.0384 -0.8280
 6663TIP3   OH241479   0.698   4.833  12.367 -0.2099  0.2766  0.0092
 6663TIP3    H141480   0.736   4.881  12.441  0.9060  1.0066 -1.0200
 6663TIP3    H241481   0.748   4.863  12.291 -2.4107  0.7229 -1.2904
 6664TIP3   OH241482   5.107   3.780  14.484  0.0215  0.3072 -0.1809
 6664TIP3    H141483   5.066   3.695  14.470 -2.3872  1.1465  1.4900
 6664TIP3    H241484   5.068   3.837  14.418  0.4537  0.5022 -0.2684
 6665TIP3   OH241485   1.098   0.812  15.151 -0.2687 -0.1216 -0.7215
 6665TIP3    H141486   1.019   0.853  15.116 -0.9156 -1.0592 -0.3835
 6665TIP3    H241487   1.087   0.813  15.246  0.4245  0.3313 -0.6412
 6666TIP3   OH241488   3.395   6.018  11.730  0.3050  0.1746  0.4413
 6666TIP3    H141489   3.440   5.966  11.797 -1.1997 -0.4296  1.0053
 6666TIP3    H241490   3.377   6.102  11.773  0.9697  0.4484  0.1863
 6667TIP3   OH241491   3.564   2.465   5.525  0.6604 -0.1278  0.3051
 6667TIP3    H141492   3.602   2.471   5.438  1.1637 -1.0230  0.4673
 6667TIP3    H241493   3.566   2.555   5.558  1.7618 -0.0235 -0.0490
 6668TIP3   OH241494   6.625   3.391  11.416  0.4836 -0.3741 -0.2511
 6668TIP3    H141495   6.592   3.470  11.373  1.4947  0.3571  0.2818
 6668TIP3    H241496   6.549   3.355  11.462 -0.1425 -0.0824 -1.0623
 6669TIP3   OH241497   5.147   1.244   5.226  0.0341  0.2703 -0.3566
 6669TIP3    H141498   5.076   1.282   5.276 -0.0350  0.9037 -0.9362
 6669TIP3    H241499   5.209   1.316   5.213  1.4269 -0.5906  1.2961
 6670TIP3   OH241500   2.987   6.588   1.012  0.3337 -0.6140 -0.1904
 6670TIP3    H141501   2.934   6.554   0.940  0.9585 -1.6348 -0.1804
 6670TIP3    H241502   3.041   6.656   0.972 -0.4731 -0.0636 -0.3487
 6671TIP3   OH241503   0.643   0.666   1.685 -0.2736  0.0230  0.4174
 6671TIP3    H141504   0.634   0.755   1.719 -0.5965  0.3543 -0.5382
 6671TIP3    H241505   0.614   0.610   1.758  1.1720  0.6288  1.4918
 6672TIP3   OH241506   0.461   4.562  13.229  0.0732 -0.2744 -0.2320
 6672TIP3    H141507   0.493   4.647  13.198 -0.8684  1.1613  2.5779
 6672TIP3    H241508   0.393   4.538  13.166  1.7366  0.0441 -2.2046
 6673TIP3   OH241509   2.177   4.217  11.767 -0.4431 -0.5421 -0.7106
 6673TIP3    H141510   2.272   4.206  11.769 -0.2577  1.0645 -0.3191
 6673TIP3    H241511   2.148   4.159  11.696  0.8248 -1.0378 -0.8349
 6674TIP3   OH241512   3.788   6.374  15.607  0.5497 -0.6073  0.0033
 6674TIP3    H141513   3.830   6.437  15.549  3.5672 -0.9686  1.6796
 6674TIP3    H241514   3.782   6.294  15.555 -0.2820  0.1216 -1.0479
 6675TIP3   OH241515   1.722   1.957   5.655  0.4688 -0.7347 -0.2403
 6675TIP3    H141516   1.787   1.923   5.593  1.0389  1.5486 -0.9464
 6675TIP3    H241517   1.643   1.968   5.603  0.1703 -1.3261  0.0814
 6676TIP3   OH241518   5.990   6.185  10.908 -0.0933 -0.1606  0.2605
 6676TIP3    H141519   6.073   6.142  10.892  0.8696  2.1129 -1.2208
 6676TIP3    H241520   6.012   6.278  10.914 -2.4572  0.4396  0.2798
 6677TIP3   OH241521   6.189   2.155  12.916 -0.2513  0.0014 -0.3562
 6677TIP3    H141522   6.103   2.185  12.887 -0.3781 -0.2074 -0.2014
 6677TIP3    H241523   6.248   2.176  12.844 -0.4389  0.1150 -0.4747
 6678TIP3   OH241524   5.892   1.603   1.077 -0.1526 -0.5058  0.1283
 6678TIP3    H141525   5.954   1.643   1.017  0.9456 -0.6735  1.1301
 6678TIP3    H241526   5.882   1.513   1.046  1.0239 -0.8261  0.6553
 6679TIP3   OH241527   1.874   3.539  12.342 -0.4567 -0.4876 -0.1388
 6679TIP3    H141528   1.804   3.545  12.277  0.0668 -0.6123 -0.7178
 6679TIP3    H241529   1.832   3.563  12.425 -1.0143  0.1514 -0.5990
 6680TIP3   OH241530   4.377   5.946   2.716  0.1031  0.0460 -0.4755
 6680TIP3    H141531   4.470   5.943   2.697  0.1384  1.0587 -0.5278
 6680TIP3    H241532   4.370   6.000   2.795 -0.4854  0.6032 -0.8926
 6681TIP3   OH241533   4.825   3.690   4.294  0.1340  0.3451 -0.1608
 6681TIP3    H141534   4.752   3.749   4.309 -1.2382 -1.9635  2.7632
 6681TIP3    H241535   4.891   3.716   4.358 -0.2632 -0.8585  0.7726
 6682TIP3   OH241536   0.852   5.851   1.291  0.5222 -0.2073  0.2490
 6682TIP3    H141537   0.933   5.902   1.302 -1.2192  2.5711  0.7150
 6682TIP3    H241538   0.806   5.862   1.374 -0.5396 -1.4479 -0.1628
 6683TIP3   OH241539   2.748   3.142   2.347 -0.1777  0.0457 -0.2803
 6683TIP3    H141540   2.716   3.055   2.323 -0.9777  0.5925 -1.2417
 6683TIP3    H241541   2.826   3.155   2.294  0.1470 -0.2191  0.1252
 6684TIP3   OH241542   2.619   6.594   6.156  0.1809 -0.7453  0.3993
 6684TIP3    H141543   2.701   6.639   6.174  0.7871  0.4175 -4.5691
 6684TIP3    H241544   2.644   6.501   6.150  1.2124 -0.3747 -1.3146
 6685TIP3   OH241545   5.395   6.547  13.218 -0.1420 -0.0276 -0.2461
 6685TIP3    H141546   5.471   6.580  13.266  0.5695 -1.3755 -0.4211
 6685TIP3    H241547   5.432   6.511  13.137 -0.7194 -2.3639  0.4956
 6686TIP3   OH241548   5.551   3.848   6.426 -0.4528 -0.6081 -0.0127
 6686TIP3    H141549   5.607   3.793   6.481  0.4178  0.6266  0.3656
 6686TIP3    H241550   5.478   3.873   6.484 -1.1264 -1.7692 -0.3422
 6687TIP3   OH241551   3.707   2.577   5.281 -0.3126 -0.0634 -0.8565
 6687TIP3    H141552   3.769   2.650   5.277 -0.8431  0.4591  0.1489
 6687TIP3    H241553   3.760   2.501   5.303  0.0488  0.2849 -0.5161
 6688TIP3   OH241554   5.170   3.894   2.707 -0.0669  0.0939  0.4100
 6688TIP3    H141555   5.168   3.975   2.759 -0.0189  1.0579 -1.0356
 6688TIP3    H241556   5.101   3.907   2.641 -0.1583 -1.1184  0.2631
 6689TIP3   OH241557   4.878   2.700  13.953 -0.1835 -0.1056 -0.5311
 6689TIP3    H141558   4.907   2.633  13.892  1.1979 -0.1939  0.2155
 6689TIP3    H241559   4.877   2.781  13.901  1.4082 -0.1032 -0.5693
 6690TIP3   OH241560   4.240   1.744   4.542  0.0253  0.2238 -0.5099
 6690TIP3    H141561   4.276   1.667   4.585  0.7865  1.9612  2.1301
 6690TIP3    H241562   4.146   1.742   4.564  0.2587  0.6543  0.5554
 6691TIP3   OH241563   3.209   6.486  16.131 -0.3198 -0.1091 -0.2239
 6691TIP3    H141564   3.182   6.485  16.223 -1.8484  0.1590 -0.6433
 6691TIP3    H241565   3.280   6.550  16.127  0.2366 -0.6463  0.8903
 6692TIP3   OH241566   2.191   2.521   4.854 -0.1436 -0.0435  0.4250
 6692TIP3    H141567   2.282   2.521   4.826  0.2072 -0.8131  1.5395
 6692TIP3    H241568   2.192   2.565   4.939 -1.5872  4.7581 -1.8743
 6693TIP3   OH241569   0.086   0.741   5.824 -0.2107 -0.1673  0.2096
 6693TIP3    H141570   0.017   0.701   5.878  0.1496  0.2231  0.9667
 6693TIP3    H241571   0.167   0.704   5.859 -0.0570 -0.9769 -0.9780
 6694TIP3   OH241572   5.013   4.768  13.257 -0.0450  0.2839  0.0839
 6694TIP3    H141573   5.100   4.767  13.297 -0.4376  0.2899  0.9638
 6694TIP3    H241574   4.974   4.850  13.287 -1.5745 -1.2201  2.4565
 6695TIP3   OH241575   2.025   4.183  13.185 -0.3403  0.1386 -0.5825
 6695TIP3    H141576   1.947   4.224  13.148 -1.9092 -1.0821  1.2927
 6695TIP3    H241577   2.098   4.237  13.153 -2.1006  2.5433 -0.6448
 6696TIP3   OH241578   2.597   3.511   2.298  0.1943  0.7023  0.5015
 6696TIP3    H141579   2.590   3.537   2.390  1.2542  0.6256  0.6094
 6696TIP3    H241580   2.689   3.487   2.286 -0.2436 -0.7010 -0.2064
 6697TIP3   OH241581   5.988   6.403  13.368  0.2607  0.8471 -0.9836
 6697TIP3    H141582   6.077   6.418  13.402  0.7138  0.1263 -1.8166
 6697TIP3    H241583   5.942   6.361  13.441  1.2357 -0.7209 -1.2387
 6698TIP3   OH241584   4.635   1.406  13.790 -0.4064  0.2073 -0.1830
 6698TIP3    H141585   4.624   1.346  13.717 -1.1198  1.9130 -1.5172
 6698TIP3    H241586   4.714   1.376  13.835  0.1695 -0.7191 -1.7913
 6699TIP3   OH241587   1.980   6.527   5.687 -0.6075 -0.1647  0.3357
 6699TIP3    H141588   2.047   6.462   5.707 -1.9079 -1.7869 -0.3654
 6699TIP3    H241589   1.940   6.495   5.605 -2.6239  0.4010  1.0624
 6700TIP3   OH241590   2.553   5.545   0.847 -0.1161 -0.0203  0.1100
 6700TIP3    H141591   2.520   5.457   0.863 -0.9113  0.4365  1.0543
 6700TIP3    H241592   2.554   5.554   0.752 -0.1941 -0.9865  0.0144
 6701TIP3   OH241593   4.790   2.627   0.827 -0.1911  0.6077  0.5308
 6701TIP3    H141594   4.870   2.660   0.868 -0.1393  0.8218  0.2612
 6701TIP3    H241595   4.812   2.538   0.800  0.7095  1.4264 -1.5853
 6702TIP3   OH241596   5.999   4.392   2.421  0.2519  0.0751  0.2034
 6702TIP3    H141597   6.048   4.373   2.501 -1.0366 -0.7254  0.8176
 6702TIP3    H241598   5.914   4.423   2.453  0.0304  0.5684 -0.8583
 6703TIP3   OH241599   4.729   5.321   3.628 -0.0577 -0.5045  0.7006
 6703TIP3    H141600   4.687   5.386   3.572  0.5637 -0.4395  0.3003
 6703TIP3    H241601   4.807   5.366   3.661  0.6400 -1.2081  0.0283
 6704TIP3   OH241602   5.919   3.073  11.235  0.8493 -0.7449  0.5252
 6704TIP3    H141603   5.838   3.109  11.271 -0.1001 -2.6208  0.2966
 6704TIP3    H241604   5.928   3.116  11.150  0.1228 -0.4961  0.5677
 6705TIP3   OH241605   3.292   5.629   1.030 -0.4693 -0.1599  0.4023
 6705TIP3    H141606   3.326   5.673   0.952 -2.7431 -0.2071 -0.6422
 6705TIP3    H241607   3.370   5.599   1.076  1.0592  2.8846 -0.0748
 6706TIP3   OH241608   6.349   5.384  13.255 -0.5866  0.5926 -0.4682
 6706TIP3    H141609   6.308   5.423  13.332  1.6772  0.3235  0.9126
 6706TIP3    H241610   6.443   5.394  13.271 -0.0781 -1.0339 -2.3904
 6707TIP3   OH241611   4.664   3.491  10.687 -0.4223  0.6511  0.0248
 6707TIP3    H141612   4.619   3.487  10.603  0.7527  0.2289 -0.6085
 6707TIP3    H241613   4.691   3.401  10.705 -1.9071  0.4815  1.5744
 6708TIP3   OH241614   1.649   0.880  14.660  0.4247 -0.0872 -0.6652
 6708TIP3    H141615   1.686   0.837  14.582  0.6832  1.2674 -1.3065
 6708TIP3    H241616   1.653   0.973  14.640  1.1117  0.3120  1.2753
 6709TIP3   OH241617   4.371   1.673   0.416 -0.5887 -0.3086  0.5555
 6709TIP3    H141618   4.457   1.701   0.387 -0.9068 -0.7478 -0.8362
 6709TIP3    H241619   4.338   1.747   0.468  0.1551  0.3099  0.1534
 6710TIP3   OH241620   3.863   0.648  16.000  0.1525 -0.0290  0.1603
 6710TIP3    H141621   3.916   0.594  15.941 -2.1315 -0.4044 -1.6012
 6710TIP3    H241622   3.842   0.589  16.073  1.7265 -0.0028  0.6786
 6711TIP3   OH241623   2.426   3.879   4.644 -0.8797  0.3687  0.1980
 6711TIP3    H141624   2.388   3.806   4.595 -0.5446  1.5743 -1.9415
 6711TIP3    H241625   2.388   3.957   4.603  0.3204  1.4501  1.1106
 6712TIP3   OH241626   2.972   4.877   4.395  0.1131 -0.0455 -0.6843
 6712TIP3    H141627   2.916   4.904   4.322  0.3552 -2.2890 -1.7470
 6712TIP3    H241628   2.919   4.813   4.443  0.2550  0.8419  0.6761
 6713TIP3   OH241629   2.059   6.125  16.772  1.2055 -0.2278 -0.8707
 6713TIP3    H141630   2.053   6.175  16.853  1.1824 -0.1746 -0.9039
 6713TIP3    H241631   1.969   6.122  16.739  1.2798  0.0973 -1.1024
 6714TIP3   OH241632   4.139   6.644   5.494 -0.3461  0.0250 -0.4154
 6714TIP3    H141633   4.191   6.655   5.414 -0.4918  0.9582 -0.3970
 6714TIP3    H241634   4.203   6.651   5.565 -0.1610 -1.1832 -0.4524
 6715TIP3   OH241635   0.497   0.775   2.754 -0.3524 -0.2041  0.1319
 6715TIP3    H141636   0.523   0.841   2.819 -0.2909 -0.8689  0.7908
 6715TIP3    H241637   0.558   0.787   2.682  1.4939 -1.4133  1.4484
 6716TIP3   OH241638   5.673   5.077  15.485  0.1042  0.1361  0.2119
 6716TIP3    H141639   5.726   5.021  15.428 -0.3622 -0.2403  0.1416
 6716TIP3    H241640   5.735   5.140  15.521  0.4833  0.0988 -0.3667
 6717TIP3   OH241641   1.742   4.305   4.460  0.2991  0.3215  0.0964
 6717TIP3    H141642   1.707   4.248   4.528 -0.3130  0.2184 -0.3015
 6717TIP3    H241643   1.837   4.296   4.468  0.2840  1.4688  1.9227
 6718TIP3   OH241644   2.267   1.140   3.898  0.0837  0.7953 -0.0716
 6718TIP3    H141645   2.345   1.170   3.946  0.3648  0.4600 -0.3217
 6718TIP3    H241646   2.284   1.164   3.807 -0.0624  0.6247 -0.1445
 6719TIP3   OH241647   1.266   5.540  13.347  0.3860 -0.0360 -0.1095
 6719TIP3    H141648   1.344   5.486  13.354 -0.3881 -1.4658 -1.9847
 6719TIP3    H241649   1.271   5.580  13.260  0.0316  1.4879  0.5378
 6720TIP3   OH241650   1.965   5.226  12.816  0.1390  0.3920  0.5853
 6720TIP3    H141651   1.917   5.271  12.886 -0.4916  1.1744 -0.3332
 6720TIP3    H241652   1.935   5.135  12.821  0.1627  0.4254  1.3883
 6721TIP3   OH241653   0.892   0.124  14.137 -0.2445  0.1623 -0.3150
 6721TIP3    H141654   0.889   0.040  14.092  0.3170 -0.7462  1.2982
 6721TIP3    H241655   0.851   0.186  14.077  0.2577 -1.0709 -1.9374
 6722TIP3   OH241656   3.041   0.935  16.761  0.0051 -0.1956  0.2900
 6722TIP3    H141657   3.031   0.961  16.670 -0.6710  0.3008  0.5091
 6722TIP3    H241658   2.957   0.955  16.802  0.3199 -0.3753  1.0380
 6723TIP3   OH241659   5.526   4.078  16.115  0.0976  0.5215  0.3304
 6723TIP3    H141660   5.552   4.003  16.063 -0.4892  0.5036  0.0567
 6723TIP3    H241661   5.493   4.040  16.197 -0.8779  0.4370 -0.0954
 6724TIP3   OH241662   5.043   0.426  12.443 -0.1606  0.0955  0.3910
 6724TIP3    H141663   5.053   0.398  12.352 -0.6939  0.9952  0.0461
 6724TIP3    H241664   4.987   0.359  12.482  1.7397 -1.3941  0.6096
 6725TIP3   OH241665   5.001   4.496   5.918  0.6149 -0.7664  0.1878
 6725TIP3    H141666   5.033   4.584   5.935  1.5813 -1.1211  0.2334
 6725TIP3    H241667   5.079   4.445   5.897 -0.0465 -1.3820 -0.8514
 6726TIP3   OH241668   5.384   0.743  13.932 -0.3152 -0.1321 -0.1940
 6726TIP3    H141669   5.387   0.659  13.978 -1.9660  0.8123  1.7114
 6726TIP3    H241670   5.338   0.724  13.850 -1.7374 -0.8927  0.7520
 6727TIP3   OH241671   4.357   4.299   1.642  0.0327  0.0657  0.3961
 6727TIP3    H141672   4.414   4.224   1.655 -1.5246 -1.1436  0.3160
 6727TIP3    H241673   4.370   4.353   1.720  2.5631  0.6839 -0.3895
 6728TIP3   OH241674   3.942   5.817   0.376  0.1461 -0.1331 -0.1106
 6728TIP3    H141675   3.907   5.870   0.304  0.5677 -0.9779 -0.9535
 6728TIP3    H241676   3.970   5.880   0.442  0.4130  0.6816 -1.0004
 6729TIP3   OH241677   6.203   3.140   1.175  0.5022  0.1412 -0.2377
 6729TIP3    H141678   6.117   3.128   1.214  0.1774  0.4977 -0.8278
 6729TIP3    H241679   6.261   3.082   1.224  0.1673  0.8161  0.9655
 6730TIP3   OH241680   0.210   3.796  13.497 -0.0589 -0.2573  0.6666
 6730TIP3    H141681   0.184   3.790  13.405 -1.7175  0.1842  1.0870
 6730TIP3    H241682   0.286   3.854  13.497 -0.0541 -0.2555 -0.4236
 6731TIP3   OH241683   6.074   6.313  14.299  0.0944 -0.3596 -0.0090
 6731TIP3    H141684   6.014   6.354  14.362  0.3922 -0.7083  0.5083
 6731TIP3    H241685   6.025   6.311  14.217 -0.5256 -0.4508  0.3610
 6732TIP3   OH241686   3.580   1.718  16.762 -0.4999 -0.7384 -0.0051
 6732TIP3    H141687   3.520   1.718  16.688 -3.2219  1.8378  2.0796
 6732TIP3    H241688   3.596   1.810  16.781 -1.0101 -1.2645  3.4227
 6733TIP3   OH241689   0.447   2.170   5.545 -0.4841 -0.3806 -0.3076
 6733TIP3    H141690   0.523   2.113   5.539 -0.1604  0.2267 -2.1486
 6733TIP3    H241691   0.482   2.251   5.582 -0.3765 -0.3503 -0.4742
 6734TIP3   OH241692   6.761   4.709  11.921 -0.7941 -0.3824 -0.1380
 6734TIP3    H141693   6.680   4.706  11.972  0.1238  1.1732  1.5098
 6734TIP3    H241694   6.793   4.619  11.921 -0.8411 -0.4263  2.0482
 6735TIP3   OH241695   0.879   5.861   2.642 -0.1745 -0.6390  0.0604
 6735TIP3    H141696   0.957   5.868   2.587 -1.6641  1.4059 -1.8483
 6735TIP3    H241697   0.873   5.946   2.686 -1.7872 -0.4664 -0.4602
 6736TIP3   OH241698   2.226   3.596  13.524  0.4584  0.1569 -0.5163
 6736TIP3    H141699   2.284   3.669  13.500 -0.1997  1.4311  1.6702
 6736TIP3    H241700   2.148   3.638  13.559 -0.1876 -1.6065  0.1957
 6737TIP3   OH241701   2.051   3.065  16.328  0.4821  0.2809  0.1713
 6737TIP3    H141702   1.969   3.102  16.359  1.5182  1.5548  1.4326
 6737TIP3    H241703   2.055   3.089  16.235  0.3495  1.8771  0.5811
 6738TIP3   OH241704   4.338   5.194   4.130 -0.6341  0.6727  0.2081
 6738TIP3    H141705   4.394   5.245   4.071 -0.7852  2.1756  1.3214
 6738TIP3    H241706   4.265   5.165   4.075  0.5395 -0.1507 -0.9322
 6739TIP3   OH241707   3.246   1.477  17.209  0.0130  0.2185  0.0334
 6739TIP3    H141708   3.313   1.417  17.177 -0.1012  1.1334 -1.9733
 6739TIP3    H241709   3.295   1.549  17.249  0.1515 -1.3340  2.8502
 6740TIP3   OH241710   5.736   4.919  14.545 -0.6093  0.1479 -0.0607
 6740TIP3    H141711   5.758   4.836  14.503 -1.8721 -0.8353  1.1667
 6740TIP3    H241712   5.806   4.979  14.519  2.3553 -2.2719  1.9279
 6741TIP3   OH241713   3.502   4.004  16.610  0.1341  0.7646  0.6372
 6741TIP3    H141714   3.580   4.006  16.554 -0.4155  1.4835 -0.1279
 6741TIP3    H241715   3.450   3.931  16.576 -0.4761  1.5686 -0.1956
 6742TIP3   OH241716   5.902   6.041  13.658 -0.1925  0.6561 -0.0153
 6742TIP3    H141717   5.822   6.046  13.606 -0.0939  0.0191 -0.2308
 6742TIP3    H241718   5.899   6.119  13.714 -1.5835 -0.0102  0.8577
 6743TIP3   OH241719   4.158   3.135   0.734  0.3841  0.1041 -1.2808
 6743TIP3    H141720   4.235   3.093   0.696  0.5281  0.5153 -1.4349
 6743TIP3    H241721   4.099   3.150   0.660  0.5513  0.6564 -1.2997
 6744TIP3   OH241722   1.005   4.902  16.107  0.3234 -0.0442  0.4549
 6744TIP3    H141723   1.053   4.819  16.097 -1.3629 -0.9542 -0.3418
 6744TIP3    H241724   1.043   4.959  16.040 -0.4383 -1.1392 -0.9606
 6745TIP3   OH241725   6.487   5.528   0.552 -0.1800 -0.1769  0.0396
 6745TIP3    H141726   6.566   5.548   0.602 -0.4910 -0.7742  0.7740
 6745TIP3    H241727   6.486   5.594   0.482  1.4375 -0.7096 -0.5201
 6746TIP3   OH241728   0.182   1.019   3.847 -0.2108 -0.0234 -0.1951
 6746TIP3    H141729   0.183   1.086   3.777 -1.2581 -0.4603 -0.6408
 6746TIP3    H241730   0.156   1.067   3.925 -2.0285 -0.0893 -0.7338
 6747TIP3   OH241731   0.095   2.249  10.554  0.8282  0.0129 -0.1074
 6747TIP3    H141732   0.068   2.333  10.590 -0.3260 -0.6228  0.5389
 6747TIP3    H241733   0.154   2.213  10.619  1.9988  0.6847 -0.7744
 6748TIP3   OH241734   4.585   2.763  16.092  0.1600  0.3521  0.3642
 6748TIP3    H141735   4.558   2.742  16.003  1.6796 -0.7303  0.1350
 6748TIP3    H241736   4.659   2.822  16.081 -0.2788  1.0047  0.9243
 6749TIP3   OH241737   3.608   5.844  14.457 -0.3304  0.0108 -0.5399
 6749TIP3    H141738   3.682   5.844  14.396  0.1776 -3.0092 -0.0137
 6749TIP3    H241739   3.640   5.893  14.534  0.8938 -0.7034 -0.5783
 6750TIP3   OH241740   1.184   4.626  12.414  0.5729 -1.0237  0.0803
 6750TIP3    H141741   1.264   4.669  12.444  1.0428 -0.8727 -1.3752
 6750TIP3    H241742   1.151   4.582  12.492  1.7294 -0.5588  0.8548
 6751TIP3   OH241743   2.817   5.122   2.089  0.0515  0.2416  0.1970
 6751TIP3    H141744   2.891   5.175   2.117 -0.3663  0.0916  1.6211
 6751TIP3    H241745   2.857   5.043   2.052  0.6432  1.0519 -0.9136
 6752TIP3   OH241746   0.560   2.913  15.652  0.1587 -0.0251 -0.2170
 6752TIP3    H141747   0.541   2.826  15.688  2.2558  0.3166  1.8758
 6752TIP3    H241748   0.506   2.973  15.704  3.0271  0.4471  2.3823
 6753TIP3   OH241749   4.289   5.994   0.452  0.2248  0.1451 -0.1945
 6753TIP3    H141750   4.275   5.901   0.433 -1.2988  0.5329 -1.0337
 6753TIP3    H241751   4.281   6.001   0.547  1.6080 -0.7809  0.0069
 6754TIP3   OH241752   1.060   1.420  13.461  0.0680 -0.5297  0.5950
 6754TIP3    H141753   1.020   1.439  13.376 -0.4653 -0.8356  0.7726
 6754TIP3    H241754   1.124   1.351  13.441 -0.4714 -1.0230  0.5310
 6755TIP3   OH241755   5.116   4.039  16.895  0.1721  0.2184 -0.1338
 6755TIP3    H141756   5.134   4.083  16.812 -0.6126  0.6645 -0.0821
 6755TIP3    H241757   5.187   3.977  16.906 -0.1151 -0.3686 -1.5142
 6756TIP3   OH241758   2.558   3.151  15.973  0.0802 -0.2998  0.7172
 6756TIP3    H141759   2.479   3.155  16.028  0.1491 -0.0382  0.7954
 6756TIP3    H241760   2.627   3.187  16.028  0.4638 -1.4683  1.0125
 6757TIP3   OH241761   0.075   0.746  16.278  0.5734  0.0766  0.2345
 6757TIP3    H141762  -0.004   0.750  16.224 -0.4803  1.0162  1.8069
 6757TIP3    H241763   0.071   0.661  16.320 -0.6523  0.9253  1.8570
 6758TIP3   OH241764   5.418   3.671   0.810  0.6182  0.3917 -0.5257
 6758TIP3    H141765   5.407   3.596   0.869  2.6954 -0.2206 -0.8693
 6758TIP3    H241766   5.424   3.747   0.867  0.7999  0.0200 -0.0482
 6759TIP3   OH241767   5.522   6.501   1.079 -0.2726 -0.3812  0.2740
 6759TIP3    H141768   5.479   6.429   1.034 -1.0005  0.1387  0.1288
 6759TIP3    H241769   5.455   6.536   1.138  1.1499 -2.1027  3.0210
 6760TIP3   OH241770   3.561   4.898  11.596  0.0747 -0.0515 -0.0902
 6760TIP3    H141771   3.512   4.816  11.590  0.3589 -0.1800 -0.6701
 6760TIP3    H241772   3.600   4.909  11.510  0.4291  0.4546  0.1337
 6761TIP3   OH241773   5.503   3.090   0.742 -0.3477  0.8689 -0.3738
 6761TIP3    H141774   5.542   3.176   0.723  0.6996  0.5037  0.0598
 6761TIP3    H241775   5.515   3.040   0.661 -0.1560  0.8473 -0.3333
 6762TIP3   OH241776   5.589   3.235   4.802  0.2773  0.7950 -0.3683
 6762TIP3    H141777   5.578   3.225   4.708 -0.9732 -1.1086 -0.0451
 6762TIP3    H241778   5.503   3.212   4.839  0.4273  2.5831  1.1664
 6763TIP3   OH241779   4.207   5.578   3.969 -0.5516 -0.0862 -0.1060
 6763TIP3    H141780   4.121   5.538   3.981 -0.5537  0.1692  0.7767
 6763TIP3    H241781   4.222   5.576   3.875 -0.4916 -2.2673 -0.0593
 6764TIP3   OH241782   2.341   5.488   2.966 -0.1887  0.2965 -0.7667
 6764TIP3    H141783   2.423   5.520   3.004 -0.4988 -1.1207  1.1555
 6764TIP3    H241784   2.353   5.394   2.959 -1.2885  0.1904 -1.4393
 6765TIP3   OH241785   5.939   1.152   0.809  0.3275 -0.5516  0.1841
 6765TIP3    H141786   5.916   1.192   0.725  1.8944  1.8216  0.8380
 6765TIP3    H241787   6.009   1.090   0.788 -0.3105 -1.0459 -0.4776
 6766TIP3   OH241788   3.249   5.890   2.498  0.1440 -0.0014  0.2711
 6766TIP3    H141789   3.246   5.976   2.458 -0.6903 -0.8173 -1.4430
 6766TIP3    H241790   3.263   5.829   2.425  0.8950 -1.3127  1.4676
 6767TIP3   OH241791   2.589   6.216   4.317 -0.5385 -0.4130 -0.0404
 6767TIP3    H141792   2.652   6.181   4.379 -0.2357  0.6194  0.2528
 6767TIP3    H241793   2.563   6.141   4.263  0.4746 -0.9641  0.2285
 6768TIP3   OH241794   1.451   5.939   1.368  0.0900 -0.4990 -0.1643
 6768TIP3    H141795   1.482   5.977   1.286 -1.8646 -0.8554 -1.0956
 6768TIP3    H241796   1.421   6.014   1.419  0.0942 -0.4047 -0.2998
 6769TIP3   OH241797   6.603   6.038  17.175 -0.9270 -0.2860 -0.2902
 6769TIP3    H141798   6.573   6.126  17.198 -0.0779  0.1026 -0.6523
 6769TIP3    H241799   6.693   6.050  17.146 -0.5614 -1.3830  0.3648
 6770TIP3   OH241800   1.256   5.770  10.533  0.0564  0.3086  0.5248
 6770TIP3    H141801   1.225   5.708  10.599 -0.3559 -1.2036 -1.0463
 6770TIP3    H241802   1.341   5.735  10.506 -0.1703  0.4213 -0.3607
 6771TIP3   OH241803   0.397   5.974  14.299  0.1353  0.2997 -0.2518
 6771TIP3    H141804   0.431   6.064  14.293 -0.5741  0.8248  2.7838
 6771TIP3    H241805   0.460   5.929  14.356  0.1082 -0.9407 -1.1952
 6772TIP3   OH241806   1.200   2.531   0.723 -0.3080  0.0843 -0.1872
 6772TIP3    H141807   1.138   2.555   0.655 -0.9732  0.5893  0.5887
 6772TIP3    H241808   1.161   2.563   0.804  0.6087 -0.2532  0.4022
 6773TIP3   OH241809   4.982   1.873  12.766 -0.2233 -0.3713  0.6373
 6773TIP3    H141810   5.017   1.794  12.807 -2.0360 -1.2578  0.5677
 6773TIP3    H241811   5.031   1.882  12.685  0.5625 -0.9548  1.0396
 6774TIP3   OH241812   2.595   1.324  14.615 -0.3922 -0.6530  0.5085
 6774TIP3    H141813   2.687   1.308  14.636 -0.3324 -1.0009  0.0165
 6774TIP3    H241814   2.549   1.320  14.699 -0.1356 -1.7625  0.6042
 6775TIP3   OH241815   4.195   6.673  13.965  0.0415  0.3324 -0.1851
 6775TIP3    H141816   4.210   6.579  13.954  0.2795  0.2160  1.1261
 6775TIP3    H241817   4.227   6.711  13.883  1.2916 -0.5815 -0.1437
 6776TIP3   OH241818   1.154   5.482   6.315 -0.0883  0.2799  0.2792
 6776TIP3    H141819   1.244   5.452   6.329  0.0817  1.7365  2.5181
 6776TIP3    H241820   1.102   5.402   6.323  0.8437 -0.2934  0.8087
 6777TIP3   OH241821   0.532   3.580  12.164  0.0949  0.0407 -0.8478
 6777TIP3    H141822   0.614   3.530  12.166  0.5332  0.7597  2.1841
 6777TIP3    H241823   0.478   3.533  12.101  1.4361 -2.7928 -0.0157
 6778TIP3   OH241824   2.825   2.196  13.069 -0.3011  0.0970 -0.1599
 6778TIP3    H141825   2.874   2.171  12.990  1.5469  0.4935  0.8215
 6778TIP3    H241826   2.776   2.274  13.044 -0.8066 -0.5729 -1.3007
 6779TIP3   OH241827   3.375   4.401   3.353  0.0409  0.0019 -0.0737
 6779TIP3    H141828   3.382   4.348   3.432 -1.6092 -0.5142 -0.2581
 6779TIP3    H241829   3.401   4.342   3.282 -0.0641 -0.0185 -0.0943
 6780TIP3   OH241830   5.732   2.966  12.603 -0.5920 -0.0393  0.4865
 6780TIP3    H141831   5.789   2.914  12.546 -0.7885 -1.4615  1.5591
 6780TIP3    H241832   5.742   3.056  12.571 -0.2088 -0.7151 -1.3782
 6781TIP3   OH241833   2.734   5.142   0.743  0.3842  0.1366  0.2962
 6781TIP3    H141834   2.784   5.085   0.684  2.3782 -0.3550  2.3921
 6781TIP3    H241835   2.725   5.224   0.694  0.8121 -0.7145 -1.2422
 6782TIP3   OH241836   1.658   4.615  17.201 -0.0818  0.3781 -0.8202
 6782TIP3    H141837   1.723   4.611  17.131  0.0175 -1.7865 -0.6296
 6782TIP3    H241838   1.705   4.655  17.275  0.3023  1.0734 -1.4293
 6783TIP3   OH241839   1.957   1.631   1.444  0.0922 -0.6158  0.8341
 6783TIP3    H141840   1.930   1.690   1.515  1.6792 -0.0950  1.0496
 6783TIP3    H241841   2.027   1.680   1.400  0.9660 -2.0645  0.5998
 6784TIP3   OH241842   0.268   5.820  11.755 -0.0960  0.3025 -0.5954
 6784TIP3    H141843   0.350   5.773  11.741 -1.1844 -1.5891 -0.8063
 6784TIP3    H241844   0.210   5.786  11.687 -1.1480  1.4134 -0.2656
 6785TIP3   OH241845   0.942   1.248  14.831 -0.5269 -0.2390  0.5809
 6785TIP3    H141846   0.885   1.297  14.772 -0.7815 -1.2390 -0.0296
 6785TIP3    H241847   0.938   1.295  14.914 -2.1984 -0.2668  0.5304
 6786TIP3   OH241848   1.781   1.472   2.060  0.3960  0.5450  0.2561
 6786TIP3    H141849   1.763   1.379   2.074 -1.4302  0.9114  0.4626
 6786TIP3    H241850   1.781   1.482   1.964 -1.9511  0.7948  0.2677
 6787TIP3   OH241851   3.799   3.921   4.201  0.2682  0.2850  0.2834
 6787TIP3    H141852   3.846   3.989   4.249  0.0098  0.2735  0.5561
 6787TIP3    H241853   3.843   3.840   4.225 -0.4231  0.1702  1.2279
 6788TIP3   OH241854   0.620   5.091   1.149 -0.3155 -0.7814  0.2085
 6788TIP3    H141855   0.669   5.068   1.070  0.6380  3.2937 -0.5290
 6788TIP3    H241856   0.528   5.083   1.123 -0.0051 -1.5223 -0.6737
 6789TIP3   OH241857   3.941   5.500  17.141 -0.1665 -0.3926  0.2585
 6789TIP3    H141858   3.923   5.406  17.137 -2.0289 -0.0007 -1.3597
 6789TIP3    H241859   4.030   5.508  17.107 -0.7550 -1.3849 -1.5824
 6790TIP3   OH241860   3.882   1.578   0.876 -0.3412 -0.2395 -0.0148
 6790TIP3    H141861   3.951   1.629   0.834 -0.7109 -0.9664 -1.5199
 6790TIP3    H241862   3.877   1.614   0.965  1.5168  0.2629 -0.0857
 6791TIP3   OH241863   5.213   2.669  12.003  0.1376 -0.6532  0.7072
 6791TIP3    H141864   5.172   2.739  12.055  0.5500 -1.5741  2.2997
 6791TIP3    H241865   5.297   2.707  11.975  0.1583 -0.3412  1.1769
 6792TIP3   OH241866   6.522   4.314  15.753  0.3113 -0.4250 -0.9078
 6792TIP3    H141867   6.495   4.405  15.764 -2.3739 -1.1514 -1.0270
 6792TIP3    H241868   6.572   4.293  15.832 -0.7798  0.5603  0.0530
 6793TIP3   OH241869   1.500   3.266  15.528  0.2600  0.5359  0.0703
 6793TIP3    H141870   1.549   3.235  15.605  0.1865  0.0077 -0.0932
 6793TIP3    H241871   1.441   3.332  15.562  0.1193  0.1913  0.4942
 6794TIP3   OH241872   0.376   1.942  16.196  0.2431  0.0278 -0.0648
 6794TIP3    H141873   0.400   2.035  16.194  0.6040 -0.0361  1.2128
 6794TIP3    H241874   0.445   1.900  16.246 -0.4687 -0.7770  0.2513
 6795TIP3   OH241875   2.161   3.674   6.179 -0.1571  0.1329 -0.2166
 6795TIP3    H141876   2.159   3.591   6.228 -0.6308  1.2328  1.6956
 6795TIP3    H241877   2.208   3.734   6.238  3.2941  0.3321 -3.0275
 6796TIP3   OH241878   2.019   2.111  15.549 -0.2911 -0.3999 -0.0192
 6796TIP3    H141879   1.978   2.158  15.476 -0.3106 -2.1939 -1.1907
 6796TIP3    H241880   2.102   2.080  15.512  1.6828  2.2444  1.9811
 6797TIP3   OH241881   6.480   5.856   4.395  0.5982  0.1326  0.0247
 6797TIP3    H141882   6.465   5.818   4.481 -0.2739 -0.9892 -0.6053
 6797TIP3    H241883   6.502   5.781   4.339  2.1652  0.9762 -0.5041
 6798TIP3   OH241884   3.894   2.600   0.021  0.2818 -0.2253 -0.1451
 6798TIP3    H141885   3.930   2.533  -0.038  1.2782  0.6778 -0.5734
 6798TIP3    H241886   3.808   2.620  -0.016  1.0373  0.5737 -1.4962
 6799TIP3   OH241887   4.043   0.269   1.965 -0.2249 -0.1610  0.0711
 6799TIP3    H141888   4.012   0.242   1.878  1.8336  1.4195 -1.1919
 6799TIP3    H241889   3.972   0.245   2.024 -1.0190 -2.6908 -1.8227
 6800TIP3   OH241890   5.593   0.194  11.782  0.4812 -0.2260  0.6955
 6800TIP3    H141891   5.601   0.114  11.730  0.7638  0.2487  0.0075
 6800TIP3    H241892   5.502   0.222  11.769  1.1399  1.0867 -1.3144
 6801TIP3   OH241893   3.437   0.191   1.467  0.2649  0.0200  0.2248
 6801TIP3    H141894   3.487   0.230   1.539 -0.8360  2.0278 -0.0389
 6801TIP3    H241895   3.491   0.206   1.390 -0.5526  1.9428 -0.0177
 6802TIP3   OH241896   4.077   2.027   4.934  0.1298 -0.0745 -0.3790
 6802TIP3    H141897   4.011   1.975   4.979 -0.0559 -0.3371 -0.9481
 6802TIP3    H241898   4.028   2.095   4.889  0.4285  1.0366  0.9310
 6803TIP3   OH241899   3.009   4.159  16.838 -0.0466  0.0167  0.2145
 6803TIP3    H141900   3.102   4.176  16.850 -0.4276  2.6205 -0.3360
 6803TIP3    H241901   2.971   4.166  16.926  0.3348 -1.5507  0.5150
 6804TIP3   OH241902   2.551   2.527   5.231  0.2324 -0.7276  0.7497
 6804TIP3    H141903   2.586   2.559   5.148 -0.8291  1.4247  1.0869
 6804TIP3    H241904   2.579   2.436   5.236 -0.5076 -1.1789 -2.4041
 6805TIP3   OH241905   4.150   1.413  14.492  0.1065 -0.4807 -0.0831
 6805TIP3    H141906   4.236   1.421  14.450 -0.4724  0.6927 -1.0613
 6805TIP3    H241907   4.156   1.471  14.568  1.3722 -3.0817  1.8955
 6806TIP3   OH241908   4.827   4.839  11.837 -0.1990 -0.0198  0.0217
 6806TIP3    H141909   4.768   4.885  11.778 -1.1755 -1.0345  0.1910
 6806TIP3    H241910   4.914   4.856  11.801 -0.6971  0.2363 -1.1022
 6807TIP3   OH241911   2.100   6.750   4.248  0.3195  0.0543 -0.1229
 6807TIP3    H141912   2.172   6.810   4.227  0.3399  0.3577  0.7887
 6807TIP3    H241913   2.129   6.704   4.326  0.1602 -0.9239 -0.6321
 6808TIP3   OH241914   5.676   0.869   2.164  0.1878 -0.0938 -0.4134
 6808TIP3    H141915   5.755   0.847   2.115  0.6694  1.2911 -0.2978
 6808TIP3    H241916   5.684   0.822   2.247  0.7931 -0.1007 -0.4798
 6809TIP3   OH241917   1.645   6.224  14.641 -0.0611 -0.4821 -0.2576
 6809TIP3    H141918   1.705   6.149  14.630 -0.5596 -1.2501  1.9733
 6809TIP3    H241919   1.696   6.287  14.693 -0.6699 -0.5329  0.4047
 6810TIP3   OH241920   1.009   5.398  11.298 -0.0181  0.0830  0.2364
 6810TIP3    H141921   0.952   5.321  11.296  0.8042 -0.6487  2.6515
 6810TIP3    H241922   0.954   5.467  11.336 -0.4113  0.3858 -0.8763
 6811TIP3   OH241923   6.767   3.437  10.478 -0.5072 -0.2377  0.7707
 6811TIP3    H141924   6.832   3.507  10.480 -1.3098  0.5538 -0.2613
 6811TIP3    H241925   6.726   3.440  10.564  0.0310  0.0255  1.0194
 6812TIP3   OH241926   4.496   5.166  11.774 -0.1629 -0.1470 -0.4832
 6812TIP3    H141927   4.585   5.135  11.760  0.7740  1.3106  1.8238
 6812TIP3    H241928   4.441   5.090  11.755  1.7213 -1.6996  0.0313
 6813TIP3   OH241929   4.998   6.098   5.829 -0.0911 -0.1334  0.1349
 6813TIP3    H141930   5.001   6.181   5.877  0.5908 -0.2871  0.3661
 6813TIP3    H241931   5.087   6.062   5.839 -0.0130 -0.2757 -1.0307
 6814TIP3   OH241932   5.462   1.510   3.210  0.0311 -0.1704 -0.2305
 6814TIP3    H141933   5.405   1.436   3.189  1.0357 -0.4819 -1.8772
 6814TIP3    H241934   5.550   1.478   3.195  0.5523  0.9605  0.3313
 6815TIP3   OH241935   5.991   5.889  14.296 -0.1398 -0.2148 -0.4201
 6815TIP3    H141936   6.001   5.802  14.258 -1.7100 -0.5503 -0.0990
 6815TIP3    H241937   6.047   5.887  14.374  2.8697  0.3892 -2.4910
 6816TIP3   OH241938   4.633   1.100   3.060 -0.0016  0.2996 -0.2140
 6816TIP3    H141939   4.641   1.153   2.980  0.1444  0.9102  0.2020
 6816TIP3    H241940   4.641   1.163   3.131 -1.6683 -0.0208  0.2779
 6817TIP3   OH241941   5.551   6.319  15.608 -0.4799  0.4747 -0.5214
 6817TIP3    H141942   5.588   6.354  15.527  0.3719 -2.0261 -1.2452
 6817TIP3    H241943   5.599   6.238  15.623 -0.4696  1.0258  2.6390
 6818TIP3   OH241944   2.540   4.367  12.162  0.5269  0.2914  0.0735
 6818TIP3    H141945   2.519   4.398  12.250  0.0572 -0.3765  0.1953
 6818TIP3    H241946   2.630   4.335  12.168 -0.8233 -3.5012  1.3246
 6819TIP3   OH241947   3.023   1.443  14.044 -0.5051  0.3232 -1.2396
 6819TIP3    H141948   3.047   1.464  14.134 -2.0111 -0.6041 -0.5875
 6819TIP3    H241949   3.043   1.350  14.035 -0.2982  0.4290 -1.8795
 6820TIP3   OH241950   4.331   6.150  15.086 -0.2687 -0.3584 -0.0437
 6820TIP3    H141951   4.376   6.087  15.143 -0.0523  0.1222  0.3197
 6820TIP3    H241952   4.348   6.119  14.997  0.2820 -0.5162  0.1164
 6821TIP3   OH241953   6.027   2.349  11.063 -0.0870 -0.1407 -0.1327
 6821TIP3    H141954   6.092   2.319  11.000 -1.3340 -0.8417 -1.0979
 6821TIP3    H241955   5.980   2.270  11.090 -0.1207  0.2679  1.0465
 6822TIP3   OH241956   0.655   6.325  11.517  0.5047  0.1586  0.1278
 6822TIP3    H141957   0.601   6.255  11.482 -0.5730  0.7767  0.5356
 6822TIP3    H241958   0.594   6.395  11.539  1.4963  0.9971  0.2993
 6823TIP3   OH241959   0.963   6.663   0.964  0.3519  0.4888 -0.6645
 6823TIP3    H141960   0.896   6.664   1.032 -0.2194  0.8040 -1.2276
 6823TIP3    H241961   0.936   6.594   0.904  0.7473  0.3422 -0.6766
 6824TIP3   OH241962   2.979   6.082   4.843  0.1404  0.0505 -0.3672
 6824TIP3    H141963   2.995   6.132   4.923 -2.0240  0.7657 -0.3486
 6824TIP3    H241964   3.032   6.003   4.854  0.5667  0.5408  1.3634
 6825TIP3   OH241965   5.360   4.791  15.108 -0.3444  0.6218 -0.3844
 6825TIP3    H141966   5.278   4.741  15.103  0.5545 -1.0880  1.3599
 6825TIP3    H241967   5.338   4.866  15.163 -1.0230  0.7300 -0.8016
 6826TIP3   OH241968   3.886   5.099  10.546  0.3987 -0.0513  0.7604
 6826TIP3    H141969   3.823   5.120  10.616  0.4492  1.4861  0.3682
 6826TIP3    H241970   3.970   5.093  10.590  0.4255  0.8880  0.8543
 6827TIP3   OH241971   6.499   6.811   4.362 -0.1834  0.6154  1.2648
 6827TIP3    H141972   6.456   6.817   4.277  1.4550  0.7303  0.4326
 6827TIP3    H241973   6.493   6.899   4.398  1.3776  1.2152  0.1320
 6828TIP3   OH241974   0.373   1.975   6.504 -0.1630 -0.4561  0.0685
 6828TIP3    H141975   0.284   1.953   6.530 -0.4389  0.7995  0.2109
 6828TIP3    H241976   0.372   1.970   6.408 -0.6464  0.5121  0.0186
 6829TIP3   OH241977   4.135   6.735   4.923 -0.1273  0.1056  0.2186
 6829TIP3    H141978   4.214   6.709   4.875  0.1025 -2.6090  1.9441
 6829TIP3    H241979   4.166   6.801   4.985  0.3741  0.6038 -0.5556
 6830TIP3   OH241980   5.080   2.457  14.134  0.5859 -0.1404  0.2356
 6830TIP3    H141981   5.078   2.369  14.096 -0.4195 -0.1511  0.3129
 6830TIP3    H241982   5.170   2.467  14.166  0.1899 -1.9218  2.0531
 6831TIP3   OH241983   0.321   3.706  11.364  0.8346  0.0071  0.0802
 6831TIP3    H141984   0.305   3.773  11.298 -1.2203  0.7782  1.3315
 6831TIP3    H241985   0.346   3.754  11.443 -0.7151 -0.6741  1.0056
 6832TIP3   OH241986   2.275   1.730   2.768  0.3938  0.5868 -0.3266
 6832TIP3    H141987   2.289   1.691   2.681  1.1688  1.8498 -0.7756
 6832TIP3    H241988   2.310   1.664   2.828  1.5956  0.5104 -1.0775
 6833TIP3   OH241989   3.141   2.104   2.948 -0.3119  0.1711 -0.0536
 6833TIP3    H141990   3.046   2.090   2.953 -0.3823  1.2100  1.9895
 6833TIP3    H241991   3.178   2.044   3.013  0.6916 -2.2153 -2.7275
 6834TIP3   OH241992   6.058   3.283  13.186 -0.8497  0.3945  0.0134
 6834TIP3    H141993   6.025   3.364  13.225 -1.9695  0.9724 -2.0768
 6834TIP3    H241994   6.072   3.305  13.094  4.1309 -0.2369  0.5258
 6835TIP3   OH241995   6.436   1.071  14.657 -0.2276  0.0706 -0.3774
 6835TIP3    H141996   6.507   1.030  14.706 -0.8750 -1.0704 -0.3661
 6835TIP3    H241997   6.380   0.998  14.632 -2.4344  1.1538  1.2752
 6836TIP3   OH241998   4.340   1.869   5.787 -0.0516  0.0577 -0.2788
 6836TIP3    H141999   4.304   1.920   5.860 -1.2202  0.3671 -1.0619
 6836TIP3    H242000   4.435   1.875   5.799 -0.2022  1.2189  0.4673
 6837TIP3   OH242001   4.333   0.669   5.617  0.3607 -0.0387  0.4314
 6837TIP3    H142002   4.393   0.715   5.558  1.4047 -2.7732 -0.7079
 6837TIP3    H242003   4.271   0.626   5.559 -1.9288  1.6409  1.5693
 6838TIP3   OH242004   0.462   1.383   2.574 -0.0685 -0.1637  0.1947
 6838TIP3    H142005   0.405   1.314   2.540 -1.8827  1.5878 -0.3782
 6838TIP3    H242006   0.521   1.337   2.634 -1.8828 -2.0679  0.5849
 6839TIP3   OH242007   5.261   0.895   5.022 -0.0990 -0.5647  0.7026
 6839TIP3    H142008   5.241   0.804   5.043  0.5340 -0.5649  1.3307
 6839TIP3    H242009   5.311   0.890   4.940 -1.1348 -0.6843  0.0661
 6840TIP3   OH242010   0.148   4.687   3.941  0.1916  0.2185  0.0702
 6840TIP3    H142011   0.141   4.764   3.884 -0.7334 -0.5146 -0.8294
 6840TIP3    H242012   0.119   4.615   3.886  1.0038 -0.7730  0.9270
 6841TIP3   OH242013   4.865   0.646   5.256 -0.0822 -0.0749 -0.0664
 6841TIP3    H142014   4.904   0.585   5.194 -0.7549 -1.9070  1.2988
 6841TIP3    H242015   4.939   0.676   5.309  0.4079  1.0956 -1.3662
 6842TIP3   OH242016   2.101   1.622   3.739 -0.6319  0.1151  0.1863
 6842TIP3    H142017   2.082   1.714   3.757 -0.2032 -0.0610  1.5932
 6842TIP3    H242018   2.180   1.603   3.790  1.5934  0.0020 -3.1748
 6843TIP3   OH242019   1.975   4.778   3.254  0.3895 -0.5054  0.4506
 6843TIP3    H142020   2.066   4.778   3.283  0.5836  2.2478 -0.0679
 6843TIP3    H242021   1.937   4.857   3.293 -1.2275 -0.5479 -0.9696
 6844TIP3   OH242022   6.088   3.018   4.060 -0.1302  0.7105  0.0628
 6844TIP3    H142023   6.014   3.073   4.089  0.0768  1.8622 -1.5207
 6844TIP3    H242024   6.046   2.941   4.022 -0.5186  1.1294 -0.3778
 6845TIP3   OH242025   5.770   1.288  12.932  0.3077 -0.0229 -0.0524
 6845TIP3    H142026   5.814   1.280  13.017  4.1009  0.3328 -1.8712
 6845TIP3    H242027   5.770   1.382  12.914 -0.2166 -0.1249 -0.6027
 6846TIP3   OH242028   5.954   1.581   1.336 -0.1363  0.4924 -0.0547
 6846TIP3    H142029   5.914   1.595   1.250 -1.6061 -0.7058  0.3990
 6846TIP3    H242030   6.041   1.545   1.317 -0.4659  0.2006 -1.0466
 6847TIP3   OH242031   2.072   4.677  11.762 -0.0176 -0.2815  0.0903
 6847TIP3    H142032   2.127   4.699  11.687  1.2152 -1.7013  0.5525
 6847TIP3    H242033   2.093   4.586  11.781  0.2426  0.2649  2.6247
 6848TIP3   OH242034   1.142   5.707  16.967  0.3886  0.1629  0.2132
 6848TIP3    H142035   1.153   5.615  16.991  0.3984 -0.6039 -2.6559
 6848TIP3    H242036   1.052   5.727  16.992 -0.4487 -1.3658 -1.4563
 6849TIP3   OH242037   1.189   5.340  15.409  0.4206  0.0657 -0.2062
 6849TIP3    H142038   1.276   5.349  15.370  0.1319  0.6847 -0.7302
 6849TIP3    H242039   1.173   5.246  15.412  0.2845  0.0110 -1.9768
 6850TIP3   OH242040   3.589   4.628   3.595  0.5786  0.6480 -0.4604
 6850TIP3    H142041   3.581   4.660   3.505 -3.4173 -1.3824 -0.9715
 6850TIP3    H242042   3.654   4.558   3.590  1.9774  1.9950 -1.3342
 6851TIP3   OH242043   1.303   1.358  15.166 -0.0901 -0.3112 -0.2228
 6851TIP3    H142044   1.266   1.387  15.083 -0.2233 -1.5054 -0.5916
 6851TIP3    H242045   1.242   1.290  15.197 -0.4064  0.5881  1.1755
 6852TIP3   OH242046   6.604   0.136   3.922  0.2216 -0.3138 -0.2969
 6852TIP3    H142047   6.618   0.205   3.987 -1.9378  0.2465 -0.3769
 6852TIP3    H242048   6.578   0.060   3.974 -0.6947 -0.1013 -0.4383
 6853TIP3   OH242049   1.731   5.786  12.924  0.3577 -0.5460  0.1725
 6853TIP3    H142050   1.716   5.702  12.967  0.0284 -1.3020 -1.3629
 6853TIP3    H242051   1.645   5.811  12.891  0.4200  0.4929  0.7811
 6854TIP3   OH242052   6.221   3.392  10.616 -0.0983 -0.4564  0.0403
 6854TIP3    H142053   6.137   3.350  10.632  0.6394 -2.0672 -0.2351
 6854TIP3    H242054   6.204   3.454  10.545 -1.1160 -0.5646  0.1852
 6855TIP3   OH242055   2.881   2.821   0.217 -0.4521 -0.6431 -0.0849
 6855TIP3    H142056   2.969   2.783   0.211  0.2907  1.0611 -0.3238
 6855TIP3    H242057   2.822   2.746   0.209  0.9848 -1.9234  0.9801
 6856TIP3   OH242058   5.044   4.743   2.042  0.7833  0.6479  0.2476
 6856TIP3    H142059   5.062   4.816   2.102  0.8278  2.3545 -1.7585
 6856TIP3    H242060   5.111   4.751   1.974  0.2161 -0.7183 -0.4942
 6857TIP3   OH242061   1.157   0.214   1.200  0.6155 -0.2234 -0.7214
 6857TIP3    H142062   1.152   0.193   1.107 -0.7793 -0.5000 -0.5939
 6857TIP3    H242063   1.180   0.307   1.202  1.3855 -0.3997 -1.3316
 6858TIP3   OH242064   5.711   6.296  11.675  0.3775 -0.2146 -0.3167
 6858TIP3    H142065   5.762   6.319  11.598 -1.3519  2.7097 -0.6724
 6858TIP3    H242066   5.635   6.249  11.640 -0.0442  0.4829 -0.3516
 6859TIP3   OH242067   1.287   4.929   5.079  0.1334  0.6314 -0.0797
 6859TIP3    H142068   1.260   4.839   5.062  0.9993  0.5552 -1.0650
 6859TIP3    H242069   1.311   4.930   5.171 -1.4352  0.2487  0.3457
 6860TIP3   OH242070   2.375   2.766   5.547  0.1407 -0.5074 -0.2250
 6860TIP3    H142071   2.434   2.830   5.507 -0.0687  0.0900  0.4221
 6860TIP3    H242072   2.433   2.707   5.595  0.2899 -0.4651 -0.3515
 6861TIP3   OH242073   0.488   1.789  12.614  0.2346  0.1561 -0.3474
 6861TIP3    H142074   0.564   1.757  12.565  0.4275  0.9925 -0.6030
 6861TIP3    H242075   0.521   1.866  12.660 -0.4074  0.3846 -0.2731
 6862TIP3   OH242076   5.316   0.740   5.330  0.3970 -0.0497 -0.8181
 6862TIP3    H142077   5.319   0.835   5.315  1.1341 -0.1888 -1.6017
 6862TIP3    H242078   5.262   0.706   5.259 -1.3803 -0.0341  0.4939
 6863TIP3   OH242079   3.153   6.461  13.202  0.1355 -0.1823  0.3092
 6863TIP3    H142080   3.061   6.442  13.181  0.4232 -2.7280  1.1801
 6863TIP3    H242081   3.155   6.468  13.297  0.9836 -0.9623  0.3531
 6864TIP3   OH242082   6.074   4.146  14.739 -0.5529 -0.4001 -0.0825
 6864TIP3    H142083   6.089   4.199  14.661  2.3061 -0.6976  0.2009
 6864TIP3    H242084   6.022   4.201  14.797 -0.9644  0.5839 -1.3671
 6865TIP3   OH242085   0.000   4.633   0.620  0.5793 -0.5697  0.1720
 6865TIP3    H142086  -0.012   4.543   0.591  0.3458 -0.2868 -0.6204
 6865TIP3    H242087  -0.088   4.669   0.626  0.7565  0.1792 -1.3829
 6866TIP3   OH242088   4.199   1.474   2.563  0.4903  0.0493  0.6808
 6866TIP3    H142089   4.118   1.468   2.512  0.6534  0.0018  0.4206
 6866TIP3    H242090   4.171   1.479   2.654  0.1579  1.0135  0.5330
 6867TIP3   OH242091   2.372   0.267  15.900 -0.1152  0.2377 -0.1129
 6867TIP3    H142092   2.400   0.275  15.809  2.1757 -0.2279  0.5023
 6867TIP3    H242093   2.336   0.353  15.921  2.3802  1.4622 -0.5359
 6868TIP3   OH242094   4.053   6.181  13.230  0.0411 -0.2137  0.1635
 6868TIP3    H142095   4.093   6.231  13.160  0.9520  0.0193  0.8470
 6868TIP3    H242096   4.124   6.128  13.266 -0.2886  0.0889  1.2765
 6869TIP3   OH242097   2.608   6.285   3.937  0.1954 -0.4562  0.0573
 6869TIP3    H142098   2.574   6.272   3.849  0.0312 -0.0849  0.0634
 6869TIP3    H242099   2.532   6.311   3.989 -0.0404 -2.3942  0.7082
 6870TIP3   OH242100   0.599   3.055   2.255 -0.2018 -0.3052 -0.0631
 6870TIP3    H142101   0.580   3.143   2.223  1.8214  0.8525  1.8206
 6870TIP3    H242102   0.633   3.009   2.178 -0.0216  0.9650 -0.7678
 6871TIP3   OH242103   1.949   0.149  14.363  0.3010 -0.0143  0.1098
 6871TIP3    H142104   2.011   0.077  14.376  1.4353  1.1037  1.1022
 6871TIP3    H242105   1.864   0.113  14.388  1.0296 -0.6763  1.7207
 6872TIP3   OH242106   1.802   1.899   1.255 -0.0872 -0.1125 -0.0589
 6872TIP3    H142107   1.810   1.899   1.350  1.1374 -0.1916 -0.1518
 6872TIP3    H242108   1.830   1.987   1.228 -1.2432  0.1982 -0.2933
 6873TIP3   OH242109   5.015   6.366   4.103  0.1744  0.2280 -0.2037
 6873TIP3    H142110   4.964   6.396   4.027  0.8728  0.9767 -0.3802
 6873TIP3    H242111   5.105   6.363   4.071  0.5499  1.0705  0.7570
 6874TIP3   OH242112   0.714   1.860  11.560 -0.1083  0.0402 -0.2745
 6874TIP3    H142113   0.778   1.912  11.512 -2.0059  1.7416 -0.9823
 6874TIP3    H242114   0.675   1.803  11.494  1.6833 -2.1232  0.4238
 6875TIP3   OH242115   3.847   0.628  13.447 -0.4367 -0.2248 -0.3793
 6875TIP3    H142116   3.826   0.536  13.431 -0.0713 -0.4105  0.2169
 6875TIP3    H242117   3.910   0.627  13.519 -1.4370  0.5670  0.5271
 6876TIP3   OH242118   1.329   6.757  11.979 -0.1716  0.4608 -0.4931
 6876TIP3    H142119   1.332   6.849  12.006  2.6367  0.4981 -0.8133
 6876TIP3    H242120   1.366   6.709  12.053  1.1473 -0.0951 -1.4813
 6877TIP3   OH242121   6.439   3.054  16.294 -0.6779 -0.3097 -0.2361
 6877TIP3    H142122   6.424   2.984  16.358  1.0745 -0.8834 -0.4381
 6877TIP3    H242123   6.518   3.027  16.247  0.9615  2.5917  0.7782
 6878TIP3   OH242124   3.034   2.080  11.504  0.1473  0.6803  0.5618
 6878TIP3    H142125   3.080   2.119  11.430  0.6165 -0.1298  0.4170
 6878TIP3    H242126   2.948   2.055  11.469  0.8486 -0.9205 -0.0808
 6879TIP3   OH242127   0.300   0.365   2.243  0.0161  0.1483 -0.4278
 6879TIP3    H142128   0.243   0.435   2.277  1.5935  1.2556 -0.0051
 6879TIP3    H242129   0.368   0.411   2.194  0.9446 -1.1121 -0.3450
 6880TIP3   OH242130   0.292   4.649  15.265 -0.2512  0.6353 -0.1940
 6880TIP3    H142131   0.318   4.558  15.276 -0.6929  0.5044 -0.2252
 6880TIP3    H242132   0.337   4.678  15.186  0.0375  0.5002 -0.0795
 6881TIP3   OH242133   2.475   4.251   0.099 -0.1673 -0.3397 -0.2010
 6881TIP3    H142134   2.478   4.156   0.106 -1.6117 -0.3703  0.3261
 6881TIP3    H242135   2.543   4.274   0.036  0.0779 -1.7313 -0.4473
 6882TIP3   OH242136   0.873   4.020   4.817  0.4688  0.2601 -0.1400
 6882TIP3    H142137   0.787   3.981   4.832  0.1289  0.1275 -2.2578
 6882TIP3    H242138   0.855   4.094   4.758  1.3824  2.3006  2.0930
 6883TIP3   OH242139   0.515   1.252  13.805  0.0766  0.4676  0.6545
 6883TIP3    H142140   0.472   1.212  13.729 -0.5833  0.0651  1.2309
 6883TIP3    H242141   0.529   1.179  13.865 -0.0250  0.9010  1.2067
 6884TIP3   OH242142   5.762   6.305  17.148  0.9334  0.4622 -0.0443
 6884TIP3    H142143   5.850   6.331  17.175  0.6197  2.5153 -0.9058
 6884TIP3    H242144   5.723   6.385  17.112 -1.0138 -0.6017 -0.3844
 6885TIP3   OH242145   0.778   1.802  15.175 -0.1548 -0.2420  0.6006
 6885TIP3    H142146   0.750   1.871  15.115  0.0125  0.4966  1.3661
 6885TIP3    H242147   0.750   1.721  15.132 -0.0832  0.2752 -0.4505
 6886TIP3   OH242148   4.046   1.539   2.985  0.1365 -0.3511 -0.3922
 6886TIP3    H142149   4.117   1.571   3.040  1.1494 -1.2232 -1.1690
 6886TIP3    H242150   4.060   1.582   2.900 -0.4257 -0.3089 -0.4678
 6887TIP3   OH242151   3.180   4.254   0.748 -0.4553 -0.2349  0.2615
 6887TIP3    H142152   3.085   4.242   0.758 -0.4332  1.3028  2.5068
 6887TIP3    H242153   3.210   4.283   0.833  2.2613 -1.8195 -0.0978
 6888TIP3   OH242154   5.598   0.907  16.899  0.5128 -0.3749 -0.7707
 6888TIP3    H142155   5.568   0.997  16.887  1.6108  0.0256 -0.6198
 6888TIP3    H242156   5.681   0.916  16.947 -0.2514 -1.5638  0.8171
 6889TIP3   OH242157   5.508   3.451  14.530 -0.2765  0.2624 -0.0147
 6889TIP3    H142158   5.452   3.407  14.467  0.0954 -0.7975  0.3858
 6889TIP3    H242159   5.466   3.437  14.615  0.0187  0.3843  0.1559
 6890TIP3   OH242160   1.891   3.762  14.090 -0.1127 -0.6114  0.2703
 6890TIP3    H142161   1.899   3.711  14.009  0.2794 -0.9535  0.5227
 6890TIP3    H242162   1.875   3.696  14.157 -0.4122 -0.3285  0.4819
 6891TIP3   OH242163   4.138   3.479  16.212  0.0591  0.0811 -0.4162
 6891TIP3    H142164   4.201   3.410  16.193  1.0460  0.6277  0.8363
 6891TIP3    H242165   4.129   3.479  16.307 -1.6834  0.1460 -0.5536
 6892TIP3   OH242166   2.347   2.593  13.075 -0.1938  0.1233 -0.1630
 6892TIP3    H142167   2.436   2.618  13.048 -0.9455  0.6307 -2.2476
 6892TIP3    H242168   2.292   2.665  13.043 -1.4514 -0.5494  0.4798
 6893TIP3   OH242169   4.330   6.009   1.229  0.0370 -0.2464  0.5302
 6893TIP3    H142170   4.329   5.923   1.272 -2.0845  0.2002  1.4573
 6893TIP3    H242171   4.397   6.059   1.276  1.5075 -1.4706 -0.2199
 6894TIP3   OH242172   4.441   1.479   1.114 -0.0025  0.1021 -0.0543
 6894TIP3    H142173   4.434   1.415   1.043 -0.7706  1.4006 -1.1772
 6894TIP3    H242174   4.502   1.439   1.176  0.9386 -0.9325 -1.5990
 6895TIP3   OH242175   4.953   3.933  14.239 -0.4104  0.2124 -0.2664
 6895TIP3    H142176   4.969   3.979  14.156 -0.5132 -2.5398 -1.8761
 6895TIP3    H242177   4.859   3.942  14.253 -0.4133  0.5865 -0.4927
 6896TIP3   OH242178   5.513   1.069  12.219 -0.3720 -0.5672  0.2428
 6896TIP3    H142179   5.571   0.998  12.247 -1.0176 -0.4622  1.8637
 6896TIP3    H242180   5.572   1.135  12.182  0.3413 -1.4024 -0.1256
 6897TIP3   OH242181   6.595   1.665  17.124  0.2188  0.8395  0.0675
 6897TIP3    H142182   6.627   1.577  17.143 -1.4226  0.2971  0.3604
 6897TIP3    H242183   6.647   1.722  17.181  1.0596  0.0431  0.1155
 6898TIP3   OH242184   0.281   6.215  13.821  0.0142 -0.0732 -0.7774
 6898TIP3    H142185   0.287   6.202  13.916 -1.7180  2.2091 -0.2976
 6898TIP3    H242186   0.236   6.138  13.788 -0.4717 -0.3130  0.4343
 6899TIP3   OH242187   2.931   6.768  14.550 -0.2737 -0.3357 -0.0306
 6899TIP3    H142188   2.858   6.822  14.582 -0.9640 -1.6363  0.6367
 6899TIP3    H242189   2.891   6.684  14.528  0.9241 -0.8690 -0.2183
 6900TIP3   OH242190   1.176   6.037   0.328 -0.6659  0.0057 -0.3713
 6900TIP3    H142191   1.215   6.079   0.251  0.2466 -2.3076 -1.2171
 6900TIP3    H242192   1.216   6.081   0.403  0.1899  0.7060 -1.2370
 6901TIP3   OH242193   0.840   1.468   2.344  0.2798 -0.6326 -0.9854
 6901TIP3    H142194   0.789   1.426   2.413  0.1354 -1.7419 -1.7527
 6901TIP3    H242195   0.823   1.415   2.266  2.9279 -1.2768 -1.1811
 6902TIP3   OH242196   3.941   2.496  16.069  0.5107 -0.6728 -0.3642
 6902TIP3    H142197   3.941   2.562  16.138  0.4013  0.8832 -1.8087
 6902TIP3    H242198   3.976   2.418  16.110 -0.9801 -0.2127  1.8564
 6903TIP3   OH242199   6.426   1.351  12.179  0.0760  0.2640 -0.3944
 6903TIP3    H142200   6.402   1.444  12.181 -0.1745  0.1685  1.1184
 6903TIP3    H242201   6.495   1.343  12.246  0.1842 -0.6204 -0.6094
 6904TIP3   OH242202   1.237   6.579   5.860  0.2050  0.0720 -0.3128
 6904TIP3    H142203   1.178   6.551   5.930  0.5978 -0.3676 -0.1593
 6904TIP3    H242204   1.287   6.501   5.838  0.8138  0.4714 -0.3630
 6905TIP3   OH242205   5.150   4.316  10.824 -0.4777 -0.3603  0.3212
 6905TIP3    H142206   5.211   4.266  10.770  0.2535  1.6098 -0.7474
 6905TIP3    H242207   5.207   4.368  10.881 -1.1889  0.2174  0.5060
 6906TIP3   OH242208   0.711   0.511  11.764 -0.1971  0.2804 -0.4164
 6906TIP3    H142209   0.705   0.584  11.825 -1.5583  0.3682 -0.6453
 6906TIP3    H242210   0.718   0.552  11.678  1.4399  0.1538 -0.3616
 6907TIP3   OH242211   0.531   5.254   3.254  0.7920  0.0505  0.2402
 6907TIP3    H142212   0.600   5.320   3.238  1.9674 -1.2696 -0.2172
 6907TIP3    H242213   0.463   5.276   3.191  0.9482  1.1551  0.4428
 6908TIP3   OH242214   5.607   5.656  10.966 -0.1377  0.3651  0.5812
 6908TIP3    H142215   5.585   5.573  10.922  3.0982  0.2588 -0.9919
 6908TIP3    H242216   5.567   5.723  10.911  0.1356  0.0086 -0.0576
 6909TIP3   OH242217   5.027   0.094   0.063  0.1071  0.0034 -0.1884
 6909TIP3    H142218   5.007   0.032   0.133  0.2652  0.8248  0.5982
 6909TIP3    H242219   5.081   0.160   0.105  1.3434 -0.2098 -1.4142
 6910TIP3   OH242220   1.874   0.467   3.085  0.1112 -0.6486  0.6357
 6910TIP3    H142221   1.844   0.392   3.135 -3.7692  0.3639  0.0089
 6910TIP3    H242222   1.826   0.461   3.002  1.7751  1.0633 -0.5019
 6911TIP3   OH242223   0.602   3.799  14.556  0.0883 -0.1465 -0.6940
 6911TIP3    H142224   0.564   3.748  14.628  0.7728  1.5410  0.8927
 6911TIP3    H242225   0.665   3.857  14.598  0.3577  1.0153 -2.6460
 6912TIP3   OH242226   0.651   5.617   3.413 -0.2839 -0.4454  0.1033
 6912TIP3    H142227   0.731   5.631   3.464  0.6593 -0.3214 -1.3719
 6912TIP3    H242228   0.607   5.703   3.415  1.3133  0.4563 -1.8900
 6913TIP3   OH242229   5.947   2.746  13.090 -0.0212 -0.2821 -0.7937
 6913TIP3    H142230   5.965   2.789  13.006 -2.4941  0.9609 -0.7132
 6913TIP3    H242231   5.853   2.729  13.089 -0.0422 -0.4633  1.6269
 6914TIP3   OH242232   1.226   4.005  11.265  0.0943  0.0870 -0.2497
 6914TIP3    H142233   1.319   4.027  11.272  0.2202  0.1673 -1.7948
 6914TIP3    H242234   1.224   3.916  11.230 -0.3919  0.3485 -0.9227
 6915TIP3   OH242235   1.135   6.440  13.035 -0.6450 -0.6243  0.8339
 6915TIP3    H142236   1.203   6.401  12.980  0.8721  1.0428  1.4794
 6915TIP3    H242237   1.060   6.451  12.977  1.1826  1.8327 -1.1734
 6916TIP3   OH242238   3.667   0.039   0.530 -0.7047  0.5924 -0.0799
 6916TIP3    H142239   3.635  -0.051   0.519 -1.5744  0.3388  3.8477
 6916TIP3    H242240   3.589   0.093   0.527 -0.1889  1.2965 -2.3444
 6917TIP3   OH242241   6.506   1.620   5.008 -0.2053 -0.2424  0.9268
 6917TIP3    H142242   6.577   1.636   5.071 -1.1488  1.3325  1.6197
 6917TIP3    H242243   6.528   1.674   4.932 -0.6767  0.2820  1.1591
 6918TIP3   OH242244   0.724   3.391   0.249  0.2004  0.0049 -0.2402
 6918TIP3    H142245   0.694   3.481   0.244  0.4289  0.5303  5.1878
 6918TIP3    H242246   0.820   3.398   0.252  0.1994 -0.3783  0.7505
 6919TIP3   OH242247   6.357   4.871  14.929 -0.2894  0.6019 -0.0155
 6919TIP3    H142248   6.287   4.931  14.903  0.2726  2.2679  2.1197
 6919TIP3    H242249   6.438   4.916  14.903  0.0670 -0.1404 -0.1831
 6920TIP3   OH242250   0.093   0.472  15.702  0.6841 -0.6968  0.1389
 6920TIP3    H142251   0.095   0.566  15.681  0.1537 -0.7166 -0.0045
 6920TIP3    H242252   0.005   0.444  15.678  0.5577 -1.0494  1.0126
 6921TIP3   OH242253   1.383   3.138  13.348 -0.6783 -0.0518 -0.1039
 6921TIP3    H142254   1.329   3.203  13.394 -0.0560  0.1473  0.3651
 6921TIP3    H242255   1.328   3.108  13.276 -2.4999 -1.8953  1.9729
 6922TIP3   OH242256   0.408   6.505  11.506 -1.2654  0.0884  0.0261
 6922TIP3    H142257   0.386   6.522  11.598  1.1466 -2.1461  1.0932
 6922TIP3    H242258   0.331   6.462  11.470 -1.8566  0.0424  1.3133
 6923TIP3   OH242259   6.073   2.736  14.382 -0.5051 -0.0006  0.4046
 6923TIP3    H142260   6.167   2.732  14.368 -0.3876 -0.1713  1.2112
 6923TIP3    H242261   6.035   2.699  14.302  0.1433 -1.2587  0.6658
 6924TIP3   OH242262   3.068   2.857   1.402 -0.3974 -0.0359 -0.3574
 6924TIP3    H142263   2.993   2.815   1.361  0.5046 -0.4836 -1.5816
 6924TIP3    H242264   3.050   2.852   1.496 -0.0700 -3.6437 -0.4316
 6925TIP3   OH242265   1.253   1.088   1.957  0.0412  0.2738 -0.2378
 6925TIP3    H142266   1.241   1.183   1.954  0.7998  0.3478 -2.5501
 6925TIP3    H242267   1.264   1.064   1.865  0.5139 -1.9711  0.3950
 6926TIP3   OH242268   2.484   2.903   1.662 -0.1558  0.2120  0.3753
 6926TIP3    H142269   2.434   2.984   1.677  0.6760  0.8451 -0.2129
 6926TIP3    H242270   2.518   2.880   1.749  2.2004  2.2364  0.0446
 6927TIP3   OH242271   3.893   0.713  14.100  0.3723 -0.1181  0.1766
 6927TIP3    H142272   3.938   0.715  14.016 -0.0942  0.4068 -0.0561
 6927TIP3    H242273   3.800   0.708  14.078  0.3181 -1.4371  0.6574
 6928TIP3   OH242274   3.781   0.675   0.419 -0.0134  0.1501  0.4791
 6928TIP3    H142275   3.776   0.728   0.339 -1.5912  1.0411  1.1639
 6928TIP3    H242276   3.802   0.738   0.488 -0.0471 -0.4093  1.0010
 6929TIP3   OH242277   0.490   5.905  11.981  0.7634  0.2880  0.2657
 6929TIP3    H142278   0.445   5.823  11.961  0.3817 -0.0685  2.5544
 6929TIP3    H242279   0.526   5.933  11.896 -0.1098 -1.6096 -0.7652
 6930TIP3   OH242280   5.703   4.832  13.357  0.7840  0.4814  0.1488
 6930TIP3    H142281   5.750   4.895  13.412  2.3591  0.8260 -1.5698
 6930TIP3    H242282   5.770   4.771  13.328 -0.5680 -1.4857  1.0463
 6931TIP3   OH242283   2.731   5.184   5.704 -0.4779 -0.0238 -0.2006
 6931TIP3    H142284   2.742   5.117   5.636 -0.1917 -1.3625  1.1317
 6931TIP3    H242285   2.820   5.215   5.721 -0.4723 -0.1856  0.0585
 6932TIP3   OH242286   2.528   0.520   4.452  0.0142 -0.2042 -0.0693
 6932TIP3    H142287   2.529   0.523   4.548  1.2008  0.2658 -0.0951
 6932TIP3    H242288   2.526   0.612   4.425  0.5588 -0.3205 -0.5023
 6933TIP3   OH242289   4.544   2.311  11.859 -0.1775  0.5202 -0.2358
 6933TIP3    H142290   4.630   2.350  11.841 -0.0793  0.2801 -0.2815
 6933TIP3    H242291   4.564   2.228  11.902 -0.3985  0.7260  0.2556
 6934TIP3   OH242292   3.349   4.616   1.198  0.3128  0.1532 -0.2933
 6934TIP3    H142293   3.413   4.568   1.252  0.2787 -0.0992 -0.4733
 6934TIP3    H242294   3.283   4.647   1.259  1.6850  2.1963  0.1928
 6935TIP3   OH242295   3.281   3.960   1.848  0.1666 -0.2216 -0.2041
 6935TIP3    H142296   3.293   3.926   1.759 -0.4022 -1.0346  0.0274
 6935TIP3    H242297   3.257   3.884   1.900 -0.7531  0.4629  0.3938
 6936TIP3   OH242298   0.173   1.336  12.179 -0.5146  0.0960  0.4098
 6936TIP3    H142299   0.184   1.367  12.089  0.2499  0.6559  0.6941
 6936TIP3    H242300   0.159   1.241  12.170  1.2016 -0.1249 -0.1969
 6937TIP3   OH242301   3.433   1.773  12.873 -0.1266 -0.3422 -1.2984
 6937TIP3    H142302   3.352   1.775  12.822 -0.2721 -0.7232 -1.0867
 6937TIP3    H242303   3.428   1.850  12.931 -0.3127 -0.3394 -1.3208
 6938TIP3   OH242304   1.195   2.233  13.649 -0.1191 -0.5944  0.5950
 6938TIP3    H142305   1.169   2.218  13.558 -1.5626  0.5722  0.7941
 6938TIP3    H242306   1.117   2.213  13.700  0.8494 -1.7941  1.6476
 6939TIP3   OH242307   5.605   5.736  15.665  0.2166 -0.0729  0.4891
 6939TIP3    H142308   5.582   5.680  15.739  0.2951  0.7996  1.1701
 6939TIP3    H242309   5.700   5.727  15.656 -0.0049 -1.6402 -0.6977
 6940TIP3   OH242310   3.183   4.468   0.148 -0.8584 -0.1677  0.0606
 6940TIP3    H142311   3.254   4.513   0.194 -0.4496 -0.9016  0.1631
 6940TIP3    H242312   3.207   4.473   0.055  0.1217 -1.7225  0.2023
 6941TIP3   OH242313   4.384   0.148   2.479  0.4349  0.3445 -0.4862
 6941TIP3    H142314   4.354   0.212   2.414  1.3959  1.0931 -0.2053
 6941TIP3    H242315   4.479   0.145   2.467  0.5494  0.0392  0.4956
 6942TIP3   OH242316   5.053   5.614   4.597  0.5897  0.2471  0.1954
 6942TIP3    H142317   5.071   5.520   4.592  1.6833  0.2573  2.6841
 6942TIP3    H242318   5.091   5.651   4.518  0.5732 -1.3591 -0.5662
 6943TIP3   OH242319   6.533   0.364  11.655 -0.3087  0.5975  0.5018
 6943TIP3    H142320   6.444   0.399  11.655 -1.4210 -2.0618  1.2811
 6943TIP3    H242321   6.532   0.298  11.585  0.6003 -0.4579  1.4735
 6944TIP3   OH242322   3.664   3.348   2.542  0.1243 -0.0053  0.2995
 6944TIP3    H142323   3.626   3.411   2.481  0.5975  0.0194  0.0244
 6944TIP3    H242324   3.669   3.267   2.491 -0.7946 -0.3547  0.7594
 6945TIP3   OH242325   1.173   1.285   3.174  0.0791 -0.2940  0.5067
 6945TIP3    H142326   1.247   1.345   3.187 -0.4860  0.5139  0.0103
 6945TIP3    H242327   1.191   1.212   3.234  1.4959 -0.3091  0.0994
 6946TIP3   OH242328   6.299   1.326  11.901 -0.9727 -0.3023  0.0242
 6946TIP3    H142329   6.228   1.307  11.963 -0.7741 -2.1415 -0.2963
 6946TIP3    H242330   6.285   1.265  11.829  0.5688 -0.2376 -0.3409
 6947TIP3   OH242331   5.687   2.860  11.091 -0.6965  0.4400  0.3446
 6947TIP3    H142332   5.630   2.929  11.125  2.2756  2.3387  1.6717
 6947TIP3    H242333   5.732   2.826  11.168  0.0946 -0.9000 -0.6961
 6948TIP3   OH242334   6.249   4.642  12.626  0.0229 -0.2224 -0.2375
 6948TIP3    H142335   6.294   4.683  12.699  2.1948 -1.2071 -0.9850
 6948TIP3    H242336   6.210   4.563  12.663  1.3383 -0.8556 -0.1746
 6949TIP3   OH242337   4.093   6.109   2.719 -0.3775  0.0992 -0.2905
 6949TIP3    H142338   4.093   6.020   2.753 -0.0501 -1.0607 -3.1242
 6949TIP3    H242339   4.027   6.108   2.650  1.6828  1.1429 -2.3808
 6950TIP3   OH242340   2.361   4.878   3.860  0.5585  0.1986  0.1350
 6950TIP3    H142341   2.300   4.938   3.817  0.8049  1.7144  1.8681
 6950TIP3    H242342   2.304   4.810   3.897 -0.0554  1.2161  1.1192
 6951TIP3   OH242343   3.771   6.376   1.571 -0.7267  0.3065 -0.7521
 6951TIP3    H142344   3.830   6.308   1.602  0.2028  1.3456 -0.2047
 6951TIP3    H242345   3.820   6.423   1.504 -0.5674  1.7711  0.3712
 6952TIP3   OH242346   0.443   5.313  17.284  0.3093 -0.5730 -0.1456
 6952TIP3    H142347   0.363   5.260  17.288 -0.6546  0.9412  1.7222
 6952TIP3    H242348   0.424   5.388  17.340  2.5963  0.4518 -0.6985
 6953TIP3   OH242349   1.874   0.783  12.965  0.0872  0.0780  0.2457
 6953TIP3    H142350   1.899   0.758  12.876  1.5488  0.0244  0.6611
 6953TIP3    H242351   1.868   0.878  12.963  1.2982  0.1604  0.3853
 6954TIP3   OH242352   5.372   3.079   3.666  0.5048 -0.1974 -0.2404
 6954TIP3    H142353   5.435   3.149   3.675 -1.4150  1.3948  1.2655
 6954TIP3    H242354   5.397   3.015   3.733  0.5027  0.4447  0.3761
 6955TIP3   OH242355   1.989   5.617  14.948  0.7473 -0.4990  0.4774
 6955TIP3    H142356   1.959   5.563  14.874 -0.1376  0.1440  0.3539
 6955TIP3    H242357   1.976   5.562  15.025  0.5161 -0.7262  0.2786
 6956TIP3   OH242358   3.428   5.100  15.833  0.1945 -0.4325 -0.0744
 6956TIP3    H142359   3.396   5.095  15.923  2.3831  0.1515  0.7589
 6956TIP3    H242360   3.501   5.162  15.836  0.9293 -1.1477 -2.0543
 6957TIP3   OH242361   0.485   2.459  17.101  0.0640  0.8798 -0.3782
 6957TIP3    H142362   0.401   2.415  17.109  0.7914 -0.8773 -2.1173
 6957TIP3    H242363   0.479   2.511  17.021  1.4571 -1.2383 -1.9227
 6958TIP3   OH242364   4.671   3.291  10.227 -0.1265 -0.4351 -0.2591
 6958TIP3    H142365   4.712   3.360  10.175 -1.7903  0.0412 -0.9778
 6958TIP3    H242366   4.625   3.236  10.163  0.6579 -1.8565  0.3631
 6959TIP3   OH242367   4.514   3.058   2.880 -0.6487  0.6427 -0.3499
 6959TIP3    H142368   4.441   3.026   2.827 -0.8336  1.9716 -0.9295
 6959TIP3    H242369   4.541   2.982   2.932 -0.9852 -0.4831 -1.7612
 6960TIP3   OH242370   0.787   0.491  16.178  0.1077 -0.4423 -0.2371
 6960TIP3    H142371   0.735   0.564  16.144 -0.4414 -2.7221 -4.5663
 6960TIP3    H242372   0.877   0.525  16.178 -0.5781  1.5102  1.6294
 6961TIP3   OH242373   6.423   2.894  16.730  0.5306  0.4071  0.0223
 6961TIP3    H142374   6.485   2.822  16.723 -1.3729 -1.3060  0.3857
 6961TIP3    H242375   6.474   2.965  16.769  1.8399 -1.5329  1.9765
 6962TIP3   OH242376   4.982   1.437   5.876  0.7985 -0.5179  0.3110
 6962TIP3    H142377   4.968   1.383   5.798  0.3710  1.0435 -0.7189
 6962TIP3    H242378   4.993   1.526   5.842  0.8013  0.1580  2.0298
 6963TIP3   OH242379   1.087   4.338  14.527  0.2461  0.3063 -0.1993
 6963TIP3    H142380   1.079   4.305  14.438  0.1826 -0.5601  0.1269
 6963TIP3    H242381   1.001   4.372  14.549 -0.3041 -1.3608  0.2737
 6964TIP3   OH242382   3.510   3.076  16.233 -0.1895  0.4097 -0.3728
 6964TIP3    H142383   3.508   3.063  16.327 -0.4493 -1.1358 -0.5760
 6964TIP3    H242384   3.602   3.062  16.209  0.0396  1.6147 -0.2605
 6965TIP3   OH242385   1.794   0.380  16.739 -0.0810  0.2619 -0.4597
 6965TIP3    H142386   1.888   0.395  16.743 -0.6085  3.8231  1.3267
 6965TIP3    H242387   1.775   0.329  16.818  0.2880  0.1830 -0.4203
 6966TIP3   OH242388   3.934   1.084  15.428 -0.5725  0.8974  0.2374
 6966TIP3    H142389   3.858   1.141  15.440 -0.5377  0.6779  1.6241
 6966TIP3    H242390   4.009   1.141  15.446 -0.4894  0.7014  0.5192
 6967TIP3   OH242391   4.219   4.980  14.928 -0.5073 -0.1329 -0.3226
 6967TIP3    H142392   4.205   5.012  15.017 -1.2426 -1.1990 -0.0401
 6967TIP3    H242393   4.133   4.951  14.899 -0.1425 -0.4424 -1.1247
 6968TIP3   OH242394   4.128   0.194  13.975 -0.1803 -0.3766 -0.0701
 6968TIP3    H142395   4.148   0.111  13.933  1.8559  0.4207 -0.7739
 6968TIP3    H242396   4.095   0.171  14.061 -2.2684 -1.9757 -1.2727
 6969TIP3   OH242397   0.033   2.285  11.523  0.2491 -1.1561 -0.1253
 6969TIP3    H142398   0.119   2.290  11.564  1.5054 -0.2642 -2.7803
 6969TIP3    H242399   0.010   2.376  11.504 -0.9850 -1.4385  0.0107
 6970TIP3   OH242400   2.248   0.991  12.480  0.1833 -0.2449  0.4079
 6970TIP3    H142401   2.244   0.913  12.536  0.1573 -1.0608 -0.7040
 6970TIP3    H242402   2.336   1.027  12.496  0.4676 -0.9133  0.4022
 6971TIP3   OH242403   2.209   4.538   5.234  0.5209 -0.1611  0.2156
 6971TIP3    H142404   2.182   4.509   5.321  1.1727 -1.4496 -0.0020
 6971TIP3    H242405   2.187   4.465   5.177 -0.7285  1.0178 -0.8688
 6972TIP3   OH242406   6.534   6.503   3.253 -0.1822  0.0941  0.3189
 6972TIP3    H142407   6.610   6.464   3.297 -0.6396  0.6921  1.6816
 6972TIP3    H242408   6.560   6.510   3.161  0.6357 -1.6071  0.3995
 6973TIP3   OH242409   3.700   1.352   6.783  0.0867 -0.2153  0.3691
 6973TIP3    H142410   3.666   1.290   6.719  1.7864 -0.4376 -0.3575
 6973TIP3    H242411   3.705   1.435   6.736 -0.3604  0.0359  0.7610
 6974TIP3   OH242412   5.703   0.048   3.993  1.0626 -0.0580  0.1346
 6974TIP3    H142413   5.625   0.061   4.047  0.5650 -0.4420 -0.4794
 6974TIP3    H242414   5.671   0.056   3.903  1.8493  0.3932 -0.1035
 6975TIP3   OH242415   2.832   1.406   2.121  0.1272 -0.3570 -0.1334
 6975TIP3    H142416   2.770   1.420   2.050 -0.4512  2.6648  0.9235
 6975TIP3    H242417   2.917   1.396   2.077  0.0904  3.4457 -1.1807
 6976TIP3   OH242418   0.500   3.186  15.358  0.2170  0.1166 -0.1695
 6976TIP3    H142419   0.578   3.238  15.378  0.7854 -0.9384  0.4096
 6976TIP3    H242420   0.507   3.168  15.264 -0.0739  1.2228 -0.4087
 6977TIP3   OH242421   4.858   2.847  16.369  0.7269  0.7573 -0.3392
 6977TIP3    H142422   4.942   2.875  16.331  1.4219 -0.3255  0.3799
 6977TIP3    H242423   4.870   2.858  16.463 -0.7495  2.7680 -0.3344
 6978TIP3   OH242424   2.804   0.808   4.031 -0.5345  0.5582  0.2835
 6978TIP3    H142425   2.812   0.867   4.105  0.3921 -0.5234  1.0549
 6978TIP3    H242426   2.894   0.780   4.012 -0.7279  0.9783 -1.3718
 6979TIP3   OH242427   2.769   0.886  12.826  0.0847  0.1187  0.8527
 6979TIP3    H142428   2.753   0.823  12.897 -0.4456 -0.4127  0.2699
 6979TIP3    H242429   2.789   0.968  12.871  2.0782 -0.7706  1.6270
 6980TIP3   OH242430   4.279   6.360   4.300 -0.3722  0.2073 -0.2585
 6980TIP3    H142431   4.202   6.325   4.254  0.4312 -0.8471 -0.8238
 6980TIP3    H242432   4.261   6.453   4.308 -1.7027 -0.0137 -0.4209
 6981TIP3   OH242433   4.057   1.821   5.769  1.1975  0.1909 -0.0349
 6981TIP3    H142434   4.142   1.862   5.783  0.9094  0.9394 -0.4734
 6981TIP3    H242435   4.050   1.811   5.674  0.3830  1.0458 -0.0767
 6982TIP3   OH242436   3.094   3.222   4.102  0.8056 -0.4608 -0.1600
 6982TIP3    H142437   3.057   3.164   4.169  1.2780 -0.8500 -0.2349
 6982TIP3    H242438   3.133   3.163   4.038 -0.3279 -0.1130 -1.1885
 6983TIP3   OH242439   0.361   4.028  16.310  0.1613 -0.4727 -0.0792
 6983TIP3    H142440   0.347   4.043  16.404 -1.3602 -0.0407 -0.3681
 6983TIP3    H242441   0.404   3.943  16.307  2.1903  0.4699  1.1287
 6984TIP3   OH242442   3.813   0.424   6.104  0.2701  0.2051 -0.0556
 6984TIP3    H142443   3.884   0.402   6.164  0.0304 -0.4116  0.0082
 6984TIP3    H242444   3.841   0.387   6.020 -0.9546 -1.9800  0.4537
 6985TIP3   OH242445   5.179   4.091  12.784 -0.4431  0.3692  0.1917
 6985TIP3    H142446   5.252   4.143  12.815 -0.1803 -0.6924  1.3953
 6985TIP3    H242447   5.123   4.153  12.737  1.4443  1.0978 -1.1350
 6986TIP3   OH242448   0.150   2.653  11.132 -0.1873  0.0780  0.3901
 6986TIP3    H142449   0.162   2.709  11.056  1.0006  1.1961  1.3807
 6986TIP3    H242450   0.200   2.696  11.202  0.1667 -1.8278  1.3501
 6987TIP3   OH242451   0.921   2.847   0.776 -0.3833  0.1332 -0.5054
 6987TIP3    H142452   0.852   2.913   0.777  0.1114  0.6479  0.1898
 6987TIP3    H242453   1.001   2.896   0.794  0.0692 -0.5637 -0.6150
 6988TIP3   OH242454   1.980   2.059  15.157 -0.0310 -0.4597  0.0563
 6988TIP3    H142455   2.056   2.014  15.193  0.2985 -0.5144 -0.7045
 6988TIP3    H242456   1.912   1.991  15.153 -0.5735 -0.0673  2.0903
 6989TIP3   OH242457   0.361   4.291  15.802  0.3037 -0.0355 -0.1296
 6989TIP3    H142458   0.352   4.247  15.717  2.0974 -0.6566 -0.0040
 6989TIP3    H242459   0.429   4.357  15.788  0.6071 -0.1419  0.8210
 6990TIP3   OH242460   0.964   5.174   5.508  0.0733  0.0078  0.1115
 6990TIP3    H142461   1.041   5.228   5.486  0.2390 -0.0695  0.4879
 6990TIP3    H242462   0.972   5.097   5.453 -0.1490  0.3541 -0.4122
 6991TIP3   OH242463   6.466   5.015   3.146 -0.0023  0.2923  0.1991
 6991TIP3    H142464   6.513   4.932   3.156  0.1065  0.0832 -1.8544
 6991TIP3    H242465   6.375   4.993   3.162  0.2858  0.2183  1.8119
 6992TIP3   OH242466   0.494   3.113   1.603 -0.1023  0.0059  0.1691
 6992TIP3    H142467   0.538   3.195   1.580  0.8763 -0.2899  0.9288
 6992TIP3    H242468   0.401   3.133   1.597  0.1353  0.5201 -1.9231
 6993TIP3   OH242469   3.417   4.801   2.965  0.4023 -0.0816  0.6209
 6993TIP3    H142470   3.499   4.796   2.918 -0.0083  0.4030 -0.1475
 6993TIP3    H242471   3.403   4.894   2.982 -2.1035  0.3222 -3.0548
 6994TIP3   OH242472   6.750   0.834  16.579 -0.6078 -0.1501  0.5617
 6994TIP3    H142473   6.816   0.844  16.511 -1.3841  0.3323 -0.1287
 6994TIP3    H242474   6.798   0.851  16.661  0.0505  0.5425  0.0468
 6995TIP3   OH242475   1.782   2.765  15.053  0.0872 -0.2919 -0.0801
 6995TIP3    H142476   1.760   2.805  15.137  0.5788 -0.5939  0.1916
 6995TIP3    H242477   1.777   2.671  15.068 -0.0736 -0.3452 -0.4548
 6996TIP3   OH242478   4.082   3.097  14.280  0.5345 -0.0788 -0.2813
 6996TIP3    H142479   4.007   3.122  14.225  0.8103  1.9721  0.2548
 6996TIP3    H242480   4.076   3.154  14.356  1.8071 -0.9458  0.4795
 6997TIP3   OH242481   3.339   6.486   1.099  0.7143  0.5615  0.2547
 6997TIP3    H142482   3.369   6.426   1.167 -1.0580  0.4645  0.9865
 6997TIP3    H242483   3.346   6.573   1.138 -0.3828  0.4990  0.6284
 6998TIP3   OH242484   4.659   1.557   4.576  0.5311 -0.3318  0.2525
 6998TIP3    H142485   4.716   1.607   4.634  1.0082 -0.0159 -0.4811
 6998TIP3    H242486   4.719   1.506   4.521  0.2568  2.6021 -2.8863
 6999TIP3   OH242487   6.174   2.116  14.312 -0.2763 -0.2315 -0.6233
 6999TIP3    H142488   6.247   2.122  14.252 -0.4722 -1.8562 -1.0464
 6999TIP3    H242489   6.194   2.179  14.381  2.9286 -2.6255  0.7624
 7000TIP3   OH242490   3.307   1.583  13.873  0.5384 -0.1847  0.3837
 7000TIP3    H142491   3.363   1.640  13.925  1.7095 -1.3396  0.4281
 7000TIP3    H242492   3.221   1.588  13.914  0.0397  3.2651 -0.9396
 7001TIP3   OH242493   0.636   5.359  17.047 -0.3920  0.1662  0.1854
 7001TIP3    H142494   0.707   5.331  17.105 -2.0373 -1.1275  1.6117
 7001TIP3    H242495   0.564   5.381  17.106 -0.5889  3.3495 -1.1347
 7002TIP3   OH242496   1.840   2.162  11.957  0.0380  0.3598 -0.0797
 7002TIP3    H142497   1.907   2.110  12.001 -1.0379 -0.6981  0.3466
 7002TIP3    H242498   1.777   2.183  12.026 -0.1658  1.2084 -0.5109
 7003TIP3   OH242499   2.280   4.152   0.607  0.5627  0.3278 -0.7216
 7003TIP3    H142500   2.339   4.136   0.681 -0.1009  0.2397 -0.2120
 7003TIP3    H242501   2.200   4.185   0.647  0.1251  0.0765 -1.3879
 7004TIP3   OH242502   5.690   2.035  15.351 -0.5807  0.8330 -0.6429
 7004TIP3    H142503   5.735   2.086  15.283 -0.0942  0.1299 -0.8653
 7004TIP3    H242504   5.615   2.088  15.376  0.4731  2.1148 -0.1424
 7005TIP3   OH242505   0.798   2.588   4.099 -0.2722  0.0647 -0.1334
 7005TIP3    H142506   0.794   2.522   4.168 -1.5413  0.6289  0.3539
 7005TIP3    H242507   0.780   2.670   4.144  0.7316  0.6798 -0.8332
 7006TIP3   OH242508   4.299   3.636  15.816 -0.2808  0.1607  0.0397
 7006TIP3    H142509   4.273   3.545  15.811 -0.6265  0.2244  0.7150
 7006TIP3    H242510   4.217   3.685  15.824 -0.0328  0.4374  0.9803
 7007TIP3   OH242511   5.588   2.516  14.018 -0.4462  0.0788 -0.4042
 7007TIP3    H142512   5.638   2.542  13.941  1.3957  1.5135  1.2013
 7007TIP3    H242513   5.534   2.593  14.038  0.0876  0.2301  0.5007
 7008TIP3   OH242514   0.318   1.419   0.975 -0.1005  0.1440 -0.2963
 7008TIP3    H142515   0.296   1.379   1.059  0.3455 -0.6290 -0.5365
 7008TIP3    H242516   0.405   1.457   0.988 -0.3555  0.6878 -0.1846
 7009TIP3   OH242517   4.556   3.211   5.311 -0.0852  0.3360  0.4370
 7009TIP3    H142518   4.627   3.260   5.270 -0.9605  0.5047 -0.8956
 7009TIP3    H242519   4.532   3.145   5.246 -0.1605 -0.6862  1.4818
 7010TIP3   OH242520   5.299   2.549  13.176 -0.2220 -0.0002  0.4463
 7010TIP3    H142521   5.262   2.466  13.205 -0.6159 -0.2115 -0.6461
 7010TIP3    H242522   5.388   2.527  13.146 -0.5811 -0.1533 -0.5116
 7011TIP3   OH242523   0.560   1.875   2.476 -0.2034 -0.3076  0.1495
 7011TIP3    H142524   0.489   1.845   2.419 -2.6611  2.9629  1.3456
 7011TIP3    H242525   0.537   1.840   2.563 -0.3615  0.7075  0.5238
 7012TIP3   OH242526   0.543   1.833  14.734 -0.2921  0.2165 -0.0885
 7012TIP3    H142527   0.534   1.923  14.702 -1.3135  0.3926  0.6726
 7012TIP3    H242528   0.615   1.837  14.797 -0.1700  0.4573 -0.2459
 7013TIP3   OH242529   1.121   4.212  12.348  0.5924  0.2381  0.2826
 7013TIP3    H142530   1.034   4.172  12.343  0.2259  1.2567 -2.1750
 7013TIP3    H242531   1.113   4.278  12.417 -0.3245 -0.2801  0.6867
 7014TIP3   OH242532   1.691   3.780   4.258 -0.3907  0.4006  0.0076
 7014TIP3    H142533   1.656   3.822   4.179 -0.1564  0.0455 -0.2857
 7014TIP3    H242534   1.629   3.805   4.327 -2.0170 -1.3603 -0.7579
 7015TIP3   OH242535   3.539   4.960  12.537 -0.8424  0.1813  0.2635
 7015TIP3    H142536   3.512   4.965  12.628  1.2859 -0.7322  0.9672
 7015TIP3    H242537   3.578   5.046  12.519  0.9602 -0.4710  0.9643
 7016TIP3   OH242538   6.619   1.626  10.934  0.1742  0.8808 -0.2410
 7016TIP3    H142539   6.629   1.617  10.840  1.6528  0.4754 -0.0539
 7016TIP3    H242540   6.530   1.659  10.946  0.0707  1.1692 -1.7820
 7017TIP3   OH242541   2.548   0.688   4.098 -0.2767  0.5750  0.0240
 7017TIP3    H142542   2.633   0.730   4.112 -0.3574  1.7223 -2.6222
 7017TIP3    H242543   2.498   0.711   4.176  0.7226  2.8354  0.0518
 7018TIP3   OH242544   4.122   1.760  12.863 -0.3055  0.2696 -0.4142
 7018TIP3    H142545   4.042   1.707  12.869  0.3463 -0.9109 -1.7453
 7018TIP3    H242546   4.090   1.850  12.860 -1.5918 -0.1828 -0.8260
 7019TIP3   OH242547   5.031   3.427   3.394 -0.9557  0.2730  0.2483
 7019TIP3    H142548   4.977   3.452   3.469  0.4317  0.1572  1.3198
 7019TIP3    H242549   4.978   3.447   3.317 -1.8091  1.8200  1.2201
 7020TIP3   OH242550   3.217   2.474  11.927 -0.0040  0.1490 -1.2098
 7020TIP3    H142551   3.146   2.515  11.877 -0.3708  1.1542  0.1205
 7020TIP3    H242552   3.210   2.381  11.906 -1.1986  0.3435 -1.7233
 7021TIP3   OH242553   6.602   3.006  14.237 -0.0498  0.2625 -0.3293
 7021TIP3    H142554   6.530   2.943  14.238 -1.2241  1.4997 -2.7000
 7021TIP3    H242555   6.587   3.059  14.158  2.7000  1.4289 -0.1355
 7022TIP3   OH242556   3.278   2.819   4.907 -0.1658 -0.4862 -0.1163
 7022TIP3    H142557   3.333   2.758   4.956 -1.1252 -0.3108  1.1937
 7022TIP3    H242558   3.281   2.900   4.958 -1.4891 -0.4202 -0.1390
 7023TIP3   OH242559   5.140   2.144   6.464 -0.3956  0.5618  0.0736
 7023TIP3    H142560   5.050   2.125   6.436 -0.3014  1.0593 -0.5873
 7023TIP3    H242561   5.132   2.173   6.554 -0.8635  0.2675  0.1291
 7024TIP3   OH242562   3.931   0.658   3.392 -0.5068  0.2460  0.4978
 7024TIP3    H142563   3.877   0.589   3.430 -0.1971 -0.5452 -0.4979
 7024TIP3    H242564   3.871   0.732   3.384 -0.7068  0.2794  2.0403
 7025TIP3   OH242565   1.976   5.078   3.327 -0.5815 -0.3580  0.2035
 7025TIP3    H142566   2.030   5.156   3.310 -0.0457 -0.6172  0.6927
 7025TIP3    H242567   1.952   5.086   3.419  0.1334 -1.1712  0.4697
 7026TIP3   OH242568   2.735   5.713  15.028  0.0981  0.6100 -0.0570
 7026TIP3    H142569   2.737   5.668  14.943 -0.6270 -1.5926  1.0561
 7026TIP3    H242570   2.642   5.722  15.048  0.2859 -0.9671  1.5726
 7027TIP3   OH242571   0.466   0.178  14.126  0.0251  0.1161  0.3834
 7027TIP3    H142572   0.540   0.189  14.186  0.2231  0.7148  0.0354
 7027TIP3    H242573   0.506   0.159  14.041 -0.1215  2.6490 -0.2922
 7028TIP3   OH242574   0.603   4.611   4.291  0.6224  0.0826  0.1949
 7028TIP3    H142575   0.677   4.671   4.301  0.1671  0.9323 -1.4091
 7028TIP3    H242576   0.531   4.654   4.337  0.8407 -0.2781  0.8958
 7029TIP3   OH242577   1.471   5.095   3.044  0.2215  0.3472 -0.4088
 7029TIP3    H142578   1.385   5.066   3.074  0.3113  0.8103  0.3333
 7029TIP3    H242579   1.531   5.063   3.112  0.8533 -1.4807 -1.8037
 7030TIP3   OH242580   2.381   5.625  12.769  0.5532 -0.0223  0.2438
 7030TIP3    H142581   2.407   5.716  12.784  0.7594 -0.2526  1.3510
 7030TIP3    H242582   2.454   5.573  12.804 -0.2562 -0.6359  1.0545
 7031TIP3   OH242583   5.092   3.203   1.364 -0.9681  0.1743  0.0849
 7031TIP3    H142584   5.186   3.204   1.383 -0.5003 -1.2584 -1.9486
 7031TIP3    H242585   5.051   3.183   1.448  0.5310  1.0041  1.0327
 7032TIP3   OH242586   5.004   3.385  11.825  0.0979 -0.1301 -0.3226
 7032TIP3    H142587   5.007   3.294  11.794 -0.4328 -0.0732 -0.5495
 7032TIP3    H242588   5.095   3.415  11.820  0.0326 -0.1346 -1.7780
 7033TIP3   OH242589   4.064   3.099   5.038  0.3094  0.0535  0.2146
 7033TIP3    H142590   4.120   3.060   5.105  1.8334 -1.6406 -1.9773
 7033TIP3    H242591   4.107   3.079   4.955 -1.8625  1.5352 -1.3426
 7034TIP3   OH242592   4.835   3.634   5.960  0.2720  0.3196  0.1946
 7034TIP3    H142593   4.886   3.610   6.038  0.1413  0.4358  0.3156
 7034TIP3    H242594   4.867   3.722   5.938  0.4658  0.1977 -0.0129
 7035TIP3   OH242595   4.826   5.179   6.067 -0.0962  0.6482  0.1512
 7035TIP3    H142596   4.824   5.102   6.124  0.1161  1.6801  1.5790
 7035TIP3    H242597   4.919   5.204   6.064 -0.1124  0.6269 -0.6130
 7036TIP3   OH242598   3.478   5.413  15.559 -0.0551  0.3282  0.3859
 7036TIP3    H142599   3.447   5.468  15.487  1.7261  1.1886  0.2444
 7036TIP3    H242600   3.495   5.328  15.519  2.3629  1.2262 -0.5447
 7037TIP3   OH242601   0.766   6.379  12.195 -0.1443 -0.4905 -0.2279
 7037TIP3    H142602   0.762   6.390  12.100 -1.4498 -3.3798 -0.5686
 7037TIP3    H242603   0.687   6.330  12.216 -0.4938  1.1899  2.5530
 7038TIP3   OH242604   2.122   5.889   4.113 -0.5675  0.0766  0.4971
 7038TIP3    H142605   2.059   5.832   4.070 -2.0855  1.6512  0.6185
 7038TIP3    H242606   2.194   5.897   4.050 -1.9708  0.9292 -1.0270
 7039TIP3   OH242607   2.967   5.989  14.452 -0.4638  0.3929 -0.0005
 7039TIP3    H142608   2.967   5.968  14.359 -3.9054  0.4423 -0.0728
 7039TIP3    H242609   3.049   5.953  14.485 -0.2970 -1.7094 -2.5915
 7040TIP3   OH242610   5.953   2.559   1.887 -0.3706 -0.3321 -0.5452
 7040TIP3    H142611   6.042   2.526   1.893 -0.4228 -0.2909  0.6963
 7040TIP3    H242612   5.928   2.548   1.795  0.8600 -0.4656 -0.8620
 7041TIP3   OH242613   0.397   3.225  12.907  0.4062  0.0700  0.2775
 7041TIP3    H142614   0.319   3.223  12.962  0.2985  0.6425  0.1433
 7041TIP3    H242615   0.466   3.256  12.965 -0.0020  2.0930 -0.2663
 7042TIP3   OH242616   6.217   1.854  13.624  0.1204  0.3850 -0.0242
 7042TIP3    H142617   6.296   1.907  13.635  0.3179 -0.4804  3.3374
 7042TIP3    H242618   6.250   1.764  13.615 -0.4452 -0.1175  2.4852
 7043TIP3   OH242619   5.604   4.230  12.608 -0.0846 -0.2513  1.0918
 7043TIP3    H142620   5.696   4.250  12.589 -0.5444 -1.4389 -2.9099
 7043TIP3    H242621   5.599   4.134  12.604 -1.6287 -0.1619  0.5484
 7044TIP3   OH242622   2.117   4.126  16.513  0.8647 -0.2822 -0.1516
 7044TIP3    H142623   2.105   4.214  16.548  1.2820  0.2275 -1.2661
 7044TIP3    H242624   2.203   4.099  16.546  1.2420  0.1802 -0.7603
 7045TIP3   OH242625   5.570   5.244  16.415 -0.5324 -0.6970 -0.1172
 7045TIP3    H142626   5.602   5.255  16.325 -0.3487  0.6341  0.1084
 7045TIP3    H242627   5.588   5.152  16.435  0.7781 -0.6308 -0.9167
 7046TIP3   OH242628   5.816   2.035   6.075  0.4065 -0.4098 -0.4612
 7046TIP3    H142629   5.742   2.018   6.133  0.0685  0.0817 -0.7407
 7046TIP3    H242630   5.893   2.028   6.132 -0.0674  2.7954  0.7159
 7047TIP3   OH242631   6.606   6.320  16.159 -0.0955  0.1135 -0.4224
 7047TIP3    H142632   6.571   6.246  16.109 -0.8307 -0.1300  0.4446
 7047TIP3    H242633   6.547   6.393  16.140 -0.6097 -0.0844  0.3981
 7048TIP3   OH242634   4.681   0.079  14.551  0.4821 -0.0673  0.2226
 7048TIP3    H142635   4.644   0.028  14.479 -0.8104 -0.6908  1.2866
 7048TIP3    H242636   4.695   0.167  14.514  1.1661 -0.7427 -1.1634
 7049TIP3   OH242637   1.135   4.225   2.330  0.1061 -0.1709 -0.1291
 7049TIP3    H142638   1.116   4.198   2.420 -0.6704 -0.4267 -0.3621
 7049TIP3    H242639   1.055   4.269   2.301  0.9587  1.3964 -0.1383
 7050TIP3   OH242640   4.605   4.329  16.792 -0.3785  0.0303  0.0326
 7050TIP3    H142641   4.683   4.324  16.737 -0.5111 -1.2843 -0.0380
 7050TIP3    H242642   4.633   4.378  16.870  0.8509 -1.5228  0.5798
 7051TIP3   OH242643   1.037   4.016   1.571 -0.5518  0.3750 -0.0873
 7051TIP3    H142644   0.990   4.099   1.559  1.1615  1.4890  0.7268
 7051TIP3    H242645   1.106   4.018   1.505  0.2295  0.1335  0.7167
 7052TIP3   OH242646   3.427   3.757  14.501  0.0383 -0.5209 -0.2136
 7052TIP3    H142647   3.509   3.773  14.548  0.2444  1.6999 -1.2439
 7052TIP3    H242648   3.367   3.824  14.535 -0.3426 -0.0433 -1.7612
 7053TIP3   OH242649   6.236   5.367  11.162  0.4074  0.8358  0.4074
 7053TIP3    H142650   6.218   5.312  11.086  0.6611  0.3956  0.6674
 7053TIP3    H242651   6.330   5.357  11.177  0.8020  2.6677 -0.5948
 7054TIP3   OH242652   0.139   6.006  13.479 -0.4045  0.3221 -0.0681
 7054TIP3    H142653   0.059   6.003  13.425 -0.5358 -2.4131  0.2155
 7054TIP3    H242654   0.107   6.009  13.569 -0.1818 -0.0841  0.0247
 7055TIP3   OH242655   2.951   5.112   1.036 -0.1570  0.1623  0.7876
 7055TIP3    H142656   2.994   5.125   1.121  0.6479  2.0742  0.1058
 7055TIP3    H242657   2.900   5.191   1.023 -1.6366 -0.8635  0.2489
 7056TIP3   OH242658   5.933   2.923  16.561  0.7058  0.1713 -0.8811
 7056TIP3    H142659   5.887   2.839  16.567  1.3899 -0.2769 -1.8580
 7056TIP3    H242660   6.024   2.899  16.544  0.9960  1.1018 -0.6743
 7057TIP3   OH242661   0.673   6.277   4.091 -0.0586  0.2232  0.2262
 7057TIP3    H142662   0.765   6.263   4.068 -0.0447  1.0192 -0.2533
 7057TIP3    H242663   0.662   6.235   4.176  1.2447  1.7975  1.2031
 7058TIP3   OH242664   5.032   0.562  16.670 -0.2031  0.0316 -0.3308
 7058TIP3    H142665   5.127   0.551  16.669 -0.2945 -0.8679  0.4872
 7058TIP3    H242666   5.009   0.562  16.763 -0.8933  1.3042 -0.4877
 7059TIP3   OH242667   5.092   0.431   0.247 -0.9889 -0.3726  0.4762
 7059TIP3    H142668   5.139   0.365   0.297 -0.3022 -0.8625 -0.7924
 7059TIP3    H242669   5.065   0.496   0.312 -0.9704 -1.4922  1.6077
 7060TIP3   OH242670   0.408   6.711  15.452 -0.4091 -0.1444 -0.0771
 7060TIP3    H142671   0.403   6.780  15.387  2.9440  1.2504  1.0347
 7060TIP3    H242672   0.373   6.750  15.532  1.3135  0.2520  0.5066
 7061TIP3   OH242673   6.791   2.448   4.985  0.0793 -0.5408 -0.3909
 7061TIP3    H142674   6.754   2.384   5.046 -1.9633  1.0148  0.0639
 7061TIP3    H242675   6.754   2.424   4.900 -1.2761  0.4366 -0.0973
 7062TIP3   OH242676   1.738   6.716   5.254 -0.6911 -0.3131  0.2483
 7062TIP3    H142677   1.802   6.719   5.326  1.0037 -0.2942 -1.2082
 7062TIP3    H242678   1.774   6.651   5.194 -0.6016  1.6581 -1.9005
 7063TIP3   OH242679   0.070   1.687  14.729  0.2642  0.0986  0.1985
 7063TIP3    H142680   0.126   1.765  14.721  0.4427  0.2311  2.3717
 7063TIP3    H242681   0.096   1.648  14.812  0.1482 -2.2993 -0.8605
 7064TIP3   OH242682   5.595   5.528  12.282 -0.0718  0.3501  0.4317
 7064TIP3    H142683   5.521   5.589  12.277  1.1486  1.7184 -2.4986
 7064TIP3    H242684   5.647   5.560  12.356 -0.3741  1.8162  0.0403
 7065TIP3   OH242685   5.168   3.229   6.735  0.2504  0.0970  0.0672
 7065TIP3    H142686   5.104   3.217   6.665  1.7143  0.2735 -1.3416
 7065TIP3    H242687   5.193   3.140   6.760  1.4858  0.0357 -1.3170
 7066TIP3   OH242688   2.683   1.570  15.573 -0.2838  0.9273 -0.1350
 7066TIP3    H142689   2.776   1.578  15.553  0.1979 -0.5556  1.4726
 7066TIP3    H242690   2.639   1.612  15.498  1.5806 -0.7294 -2.2268
 7067TIP3   OH242691   3.583   3.431   2.884 -0.0408 -0.4433  0.2495
 7067TIP3    H142692   3.558   3.408   2.795  0.6151  2.6492 -0.7978
 7067TIP3    H242693   3.552   3.521   2.895  1.6692 -0.0756  2.4493
 7068TIP3   OH242694   1.358   2.087   0.496  0.1714  0.5035  0.2230
 7068TIP3    H142695   1.363   2.054   0.585  0.4293 -1.3111 -0.4517
 7068TIP3    H242696   1.348   2.009   0.442 -3.4361  1.7620 -1.0810
 7069TIP3   OH242697   4.720   1.293   3.225  0.2059  0.4922 -0.0654
 7069TIP3    H142698   4.759   1.261   3.306  0.0689  1.1409  0.2541
 7069TIP3    H242699   4.787   1.350   3.187 -0.1548  1.0577  0.1382
 7070TIP3   OH242700   4.038   2.559   5.856  0.6020 -0.4387  0.1659
 7070TIP3    H142701   4.021   2.564   5.762 -0.4900 -0.8214  0.3355
 7070TIP3    H242702   3.964   2.510   5.891  0.7252  0.1644  1.2956
 7071TIP3   OH242703   5.736   2.598  14.538  0.0371 -0.3717  0.0041
 7071TIP3    H142704   5.814   2.570  14.491 -1.1156 -3.3593 -0.2664
 7071TIP3    H242705   5.711   2.680  14.496  1.6076 -0.6689 -1.5634
 7072TIP3   OH242706   0.096   3.657  10.487 -0.5365 -0.0127  0.4594
 7072TIP3    H142707   0.076   3.746  10.514 -0.3893 -0.8160  3.4780
 7072TIP3    H242708   0.191   3.658  10.472 -0.3146  0.0753  1.7535
 7073TIP3   OH242709   3.621   2.720   2.972 -0.8479 -0.3375  0.0261
 7073TIP3    H142710   3.689   2.679   2.918 -1.2854 -1.1469  0.0828
 7073TIP3    H242711   3.604   2.656   3.041  0.0587  0.9087  1.4236
 7074TIP3   OH242712   2.194   4.207   2.857 -0.3756  0.4496 -0.3540
 7074TIP3    H142713   2.185   4.232   2.765 -0.0933 -0.2158 -0.5687
 7074TIP3    H242714   2.108   4.226   2.896 -0.9305 -0.5566 -1.0711
 7075TIP3   OH242715   6.003   0.299   1.343 -0.3967 -0.3763 -0.7295
 7075TIP3    H142716   5.998   0.275   1.436 -1.0822 -1.2365 -0.9883
 7075TIP3    H242717   5.995   0.216   1.296  1.5046 -0.1396 -1.5308
 7076TIP3   OH242718   5.625   0.602   1.598  0.3263  0.2041 -0.0419
 7076TIP3    H142719   5.661   0.513   1.593 -0.4181 -0.0332 -1.3801
 7076TIP3    H242720   5.535   0.593   1.566  0.5726  1.6407 -1.1777
 7077TIP3   OH242721   6.048   0.847   1.064  0.2091 -0.0943  0.4886
 7077TIP3    H142722   6.039   0.845   1.159  0.2247 -0.0336  0.4916
 7077TIP3    H242723   5.970   0.803   1.031  0.0946  0.0806  0.5238
 7078TIP3   OH242724   2.887   0.338   1.592  0.3981  0.0112  0.3202
 7078TIP3    H142725   2.862   0.412   1.537  1.3169  0.8091  0.9583
 7078TIP3    H242726   2.977   0.319   1.568  0.3666 -0.5039  0.5945
 7079TIP3   OH242727   2.664   3.909  11.555  0.5860 -0.0358  0.3758
 7079TIP3    H142728   2.610   3.947  11.625  1.4008  1.8881 -0.0090
 7079TIP3    H242729   2.725   3.851  11.600 -1.2362 -1.6258  0.8916
 7080TIP3   OH242730   6.426   1.350   3.640  0.6551  0.0833 -0.4991
 7080TIP3    H142731   6.466   1.267   3.614 -4.0077 -2.3462 -0.3552
 7080TIP3    H242732   6.396   1.389   3.558 -1.5134 -0.7978 -0.1572
 7081TIP3   OH242733   4.317   4.960  14.450  0.0109 -0.4957 -0.4588
 7081TIP3    H142734   4.232   4.930  14.483  0.6139 -0.0175  1.6624
 7081TIP3    H242735   4.299   5.043  14.407 -0.6498 -0.5912 -0.3711
 7082TIP3   OH242736   0.600   4.485  11.408 -0.0662 -0.2331 -0.3006
 7082TIP3    H142737   0.686   4.445  11.424 -0.4939 -1.0626 -0.1053
 7082TIP3    H242738   0.588   4.479  11.313  0.0639 -0.1572 -0.3232
 7083TIP3   OH242739   2.438   1.916   3.436 -0.5028 -0.0095  0.0451
 7083TIP3    H142740   2.471   1.927   3.347  0.2215 -1.6581  0.0804
 7083TIP3    H242741   2.511   1.942   3.492 -0.0480 -1.4055  0.1292
 7084TIP3   OH242742   6.652   1.102   0.000 -0.3675  0.3730  0.0998
 7084TIP3    H142743   6.621   1.012   0.004 -0.6850  0.4071 -1.4025
 7084TIP3    H242744   6.726   1.100  -0.060 -0.3663  1.1028  0.0627
 7085TIP3   OH242745   4.593   4.038  11.903  0.0597  0.2323  0.2601
 7085TIP3    H142746   4.632   3.963  11.858 -2.0427  0.1161 -1.4534
 7085TIP3    H242747   4.502   4.012  11.919 -0.9641  2.7424 -1.1612
 7086TIP3   OH242748   0.848   0.713  13.303  0.1960 -0.5522  0.3668
 7086TIP3    H142749   0.888   0.799  13.318  0.5111 -1.1821  3.3929
 7086TIP3    H242750   0.755   0.727  13.322  0.4269 -1.1265  1.9410
 7087TIP3   OH242751   2.188   6.666   0.190  0.5269  0.0167 -0.3202
 7087TIP3    H142752   2.232   6.732   0.136  0.3308 -0.4452 -1.0510
 7087TIP3    H242753   2.242   6.660   0.269  2.1748 -1.0627 -1.5050
 7088TIP3   OH242754   2.536   1.979   6.347 -0.5430 -0.4346  0.3707
 7088TIP3    H142755   2.547   1.913   6.278 -2.6654 -0.1079 -0.3172
 7088TIP3    H242756   2.524   1.927   6.427  0.2456 -0.8455  0.2260
 7089TIP3   OH242757   2.757   4.538  14.413 -0.3218 -0.5979  1.2753
 7089TIP3    H142758   2.686   4.474  14.412 -1.4037  0.5869 -0.4120
 7089TIP3    H242759   2.782   4.548  14.321 -2.0367  3.3666  1.1350
 7090TIP3   OH242760   6.549   1.056   5.216 -0.2412  0.1015 -0.1859
 7090TIP3    H142761   6.593   1.127   5.263 -0.4359  0.9723 -1.2946
 7090TIP3    H242762   6.617   0.989   5.205  0.8650  1.4549 -1.9216
 7091TIP3   OH242763   2.552   2.615   6.529 -0.1459 -0.7343 -0.2976
 7091TIP3    H142764   2.628   2.634   6.584 -1.5985  1.2849  1.0820
 7091TIP3    H242765   2.578   2.645   6.441  0.8016 -0.4538  0.0725
 7092TIP3   OH242766   1.316   6.288   3.259 -0.0986  0.1866 -0.3868
 7092TIP3    H142767   1.327   6.200   3.295  0.8968  0.3626 -0.2265
 7092TIP3    H242768   1.400   6.306   3.216 -0.4939  0.8429 -0.8886
 7093TIP3   OH242769   5.012   2.354   4.549  0.6539 -0.0413 -0.1687
 7093TIP3    H142770   4.991   2.433   4.499  0.1757  0.8000  1.3359
 7093TIP3    H242771   5.076   2.384   4.614  1.5217 -1.1976 -0.4722
 7094TIP3   OH242772   2.407   4.048   1.268 -0.2807  0.1521 -0.2321
 7094TIP3    H142773   2.440   4.013   1.185  0.2852  0.0277  0.0387
 7094TIP3    H242774   2.364   3.974   1.310  0.1701 -0.0008 -0.0393
 7095TIP3   OH242775   5.908   0.717  16.720  0.0842 -0.1440  0.5601
 7095TIP3    H142776   6.001   0.714  16.743  0.5540  1.5936 -0.9305
 7095TIP3    H242777   5.864   0.741  16.801  1.2681  1.9038  0.6274
 7096TIP3   OH242778   1.510   4.284   2.322  0.4485  0.1085  0.3109
 7096TIP3    H142779   1.465   4.299   2.406  0.6293 -1.3776  0.6814
 7096TIP3    H242780   1.593   4.332   2.331 -0.1101  1.0757  0.4500
 7097TIP3   OH242781   0.824   0.096  11.069  0.0393  0.1632  0.0405
 7097TIP3    H142782   0.908   0.139  11.087  0.0118  0.5497 -0.7107
 7097TIP3    H242783   0.848   0.006  11.045  0.2302  0.2238 -0.0007
 7098TIP3   OH242784   4.651   3.663   1.003 -0.5274  0.3753 -0.3164
 7098TIP3    H142785   4.568   3.628   1.035 -0.1581  0.2277  0.4745
 7098TIP3    H242786   4.673   3.606   0.929 -1.2841  0.6103 -0.7308
 7099TIP3   OH242787   4.769   1.003   1.902 -0.0052 -0.2407  0.1577
 7099TIP3    H142788   4.747   0.920   1.945 -1.7315  0.0938 -0.0458
 7099TIP3    H242789   4.764   0.984   1.809 -0.6069  0.1371  0.1099
 7100TIP3   OH242790   5.577   0.520  15.782 -0.2751  0.1779  0.2879
 7100TIP3    H142791   5.561   0.601  15.735 -1.3505 -0.1174  0.1135
 7100TIP3    H242792   5.610   0.547  15.867  1.4925  0.7180 -0.5550
 7101TIP3   OH242793   4.571   2.561  13.673  0.2147 -0.0419 -0.0376
 7101TIP3    H142794   4.520   2.490  13.710  1.3418 -0.9178 -0.1200
 7101TIP3    H242795   4.509   2.612  13.622 -0.4327 -1.5060 -0.7358
 7102TIP3   OH242796   4.578   0.596  11.514  0.4426 -0.5262  0.1486
 7102TIP3    H142797   4.623   0.598  11.599 -0.6000 -0.3814  0.7061
 7102TIP3    H242798   4.534   0.681  11.508  1.8831  0.1324 -1.2943
 7103TIP3   OH242799   5.975   4.601  13.705  0.3621  0.4516 -0.0294
 7103TIP3    H142800   6.002   4.510  13.700  0.6482  0.5037  0.5925
 7103TIP3    H242801   5.888   4.603  13.665 -0.7735 -0.5455  2.2995
 7104TIP3   OH242802   2.256   1.147   0.840 -0.0387 -0.6772  0.3723
 7104TIP3    H142803   2.298   1.082   0.784  1.4612 -0.3993  1.1464
 7104TIP3    H242804   2.162   1.135   0.826  0.3114 -1.1218 -1.6018
 7105TIP3   OH242805   1.999   3.941   4.404  0.6659 -0.4997  0.1345
 7105TIP3    H142806   1.968   3.853   4.429 -0.8299 -0.4094 -1.2981
 7105TIP3    H242807   2.001   3.990   4.487 -2.1328 -0.8201  0.4424
 7106TIP3   OH242808   3.633   0.055  17.160  0.0156 -0.1535 -0.1945
 7106TIP3    H142809   3.687  -0.020  17.134  2.8189  1.6174  0.3153
 7106TIP3    H242810   3.679   0.093  17.234 -2.6086  0.7437  1.0332
 7107TIP3   OH242811   6.218   5.023  11.855 -0.1471 -0.1026 -0.0974
 7107TIP3    H142812   6.142   5.047  11.803 -0.5314 -0.5157  0.2734
 7107TIP3    H242813   6.231   5.098  11.914 -0.1218  0.0706 -0.3238
 7108TIP3   OH242814   6.461   3.033   2.738  0.2805 -0.5873 -0.8069
 7108TIP3    H142815   6.552   3.064   2.735 -0.1316  0.5954 -1.2010
 7108TIP3    H242816   6.436   3.042   2.830  0.3657 -0.3343 -0.8084
 7109TIP3   OH242817   2.503   4.688   4.851 -0.0672 -0.7083 -0.2952
 7109TIP3    H142818   2.487   4.688   4.757 -0.8206 -1.2442 -0.1759
 7109TIP3    H242819   2.579   4.745   4.863 -0.6186  0.2145 -1.1118
 7110TIP3   OH242820   2.457   3.505  15.618 -0.1361  0.4360  0.1940
 7110TIP3    H142821   2.483   3.448  15.690  0.7193 -0.3806 -0.7465
 7110TIP3    H242822   2.527   3.571  15.613  0.6009 -0.4182 -0.8748
 7111TIP3   OH242823   1.746   1.586  11.541  0.4226  0.2122 -0.2856
 7111TIP3    H142824   1.784   1.582  11.453  2.0377  2.2552  0.2803
 7111TIP3    H242825   1.721   1.678  11.551 -0.3290 -0.1416  1.1735
 7112TIP3   OH242826   5.977   2.433   6.503 -0.1479 -0.4063 -0.2097
 7112TIP3    H142827   6.000   2.467   6.416  1.6674 -1.2926 -0.1060
 7112TIP3    H242828   5.977   2.338   6.492  0.2655 -0.5266  0.7933
 7113TIP3   OH242829   0.877   6.155   5.050  0.1401 -0.4422 -0.6975
 7113TIP3    H142830   0.843   6.123   4.966 -2.9475 -2.5271  1.2252
 7113TIP3    H242831   0.903   6.076   5.097 -1.0433  0.4077  1.4578
 7114TIP3   OH242832   3.256   4.802  10.607 -0.1614  0.0608  0.0570
 7114TIP3    H142833   3.217   4.889  10.620 -2.8519 -1.7627  5.6820
 7114TIP3    H242834   3.350   4.817  10.608 -0.5502  3.2007 -2.0914
 7115TIP3   OH242835   0.777   6.179   5.420  0.3527 -0.1654 -0.3064
 7115TIP3    H142836   0.833   6.160   5.345  0.3009 -0.0677 -0.3700
 7115TIP3    H242837   0.801   6.114   5.486  0.9622  0.2532 -0.1164
 7116TIP3   OH242838   0.853   3.569  16.093  0.4162 -0.0926 -0.0698
 7116TIP3    H142839   0.905   3.526  16.025 -0.8260  0.6915 -1.5271
 7116TIP3    H242840   0.765   3.574  16.057  0.3435  2.9141  0.3991
 7117TIP3   OH242841   5.876   2.204  13.545  0.0315 -0.5118 -0.0048
 7117TIP3    H142842   5.954   2.163  13.507  0.4980  0.1558  0.2087
 7117TIP3    H242843   5.814   2.132  13.555  1.1460 -1.3440  1.1693
 7118TIP3   OH242844   5.202   4.434  12.545  0.4031 -0.6892  0.2673
 7118TIP3    H142845   5.241   4.430  12.458  1.0482  0.3555  0.4965
 7118TIP3    H242846   5.276   4.433  12.605 -0.0096 -0.8064  0.7799
 7119TIP3   OH242847   0.960   2.206  14.523 -0.2345  0.1394  0.0882
 7119TIP3    H142848   0.943   2.272  14.590 -1.8313 -0.0640 -0.0948
 7119TIP3    H242849   1.037   2.159  14.555  0.6852  1.8450  0.3875
 7120TIP3   OH242850   4.554   3.059   3.366  0.1556 -0.3562  0.1815
 7120TIP3    H142851   4.564   2.966   3.389 -1.0286  0.5538  5.0056
 7120TIP3    H242852   4.644   3.093   3.368  0.2103 -0.4292  3.7346
 7121TIP3   OH242853   5.415   1.133   4.602  0.2627  0.1520  0.2480
 7121TIP3    H142854   5.412   1.210   4.658  0.7570 -0.4315  1.0823
 7121TIP3    H242855   5.485   1.078   4.638 -1.2011 -1.4675  0.7095
 7122TIP3   OH242856   3.409   6.330  13.925  0.0835 -0.3274 -0.4855
 7122TIP3    H142857   3.385   6.250  13.878  0.6954 -0.0281 -1.3268
 7122TIP3    H242858   3.481   6.367  13.873  0.2890  0.3837  0.3024
 7123TIP3   OH242859   1.648   3.522  12.175  0.2793 -0.8277  0.0316
 7123TIP3    H142860   1.614   3.581  12.108  1.6505  0.6587  0.5956
 7123TIP3    H242861   1.588   3.531  12.249  0.4119 -0.2349  0.0663
 7124TIP3   OH242862   3.536   3.450   1.883  0.0750  0.0659  0.0857
 7124TIP3    H142863   3.631   3.460   1.880 -0.0192  0.9750  0.0548
 7124TIP3    H242864   3.503   3.504   1.811 -0.5838  1.3394  1.3321
 7125TIP3   OH242865   0.166   5.904  16.108 -0.0277 -0.1611  0.4056
 7125TIP3    H142866   0.175   5.811  16.132  1.5366 -0.5811 -1.6701
 7125TIP3    H242867   0.092   5.905  16.047 -1.3667  0.2861  2.0087
 7126TIP3   OH242868   5.567   0.645  13.656 -0.3849 -0.1037 -0.0110
 7126TIP3    H142869   5.472   0.660  13.659 -0.7406 -2.2672  0.6747
 7126TIP3    H242870   5.579   0.563  13.704  1.5884 -1.0424 -2.0691
 7127TIP3   OH242871   4.150   4.908  16.118  0.1415 -0.0380 -0.2035
 7127TIP3    H142872   4.076   4.854  16.089  0.9825 -0.5395 -1.4398
 7127TIP3    H242873   4.121   4.998  16.103  0.2818 -0.2629 -1.9865
 7128TIP3   OH242874   0.085   3.509  15.153 -0.2961 -0.3080 -0.1878
 7128TIP3    H142875   0.004   3.561  15.150 -0.0833  0.2151  2.1851
 7128TIP3    H242876   0.069   3.437  15.092 -1.3846  1.4235 -2.0011
 7129TIP3   OH242877   2.648   0.724   3.824  0.4060  0.4525 -0.0383
 7129TIP3    H142878   2.703   0.752   3.898  0.1516  0.7803  0.0295
 7129TIP3    H242879   2.565   0.698   3.865  0.0369  1.2599 -0.2690
 7130TIP3   OH242880   2.499   0.088   2.245  0.2965 -0.3288 -0.0322
 7130TIP3    H142881   2.403   0.089   2.239  0.2258 -0.2322  0.9967
 7130TIP3    H242882   2.517   0.109   2.337  1.2783 -1.3018  0.0100
 7131TIP3   OH242883   3.768   3.784   4.689  0.6558 -0.5174 -0.0983
 7131TIP3    H142884   3.810   3.781   4.603 -1.2448 -3.4531 -1.0233
 7131TIP3    H242885   3.840   3.772   4.751  1.6719 -1.5987 -1.4404
 7132TIP3   OH242886   4.145   2.386   5.213 -0.0220 -0.3201  0.2366
 7132TIP3    H142887   4.205   2.460   5.228  0.0967 -0.3753  0.0271
 7132TIP3    H242888   4.180   2.342   5.136  0.6035 -1.3133  1.0774
 7133TIP3   OH242889   4.340   4.045  15.448  0.0398 -0.0378  0.5224
 7133TIP3    H142890   4.341   3.997  15.531  1.4753  0.2406  0.6763
 7133TIP3    H242891   4.404   4.115  15.459 -1.8905  1.8262  0.2178
 7134TIP3   OH242892   5.090   2.275  16.184 -0.4948 -0.0869  0.3452
 7134TIP3    H142893   5.128   2.190  16.161 -1.6869 -0.4415 -0.3731
 7134TIP3    H242894   5.104   2.282  16.278  3.1783  0.7451 -0.1958
 7135TIP3   OH242895   4.020   0.446  15.881  0.0422  0.0398  0.2572
 7135TIP3    H142896   4.075   0.381  15.926 -0.5629 -2.0315 -1.8945
 7135TIP3    H242897   4.066   0.465  15.800 -0.6621  0.9900  0.0761
 7136TIP3   OH242898   0.747   2.875  15.144 -1.2402  0.5980 -0.2297
 7136TIP3    H142899   0.663   2.902  15.183 -2.0864 -2.2217 -0.0036
 7136TIP3    H242900   0.754   2.782  15.165  1.7307  0.6889 -0.6919
 7137TIP3   OH242901   3.587   2.669   4.704  0.2830 -0.0508  0.6494
 7137TIP3    H142902   3.649   2.637   4.771  0.1253  0.4234  1.0250
 7137TIP3    H242903   3.560   2.590   4.657  1.0358 -0.2813  0.6061
 7138TIP3   OH242904   6.022   3.572  16.631 -0.2781 -0.1153  0.2359
 7138TIP3    H142905   6.007   3.562  16.725 -0.5587 -0.7816  0.1221
 7138TIP3    H242906   5.939   3.547  16.590 -0.6867  1.7130 -0.1181
 7139TIP3   OH242907   4.733   0.144  15.404 -0.1917  0.0952  0.0419
 7139TIP3    H142908   4.737   0.157  15.310  0.2737  0.1719  0.0731
 7139TIP3    H242909   4.647   0.103  15.419 -1.8828  3.4782  0.0148
 7140TIP3   OH242910   0.264   5.207  11.522  0.4824 -0.4422  0.3039
 7140TIP3    H142911   0.197   5.212  11.590  0.1430  2.1353 -0.1698
 7140TIP3    H242912   0.347   5.208  11.570  0.2229 -1.2037  0.7798
 7141TIP3   OH242913   1.739   1.598   4.920  0.6810 -0.5562  0.5677
 7141TIP3    H142914   1.799   1.524   4.923 -1.2541 -2.2219 -0.2537
 7141TIP3    H242915   1.706   1.607   5.009  1.1209 -0.5151  0.7252
 7142TIP3   OH242916   5.196   6.202   5.629 -0.0058 -0.0937 -0.3887
 7142TIP3    H142917   5.261   6.170   5.691 -1.4109 -1.0993  0.5859
 7142TIP3    H242918   5.161   6.281   5.668 -0.2942 -0.2697 -0.2880
 7143TIP3   OH242919   4.578   5.852   5.133 -0.7463 -0.2916 -0.2084
 7143TIP3    H142920   4.580   5.872   5.226  2.0395 -0.0372 -0.2756
 7143TIP3    H242921   4.600   5.759   5.128 -0.6005 -0.2367 -0.6312
 7144TIP3   OH242922   0.427   3.532   3.877  0.0797 -0.0427 -0.1412
 7144TIP3    H142923   0.483   3.580   3.816  2.1470  1.2008  2.6057
 7144TIP3    H242924   0.426   3.586   3.956 -2.3905 -1.6745  1.0125
 7145TIP3   OH242925   5.286   5.330  17.069 -0.4483  0.0928 -0.0351
 7145TIP3    H142926   5.332   5.412  17.054  0.6694 -0.4580  0.2730
 7145TIP3    H242927   5.211   5.332  17.009  0.4902  0.6120 -1.1984
 7146TIP3   OH242928   3.724   2.681  16.941 -0.2286  0.5201  0.4945
 7146TIP3    H142929   3.650   2.694  17.001 -0.2384  1.3731  0.2965
 7146TIP3    H242930   3.800   2.715  16.988  0.1201 -0.7180  0.8581
 7147TIP3   OH242931   3.394   3.390  14.988  0.3295  0.2714  0.0156
 7147TIP3    H142932   3.298   3.388  14.981  0.3753  0.9179 -0.9629
 7147TIP3    H242933   3.414   3.330  15.060 -0.8974  1.0991  1.0789
 7148TIP3   OH242934   0.584   5.372  10.646  0.1375  0.5188 -0.0133
 7148TIP3    H142935   0.519   5.438  10.669 -0.3623 -0.2899  0.9076
 7148TIP3    H242936   0.656   5.422  10.607 -0.5633  1.5244 -0.0229
 7149TIP3   OH242937   1.451   6.037  15.104 -0.5852 -0.4691  0.2192
 7149TIP3    H142938   1.426   6.080  15.022  1.7299  1.2768  0.4068
 7149TIP3    H242939   1.374   6.047  15.160 -1.3191  0.4392 -0.9166
 7150TIP3   OH242940   3.171   5.843   0.118 -0.2067  0.1041 -0.0922
 7150TIP3    H142941   3.203   5.774   0.176  2.7255  0.6323 -1.0398
 7150TIP3    H242942   3.187   5.924   0.167 -0.3022  0.3636 -0.4925
 7151TIP3   OH242943   0.371   5.254  15.444  0.5391 -0.0069  0.0402
 7151TIP3    H142944   0.367   5.183  15.508 -0.8490  0.7327  0.7764
 7151TIP3    H242945   0.463   5.281  15.445  0.7413 -0.6869  0.9644
 7152TIP3   OH242946   2.741   3.400  14.524 -0.0872 -0.3731  0.1316
 7152TIP3    H142947   2.668   3.339  14.516 -0.4442  0.2362 -1.4876
 7152TIP3    H242948   2.800   3.376  14.453  2.0194 -1.7800  2.2898
 7153TIP3   OH242949   6.701   4.887  14.626  0.2311  0.6255  0.0968
 7153TIP3    H142950   6.687   4.911  14.718  0.8178  2.8706 -0.3704
 7153TIP3    H242951   6.636   4.938  14.578  1.4968  1.2816 -0.9405
 7154TIP3   OH242952   1.489   0.010   6.447  0.5039  0.1461  0.2547
 7154TIP3    H142953   1.453  -0.071   6.484  2.9939 -0.3434  1.7169
 7154TIP3    H242954   1.553  -0.020   6.383  0.9266  0.9672  0.2917
 7155TIP3   OH242955   0.277   3.802  12.022 -0.5489 -0.2835 -0.0984
 7155TIP3    H142956   0.230   3.743  11.964 -0.5372 -0.3151 -0.0753
 7155TIP3    H242957   0.224   3.881  12.024  1.1775  1.0210 -2.9008
 7156TIP3   OH242958   3.723   1.614   0.244  0.0309  0.0984  0.3142
 7156TIP3    H142959   3.719   1.608   0.339  0.5083  0.9977  0.3917
 7156TIP3    H242960   3.674   1.537   0.213 -0.5912  0.1078  1.2739
 7157TIP3   OH242961   1.094   0.514   5.152 -0.0159  0.2142  0.5312
 7157TIP3    H142962   1.146   0.587   5.186  0.4736  0.7510 -1.3510
 7157TIP3    H242963   1.131   0.495   5.066 -3.2840  1.0333 -1.1386
 7158TIP3   OH242964   5.162   0.799   0.178  0.3270 -0.1731  0.2933
 7158TIP3    H142965   5.143   0.705   0.176  0.8896 -0.3123  1.2724
 7158TIP3    H242966   5.242   0.809   0.127  0.5437 -0.2916  0.6114
 7159TIP3   OH242967   0.741   4.354   1.986  0.0596  0.3184  0.6699
 7159TIP3    H142968   0.721   4.264   1.961 -0.0424  0.6040 -0.2819
 7159TIP3    H242969   0.817   4.347   2.044  0.3308 -0.3463  0.2339
 7160TIP3   OH242970   0.253   2.439  12.168  0.0920  0.1564  0.9962
 7160TIP3    H142971   0.271   2.345  12.169 -1.2686 -0.1143  1.8906
 7160TIP3    H242972   0.164   2.447  12.203 -0.9370  1.5460 -1.7598
 7161TIP3   OH242973   0.877   2.892   5.989 -0.0597 -0.1580  0.0052
 7161TIP3    H142974   0.906   2.976   6.026 -1.9318 -0.1927  1.6020
 7161TIP3    H242975   0.896   2.828   6.058 -0.3425 -0.7662 -0.4791
 7162TIP3   OH242976   2.792   1.388  17.051  0.1384  0.4094  0.0787
 7162TIP3    H142977   2.834   1.318  17.000  0.7009  0.1982  0.8200
 7162TIP3    H242978   2.860   1.455  17.059 -0.1442  0.6988  0.0385
 7163TIP3   OH242979   0.422   1.130   3.674  0.5265 -0.0579  0.4499
 7163TIP3    H142980   0.422   1.036   3.653 -0.9576 -0.3875  1.8786
 7163TIP3    H242981   0.335   1.161   3.649  0.7196  0.7627  0.7642
 7164TIP3   OH242982   5.596   5.033   0.586 -0.1169 -0.3293  0.4629
 7164TIP3    H142983   5.643   4.954   0.611 -0.2853 -0.2952  0.8878
 7164TIP3    H242984   5.664   5.101   0.582 -0.1006 -0.3224  0.8837
 7165TIP3   OH242985   5.703   4.716  11.660  0.3498  0.1080 -0.5849
 7165TIP3    H142986   5.771   4.722  11.592  2.4027 -2.7625  1.1009
 7165TIP3    H242987   5.628   4.679  11.614  1.5340 -1.2750 -1.4805
 7166TIP3   OH242988   2.048   1.692  13.737  0.1856  0.4323 -0.0190
 7166TIP3    H142989   2.124   1.637  13.716  0.2568 -0.9253  3.4476
 7166TIP3    H242990   2.075   1.743  13.813 -2.0314  0.6239  0.6835
 7167TIP3   OH242991   1.668   1.319   3.529 -0.5133 -0.3817  0.1297
 7167TIP3    H142992   1.653   1.297   3.437  0.0902 -2.2495  0.4435
 7167TIP3    H242993   1.723   1.248   3.561  1.5846  1.7151  1.2464
 7168TIP3   OH242994   1.026   5.064   4.980 -0.2132 -0.0501  0.5325
 7168TIP3    H142995   1.085   5.138   4.965 -0.4203 -0.4024 -2.2224
 7168TIP3    H242996   1.082   4.997   5.020  0.8087  0.2888 -0.3176
 7169TIP3   OH242997   2.615   6.451  15.446  0.2943 -0.0349 -0.8469
 7169TIP3    H142998   2.675   6.457  15.373 -1.2842  0.5089 -2.1263
 7169TIP3    H242999   2.593   6.542  15.467 -0.6371 -0.2496 -0.8630
 7170TIP3   OH243000   3.972   3.430   1.493 -0.2107 -0.5078  0.9330
 7170TIP3    H143001   3.976   3.345   1.536  0.2261 -0.1198  1.6621
 7170TIP3    H243002   4.035   3.484   1.540 -1.3095  0.5533  1.2108
 7171TIP3   OH243003   1.941   2.789   2.340 -0.2546  0.0814 -0.4991
 7171TIP3    H143004   2.026   2.750   2.361 -0.0949  1.2161  1.0412
 7171TIP3    H243005   1.877   2.731   2.383 -0.2766 -0.8066 -1.7106
 7172TIP3   OH243006   3.566   0.253  11.861 -0.0952  0.6609  0.1345
 7172TIP3    H143007   3.548   0.219  11.949  2.6659  0.1064  0.5437
 7172TIP3    H243008   3.580   0.175  11.808 -0.0458  1.0395 -0.4087
 7173TIP3   OH243009   3.202   0.066   1.876  0.1131 -0.9639 -0.3713
 7173TIP3    H143010   3.252  -0.015   1.889  0.3756 -0.6283  0.7274
 7173TIP3    H243011   3.142   0.069   1.950  1.2531  0.6916  0.5243
 7174TIP3   OH243012   1.875   3.275   5.040  0.0493 -0.1210 -0.7332
 7174TIP3    H143013   1.898   3.184   5.019 -0.4185 -0.8152  1.5711
 7174TIP3    H243014   1.896   3.283   5.134 -3.8589  0.8877  0.1201
 7175TIP3   OH243015   3.943   0.377   2.835  0.3707 -0.1313 -0.3974
 7175TIP3    H143016   3.896   0.365   2.918 -0.3141 -1.2753 -0.9437
 7175TIP3    H243017   4.033   0.396   2.861  0.0067  0.2356  0.6220
 7176TIP3   OH243018   0.278   6.539  14.089  0.3058  0.5999  0.5168
 7176TIP3    H143019   0.289   6.634  14.096 -2.4094  1.0107 -0.3805
 7176TIP3    H243020   0.191   6.528  14.052  0.9601 -2.2389 -0.2442
 7177TIP3   OH243021   0.240   2.405  15.636  0.1079  0.1148  0.4081
 7177TIP3    H143022   0.255   2.313  15.659 -0.0799  0.3238  1.4014
 7177TIP3    H243023   0.191   2.440  15.711  1.6788  1.4700  0.8189
 7178TIP3   OH243024   5.235   4.333   3.487 -0.0212  0.0563 -0.1436
 7178TIP3    H143025   5.193   4.362   3.407  0.0559  0.8543  0.1019
 7178TIP3    H243026   5.190   4.381   3.557  1.7533  1.4535  0.0750
 7179TIP3   OH243027   3.556   0.467   0.863  0.1424 -0.1681 -0.2343
 7179TIP3    H143028   3.640   0.499   0.830  0.5055 -0.5292  0.3350
 7179TIP3    H243029   3.559   0.372   0.850  0.2052 -0.2919  0.6461
 7180TIP3   OH243030   0.399   4.468  14.691 -0.4717  0.1061 -0.2396
 7180TIP3    H143031   0.429   4.485  14.602 -1.5199 -0.9862 -0.8121
 7180TIP3    H243032   0.312   4.429  14.681 -0.0090 -1.3745  1.1857
 7181TIP3   OH243033   4.911   0.063  15.049 -0.0699  0.0112 -0.3368
 7181TIP3    H143034   4.928   0.064  15.143  0.6550  0.1446 -0.4619
 7181TIP3    H243035   4.875   0.150  15.030 -1.0566 -0.3291 -0.0381
 7182TIP3   OH243036   1.410   5.489   0.378 -0.2658  0.3091  0.3932
 7182TIP3    H143037   1.367   5.551   0.437 -0.8672  0.8920 -0.6420
 7182TIP3    H243038   1.363   5.407   0.390  0.5527  0.0285  1.7922
 7183TIP3   OH243039   4.677   0.049  17.024 -0.5500 -0.9567 -0.0032
 7183TIP3    H143040   4.752   0.041  17.083 -0.1628 -0.8540 -0.4821
 7183TIP3    H243041   4.629  -0.033  17.035  0.2625 -1.5082 -0.5646
 7184TIP3   OH243042   0.307   5.198  11.968  0.3756 -1.0846 -0.1751
 7184TIP3    H143043   0.250   5.168  12.038  1.9209 -1.8094  0.8020
 7184TIP3    H243044   0.252   5.195  11.890 -1.9510  1.6425  1.2952
 7185TIP3   OH243045   1.490   6.519   2.650  0.3316 -0.0883  0.3683
 7185TIP3    H143046   1.528   6.534   2.737 -1.4416 -1.3194  1.3939
 7185TIP3    H243047   1.421   6.584   2.642  1.3260  0.8615 -0.6742
 7186TIP3   OH243048   3.491   1.117  16.266 -0.0375 -0.0495  0.2222
 7186TIP3    H143049   3.579   1.131  16.232 -0.7186 -1.3057 -2.1982
 7186TIP3    H243050   3.501   1.048  16.331  0.7147 -0.5333 -0.3949
 7187TIP3   OH243051   3.729   4.805  16.528 -0.3486  0.2824  0.3712
 7187TIP3    H143052   3.745   4.740  16.459 -0.8754  0.8159 -0.2651
 7187TIP3    H243053   3.640   4.836  16.511 -0.7636 -0.1206  1.7494
 7188TIP3   OH243054   4.834   1.042   5.916 -0.3598 -0.6563  1.2578
 7188TIP3    H143055   4.923   1.009   5.922 -0.9141 -2.1531  1.3530
 7188TIP3    H243056   4.812   1.036   5.823  0.0819  0.9250  1.0357
 7189TIP3   OH243057   2.204   2.068   2.000  0.2278 -0.1310  0.2097
 7189TIP3    H143058   2.129   2.095   1.947 -0.6516  0.0966  1.5354
 7189TIP3    H243059   2.260   2.145   2.004 -0.5216  0.3775  0.9951
 7190TIP3   OH243060   5.045   0.693  15.284 -0.2834 -0.1838 -0.6280
 7190TIP3    H143061   5.122   0.720  15.233  0.6939  0.7355  1.3051
 7190TIP3    H243062   4.998   0.774  15.301 -0.5919 -0.4920 -0.0321
 7191TIP3   OH243063   0.321   3.174   2.911  0.4727 -0.2977 -0.0649
 7191TIP3    H143064   0.257   3.120   2.958  1.3701 -0.4287  1.0356
 7191TIP3    H243065   0.270   3.219   2.844 -0.7458 -0.5397  0.6817
 7192TIP3   OH243066   4.653   5.065   3.745  0.1813  0.0892 -0.1561
 7192TIP3    H143067   4.680   5.156   3.731 -0.5839  0.6001  1.5783
 7192TIP3    H243068   4.608   5.066   3.829 -0.6130 -1.7389 -0.5353
 7193TIP3   OH243069   4.189   2.124  15.676  0.6680 -0.4075  0.2104
 7193TIP3    H143070   4.267   2.150  15.627  0.1788  1.2311  0.2868
 7193TIP3    H243071   4.167   2.037  15.642  1.0987  0.1511 -1.5245
 7194TIP3   OH243072   5.163   4.274  14.219  0.0506 -0.1546 -0.1743
 7194TIP3    H143073   5.188   4.189  14.184 -1.1368 -0.9989  0.9688
 7194TIP3    H243074   5.132   4.323  14.143 -0.6416 -1.2679 -0.6226
 7195TIP3   OH243075   4.894   2.948   3.483 -0.1244  0.0511  0.2099
 7195TIP3    H143076   4.892   3.015   3.415 -0.7758  0.4517  0.6251
 7195TIP3    H243077   4.802   2.929   3.501  0.0612 -1.2625 -0.2057
 7196TIP3   OH243078   1.995   4.535  13.013 -0.7678  0.1166  0.1452
 7196TIP3    H143079   2.041   4.584  12.945 -2.2134  0.5416 -0.5489
 7196TIP3    H243080   1.998   4.592  13.090  0.0770  0.0226  0.1959
 7197TIP3   OH243081   5.504   6.404  12.895  0.5823  0.0697  0.2250
 7197TIP3    H143082   5.591   6.426  12.864 -0.2423  1.5572 -1.1458
 7197TIP3    H243083   5.517   6.374  12.984  2.6789 -1.3875 -0.5470
 7198TIP3   OH243084   4.724   4.207  10.495  0.0137  0.2896  0.6666
 7198TIP3    H143085   4.782   4.215  10.570 -1.7035  1.1785  1.9232
 7198TIP3    H243086   4.739   4.286  10.443 -0.4186  0.7662  1.2568
 7199TIP3   OH243087   0.852   3.972  11.548  0.3260  0.0063 -0.0071
 7199TIP3    H143088   0.846   3.877  11.563 -0.2854 -0.0810 -0.7835
 7199TIP3    H243089   0.840   4.010  11.635  2.5938 -0.6865  0.6489
 7200TIP3   OH243090   5.507   5.048   5.151  0.4022  0.3225 -0.1924
 7200TIP3    H143091   5.561   5.108   5.099  0.8645  1.4484  1.5286
 7200TIP3    H243092   5.569   4.985   5.188 -0.0234 -0.9474 -1.6060
 7201TIP3   OH243093   6.315   5.097  13.482  0.2456 -0.1353 -0.4731
 7201TIP3    H143094   6.403   5.061  13.495  0.5688  0.4421 -0.9910
 7201TIP3    H243095   6.286   5.121  13.569  1.2146  1.0414 -0.4529
 7202TIP3   OH243096   4.038   1.705  11.630  0.1180  0.1272  0.1478
 7202TIP3    H143097   4.108   1.752  11.586  0.3154  1.0056  1.3614
 7202TIP3    H243098   4.068   1.615  11.634  0.3372  0.1412 -1.0022
 7203TIP3   OH243099   4.018   5.881   2.846  0.0520 -0.5777  0.6875
 7203TIP3    H143100   3.935   5.852   2.809  0.7956 -0.9385 -0.7102
 7203TIP3    H243101   3.993   5.942   2.915 -1.3693 -0.5505  0.1606
 7204TIP3   OH243102   4.998   3.569   1.368  0.1819 -0.0219  0.0757
 7204TIP3    H143103   5.055   3.563   1.291  0.4385  0.0190  0.2606
 7204TIP3    H243104   4.913   3.596   1.333  0.4256  0.4766 -0.1367
 7205TIP3   OH243105   0.019   2.045   3.252 -0.1195 -0.3934  0.0934
 7205TIP3    H143106  -0.063   2.072   3.211  0.1547 -0.4988 -0.5240
 7205TIP3    H243107   0.087   2.085   3.199  0.2302 -0.0470  0.7899
 7206TIP3   OH243108   5.322   3.394  12.301 -0.6019 -0.1232  0.4891
 7206TIP3    H143109   5.379   3.323  12.329 -2.0066 -2.1847 -1.6930
 7206TIP3    H243110   5.358   3.423  12.217 -0.8007  0.8620  0.7314
 7207TIP3   OH243111   0.854   0.860  15.549 -0.2757 -0.5637  0.4394
 7207TIP3    H143112   0.879   0.769  15.533 -1.3523 -0.8628  0.4321
 7207TIP3    H243113   0.836   0.863  15.643 -0.2936 -0.3730  0.4294
 7208TIP3   OH243114   5.213   1.203  11.152  0.2144 -0.2071  0.0480
 7208TIP3    H143115   5.287   1.174  11.098 -0.5570 -0.2895 -0.9579
 7208TIP3    H243116   5.180   1.282  11.109  0.0073  0.1102  0.7699
 7209TIP3   OH243117   1.869   0.020  15.149  0.0373  0.7040 -0.7619
 7209TIP3    H143118   1.936  -0.008  15.086  0.7603 -0.3998  0.4833
 7209TIP3    H243119   1.817   0.084  15.100 -0.7326 -1.6720 -3.1727
 7210TIP3   OH243120   2.193   4.635   3.970  0.0009  0.4855 -0.2609
 7210TIP3    H143121   2.140   4.629   3.891 -2.6469  1.9436  1.3418
 7210TIP3    H243122   2.137   4.599   4.039  1.6764  0.6845  1.2347
 7211TIP3   OH243123   3.563   4.784   2.344 -0.3266  0.0249 -0.2970
 7211TIP3    H143124   3.564   4.792   2.249 -0.0417 -1.0573 -0.3984
 7211TIP3    H243125   3.492   4.722   2.362  0.8031 -1.2103  0.0502
 7212TIP3   OH243126   6.791   2.245   5.190 -0.1817  0.3627  0.0980
 7212TIP3    H143127   6.760   2.324   5.234 -0.4248 -0.1477  0.8450
 7212TIP3    H243128   6.745   2.173   5.234 -0.2627 -0.1676 -0.8402
 7213TIP3   OH243129   2.986   1.817  11.371  0.1558 -0.1001 -0.2030
 7213TIP3    H143130   2.907   1.807  11.424 -0.2588 -0.1243 -0.8150
 7213TIP3    H243131   3.055   1.837  11.434 -0.3228 -0.1599  0.3468
 7214TIP3   OH243132   4.699   5.188  11.124  0.4873 -0.2609 -0.7052
 7214TIP3    H143133   4.781   5.151  11.091  0.2389 -2.7846  1.3118
 7214TIP3    H243134   4.633   5.156  11.063  0.7080 -0.2681 -0.9421
 7215TIP3   OH243135   5.799   5.436  10.784  0.0456  0.3308  0.2975
 7215TIP3    H143136   5.789   5.344  10.806  1.8043  0.0555  0.0384
 7215TIP3    H243137   5.713   5.462  10.749 -0.9241 -0.7793  1.8044
 7216TIP3   OH243138   6.385   1.728  14.878 -0.7290  0.0278 -0.0862
 7216TIP3    H143139   6.369   1.792  14.810 -0.3665  0.9112  0.6534
 7216TIP3    H243140   6.361   1.644  14.838 -0.9207  0.5809 -1.1463
 7217TIP3   OH243141   5.402   3.845  14.434 -0.8467 -0.7482 -0.5795
 7217TIP3    H143142   5.405   3.866  14.341  1.9016  0.3126 -0.2860
 7217TIP3    H243143   5.311   3.819  14.450 -1.5875  0.0351 -3.3297
 7218TIP3   OH243144   0.981   3.461   0.267  0.5369 -0.0258 -0.2504
 7218TIP3    H143145   1.037   3.433   0.195  0.4604 -0.5141 -0.1220
 7218TIP3    H243146   1.033   3.526   0.314  0.9422 -0.3724 -0.2164
 7219TIP3   OH243147   4.733   6.292   2.294 -0.1637 -0.2937  0.1460
 7219TIP3    H143148   4.764   6.283   2.204  0.9558  0.1241  0.4723
 7219TIP3    H243149   4.681   6.372   2.294 -0.1633 -0.2953 -0.1365
 7220TIP3   OH243150   2.099   4.369  11.981  0.6445  0.0173 -0.2329
 7220TIP3    H143151   2.169   4.384  12.044  0.4831  0.3301 -0.1270
 7220TIP3    H243152   2.138   4.313  11.914  0.8921 -0.1014  0.0087
 7221TIP3   OH243153   6.491   1.141   3.482  0.2451 -0.3651  0.5104
 7221TIP3    H143154   6.519   1.052   3.505  3.3018  0.7637  1.4764
 7221TIP3    H243155   6.548   1.166   3.409  0.2714  1.2228  1.0549
 7222TIP3   OH243156   3.013   1.632  15.779  0.1070 -0.2480  0.0132
 7222TIP3    H143157   3.061   1.715  15.781 -0.3598  0.0173  0.5070
 7222TIP3    H243158   2.923   1.656  15.801 -0.2589 -0.7377 -0.9573
 7223TIP3   OH243159   6.651   1.980   3.958 -0.5142 -0.0930  0.2176
 7223TIP3    H143160   6.688   1.957   4.043  1.2237 -2.3896 -1.0934
 7223TIP3    H243161   6.720   1.959   3.895 -2.2916  0.1382 -1.8882
 7224TIP3   OH243162   6.793   2.611   4.300 -0.3104 -0.4693  0.0694
 7224TIP3    H143163   6.861   2.629   4.365 -0.3754  1.9770 -0.4871
 7224TIP3    H243164   6.724   2.674   4.318 -0.7747 -0.4217 -1.7065
 7225TIP3   OH243165   0.539   4.424   2.314 -0.2327  0.3101 -0.1409
 7225TIP3    H143166   0.566   4.361   2.381 -0.5791 -0.3440 -0.6142
 7225TIP3    H243167   0.622   4.453   2.275 -0.0561  0.3442  0.2579
 7226TIP3   OH243168   6.019   1.124  13.890  0.7305  0.7092  0.4057
 7226TIP3    H143169   6.062   1.210  13.895  0.2730  0.8904  1.2057
 7226TIP3    H243170   5.968   1.118  13.971 -1.3772  0.8281 -0.8826
 7227TIP3   OH243171   6.707   0.997   1.041  0.2766 -0.1275  0.4150
 7227TIP3    H143172   6.652   1.051   0.984  2.4301  0.9360 -0.6987
 7227TIP3    H243173   6.754   0.939   0.982  0.2575 -1.1408  1.3774
 7228TIP3   OH243174   5.199   3.641   5.985  0.5229  0.0687  0.0450
 7228TIP3    H143175   5.125   3.611   5.933  0.6370 -1.6251  0.8306
 7228TIP3    H243176   5.179   3.733   6.004 -0.2211  0.2894 -1.7243
 7229TIP3   OH243177   6.101   1.718   2.052  0.5746  0.1023  0.1077
 7229TIP3    H143178   6.124   1.773   1.978 -2.8052 -0.0156 -1.1147
 7229TIP3    H243179   6.155   1.640   2.042  0.6266  0.3772 -1.8635
 7230TIP3   OH243180   4.854   0.796  14.596  0.1649  0.3428 -0.4340
 7230TIP3    H143181   4.898   0.793  14.681  1.1338 -0.1248 -0.9509
 7230TIP3    H243182   4.761   0.793  14.618  0.3822  0.9785  0.6468
 7231TIP3   OH243183   4.064   2.783  12.517  0.0657 -0.4027 -0.1530
 7231TIP3    H143184   4.125   2.802  12.445  0.0084  2.2766  0.4405
 7231TIP3    H243185   4.006   2.716  12.482  0.1307  0.7355 -2.6065
 7232TIP3   OH243186   1.096   1.155   4.237 -0.1192 -0.3984 -0.4906
 7232TIP3    H143187   1.085   1.183   4.328 -3.7409  0.9366 -1.2729
 7232TIP3    H243188   1.131   1.066   4.244  0.7039  0.0714  2.1732
 7233TIP3   OH243189   3.027   2.219   4.438 -0.1613 -0.0897  0.1313
 7233TIP3    H143190   3.013   2.127   4.459 -0.6504 -0.3657 -1.3219
 7233TIP3    H243191   2.953   2.265   4.478 -0.3678 -0.4360  0.1417
 7234TIP3   OH243192   1.004   0.071  12.130  0.1734 -0.0036  0.2551
 7234TIP3    H143193   1.085   0.089  12.177 -0.0359 -1.8514  1.3827
 7234TIP3    H243194   1.016  -0.016  12.093 -0.3680  0.6943 -1.6417
 7235TIP3   OH243195   2.149   3.866   3.044 -0.4736 -0.5871  0.6882
 7235TIP3    H143196   2.077   3.835   2.990 -0.4675  2.0765 -0.9739
 7235TIP3    H243197   2.111   3.881   3.130 -1.8186  0.3939 -0.0660
 7236TIP3   OH243198   6.059   6.747  11.344 -0.5935  0.3204 -0.5496
 7236TIP3    H143199   6.073   6.827  11.294  0.1376  0.8069  0.4142
 7236TIP3    H243200   6.092   6.677  11.288  2.0628  1.0603  0.0598
 7237TIP3   OH243201   5.821   3.626  14.738  0.3033  0.1500 -0.6711
 7237TIP3    H143202   5.774   3.545  14.757  0.0399 -0.0886 -2.2140
 7237TIP3    H243203   5.764   3.673  14.677  1.4778  0.4327 -1.5838
 7238TIP3   OH243204   5.931   2.132  14.226 -0.4922 -0.1944  0.4609
 7238TIP3    H143205   5.961   2.167  14.142 -0.0847 -0.0873  0.6461
 7238TIP3    H243206   6.011   2.127  14.279 -1.2480  3.3523  2.1286
 7239TIP3   OH243207   5.056   6.375  15.392 -0.2785  0.3224 -0.0684
 7239TIP3    H143208   5.142   6.397  15.427 -0.7971  0.1071  1.4045
 7239TIP3    H243209   5.074   6.325  15.312  0.9904 -1.0780  1.0518
 7240TIP3   OH243210   0.139   0.724  13.535  0.0157  0.4392  0.8400
 7240TIP3    H143211   0.159   0.804  13.486 -1.9852  0.0721 -0.6238
 7240TIP3    H243212   0.108   0.756  13.620 -0.1083  1.2038  0.5140
 7241TIP3   OH243213   4.134   0.182   5.833  0.4120 -0.0504  0.1022
 7241TIP3    H143214   4.208   0.175   5.773  1.1083 -0.4814  1.0014
 7241TIP3    H243215   4.173   0.183   5.920 -0.7361 -1.7634  0.6571
 7242TIP3   OH243216   5.417   2.378   2.666 -0.1901  0.1283  0.3758
 7242TIP3    H143217   5.387   2.316   2.732 -1.0353  1.0729  0.8894
 7242TIP3    H243218   5.512   2.366   2.664 -0.3727 -1.3929  0.2424
 7243TIP3   OH243219   2.481   4.850   1.325  0.2354  0.2734  0.2080
 7243TIP3    H143220   2.487   4.929   1.270  1.3795  0.7890  1.0510
 7243TIP3    H243221   2.399   4.808   1.298  0.6293  0.6751 -1.6754
 7244TIP3   OH243222   3.279   0.910   5.185  0.2209  0.1109 -0.3361
 7244TIP3    H143223   3.325   0.835   5.223  0.5968  0.7654  0.5108
 7244TIP3    H243224   3.188   0.880   5.177  0.7423 -1.1432 -1.8996
 7245TIP3   OH243225   4.091   2.406   3.705 -0.4741  0.5105  0.6497
 7245TIP3    H143226   4.037   2.335   3.670  1.4920 -1.3343  1.2263
 7245TIP3    H243227   4.074   2.480   3.647 -2.0061 -0.6378 -0.4136
 7246TIP3   OH243228   4.818   1.908  15.805 -0.1243 -0.5893  0.6655
 7246TIP3    H143229   4.854   1.967  15.738 -1.2279 -1.1064 -0.4149
 7246TIP3    H243230   4.894   1.871  15.849  0.7844 -3.3912 -3.0403
 7247TIP3   OH243231   6.538   1.485   2.518  0.2884 -0.0978  0.0110
 7247TIP3    H143232   6.491   1.413   2.560 -0.5314  1.2509  1.4701
 7247TIP3    H243233   6.544   1.460   2.426 -0.1659 -1.9215  0.4605
 7248TIP3   OH243234   2.176   0.960  14.139 -0.4468  0.1715 -0.0103
 7248TIP3    H143235   2.263   0.945  14.103 -0.6843  0.7577 -0.8378
 7248TIP3    H243236   2.151   1.046  14.106 -1.1202  0.2396  0.6625
 7249TIP3   OH243237   2.238   0.125   1.165  0.1397  0.2832  1.0351
 7249TIP3    H143238   2.151   0.084   1.161  1.1796 -2.0883  1.4557
 7249TIP3    H243239   2.240   0.186   1.091 -0.8093 -1.8942 -0.8478
 7250TIP3   OH243240   4.261   2.040   5.997  0.1627 -0.0608  0.2930
 7250TIP3    H143241   4.243   2.012   6.087  0.7472  0.1805  0.4856
 7250TIP3    H243242   4.189   2.099   5.975  1.0135  1.3851  1.2816
 7251TIP3   OH243243   1.608   3.847  12.746  0.7332 -0.2289  0.5308
 7251TIP3    H143244   1.619   3.769  12.800  0.1646 -0.0095  0.9586
 7251TIP3    H243245   1.647   3.918  12.797 -0.4614  0.1101  0.9829
 7252TIP3   OH243246   1.547   2.435  14.655  0.0151 -0.5115  0.5200
 7252TIP3    H143247   1.531   2.380  14.579  2.3863 -1.9999  1.0690
 7252TIP3    H243248   1.607   2.503  14.624 -1.4417  0.7324  0.3222
 7253TIP3   OH243249   1.513   6.346   0.107  0.8343 -0.2231 -0.1155
 7253TIP3    H143250   1.509   6.332   0.013 -1.4648  1.2485 -0.2710
 7253TIP3    H243251   1.545   6.435   0.117 -1.6703  0.6574  0.3899
 7254TIP3   OH243252   4.591   5.005  11.358 -0.1926  0.0725 -0.3946
 7254TIP3    H143253   4.662   5.044  11.307 -0.6693 -0.9136 -1.8511
 7254TIP3    H243254   4.566   5.073  11.421  1.3896  0.7654 -0.5018
 7255TIP3   OH243255   1.282   4.030  14.352 -0.7356 -0.2118  0.0860
 7255TIP3    H143256   1.216   4.096  14.331 -0.3478 -1.0428 -4.3137
 7255TIP3    H243257   1.335   4.023  14.272  2.8051 -1.7589  2.4444
 7256TIP3   OH243258   4.003   6.545   4.178  0.2852 -0.8971  0.7388
 7256TIP3    H143259   4.087   6.581   4.149  0.1995  0.0223  1.6502
 7256TIP3    H243260   3.974   6.602   4.249 -1.1121 -1.2191  0.4480
 7257TIP3   OH243261   1.461   5.548   4.306 -0.5161 -0.4328  0.4694
 7257TIP3    H143262   1.422   5.534   4.220  0.5417 -0.5086 -0.0170
 7257TIP3    H243263   1.467   5.643   4.315 -1.2927 -0.4156  0.7650
 7258TIP3   OH243264   0.350   6.513   5.901  0.4376 -0.6079 -0.2672
 7258TIP3    H143265   0.273   6.472   5.942 -0.6924  1.9419  0.2310
 7258TIP3    H243266   0.319   6.541   5.815  0.2497  2.0195  0.6095
 7259TIP3   OH243267   0.586   3.629   5.400 -0.0382  0.1878  0.1478
 7259TIP3    H143268   0.579   3.598   5.490  1.7370 -2.1293 -0.4772
 7259TIP3    H243269   0.496   3.634   5.369 -0.5188 -1.3385  1.2810
 7260TIP3   OH243270   5.155   0.613   4.184 -0.6707  0.0390  0.4399
 7260TIP3    H143271   5.162   0.531   4.134  1.1887  0.8150 -0.6090
 7260TIP3    H243272   5.140   0.585   4.274 -3.5799 -1.4013 -0.4275
 7261TIP3   OH243273   6.313   6.443   0.663 -0.4354  0.3532  0.4838
 7261TIP3    H143274   6.283   6.423   0.574  0.4234  0.1526  0.2418
 7261TIP3    H243275   6.295   6.363   0.713  1.2346 -0.3612 -0.0447
 7262TIP3   OH243276   1.765   4.544  10.830 -0.1828 -0.2615 -0.6503
 7262TIP3    H143277   1.792   4.469  10.883  1.7231 -2.6529 -4.7197
 7262TIP3    H243278   1.677   4.523  10.801  0.0514 -0.5473 -1.1535
 7263TIP3   OH243279   3.388   6.744   4.553  0.1030  0.2348 -0.3413
 7263TIP3    H143280   3.426   6.670   4.505  2.3165  0.3725  1.1280
 7263TIP3    H243281   3.415   6.821   4.503  0.2103  0.2215 -0.3044
 7264TIP3   OH243282   3.019   5.349   3.370  0.4774 -0.2561  0.0572
 7264TIP3    H143283   2.950   5.345   3.437 -0.1957  0.5550 -0.5872
 7264TIP3    H243284   3.043   5.257   3.356  0.4573 -0.4569  1.2424
 7265TIP3   OH243285   6.179   0.109  14.187  0.3974  0.0316 -0.1928
 7265TIP3    H143286   6.191   0.183  14.126  1.5276  0.3446  0.3936
 7265TIP3    H243287   6.251   0.049  14.166  1.0628  0.3425  1.1006
 7266TIP3   OH243288   3.395   6.287  11.823 -0.2612  0.1356  0.4321
 7266TIP3    H143289   3.301   6.281  11.837 -0.3308  2.8419  1.4209
 7266TIP3    H243290   3.434   6.267  11.908  0.0604 -0.6749  0.1025
 7267TIP3   OH243291   1.578   4.618  16.657  0.2139  0.1415 -0.3898
 7267TIP3    H143292   1.651   4.585  16.710 -1.0097  0.4554  1.5208
 7267TIP3    H243293   1.515   4.651  16.721 -1.8720 -0.6377 -1.9873
 7268TIP3   OH243294   4.454   5.155   3.363 -0.0765  0.1305 -0.0166
 7268TIP3    H143295   4.546   5.127   3.361  0.3859  1.6099 -0.6688
 7268TIP3    H243296   4.459   5.251   3.360 -1.6934  0.1813 -2.0493
 7269TIP3   OH243297   3.966   1.666   3.749  0.2577  0.1443 -0.2290
 7269TIP3    H143298   4.015   1.654   3.830  0.2509  1.1490 -0.0708
 7269TIP3    H243299   4.014   1.734   3.702 -1.3839  1.6550  0.2502
 7270TIP3   OH243300   5.370   5.245   3.222 -0.2856  0.8062  0.0697
 7270TIP3    H143301   5.301   5.271   3.282  0.4693  1.4870  0.6514
 7270TIP3    H243302   5.421   5.324   3.206  0.3693  0.3177 -0.3423
 7271TIP3   OH243303   6.732   4.061   4.568 -0.4668  0.5638 -0.0682
 7271TIP3    H143304   6.644   4.070   4.605 -0.7950  0.1527 -0.7340
 7271TIP3    H243305   6.788   4.113   4.625 -0.7548 -1.0650  1.7496
 7272TIP3   OH243306   6.410   6.710   2.348  0.0690  0.3180  0.2449
 7272TIP3    H143307   6.315   6.717   2.358  0.0186 -2.5729  2.3822
 7272TIP3    H243308   6.446   6.740   2.431  0.7570 -2.6297  1.0768
 7273TIP3   OH243309   6.105   5.462  10.368 -0.5035 -0.0159  0.3008
 7273TIP3    H143310   6.069   5.388  10.418 -1.1393 -0.5844 -0.9805
 7273TIP3    H243311   6.122   5.529  10.434 -1.2011 -0.8090  1.3062
 7274TIP3   OH243312   6.492   0.685   4.190  0.0045  0.1744  0.3102
 7274TIP3    H143313   6.474   0.609   4.134  0.7749  0.1679  0.0581
 7274TIP3    H243314   6.466   0.657   4.277  1.6635 -0.9087  0.4665
 7275TIP3   OH243315   1.048   4.815  12.770  0.1251 -0.1170 -0.2566
 7275TIP3    H143316   0.979   4.875  12.797 -0.1498 -0.5440 -0.0134
 7275TIP3    H243317   1.005   4.754  12.710  0.5056  0.1969 -0.8654
 7276TIP3   OH243318   3.421   6.431  12.890 -0.1527  0.3382  0.2510
 7276TIP3    H143319   3.491   6.490  12.864 -0.1348  0.5092  0.6739
 7276TIP3    H243320   3.344   6.486  12.898 -0.6113 -0.0602 -1.3909
 7277TIP3   OH243321   1.480   2.680   4.414 -0.6346 -0.1167  0.0810
 7277TIP3    H143322   1.465   2.760   4.465  0.6424 -1.2209  2.2647
 7277TIP3    H243323   1.393   2.640   4.407 -1.1121  0.9266 -0.1304
 7278TIP3   OH243324   4.038   2.675   1.792  0.1861  0.4191  0.0633
 7278TIP3    H143325   3.967   2.645   1.848  0.6251 -1.0041 -0.1396
 7278TIP3    H243326   4.113   2.621   1.816 -0.1102 -1.5736 -3.2405
 7279TIP3   OH243327   4.344   6.792   5.284  0.0759 -0.0566  0.4579
 7279TIP3    H143328   4.402   6.773   5.210 -1.7309 -2.2333 -0.4517
 7279TIP3    H243329   4.382   6.742   5.357  0.0655 -0.4865  0.1756
 7280TIP3   OH243330   2.083   0.312  17.252 -0.8320 -0.5008 -0.4860
 7280TIP3    H143331   2.170   0.323  17.213 -0.2373 -0.7656  0.7637
 7280TIP3    H243332   2.045   0.400  17.249  0.5033  0.1604  1.3791
 7281TIP3   OH243333   1.970   4.979   6.121  0.4721  0.4263 -0.1001
 7281TIP3    H143334   2.006   5.022   6.044  0.8388  0.3631  0.0324
 7281TIP3    H243335   2.030   4.906   6.137 -0.9144 -0.9883 -1.1657
 7282TIP3   OH243336   5.068   2.205   1.360 -0.3250  0.4421  0.1618
 7282TIP3    H143337   5.043   2.263   1.289  2.0935 -2.0218 -2.8626
 7282TIP3    H243338   5.163   2.195   1.350 -0.3308 -2.0938  2.0510
 7283TIP3   OH243339   0.041   1.163   5.524  0.5341  0.3556  0.9484
 7283TIP3    H143340   0.105   1.103   5.562 -0.2841  0.0169  1.7994
 7283TIP3    H243341   0.094   1.231   5.481  1.4631 -0.9850 -0.0712
 7284TIP3   OH243342   1.369   0.228   3.252 -0.0442  0.3017  0.0166
 7284TIP3    H143343   1.355   0.318   3.280 -3.6120  0.2182 -1.2485
 7284TIP3    H243344   1.437   0.234   3.185 -0.9491  2.1870 -0.7519
 7285TIP3   OH243345   6.224   5.489  15.096 -0.2868  0.3828 -0.1293
 7285TIP3    H143346   6.232   5.541  15.016  0.0745  2.8507  1.4708
 7285TIP3    H243347   6.157   5.534  15.148 -0.7544 -1.3690  0.8491
 7286TIP3   OH243348   4.701   1.289   4.786  0.2168 -0.1370 -0.8576
 7286TIP3    H143349   4.648   1.331   4.853 -0.1011  0.4507 -1.4779
 7286TIP3    H243350   4.693   1.345   4.709 -0.0868 -1.2437 -1.6434
 7287TIP3   OH243351   0.323   1.228  16.770  0.2708 -0.0496 -0.1759
 7287TIP3    H143352   0.338   1.145  16.726 -0.1250 -0.2736  0.1077
 7287TIP3    H243353   0.409   1.253  16.804  0.5262  0.0043 -0.8538
 7288TIP3   OH243354   3.002   3.503  15.891  0.3590 -0.6204 -0.1920
 7288TIP3    H143355   3.049   3.558  15.829  1.0178  0.1680  0.9990
 7288TIP3    H243356   2.914   3.540  15.895 -0.1127 -1.5436 -1.7311
 7289TIP3   OH243357   1.590   3.180   4.267  0.2169 -0.0056 -0.5289
 7289TIP3    H143358   1.630   3.248   4.213  1.6863 -0.7909 -0.4498
 7289TIP3    H243359   1.634   3.187   4.351 -1.8650  1.0227  0.5063
 7290TIP3   OH243360   2.383   0.336  15.186  0.2123 -0.0138  0.0232
 7290TIP3    H143361   2.302   0.318  15.233  0.2409 -1.2341 -0.3829
 7290TIP3    H243362   2.356   0.385  15.109 -0.0779  0.0082  0.1392
 7291TIP3   OH243363   2.961   0.008   4.423  0.2681  0.6029  0.0894
 7291TIP3    H143364   2.982  -0.056   4.491 -0.4676 -0.8883 -1.0451
 7291TIP3    H243365   2.966  -0.042   4.341  1.7750  2.4990 -1.0377
 7292TIP3   OH243366   0.322   4.340  11.239  0.3270 -0.4705  0.3821
 7292TIP3    H143367   0.342   4.432  11.223  4.4279 -1.5827 -1.5797
 7292TIP3    H243368   0.230   4.330  11.215  0.6670  2.4764 -2.3270
 7293TIP3   OH243369   3.585   2.238   0.653  0.2482 -0.3674  0.3230
 7293TIP3    H143370   3.639   2.272   0.725  0.7678 -1.7325  0.6025
 7293TIP3    H243371   3.601   2.144   0.654  1.3102 -0.2514 -2.4615
 7294TIP3   OH243372   0.133   5.648   4.012  0.0537 -0.1599 -0.0576
 7294TIP3    H143373   0.133   5.714   3.943  4.4401 -1.3109 -1.3784
 7294TIP3    H243374   0.182   5.688   4.084 -0.3084 -0.6956  0.4905
 7295TIP3   OH243375   1.061   1.540  12.170  0.0771  0.3614 -0.7834
 7295TIP3    H143376   1.130   1.597  12.136  1.1365  0.2590  1.2007
 7295TIP3    H243377   1.048   1.568  12.260  0.4322 -2.3819  0.1554
 7296TIP3   OH243378   2.221   1.741  10.387 -0.0462 -0.3333  1.1519
 7296TIP3    H143379   2.163   1.804  10.431  0.4767 -0.3715  1.8920
 7296TIP3    H243380   2.307   1.784  10.387 -0.0620 -0.2727  0.0475
 7297TIP3   OH243381   0.924   4.304  16.565 -0.5772  0.0370  0.0725
 7297TIP3    H143382   0.896   4.332  16.652 -0.7210 -0.0300  0.0492
 7297TIP3    H243383   0.986   4.233  16.580 -2.5238 -1.7124  0.0770
 7298TIP3   OH243384   6.483   2.564  15.087 -0.3264 -0.3341  0.1278
 7298TIP3    H143385   6.481   2.523  15.001  0.4948 -0.1153  0.0080
 7298TIP3    H243386   6.393   2.595  15.101 -0.3311  0.1205 -0.8833
 7299TIP3   OH243387   4.602   3.299  15.817  0.3795  0.8272 -0.2536
 7299TIP3    H143388   4.583   3.383  15.859  0.4369  0.0356  1.4227
 7299TIP3    H243389   4.524   3.281  15.763 -1.3879  0.1488  2.4004
 7300TIP3   OH243390   4.427   2.289  14.389 -0.0594  0.4398  0.3139
 7300TIP3    H143391   4.517   2.266  14.365  0.0905 -0.8192  1.9713
 7300TIP3    H243392   4.378   2.285  14.307  0.8021 -1.8865 -0.1278
 7301TIP3   OH243393   1.257   5.367  11.205  0.4519 -0.1863  0.2159
 7301TIP3    H143394   1.310   5.439  11.238  1.4408 -0.4314 -0.8002
 7301TIP3    H243395   1.168   5.386  11.236  0.6223  1.6963 -0.3792
 7302TIP3   OH243396   3.405   6.250   4.738 -0.1265  0.1530  0.4697
 7302TIP3    H143397   3.387   6.344   4.731  1.3876  0.5762  2.0549
 7302TIP3    H243398   3.410   6.220   4.647  1.3068  2.0009 -0.1004
 7303TIP3   OH243399   3.631   4.711   2.854 -0.4356  0.0607 -0.2976
 7303TIP3    H143400   3.629   4.628   2.903  0.6471  0.5520  0.6047
 7303TIP3    H243401   3.714   4.709   2.807 -0.0064  1.0188  0.4131
 7304TIP3   OH243402   6.253   2.286   2.676 -0.5360 -0.0685 -0.1577
 7304TIP3    H143403   6.248   2.356   2.611 -1.0695 -0.5377 -0.6287
 7304TIP3    H243404   6.162   2.265   2.696 -0.3793 -0.8282 -0.2332
 7305TIP3   OH243405   3.553   2.068   4.128 -0.0536 -0.1608  0.3641
 7305TIP3    H143406   3.525   2.084   4.038 -0.8880 -0.8906  0.4865
 7305TIP3    H243407   3.638   2.025   4.120  1.7376  3.3218  0.0099
 7306TIP3   OH243408   3.143   1.889  15.024 -0.4350 -0.7411  0.2299
 7306TIP3    H143409   3.137   1.837  14.944  0.6565 -0.0322 -0.3165
 7306TIP3    H243410   3.054   1.923  15.036 -1.1688 -2.6848  0.5816
 7307TIP3   OH243411   0.864   3.633  14.460  0.1132  0.3138 -0.1585
 7307TIP3    H143412   0.949   3.676  14.469  0.5354 -0.4653 -0.3002
 7307TIP3    H243413   0.840   3.608  14.549  0.7727 -0.8301 -0.2857
 7308TIP3   OH243414   4.086   3.366  17.222 -0.5134  0.1669  0.1949
 7308TIP3    H143415   4.106   3.459  17.220  0.8721 -0.1164  0.5116
 7308TIP3    H243416   4.037   3.354  17.304  0.8904  0.3142  1.0687
 7309TIP3   OH243417   1.009   2.119  16.833  0.0622  0.1402  0.0980
 7309TIP3    H143418   1.079   2.112  16.768  0.7172 -3.0036  1.0441
 7309TIP3    H243419   0.957   2.040  16.821 -2.3724  1.6339  0.5424
 7310TIP3   OH243420   5.674   3.045   2.589 -1.0978  0.3652 -0.1117
 7310TIP3    H143421   5.579   3.031   2.589 -1.1305  0.5941  0.8526
 7310TIP3    H243422   5.705   3.001   2.668 -0.2717 -0.5419 -0.9299
 7311TIP3   OH243423   5.217   1.968   2.989  0.1909 -0.1020 -0.9713
 7311TIP3    H143424   5.260   1.908   3.051 -0.5107 -0.4382 -0.8086
 7311TIP3    H243425   5.151   2.013   3.041 -0.6583 -0.6548 -1.5531
 7312TIP3   OH243426   6.533   0.071  13.615  0.3003  0.6081 -0.3846
 7312TIP3    H143427   6.446   0.102  13.589  0.1022  1.3297  1.0959
 7312TIP3    H243428   6.592   0.144  13.593  0.4367  0.3809 -0.7737
 7313TIP3   OH243429   5.715   6.757   1.571  0.0423  0.2513  0.4885
 7313TIP3    H143430   5.648   6.822   1.594 -1.1996 -1.2056  1.0322
 7313TIP3    H243431   5.758   6.736   1.654 -2.9179 -3.3051  1.2424
 7314TIP3   OH243432   1.627   4.780   0.864 -0.7517 -0.7664 -0.3236
 7314TIP3    H143433   1.532   4.773   0.850 -1.0912 -0.8910  1.8087
 7314TIP3    H243434   1.654   4.693   0.891  0.0794 -0.8698 -1.4881
 7315TIP3   OH243435   0.778   0.977  11.797  0.5327 -0.3385  0.7208
 7315TIP3    H143436   0.766   0.907  11.861 -1.0605 -0.2429  0.5586
 7315TIP3    H243437   0.690   0.992  11.761  1.7331 -2.0189 -3.1935
 7316TIP3   OH243438   2.338   2.789   6.675  0.0571  0.2663  0.0600
 7316TIP3    H143439   2.390   2.717   6.640  2.1857  2.1392 -0.7461
 7316TIP3    H243440   2.342   2.857   6.608 -3.1405  0.6541  0.1541
 7317TIP3   OH243441   3.483   0.684  16.615 -0.2660  0.0916  0.2179
 7317TIP3    H143442   3.561   0.640  16.581 -0.0134  0.8515 -0.1990
 7317TIP3    H243443   3.441   0.619  16.671  0.1433 -0.6551 -0.3333
 7318TIP3   OH243444   2.722   5.981   0.872 -0.2392  0.3145 -0.5519
 7318TIP3    H143445   2.782   5.977   0.947 -0.9047 -0.5620 -0.0602
 7318TIP3    H243446   2.779   5.975   0.795  0.4358  1.1002 -0.1237
 7319TIP3   OH243447   3.300   0.790  16.429  0.3570  0.3196 -0.5091
 7319TIP3    H143448   3.332   0.748  16.349  1.7879 -0.4363  0.4334
 7319TIP3    H243449   3.368   0.772  16.494 -1.5559 -0.4883  1.3108
 7320TIP3   OH243450   5.701   0.027  14.148  0.4585  0.2200 -0.3471
 7320TIP3    H143451   5.753  -0.014  14.217  0.7356  2.0183  0.5411
 7320TIP3    H243452   5.630   0.072  14.193  0.2976  0.9227 -1.2746
 7321TIP3   OH243453   1.745   1.470  11.792  0.5479 -0.5541  0.1455
 7321TIP3    H143454   1.762   1.503  11.703  2.1568 -1.0036  0.2869
 7321TIP3    H243455   1.652   1.447  11.791  0.2528  0.6089 -1.0474
 7322TIP3   OH243456   3.507   4.831   4.433  0.5015 -0.0680  0.1321
 7322TIP3    H143457   3.495   4.875   4.349  0.2794  1.2993  0.8643
 7322TIP3    H243458   3.490   4.738   4.415 -0.1808  0.3093 -1.1762
 7323TIP3   OH243459   3.106   5.920   2.918 -0.2427 -0.5327 -0.6666
 7323TIP3    H143460   3.162   5.951   2.989  0.0531 -0.7547 -0.8022
 7323TIP3    H243461   3.167   5.879   2.856 -0.5066 -0.4087 -1.0102
 7324TIP3   OH243462   5.756   2.771   4.265  0.5923  0.3822 -0.0156
 7324TIP3    H143463   5.832   2.756   4.209  0.2695 -2.7264  0.2696
 7324TIP3    H243464   5.685   2.792   4.204  0.8597 -0.3670 -0.6009
 7325TIP3   OH243465   4.594   1.230   4.201  0.2053 -0.0093 -0.0077
 7325TIP3    H143466   4.548   1.297   4.149 -0.4811  0.4930  1.2247
 7325TIP3    H243467   4.683   1.230   4.166 -0.3723 -0.0325 -1.5190
 7326TIP3   OH243468   2.206   5.169  13.941 -0.1072  0.1917  0.1773
 7326TIP3    H143469   2.174   5.231  13.875  0.3785 -0.2064 -0.4331
 7326TIP3    H243470   2.221   5.223  14.018 -2.3706  0.3783  0.5445
 7327TIP3   OH243471   2.984   6.402   4.077 -0.1867  0.1922  0.0181
 7327TIP3    H143472   2.940   6.427   3.996  0.7471 -1.3168 -0.9746
 7327TIP3    H243473   3.040   6.328   4.053 -1.0254 -1.2565  2.3484
 7328TIP3   OH243474   0.200   0.268  14.773  0.3043  0.6061  0.3317
 7328TIP3    H143475   0.295   0.263  14.764  0.1698 -1.2707 -0.1748
 7328TIP3    H243476   0.172   0.332  14.707  1.1704  0.9933  0.3392
 7329TIP3   OH243477   1.348   5.796  16.546  0.3806 -0.0291  0.4549
 7329TIP3    H143478   1.298   5.732  16.596  3.2512 -1.9327  0.9591
 7329TIP3    H243479   1.439   5.780  16.569  1.6179  0.6168 -3.5697
 7330TIP3   OH243480   5.366   0.245  12.483  0.4951  0.3203 -0.4031
 7330TIP3    H143481   5.452   0.254  12.523  0.7329 -2.9121 -0.0577
 7330TIP3    H243482   5.305   0.248  12.556  0.5531 -0.5862 -0.3178
 7331TIP3   OH243483   2.541   1.917  13.477 -0.1762 -0.0594  0.2343
 7331TIP3    H143484   2.576   1.991  13.427  0.3586 -0.0812  0.5763
 7331TIP3    H243485   2.503   1.859  13.411  3.2570 -1.6119 -0.4936
 7332TIP3   OH243486   6.272   1.565   4.341 -0.5308 -0.5940 -0.0740
 7332TIP3    H143487   6.188   1.611   4.335 -1.0380 -1.1214  2.5342
 7332TIP3    H243488   6.287   1.555   4.435  1.9351 -1.4748 -0.5366
 7333TIP3   OH243489   6.031   4.875  16.857 -0.1378  0.4051 -0.1181
 7333TIP3    H143490   6.119   4.837  16.850  0.5037  1.6328  1.0365
 7333TIP3    H243491   5.974   4.801  16.876  0.6237 -0.4326 -1.0743
 7334TIP3   OH243492   1.873   5.525   3.520 -0.0641  0.0514 -0.1503
 7334TIP3    H143493   1.917   5.601   3.482  0.2978 -0.9843 -1.8747
 7334TIP3    H243494   1.854   5.469   3.445 -3.0083 -0.2101  0.7404
 7335TIP3   OH243495   0.965   5.469   4.506  0.0268  0.0619  0.6348
 7335TIP3    H143496   0.914   5.507   4.435  0.1922 -0.6245  0.1463
 7335TIP3    H243497   0.968   5.376   4.486  0.0184 -0.1421  1.5815
 7336TIP3   OH243498   1.335   0.717  13.608  0.1898  0.2717  0.3207
 7336TIP3    H143499   1.256   0.668  13.582  0.4282  0.8895 -1.6761
 7336TIP3    H243500   1.315   0.807  13.584  1.5595  0.4075 -0.3286
 7337TIP3   OH243501   0.024   2.033   4.992  0.6010 -0.1980  0.3671
 7337TIP3    H143502  -0.054   2.087   4.976  1.2832  0.7599  0.2394
 7337TIP3    H243503   0.042   2.044   5.085  0.0396 -1.1800  0.6059
 7338TIP3   OH243504   0.355   6.606  14.624  0.1138  0.1641 -0.7373
 7338TIP3    H143505   0.267   6.578  14.601 -0.6843  2.3466 -0.4788
 7338TIP3    H243506   0.392   6.640  14.543 -0.1062  1.2441 -0.4076
 7339TIP3   OH243507   4.003   2.883   4.229 -0.2306 -0.2005  0.0276
 7339TIP3    H143508   3.935   2.841   4.282 -1.1100  0.9103 -0.2128
 7339TIP3    H243509   4.019   2.967   4.273  0.5670 -0.1988 -0.2577
 7340TIP3   OH243510   5.088   1.765   3.235 -0.6910 -0.2621 -0.0298
 7340TIP3    H143511   5.034   1.727   3.166  1.5138  0.7641 -2.4133
 7340TIP3    H243512   5.028   1.819   3.286 -3.0130 -3.5991  0.9083
 7341TIP3   OH243513   4.205   2.718   5.347 -0.4210 -0.7398  0.0318
 7341TIP3    H143514   4.191   2.693   5.438 -3.4989 -0.4822 -0.3140
 7341TIP3    H243515   4.117   2.720   5.309  0.6564  0.8457 -2.5079
 7342TIP3   OH243516   4.323   6.349   5.358 -0.1834 -0.4966  0.2924
 7342TIP3    H143517   4.382   6.358   5.283  1.0446  2.4094  1.5244
 7342TIP3    H243518   4.381   6.351   5.434 -1.7839  1.4986  1.4965
 7343TIP3   OH243519   3.857   6.160   5.204  0.1156 -0.2551  0.3399
 7343TIP3    H143520   3.770   6.142   5.169 -0.5672 -0.2477  1.9700
 7343TIP3    H243521   3.845   6.161   5.299  2.1080 -1.3538  0.6435
 7344TIP3   OH243522   0.577   1.728   4.394 -0.7647  0.0912  0.2908
 7344TIP3    H143523   0.526   1.721   4.475 -0.8023 -0.8675  0.1887
 7344TIP3    H243524   0.648   1.664   4.405 -1.1235 -0.4795 -0.6886
 7345TIP3   OH243525   0.422   5.916   2.950  0.1408 -0.0665 -0.4995
 7345TIP3    H143526   0.395   5.993   2.900 -0.7749  0.8224  1.2986
 7345TIP3    H243527   0.339   5.878   2.981  0.6437 -1.1832 -0.5141
 7346TIP3   OH243528   1.332   0.472   3.333 -0.0637  0.6949  0.0829
 7346TIP3    H143529   1.251   0.493   3.380  0.5310  2.7933  0.2512
 7346TIP3    H243530   1.319   0.508   3.246 -0.2624 -1.1581 -0.6658
 7347TIP3   OH243531   0.294   0.996   4.225  0.1083 -0.6151  0.1891
 7347TIP3    H143532   0.375   1.047   4.223 -0.3705  0.1336 -0.4764
 7347TIP3    H243533   0.239   1.043   4.289  0.2490 -1.1952  0.7379
 7348TIP3   OH243534   0.430   0.754  12.802 -0.2226  0.3084 -0.6812
 7348TIP3    H143535   0.424   0.845  12.773 -2.2311  0.3554 -0.1874
 7348TIP3    H243536   0.432   0.760  12.898 -1.9259 -0.2258 -0.5998
 7349TIP3   OH243537   4.378   4.912   0.697 -0.3382 -0.0648  0.0661
 7349TIP3    H143538   4.448   4.852   0.672  0.0767 -0.0036  1.0547
 7349TIP3    H243539   4.349   4.882   0.783 -1.6155 -0.1583 -0.3765
 7350TIP3   OH243540   5.267   3.446  11.777 -0.5443  0.2200  0.1181
 7350TIP3    H143541   5.328   3.402  11.836  0.2760 -0.9986 -1.5823
 7350TIP3    H243542   5.294   3.538  11.779  0.9413 -0.1965 -0.1186
 7351TIP3   OH243543   1.546   4.421  16.210  0.4325 -0.4447  0.4318
 7351TIP3    H143544   1.480   4.355  16.229 -1.2430  0.7733 -0.9954
 7351TIP3    H243545   1.584   4.443  16.295 -2.1371 -0.0258  1.5165
 7352TIP3   OH243546   4.865   0.783   3.415  0.5745 -0.5773  0.0444
 7352TIP3    H143547   4.854   0.709   3.355 -0.6025 -0.5452  0.2082
 7352TIP3    H243548   4.932   0.837   3.374  0.8633 -1.3274 -0.4865
 7353TIP3   OH243549   2.837   1.898   0.726 -0.2744  0.0884  0.0639
 7353TIP3    H143550   2.766   1.837   0.747 -1.3261  0.2763 -2.7931
 7353TIP3    H243551   2.916   1.854   0.758 -1.2699 -1.7117  0.1149
 7354TIP3   OH243552   3.825   2.683   2.595 -0.5504 -0.0891  0.2129
 7354TIP3    H143553   3.915   2.708   2.616 -0.2575 -1.5648  0.7353
 7354TIP3    H243554   3.779   2.688   2.679 -0.4846 -1.2798  0.3318
 7355TIP3   OH243555   3.608   5.430   1.547  0.0357 -0.6724  0.1346
 7355TIP3    H143556   3.623   5.337   1.568  1.0790 -0.8830 -1.4516
 7355TIP3    H243557   3.513   5.441   1.556 -0.3894 -2.4290 -1.6741
 7356TIP3   OH243558   1.409   2.193   2.686 -0.0829 -0.1855  0.3493
 7356TIP3    H143559   1.315   2.212   2.687  0.2056  1.4118  2.9138
 7356TIP3    H243560   1.437   2.211   2.776  2.6868 -0.6009 -0.4018
 7357TIP3   OH243561   4.556   2.170   4.206 -0.5046  0.1760  0.3381
 7357TIP3    H143562   4.538   2.113   4.281  0.7217 -0.5242  0.1153
 7357TIP3    H243563   4.473   2.214   4.188 -2.5174 -4.2670 -1.8332
 7358TIP3   OH243564   1.406   6.304   2.228  0.1288 -0.0407  0.7872
 7358TIP3    H143565   1.481   6.256   2.263  0.1858 -0.5978 -0.0849
 7358TIP3    H243566   1.433   6.330   2.140 -0.6217 -0.0519  0.5530
 7359TIP3   OH243567   6.632   5.275   1.035 -0.6902  0.1955  0.9039
 7359TIP3    H143568   6.637   5.205   0.970 -2.1244  0.8880  0.0223
 7359TIP3    H243569   6.541   5.275   1.063 -1.0213  2.5502 -0.0680
 7360TIP3   OH243570   4.756   4.994  12.208 -0.2934 -0.4828 -0.7299
 7360TIP3    H143571   4.730   4.902  12.196 -1.8013 -0.3634  1.3012
 7360TIP3    H243572   4.810   4.993  12.288 -0.4528  0.4140 -0.6109
 7361TIP3   OH243573   5.035   0.062   4.871  0.2253 -0.0840 -0.1509
 7361TIP3    H143574   4.966   0.063   4.937  0.5194 -1.3048  0.1751
 7361TIP3    H243575   4.995   0.103   4.794 -0.6046 -0.0551  0.2888
 7362TIP3   OH243576   5.708   0.824   3.546  0.4889  0.1374  0.1209
 7362TIP3    H143577   5.737   0.857   3.631 -0.0270 -1.1717  0.8359
 7362TIP3    H243578   5.784   0.777   3.511 -0.2055 -1.9364  1.2749
 7363TIP3   OH243579   2.007   0.648  10.846 -0.4901  0.0545  0.0963
 7363TIP3    H143580   2.100   0.643  10.826  0.1453 -0.7442  2.9763
 7363TIP3    H243581   1.988   0.741  10.852 -0.1861  0.2455 -1.7613
 7364TIP3   OH243582   4.899   2.346  12.529  0.2128  0.0044 -0.1247
 7364TIP3    H143583   4.982   2.390  12.509 -0.1285  0.6856 -0.0722
 7364TIP3    H243584   4.912   2.306  12.615  0.6318 -0.2635 -0.3111
 7365TIP3   OH243585   3.955   4.838  10.506  0.3497  0.1996 -0.1752
 7365TIP3    H143586   4.046   4.860  10.525  0.2714 -1.3960  2.2723
 7365TIP3    H243587   3.907   4.920  10.517  1.2711  0.7198 -0.0133
 7366TIP3   OH243588   0.203   1.845  13.507  0.0016  0.2805  0.2698
 7366TIP3    H143589   0.136   1.868  13.572  0.6669  0.8026  0.7795
 7366TIP3    H243590   0.191   1.751  13.493 -2.8076  0.8656 -1.9035
 7367TIP3   OH243591   6.037   3.806  11.651 -0.4685  0.3327 -0.1412
 7367TIP3    H143592   5.957   3.817  11.599 -0.4680  0.5325 -0.0974
 7367TIP3    H243593   6.104   3.854  11.603  0.0455 -1.3040 -1.1394
 7368TIP3   OH243594   6.433   6.582   6.521  0.4885  0.2801 -0.4420
 7368TIP3    H143595   6.349   6.607   6.559 -0.0025 -0.6845 -0.8783
 7368TIP3    H243596   6.464   6.661   6.477 -1.4531 -0.1012 -2.5532
 7369TIP3   OH243597   4.255   4.503   4.051  0.5846 -0.6944  0.3057
 7369TIP3    H143598   4.166   4.472   4.072 -0.4117  1.4784 -0.5308
 7369TIP3    H243599   4.294   4.430   4.002 -1.5472 -0.8575 -1.2705
 7370TIP3   OH243600   4.556   2.049   0.229  0.0747 -0.6922 -0.2284
 7370TIP3    H143601   4.611   2.110   0.179  1.0162 -2.6265 -1.6255
 7370TIP3    H243602   4.466   2.074   0.207  0.4213  0.9471  0.1679
 7371TIP3   OH243603   2.486   1.408   0.673 -0.1288  0.4143 -0.2805
 7371TIP3    H143604   2.475   1.353   0.750  1.3451 -0.0054 -0.3459
 7371TIP3    H243605   2.398   1.422   0.640 -0.5981 -1.1404  0.2804
 7372TIP3   OH243606   5.323   3.186   4.898  0.3593  0.3006 -0.2130
 7372TIP3    H143607   5.350   3.097   4.876  0.9663  0.3969  0.1529
 7372TIP3    H243608   5.290   3.180   4.987  1.6832  0.7069  0.3130
 7373TIP3   OH243609   5.624   5.888  15.286 -0.2688  0.0210  0.2719
 7373TIP3    H143610   5.607   5.943  15.209 -0.8052 -1.8300 -0.9892
 7373TIP3    H243611   5.637   5.800  15.249 -1.9380 -1.1794  2.4078
 7374TIP3   OH243612   6.523   0.298   0.345 -0.0908  0.6760 -0.0612
 7374TIP3    H143613   6.559   0.220   0.303  0.2880  0.6198  0.3673
 7374TIP3    H243614   6.581   0.369   0.318  0.7360  0.4768  1.1579
 7375TIP3   OH243615   1.450   2.590  11.591 -0.2395  0.4856  0.1667
 7375TIP3    H143616   1.455   2.530  11.516 -0.5534  0.5442  0.0986
 7375TIP3    H243617   1.509   2.662  11.568 -0.1243  0.3699  0.0962
 7376TIP3   OH243618   6.801   1.750   0.794 -0.1617 -0.2917 -0.1501
 7376TIP3    H143619   6.895   1.767   0.800 -0.2616 -0.0239  0.6530
 7376TIP3    H243620   6.794   1.654   0.789  0.2402 -0.2493 -1.9481
 7377TIP3   OH243621   0.820   6.574   4.904  0.1674 -0.1048  0.1332
 7377TIP3    H143622   0.839   6.627   4.827 -1.9739 -0.3468 -0.5914
 7377TIP3    H243623   0.754   6.511   4.874 -0.0672 -0.7498  1.9543
 7378TIP3   OH243624   2.678   3.797  17.036 -0.0705 -0.4526  0.9705
 7378TIP3    H143625   2.759   3.840  17.007  0.0636 -0.3080  1.5511
 7378TIP3    H243626   2.609   3.839  16.986 -0.0210  0.9618  2.0614
 7379TIP3   OH243627   5.584   1.510  16.714  0.0442 -0.0943  0.8004
 7379TIP3    H143628   5.593   1.418  16.689 -1.9023  0.0207 -0.3881
 7379TIP3    H243629   5.674   1.539  16.731  0.9723 -1.4616 -1.5120
 7380TIP3   OH243630   2.590   3.797   5.957 -0.8251  0.0866  0.6166
 7380TIP3    H143631   2.522   3.848   5.913 -1.0410 -1.0279 -0.3443
 7380TIP3    H243632   2.548   3.713   5.975 -0.4838  0.2432  2.2442
 7381TIP3   OH243633   4.481   5.371  13.689  0.1831 -0.0362  0.3123
 7381TIP3    H143634   4.460   5.343  13.600  0.2879 -2.0232  0.8991
 7381TIP3    H243635   4.397   5.404  13.723 -0.3047 -1.0867  0.1407
 7382TIP3   OH243636   1.114   5.142  14.015 -0.1780  0.3797  0.0997
 7382TIP3    H143637   1.057   5.074  14.051  1.5837 -1.4642 -0.4759
 7382TIP3    H243638   1.203   5.113  14.036  0.6149  2.6627  0.0781
 7383TIP3   OH243639   6.175   4.334   5.524 -0.6005 -0.5941  0.7799
 7383TIP3    H143640   6.147   4.381   5.603  0.6072  0.5031  0.5705
 7383TIP3    H243641   6.102   4.276   5.504 -1.2510 -0.3254  2.2592
 7384TIP3   OH243642   4.733   4.638   4.006 -0.6184 -0.0308 -0.1536
 7384TIP3    H143643   4.661   4.700   3.999  1.8294  3.0739  0.9954
 7384TIP3    H243644   4.720   4.595   4.091  0.0640  2.1508  1.0958
 7385TIP3   OH243645   0.093   6.220  14.306  0.0615 -0.0936  0.2775
 7385TIP3    H143646   0.034   6.167  14.359 -0.1544  0.1833  0.3161
 7385TIP3    H243647   0.044   6.300  14.288  0.5020  0.2221  0.4774
 7386TIP3   OH243648   5.928   3.702   2.570  0.3111  0.0255  0.4857
 7386TIP3    H143649   5.952   3.708   2.662  0.7606 -1.2321  0.4488
 7386TIP3    H243650   5.941   3.610   2.547  0.6928  0.4257 -0.9604
 7387TIP3   OH243651   0.798   4.481  15.062  0.3462 -0.2236 -0.1765
 7387TIP3    H143652   0.787   4.389  15.039 -0.0116 -0.3103  0.3421
 7387TIP3    H243653   0.730   4.527  15.013  0.1611 -0.3006  0.0116
 7388TIP3   OH243654   3.070   3.095  11.653  0.0775  0.1334  0.2754
 7388TIP3    H143655   3.002   3.145  11.608 -1.6090 -0.0136  2.5987
 7388TIP3    H243656   3.116   3.049  11.582 -3.4250 -1.2549 -1.2116
 7389TIP3   OH243657   2.319   6.458  15.078 -0.5762  0.1713  0.0427
 7389TIP3    H143658   2.272   6.541  15.069  0.1206  0.4354 -1.4275
 7389TIP3    H243659   2.355   6.459  15.166 -0.4914  1.4780 -0.0066
 7390TIP3   OH243660   1.568   3.012   3.739 -0.1232  0.0335 -0.3308
 7390TIP3    H143661   1.642   2.957   3.712  0.0518  0.0681  0.0657
 7390TIP3    H243662   1.491   2.958   3.725 -0.1711  0.5723 -2.2944
 7391TIP3   OH243663   4.064   5.227  13.614  0.6074  0.3545  0.0056
 7391TIP3    H143664   4.009   5.153  13.588 -0.2980  1.8554 -2.4806
 7391TIP3    H243665   4.153   5.195  13.606  0.1750 -1.4337  1.9850
 7392TIP3   OH243666   0.920   0.063  16.325  0.3783 -0.3179 -0.2211
 7392TIP3    H143667   0.944   0.155  16.312 -0.7228  0.0883  0.5134
 7392TIP3    H243668   0.872   0.039  16.246 -0.0709 -0.0135 -0.0363
 7393TIP3   OH243669   0.179   1.639  15.571  0.5879  0.6443 -0.3442
 7393TIP3    H143670   0.132   1.663  15.651 -1.3834 -0.9959 -0.9777
 7393TIP3    H243671   0.129   1.680  15.501 -0.4348 -1.8094 -1.0958
 7394TIP3   OH243672   5.557   6.343  11.393 -0.3702  0.0452  0.8194
 7394TIP3    H143673   5.466   6.343  11.362  0.3557 -0.0109 -1.3550
 7394TIP3    H243674   5.610   6.334  11.314  1.5571  0.3327  2.0426
 7395TIP3   OH243675   3.798   1.333   0.761 -0.2540 -0.0839  0.1522
 7395TIP3    H143676   3.821   1.392   0.833 -0.8177  0.2519  0.0641
 7395TIP3    H243677   3.864   1.351   0.693 -0.6017  0.6670  0.0079
 7396TIP3   OH243678   6.205   1.400   6.178 -0.3874  0.3185 -0.2596
 7396TIP3    H143679   6.124   1.349   6.180  0.4405 -0.9447  1.2413
 7396TIP3    H243680   6.240   1.385   6.090 -0.2024 -1.6138  0.1353
 7397TIP3   OH243681   5.904   0.492   1.211 -0.2611  0.1648 -0.1617
 7397TIP3    H143682   5.873   0.551   1.280 -0.8302 -0.1850 -0.1166
 7397TIP3    H243683   5.951   0.423   1.258  0.6795  0.7397 -0.2357
 7398TIP3   OH243684   2.396   4.620   6.224  0.0514  0.2286 -0.2420
 7398TIP3    H143685   2.386   4.525   6.238 -4.8340  0.5475 -0.6836
 7398TIP3    H243686   2.426   4.653   6.309  0.6295 -1.5567  0.2934
 7399TIP3   OH243687   3.676   1.534   2.658  0.3044  0.4948 -0.3250
 7399TIP3    H143688   3.638   1.622   2.655 -1.1818 -0.0611  1.1699
 7399TIP3    H243689   3.600   1.476   2.670  1.5291 -0.7109  1.8472
 7400TIP3   OH243690   5.473   3.568  12.119 -0.7316  0.5474 -0.0533
 7400TIP3    H143691   5.417   3.609  12.053 -0.5481  0.7882 -0.0623
 7400TIP3    H243692   5.562   3.585  12.088 -0.6501  0.4263  0.1167
 7401TIP3   OH243693   1.261   6.792  16.448  0.5562  0.0643  0.1686
 7401TIP3    H143694   1.334   6.759  16.396  0.2170  1.4530 -1.2458
 7401TIP3    H243695   1.188   6.733  16.427  0.6147  0.1812 -0.3647
 7402TIP3   OH243696   4.806   3.200  16.844  0.4512 -0.1390 -0.5282
 7402TIP3    H143697   4.722   3.154  16.851 -0.0235  0.7573 -0.3777
 7402TIP3    H243698   4.856   3.169  16.920 -0.2831  0.4357  0.2056
 7403TIP3   OH243699   2.959   2.859   4.090  0.1324  0.7492  0.0866
 7403TIP3    H143700   2.940   2.845   4.183 -0.2759  1.3003  0.0882
 7403TIP3    H243701   3.046   2.819   4.077 -0.5792 -0.8947  0.2917
 7404TIP3   OH243702   0.259   5.847   1.740 -0.6999  0.1929 -0.0083
 7404TIP3    H143703   0.279   5.779   1.805 -0.6051  0.5638  0.3532
 7404TIP3    H243704   0.342   5.865   1.698 -1.0295 -1.0943 -1.2639
 7405TIP3   OH243705   1.807   6.642  11.732  0.3274  0.1142  0.1106
 7405TIP3    H143706   1.795   6.554  11.768  0.4638  0.3958  0.8545
 7405TIP3    H243707   1.721   6.683  11.739  0.9675  1.1562  2.8172
 7406TIP3   OH243708   6.005   2.887   0.802  0.1488  0.3143 -0.1983
 7406TIP3    H143709   6.000   2.965   0.746  0.3556  0.6556  0.2629
 7406TIP3    H243710   6.069   2.909   0.869 -0.1036 -0.0961  0.1818
 7407TIP3   OH243711   1.274   3.642  16.043 -0.1584 -0.2569 -0.4484
 7407TIP3    H143712   1.309   3.554  16.031 -1.2553 -0.9333  1.1230
 7407TIP3    H243713   1.245   3.668  15.955 -0.4919 -1.7543 -0.8046
 7408TIP3   OH243714   4.956   3.136   6.217  0.4121 -0.6027 -0.3480
 7408TIP3    H143715   4.887   3.097   6.270 -0.8037 -0.9040 -2.0935
 7408TIP3    H243716   4.980   3.216   6.264 -1.0496 -0.5586  0.3634
 7409TIP3   OH243717   1.492   4.154  11.031  0.0933  0.0367  0.0952
 7409TIP3    H143718   1.503   4.097  11.107 -1.0777 -0.9943 -0.5026
 7409TIP3    H243719   1.474   4.095  10.958 -0.0888  1.0947 -0.7395
 7410TIP3   OH243720   2.524   0.105  10.753 -0.3644 -0.0864  0.2548
 7410TIP3    H143721   2.557   0.187  10.717 -1.0652  0.4460  0.8244
 7410TIP3    H243722   2.437   0.096  10.714 -1.3138  0.7179  2.1460
 7411TIP3   OH243723   5.291   4.917  13.072 -1.0601  1.4188  0.0047
 7411TIP3    H143724   5.271   4.826  13.049 -1.6849  0.6853  3.2304
 7411TIP3    H243725   5.383   4.915  13.097 -1.6226  1.1946  2.1488
 7412TIP3   OH243726   0.549   5.561   5.788 -0.6716 -0.4525 -0.1107
 7412TIP3    H143727   0.575   5.584   5.698 -0.2815 -0.7947 -0.0881
 7412TIP3    H243728   0.472   5.615   5.805  0.8555  1.6421  0.3393
 7413TIP3   OH243729   1.218   2.950   4.163  0.2443  0.2456 -0.1731
 7413TIP3    H143730   1.269   2.870   4.177 -0.9060 -0.3593  0.6826
 7413TIP3    H243731   1.250   2.984   4.079 -0.0142 -1.7282 -1.1205
 7414TIP3   OH243732   1.297   1.657   6.047  0.0808 -0.2580  0.0001
 7414TIP3    H143733   1.328   1.585   6.102 -0.8275 -0.7254 -0.0986
 7414TIP3    H243734   1.350   1.732   6.074  2.2464 -1.3498 -1.0759
 7415TIP3   OH243735   1.057   5.552  12.547  0.0271 -0.3296  0.2662
 7415TIP3    H143736   1.095   5.637  12.523  0.6761 -0.8203 -0.4849
 7415TIP3    H243737   0.965   5.559  12.522  0.1768  0.0077 -0.2067
 7416TIP3   OH243738   5.298   2.540   4.024  0.3395  0.3440 -0.3017
 7416TIP3    H143739   5.284   2.528   3.930  1.0593  3.0099 -0.7739
 7416TIP3    H243740   5.356   2.467   4.048  1.1729  0.3311 -2.1886
 7417TIP3   OH243741   1.775   0.252   6.475 -0.0529  0.2401  0.2441
 7417TIP3    H143742   1.715   0.313   6.432  1.1704  0.0753 -1.7460
 7417TIP3    H243743   1.823   0.306   6.538 -0.6612  0.8213  0.2163
 7418TIP3   OH243744   1.234   6.370   6.239 -0.1545 -0.2653  0.6254
 7418TIP3    H143745   1.263   6.293   6.190  0.4856  0.3784 -0.0158
 7418TIP3    H243746   1.211   6.335   6.326 -0.3042 -1.2435  0.2053
 7419TIP3   OH243747   3.643   1.250   5.696 -0.0409 -0.6013  0.6501
 7419TIP3    H143748   3.578   1.220   5.759  0.2592  0.2420  1.3740
 7419TIP3    H243749   3.727   1.238   5.742  0.4850 -3.4758 -0.9677
 7420TIP3   OH243750   3.048   1.762   3.350 -0.0274 -0.3074 -0.3948
 7420TIP3    H143751   3.090   1.688   3.393 -1.0222  0.2846  1.6500
 7420TIP3    H243752   3.021   1.820   3.422 -1.2905  0.9471 -1.8392
 7421TIP3   OH243753   4.973   3.869  13.734 -0.1423 -0.0168  0.1767
 7421TIP3    H143754   5.046   3.921  13.702 -0.7530  0.9352  0.3097
 7421TIP3    H243755   4.972   3.885  13.829 -1.2632  0.9465  0.0184
 7422TIP3   OH243756   3.482   1.011  13.371  0.3643  0.0329 -0.0193
 7422TIP3    H143757   3.520   1.023  13.284 -0.9569 -1.3994 -0.8128
 7422TIP3    H243758   3.521   0.930  13.403 -0.7292 -0.5540 -0.1539
 7423TIP3   OH243759   0.383   6.316   2.035 -0.5787 -0.6298  1.0865
 7423TIP3    H143760   0.402   6.293   1.944  1.2359  0.8166  1.0749
 7423TIP3    H243761   0.288   6.330   2.037 -0.6050 -0.4275 -0.6339
 7424TIP3   OH243762   6.125   2.548  12.903  0.2607  0.1545 -0.4357
 7424TIP3    H143763   6.128   2.644  12.908 -3.0116  0.2487  0.4465
 7424TIP3    H243764   6.093   2.520  12.989 -0.6453 -1.6272 -1.3300
 7425TIP3   OH243765   4.121   1.586  11.190  0.4451 -0.7416 -0.1208
 7425TIP3    H143766   4.035   1.556  11.162  1.0522 -1.6184 -1.1246
 7425TIP3    H243767   4.176   1.507  11.189  1.3310 -0.1460  0.1939
 7426TIP3   OH243768   3.384   6.806   3.129  0.6923 -0.0736  0.2534
 7426TIP3    H143769   3.454   6.820   3.065 -0.2125 -0.0758 -0.7396
 7426TIP3    H243770   3.412   6.856   3.206  1.1967  0.9381 -0.5680
 7427TIP3   OH243771   3.623   0.183   0.825 -0.0175 -0.8124  0.2363
 7427TIP3    H143772   3.650   0.097   0.792 -0.5035 -0.8835  0.0294
 7427TIP3    H243773   3.593   0.166   0.915  0.0727 -0.8251  0.2645
 7428TIP3   OH243774   5.596   3.888   4.549  0.9871 -0.5377 -0.4129
 7428TIP3    H143775   5.551   3.909   4.467  1.5292  0.1771 -0.5321
 7428TIP3    H243776   5.561   3.950   4.612 -0.0714 -1.6562  0.1208
 7429TIP3   OH243777   6.657   0.857   5.643 -0.2936 -0.2992  0.2822
 7429TIP3    H143778   6.717   0.802   5.693  0.1700  1.1535  1.3559
 7429TIP3    H243779   6.670   0.945   5.678 -0.5445  0.6265 -1.8568
 7430TIP3   OH243780   0.232   0.443  16.206 -0.7876  0.6601 -0.0475
 7430TIP3    H143781   0.298   0.463  16.139 -1.4838 -3.0308 -1.9495
 7430TIP3    H243782   0.281   0.444  16.288  1.2364  0.1315 -1.1989
 7431TIP3   OH243783   2.554   0.165   2.492  0.1467 -0.2711 -0.3810
 7431TIP3    H143784   2.603   0.178   2.573 -0.6157 -1.0436  0.2167
 7431TIP3    H243785   2.510   0.249   2.477  0.1214 -0.1923  0.1253
 7432TIP3   OH243786   3.964   1.035  13.718  1.0206  0.1944 -0.2400
 7432TIP3    H143787   3.897   1.035  13.649  1.6641 -1.6321 -0.9042
 7432TIP3    H243788   4.044   1.065  13.674  0.8353  1.5747  0.3510
 7433TIP3   OH243789   4.359   3.908   1.066 -0.5976 -0.4472 -0.0694
 7433TIP3    H143790   4.449   3.942   1.070 -0.3086 -1.2774  0.8050
 7433TIP3    H243791   4.343   3.891   0.973 -0.5080  1.4278 -0.4451
 7434TIP3   OH243792   3.379   1.767  14.471  0.0413  0.5717 -0.0724
 7434TIP3    H143793   3.326   1.786  14.394 -0.0167  1.0125  0.0766
 7434TIP3    H243794   3.393   1.672  14.468 -0.3696  0.5216 -0.3588
 7435TIP3   OH243795   3.991   4.996   3.688  0.3719 -0.1422 -0.4646
 7435TIP3    H143796   4.064   5.008   3.627  1.9779 -0.0379  1.4661
 7435TIP3    H243797   3.949   5.082   3.693  1.4442  0.3470  0.1149
 7436TIP3   OH243798   0.348   3.945   1.417  0.6035  0.2793  0.0775
 7436TIP3    H143799   0.289   3.998   1.469 -0.6745 -0.6667 -0.3801
 7436TIP3    H243800   0.342   3.857   1.455  0.1342 -0.2803 -1.2257
 7437TIP3   OH243801   1.995   2.316  12.895 -0.4730 -0.0379  0.3018
 7437TIP3    H143802   2.038   2.396  12.865 -1.5886  0.4064 -0.1508
 7437TIP3    H243803   1.911   2.346  12.930 -0.9806 -1.0365 -0.0463
 7438TIP3   OH243804   4.413   6.256  12.123  0.1076  0.1972 -0.5051
 7438TIP3    H143805   4.349   6.188  12.104  0.5965  0.0521 -1.6420
 7438TIP3    H243806   4.438   6.241  12.215 -2.1684  0.8277  0.2581
 7439TIP3   OH243807   3.185   3.457   2.618 -0.3177  0.4050 -0.0700
 7439TIP3    H143808   3.241   3.379   2.621  0.3089  0.8551  0.1197
 7439TIP3    H243809   3.244   3.529   2.642 -0.5841  1.1068 -1.4836
 7440TIP3   OH243810   0.032   0.100   3.391 -0.1348  0.2204 -0.3431
 7440TIP3    H143811   0.067   0.145   3.314 -0.0166 -1.7652 -1.4990
 7440TIP3    H243812   0.046   0.161   3.463  1.2348  1.4698 -1.6286
 7441TIP3   OH243813   6.762   0.534  14.386  0.1409 -0.1170 -0.0578
 7441TIP3    H143814   6.696   0.601  14.407  3.1934  3.1039 -0.1834
 7441TIP3    H243815   6.815   0.528  14.465 -0.1517 -2.5272 -0.0272
 7442TIP3   OH243816   5.581   4.953  15.000  0.3529 -0.4426 -0.1125
 7442TIP3    H143817   5.521   4.954  15.074  0.1289 -0.0917 -0.3027
 7442TIP3    H243818   5.645   5.021  15.020  0.1626 -0.1926 -0.3472
 7443TIP3   OH243819   0.881   0.686   3.835  0.0724 -0.6109  0.0209
 7443TIP3    H143820   0.811   0.660   3.776  0.5087 -0.8798 -0.3859
 7443TIP3    H243821   0.914   0.604   3.872  1.1542 -0.6172 -0.9203
 7444TIP3   OH243822   5.727   5.770   0.272 -0.3883 -0.0629 -0.3407
 7444TIP3    H143823   5.749   5.774   0.178  1.5070 -0.8218  0.0615
 7444TIP3    H243824   5.786   5.833   0.313 -0.7679 -0.2032  0.4244
 7445TIP3   OH243825   4.045   4.429  14.129  0.0019 -0.4162 -0.4270
 7445TIP3    H143826   4.058   4.336  14.109  1.4596 -0.6966  1.6326
 7445TIP3    H243827   3.975   4.430  14.195 -0.2084 -0.0232 -0.6549
 7446TIP3   OH243828   3.465   2.075   3.553  0.1645  0.1640  0.4853
 7446TIP3    H143829   3.417   2.131   3.490  0.5219  0.3171  0.3464
 7446TIP3    H243830   3.502   2.006   3.499 -0.9397 -0.6622  0.7684
 7447TIP3   OH243831   4.124   0.487  13.994 -0.4532  0.2186  0.0208
 7447TIP3    H143832   4.042   0.508  14.038 -0.2757  0.7966  0.0700
 7447TIP3    H243833   4.108   0.400  13.955 -1.0863  0.3306  0.0203
 7448TIP3   OH243834   4.882   1.384  17.146 -0.2941 -0.2159  0.6354
 7448TIP3    H143835   4.878   1.348  17.057  0.7332 -1.7938  1.1854
 7448TIP3    H243836   4.853   1.474  17.137  0.9673  0.0227 -1.5195
 7449TIP3   OH243837   3.115   4.316   5.225 -0.0795 -0.3528  0.5556
 7449TIP3    H143838   3.021   4.329   5.231  0.2399  1.2817  2.6764
 7449TIP3    H243839   3.144   4.308   5.316  1.8075 -0.9153 -0.0763
 7450TIP3   OH243840   5.809   4.372  14.198  0.0962  0.4409 -0.2239
 7450TIP3    H143841   5.796   4.355  14.105  1.9937  1.1876 -0.6360
 7450TIP3    H243842   5.748   4.444  14.218 -1.3950 -0.7216 -0.5209
 7451TIP3   OH243843   3.761   1.317   1.139  0.1433 -0.0849 -0.0545
 7451TIP3    H143844   3.812   1.348   1.214 -2.5615 -1.9713  2.6958
 7451TIP3    H243845   3.682   1.370   1.140 -0.8577 -1.5315 -0.2324
 7452TIP3   OH243846   5.117   2.340  13.270  0.4618 -0.2368  0.4980
 7452TIP3    H143847   5.142   2.269  13.330  1.1160 -0.3126  0.1335
 7452TIP3    H243848   5.077   2.296  13.195  0.1991 -0.1763  0.6015
 7453TIP3   OH243849   4.437   6.040  11.473 -0.2760 -0.3760 -0.2006
 7453TIP3    H143850   4.381   6.113  11.445  1.8420  0.9700 -1.0285
 7453TIP3    H243851   4.417   5.969  11.412 -0.1603  0.5187 -1.2875
 7454TIP3   OH243852   3.727   1.017   2.685  0.1718  0.8942 -0.3413
 7454TIP3    H143853   3.644   0.980   2.655  0.2567  1.4962 -1.3815
 7454TIP3    H243854   3.731   0.997   2.778 -1.1088  0.7960 -0.2992
 7455TIP3   OH243855   6.436   4.037  13.892 -0.8141  0.0884  0.4741
 7455TIP3    H143856   6.517   4.058  13.937 -1.3437  2.0935  0.5438
 7455TIP3    H243857   6.455   4.051  13.799 -0.6584 -0.9064  0.3482
 7456TIP3   OH243858   4.112   0.960   3.337  0.4634 -0.9406  0.0177
 7456TIP3    H143859   4.073   1.021   3.274 -1.6968 -0.1093  2.1076
 7456TIP3    H243860   4.200   0.943   3.302  0.8566  2.8033 -0.9708
 7457TIP3   OH243861   0.278   2.159  14.794  0.4711 -0.0239  0.4782
 7457TIP3    H143862   0.351   2.208  14.833 -0.1941  1.8747 -0.5513
 7457TIP3    H243863   0.217   2.227  14.765 -2.0784 -1.5993  1.9714
 7458TIP3   OH243864   0.619   6.217   4.360  0.5476 -0.1482  0.5081
 7458TIP3    H143865   0.526   6.214   4.379  0.4093  0.3075 -0.1018
 7458TIP3    H243866   0.650   6.298   4.401  0.4410  0.3234 -0.3396
 7459TIP3   OH243867   0.086   2.909  14.110 -0.3879  0.9031  0.5930
 7459TIP3    H143868   0.013   2.971  14.111  0.7573  2.2614  0.9194
 7459TIP3    H243869   0.125   2.919  14.023 -0.3024  0.5059  0.5843
 7460TIP3   OH243870   2.084   5.315  14.954  0.0436  0.3254  0.5936
 7460TIP3    H143871   2.070   5.257  14.879 -0.5255 -0.2574  1.1450
 7460TIP3    H243872   1.999   5.319  14.997  0.2933  0.9112  1.0299
 7461TIP3   OH243873   1.347   6.506   1.527  0.5064 -0.1792 -0.1068
 7461TIP3    H143874   1.391   6.566   1.466 -1.4868  1.1705 -0.2990
 7461TIP3    H243875   1.317   6.563   1.597  1.4619 -1.5048  1.3944
 7462TIP3   OH243876   3.707   4.072   5.421 -0.1264 -0.2527  0.0489
 7462TIP3    H143877   3.793   4.083   5.461  1.0525 -1.1189 -2.1452
 7462TIP3    H243878   3.718   3.999   5.361 -2.0989  0.3745 -1.1283
 7463TIP3   OH243879   2.381   0.075  15.431 -0.2719  0.4663  0.0039
 7463TIP3    H143880   2.370   0.124  15.512 -0.4730  1.9449 -0.9128
 7463TIP3    H243881   2.459   0.112  15.391  0.3898 -0.9151 -0.0340
 7464TIP3   OH243882   4.820   6.038   0.213  0.0861 -0.3398  0.5170
 7464TIP3    H143883   4.857   6.064   0.129  1.8839 -1.4420  0.9342
 7464TIP3    H243884   4.769   6.114   0.242 -1.0137 -0.1582 -1.8079
 7465TIP3   OH243885   2.714   0.779   2.089 -0.3310 -0.1991 -0.3973
 7465TIP3    H143886   2.630   0.790   2.134 -0.6433 -1.7571 -0.5529
 7465TIP3    H243887   2.722   0.684   2.077  1.3648 -0.0476 -0.5644
 7466TIP3   OH243888   3.024   1.094  13.400  0.8843  0.8539 -0.0277
 7466TIP3    H143889   3.091   1.109  13.333  1.7408 -2.0266  0.1476
 7466TIP3    H243890   3.015   0.999  13.405 -1.9493  1.1332  1.2323
 7467TIP3   OH243891   2.573   4.634  12.537  0.0767  0.2335  0.1110
 7467TIP3    H143892   2.569   4.729  12.550 -0.8018  0.0278  1.4882
 7467TIP3    H243893   2.486   4.611  12.505 -0.4780 -0.4085  2.0395
 7468TIP3   OH243894   5.782   3.808  11.536  0.3156 -0.3293 -0.4628
 7468TIP3    H143895   5.707   3.856  11.500  0.3185 -0.7355 -1.0172
 7468TIP3    H243896   5.744   3.752  11.603  0.4614  1.2464  0.9677
 7469TIP3   OH243897   2.955   3.860  12.029 -0.1240  0.3657  0.0607
 7469TIP3    H143898   2.955   3.956  12.021 -0.9735  0.4091  0.5712
 7469TIP3    H243899   2.992   3.843  12.116 -0.9569  0.2733  0.4022
 7470TIP3   OH243900   6.255   6.415  15.644 -0.1431  0.3406 -0.3016
 7470TIP3    H143901   6.185   6.406  15.709 -1.1098  1.4888 -1.1340
 7470TIP3    H243902   6.281   6.507  15.650  0.3333  0.2517 -0.9591
 7471TIP3   OH243903   5.641   6.541   1.684 -0.0582 -0.0233  0.1955
 7471TIP3    H143904   5.569   6.566   1.742 -0.0124  0.8351 -0.1048
 7471TIP3    H243905   5.633   6.600   1.609  0.2975 -0.6631 -0.3542
 7472TIP3   OH243906   5.035   5.701  16.276 -0.2709  0.3740 -0.4193
 7472TIP3    H143907   4.954   5.661  16.306 -0.7569  1.9984  0.4931
 7472TIP3    H243908   5.033   5.691  16.181 -1.5039  0.3307 -0.3996
 7473TIP3   OH243909   6.015   1.362   5.535  0.6966 -0.8690  0.4660
 7473TIP3    H143910   5.948   1.352   5.468  1.4627  0.2575 -0.4962
 7473TIP3    H243911   6.060   1.277   5.538  1.2235 -0.6481 -1.0739
 7474TIP3   OH243912   4.727   5.252  15.141  0.3056 -0.4588 -0.5269
 7474TIP3    H143913   4.761   5.224  15.056  0.6131  0.6300 -0.7648
 7474TIP3    H243914   4.668   5.325  15.121 -0.4289 -0.8693  0.0985
 7475TIP3   OH243915   5.195   0.698   1.971  0.6481 -0.1746  0.3124
 7475TIP3    H143916   5.262   0.659   2.027  0.6057  0.9822  1.1885
 7475TIP3    H243917   5.133   0.738   2.031 -0.6976 -0.9863 -0.5024
 7476TIP3   OH243918   0.900   0.693  14.288 -0.9259 -0.3947  0.5293
 7476TIP3    H143919   0.930   0.770  14.240 -0.8131 -1.0055 -0.3997
 7476TIP3    H243920   0.809   0.710  14.309 -1.3560 -0.6830 -1.0721
 7477TIP3   OH243921   3.477   6.476   1.703  0.2382  0.2975  0.6343
 7477TIP3    H143922   3.461   6.562   1.664  0.4051 -0.6848 -1.7023
 7477TIP3    H243923   3.408   6.420   1.667 -0.0080 -0.5177  2.3088
 7478TIP3   OH243924   5.261   2.729  14.410  0.5013 -0.3498 -0.3591
 7478TIP3    H143925   5.277   2.818  14.378 -0.3969  0.2993  0.9305
 7478TIP3    H243926   5.327   2.716  14.478  0.5803 -0.6516 -0.4929
 7479TIP3   OH243927   2.921   4.484  11.432 -0.1936  0.5065 -0.3493
 7479TIP3    H143928   2.881   4.484  11.345  1.9748 -2.3203 -1.4072
 7479TIP3    H243929   2.860   4.435  11.487  0.1307 -0.7988 -1.1422
 7480TIP3   OH243930   5.191   6.727   5.151  0.6650 -0.0683 -0.0254
 7480TIP3    H143931   5.237   6.677   5.219  0.2583  0.6554  0.7915
 7480TIP3    H243932   5.107   6.684   5.142  0.8761 -0.4121 -0.3639
 7481TIP3   OH243933   3.595   4.639   5.636  0.2199  0.2016  0.5601
 7481TIP3    H143934   3.590   4.641   5.541 -0.5000 -0.6964  0.5740
 7481TIP3    H243935   3.518   4.687   5.666  0.0353 -0.1666  0.6880
 7482TIP3   OH243936   3.664   4.514   3.834 -0.7285 -0.2702 -0.1208
 7482TIP3    H143937   3.633   4.560   3.756  0.2065 -1.1551 -1.0387
 7482TIP3    H243938   3.607   4.545   3.905 -0.9669  1.2851 -0.9591
 7483TIP3   OH243939   3.243   6.072   3.623 -0.4626  0.1530 -0.0791
 7483TIP3    H143940   3.277   6.111   3.542 -2.5449  0.4202 -0.8463
 7483TIP3    H243941   3.177   6.009   3.593 -0.1063 -0.9236  1.3490
 7484TIP3   OH243942   1.259   3.606   1.092  0.4296 -0.2742  0.1654
 7484TIP3    H143943   1.330   3.585   1.154 -0.5476  1.3937  1.9070
 7484TIP3    H243944   1.197   3.534   1.102  1.0777 -0.8814 -0.1276
 7485TIP3   OH243945   4.316   2.645   4.677 -0.7835  0.1055 -0.0597
 7485TIP3    H143946   4.316   2.591   4.599  0.5241 -2.1212  1.4313
 7485TIP3    H243947   4.375   2.600   4.738 -0.6993  2.4936  1.7115
 7486TIP3   OH243948   1.945   4.441   1.691  0.7378 -0.2658  0.3205
 7486TIP3    H143949   1.873   4.475   1.638  1.0032  0.8605  0.6653
 7486TIP3    H243950   2.024   4.456   1.639  0.8778 -0.1669  0.5568
 7487TIP3   OH243951   2.993   2.112  15.921 -0.0945  0.5139 -0.0894
 7487TIP3    H143952   2.946   2.058  15.984 -0.4283  0.8359 -0.0625
 7487TIP3    H243953   2.970   2.202  15.945  1.6800  0.7351  0.8346
 7488TIP3   OH243954   3.886   2.963  15.472  0.2231 -0.1181  0.2214
 7488TIP3    H143955   3.796   2.972  15.440  0.2752 -0.0109  0.1047
 7488TIP3    H243956   3.927   3.047  15.453  0.1797  0.0404  0.8132
 7489TIP3   OH243957   1.223   3.844  14.033 -0.3627 -0.0506 -0.3477
 7489TIP3    H143958   1.196   3.905  13.964 -0.1647  0.0673 -0.3217
 7489TIP3    H243959   1.318   3.839  14.023 -0.1704  1.0264  0.8016
 7490TIP3   OH243960   0.123   5.588   5.083 -0.9166  0.1095  0.2397
 7490TIP3    H143961   0.135   5.496   5.059 -2.0168 -0.2972  1.2199
 7490TIP3    H243962   0.149   5.636   5.005  0.3033 -1.0103 -0.0533
 7491TIP3   OH243963   3.186   4.776   1.035  0.2659  0.0319  0.0012
 7491TIP3    H143964   3.269   4.729   1.043 -0.4697 -1.2929  0.0131
 7491TIP3    H243965   3.150   4.778   1.123  0.0295  0.1212 -0.0960
 7492TIP3   OH243966   0.992   1.748   1.429 -1.0232  0.0823  0.4369
 7492TIP3    H143967   1.085   1.772   1.437 -1.3555  0.9005  2.1370
 7492TIP3    H243968   0.978   1.686   1.501 -1.8886  0.2538  0.4172
 7493TIP3   OH243969   3.692   5.891   1.685  0.7086 -0.1334  0.5314
 7493TIP3    H143970   3.664   5.983   1.689  3.7284  0.8467  0.3769
 7493TIP3    H243971   3.612   5.841   1.699 -1.5114  2.4896 -2.0375
 7494TIP3   OH243972   5.755   6.699   0.447 -0.0443  0.1030  0.4810
 7494TIP3    H143973   5.832   6.693   0.504 -1.3226 -0.0699  2.1976
 7494TIP3    H243974   5.718   6.785   0.466 -0.2470  0.2287 -0.4273
 7495TIP3   OH243975   5.071   4.749  15.101  1.0999 -0.3490  0.0439
 7495TIP3    H143976   5.011   4.728  15.172  1.7193  2.6772  1.5334
 7495TIP3    H243977   5.026   4.720  15.022 -1.9054  0.9818  1.2061
 7496TIP3   OH243978   3.585   4.095   5.705 -0.7921 -0.2743 -0.3575
 7496TIP3    H143979   3.566   4.060   5.617  0.1458  0.9599 -1.0702
 7496TIP3    H243980   3.577   4.190   5.695 -1.5882 -0.1667  1.1309
 7497TIP3   OH243981   3.664   4.370  11.073 -0.2046 -0.4909  0.2776
 7497TIP3    H143982   3.750   4.354  11.033 -0.2922  0.4280 -0.2909
 7497TIP3    H243983   3.639   4.285  11.111  0.3810 -1.0958 -0.6551
 7498TIP3   OH243984   2.737   1.818  12.343  0.6118  0.1023 -0.2575
 7498TIP3    H143985   2.825   1.847  12.367  0.3705  0.8952 -0.3294
 7498TIP3    H243986   2.689   1.899  12.326  0.3662 -0.3887 -1.9699
 7499TIP3   OH243987   4.221   3.313  13.678 -0.2350 -0.4392  0.3867
 7499TIP3    H143988   4.158   3.241  13.684 -1.2911  0.6137  2.3568
 7499TIP3    H243989   4.176   3.380  13.627  0.0266 -0.4573  0.1360
 7500TIP3   OH243990   6.645   2.368   5.371 -0.1820 -0.2452  0.4156
 7500TIP3    H143991   6.584   2.423   5.321 -2.4042 -2.2159  0.8562
 7500TIP3    H243992   6.672   2.422   5.445 -1.7834  0.5133  0.4637
 7501TIP3   OH243993   6.532   3.784  10.631  0.0437 -0.1601 -0.3813
 7501TIP3    H143994   6.518   3.878  10.636  2.0784  0.0916  0.9201
 7501TIP3    H243995   6.453   3.746  10.669 -0.7091  1.0154 -0.7527
 7502TIP3   OH243996   1.782   6.104  15.370 -0.2290  0.1974  0.3791
 7502TIP3    H143997   1.796   6.165  15.297  0.5967 -1.8795 -1.2331
 7502TIP3    H243998   1.688   6.105  15.384 -0.6348 -0.8565 -2.0465
 7503TIP3   OH243999   2.344   6.534  16.220 -0.6315 -0.1769  0.2624
 7503TIP3    H144000   2.332   6.449  16.262 -1.6454 -1.2471 -2.1439
 7503TIP3    H244001   2.426   6.527  16.172 -1.3798 -0.2666 -1.0196
 7504TIP3   OH244002   6.576   5.005   1.009  0.2520  0.7650  0.4498
 7504TIP3    H144003   6.516   4.945   0.966 -1.3960  2.5165  0.2200
 7504TIP3    H244004   6.657   5.000   0.958  0.6204 -2.2650  1.2769
 7505TIP3   OH244005   3.727   6.564  14.213  0.3168 -0.1291  0.5860
 7505TIP3    H144006   3.686   6.640  14.172 -0.2235 -0.5329  0.3761
 7505TIP3    H244007   3.734   6.588  14.306 -1.0400 -0.3320  0.7453
 7506TIP3   OH244008   2.425   1.560  16.486 -0.0534  0.1214  0.3867
 7506TIP3    H144009   2.507   1.512  16.481 -0.3036 -0.3571  0.9037
 7506TIP3    H244010   2.413   1.579  16.579 -0.7836 -0.2573  0.3782
 7507TIP3   OH244011   2.755   6.152   6.197  0.0235 -0.1904 -0.4867
 7507TIP3    H144012   2.802   6.088   6.250  0.5081  2.0313  1.8536
 7507TIP3    H244013   2.776   6.129   6.107  0.2171 -3.2828  0.3054
 7508TIP3   OH244014   5.268   4.790  12.644 -0.0895 -0.0567  0.5270
 7508TIP3    H144015   5.351   4.742  12.645 -0.4287 -0.7182 -1.1746
 7508TIP3    H244016   5.293   4.881  12.662  0.9395 -0.3351  0.5503
 7509TIP3   OH244017   2.887   2.560  11.453  0.3987 -0.3913  0.0199
 7509TIP3    H144018   2.943   2.526  11.523  1.4185 -1.1815 -1.1648
 7509TIP3    H244019   2.943   2.620  11.404 -0.5335  0.7507  0.3266
 7510TIP3   OH244020   3.436   3.761  11.871  0.1019  0.5249 -0.1421
 7510TIP3    H144021   3.410   3.843  11.828  1.0178  0.3736 -1.0135
 7510TIP3    H244022   3.467   3.706  11.799 -2.0779 -1.2305  0.2274
 7511TIP3   OH244023   4.258   3.197   1.485  0.2378  0.6366 -0.5009
 7511TIP3    H144024   4.259   3.124   1.546  2.2450 -0.1516 -1.4084
 7511TIP3    H244025   4.179   3.184   1.433  0.2648 -0.5678 -0.2629
 7512TIP3   OH244026   3.735   3.523  14.093  0.0336 -0.2268  0.0652
 7512TIP3    H144027   3.664   3.462  14.114 -1.5319  1.5048 -0.1129
 7512TIP3    H244028   3.808   3.494  14.149 -0.7089 -2.1700  0.0726
 7513TIP3   OH244029   6.566   5.073  15.659 -0.4030 -0.2169 -0.1160
 7513TIP3    H144030   6.604   5.009  15.600  0.7148  1.1913 -0.9517
 7513TIP3    H244031   6.590   5.158  15.621 -1.0145  0.6935  1.4930
 7514TIP3   OH244032   4.062   3.784   5.977  0.2036  0.4053 -0.6016
 7514TIP3    H144033   4.089   3.852   6.038  1.2750  0.1480 -0.7839
 7514TIP3    H244034   4.015   3.721   6.031  0.4106  0.6006 -0.1892
 7515TIP3   OH244035   2.014   5.802  14.534  0.6236 -0.3781  0.2599
 7515TIP3    H144036   1.951   5.797  14.462  3.0113  2.7057 -2.1836
 7515TIP3    H244037   1.962   5.831  14.609 -1.2039  0.2040 -1.1997
 7516TIP3   OH244038   3.036   0.282   5.403 -0.4070  0.4207 -0.2082
 7516TIP3    H144039   3.001   0.351   5.347  1.0686 -0.2305 -1.9919
 7516TIP3    H244040   3.006   0.305   5.491 -2.5739  1.6031 -1.2100
 7517TIP3   OH244041   5.797   5.101  11.793 -0.4856 -0.5461  0.0496
 7517TIP3    H144042   5.868   5.089  11.730 -0.9986 -0.6094 -0.5170
 7517TIP3    H244043   5.779   5.013  11.826 -3.1939 -1.1973 -2.9632
 7518TIP3   OH244044   1.334   1.519  13.291  0.3316  0.3721  0.0332
 7518TIP3    H144045   1.374   1.437  13.320  1.5582  1.1185  0.5221
 7518TIP3    H244046   1.303   1.502  13.203 -0.7951 -1.0680  0.6887
 7519TIP3   OH244047   2.656   2.276   1.950  0.3320  0.4331 -0.0973
 7519TIP3    H144048   2.733   2.221   1.965  0.0943 -0.5185 -2.2657
 7519TIP3    H244049   2.690   2.353   1.905 -0.0312 -0.2147 -1.5061
 7520TIP3   OH244050   1.746   6.149   4.376 -0.4726 -0.0802  0.3783
 7520TIP3    H144051   1.780   6.137   4.464  1.2717  0.5644 -0.1892
 7520TIP3    H244052   1.671   6.208   4.387  0.2835  0.7130  1.3298
 7521TIP3   OH244053   6.760   1.427  11.956 -0.2110  0.4057  0.2603
 7521TIP3    H144054   6.839   1.479  11.946  1.2874 -1.5627  1.4807
 7521TIP3    H244055   6.703   1.480  12.012 -0.2641  2.3179 -1.5276
 7522TIP3   OH244056   0.000   3.172   5.326 -0.1811  0.2889  0.4650
 7522TIP3    H144057  -0.063   3.103   5.305 -1.0477  1.2124  0.0016
 7522TIP3    H244058  -0.013   3.190   5.419  1.0402 -1.1594  0.9382
 7523TIP3   OH244059   5.325   4.679   1.960 -0.6715 -0.0787  1.0428
 7523TIP3    H144060   5.329   4.678   2.055  1.2479  2.2557  1.0240
 7523TIP3    H244061   5.412   4.652   1.932  0.1158  3.2959  0.0258
 7524TIP3   OH244062   4.991   2.221   4.251 -0.2606  0.3661 -0.5828
 7524TIP3    H144063   4.918   2.282   4.249  0.4573  1.3075  0.8533
 7524TIP3    H244064   5.069   2.276   4.238  0.2288 -0.5824 -1.8101
 7525TIP3   OH244065   2.289   5.477   2.582 -0.2470 -0.5312  0.1955
 7525TIP3    H144066   2.320   5.420   2.511  0.7338  1.1501 -0.7523
 7525TIP3    H244067   2.303   5.566   2.550 -2.2413  0.2794  1.4443
 7526TIP3   OH244068   5.401   6.790  13.515 -0.2960  0.8382 -0.7043
 7526TIP3    H144069   5.317   6.746  13.500  0.7378 -1.3117 -0.5210
 7526TIP3    H244070   5.435   6.806  13.427  0.2736 -0.7243 -0.7975
 7527TIP3   OH244071   0.495   4.113   5.638 -0.1208  0.5353  0.4340
 7527TIP3    H144072   0.495   4.130   5.544  0.6110  0.1565  0.3623
 7527TIP3    H244073   0.410   4.144   5.668 -0.3105  0.7643 -0.3351
 7528TIP3   OH244074   1.448   2.958   5.958  0.2331 -0.5898  0.3628
 7528TIP3    H144075   1.509   3.030   5.974  1.6271 -1.9484  1.3781
 7528TIP3    H244076   1.421   2.969   5.867  0.4029  1.2230  0.5215
 7529TIP3   OH244077   3.276   0.423  13.241  0.2429  0.0135  0.0031
 7529TIP3    H144078   3.272   0.484  13.314 -2.6122 -0.0379 -0.0519
 7529TIP3    H244079   3.194   0.374  13.245  0.1448 -0.2162 -3.0119
 7530TIP3   OH244080   6.597   4.620   2.827  0.5796  0.0525 -0.3976
 7530TIP3    H144081   6.523   4.580   2.781 -2.0833  1.2328  2.6708
 7530TIP3    H244082   6.624   4.553   2.891  0.1537  0.7488  0.5299
 7531TIP3   OH244083   4.384   5.083  13.098 -0.4337  0.3577 -0.4400
 7531TIP3    H144084   4.333   5.056  13.022  0.0905 -3.4605  0.4551
 7531TIP3    H244085   4.331   5.056  13.173  1.7447 -1.5898  0.4991
 7532TIP3   OH244086   0.915   0.897   2.436 -0.2091  0.3082  0.3864
 7532TIP3    H144087   0.858   0.941   2.499  0.3064  0.8108  0.5026
 7532TIP3    H244088   0.952   0.823   2.484 -0.4451  0.2179  0.4304
 7533TIP3   OH244089   2.516   4.493  13.142 -0.2652 -0.3840  0.5366
 7533TIP3    H144090   2.540   4.515  13.052  1.6731  1.5767  1.4649
 7533TIP3    H244091   2.550   4.404  13.155  0.0834 -0.3982 -0.4411
 7534TIP3   OH244092   3.262   5.262   4.572 -0.3938  0.4878 -0.4276
 7534TIP3    H144093   3.274   5.266   4.478  0.4787  1.5400 -0.2884
 7534TIP3    H244094   3.312   5.337   4.606 -2.0958  1.1316  0.7201
 7535TIP3   OH244095   4.648   1.466  14.994  0.5959  0.5117  0.6170
 7535TIP3    H144096   4.626   1.509  15.077 -1.5972  0.8405 -0.0890
 7535TIP3    H244097   4.599   1.384  14.997  0.3211  0.6363 -0.4419
 7536TIP3   OH244098   2.182   6.062   3.741 -0.2254 -0.0246  0.8215
 7536TIP3    H144099   2.088   6.063   3.725 -0.2930 -0.1610  1.2033
 7536TIP3    H244100   2.201   5.972   3.766 -0.1821  0.2591  1.8468
 7537TIP3   OH244101   2.361   1.645  16.914  0.2050  0.5760 -0.3357
 7537TIP3    H144102   2.440   1.619  16.962 -1.2186 -1.4887  0.9511
 7537TIP3    H244103   2.389   1.719  16.860  2.6034  0.9959  1.4044
 7538TIP3   OH244104   3.812   0.332   3.077 -0.1105  0.2059 -0.4967
 7538TIP3    H144105   3.853   0.338   3.163 -1.3727 -0.6798  0.1831
 7538TIP3    H244106   3.733   0.387   3.085  1.0614  2.1741 -1.8883
 7539TIP3   OH244107   3.553   2.470  12.572 -0.4481 -0.1213 -0.5116
 7539TIP3    H144108   3.561   2.409  12.499 -0.1104 -1.1049  0.3293
 7539TIP3    H244109   3.484   2.433  12.627 -0.3403  0.3191 -0.0752
 7540TIP3   OH244110   1.819   0.392   5.046  0.5443  0.1521 -0.3178
 7540TIP3    H144111   1.791   0.464   5.102  1.8951  0.0197  0.5808
 7540TIP3    H244112   1.837   0.320   5.108  2.6072  0.1848 -0.8311
 7541TIP3   OH244113   6.172   3.734   0.708  0.5061  0.2137  0.3008
 7541TIP3    H144114   6.261   3.708   0.729  0.9465  3.2501  2.4512
 7541TIP3    H244115   6.180   3.784   0.626  0.4172 -1.4151 -0.7339
 7542TIP3   OH244116   6.812   3.805  16.920 -0.0789 -0.0908  0.2551
 7542TIP3    H144117   6.720   3.807  16.891  0.3655  0.6059 -1.1233
 7542TIP3    H244118   6.810   3.752  17.000 -2.0095  1.6021  1.3726
 7543TIP3   OH244119   1.783   3.192   1.319 -0.0187  0.0898 -0.6038
 7543TIP3    H144120   1.747   3.261   1.376  1.6651  0.0555  0.5239
 7543TIP3    H244121   1.758   3.110   1.361  1.5098  0.0667  0.2925
 7544TIP3   OH244122   1.405   0.396   2.417  0.1973  0.0293  0.2518
 7544TIP3    H144123   1.448   0.463   2.365  2.8746 -2.2794 -0.6645
 7544TIP3    H244124   1.464   0.381   2.490 -1.1680 -0.1918  1.3244
 7545TIP3   OH244125   2.529   5.781  16.257  0.4688 -0.3965  0.5571
 7545TIP3    H144126   2.447   5.769  16.303  2.0583 -0.6683  3.4216
 7545TIP3    H244127   2.507   5.837  16.182 -2.2597 -0.3390  1.3608
 7546TIP3   OH244128   1.836   3.652  13.133 -0.0972  0.1748 -0.6654
 7546TIP3    H144129   1.826   3.672  13.226  0.9699  1.1402 -0.7476
 7546TIP3    H244130   1.913   3.702  13.106  1.4008 -2.4101 -1.3773
 7547TIP3   OH244131   1.684   5.039  13.797  0.1725 -0.2031  0.1993
 7547TIP3    H144132   1.680   5.010  13.888  0.5589 -0.4916  0.1263
 7547TIP3    H244133   1.764   5.091  13.792 -0.6910  1.2103  0.4170
 7548TIP3   OH244134   5.689   5.525  13.007 -0.2298 -0.1960  0.4442
 7548TIP3    H144135   5.675   5.615  13.036 -0.6044  0.3917 -1.5160
 7548TIP3    H244136   5.782   5.522  12.984 -0.8817  0.5645 -2.4014
 7549TIP3   OH244137   1.012   5.235   6.307 -0.6271 -0.4256 -0.0398
 7549TIP3    H144138   0.995   5.197   6.393  0.6500  0.9281  0.8279
 7549TIP3    H244139   1.105   5.219   6.291 -0.9141 -0.8947 -1.2871
 7550TIP3   OH244140   1.411   3.256  11.962  0.5980  0.0299  0.0574
 7550TIP3    H144141   1.408   3.294  11.874  0.3944  1.0870  0.5104
 7550TIP3    H244142   1.357   3.178  11.956  1.6287 -0.6210 -1.0928
 7551TIP3   OH244143   4.645   1.254  14.466  0.3915 -0.1546  0.7367
 7551TIP3    H144144   4.690   1.324  14.513  1.4049 -0.3519  0.1002
 7551TIP3    H244145   4.703   1.178  14.476 -0.7401 -0.9311  1.5031
 7552TIP3   OH244146   4.368   0.969  12.551 -0.7339  0.2276  0.0059
 7552TIP3    H144147   4.371   1.063  12.532  0.0214  0.1523 -0.2712
 7552TIP3    H244148   4.280   0.942  12.525 -0.8491  0.7948 -0.2144
 7553TIP3   OH244149   2.902   0.114   0.990 -0.3330  0.2359  0.2793
 7553TIP3    H144150   2.961   0.168   0.938  0.0153 -1.6434 -1.3343
 7553TIP3    H244151   2.817   0.121   0.946 -0.6352  0.6374  0.9209
 7554TIP3   OH244152   4.400   0.601   0.064  0.2207 -0.1379 -0.1009
 7554TIP3    H144153   4.350   0.646  -0.003  0.5254  1.1135  0.5030
 7554TIP3    H244154   4.352   0.617   0.145  0.1382 -1.1969  0.0695
 7555TIP3   OH244155   4.378   0.633  15.847  0.5519 -0.2448 -0.6530
 7555TIP3    H144156   4.367   0.538  15.833 -1.0685  0.1227 -2.0869
 7555TIP3    H244157   4.343   0.648  15.936  2.0407 -1.1744  0.1065
 7556TIP3   OH244158   3.440   6.508   5.668 -0.1308  0.1137  0.4926
 7556TIP3    H144159   3.389   6.463   5.601  1.6375 -1.2992  0.0549
 7556TIP3    H244160   3.427   6.456   5.747  0.3347 -0.0560  0.4614
 7557TIP3   OH244161   3.725   5.630  13.627 -0.0986 -0.4239  0.3549
 7557TIP3    H144162   3.817   5.612  13.608 -1.1150 -1.8164 -3.7067
 7557TIP3    H244163   3.704   5.706  13.572 -1.3601 -0.1232  1.2410
 7558TIP3   OH244164   6.406   2.676   3.462 -0.1524  0.6165 -0.2068
 7558TIP3    H144165   6.341   2.691   3.531  0.1965  1.5471 -0.0691
 7558TIP3    H244166   6.490   2.679   3.507  0.1395  2.2754 -0.8111
 7559TIP3   OH244167   0.130   5.781   0.746 -0.1369 -0.5279 -0.0555
 7559TIP3    H144168   0.208   5.784   0.800  0.1742 -1.6621 -0.4357
 7559TIP3    H244169   0.118   5.872   0.716  1.2550 -0.4291 -0.3183
 7560TIP3   OH244170   1.646   4.164  13.726  0.0193 -0.2921  0.1741
 7560TIP3    H144171   1.592   4.187  13.801 -0.9998 -0.5848 -0.4724
 7560TIP3    H244172   1.637   4.069  13.719  1.9033 -0.5624  1.0525
 7561TIP3   OH244173   5.686   4.497   0.522  0.0483 -0.4155 -0.0611
 7561TIP3    H144174   5.660   4.480   0.612 -0.6048  1.7912  0.2073
 7561TIP3    H244175   5.779   4.520   0.527 -0.4989  1.8785  0.3951
 7562TIP3   OH244176   3.612   0.809  15.105 -0.0078  0.1713 -0.5227
 7562TIP3    H144177   3.692   0.848  15.140  0.8335 -0.0824 -2.1196
 7562TIP3    H244178   3.635   0.784  15.015 -1.2638 -1.7129 -0.3518
 7563TIP3   OH244179   6.151   5.486   3.951 -0.2499 -0.1456 -0.4302
 7563TIP3    H144180   6.149   5.458   4.042 -2.1951 -1.1479 -0.7520
 7563TIP3    H244181   6.234   5.452   3.917 -0.0233 -0.7051  0.6776
 7564TIP3   OH244182   0.849   1.141   4.814 -0.5191 -0.0042  0.0359
 7564TIP3    H144183   0.912   1.093   4.760 -0.3588  1.1705 -0.8288
 7564TIP3    H244184   0.776   1.080   4.824 -0.1386 -0.5914 -0.6972
 7565TIP3   OH244185   2.520   3.853  15.571  0.4040  0.6182 -0.5555
 7565TIP3    H144186   2.551   3.834  15.482 -0.4830 -0.8373 -0.5607
 7565TIP3    H244187   2.477   3.938  15.563 -0.1597  0.2444 -1.6509
 7566TIP3   OH244188   2.020   1.113   5.879 -0.2022 -0.4991  0.6634
 7566TIP3    H144189   2.042   1.022   5.902 -0.5533 -0.7152  0.1507
 7566TIP3    H244190   1.996   1.109   5.786 -0.9506 -0.0134  0.8314
 7567TIP3   OH244191   1.604   5.479  11.490 -0.1584 -0.1892 -0.1149
 7567TIP3    H144192   1.697   5.493  11.508 -0.5743  0.6603  1.4138
 7567TIP3    H244193   1.568   5.450  11.573 -1.5649  0.9594 -0.3121
 7568TIP3   OH244194   2.451   4.699  17.219  1.8485 -0.7383 -0.0299
 7568TIP3    H144195   2.423   4.712  17.128  1.8383 -0.3002  0.0373
 7568TIP3    H244196   2.407   4.618  17.246  1.1499 -0.3970 -0.1371
 7569TIP3   OH244197   3.967   5.540  15.472  0.1738 -0.7410 -0.6098
 7569TIP3    H144198   3.879   5.558  15.440  0.1080 -0.4398 -0.2646
 7569TIP3    H244199   3.955   5.480  15.546  0.0746  1.1677  0.9482
 7570TIP3   OH244200   2.112   3.825  11.318 -0.4264  0.4680  0.3216
 7570TIP3    H144201   2.103   3.734  11.290 -3.2752  0.6424  0.4933
 7570TIP3    H244202   2.123   3.875  11.237 -0.3921  0.1134  0.1089
 7571TIP3   OH244203   1.380   0.102  14.810  0.0821  0.3922 -0.2393
 7571TIP3    H144204   1.403   0.195  14.814 -1.8279  0.9387 -1.7719
 7571TIP3    H244205   1.289   0.100  14.782 -0.0865 -1.9408  0.3457
 7572TIP3   OH244206   3.774   4.211  13.856  0.4704 -0.4746  0.5521
 7572TIP3    H144207   3.819   4.180  13.934  0.1116 -0.1997  0.8718
 7572TIP3    H244208   3.691   4.247  13.889  0.6433  0.3214  0.1255
 7573TIP3   OH244209   4.412   3.987  13.846  0.1822 -0.1889  0.2738
 7573TIP3    H144210   4.431   3.921  13.779  0.0238  0.7587 -0.7083
 7573TIP3    H244211   4.331   3.956  13.887 -0.5129 -0.0165 -0.9529
 7574TIP3   OH244212   0.306   0.229  13.723  0.0279  0.3248  0.5405
 7574TIP3    H144213   0.228   0.207  13.774 -1.6483  0.4256 -1.8795
 7574TIP3    H244214   0.284   0.312  13.680  1.7153  0.6802  0.3171
 7575TIP3   OH244215   6.330   0.608  14.084 -0.6753  0.4331  0.5661
 7575TIP3    H144216   6.274   0.685  14.075 -0.2155  0.8963  1.6450
 7575TIP3    H244217   6.323   0.583  14.176  0.9722  0.5713  0.7441
 7576TIP3   OH244218   4.737   5.317  14.861  0.4430 -0.0240  0.6096
 7576TIP3    H144219   4.803   5.324  14.793  1.2006 -3.0342  0.9569
 7576TIP3    H244220   4.661   5.364  14.826  0.9130 -1.2964 -2.1879
 7577TIP3   OH244221   1.064   1.168   5.398  0.1464  0.8760 -0.3458
 7577TIP3    H144222   1.042   1.230   5.328  1.1657  0.1194 -1.3609
 7577TIP3    H244223   1.057   1.082   5.356 -0.9621  0.3148  0.9680
 7578TIP3   OH244224   0.920   0.838   0.670  0.7886 -0.7236 -0.2941
 7578TIP3    H144225   0.939   0.848   0.576  1.5595  0.5308 -0.0129
 7578TIP3    H244226   1.006   0.823   0.710  0.6595  0.3056  0.3943
 7579TIP3   OH244227   3.981   4.948  15.651  0.2681  0.0411  0.5113
 7579TIP3    H144228   3.940   4.941  15.737 -1.0424  1.5794  0.0606
 7579TIP3    H244229   3.977   4.860  15.614 -0.2003 -0.3892  1.5845
 7580TIP3   OH244230   2.304   5.034  12.123  0.3955 -0.0814 -0.0292
 7580TIP3    H144231   2.211   5.049  12.105  0.0995 -1.2973  0.4046
 7580TIP3    H244232   2.350   5.091  12.061 -0.6364  0.5788 -0.2016
 7581TIP3   OH244233   0.876   6.617   1.613 -0.5806 -0.1744 -0.1883
 7581TIP3    H144234   0.824   6.544   1.647 -0.8137  0.2886  0.4511
 7581TIP3    H244235   0.966   6.583   1.609 -0.3725  0.0985  1.8789
 7582TIP3   OH244236   4.938   6.601  14.021  0.2941  0.0091 -0.4086
 7582TIP3    H144237   4.904   6.618  14.109 -1.0276  0.0261 -0.9139
 7582TIP3    H244238   4.981   6.516  14.028  1.0269  0.4413  0.4784
 7583TIP3   OH244239   5.249   4.038  11.503  0.1543  0.1366  0.0630
 7583TIP3    H144240   5.264   3.981  11.427  1.5171  0.3319  0.1762
 7583TIP3    H244241   5.191   4.107  11.471  0.0299 -0.2632 -0.5734
 7584TIP3   OH244242   6.363   4.659   2.173  0.4562  0.3472 -0.6547
 7584TIP3    H144243   6.355   4.754   2.185  0.4620  0.3770 -0.8855
 7584TIP3    H244244   6.457   4.643   2.176  0.4588  0.3580 -0.6908
 7585TIP3   OH244245   6.444   0.048   2.116  0.4516 -0.2734 -0.1766
 7585TIP3    H144246   6.469  -0.022   2.176 -0.0760 -1.0999 -0.9096
 7585TIP3    H244247   6.422   0.003   2.034 -2.5964  0.4549  0.1618
 7586TIP3   OH244248   4.038   6.606  14.918  0.1860 -0.3048  0.5443
 7586TIP3    H144249   4.096   6.643  14.984 -0.3559 -0.8327  1.3297
 7586TIP3    H244250   4.095   6.588  14.843  0.4560  2.0496  0.1593
 7587TIP3   OH244251   5.600   3.471  15.761 -0.1501 -0.2687  0.8575
 7587TIP3    H144252   5.644   3.392  15.731  0.9345  0.9505 -0.8310
 7587TIP3    H244253   5.671   3.530  15.785 -0.8542  1.3224 -0.8814
 7588TIP3   OH244254   3.801   3.518   1.885 -0.2888 -0.2387 -0.4011
 7588TIP3    H144255   3.885   3.521   1.840  0.1119 -2.2509  0.1389
 7588TIP3    H244256   3.783   3.609   1.909  1.2559  0.3438 -1.3810
 7589TIP3   OH244257   0.293   4.074  16.566 -0.4757  0.1972 -0.2800
 7589TIP3    H144258   0.226   4.016  16.600 -1.6953  1.8410  0.1640
 7589TIP3    H244259   0.374   4.043  16.605 -1.4137  0.1092  1.6244
 7590TIP3   OH244260   1.060   5.515  13.997  0.6111  0.0327 -0.5842
 7590TIP3    H144261   1.130   5.571  13.964 -0.3050  2.5262  1.5141
 7590TIP3    H244262   1.093   5.484  14.081 -1.2421  2.2599  1.0256
 7591TIP3   OH244263   5.810   1.060   4.006 -0.2167  0.4434  0.6393
 7591TIP3    H144264   5.727   1.041   4.050 -0.7059  1.5901  0.2071
 7591TIP3    H244265   5.797   1.144   3.964  1.5066  1.1252  1.4017
 7592TIP3   OH244266   5.645   6.521   3.594 -0.0252 -0.2430 -0.4695
 7592TIP3    H144267   5.556   6.492   3.617  0.8395 -2.7168 -0.0576
 7592TIP3    H244268   5.639   6.549   3.503 -1.0507 -1.2068 -0.7088
 7593TIP3   OH244269   1.564   4.069  15.025 -0.1074  0.2599 -0.0911
 7593TIP3    H144270   1.604   4.128  15.089 -1.0036 -0.5647  1.2388
 7593TIP3    H244271   1.501   4.018  15.075  0.1456 -1.3490 -1.3650
 7594TIP3   OH244272   4.787   3.432   3.941  0.8569  0.0606 -0.1322
 7594TIP3    H144273   4.719   3.380   3.899  1.1237 -0.0837 -0.3884
 7594TIP3    H244274   4.775   3.520   3.906  1.7498 -0.2875 -1.3232
 7595TIP3   OH244275   6.276   1.567  11.488 -0.3384  0.5439 -0.3695
 7595TIP3    H144276   6.367   1.539  11.483 -1.0091 -1.8591  0.1068
 7595TIP3    H244277   6.280   1.661  11.506  2.0603  0.2240  0.9266
 7596TIP3   OH244278   5.188   5.913  15.636  0.3240 -0.1884  0.3820
 7596TIP3    H144279   5.251   5.939  15.569 -0.3429  0.0899 -0.1479
 7596TIP3    H244280   5.227   5.837  15.678  1.8538  1.0466  1.2751
 7597TIP3   OH244281   2.244   0.805   1.374  0.2882  0.1030 -0.7124
 7597TIP3    H144282   2.184   0.846   1.436  0.5000 -2.3828  1.1882
 7597TIP3    H244283   2.218   0.841   1.289 -2.7153  0.4487  0.2818
 7598TIP3   OH244284   5.314   2.517  15.234  0.2991  0.0853 -0.4099
 7598TIP3    H144285   5.354   2.521  15.147  0.0655 -0.3267 -0.5370
 7598TIP3    H244286   5.384   2.485  15.290  1.3628  3.2149  0.1276
 7599TIP3   OH244287   5.139   3.101   5.422  0.0588 -0.4690  0.0974
 7599TIP3    H144288   5.045   3.118   5.417 -0.0354 -1.0370 -0.0336
 7599TIP3    H244289   5.165   3.083   5.332  0.5273  0.9066 -0.0618
 7600TIP3   OH244290   4.361   3.930   5.291  0.0496 -0.2059 -0.2595
 7600TIP3    H144291   4.349   3.930   5.386 -2.3780 -0.9851 -0.5422
 7600TIP3    H244292   4.449   3.895   5.278  1.0641  1.5222  1.7678
 7601TIP3   OH244293   4.814   1.991  12.991  0.0143 -0.2981 -0.1541
 7601TIP3    H144294   4.847   1.938  12.919  1.8408 -0.0954  0.5046
 7601TIP3    H244295   4.876   1.975  13.063 -1.1497  0.3590  1.0013
 7602TIP3   OH244296   1.592   1.381  16.128  0.0350 -0.5348 -0.1586
 7602TIP3    H144297   1.565   1.389  16.220  0.4543  1.4275 -0.1861
 7602TIP3    H244298   1.534   1.313  16.092 -3.2625  1.8447  0.3997
 7603TIP3   OH244299   0.305   4.675  10.751  0.1748  0.1427  0.8678
 7603TIP3    H144300   0.242   4.633  10.809  0.0193 -0.3574  0.3481
 7603TIP3    H244301   0.262   4.674  10.665  0.4004  0.8734  0.7403
 7604TIP3   OH244302   1.031   3.373  14.991 -0.1546 -0.0990  0.3446
 7604TIP3    H144303   1.003   3.282  14.998 -1.4508  0.3843  1.5615
 7604TIP3    H244304   1.007   3.398  14.901  1.5519 -1.3728 -0.4990
 7605TIP3   OH244305   4.461   2.173  14.809  0.0793  0.3564 -0.3920
 7605TIP3    H144306   4.470   2.232  14.884  0.1671 -0.4414  0.2458
 7605TIP3    H244307   4.544   2.182  14.761 -0.0411  0.9886 -0.4742
 7606TIP3   OH244308   1.488   2.395   1.705  0.0102 -0.4307 -0.4609
 7606TIP3    H144309   1.444   2.316   1.735 -1.1949  0.1504 -0.6618
 7606TIP3    H244310   1.424   2.465   1.719  0.2989  0.2031 -2.1773
 7607TIP3   OH244311   2.909   2.260  14.322 -0.0481  0.2464 -0.7562
 7607TIP3    H144312   2.883   2.212  14.243 -0.0787  0.2322 -0.7384
 7607TIP3    H244313   2.984   2.313  14.295 -0.4948  0.7708 -0.9689
 7608TIP3   OH244314   4.166   5.922   2.255  0.1046 -0.3488  0.0341
 7608TIP3    H144315   4.258   5.949   2.249 -0.3195  1.0027 -0.7176
 7608TIP3    H244316   4.157   5.855   2.187 -0.1742  1.6734 -1.9819
 7609TIP3   OH244317   4.773   3.632   1.574 -0.2588  0.4825 -0.4760
 7609TIP3    H144318   4.857   3.587   1.570 -1.0936 -1.1234 -0.3959
 7609TIP3    H244319   4.735   3.619   1.486 -0.4188  1.2185 -0.5221
 7610TIP3   OH244320   3.113   6.378  16.382 -0.5696  0.2139  0.1720
 7610TIP3    H144321   3.117   6.326  16.302  0.4748 -0.6832  0.8006
 7610TIP3    H244322   3.091   6.316  16.451  0.0594  0.7125  0.8293
 7611TIP3   OH244323   1.101   2.110   2.319 -0.0014 -0.0735 -0.0904
 7611TIP3    H144324   1.037   2.079   2.255 -0.2157  1.0237 -0.4082
 7611TIP3    H244325   1.081   2.060   2.398  0.1169 -1.2735 -0.7937
 7612TIP3   OH244326   0.025   3.696  11.862  0.0808  0.3111 -0.0139
 7612TIP3    H144327   0.009   3.603  11.850  0.9363  0.3194 -1.3531
 7612TIP3    H244328   0.048   3.728  11.775  1.4835  1.4288  0.7365
 7613TIP3   OH244329   1.550   1.521  12.500  0.1079  0.5976  0.6022
 7613TIP3    H144330   1.473   1.555  12.454 -1.0349  0.1414  2.1381
 7613TIP3    H244331   1.573   1.442  12.451 -1.4392 -0.2018  1.1155
 7614TIP3   OH244332   2.130   6.367  15.879 -0.5921 -0.1082 -0.0381
 7614TIP3    H144333   2.147   6.448  15.831 -0.3663  0.7227  1.4097
 7614TIP3    H244334   2.209   6.353  15.931 -0.1424 -1.9251 -1.1925
 7615TIP3   OH244335   5.499   4.241  11.366  0.2064  0.1630  0.0914
 7615TIP3    H144336   5.438   4.171  11.389  0.4719  0.4345  1.7458
 7615TIP3    H244337   5.579   4.195  11.341  0.7147 -0.1653  2.1469
 7616TIP3   OH244338   5.321   2.348   4.375 -0.1291 -0.4817  0.3258
 7616TIP3    H144339   5.390   2.365   4.438  0.3501 -0.0853 -0.3036
 7616TIP3    H244340   5.366   2.316   4.297 -0.4365  1.8838 -0.8651
 7617TIP3   OH244341   5.047   1.695  11.417 -0.1987  0.3037  0.1866
 7617TIP3    H144342   5.010   1.768  11.367 -1.2980 -0.5431 -0.2368
 7617TIP3    H244343   5.015   1.710  11.506 -0.2664  0.4507  0.1397
 7618TIP3   OH244344   2.401   2.504  14.590  0.5811 -0.0912  0.2012
 7618TIP3    H144345   2.468   2.571  14.602  0.5216 -0.4439  2.7433
 7618TIP3    H244346   2.445   2.435  14.541  2.0398 -0.2558  1.7123
 7619TIP3   OH244347   6.214   0.221   1.901 -0.2047  0.9062  0.5548
 7619TIP3    H144348   6.252   0.281   1.837  1.2093  1.4187  1.8257
 7619TIP3    H244349   6.225   0.134   1.862 -1.2406  1.3772 -0.8000
 7620TIP3   OH244350   5.766   0.050  16.982 -0.2348  0.4493  0.7773
 7620TIP3    H144351   5.717   0.076  16.903  1.1579  0.0487 -0.2403
 7620TIP3    H244352   5.857   0.073  16.962  0.0068  1.2291  2.6695
 7621TIP3   OH244353   5.904   0.935   5.459 -0.1302  0.2333  0.1317
 7621TIP3    H144354   5.905   0.842   5.482 -0.4834  0.2369  0.1751
 7621TIP3    H244355   5.981   0.972   5.502  0.2468 -0.1227 -0.2449
 7622TIP3   OH244356   0.366   4.103   6.028 -0.0713 -0.2739  0.0259
 7622TIP3    H144357   0.424   4.027   6.031 -0.1851 -0.3927 -0.7464
 7622TIP3    H244358   0.400   4.162   6.096  0.3350 -0.7827  0.2642
 7623TIP3   OH244359   0.662   1.915   5.356 -0.0569  0.0064 -0.1679
 7623TIP3    H144360   0.649   1.938   5.448 -0.3591 -1.3771  0.1524
 7623TIP3    H244361   0.757   1.920   5.343  0.0591 -0.6290  0.4457
 7624TIP3   OH244362   5.794   1.613  16.053  0.3941 -0.0081 -0.2172
 7624TIP3    H144363   5.766   1.618  15.962 -0.3439  0.2876  0.0226
 7624TIP3    H244364   5.864   1.679  16.061 -1.5033  2.0279  0.1244
 7625TIP3   OH244365   6.200   3.797  15.749 -0.2663  0.1836  0.0968
 7625TIP3    H144366   6.238   3.885  15.743  1.7324 -0.6363  0.3656
 7625TIP3    H244367   6.167   3.779  15.661  1.4596  0.2791 -0.5892
 7626TIP3   OH244368   1.662   2.156   1.904 -0.0931  0.1704 -0.2498
 7626TIP3    H144369   1.583   2.126   1.950 -1.6738  0.9610 -2.3723
 7626TIP3    H244370   1.673   2.247   1.932 -0.1185  0.1602 -0.2059
 7627TIP3   OH244371   5.881   3.655   5.200  0.4462 -0.1633  0.1477
 7627TIP3    H144372   5.845   3.575   5.162 -2.6469  1.4355 -0.4162
 7627TIP3    H244373   5.879   3.640   5.295  0.7276 -1.0852  0.0133
 7628TIP3   OH244374   5.578   0.586   0.901 -0.1735 -0.0856 -0.1146
 7628TIP3    H144375   5.559   0.503   0.856  1.7625  0.4305 -1.9662
 7628TIP3    H244376   5.495   0.633   0.901 -0.8995 -1.3389 -0.5296
 7629TIP3   OH244377   2.733   0.474  12.130 -0.1891  0.0968 -0.7648
 7629TIP3    H144378   2.778   0.493  12.213 -0.1776  1.1756 -1.0097
 7629TIP3    H244379   2.736   0.379  12.122 -1.2218 -0.1061  1.0587
 7630TIP3   OH244380   2.301   2.060   3.975 -0.3211  0.1712 -0.4254
 7630TIP3    H144381   2.334   2.001   3.908 -1.9299  1.1498 -2.1140
 7630TIP3    H244382   2.215   2.025   3.998 -0.6484  1.0139 -0.3515
 7631TIP3   OH244383   1.574   2.688  13.693 -0.2344  0.0494  0.0830
 7631TIP3    H144384   1.552   2.640  13.613 -0.2286  0.1474  0.0218
 7631TIP3    H244385   1.635   2.631  13.740 -1.0837 -0.4813  0.5463
 7632TIP3   OH244386   4.655   4.014   0.741 -0.1964  0.6728 -0.3501
 7632TIP3    H144387   4.702   3.934   0.716 -1.4755 -0.6909  1.5264
 7632TIP3    H244388   4.669   4.021   0.835 -2.5402  1.0618 -0.0242
 7633TIP3   OH244389   5.345   5.743  14.470 -0.2858 -0.1665 -0.5176
 7633TIP3    H144390   5.377   5.832  14.461 -0.4645 -0.0056  0.4658
 7633TIP3    H244391   5.256   5.745  14.434 -0.3476  0.0805 -0.3454
 7634TIP3   OH244392   1.071   6.685  11.973  0.3768  0.1067  0.3713
 7634TIP3    H144393   1.092   6.597  12.002  0.3186  0.3835  1.2653
 7634TIP3    H244394   1.156   6.729  11.964  0.4304 -0.1603 -0.4766
 7635TIP3   OH244395   1.635   1.059  11.078  0.3756 -0.1850  0.0016
 7635TIP3    H144396   1.675   0.998  11.017 -1.0438 -2.5989  1.4089
 7635TIP3    H244397   1.543   1.032  11.083 -0.1520  1.6722  1.1395
 7636TIP3   OH244398   1.002   0.920   2.026  0.0538  1.0664  1.2990
 7636TIP3    H144399   0.947   0.957   1.957  0.2423 -0.2756  0.4018
 7636TIP3    H244400   1.087   0.962   2.013  1.4372 -2.5121 -2.2897
 7637TIP3   OH244401   4.494   1.713  15.091  0.2149  0.0368 -0.3554
 7637TIP3    H144402   4.484   1.754  15.005 -0.2750  0.0524 -0.2898
 7637TIP3    H244403   4.512   1.786  15.150 -2.6221  0.4197  0.1098
 7638TIP3   OH244404   3.347   4.218  17.263 -0.0335 -1.0061  0.7344
 7638TIP3    H144405   3.381   4.136  17.227 -2.9848 -2.3528  0.8183
 7638TIP3    H244406   3.346   4.204  17.358  0.0595 -0.6266  0.7911
 7639TIP3   OH244407   3.954   0.011   3.263 -0.8820 -0.1412 -0.2309
 7639TIP3    H144408   4.026  -0.047   3.288 -1.6838 -1.0678 -0.0449
 7639TIP3    H244409   3.998   0.091   3.235  0.2539 -0.8357 -0.5228
 7640TIP3   OH244410   3.320   3.628  13.757 -0.4203 -0.1474 -0.5550
 7640TIP3    H144411   3.383   3.583  13.813 -1.3915 -1.9602 -0.8834
 7640TIP3    H244412   3.359   3.714  13.742  1.8310 -1.1175 -0.5148
 7641TIP3   OH244413   1.259   2.241   3.309 -0.7849  0.3745 -0.6782
 7641TIP3    H144414   1.210   2.270   3.386  1.6944  0.8180  0.7948
 7641TIP3    H244415   1.243   2.309   3.244 -0.2317  1.7435  0.5857
 7642TIP3   OH244416   0.849   1.812  13.783  0.0199  0.1287  0.2095
 7642TIP3    H144417   0.899   1.731  13.794  0.0454 -0.2405 -2.2590
 7642TIP3    H244418   0.893   1.858  13.711 -2.3475  0.4262 -1.1058
 7643TIP3   OH244419   4.628   0.101   4.681  0.1071 -0.6163 -0.0768
 7643TIP3    H144420   4.623   0.015   4.724  1.0025  0.5119  2.3982
 7643TIP3    H244421   4.541   0.139   4.692  0.2699 -0.4234  0.5713
 7644TIP3   OH244422   3.486   2.482  11.875 -0.1341 -0.7285  0.0777
 7644TIP3    H144423   3.391   2.472  11.864 -0.2497 -0.4989  0.8486
 7644TIP3    H244424   3.516   2.521  11.793 -0.8742  0.2500  0.2645
 7645TIP3   OH244425   3.851   5.152  15.018  0.1584  0.6494  0.5853
 7645TIP3    H144426   3.861   5.215  15.090  0.6129  0.0581  1.0463
 7645TIP3    H244427   3.863   5.067  15.060 -0.8727  0.2312  0.0484
 7646TIP3   OH244428   6.097   5.329  11.799 -0.5293  0.1451  0.5580
 7646TIP3    H144429   6.038   5.298  11.868 -0.8465  0.0875  0.2622
 7646TIP3    H244430   6.040   5.375  11.738 -0.3024 -0.1436  0.1296
 7647TIP3   OH244431   2.891   4.625  11.749 -0.3291 -0.2495  0.3638
 7647TIP3    H144432   2.843   4.621  11.666 -1.0202  0.8145  0.7052
 7647TIP3    H244433   2.878   4.715  11.780 -1.7003 -1.1731  2.5875
 7648TIP3   OH244434   2.898   3.706   5.632 -0.2621  0.1603  0.1270
 7648TIP3    H144435   2.870   3.752   5.552  0.4581  1.0495  0.3734
 7648TIP3    H244436   2.993   3.714   5.632 -0.3157  0.9961  1.5503
 7649TIP3   OH244437   3.538   4.309  15.900  1.0780 -0.3561 -0.0344
 7649TIP3    H144438   3.470   4.376  15.898  1.5204  0.1000  0.0857
 7649TIP3    H244439   3.598   4.333  15.829 -1.0700 -3.1036 -2.9541
 7650TIP3   OH244440   5.835   6.679  13.896 -0.0241 -0.2703  0.3050
 7650TIP3    H144441   5.753   6.683  13.945  1.5594  0.0062  3.0596
 7650TIP3    H244442   5.872   6.767  13.904 -0.9337  0.5572 -3.6866
 7651TIP3   OH244443   5.727   3.788  13.491 -0.3925 -0.4702 -0.1854
 7651TIP3    H144444   5.777   3.869  13.507  0.2552 -0.8048 -0.5134
 7651TIP3    H244445   5.658   3.789  13.558 -1.0423  0.8864 -0.8471
 7652TIP3   OH244446   4.123   4.813  17.068 -0.5691 -0.2976  0.2409
 7652TIP3    H144447   4.207   4.768  17.073 -0.6713 -0.6806 -1.2160
 7652TIP3    H244448   4.132   4.887  17.128  0.8388 -0.2994  0.0592
 7653TIP3   OH244449   0.346   2.498  14.527  0.0935  0.2641 -0.2269
 7653TIP3    H144450   0.339   2.527  14.436 -1.5157  1.0976  0.1532
 7653TIP3    H244451   0.354   2.403  14.522 -2.0163  0.1250 -1.1510
 7654TIP3   OH244452   2.673   1.750  10.683  0.4458 -0.0909 -0.7805
 7654TIP3    H144453   2.696   1.785  10.769 -1.0072 -0.2712 -0.3051
 7654TIP3    H244454   2.579   1.763  10.677  0.6696  0.7182 -2.7133
 7655TIP3   OH244455   6.223   1.160   5.780 -0.4312 -0.0745 -0.6424
 7655TIP3    H144456   6.243   1.218   5.707  1.8196 -0.4092 -0.3386
 7655TIP3    H244457   6.255   1.075   5.753 -0.6028 -0.4410  0.2777
 7656TIP3   OH244458   3.121   6.779   4.045  0.8245 -0.0215  0.1478
 7656TIP3    H144459   3.110   6.734   4.129 -2.5286 -1.2919 -0.8666
 7656TIP3    H244460   3.111   6.872   4.065  0.5649 -0.2890  1.2553
 7657TIP3   OH244461   4.919   3.394  10.863 -0.0628 -0.4998  0.0916
 7657TIP3    H144462   4.880   3.309  10.845  0.4308 -0.6762 -0.1573
 7657TIP3    H244463   4.846   3.449  10.892 -0.0766 -1.5891  2.2593
 7658TIP3   OH244464   4.595   0.675  15.356 -0.1560  0.3655 -0.5259
 7658TIP3    H144465   4.574   0.616  15.428 -0.7636  0.7015 -0.4211
 7658TIP3    H244466   4.619   0.618  15.284 -1.7356 -0.0548 -0.7403
 7659TIP3   OH244467   5.111   0.313   2.708 -0.1301  0.0477 -0.6848
 7659TIP3    H144468   5.169   0.256   2.759  0.6283  1.5614  0.1905
 7659TIP3    H244469   5.142   0.401   2.726 -1.7130  0.7973 -1.4746
 7660TIP3   OH244470   0.150   3.106   0.701 -0.0787  0.0070  0.5256
 7660TIP3    H144471   0.211   3.116   0.628 -0.2112  1.1248  0.5547
 7660TIP3    H244472   0.111   3.020   0.689 -0.2036  0.2384 -0.8029
 7661TIP3   OH244473   5.472   2.379  12.226  0.9903 -0.4983  1.1864
 7661TIP3    H144474   5.482   2.284  12.234 -2.6312 -0.9780  0.7207
 7661TIP3    H244475   5.379   2.395  12.240  1.1744  2.7881 -0.7324
 7662TIP3   OH244476   0.540   3.064  13.605 -0.1254  0.1764 -0.5166
 7662TIP3    H144477   0.621   3.049  13.653 -0.4079  0.1857 -0.0383
 7662TIP3    H244478   0.510   3.149  13.635 -0.6856 -0.1461 -0.1752
 7663TIP3   OH244479   3.298   6.375   5.462  0.4289  0.2893 -0.5627
 7663TIP3    H144480   3.203   6.382   5.471  0.5493  0.0838  1.0236
 7663TIP3    H244481   3.315   6.280   5.461  0.7977  0.3088  1.5030
 7664TIP3   OH244482   3.480   5.401   2.240  0.6492  0.2928  0.1886
 7664TIP3    H144483   3.433   5.446   2.169 -0.1871 -0.1454  0.4607
 7664TIP3    H244484   3.560   5.452   2.251  1.5653 -0.5270 -2.1657
 7665TIP3   OH244485   0.561   5.848  13.633  0.5884 -0.3396  0.2043
 7665TIP3    H144486   0.485   5.792  13.616  0.6532 -0.5003  0.4419
 7665TIP3    H244487   0.564   5.856  13.729 -0.4595  1.5011  0.0947
 7666TIP3   OH244488   3.643   0.208  14.438  0.1939  0.0184  0.0234
 7666TIP3    H144489   3.601   0.247  14.514 -0.7756  0.1451 -0.5738
 7666TIP3    H244490   3.608   0.256  14.363  0.0388 -1.0599 -0.6127
 7667TIP3   OH244491   4.363   1.403   6.031 -0.4579 -0.5872 -0.3135
 7667TIP3    H144492   4.444   1.395   5.980  1.2505  2.1259  1.7858
 7667TIP3    H244493   4.393   1.411   6.121 -3.1371 -0.4509  0.5973
 7668TIP3   OH244494   2.132   2.656   4.080  0.4312  0.4502  0.1852
 7668TIP3    H144495   2.098   2.705   4.155  2.0134  1.0981  0.5127
 7668TIP3    H244496   2.137   2.565   4.111 -0.1634  0.4990  0.4205
 7669TIP3   OH244497   1.664   5.871   2.323 -0.0780  0.0978  0.3784
 7669TIP3    H144498   1.570   5.868   2.310 -0.0531 -2.5660  0.4626
 7669TIP3    H244499   1.697   5.921   2.249 -1.4198 -0.3271 -0.5244
 7670TIP3   OH244500   6.721   5.118  15.877  0.2004 -0.3460 -0.3104
 7670TIP3    H144501   6.671   5.069  15.812 -1.6942  0.1124  0.7717
 7670TIP3    H244502   6.734   5.204  15.838  1.5076 -0.9542 -1.2398
 7671TIP3   OH244503   2.218   6.024   0.029  0.6046  0.5966 -0.7420
 7671TIP3    H144504   2.280   5.990   0.094  1.8819  2.6321 -0.8522
 7671TIP3    H244505   2.139   5.971   0.041  1.4277 -0.2285  1.2653
 7672TIP3   OH244506   5.605   3.243  11.647 -0.3130 -0.4585  0.0947
 7672TIP3    H144507   5.674   3.207  11.703  0.4092 -1.4098 -1.3560
 7672TIP3    H244508   5.631   3.333  11.631  0.9971 -1.0075 -1.0061
 7673TIP3   OH244509   5.693   6.215  10.885 -0.2900 -0.4618  0.3502
 7673TIP3    H144510   5.683   6.303  10.848 -1.7580 -0.8327 -0.1885
 7673TIP3    H244511   5.785   6.193  10.870 -0.4246  0.1290 -1.4672
 7674TIP3   OH244512   4.683   6.531   2.016 -0.0795  0.2243 -0.1412
 7674TIP3    H144513   4.641   6.529   2.102  2.2053  0.1216  1.0107
 7674TIP3    H244514   4.667   6.620   1.984  1.2857  1.1250  1.5692
 7675TIP3   OH244515   1.070   3.626  16.532 -0.4424 -0.1473  0.1692
 7675TIP3    H144516   1.140   3.691  16.540  0.1439 -0.6087 -1.0703
 7675TIP3    H244517   1.040   3.634  16.441 -0.5469 -1.4208  0.0869
 7676TIP3   OH244518   4.865   3.163   5.393 -0.3323  0.2948  0.1430
 7676TIP3    H144519   4.834   3.230   5.333  0.7674  1.4556  0.8387
 7676TIP3    H244520   4.812   3.174   5.472  0.0944  0.6002  0.3914
 7677TIP3   OH244521   2.502   1.540  13.585 -0.1341 -0.1185 -0.1337
 7677TIP3    H144522   2.522   1.581  13.500  1.8998 -0.2849  0.2360
 7677TIP3    H244523   2.581   1.491  13.607 -1.6677 -2.3762  0.5595
 7678TIP3   OH244524   4.188   3.460  11.674  0.8593 -0.1752 -0.4447
 7678TIP3    H144525   4.113   3.424  11.626  0.9286 -0.5459 -0.2800
 7678TIP3    H244526   4.164   3.551  11.692  0.3860 -0.3333 -0.2683
 7679TIP3   OH244527   1.901   4.176  14.876 -0.1667  0.2634  0.7706
 7679TIP3    H144528   1.911   4.143  14.965  0.9745 -1.8005 -0.0841
 7679TIP3    H244529   1.954   4.118  14.822  0.0911  2.1806 -1.1310
 7680TIP3   OH244530   1.842   5.857  15.284 -0.3612  0.0825  0.3384
 7680TIP3    H144531   1.804   5.938  15.317  1.4562  1.7533 -1.4655
 7680TIP3    H244532   1.855   5.873  15.190 -0.1134 -2.3592 -0.0940
 7681TIP3   OH244533   6.594   1.758   1.456 -0.2390 -0.3493  0.0659
 7681TIP3    H144534   6.567   1.689   1.517  1.8790 -1.7508 -0.5205
 7681TIP3    H244535   6.525   1.759   1.389 -0.9644 -0.9924  0.7936
 7682TIP3   OH244536   5.279   0.766  12.081 -0.0995  0.5467 -0.2380
 7682TIP3    H144537   5.304   0.694  12.024 -0.8773  1.5006 -1.8196
 7682TIP3    H244538   5.191   0.790  12.053 -0.4728  1.0883  1.3241
 7683TIP3   OH244539   2.430   6.633  11.221  0.2794 -0.9096  0.1129
 7683TIP3    H144540   2.442   6.564  11.157 -1.9937 -0.6835 -0.5817
 7683TIP3    H244541   2.340   6.664  11.208  0.5519  0.7312  1.8211
 7684TIP3   OH244542   2.929   5.077   0.427  0.1580 -0.2837 -0.2238
 7684TIP3    H144543   2.906   5.046   0.339  0.8155 -0.9643 -0.1649
 7684TIP3    H244544   2.897   5.008   0.485  0.8259 -0.4270 -0.0231
 7685TIP3   OH244545   6.792   6.521   3.007  0.2023  0.0235 -0.3991
 7685TIP3    H144546   6.794   6.428   3.027  1.2566  0.1233  0.0331
 7685TIP3    H244547   6.860   6.532   2.941 -0.7893  0.2832 -1.3863
 7686TIP3   OH244548   2.685   6.019   3.943 -0.3125 -0.5276 -0.6697
 7686TIP3    H144549   2.666   6.110   3.921  1.4708 -0.0176 -0.1939
 7686TIP3    H244550   2.712   5.979   3.861  1.0691 -0.0293 -0.4749
 7687TIP3   OH244551   6.506   3.189   2.218 -0.0473  0.2647 -0.1136
 7687TIP3    H144552   6.502   3.193   2.122  1.1228 -1.4448 -0.2465
 7687TIP3    H244553   6.420   3.155   2.244  0.1908 -0.7606 -0.6520
 7688TIP3   OH244554   3.076   0.705  12.657  0.0410  0.4899 -0.2230
 7688TIP3    H144555   3.006   0.652  12.696 -0.2118  0.9991  0.0094
 7688TIP3    H244556   3.144   0.709  12.725  0.2416  0.1148 -0.3966
 7689TIP3   OH244557   2.563   3.103  11.604 -0.7224 -0.1271 -0.4227
 7689TIP3    H144558   2.629   3.140  11.662 -2.4212 -0.1935  1.6124
 7689TIP3    H244559   2.515   3.179  11.570 -1.0591 -0.1848 -0.0870
 7690TIP3   OH244560   2.403   1.568  14.750 -0.1541 -0.5545  0.1122
 7690TIP3    H144561   2.369   1.585  14.837 -0.3501  0.9650 -0.2509
 7690TIP3    H244562   2.352   1.494  14.718 -0.7948 -0.4377  0.8710
 7691TIP3   OH244563   5.094   0.187   3.541 -0.0794  0.2017  0.6553
 7691TIP3    H144564   5.144   0.155   3.466  1.7469  0.2329  1.8220
 7691TIP3    H244565   5.059   0.272   3.512 -1.0750 -0.7036 -0.8394
 7692TIP3   OH244566   3.689   3.946   2.080  0.4638  0.0939  0.2063
 7692TIP3    H144567   3.653   3.947   2.169 -0.0535  0.7661 -0.0037
 7692TIP3    H244568   3.760   3.882   2.083 -1.3649 -2.0096  0.3982
 7693TIP3   OH244569   1.171   3.972   0.060 -0.5984 -0.1695 -0.4242
 7693TIP3    H144570   1.242   4.002   0.117 -0.5605  0.8303 -1.0031
 7693TIP3    H244571   1.127   4.052   0.031 -2.8187 -0.8056  0.9984
 7694TIP3   OH244572   5.122   1.790   1.298  0.3606 -0.1799  0.4890
 7694TIP3    H144573   5.161   1.843   1.228 -0.0697 -0.4115  0.0682
 7694TIP3    H244574   5.167   1.818   1.377 -1.7957  2.8589  0.7183
 7695TIP3   OH244575   5.314   3.240  15.143  0.1757  0.0663 -0.6729
 7695TIP3    H144576   5.255   3.315  15.147  1.0070  0.6753  0.3784
 7695TIP3    H244577   5.294   3.189  15.221 -0.2699 -0.7309 -1.2988
 7696TIP3   OH244578   1.721   4.325  14.280 -0.2614  0.1597  0.2248
 7696TIP3    H144579   1.743   4.417  14.296 -1.2913  0.0057  2.7514
 7696TIP3    H244580   1.627   4.326  14.264 -0.2487 -0.4326  0.1193
 7697TIP3   OH244581   2.173   4.605   1.864 -0.1343  0.7222 -0.0685
 7697TIP3    H144582   2.203   4.689   1.831  1.9682 -0.1446 -0.4408
 7697TIP3    H244583   2.253   4.561   1.895 -1.4690 -0.2359  2.1711
 7698TIP3   OH244584   0.430   3.692  14.742  0.0206 -0.5755  0.0554
 7698TIP3    H144585   0.377   3.763  14.778 -1.7152 -1.7055 -0.1633
 7698TIP3    H244586   0.462   3.645  14.819  0.5520  0.0063  0.1900
 7699TIP3   OH244587   1.418   4.282   5.230 -0.4173  0.3675  0.5207
 7699TIP3    H144588   1.415   4.188   5.215 -0.6985  0.5991 -0.9494
 7699TIP3    H244589   1.505   4.309   5.200 -0.4475  0.6332  0.6599
 7700TIP3   OH244590   2.339   2.164   2.259  0.6929 -0.7863  0.2222
 7700TIP3    H144591   2.246   2.143   2.253  0.6120 -1.2274  2.4694
 7700TIP3    H244592   2.357   2.216   2.181 -1.9215  1.0652  0.7765
 7701TIP3   OH244593   0.166   3.052   1.245 -0.3284  0.0352 -0.6753
 7701TIP3    H144594   0.148   3.097   1.162 -0.3914  2.4101  0.5753
 7701TIP3    H244595   0.088   3.000   1.262 -1.0504  0.8973 -1.2643
 7702TIP3   OH244596   3.930   6.719   4.364 -0.3838  0.3536 -0.3042
 7702TIP3    H144597   3.986   6.691   4.437 -0.6413  0.6368  0.0035
 7702TIP3    H244598   3.851   6.752   4.406 -0.3834  0.8539 -0.7015
 7703TIP3   OH244599   2.957   6.418  13.648  0.4042 -0.0931 -0.3814
 7703TIP3    H144600   2.991   6.389  13.733 -0.0812 -2.0791 -0.8375
 7703TIP3    H244601   2.887   6.480  13.670  0.6923 -0.1249  0.6439
 7704TIP3   OH244602   5.131   6.551  13.144 -0.2164 -0.2312  0.2589
 7704TIP3    H144603   5.227   6.549  13.143 -0.1958  0.6732 -0.4535
 7704TIP3    H244604   5.109   6.642  13.162 -0.9672 -0.9444  3.1459
 7705TIP3   OH244605   1.031   3.682  16.249 -0.5237  0.3365 -0.0496
 7705TIP3    H144606   0.955   3.632  16.220 -1.1351  1.4279 -0.3407
 7705TIP3    H244607   1.103   3.648  16.195 -0.9934 -0.0157 -0.4610
 7706TIP3   OH244608   0.697   6.034   2.981 -0.0100  0.1897 -0.2875
 7706TIP3    H144609   0.673   6.107   3.037 -0.3029  0.8197 -1.2201
 7706TIP3    H244610   0.613   5.991   2.962 -0.0707  0.7455 -1.2918
 7707TIP3   OH244611   4.917   5.510   4.845 -0.1340  0.5761 -0.1198
 7707TIP3    H144612   4.983   5.526   4.777 -2.4510  1.7795 -2.1866
 7707TIP3    H244613   4.963   5.525   4.927  1.4608  4.2294 -1.5648
 7708TIP3   OH244614   4.672   4.664  11.151 -0.0057 -0.8875 -0.1674
 7708TIP3    H144615   4.715   4.579  11.141 -0.5620 -1.3063  0.8376
 7708TIP3    H244616   4.689   4.710  11.069  0.5179 -1.8738 -0.6209
 7709TIP3   OH244617   0.658   4.279   3.112 -0.2571 -0.3154 -0.3605
 7709TIP3    H144618   0.623   4.226   3.184  2.1101 -0.1205  1.0029
 7709TIP3    H244619   0.720   4.221   3.068  0.2922  0.4315 -0.5681
 7710TIP3   OH244620   2.212   4.388  12.646  0.3419 -0.2474  0.0548
 7710TIP3    H144621   2.137   4.376  12.588  1.1240  1.7278 -1.4030
 7710TIP3    H244622   2.212   4.481  12.667  1.9976 -0.3460  0.5749
 7711TIP3   OH244623   1.812   5.693   5.563  0.7923 -0.3985  0.2964
 7711TIP3    H144624   1.758   5.681   5.486 -0.8438  0.3848  1.2948
 7711TIP3    H244625   1.891   5.641   5.546  0.3921 -0.3410 -1.8086
 7712TIP3   OH244626   1.320   1.289   4.647  0.1886 -0.5155 -0.6112
 7712TIP3    H144627   1.370   1.315   4.569 -2.0010  0.5475 -1.7132
 7712TIP3    H244628   1.364   1.332   4.720  1.4610 -0.4020 -1.4346
 7713TIP3   OH244629   5.245   0.704  16.022 -0.0169 -0.3174 -0.1069
 7713TIP3    H144630   5.244   0.748  15.937  1.7755 -0.9498 -0.4667
 7713TIP3    H244631   5.172   0.642  16.018 -1.1060  0.9680 -0.4618
 7714TIP3   OH244632   3.065   5.887   2.190 -0.2640  0.0318 -0.3201
 7714TIP3    H144633   3.042   5.865   2.100 -1.0740 -2.8320  0.5234
 7714TIP3    H244634   2.981   5.899   2.234  0.1344  1.7954 -0.0267
 7715TIP3   OH244635   6.409   0.856   0.296  0.2060 -0.3482  0.5245
 7715TIP3    H144636   6.402   0.785   0.360 -1.3672 -1.8469 -1.2467
 7715TIP3    H244637   6.326   0.902   0.303  1.3286  1.5588  1.8650
 7716TIP3   OH244638   6.486   0.118  15.919  0.4226 -0.5817  0.1547
 7716TIP3    H144639   6.521   0.069  15.994 -0.2483  0.5126  1.2042
 7716TIP3    H244640   6.392   0.103  15.923  0.1625  1.0274  0.6950
 7717TIP3   OH244641   0.258   1.421   0.101  0.4044 -0.7130 -0.0174
 7717TIP3    H144642   0.186   1.425   0.163 -0.0620  1.3012 -0.6785
 7717TIP3    H244643   0.332   1.461   0.147  0.4127 -0.4134 -0.2924
 7718TIP3   OH244644   0.841   3.765  14.218  0.1406  0.3081 -0.6378
 7718TIP3    H144645   0.834   3.721  14.302 -1.1405  1.6813 -0.0110
 7718TIP3    H244646   0.794   3.707  14.157 -3.2406  1.7180  0.5567
 7719TIP3   OH244647   0.227   4.875   4.558 -0.0406  0.1160 -0.0832
 7719TIP3    H144648   0.143   4.922   4.562  0.0120  0.1984  0.0577
 7719TIP3    H244649   0.279   4.926   4.496 -0.5390 -0.6563 -1.1594
 7720TIP3   OH244650   5.964   1.195   2.460 -0.0747  0.2576 -0.2519
 7720TIP3    H144651   5.934   1.195   2.369 -0.6681 -0.1573 -0.0592
 7720TIP3    H244652   5.971   1.288   2.483 -0.3353  0.3609 -0.5843
 7721TIP3   OH244653   1.923   2.989   4.990  0.3433 -0.1776 -0.1518
 7721TIP3    H144654   1.906   3.000   4.896  0.6619 -0.8128 -0.2822
 7721TIP3    H244655   1.887   2.903   5.011  1.9924 -0.8773 -0.1032
 7722TIP3   OH244656   2.413   6.285  12.317  1.1368  0.4252 -0.2554
 7722TIP3    H144657   2.484   6.344  12.342  0.4472  0.6315  1.3188
 7722TIP3    H244658   2.375   6.257  12.401 -1.1692  0.9666 -1.0827
 7723TIP3   OH244659   3.216   1.851   4.171 -0.2410 -0.1712  0.2729
 7723TIP3    H144660   3.284   1.784   4.164 -0.7352 -0.6126 -0.3235
 7723TIP3    H244661   3.227   1.904   4.092 -1.6551 -1.2445 -0.6506
 7724TIP3   OH244662   3.583   2.515  13.269 -0.2956  0.4852  0.4047
 7724TIP3    H144663   3.515   2.458  13.305  0.2429  0.6930  1.7713
 7724TIP3    H244664   3.652   2.455  13.241  0.0707  0.4413  1.4069
 7725TIP3   OH244665   1.629   0.912   3.176  0.1220 -0.3669 -0.4979
 7725TIP3    H144666   1.655   0.953   3.093 -0.1470  1.4028  0.2789
 7725TIP3    H244667   1.546   0.868   3.155 -0.9281  1.6548 -0.7318
 7726TIP3   OH244668   4.680   2.124  15.723 -0.5623  0.3595 -0.1445
 7726TIP3    H144669   4.694   2.045  15.775 -0.8881  0.6981  0.4793
 7726TIP3    H244670   4.630   2.182  15.782  1.0199  1.6254 -0.0170
 7727TIP3   OH244671   3.257   5.487   3.959  0.2375 -0.0112 -0.0372
 7727TIP3    H144672   3.207   5.500   3.879  1.2038  1.7645 -0.3720
 7727TIP3    H244673   3.338   5.535   3.946  0.6873 -0.2214  1.7579
 7728TIP3   OH244674   0.001   5.731  16.647 -0.2508 -0.1386 -0.0668
 7728TIP3    H144675  -0.053   5.782  16.586  0.0924  0.0817 -0.1916
 7728TIP3    H244676  -0.044   5.647  16.654 -0.3580 -0.1267 -0.5350
 7729TIP3   OH244677   5.506   1.873  12.728  0.0587 -0.6359 -0.3041
 7729TIP3    H144678   5.564   1.800  12.748 -0.1570 -0.7096  0.0685
 7729TIP3    H244679   5.430   1.833  12.685 -0.1041 -0.6458 -0.0115
 7730TIP3   OH244680   4.687   1.188  15.532  0.2844 -0.7133 -0.4243
 7730TIP3    H144681   4.673   1.229  15.617 -1.6069 -0.5102 -0.7964
 7730TIP3    H244682   4.738   1.109  15.551 -0.9449 -1.1816  1.0302
 7731TIP3   OH244683   6.188   5.948   1.347 -0.2081  0.2009  0.5716
 7731TIP3    H144684   6.277   5.919   1.331 -0.4853  0.3662 -1.3731
 7731TIP3    H244685   6.135   5.868   1.347 -0.1845  0.1825  0.9109
 7732TIP3   OH244686   1.465   3.607  13.581  0.0259 -0.0631  0.2155
 7732TIP3    H144687   1.448   3.513  13.575  0.2686 -0.0086 -1.5368
 7732TIP3    H244688   1.499   3.631  13.495  0.7429  1.4826  0.9102
 7733TIP3   OH244689   5.738   1.817   4.240  0.4311  0.4966 -0.3626
 7733TIP3    H144690   5.666   1.757   4.220 -0.3663  1.1656  0.4811
 7733TIP3    H244691   5.735   1.827   4.335  2.2594 -0.2439 -0.2054
 7734TIP3   OH244692   6.645   4.749  11.647  0.0074 -0.4010  0.3088
 7734TIP3    H144693   6.591   4.828  11.657 -0.1798 -0.5791  0.7224
 7734TIP3    H244694   6.674   4.728  11.736  0.4594 -0.5199  0.1356
 7735TIP3   OH244695   3.768   1.411   1.911  0.1219 -0.4510  0.0888
 7735TIP3    H144696   3.811   1.493   1.889 -1.2005  0.5015  0.9563
 7735TIP3    H244697   3.695   1.404   1.849  0.3631 -1.1005 -0.1349
 7736TIP3   OH244698   0.740   1.743  12.901 -0.3456  0.3519  0.2961
 7736TIP3    H144699   0.682   1.683  12.854 -0.1127 -0.4448  1.0286
 7736TIP3    H244700   0.824   1.737  12.855  0.1357 -1.0949  1.3508
 7737TIP3   OH244701   0.729   3.668  13.756 -0.5165  0.3749  0.1196
 7737TIP3    H144702   0.798   3.657  13.691 -0.1182 -0.0172  0.5981
 7737TIP3    H244703   0.773   3.713  13.829 -1.3949  2.4219 -0.6032
 7738TIP3   OH244704   0.753   5.460   2.127 -0.0295  0.1174 -0.0645
 7738TIP3    H144705   0.744   5.452   2.222  0.0512 -1.5122 -0.1685
 7738TIP3    H244706   0.831   5.409   2.107  0.7245  1.5963 -0.8554
 7739TIP3   OH244707   0.356   3.379  14.767 -0.3474 -0.4165 -0.4517
 7739TIP3    H144708   0.423   3.447  14.779 -0.7874  0.2666 -1.8088
 7739TIP3    H244709   0.394   3.319  14.703 -0.4239 -0.8347 -0.1045
 7740TIP3   OH244710   3.835   1.851  11.442  0.1868  0.1568  0.7402
 7740TIP3    H144711   3.765   1.800  11.401  0.4269  1.3162 -1.1729
 7740TIP3    H244712   3.905   1.787  11.457  0.2162 -0.2490 -1.0081
 7741TIP3   OH244713   2.302   6.406   3.685  0.6784 -0.3845 -0.3612
 7741TIP3    H144714   2.331   6.349   3.757 -1.1416 -0.6970  0.1474
 7741TIP3    H244715   2.222   6.365   3.653  0.0111  1.2359 -0.7966
 7742TIP3   OH244716   5.678   2.743  13.550  0.1618 -0.3544  0.3122
 7742TIP3    H144717   5.679   2.664  13.496 -0.1640  2.8713 -4.7063
 7742TIP3    H244718   5.586   2.764  13.561  0.2781  0.0352  0.5376
 7743TIP3   OH244719   2.303   0.448   6.433  0.3301 -0.0273  0.6798
 7743TIP3    H144720   2.357   0.523   6.458  1.6557 -0.7668  0.1360
 7743TIP3    H244721   2.338   0.375   6.486 -1.6325 -0.0539  1.9866
 7744TIP3   OH244722   1.227   0.286   0.428 -0.0737  0.4772 -0.4916
 7744TIP3    H144723   1.278   0.216   0.386  1.9808  0.5484  1.7699
 7744TIP3    H244724   1.151   0.242   0.466  0.8334 -0.4253  0.2933
 7745TIP3   OH244725   4.299   0.240  13.206  0.7703  0.0734 -0.4316
 7745TIP3    H144726   4.281   0.196  13.289 -0.6389  0.9536 -0.2594
 7745TIP3    H244727   4.294   0.171  13.140  0.9477 -0.4523  0.1046
 7746TIP3   OH244728   5.203   3.842  15.338  0.4565  0.1653 -0.5407
 7746TIP3    H144729   5.160   3.907  15.284 -0.1624  0.4554  0.2893
 7746TIP3    H244730   5.237   3.891  15.413  2.4499 -0.0131 -1.2916
 7747TIP3   OH244731   0.902   3.444  15.802  0.0200 -0.6143 -0.5018
 7747TIP3    H144732   0.853   3.362  15.808  1.0797 -1.2055  0.1724
 7747TIP3    H244733   0.840   3.506  15.762 -0.5880 -1.9021 -1.6041
 7748TIP3   OH244734   5.811   1.565  15.069  0.1008  0.3629 -0.2353
 7748TIP3    H144735   5.769   1.622  15.134 -1.0409  2.3584 -2.6312
 7748TIP3    H244736   5.741   1.506  15.041  0.5237 -0.3225  0.1356
 7749TIP3   OH244737   2.337   6.032  12.935 -0.0577  0.0877 -0.2813
 7749TIP3    H144738   2.396   5.962  12.909 -1.0419 -0.9935  0.3543
 7749TIP3    H244739   2.345   6.037  13.030 -0.1933  0.6530 -0.2946
 7750TIP3   OH244740   4.377   2.868   1.071 -0.4683 -0.6724 -0.7890
 7750TIP3    H144741   4.448   2.842   1.013  0.1771 -1.4690  0.3505
 7750TIP3    H244742   4.303   2.814   1.045  0.0913 -1.7124 -0.2610
 7751TIP3   OH244743   1.710   2.495  10.260  0.2999 -0.4896  0.4083
 7751TIP3    H144744   1.769   2.535  10.325 -0.3519  2.0098 -0.5078
 7751TIP3    H244745   1.712   2.402  10.282  0.6170  0.1890  3.6268
 7752TIP3   OH244746   2.687   1.578  14.735  0.2351 -0.0329  0.4772
 7752TIP3    H144747   2.701   1.604  14.644  1.2717  1.4658  1.0404
 7752TIP3    H244748   2.593   1.564  14.742 -0.1606  1.9799 -0.2960
 7753TIP3   OH244749   1.870   1.053   0.147  0.8037  0.9292  0.5419
 7753TIP3    H144750   1.938   1.120   0.143  1.1438  0.5462 -0.2913
 7753TIP3    H244751   1.898   0.995   0.218  0.5882  1.5677  1.1621
 7754TIP3   OH244752   4.160   6.225  16.471 -0.1150 -0.0537 -0.4916
 7754TIP3    H144753   4.082   6.218  16.527 -0.3886  1.5334 -0.6495
 7754TIP3    H244754   4.166   6.318  16.450  0.7293 -0.4490 -2.0600
 7755TIP3   OH244755   6.162   3.074  12.994  0.2792 -0.0281 -0.0856
 7755TIP3    H144756   6.255   3.094  13.006 -0.0581  1.0399  0.8208
 7755TIP3    H244757   6.128   3.150  12.947 -0.4670  0.3331  1.0274
 7756TIP3   OH244758   1.622   1.279   3.253 -0.5262 -0.2000  0.2135
 7756TIP3    H144759   1.673   1.204   3.221  1.3491  0.3828  1.7241
 7756TIP3    H244760   1.570   1.307   3.177  0.2928 -1.7452 -0.9455
 7757TIP3   OH244761   3.462   4.872   5.421 -0.1399  0.5527 -0.7712
 7757TIP3    H144762   3.489   4.954   5.380  2.7279 -0.2412 -0.5435
 7757TIP3    H244763   3.454   4.894   5.514 -0.4582  0.8265 -0.8608
 7758TIP3   OH244764   0.641   0.280  14.316 -0.1764  0.5516 -0.0367
 7758TIP3    H144765   0.680   0.266  14.402 -0.8087  0.5060  0.2520
 7758TIP3    H244766   0.713   0.307  14.261  0.3239  0.1317  0.3985
 7759TIP3   OH244767   6.110   0.986  11.971  0.3980  0.3018 -0.0891
 7759TIP3    H144768   6.096   0.931  11.894 -0.3869 -0.8323  0.8369
 7759TIP3    H244769   6.022   1.011  11.998  0.5392 -0.9692  1.6081
 7760TIP3   OH244770   4.921   1.831   3.031 -0.4261  0.8143 -0.2236
 7760TIP3    H144771   4.834   1.820   2.992 -0.4832  0.8931 -0.1173
 7760TIP3    H244772   4.916   1.914   3.079  0.1858  1.5800 -1.4726
 7761TIP3   OH244773   1.455   5.912   2.934  0.1072  0.2013  0.4245
 7761TIP3    H144774   1.413   5.838   2.978  1.2258 -0.1072  0.9938
 7761TIP3    H244775   1.547   5.887   2.926 -0.1732  0.0147 -2.6812
 7762TIP3   OH244776   6.576   0.636  11.179  0.0818  0.4198 -0.5395
 7762TIP3    H144777   6.631   0.631  11.257  0.6668  2.3731 -0.7896
 7762TIP3    H244778   6.602   0.561  11.126  0.1468 -0.5523  0.8349
 7763TIP3   OH244779   1.062   6.295   1.968  0.4935  0.2395  0.2671
 7763TIP3    H144780   1.116   6.356   1.918 -1.0692  0.4463 -1.2032
 7763TIP3    H244781   1.043   6.224   1.907  1.2674 -1.1486  1.5827
 7764TIP3   OH244782   3.131   6.613  13.806  0.0323  0.4618  0.0150
 7764TIP3    H144783   3.139   6.528  13.848  1.4354 -0.2880 -1.7282
 7764TIP3    H244784   3.203   6.665  13.842 -0.2883  0.6274  0.4167
 7765TIP3   OH244785   3.367   1.229   0.160 -0.0647  0.0374 -0.5137
 7765TIP3    H144786   3.298   1.292   0.182  0.5938  1.0292 -1.2753
 7765TIP3    H244787   3.430   1.280   0.110  0.3660 -1.2971 -1.3200
 7766TIP3   OH244788   1.919   4.766  13.872 -0.3601 -0.6184 -0.1701
 7766TIP3    H144789   1.954   4.844  13.828 -2.6532 -0.3860 -1.6476
 7766TIP3    H244790   1.852   4.733  13.812 -1.6749 -1.8664  1.9514
 7767TIP3   OH244791   3.201   1.811   5.985 -0.1865 -0.8805  0.1214
 7767TIP3    H144792   3.273   1.852   5.937 -1.5106  0.5944 -0.6764
 7767TIP3    H244793   3.238   1.790   6.070  1.5060 -1.2100 -0.6678
 7768TIP3   OH244794   0.784   5.439   4.729 -0.3249 -0.0538  0.2339
 7768TIP3    H144795   0.728   5.361   4.733 -0.9944  0.4290  0.3940
 7768TIP3    H244796   0.838   5.427   4.651  0.2812 -1.1513  0.8141
 7769TIP3   OH244797   3.485   6.176   4.459 -0.0811  1.0191 -0.3342
 7769TIP3    H144798   3.533   6.207   4.382 -0.9378  0.3662 -1.1398
 7769TIP3    H244799   3.439   6.098   4.429 -0.7685  1.0051  0.7277
 7770TIP3   OH244800   5.840   1.931   5.462 -0.5701 -0.0864 -0.7744
 7770TIP3    H144801   5.826   2.009   5.515 -0.4796 -1.1973  0.9382
 7770TIP3    H244802   5.887   1.962   5.385  0.8581  1.3139  0.6300
 7771TIP3   OH244803   5.599   3.947  15.548 -0.6976  0.0254  0.1150
 7771TIP3    H144804   5.570   3.934  15.458  3.0064 -0.6191 -1.0725
 7771TIP3    H244805   5.635   3.862  15.574  1.4180  1.1565  0.9643
 7772TIP3   OH244806   5.310   2.012   2.104  0.2451 -0.1337 -0.2425
 7772TIP3    H144807   5.403   2.034   2.112  0.1679  0.7040 -1.5562
 7772TIP3    H244808   5.267   2.095   2.087 -0.6479 -0.6342 -0.4651
 7773TIP3   OH244809   2.760   2.394   4.901 -0.3105  0.2751 -0.1984
 7773TIP3    H144810   2.795   2.352   4.980 -2.9346 -2.8885 -0.6237
 7773TIP3    H244811   2.671   2.361   4.894  0.2227 -0.4475 -5.0974
 7774TIP3   OH244812   5.596   0.002   5.864  0.3815  0.0521 -0.3571
 7774TIP3    H144813   5.649  -0.012   5.942 -0.9661 -1.2302  0.3637
 7774TIP3    H244814   5.518   0.047   5.896  0.9257  1.7571 -1.3706
 7775TIP3   OH244815   6.723   1.146  12.943 -0.4313  0.1050  0.0171
 7775TIP3    H144816   6.643   1.183  12.905 -0.5010  0.6741  0.7092
 7775TIP3    H244817   6.782   1.135  12.868 -0.8893  0.3816 -0.3914
 7776TIP3   OH244818   3.714   0.424  10.992  0.1643  0.4996 -0.1539
 7776TIP3    H144819   3.667   0.502  11.023 -0.7451 -0.2292  0.3223
 7776TIP3    H244820   3.651   0.379  10.935  0.8096  0.2895 -0.7100
 7777TIP3   OH244821   2.036   4.304   1.301  0.0887  0.2444 -0.5744
 7777TIP3    H144822   2.128   4.332   1.304  0.4705 -0.9828 -0.4994
 7777TIP3    H244823   2.040   4.208   1.305 -1.3274  0.2647  2.8307
 7778TIP3   OH244824   0.320   6.733  13.392 -0.7354  0.2449  0.1766
 7778TIP3    H144825   0.269   6.778  13.459  1.7267  2.9656  0.3148
 7778TIP3    H244826   0.397   6.700  13.439 -0.6401 -0.7792 -0.6757
 7779TIP3   OH244827   6.507   3.938   5.221  0.8560  0.1642  0.0228
 7779TIP3    H144828   6.575   3.920   5.287  2.5457  0.9797 -1.4748
 7779TIP3    H244829   6.554   3.942   5.138 -0.8761  1.8313 -0.9107
 7780TIP3   OH244830   4.857   6.700  12.952  0.1953 -0.3336 -0.1372
 7780TIP3    H144831   4.872   6.612  12.987  0.5042  0.6876  2.4000
 7780TIP3    H244832   4.795   6.740  13.012 -0.9893  0.7451 -2.0384
 7781TIP3   OH244833   5.343   5.990  14.320  0.2852  0.1758 -0.5315
 7781TIP3    H144834   5.321   6.081  14.300 -2.5314 -0.4064 -0.2855
 7781TIP3    H244835   5.328   5.943  14.239 -0.8845 -0.4871  0.0584
 7782TIP3   OH244836   3.611   5.569  12.347 -0.0576 -0.0266 -0.7019
 7782TIP3    H144837   3.611   5.603  12.437 -1.0357  0.2653 -0.8011
 7782TIP3    H244838   3.701   5.577  12.318  0.4013 -0.7000  0.4819
 7783TIP3   OH244839   3.526   2.445  16.072 -0.2158  0.1725 -0.1398
 7783TIP3    H144840   3.575   2.471  16.150  0.7991  0.1881 -0.7722
 7783TIP3    H244841   3.578   2.375  16.033 -0.8851 -0.0604 -0.6216
 7784TIP3   OH244842   6.177   4.361   2.664 -0.3767 -0.3058  0.3503
 7784TIP3    H144843   6.106   4.395   2.718 -2.2715 -1.4281 -1.3978
 7784TIP3    H244844   6.164   4.266   2.663  0.7880 -0.4700 -0.4739
 7785TIP3   OH244845   4.533   6.680  16.553 -0.1145 -0.6063  0.4444
 7785TIP3    H144846   4.460   6.705  16.609  0.6346  0.0516  1.1401
 7785TIP3    H244847   4.596   6.638  16.612  0.9392  0.6278  0.2285
 7786TIP3   OH244848   1.439   2.001  11.530 -0.5191  0.0728  0.4069
 7786TIP3    H144849   1.520   2.000  11.581 -0.8619 -0.5446  0.9632
 7786TIP3    H244850   1.394   1.920  11.557 -1.4149  0.5263  0.2806
 7787TIP3   OH244851   3.316   6.116  13.793  0.0637  0.2282 -0.2036
 7787TIP3    H144852   3.309   6.051  13.723  0.9193  0.9877 -1.0084
 7787TIP3    H244853   3.250   6.090  13.857 -0.9287 -0.3155 -1.4357
 7788TIP3   OH244854   6.153   2.592  13.936 -0.3774  0.0436  0.0343
 7788TIP3    H144855   6.174   2.638  14.017 -0.4754  0.7504 -0.3355
 7788TIP3    H244856   6.153   2.661  13.869 -0.2211 -0.5441 -0.5753
 7789TIP3   OH244857   1.332   6.758  16.701  0.2094  0.0681 -0.0169
 7789TIP3    H144858   1.279   6.768  16.622  0.2746  1.0503  0.0607
 7789TIP3    H244859   1.277   6.707  16.761  0.1440 -0.6435 -0.6838
 7790TIP3   OH244860   2.472   3.966   5.738  0.6617 -0.0932  0.2987
 7790TIP3    H144861   2.382   3.986   5.711  0.6622  0.9772  1.0324
 7790TIP3    H244862   2.505   3.906   5.671 -0.6094 -0.5142  0.0397
 7791TIP3   OH244863   4.439   2.683  13.454  0.1698 -0.5382 -0.3774
 7791TIP3    H144864   4.501   2.755  13.444  0.0660 -0.6366 -1.8645
 7791TIP3    H244865   4.459   2.624  13.381 -2.2237 -0.1512 -1.3907
 7792TIP3   OH244866   0.922   4.984  16.883 -0.6319 -0.3547 -0.1630
 7792TIP3    H144867   1.006   4.999  16.839 -0.3309  0.8067  0.7897
 7792TIP3    H244868   0.879   4.917  16.830  0.4991 -0.2888 -1.1853
 7793TIP3   OH244869   4.961   3.702   3.665  0.6362  0.1013  0.0544
 7793TIP3    H144870   5.019   3.634   3.700  0.6458  0.2810  0.3873
 7793TIP3    H244871   4.983   3.706   3.571  2.6376  1.6325  0.5601
 7794TIP3   OH244872   1.528   3.866  12.477 -0.4777 -0.3545  0.1436
 7794TIP3    H144873   1.555   3.900  12.562  2.8581 -1.3660 -0.4333
 7794TIP3    H244874   1.582   3.914  12.414  0.4590 -2.9009 -1.0591
 7795TIP3   OH244875   3.855   1.656  14.307  0.1257 -0.4058  0.0808
 7795TIP3    H144876   3.915   1.727  14.331 -0.9746 -0.3732  2.9037
 7795TIP3    H244877   3.787   1.658  14.374 -0.9982 -2.8708 -0.9209
 7796TIP3   OH244878   5.150   1.931   1.068  0.0345  0.4739  0.3170
 7796TIP3    H144879   5.130   1.987   0.994  0.8208  1.1582  0.6164
 7796TIP3    H244880   5.244   1.940   1.080  0.0875 -0.5281  0.6778
 7797TIP3   OH244881   3.884   4.323   5.229 -0.1446  0.0984  0.3239
 7797TIP3    H144882   3.817   4.306   5.163 -0.7458  2.2913  0.3538
 7797TIP3    H244883   3.837   4.323   5.312 -0.2315  2.2061  0.2959
 7798TIP3   OH244884   0.134   4.677   3.478  0.0187  0.6126 -0.3960
 7798TIP3    H144885   0.124   4.772   3.492  2.0621  1.0110 -1.4809
 7798TIP3    H244886   0.228   4.665   3.465 -0.1836 -1.6430  0.1510
 7799TIP3   OH244887   6.712   4.688   5.343 -0.7476  1.3012  0.3354
 7799TIP3    H144888   6.644   4.688   5.275  0.2623  0.3320 -0.7049
 7799TIP3    H244889   6.720   4.780   5.368 -1.9001  1.5276 -0.0875
 7800TIP3   OH244890   3.345   0.572   5.741  0.5753 -0.0935  0.4475
 7800TIP3    H144891   3.419   0.561   5.800  0.9450  0.6358  0.1177
 7800TIP3    H244892   3.374   0.536   5.658  0.5176  0.0843  0.3493
 7801TIP3   OH244893   4.319   2.871  17.137 -0.1260 -0.0122  0.7660
 7801TIP3    H144894   4.405   2.895  17.171  1.0556 -2.0836 -0.6655
 7801TIP3    H244895   4.291   2.796  17.190  0.3358 -1.2735 -0.7375
 7802TIP3   OH244896   5.355   5.539   6.276 -0.1551  0.5210  0.1374
 7802TIP3    H144897   5.442   5.551   6.313  0.0020 -1.6880  0.5498
 7802TIP3    H244898   5.302   5.508   6.349 -0.7459 -0.3233 -0.6418
 7803TIP3   OH244899   1.454   1.400  17.045  0.6426 -0.5439  0.2077
 7803TIP3    H144900   1.502   1.479  17.020  1.4401 -0.5663  1.6400
 7803TIP3    H244901   1.421   1.365  16.962  0.7319  1.0061 -0.4903
 7804TIP3   OH244902   5.684   6.041   3.968  0.0202 -0.0766  0.3683
 7804TIP3    H144903   5.709   6.085   4.049  0.6722  0.4397 -0.1131
 7804TIP3    H244904   5.640   6.109   3.917 -0.4196 -0.4099  0.3029
 7805TIP3   OH244905   3.203   2.009  12.839  0.2313  0.0881 -0.0839
 7805TIP3    H144906   3.146   1.934  12.819  1.8052 -0.9586 -0.7354
 7805TIP3    H244907   3.277   1.999  12.779  1.4183  1.0735  1.1970
 7806TIP3   OH244908   6.197   4.779  16.334 -0.4139 -0.6760  0.0183
 7806TIP3    H144909   6.119   4.834  16.331  1.2744  1.7351 -2.0208
 7806TIP3    H244910   6.210   4.760  16.427 -1.4054  1.8898  0.7359
 7807TIP3   OH244911   0.732   6.437  17.094 -0.3878  0.3879 -0.1389
 7807TIP3    H144912   0.818   6.446  17.054 -0.8014 -0.0226 -1.1412
 7807TIP3    H244913   0.689   6.521  17.079 -1.2845 -0.4421 -2.3656
 7808TIP3   OH244914   3.950   4.066   5.551  0.0553 -0.8012  0.0895
 7808TIP3    H144915   4.003   4.073   5.630  0.0889  0.5439 -0.0470
 7808TIP3    H244916   4.014   4.065   5.479 -0.0718  0.2116 -0.0418
 7809TIP3   OH244917   1.134   0.292  14.219  0.0741 -0.2541 -0.0628
 7809TIP3    H144918   1.038   0.290  14.218  0.0539  0.2127  1.2259
 7809TIP3    H244919   1.159   0.205  14.188 -0.7311  0.8019 -3.9999
 7810TIP3   OH244920   5.110   4.849   2.317 -0.2202  0.3734 -0.8605
 7810TIP3    H144921   5.175   4.884   2.377  1.8567 -3.6874 -0.5440
 7810TIP3    H244922   5.051   4.798   2.373 -1.6231  1.1590 -1.6007
 7811TIP3   OH244923   4.422   6.439  15.126  0.0616 -0.1046  0.3443
 7811TIP3    H144924   4.389   6.353  15.152  1.1322 -0.6994 -0.2638
 7811TIP3    H244925   4.470   6.423  15.045  0.5111  1.0196  0.3856
 7812TIP3   OH244926   0.197   1.183  15.539  0.1925 -0.3616  0.3390
 7812TIP3    H144927   0.165   1.186  15.629 -0.4977 -0.1718  0.0839
 7812TIP3    H244928   0.290   1.159  15.548  0.6087  1.5038  1.2054
 7813TIP3   OH244929   2.169   1.859  12.350  0.3990  0.4094 -0.3283
 7813TIP3    H144930   2.085   1.873  12.306 -0.6370 -0.7519  1.2464
 7813TIP3    H244931   2.191   1.945  12.387 -0.8846  0.3695  0.5712
 7814TIP3   OH244932   1.614   5.653   5.341 -0.5271 -0.5454  0.4365
 7814TIP3    H144933   1.582   5.731   5.294  0.4261 -1.2078 -1.3720
 7814TIP3    H244934   1.542   5.630   5.401 -0.0636  2.8305  2.4085
 7815TIP3   OH244935   3.031   1.215   2.512  0.4641 -0.1356 -0.1324
 7815TIP3    H144936   3.122   1.225   2.486  0.7667 -0.7319  0.6728
 7815TIP3    H244937   3.013   1.292   2.566  1.0723 -0.9886  1.3043
 7816TIP3   OH244938   6.526   0.414  12.830  0.3060  0.6249  0.4842
 7816TIP3    H144939   6.556   0.471  12.758 -1.3528  0.9996  0.0620
 7816TIP3    H244940   6.479   0.344  12.786 -0.1289  0.4797  1.1838
 7817TIP3   OH244941   0.274   3.156  12.201  0.5227 -0.8871 -0.6152
 7817TIP3    H144942   0.283   3.081  12.143 -0.7452 -1.0508 -0.6096
 7817TIP3    H244943   0.180   3.169  12.210  0.7100 -0.5165  0.9525
 7818TIP3   OH244944   0.643   6.442   2.390  0.5599 -0.6279  0.2218
 7818TIP3    H144945   0.557   6.402   2.391  0.7235 -1.0227 -1.0323
 7818TIP3    H244946   0.699   6.379   2.344  0.8421  0.9921 -1.7022
 7819TIP3   OH244947   0.727   0.579  16.547  0.3249 -0.5996  0.6291
 7819TIP3    H144948   0.655   0.637  16.574 -0.4977 -1.7030  0.8362
 7819TIP3    H244949   0.782   0.634  16.491 -0.7520  0.2213  0.3627
 7820TIP3   OH244950   3.637   2.585  17.228  0.0811  0.0290 -0.6103
 7820TIP3    H144951   3.588   2.554  17.305 -0.3588  1.1732 -0.4165
 7820TIP3    H244952   3.612   2.524  17.158  1.0066 -1.4382  0.2877
 7821TIP3   OH244953   6.206   3.630  12.809 -0.3472 -0.1771 -0.4255
 7821TIP3    H144954   6.175   3.721  12.811  0.4888  0.1230 -0.7678
 7821TIP3    H244955   6.275   3.630  12.743  1.2807 -0.5502  1.2454
 7822TIP3   OH244956   4.591   2.806  11.397 -0.1062 -0.0951 -0.3879
 7822TIP3    H144957   4.536   2.761  11.462 -0.7862 -0.0336 -0.9222
 7822TIP3    H244958   4.587   2.750  11.320  1.1122 -0.4275 -0.2187
 7823TIP3   OH244959   0.132   0.841  14.937 -0.4538  0.2233 -0.2291
 7823TIP3    H144960   0.132   0.936  14.929  1.3774  0.1482 -1.3339
 7823TIP3    H244961   0.136   0.825  15.031  0.9614  1.2494 -0.1009
 7824TIP3   OH244962   2.117   6.470  16.576  0.0328  0.1805  0.1826
 7824TIP3    H144963   2.152   6.449  16.663  2.9489  2.2798 -0.4069
 7824TIP3    H244964   2.073   6.390  16.548  0.5404 -1.0983  2.8908
 7825TIP3   OH244965   4.177   1.632  13.138  0.4611  0.0255  1.1449
 7825TIP3    H144966   4.153   1.696  13.072 -2.7670 -1.5222  0.7123
 7825TIP3    H244967   4.102   1.630  13.198  1.3959 -1.8169  2.3213
 7826TIP3   OH244968   5.315   1.933  13.195 -0.6610 -0.2434  0.3580
 7826TIP3    H144969   5.398   1.935  13.148 -1.0311 -0.7550 -0.3232
 7826TIP3    H244970   5.338   1.899  13.282  0.1912  1.7248  0.9265
 7827TIP3   OH244971   4.852   6.441   2.901 -0.3180  0.0826 -0.3492
 7827TIP3    H144972   4.821   6.362   2.858 -3.6270  1.3622 -0.4446
 7827TIP3    H244973   4.879   6.498   2.829 -0.5617  0.1042 -0.4222
 7828TIP3   OH244974   0.075   2.440  14.120  0.3827 -0.1067 -0.0093
 7828TIP3    H144975   0.026   2.515  14.154 -0.5067 -0.6489 -0.0808
 7828TIP3    H244976   0.157   2.439  14.170 -0.6982 -0.6083  1.7671
 7829TIP3   OH244977   1.024   1.126   0.748  0.1804  0.0763  0.0560
 7829TIP3    H144978   0.982   1.059   0.694 -0.9644  0.5509  0.3190
 7829TIP3    H244979   1.016   1.093   0.837  0.7042 -0.0016  0.0746
 7830TIP3   OH244980   2.738   0.202  14.280  0.3014  0.2336  0.1660
 7830TIP3    H144981   2.696   0.116  14.274 -2.0962  1.4749 -1.6150
 7830TIP3    H244982   2.772   0.218  14.192  0.3393  1.3352  0.3806
 7831TIP3   OH244983   1.257   1.052  13.119 -0.0096 -1.1302  0.3647
 7831TIP3    H144984   1.247   1.143  13.147 -0.0205 -1.0148 -0.0075
 7831TIP3    H244985   1.299   1.058  13.033  1.1667 -1.5265  0.8960
 7832TIP3   OH244986   0.934   3.914  16.957  0.1249  0.5505  0.2729
 7832TIP3    H144987   0.920   3.962  17.038 -0.8126  0.2995  0.2656
 7832TIP3    H244988   0.862   3.940  16.900  1.4817  1.6996 -0.9476
 7833TIP3   OH244989   1.109   6.540  14.800 -0.1229  0.2008 -0.5079
 7833TIP3    H144990   1.051   6.508  14.732 -0.8401  1.0724 -0.3045
 7833TIP3    H244991   1.164   6.605  14.757  2.9307 -2.8799 -1.5042
 7834TIP3   OH244992   4.021   5.828   1.172  0.3141  0.8285 -0.0103
 7834TIP3    H144993   3.964   5.756   1.199  0.7661 -0.1958 -1.7946
 7834TIP3    H244994   4.039   5.813   1.080  1.2057  2.6999 -0.1797
 7835TIP3   OH244995   2.160   2.982  16.797 -0.0846  0.1911  0.4295
 7835TIP3    H144996   2.255   2.990  16.795 -0.2413  1.8181 -1.1925
 7835TIP3    H244997   2.145   2.890  16.820  1.8709 -0.2760 -0.0377
 7836TIP3   OH244998   3.142   1.579   4.460  0.1169  0.1131  0.3936
 7836TIP3    H144999   3.192   1.545   4.535 -0.2529 -0.6706  0.2978
 7836TIP3    H245000   3.087   1.505   4.434  0.0257  0.4812 -0.4627
 7837TIP3   OH245001   0.351   2.692   1.147  0.1112  0.2934  0.1500
 7837TIP3    H145002   0.352   2.731   1.235  0.7541  0.4967  0.0534
 7837TIP3    H245003   0.331   2.599   1.163  3.5242 -0.4021  0.8340
 7838TIP3   OH245004   6.623   6.067   5.311 -0.1019  0.0536 -0.7534
 7838TIP3    H145005   6.678   6.054   5.387 -1.7289  0.7153  0.5670
 7838TIP3    H245006   6.565   6.140   5.335 -1.0286 -0.1093 -2.3908
 7839TIP3   OH245007   2.679   6.440   4.845 -0.2174  0.0607 -0.2685
 7839TIP3    H145008   2.751   6.427   4.906  0.0554  3.3118  0.2009
 7839TIP3    H245009   2.602   6.407   4.891  0.7979 -2.7079 -0.4569
 7840TIP3   OH245010   6.808   4.655   6.284 -0.1305 -0.0464  0.0722
 7840TIP3    H145011   6.864   4.725   6.250 -0.6268 -0.5700 -1.8833
 7840TIP3    H245012   6.723   4.698   6.299 -0.7318 -0.4125 -2.0960
 7841TIP3   OH245013   3.025   2.507  12.329 -0.0329  0.0210 -0.6602
 7841TIP3    H145014   2.951   2.537  12.277 -1.1785  0.1045  0.9769
 7841TIP3    H245015   3.020   2.558  12.409  1.8005  0.0159 -0.5250
 7842TIP3   OH245016   5.450   5.669  12.002 -0.0006  0.5463  0.3479
 7842TIP3    H145017   5.400   5.592  11.976 -0.2720  0.9747 -0.4145
 7842TIP3    H245018   5.540   5.650  11.977  0.0549  0.1863  0.8111
 7843TIP3   OH245019   1.026   4.730  14.331  0.0051  0.1928  0.3112
 7843TIP3    H145020   0.933   4.750  14.325  0.0515  0.2537 -0.2702
 7843TIP3    H245021   1.030   4.634  14.333  0.0341  0.1231 -1.8346
 7844TIP3   OH245022   3.769   1.959   3.622 -0.3797 -0.0523 -0.1703
 7844TIP3    H145023   3.741   1.937   3.533 -1.2425 -1.6913  0.4789
 7844TIP3    H245024   3.851   1.911   3.633 -0.5572 -0.2875  0.1137
 7845TIP3   OH245025   2.797   3.717   2.717 -0.5325 -0.4350 -0.4087
 7845TIP3    H145026   2.871   3.776   2.701 -0.1272 -1.3958 -2.2571
 7845TIP3    H245027   2.722   3.775   2.723  0.3876  0.5957  1.9164
 7846TIP3   OH245028   0.769   5.226   2.336 -0.0321 -0.0711 -0.5063
 7846TIP3    H145029   0.728   5.298   2.384 -1.2936 -0.3712 -1.1433
 7846TIP3    H245030   0.839   5.195   2.395 -0.7820  0.3590  0.6172
 7847TIP3   OH245031   4.821   4.397  13.862 -0.0430 -0.1027 -0.5948
 7847TIP3    H145032   4.779   4.325  13.814 -0.4704  0.3054 -0.8345
 7847TIP3    H245033   4.755   4.425  13.925  0.7543 -1.0888  0.7025
 7848TIP3   OH245034   5.006   4.455  12.959 -0.0416  0.2013  0.5312
 7848TIP3    H145035   4.994   4.367  12.924 -1.8002  0.0578  1.4401
 7848TIP3    H245036   4.923   4.499  12.942  0.4982  1.4015  0.9263
 7849TIP3   OH245037   3.338   5.580  16.359  0.2192  0.0503 -0.0408
 7849TIP3    H145038   3.418   5.569  16.308 -1.9554 -1.8353 -3.1987
 7849TIP3    H245039   3.318   5.492  16.391  0.6491  0.9321  2.7687
 7850TIP3   OH245040   1.620   0.940  14.120  0.2813 -0.1248  0.2394
 7850TIP3    H145041   1.565   0.875  14.076  1.1235 -0.4743 -0.3051
 7850TIP3    H245042   1.625   1.013  14.058  0.6362 -0.1947  0.1862
 7851TIP3   OH245043   5.546   2.454  13.128 -0.1030  0.1213 -0.6291
 7851TIP3    H145044   5.627   2.464  13.078  0.9693 -1.1313  0.8146
 7851TIP3    H245045   5.529   2.360  13.128 -0.5380  0.1894  0.6452
 7852TIP3   OH245046   3.996   0.478  14.738  0.5668 -0.3270 -0.5944
 7852TIP3    H145047   3.917   0.426  14.724  1.7533 -1.9458 -1.4219
 7852TIP3    H245048   4.003   0.486  14.833  0.5375 -1.9721 -0.4430
 7853TIP3   OH245049   1.220   0.522  16.028 -0.4444  0.0966 -0.3724
 7853TIP3    H145050   1.131   0.487  16.020 -0.6974  0.8257 -0.7753
 7853TIP3    H245051   1.276   0.444  16.028 -1.1032 -0.3909  0.2902
 7854TIP3   OH245052   6.766   0.897  12.362  0.1318  0.0512  0.1958
 7854TIP3    H145053   6.731   0.880  12.450  0.5891 -3.3855 -0.2375
 7854TIP3    H245054   6.688   0.909  12.308 -0.1694  0.9550  0.8118
 7855TIP3   OH245055   4.619   4.217  17.106 -0.1158 -0.5864  0.3204
 7855TIP3    H145056   4.671   4.297  17.096  0.2549 -0.5388  2.3232
 7855TIP3    H245057   4.684   4.147  17.112 -0.4521 -1.1532 -1.9940
 7856TIP3   OH245058   1.313   6.715   2.742  0.3777 -0.0838  0.3919
 7856TIP3    H145059   1.311   6.764   2.825 -1.1609 -0.7619  0.7566
 7856TIP3    H245060   1.293   6.781   2.675  0.1512  0.1624  0.6983
 7857TIP3   OH245061   3.186   3.336   0.243  0.1481  0.0083  0.4070
 7857TIP3    H145062   3.102   3.382   0.249  0.6436  1.0255 -0.1982
 7857TIP3    H245063   3.193   3.310   0.151 -0.8518 -2.7176  1.0764
 7858TIP3   OH245064   5.921   1.476   2.529  0.0567  0.1873 -1.1356
 7858TIP3    H145065   5.836   1.501   2.567  1.1365  1.2641  0.6374
 7858TIP3    H245066   5.924   1.523   2.446 -1.2928 -0.2317 -1.4340
 7859TIP3   OH245067   0.903   5.517   1.509 -0.4690 -0.0468 -0.2781
 7859TIP3    H145068   0.907   5.573   1.587 -1.2385  0.5290 -0.6433
 7859TIP3    H245069   0.965   5.447   1.527  0.1159  0.6343  0.4248
 7860TIP3   OH245070   5.060   5.243  15.874  0.0197 -0.3784 -0.6678
 7860TIP3    H145071   5.119   5.303  15.919  1.5221 -1.2370 -1.4629
 7860TIP3    H245072   4.980   5.244  15.926  0.7700  0.7089  0.4861
 7861TIP3   OH245073   4.218   1.450   1.532  0.1828 -0.1923  0.0425
 7861TIP3    H145074   4.127   1.463   1.556 -0.1455 -2.3789  0.0584
 7861TIP3    H245075   4.267   1.501   1.596 -0.9689 -0.2710  0.9990
 7862TIP3   OH245076   0.554   1.463   4.141  0.6117  0.7923  0.2484
 7862TIP3    H145077   0.647   1.488   4.140  1.0236 -0.6150  0.8875
 7862TIP3    H245078   0.541   1.427   4.229 -0.2721  0.0145 -0.1938
 7863TIP3   OH245079   4.905   0.064  13.773  0.6610 -0.4738  0.3658
 7863TIP3    H145080   4.983   0.035  13.819 -0.4012 -0.1962  2.4234
 7863TIP3    H245081   4.835   0.006  13.804 -0.6928  1.6833  1.5171
 7864TIP3   OH245082   0.072   3.020  12.786 -1.1345  0.5772  0.2011
 7864TIP3    H145083   0.031   2.944  12.826 -0.7756  0.6423  0.7006
 7864TIP3    H245084   0.109   2.988  12.704 -1.5712  0.3679  0.0835
 7865TIP3   OH245085   6.244   4.218   3.945 -0.7169  0.1986  0.1801
 7865TIP3    H145086   6.161   4.175   3.965  0.1046 -1.4550  0.0418
 7865TIP3    H245087   6.263   4.192   3.855 -0.5786  1.4495 -0.1603
 7866TIP3   OH245088   3.785   2.242   4.969 -0.1520 -0.0458 -0.3797
 7866TIP3    H145089   3.786   2.189   4.889 -3.1454  1.0091 -1.1700
 7866TIP3    H245090   3.805   2.179   5.039 -2.4083 -1.9922 -1.4316
 7867TIP3   OH245091   0.543   3.597   2.167  0.1024  0.3955  0.3323
 7867TIP3    H145092   0.505   3.659   2.106 -0.3237 -0.2752 -0.0930
 7867TIP3    H245093   0.637   3.612   2.162 -0.0277  1.2681  0.5233
 7868TIP3   OH245094   6.243   2.119  11.344  0.1198  0.2193 -0.6647
 7868TIP3    H145095   6.158   2.091  11.309  0.5513 -2.0754 -0.0062
 7868TIP3    H245096   6.224   2.143  11.435  0.0912  0.1119 -0.6410
 7869TIP3   OH245097   2.636   3.779   4.748  0.4711  0.1708 -0.1815
 7869TIP3    H145098   2.705   3.844   4.732 -1.2982  1.7933 -1.3590
 7869TIP3    H245099   2.556   3.820   4.716 -0.8992 -2.1061  0.2182
 7870TIP3   OH245100   6.757   3.193   0.421  0.2242 -0.7422 -0.1119
 7870TIP3    H145101   6.765   3.122   0.484 -0.2488 -1.6657 -1.0933
 7870TIP3    H245102   6.664   3.194   0.397 -0.1178  1.2640  1.1127
 7871TIP3   OH245103   1.214   1.032   3.904 -0.3000 -0.4438 -0.3922
 7871TIP3    H145104   1.125   0.998   3.897 -1.1701  1.6225  0.1727
 7871TIP3    H245105   1.257   0.971   3.964 -1.7667 -0.6607  0.4894
 7872TIP3   OH245106   4.082   0.377  15.060 -0.5821  0.1060  0.2675
 7872TIP3    H145107   4.087   0.323  15.139  0.0971  0.2135  0.2932
 7872TIP3    H245108   4.167   0.368  15.018 -0.8337  0.2924 -0.3027
 7873TIP3   OH245109   5.953   4.239   3.453  0.0211  0.3458  0.4373
 7873TIP3    H145110   5.960   4.165   3.513  2.9763  0.9642  0.9338
 7873TIP3    H245111   6.010   4.305   3.490  1.0128  1.1640 -2.4483
 7874TIP3   OH245112   3.417   1.948   3.213 -0.2232 -0.3164  0.0312
 7874TIP3    H145113   3.323   1.965   3.215 -0.4849 -1.6978 -0.1224
 7874TIP3    H245114   3.452   2.014   3.153 -1.1786 -0.2033 -0.4090
 7875TIP3   OH245115   2.887   5.292  15.548  0.1408 -0.3799  0.0637
 7875TIP3    H145116   2.936   5.342  15.612  0.1707 -1.0758  0.5875
 7875TIP3    H245117   2.795   5.305  15.571  0.0619  0.8990 -0.8984
 7876TIP3   OH245118   2.561   0.553  16.833  0.0008 -0.3850  0.1769
 7876TIP3    H145119   2.506   0.625  16.802  1.5599  0.9066  0.3451
 7876TIP3    H245120   2.574   0.571  16.926 -0.0825 -1.1972  0.3460
 7877TIP3   OH245121   0.925   2.091  11.952 -0.0673 -0.5074 -0.3421
 7877TIP3    H145122   1.018   2.112  11.947 -0.0007 -0.4822  0.8495
 7877TIP3    H245123   0.884   2.171  11.983 -0.0604 -1.4848  2.3224
 7878TIP3   OH245124   3.286   5.617  12.895  0.1695  0.5419 -0.0514
 7878TIP3    H145125   3.377   5.633  12.921  0.2900  0.9968 -0.7237
 7878TIP3    H245126   3.236   5.686  12.939  0.2476  0.7304 -0.2544
 7879TIP3   OH245127   5.811   4.499  15.660  0.1447  0.1429 -0.0441
 7879TIP3    H145128   5.807   4.434  15.590  2.5476 -3.4404  2.9354
 7879TIP3    H245129   5.873   4.565  15.629  0.1798 -0.6930 -1.7823
 7880TIP3   OH245130   2.555   2.601   3.085 -0.4049 -0.4276  0.0536
 7880TIP3    H145131   2.523   2.686   3.055 -1.8910 -0.2173  2.1439
 7880TIP3    H245132   2.629   2.622   3.141 -0.5388 -0.5319  0.2710
 7881TIP3   OH245133   4.413   0.972  13.604 -0.2890 -0.2458  0.1342
 7881TIP3    H145134   4.499   0.998  13.572 -0.0566 -0.2951  0.7006
 7881TIP3    H245135   4.378   0.915  13.535  0.0287 -0.0247 -0.2099
 7882TIP3   OH245136   6.669   1.971   0.698  0.4530 -0.3919 -0.7580
 7882TIP3    H145137   6.595   1.984   0.758 -2.1538 -1.3742 -3.6489
 7882TIP3    H245138   6.704   1.885   0.723 -0.0381 -0.4042 -0.0586
 7883TIP3   OH245139   2.763   2.133  16.885  0.4037 -0.0599  0.1580
 7883TIP3    H145140   2.764   2.040  16.863  1.3546 -0.3806  1.5359
 7883TIP3    H245141   2.688   2.168  16.837  0.1875 -1.4837 -0.5603
 7884TIP3   OH245142   1.467   0.354   1.227  0.4803 -0.0703  0.9048
 7884TIP3    H145143   1.411   0.358   1.305  0.6808  2.1140  0.9671
 7884TIP3    H245144   1.543   0.408   1.250 -0.5093  2.5533 -1.6010
 7885TIP3   OH245145   3.242   1.034  13.248 -0.0305 -0.0568 -0.1212
 7885TIP3    H145146   3.240   1.124  13.217  0.8353 -0.2219 -0.6505
 7885TIP3    H245147   3.304   1.035  13.321 -2.1025  0.3485  1.7081
 7886TIP3   OH245148   0.774   0.737   3.442  0.1034 -0.3177 -0.3815
 7886TIP3    H145149   0.864   0.753   3.415  0.5429  1.1699  1.7886
 7886TIP3    H245150   0.771   0.765   3.533 -2.1001 -2.1254  0.1496
 7887TIP3   OH245151   0.650   3.333   5.880  0.2341 -0.2243 -0.4204
 7887TIP3    H145152   0.713   3.262   5.864 -0.8109 -0.8311 -1.9048
 7887TIP3    H245153   0.702   3.401   5.923  1.6278 -1.2098 -0.4876
 7888TIP3   OH245154   2.423   3.385  12.720 -0.8429 -0.6861  0.2781
 7888TIP3    H145155   2.517   3.386  12.741 -0.3394 -0.0478 -1.8169
 7888TIP3    H245156   2.382   3.339  12.793  1.1042 -0.9111  1.2615
 7889TIP3   OH245157   5.288   5.244  16.335  0.4004 -0.1015  0.5247
 7889TIP3    H145158   5.214   5.284  16.289  0.2554  0.7514  1.4907
 7889TIP3    H245159   5.358   5.308  16.327  0.8362 -0.6200  0.1808
 7890TIP3   OH245160   3.863   4.857  13.925 -0.2169  0.9291  0.0049
 7890TIP3    H145161   3.845   4.951  13.924 -0.8454  0.8297  1.3384
 7890TIP3    H245162   3.794   4.819  13.871 -0.3511  1.1650  0.0090
 7891TIP3   OH245163   0.865   3.605   5.739 -0.0646  0.4699  0.1059
 7891TIP3    H145164   0.871   3.564   5.826 -2.4944 -0.6719 -0.2162
 7891TIP3    H245165   0.772   3.598   5.716  0.5605  0.6573 -2.6368
 7892TIP3   OH245166   1.126   2.536   6.206  0.2345  0.1781 -0.0666
 7892TIP3    H145167   1.054   2.475   6.225  0.7712 -0.4179  0.0413
 7892TIP3    H245168   1.202   2.497   6.248  0.4406  1.2683  0.5926
 7893TIP3   OH245169   0.191   2.988  16.877  0.3244  0.4107 -0.7895
 7893TIP3    H145170   0.170   2.900  16.847 -0.3720  0.8112 -1.4725
 7893TIP3    H245171   0.285   2.998  16.858  0.8689 -0.8936  1.0804
 7894TIP3   OH245172   4.033   0.779   3.136  0.0288  0.2919  0.2678
 7894TIP3    H145173   4.038   0.831   3.216 -0.2584 -0.5348  0.8344
 7894TIP3    H245174   4.116   0.733   3.132 -0.8950 -1.5246  1.3962
 7895TIP3   OH245175   3.459   5.103   5.651 -0.2165  0.3466 -0.5215
 7895TIP3    H145176   3.363   5.098   5.642 -0.1890  0.7765 -1.0372
 7895TIP3    H245177   3.474   5.179   5.706 -0.1684  0.2814 -0.4425
 7896TIP3   OH245178   4.641   1.000  13.196  0.0210  0.3377 -0.3274
 7896TIP3    H145179   4.570   0.943  13.167 -1.1813  1.5900  0.1379
 7896TIP3    H245180   4.665   0.968  13.282  0.3547 -0.3894 -0.6880
 7897TIP3   OH245181   0.050   6.224  11.648 -0.1580  0.2305 -0.5826
 7897TIP3    H145182   0.024   6.166  11.719 -2.1949  1.8788  0.0665
 7897TIP3    H245183  -0.026   6.281  11.634  1.1435  1.5947 -2.3749
 7898TIP3   OH245184   3.587   4.284   0.327  0.1122 -0.4495 -0.5413
 7898TIP3    H145185   3.512   4.230   0.302 -0.3730  0.0656 -0.2004
 7898TIP3    H245186   3.560   4.374   0.309  0.4567 -0.2207  0.0431
 7899TIP3   OH245187   5.822   1.060  17.051  0.8727  0.4391 -0.2667
 7899TIP3    H145188   5.785   0.988  17.103  1.0944  0.2223 -0.4060
 7899TIP3    H245189   5.745   1.106  17.015  0.6481  1.7032  1.7389
 7900TIP3   OH245190   1.298   1.779  12.208 -0.0177 -0.2249 -0.6325
 7900TIP3    H145191   1.320   1.856  12.261  0.1251 -0.2885 -0.5974
 7900TIP3    H245192   1.302   1.706  12.271 -0.7036 -0.1871 -0.5484
 7901TIP3   OH245193   2.336   1.669   5.606  0.2726 -0.0987  0.8328
 7901TIP3    H145194   2.418   1.713   5.581  0.6208 -0.5499  1.1856
 7901TIP3    H245195   2.308   1.714   5.685  0.5395 -0.4008  1.0980
 7902TIP3   OH245196   4.868   3.150   0.507 -0.4646  0.0882  0.3086
 7902TIP3    H145197   4.922   3.188   0.576  0.2535  0.8785 -0.6632
 7902TIP3    H245198   4.789   3.204   0.507  0.1803  1.0490 -0.4832
 7903TIP3   OH245199   3.705   5.851   2.172 -0.4995 -0.0580  0.2843
 7903TIP3    H145200   3.626   5.899   2.152 -0.2610  0.1551 -0.1394
 7903TIP3    H245201   3.761   5.914   2.217 -1.1265 -0.5976  1.8622
 7904TIP3   OH245202   1.181   2.995   6.143  0.4296 -0.0003  0.1376
 7904TIP3    H145203   1.119   3.062   6.116 -0.6794 -1.2244 -0.4272
 7904TIP3    H245204   1.263   3.020   6.101  0.0513  1.0489  0.0086
 7905TIP3   OH245205   0.043   5.754  14.485  0.3407  0.4167  0.8655
 7905TIP3    H145206   0.025   5.695  14.557  0.8812  0.2478  0.8625
 7905TIP3    H245207   0.106   5.707  14.430  0.1760  0.6729  0.4526
 7906TIP3   OH245208   5.312   6.062  13.122 -0.0706  0.3796  0.1661
 7906TIP3    H145209   5.220   6.041  13.105 -0.4912  1.5765  0.8871
 7906TIP3    H245210   5.309   6.147  13.167  1.2516 -0.5498  2.0869
 7907TIP3   OH245211   0.624   5.138  14.424 -0.3097 -0.2039  0.5277
 7907TIP3    H145212   0.682   5.072  14.462  0.1287 -0.5309 -0.6948
 7907TIP3    H245213   0.593   5.189  14.499  2.5960  0.8199  1.0834
 7908TIP3   OH245214   5.291   5.046  14.963  0.1208 -0.6445 -0.7551
 7908TIP3    H145215   5.305   5.125  14.911  0.6789  1.7331  2.8165
 7908TIP3    H245216   5.210   5.063  15.012 -0.4229 -2.8207 -0.8438
 7909TIP3   OH245217   6.637   2.393  10.357  0.2989 -0.3487 -0.8591
 7909TIP3    H145218   6.593   2.424  10.278 -0.0042  0.0627 -0.5333
 7909TIP3    H245219   6.565   2.376  10.418  0.4582 -1.6971 -1.0343
 7910TIP3   OH245220   3.482   4.701  12.122 -0.2257 -0.0705  0.5205
 7910TIP3    H145221   3.501   4.743  12.206  0.1076 -0.8397  0.8359
 7910TIP3    H245222   3.568   4.682  12.085 -0.3717  0.3376 -0.0320
 7911TIP3   OH245223   5.747   1.343  12.247  0.5864  0.0417  0.4076
 7911TIP3    H145224   5.823   1.300  12.286 -0.1811 -1.9282 -0.2436
 7911TIP3    H245225   5.758   1.332  12.153  0.0367  0.6987  0.2593
 7912TIP3   OH245226   1.541   0.010  14.607  0.6818 -0.1296 -0.4211
 7912TIP3    H145227   1.581  -0.069  14.643  0.9037  0.3056  0.3075
 7912TIP3    H245228   1.491   0.047  14.680 -0.4101 -0.2467 -1.1090
 7913TIP3   OH245229   2.677   2.588   0.743  0.4787 -1.0775  0.1235
 7913TIP3    H145230   2.636   2.533   0.676  0.3482  0.4611 -1.0900
 7913TIP3    H245231   2.604   2.618   0.797  0.3723 -0.9474 -0.0885
 7914TIP3   OH245232   5.302   1.867   5.790 -0.1828 -0.1561  0.7361
 7914TIP3    H145233   5.264   1.834   5.871  1.2389 -0.1572  1.4031
 7914TIP3    H245234   5.396   1.873   5.807  0.2180 -0.7261 -1.0985
 7915TIP3   OH245235   2.123   2.647   5.100  0.9090  0.5506 -0.4901
 7915TIP3    H145236   2.094   2.730   5.137 -0.9804 -0.1965 -0.2303
 7915TIP3    H245237   2.122   2.586   5.174  1.1198  0.0077 -0.9315
 7916TIP3   OH245238   1.436   4.594  11.578 -0.2208 -0.3395  0.1190
 7916TIP3    H145239   1.506   4.534  11.552 -0.4051 -0.3010 -0.4776
 7916TIP3    H245240   1.366   4.536  11.609  0.6338 -0.3149  2.1126
 7917TIP3   OH245241   1.116   2.938   1.569 -0.5200 -0.1032  0.5093
 7917TIP3    H145242   1.097   2.852   1.532 -2.4070 -0.6236  2.5601
 7917TIP3    H245243   1.033   2.964   1.611  0.8534  1.4272  2.3332
 7918TIP3   OH245244   0.869   3.784  11.841 -0.1092  0.3895  0.3682
 7918TIP3    H145245   0.891   3.758  11.931  0.5639  2.9994  1.0001
 7918TIP3    H245246   0.793   3.730  11.819 -0.5714  0.0419  2.6664
 7919TIP3   OH245247   5.305   6.610  13.850  0.1717  0.3350  0.4204
 7919TIP3    H145248   5.361   6.535  13.828 -0.3100  0.0057  0.3073
 7919TIP3    H245249   5.363   6.686  13.843 -0.4514  0.5042 -4.1505
 7920TIP3   OH245250   3.668   3.299  10.659 -0.4571  0.1688 -0.3318
 7920TIP3    H145251   3.699   3.389  10.660  3.3401 -1.0559  1.5153
 7920TIP3    H245252   3.639   3.282  10.749  0.7678 -1.0498 -0.1523
 7921TIP3   OH245253   6.676   0.217   4.662 -0.4725  0.3035  0.4282
 7921TIP3    H145254   6.696   0.301   4.621  0.2186 -1.1332 -2.2522
 7921TIP3    H245255   6.592   0.191   4.624 -1.1734  0.2238  1.9928
 7922TIP3   OH245256   4.924   5.398   0.334 -0.3824 -0.0199 -0.4796
 7922TIP3    H145257   4.965   5.364   0.414  1.1652 -0.2503 -1.3506
 7922TIP3    H245258   4.841   5.350   0.327 -0.4217 -0.1646  0.8558
 7923TIP3   OH245259   1.977   2.988  14.548  0.0028 -0.4408 -0.2480
 7923TIP3    H145260   2.065   2.983  14.585 -0.0234  0.9916  0.0213
 7923TIP3    H245261   1.971   2.911  14.490  1.4809 -0.4620 -0.3901
 7924TIP3   OH245262   1.695   6.499  13.188  0.3152  0.3686  0.0066
 7924TIP3    H145263   1.684   6.528  13.097  0.9576 -1.6963 -0.7486
 7924TIP3    H245264   1.706   6.404  13.182 -0.6362  0.0790  2.3305
 7925TIP3   OH245265   1.381   6.615   6.589 -0.2830  0.9581 -0.0202
 7925TIP3    H145266   1.377   6.520   6.575  1.4787  1.1767 -2.2190
 7925TIP3    H245267   1.291   6.640   6.608 -0.9494 -0.9875 -0.4592
 7926TIP3   OH245268   1.430   3.330   3.998  0.8964 -0.0544 -0.8993
 7926TIP3    H145269   1.401   3.373   4.078 -1.7893 -1.8943 -0.7907
 7926TIP3    H245270   1.480   3.397   3.950 -1.7132  2.6244 -0.0033
 7927TIP3   OH245271   4.174   2.141  14.414  0.8998 -0.3209  0.1014
 7927TIP3    H145272   4.236   2.117  14.484  1.6177  1.3762  0.0722
 7927TIP3    H245273   4.198   2.231  14.391 -1.3629  0.2389 -0.1601
 7928TIP3   OH245274   1.294   5.923  15.990  0.2720  0.3529  0.0768
 7928TIP3    H145275   1.229   5.868  15.947 -1.4754  2.0318  0.5031
 7928TIP3    H245276   1.364   5.933  15.925 -1.1702  0.7957 -1.4446
 7929TIP3   OH245277   1.338   6.095   5.091 -0.2901  0.6503  0.2258
 7929TIP3    H145278   1.376   6.154   5.026 -0.3680  0.6668  0.1959
 7929TIP3    H245279   1.302   6.023   5.040 -1.2395  1.1529  0.1785
 7930TIP3   OH245280   2.744   0.584  17.024 -0.4367  0.4006  0.3939
 7930TIP3    H145281   2.740   0.491  17.003  0.3130  0.1097  1.5313
 7930TIP3    H245282   2.836   0.607  17.012 -0.6966  1.0949 -0.2874
 7931TIP3   OH245283   5.769   6.555  10.478 -0.3855 -0.1102 -0.0804
 7931TIP3    H145284   5.815   6.502  10.543 -1.0071 -2.2049 -1.2907
 7931TIP3    H245285   5.676   6.537  10.493 -0.6536  1.2641 -0.0021
 7932TIP3   OH245286   1.249   5.806   5.311 -0.2630 -0.1211 -0.1973
 7932TIP3    H145287   1.197   5.773   5.385 -1.3573 -0.3301 -1.0456
 7932TIP3    H245288   1.264   5.729   5.257  1.9863 -0.3037  0.6456
 7933TIP3   OH245289   5.544   5.036  16.753 -0.3413 -0.8347 -0.5721
 7933TIP3    H145290   5.640   5.035  16.759 -0.3066 -0.3294 -1.0105
 7933TIP3    H245291   5.517   5.103  16.816 -0.3726 -0.5508 -0.8870
 7934TIP3   OH245292   0.928   1.586   3.960  0.2702  0.1848  0.2559
 7934TIP3    H145293   0.840   1.580   3.921  0.0017 -1.0907  1.0167
 7934TIP3    H245294   0.978   1.519   3.914  0.8649  0.9254 -0.1885
 7935TIP3   OH245295   6.229   2.319  14.479 -0.2537  0.2991 -0.1836
 7935TIP3    H145296   6.292   2.383  14.445  1.0488 -0.0518  1.5165
 7935TIP3    H245297   6.230   2.333  14.573  0.4319 -2.5827  0.2592
 7936TIP3   OH245298   1.991   0.133  11.164  0.4950  0.0921 -0.0921
 7936TIP3    H145299   1.905   0.128  11.122  0.1128  0.6890  0.6118
 7936TIP3    H245300   2.023   0.221  11.142  0.6915  0.0700  0.1037
 7937TIP3   OH245301   4.644   5.775   4.235  0.3266 -0.0157 -0.0106
 7937TIP3    H145302   4.586   5.837   4.279  0.2578  1.8303 -2.5806
 7937TIP3    H245303   4.662   5.707   4.301 -1.7684  1.3087  1.9847
 7938TIP3   OH245304   2.287   1.253  15.677 -0.1245  0.4430 -0.0315
 7938TIP3    H145305   2.292   1.330  15.621  0.1119  0.1294 -0.4490
 7938TIP3    H245306   2.283   1.287  15.766 -2.1351  1.0055 -0.3188
 7939TIP3   OH245307   1.131   2.926  11.678  0.2082  0.9832 -0.0493
 7939TIP3    H145308   1.209   2.872  11.691  1.3152  1.6604 -3.2799
 7939TIP3    H245309   1.063   2.864  11.652 -0.0352  0.5330  1.6086
 7940TIP3   OH245310   5.167   0.414  13.563  0.1439  0.5592 -0.2047
 7940TIP3    H145311   5.252   0.369  13.567  0.2202  0.7679  0.6010
 7940TIP3    H245312   5.103   0.345  13.582  0.1649  0.5092 -0.3129
 7941TIP3   OH245313   3.951   6.526   5.703  0.4345 -0.5376 -0.0797
 7941TIP3    H145314   4.013   6.548   5.772  0.6979 -0.5471 -0.3135
 7941TIP3    H245315   3.994   6.457   5.653 -0.8413 -2.4145  1.3088
 7942TIP3   OH245316   5.406   0.990   2.097 -0.3443 -0.5537  0.1792
 7942TIP3    H145317   5.409   1.055   2.027  0.1462 -0.8925 -0.1169
 7942TIP3    H245318   5.498   0.970   2.115 -0.4933 -1.3165  0.1270
 7943TIP3   OH245319   1.462   2.814   4.840 -0.2101 -0.7466 -0.2561
 7943TIP3    H145320   1.508   2.858   4.912  0.4018 -0.7701 -0.6254
 7943TIP3    H245321   1.521   2.824   4.765 -0.9043 -0.5998 -0.7892
 7944TIP3   OH245322   5.694   0.880  12.272  0.3294  0.3172  0.0056
 7944TIP3    H145323   5.738   0.828  12.339  1.7112  1.3264 -0.0925
 7944TIP3    H245324   5.718   0.838  12.189  1.6986  1.2509 -0.0962
 7945TIP3   OH245325   5.834   5.000  13.092  0.5505  0.0621 -0.1263
 7945TIP3    H145326   5.771   5.049  13.145 -1.3781  0.9305 -3.1075
 7945TIP3    H245327   5.911   5.057  13.087  1.0122 -0.2856  2.1367
 7946TIP3   OH245328   2.050   3.224  16.738 -0.2779  0.6494  0.3531
 7946TIP3    H145329   2.100   3.281  16.796 -0.2279 -0.3689  1.3071
 7946TIP3    H245330   2.083   3.136  16.755 -0.6750  0.2627 -0.7906
 7947TIP3   OH245331   4.639   6.578   4.449  0.2587  0.5768  0.1868
 7947TIP3    H145332   4.625   6.580   4.544 -0.6545  0.7770  0.0496
 7947TIP3    H245333   4.726   6.539   4.439  0.8627  1.6606  1.1578
 7948TIP3   OH245334   0.472   0.082   2.652 -0.1663  0.0701 -0.4840
 7948TIP3    H145335   0.377   0.079   2.639 -0.2034 -1.3189  0.0332
 7948TIP3    H245336   0.507   0.105   2.566 -0.8749 -1.0862 -1.0873
 7949TIP3   OH245337   1.863   4.206   6.545  0.5813  0.4604  0.1469
 7949TIP3    H145338   1.822   4.288   6.573 -0.1173  0.5455 -1.0901
 7949TIP3    H245339   1.801   4.168   6.483  1.5369 -0.3070 -0.3566
 7950TIP3   OH245340   4.748   2.659   1.220  0.4113  0.3669 -0.2857
 7950TIP3    H145341   4.821   2.691   1.272 -0.3561  2.1823 -0.3016
 7950TIP3    H245342   4.766   2.689   1.131  1.6056 -2.5263 -1.0934
 7951TIP3   OH245343   4.807   2.845   0.215 -0.2016  0.2100 -0.3007
 7951TIP3    H145344   4.811   2.852   0.120 -1.6852  0.6004 -0.3479
 7951TIP3    H245345   4.819   2.935   0.246  2.5710 -0.2100  0.0003
 7952TIP3   OH245346   5.266   5.730   1.038 -0.2637  0.1300 -0.3080
 7952TIP3    H145347   5.331   5.669   1.003 -1.7506  0.1726 -3.2545
 7952TIP3    H245348   5.293   5.815   1.003 -1.1593  0.3495 -0.4592
 7953TIP3   OH245349   6.193   3.784   2.043  0.5228 -0.0590  0.3233
 7953TIP3    H145350   6.141   3.778   2.123  0.5864 -0.9808  0.3031
 7953TIP3    H245351   6.222   3.875   2.040 -0.0943  0.1674  0.9598
 7954TIP3   OH245352   1.192   0.309   2.848 -0.0291 -0.3265  0.4886
 7954TIP3    H145353   1.103   0.329   2.818  0.8829  0.6194 -1.6678
 7954TIP3    H245354   1.186   0.219   2.881 -1.2758 -1.0859 -1.7426
 7955TIP3   OH245355   3.220   2.837   0.613 -0.2598  0.0776 -0.1500
 7955TIP3    H145356   3.305   2.880   0.627 -0.4220  0.1948  0.4967
 7955TIP3    H245357   3.226   2.800   0.525  1.2816 -1.8078  0.7226
 7956TIP3   OH245358   1.370   0.908   5.049  0.6287  0.1605 -0.6203
 7956TIP3    H145359   1.413   0.909   4.963  0.9027 -0.1595 -0.4920
 7956TIP3    H245360   1.413   0.978   5.097  2.0955 -1.1306  0.0130
 7957TIP3   OH245361   1.681   1.953   2.220 -0.3420  0.0265  0.1995
 7957TIP3    H145362   1.604   1.944   2.276 -1.4509 -1.2157 -1.4795
 7957TIP3    H245363   1.687   2.046   2.201 -1.5328  0.1074  0.2083
 7958TIP3   OH245364   2.518   2.877   0.839  0.4866  0.0857  0.3508
 7958TIP3    H145365   2.473   2.873   0.923  0.6624  0.4904  0.4672
 7958TIP3    H245366   2.609   2.895   0.862  0.1243  2.6142 -0.0161
 7959TIP3   OH245367   2.208   1.129   2.086  0.4522  0.3202 -0.3778
 7959TIP3    H145368   2.289   1.089   2.055  0.4232  0.0198 -0.0676
 7959TIP3    H245369   2.228   1.158   2.175 -0.0020 -0.4156 -0.0325
 7960TIP3   OH245370   3.234   5.993   5.754  0.2790 -0.1266 -0.2415
 7960TIP3    H145371   3.179   6.029   5.823 -0.1473 -0.7986 -0.2282
 7960TIP3    H245372   3.322   5.990   5.793 -0.0241 -0.8385  0.4034
 7961TIP3   OH245373   5.406   3.681  13.693  0.1476  0.0213 -0.0436
 7961TIP3    H145374   5.358   3.640  13.764  0.5933  0.6478  0.6286
 7961TIP3    H245375   5.408   3.615  13.623 -1.3170 -0.1614  0.0692
 7962TIP3   OH245376   5.493   3.787  16.598 -0.1122  0.2070 -0.4278
 7962TIP3    H145377   5.414   3.752  16.639  0.8329  0.4014  1.6332
 7962TIP3    H245378   5.524   3.717  16.542  0.6823 -1.5901  2.1791
 7963TIP3   OH245379   3.941   1.633  13.304  0.3481  0.3613 -0.3574
 7963TIP3    H145380   3.898   1.586  13.232 -0.8015  2.9277 -1.4236
 7963TIP3    H245381   3.887   1.615  13.381  1.4328 -2.1851 -0.1654
 7964TIP3   OH245382   4.452   5.260  12.436  0.8973  0.5495  0.0563
 7964TIP3    H145383   4.441   5.343  12.484  0.6512  0.5614 -0.0195
 7964TIP3    H245384   4.541   5.232  12.457  1.8118  2.0058 -1.7551
 7965TIP3   OH245385   5.474   1.918   3.861 -0.0199 -0.0351 -0.0368
 7965TIP3    H145386   5.547   1.866   3.893 -0.7784  0.5828  2.8470
 7965TIP3    H245387   5.502   2.009   3.873 -0.5780  0.2120 -0.5570
 7966TIP3   OH245388   4.834   0.429  13.150 -0.0807  0.2598  0.6766
 7966TIP3    H145389   4.753   0.436  13.099  0.3261 -0.2855 -0.0544
 7966TIP3    H245390   4.903   0.425  13.084  0.3656 -1.6230  1.2263
 7967TIP3   OH245391   1.676   4.840  10.704 -0.3626 -0.2184 -0.2207
 7967TIP3    H145392   1.626   4.759  10.689 -0.5962 -0.1529  0.1961
 7967TIP3    H245393   1.610   4.906  10.724 -0.0532 -0.3458  1.2584
 7968TIP3   OH245394   2.692   0.153   1.536 -0.1820 -0.1257  0.1762
 7968TIP3    H145395   2.766   0.211   1.551 -0.0782 -0.3637  0.5832
 7968TIP3    H245396   2.617   0.198   1.575  0.2855 -1.2617  2.4768
 7969TIP3   OH245397   1.703   5.919   0.395 -0.4869 -0.8657 -0.0995
 7969TIP3    H145398   1.687   5.999   0.344 -1.1594 -1.3171 -0.5996
 7969TIP3    H245399   1.641   5.855   0.360 -0.8614 -1.2237  1.1983
 7970TIP3   OH245400   0.363   3.787   0.384  0.5613  0.1164  0.1114
 7970TIP3    H145401   0.446   3.801   0.339  0.2936 -1.1759 -0.8160
 7970TIP3    H245402   0.304   3.757   0.315  0.1106 -1.8090  1.3025
 7971TIP3   OH245403   4.198   1.793   4.856  0.4620  0.7006 -0.1006
 7971TIP3    H145404   4.124   1.734   4.846  0.1291  0.8604  1.2932
 7971TIP3    H245405   4.158   1.875   4.887  1.1578  0.9739  0.0680
 7972TIP3   OH245406   0.626   5.781   4.684 -0.1900  0.2047  1.0219
 7972TIP3    H145407   0.563   5.853   4.687 -1.9811 -1.3061  0.3530
 7972TIP3    H245408   0.590   5.715   4.744  0.7464 -0.6879  0.6245
 7973TIP3   OH245409   3.820   4.158  12.400 -0.3365 -0.3107  0.4249
 7973TIP3    H145410   3.776   4.158  12.485  0.1184 -2.2949  0.6939
 7973TIP3    H245411   3.902   4.206  12.415 -0.2679 -0.6348  1.1095
 7974TIP3   OH245412   5.849   2.546  16.154 -0.2110  0.3004  0.1275
 7974TIP3    H145413   5.855   2.522  16.061 -0.7386  2.1497 -0.4030
 7974TIP3    H245414   5.939   2.570  16.178  0.0610 -0.8576  0.2976
 7975TIP3   OH245415   2.946   4.511  15.206 -0.2124  0.1555 -0.3279
 7975TIP3    H145416   2.869   4.461  15.231 -0.5917  1.2570  0.7686
 7975TIP3    H245417   2.930   4.599  15.240  1.3338  0.5059 -0.4398
 7976TIP3   OH245418   6.620   6.111   4.372  0.2281  0.3682 -0.0321
 7976TIP3    H145419   6.569   6.032   4.390  2.8001 -1.3158  0.0799
 7976TIP3    H245420   6.625   6.115   4.277 -1.3972  1.4391 -0.1072
 7977TIP3   OH245421   6.257   6.362   5.457 -0.0735 -0.4565 -0.3221
 7977TIP3    H145422   6.347   6.375   5.425  0.2947  3.8160  2.0704
 7977TIP3    H245423   6.267   6.307   5.534  0.2239 -1.6508 -1.1911
 7978TIP3   OH245424   4.726   4.571   5.971  0.1793  0.4919  0.3359
 7978TIP3    H145425   4.764   4.632   6.033  1.3592 -0.6327  0.7350
 7978TIP3    H245426   4.801   4.528   5.929 -0.6120  0.1159 -0.7347
 7979TIP3   OH245427   4.929   1.676  11.006 -0.6041  0.9644 -0.2544
 7979TIP3    H145428   4.863   1.744  11.009  1.2045  2.7954 -0.6925
 7979TIP3    H245429   4.965   1.681  10.917 -0.7268 -0.8458 -0.4320
 7980TIP3   OH245430   5.695   1.268   4.305 -0.3114  0.0472 -0.2367
 7980TIP3    H145431   5.654   1.337   4.357  0.6836 -0.8293  1.7510
 7980TIP3    H245432   5.670   1.186   4.348 -0.7445 -0.8035 -2.0458
 7981TIP3   OH245433   1.614   4.908  14.578  0.2087 -1.1620 -0.4232
 7981TIP3    H145434   1.681   4.925  14.645  0.4995  1.9606 -1.4554
 7981TIP3    H245435   1.536   4.952  14.611 -0.0692 -0.9258 -1.4055
 7982TIP3   OH245436   4.406   2.620   2.782  0.0822  0.3632 -0.0367
 7982TIP3    H145437   4.341   2.563   2.823  0.3386 -0.0098 -0.1551
 7982TIP3    H245438   4.490   2.581   2.804  0.1914 -0.2851 -1.5887
 7983TIP3   OH245439   6.490   6.093  14.789 -0.6770  0.4070  0.4155
 7983TIP3    H145440   6.501   6.155  14.717  1.2240 -1.6944 -1.1904
 7983TIP3    H245441   6.401   6.059  14.780 -0.4021  0.0546 -1.0592
 7984TIP3   OH245442   1.746   0.299  16.350  0.1874  0.1925  0.5755
 7984TIP3    H145443   1.689   0.372  16.327 -0.2509 -0.8196 -1.7102
 7984TIP3    H245444   1.689   0.238  16.397 -0.6158 -0.7676 -1.6065
 7985TIP3   OH245445   4.856   3.583  14.159 -0.3537  0.6571 -0.6798
 7985TIP3    H145446   4.801   3.506  14.146 -1.5380  1.3211  0.3317
 7985TIP3    H245447   4.811   3.634  14.226  0.7146  1.9603 -0.9319
 7986TIP3   OH245448   0.665   3.745   4.282  0.3347  0.2382  0.0876
 7986TIP3    H145449   0.581   3.784   4.307  0.0601  0.8897 -1.8127
 7986TIP3    H245450   0.688   3.690   4.357 -1.8808 -0.1037  0.5791
 7987TIP3   OH245451   0.940   1.868  17.220  0.4911  0.5557 -0.2658
 7987TIP3    H145452   1.015   1.927  17.229  0.7534  0.1908 -0.0039
 7987TIP3    H245453   0.960   1.796  17.281 -0.5402  0.9299  0.5136
 7988TIP3   OH245454   1.536   5.952   6.610 -0.1069 -0.8211 -0.3917
 7988TIP3    H145455   1.462   6.001   6.573  0.5002 -1.2699 -2.2862
 7988TIP3    H245456   1.509   5.931   6.699 -1.0109  1.6220 -0.0535
 7989TIP3   OH245457   2.916   4.340   0.021  0.3337  0.2979  0.5510
 7989TIP3    H145458   2.890   4.412   0.079  1.8462  0.8370  0.5625
 7989TIP3    H245459   2.965   4.280   0.078  1.7518  0.7905 -0.1439
 7990TIP3   OH245460   6.215   5.893   2.039  0.1371 -0.1536  0.1248
 7990TIP3    H145461   6.298   5.882   2.084 -0.0187  0.0507  0.4681
 7990TIP3    H245462   6.211   5.987   2.019 -0.1203 -0.1192  0.3300
 7991TIP3   OH245463   3.966   1.016  15.937 -0.1821 -0.1900  0.2031
 7991TIP3    H145464   3.921   1.066  15.869 -0.7669 -1.1672 -0.1413
 7991TIP3    H245465   3.931   0.927  15.929  0.5879 -0.5822  1.0273
 7992TIP3   OH245466   3.471   6.147  12.937 -0.2679  0.1079  0.0291
 7992TIP3    H145467   3.409   6.141  13.009 -0.4636  1.8024  0.0135
 7992TIP3    H245468   3.443   6.224  12.887  2.6632  1.7504  0.8023
 7993TIP3   OH245469   0.284   1.891   2.676  0.0362  0.4226 -0.2238
 7993TIP3    H145470   0.362   1.866   2.726 -1.5634 -1.5941  1.3865
 7993TIP3    H245471   0.294   1.984   2.659  0.9986  1.0115  3.2940
 7994TIP3   OH245472   3.982   2.295  14.037 -0.0296  0.3732 -0.1355
 7994TIP3    H145473   4.014   2.263  13.953 -1.7813  0.3828 -0.8206
 7994TIP3    H245474   3.995   2.222  14.097  0.6919  0.1613 -0.5409
 7995TIP3   OH245475   5.520   6.713  11.681 -0.3311 -0.2891 -0.1837
 7995TIP3    H145476   5.540   6.642  11.742 -1.1372 -0.9974 -0.7318
 7995TIP3    H245477   5.495   6.669  11.600  0.3134  0.6383 -0.9059
 7996TIP3   OH245478   6.616   5.840  14.698  0.1191 -0.1222 -0.8335
 7996TIP3    H145479   6.590   5.916  14.751 -1.1690 -1.7568  0.9571
 7996TIP3    H245480   6.705   5.860  14.670  1.1443  0.4915  2.5916
 7997TIP3   OH245481   6.686   3.380  13.522 -0.1818 -0.5834 -0.1261
 7997TIP3    H145482   6.695   3.328  13.443  0.3759 -0.8023  0.0768
 7997TIP3    H245483   6.601   3.422  13.514  0.0174 -0.3430 -0.9952
 7998TIP3   OH245484   2.359   1.664  14.340 -0.1323  0.0770 -0.0551
 7998TIP3    H145485   2.356   1.570  14.358  0.9421  0.4003  1.9032
 7998TIP3    H245486   2.330   1.705  14.422 -0.2105  1.4669 -0.7653
 7999TIP3   OH245487   5.862   0.890   4.502 -0.2436 -0.2574 -0.5534
 7999TIP3    H145488   5.938   0.836   4.528 -1.3454 -0.8139  1.6445
 7999TIP3    H245489   5.864   0.964   4.562 -0.1534  0.9387 -1.9959
 8000TIP3   OH245490   0.692   5.184   0.016  0.2068  0.4549 -0.3141
 8000TIP3    H145491   0.604   5.223   0.014 -0.3535 -0.7436  0.2600
 8000TIP3    H245492   0.682   5.107   0.073  1.9842  1.1968  1.0312
 8001TIP3   OH245493   0.191   0.842   0.343  0.4613 -0.2669  0.4544
 8001TIP3    H145494   0.172   0.839   0.249  2.5585 -2.4047  0.0488
 8001TIP3    H245495   0.142   0.917   0.375  1.0500  1.5229 -2.6674
 8002TIP3   OH245496   0.964   0.935   3.892 -0.0473 -0.0157  0.7930
 8002TIP3    H145497   0.889   0.993   3.886  0.2603  0.1874 -1.7955
 8002TIP3    H245498   0.927   0.847   3.887 -0.2055  0.0658  0.5028
 8003TIP3   OH245499   3.326   1.710   1.072 -0.1087  0.0601 -0.1098
 8003TIP3    H145500   3.348   1.746   0.986 -0.0122 -0.0167 -0.1172
 8003TIP3    H245501   3.237   1.742   1.089 -0.5601 -0.8396 -0.7305
 8004TIP3   OH245502   0.655   1.211   2.424 -0.5832  0.1703  0.0400
 8004TIP3    H145503   0.666   1.120   2.453  0.2900 -0.0199 -0.8223
 8004TIP3    H245504   0.703   1.263   2.489 -0.9627  0.0003  0.4556
 8005TIP3   OH245505   3.900   4.479   0.627 -0.1689 -0.0220  0.0760
 8005TIP3    H145506   3.809   4.455   0.641 -0.2357  1.0617  1.5646
 8005TIP3    H245507   3.936   4.492   0.715  1.1723  0.4988 -0.5261
 8006TIP3   OH245508   5.916   2.401   0.510  0.1333 -0.2863 -0.0315
 8006TIP3    H145509   5.880   2.328   0.560 -0.2356 -0.9992 -1.3024
 8006TIP3    H245510   5.872   2.478   0.545  1.5152 -0.4870  2.2527
 8007TIP3   OH245511   5.444   4.942  11.954  0.2394 -0.0773 -0.3079
 8007TIP3    H145512   5.422   4.961  11.863  0.0672  0.9201 -0.0656
 8007TIP3    H245513   5.453   5.028  11.995 -1.3431 -0.5140  1.0135
 8008TIP3   OH245514   5.416   2.968  13.191  0.0059 -0.2209  0.3364
 8008TIP3    H145515   5.421   3.026  13.267 -1.6917  0.5089 -0.1029
 8008TIP3    H245516   5.326   2.935  13.191  0.7513 -2.3200  0.1802
 8009TIP3   OH245517   2.610   3.836  13.556  0.6095  0.3693 -0.2858
 8009TIP3    H145518   2.675   3.869  13.494 -0.0290  0.2752 -1.0125
 8009TIP3    H245519   2.561   3.769  13.507  0.8687 -0.5504  0.6885
 8010TIP3   OH245520   3.634   3.810   6.570 -0.2708 -0.2788  0.0497
 8010TIP3    H145521   3.694   3.783   6.501  1.5126 -1.5236  2.0320
 8010TIP3    H245522   3.656   3.901   6.587  0.4293 -0.4549  0.1050
 8011TIP3   OH245523   3.073   4.764   0.124  0.2994  0.4107 -0.0512
 8011TIP3    H145524   3.157   4.797   0.157  0.7031  1.0805 -1.7292
 8011TIP3    H245525   3.090   4.741   0.033 -0.8971 -1.1442  0.0980
 8012TIP3   OH245526   5.807   0.056   4.386  0.2157 -0.2940  0.4301
 8012TIP3    H145527   5.827   0.126   4.325 -0.4297 -1.0889 -0.7227
 8012TIP3    H245528   5.820  -0.025   4.336  2.4384 -1.0711  2.1815
 8013TIP3   OH245529   6.601   2.176   4.890  0.5129  0.1581 -0.1743
 8013TIP3    H145530   6.532   2.167   4.825  1.5945 -2.7780 -1.0101
 8013TIP3    H245531   6.575   2.118   4.962  1.2246  0.3655  0.2599
 8014TIP3   OH245532   0.934   2.514  16.571 -0.5558 -0.3190 -0.2996
 8014TIP3    H145533   0.911   2.588  16.627 -0.9343 -0.7921  0.1864
 8014TIP3    H245534   0.877   2.522  16.495  1.1654  1.2926 -1.4450
 8015TIP3   OH245535   5.480   4.430   2.178 -0.6220 -0.4557  0.3243
 8015TIP3    H145536   5.500   4.448   2.086  2.3206  0.1306  1.0434
 8015TIP3    H245537   5.452   4.515   2.213 -2.4957 -0.8341 -0.1569
 8016TIP3   OH245538   0.817   5.061   1.970 -0.7029  0.3129  0.0656
 8016TIP3    H145539   0.836   5.020   2.054 -1.2861 -3.3883 -1.5112
 8016TIP3    H245540   0.900   5.055   1.922 -0.5410  1.8840  0.1157
 8017TIP3   OH245541   4.138   0.539   3.245 -0.2877  0.5275 -0.1298
 8017TIP3    H145542   4.147   0.464   3.303 -0.0230  1.0374  0.4941
 8017TIP3    H245543   4.064   0.588   3.281  0.1506  1.0727  0.0256
 8018TIP3   OH245544   3.210   5.108   5.012  0.3294  0.4084  0.5858
 8018TIP3    H145545   3.292   5.128   4.967 -0.3725  0.1099 -0.8528
 8018TIP3    H245546   3.151   5.179   4.986  0.6933  1.6820  3.1609
 8019TIP3   OH245547   4.432   0.994  16.559  0.3442  0.1313 -0.1416
 8019TIP3    H145548   4.430   0.958  16.647 -0.7518 -0.8646 -0.5613
 8019TIP3    H245549   4.408   1.086  16.570  0.3572  0.0502  0.6053
 8020TIP3   OH245550   4.125   2.555  15.869  0.3561 -0.2671 -0.4051
 8020TIP3    H145551   4.035   2.538  15.898  0.1963 -0.1131 -0.8123
 8020TIP3    H245552   4.117   2.577  15.776  0.7779  0.0860 -0.3583
 8021TIP3   OH245553   6.680   3.497   4.078  0.0203  0.0907  0.1550
 8021TIP3    H145554   6.615   3.545   4.026 -0.4012 -0.0113  0.5791
 8021TIP3    H245555   6.714   3.562   4.139  1.8041  0.6554 -1.4133
 8022TIP3   OH245556   6.501   0.891  15.477  0.4535  0.4041  0.6070
 8022TIP3    H145557   6.519   0.880  15.570 -1.0397  0.5904  0.9386
 8022TIP3    H245558   6.422   0.839  15.461 -1.0132  2.6478  0.1119
 8023TIP3   OH245559   0.371   5.918  16.975  0.5545  0.0063 -0.5624
 8023TIP3    H145560   0.279   5.913  16.947 -0.0665  0.2548  1.3445
 8023TIP3    H245561   0.419   5.870  16.908 -0.9634 -0.0593 -1.6297
 8024TIP3   OH245562   6.157   1.007  14.942  0.3270 -0.1975 -0.6946
 8024TIP3    H145563   6.168   1.038  15.032 -1.3214 -3.3719  0.7000
 8024TIP3    H245564   6.242   0.967  14.920  1.1414  1.6865 -1.0455
 8025TIP3   OH245565   4.646   4.018   3.242 -0.6851 -0.0910  1.0558
 8025TIP3    H145566   4.556   3.996   3.269 -0.9379 -1.3197 -0.7249
 8025TIP3    H245567   4.635   4.077   3.168 -0.0104  0.2828  1.2533
 8026TIP3   OH245568   2.470   1.519   2.771 -0.0193 -0.0952 -0.4972
 8026TIP3    H145569   2.464   1.506   2.676 -0.1972  0.3676 -0.5497
 8026TIP3    H245570   2.433   1.439   2.808 -0.4615 -0.0483 -0.8235
 8027TIP3   OH245571   1.830   5.311  13.747 -0.2235 -0.7419 -0.3746
 8027TIP3    H145572   1.912   5.289  13.703  0.1383  0.3568 -0.2759
 8027TIP3    H245573   1.823   5.406  13.738 -0.8891 -0.6857  0.6489
 8028TIP3   OH245574   5.581   6.312   1.503  0.3440 -0.0747 -0.0579
 8028TIP3    H145575   5.616   6.256   1.572 -0.8606  1.5476  1.9249
 8028TIP3    H245576   5.573   6.398   1.544 -1.7091  0.5919 -1.7924
 8029TIP3   OH245577   2.507   0.671  13.348 -0.8317 -0.1450  0.5032
 8029TIP3    H145578   2.505   0.590  13.399  1.5648 -0.2808  0.4399
 8029TIP3    H245579   2.500   0.643  13.257 -3.9531  0.0199  0.6518
 8030TIP3   OH245580   2.189   1.186  12.156  0.3336  0.2032 -0.1581
 8030TIP3    H145581   2.272   1.222  12.127  1.2379 -1.3535  0.4533
 8030TIP3    H245582   2.177   1.221  12.245  1.1135 -0.7905  0.3560
 8031TIP3   OH245583   6.113   0.925  12.270  0.1290 -0.1362 -0.2037
 8031TIP3    H145584   6.149   0.858  12.212  0.0603 -0.8889  0.5998
 8031TIP3    H245585   6.088   0.876  12.349 -2.2006  0.4304 -0.5589
 8032TIP3   OH245586   4.078   0.637  13.600  0.3525  0.1220 -0.0341
 8032TIP3    H145587   4.156   0.649  13.654 -0.3683  0.6442  0.9046
 8032TIP3    H245588   4.109   0.589  13.523  1.6217  0.4448  0.2658
 8033TIP3   OH245589   4.949   6.298  13.244  0.2757  0.1984  0.0404
 8033TIP3    H145590   4.966   6.229  13.180 -0.6526  0.6666 -0.7215
 8033TIP3    H245591   5.031   6.348  13.247  0.2459  0.3358 -1.0008
 8034TIP3   OH245592   3.382   5.255   1.905  0.6911 -0.2780  0.4234
 8034TIP3    H145593   3.341   5.341   1.913  0.6723 -0.2446 -0.0258
 8034TIP3    H245594   3.476   5.273   1.908  0.7839  0.1437 -3.1976
 8035TIP3   OH245595   2.468   6.046   4.158  0.8358 -0.1788 -0.1253
 8035TIP3    H145596   2.385   6.092   4.156 -0.7559 -2.9005  0.8774
 8035TIP3    H245597   2.484   6.018   4.068  0.7142  0.4352 -0.3332
 8036TIP3   OH245598   4.999   0.790  12.697 -0.6112 -0.2753  0.4662
 8036TIP3    H145599   5.038   0.750  12.775 -0.9526  0.4598  1.0143
 8036TIP3    H245600   4.960   0.871  12.729  0.6101  0.8040 -0.7611
 8037TIP3   OH245601   3.018   0.826   0.829 -0.4819  0.0593 -0.0874
 8037TIP3    H145602   3.017   0.919   0.807  0.1711  0.1376  0.2067
 8037TIP3    H245603   3.108   0.798   0.814 -0.2725 -0.1331  1.3980
 8038TIP3   OH245604   6.145   5.847  12.117  0.2763 -0.0135 -0.2171
 8038TIP3    H145605   6.119   5.913  12.052  1.2416  1.0424  0.4556
 8038TIP3    H245606   6.106   5.877  12.199  0.0521 -0.7144 -0.0597
 8039TIP3   OH245607   6.182   3.599  14.331  0.3007 -0.1885  0.5007
 8039TIP3    H145608   6.129   3.633  14.259 -0.7512 -1.0259  0.8642
 8039TIP3    H245609   6.171   3.663  14.401 -1.3556 -1.0292  1.0443
 8040TIP3   OH245610   2.806   0.611  14.522 -0.3001 -0.1152  0.7531
 8040TIP3    H145611   2.818   0.516  14.523  0.4835 -0.0183  1.1106
 8040TIP3    H245612   2.716   0.623  14.491 -0.3007 -0.9587  0.3914
 8041TIP3   OH245613   6.707   3.547  14.815 -0.2866  0.2516 -1.1059
 8041TIP3    H145614   6.702   3.589  14.729 -2.0431  1.1669 -0.5570
 8041TIP3    H245615   6.681   3.457  14.799  0.2392  0.2002 -1.6874
 8042TIP3   OH245616   1.631   4.638  14.612 -0.0795  0.4506  1.0207
 8042TIP3    H145617   1.641   4.722  14.567  2.9881 -0.7744 -0.7480
 8042TIP3    H245618   1.552   4.600  14.574  1.6434  0.1009 -2.4277
 8043TIP3   OH245619   2.014   0.466  15.956  0.5626  0.5417  0.1677
 8043TIP3    H145620   1.969   0.403  16.012 -1.1222 -0.4127 -2.2043
 8043TIP3    H245621   2.000   0.434  15.867  5.3317  0.6671 -0.7201
 8044TIP3   OH245622   5.769   3.551  13.839 -0.1728  0.5245 -0.1378
 8044TIP3    H145623   5.832   3.536  13.910  0.3227 -0.6977 -0.8054
 8044TIP3    H245624   5.818   3.603  13.775 -0.6700  1.7609  0.4831
 8045TIP3   OH245625   5.115   1.580  12.523 -0.2470 -0.6513 -0.0862
 8045TIP3    H145626   5.123   1.642  12.450  0.5817  0.4929  0.9747
 8045TIP3    H245627   5.149   1.497  12.488  0.8610  0.0793 -0.7619
 8046TIP3   OH245628   2.643   3.587  16.194  0.5383  0.3131  0.2055
 8046TIP3    H145629   2.578   3.620  16.132  0.9562  0.5034 -0.1339
 8046TIP3    H245630   2.714   3.652  16.191 -0.1712  1.2075  2.1121
 8047TIP3   OH245631   4.577   0.821   3.458  0.0285  0.0784 -0.0996
 8047TIP3    H145632   4.671   0.802   3.462  0.0045 -0.2516 -0.9819
 8047TIP3    H245633   4.536   0.736   3.442 -0.2341  0.5659 -2.1322
 8048TIP3   OH245634   1.375   6.772  13.071 -0.7099 -0.1360 -0.6131
 8048TIP3    H145635   1.369   6.679  13.050 -2.1442 -0.0138 -0.8006
 8048TIP3    H245636   1.426   6.776  13.152 -1.8612 -1.2000  0.1811
 8049TIP3   OH245637   1.013   1.265  11.526 -0.2317 -0.0651  0.3657
 8049TIP3    H145638   1.075   1.195  11.548  0.6286  0.5349 -0.1373
 8049TIP3    H245639   1.010   1.266  11.430 -1.7846 -0.7495  0.3871
 8050TIP3   OH245640   4.128   4.392   2.328  0.6330  0.0176 -0.1326
 8050TIP3    H145641   4.055   4.397   2.391  0.7364 -0.4973  0.0303
 8050TIP3    H245642   4.086   4.405   2.243  0.3562 -0.2176 -0.0346
 8051TIP3   OH245643   0.912   3.593  12.561 -0.1927  0.2931 -0.2756
 8051TIP3    H145644   0.962   3.646  12.624 -1.3797  1.4483 -0.2941
 8051TIP3    H245645   0.925   3.503  12.591  1.7922  0.5723 -0.2021
 8052TIP3   OH245646   2.399   5.228  11.095  0.5815 -0.1057 -0.0860
 8052TIP3    H145647   2.383   5.150  11.042  0.2037 -1.2046  1.6245
 8052TIP3    H245648   2.314   5.273  11.097 -0.4819 -2.1066  2.8198
 8053TIP3   OH245649   5.467   6.579  10.540 -0.1667  0.1874  0.5922
 8053TIP3    H145650   5.471   6.655  10.481  0.4729  0.7233  1.3241
 8053TIP3    H245651   5.375   6.551  10.536  0.0317 -0.2645 -1.2569
 8054TIP3   OH245652   5.154   4.427   3.218 -0.3415 -0.7346 -0.2337
 8054TIP3    H145653   5.233   4.428   3.163 -0.7329 -3.0495 -0.8756
 8054TIP3    H245654   5.096   4.491   3.177  0.5882 -0.1447 -0.6587
 8055TIP3   OH245655   5.470   4.312   2.504  0.3962  0.3164 -0.0476
 8055TIP3    H145656   5.387   4.320   2.457  0.8516  0.6453 -0.8110
 8055TIP3    H245657   5.448   4.266   2.585 -0.2840 -0.9472 -0.9256
 8056TIP3   OH245658   0.343   3.837   2.685 -0.0980 -0.2855 -0.1052
 8056TIP3    H145659   0.364   3.746   2.668 -0.3099 -0.5589  1.0549
 8056TIP3    H245660   0.255   3.835   2.722  0.2161  0.3069  0.6914
 8057TIP3   OH245661   5.960   3.251   0.945  1.0207  0.6057 -0.3343
 8057TIP3    H145662   5.927   3.240   0.856 -2.9684  0.5818  1.0269
 8057TIP3    H245663   5.926   3.336   0.973  0.2505 -0.3938  1.9158
 8058TIP3   OH245664   4.710   4.264  13.238 -0.1208  0.5670  0.2405
 8058TIP3    H145665   4.678   4.183  13.278 -0.1074  1.2255  1.5974
 8058TIP3    H245666   4.636   4.297  13.187 -0.1524 -0.2629 -0.2456
 8059TIP3   OH245667   6.079   6.422   4.821  0.4747 -0.4567 -0.0550
 8059TIP3    H145668   6.118   6.498   4.864 -0.7004  0.0799  0.0904
 8059TIP3    H245669   6.019   6.386   4.886  1.8401 -2.1951  0.2894
 8060TIP3   OH245670   6.239   5.969  15.934 -0.3634  0.0329  0.0909
 8060TIP3    H145671   6.282   6.013  15.861  3.6822 -1.0368  1.6908
 8060TIP3    H245672   6.161   5.930  15.896  0.3154  1.6362 -3.0956
 8061TIP3   OH245673   6.231   3.539  12.020  0.4740  0.3718  0.0466
 8061TIP3    H145674   6.232   3.461  12.075  0.1841  1.0891  1.0908
 8061TIP3    H245675   6.282   3.604  12.070  0.2024  1.0297 -0.5258
 8062TIP3   OH245676   4.836   1.059  16.098 -0.1775  0.0275  0.4685
 8062TIP3    H145677   4.873   0.976  16.068 -0.0927  0.1422  0.2576
 8062TIP3    H245678   4.891   1.084  16.172  1.2958  1.0982 -0.9465
 8063TIP3   OH245679   0.146   0.102   2.038 -0.7987  0.0289  0.2783
 8063TIP3    H145680   0.060   0.065   2.054  0.1862 -1.9294  1.1805
 8063TIP3    H245681   0.166   0.153   2.117 -1.0970  0.4470  0.0865
 8064TIP3   OH245682   0.165   2.548  10.701 -0.4567 -0.2095  0.3042
 8064TIP3    H145683   0.233   2.480  10.699  0.5200  0.7395  0.6724
 8064TIP3    H245684   0.160   2.580  10.611 -0.9536 -0.7973  0.1202
 8065TIP3   OH245685   2.495   4.600  13.517  0.4738 -0.2873  0.5294
 8065TIP3    H145686   2.408   4.616  13.553 -0.0971 -1.7222 -0.2062
 8065TIP3    H245687   2.518   4.683  13.474 -1.0589 -0.3098 -0.3735
 8066TIP3   OH245688   2.356   4.160   0.891 -0.1945  0.1326 -0.1803
 8066TIP3    H145689   2.284   4.097   0.875  0.0963 -0.5979  1.2659
 8066TIP3    H245690   2.431   4.105   0.912  0.0296  0.9719  1.2595
 8067TIP3   OH245691   5.186   0.736  11.630  0.1572  0.3401 -0.2089
 8067TIP3    H145692   5.105   0.786  11.629  0.1441  0.3122 -1.4523
 8067TIP3    H245693   5.242   0.779  11.565  2.3813  2.3512  2.8758
 8068TIP3   OH245694   3.293   4.122  16.908 -0.3221  0.3112  0.0399
 8068TIP3    H145695   3.374   4.071  16.901 -2.0303 -2.3216 -1.5577
 8068TIP3    H245696   3.244   4.078  16.977 -1.1854  0.6960 -0.3216
 8069TIP3   OH245697   2.254   5.451  16.541  0.1105  0.6233  0.1863
 8069TIP3    H145698   2.239   5.541  16.513  1.3436  0.8608  0.2860
 8069TIP3    H245699   2.231   5.398  16.464 -1.0561  0.9886  0.2782
 8070TIP3   OH245700   1.923   0.104  11.985 -0.5619  0.2273  0.4859
 8070TIP3    H145701   1.831   0.077  11.980 -0.2952 -0.9974  1.8238
 8070TIP3    H245702   1.952   0.105  11.893 -1.9171  0.6676  0.0527
 8071TIP3   OH245703   1.575   0.657   5.071 -0.3294 -0.2493 -0.1107
 8071TIP3    H145704   1.558   0.595   4.999 -1.9982 -0.5675  0.5363
 8071TIP3    H245705   1.614   0.603   5.140  3.2378  0.4148 -1.4587
 8072TIP3   OH245706   4.336   5.734  11.723  0.6917 -0.1277  0.2924
 8072TIP3    H145707   4.429   5.715  11.725  0.2830 -2.2874  0.1471
 8072TIP3    H245708   4.302   5.678  11.653 -0.8312  0.0627  0.8650
 8073TIP3   OH245709   5.451   6.774  12.684 -0.1908  0.1190 -0.6064
 8073TIP3    H145710   5.408   6.858  12.697  0.8396  0.3534  1.4794
 8073TIP3    H245711   5.487   6.779  12.595 -0.9515  1.4886 -0.8517
 8074TIP3   OH245712   1.988   6.036   1.894  0.2101 -0.0329  0.2736
 8074TIP3    H145713   2.035   6.069   1.817 -0.6881 -0.5591 -0.5146
 8074TIP3    H245714   1.898   6.024   1.863 -0.7230  2.0745  2.0645
 8075TIP3   OH245715   5.474   2.889   6.641  0.2906  0.2683  0.2269
 8075TIP3    H145716   5.459   2.828   6.569 -0.4750  0.0562  0.5576
 8075TIP3    H245717   5.388   2.928   6.658  0.7999  1.5581 -0.0920
 8076TIP3   OH245718   1.422   2.155   5.789 -0.5301 -0.0667  0.3291
 8076TIP3    H145719   1.412   2.159   5.694  1.8447  2.2223  0.1347
 8076TIP3    H245720   1.476   2.077   5.804  0.5840  0.5551 -0.3591
 8077TIP3   OH245721   4.567   1.104   1.662  0.1483  0.0090  0.2733
 8077TIP3    H145722   4.514   1.067   1.591  0.6809 -0.7553  0.2609
 8077TIP3    H245723   4.525   1.072   1.742  0.4962 -0.4726  0.2662
 8078TIP3   OH245724   3.819   5.610  11.067  0.6013  0.1370 -0.3010
 8078TIP3    H145725   3.830   5.605  11.162  5.2426 -1.2045 -0.7884
 8078TIP3    H245726   3.775   5.528  11.044  1.6586 -0.6584  0.4589
 8079TIP3   OH245727   1.014   6.529  15.074  0.0060 -0.0202  0.4584
 8079TIP3    H145728   1.066   6.548  14.995  0.3095  0.2155  0.7098
 8079TIP3    H245729   1.080   6.508  15.140 -0.2688 -0.5859  0.5484
 8080TIP3   OH245730   1.771   4.113   1.001  0.2688  0.2712  0.5548
 8080TIP3    H145731   1.746   4.055   1.074  1.2229 -0.5914  0.2164
 8080TIP3    H245732   1.707   4.184   1.004 -1.0480 -0.9055  0.8527
 8081TIP3   OH245733   5.087   0.795  13.163  0.4963  0.1868 -0.7934
 8081TIP3    H145734   5.026   0.831  13.227 -0.5250  0.7359 -2.0651
 8081TIP3    H245735   5.133   0.726  13.211 -1.2667 -0.3966  0.1060
 8082TIP3   OH245736   1.195   2.041   1.283 -0.3908 -0.1047 -0.7539
 8082TIP3    H145737   1.268   2.074   1.232 -0.1850 -3.7228 -2.9353
 8082TIP3    H245738   1.121   2.042   1.222 -0.9072 -1.4327 -0.1555
 8083TIP3   OH245739   0.344   3.950  15.958  0.3050 -0.3366  0.2878
 8083TIP3    H145740   0.305   3.952  15.871 -1.0181 -4.7067  0.6704
 8083TIP3    H245741   0.292   4.012  16.009 -1.8292 -1.0854 -0.9360
 8084TIP3   OH245742   5.761   5.553  15.212 -0.0673 -0.5741  0.0517
 8084TIP3    H145743   5.691   5.544  15.277 -0.2440 -0.2312 -0.0859
 8084TIP3    H245744   5.840   5.522  15.257 -0.3340 -1.0886  0.1615
 8085TIP3   OH245745   1.793   3.025  13.975 -0.4873  0.6784  0.0970
 8085TIP3    H145746   1.855   3.020  14.048 -1.0265 -2.7271  0.3774
 8085TIP3    H245747   1.848   3.026  13.897 -0.0000  0.0919  0.4238
 8086TIP3   OH245748   6.497   4.273   6.148  0.2723 -0.0364  0.0564
 8086TIP3    H145749   6.585   4.308   6.158 -0.4985  1.2531  2.8317
 8086TIP3    H245750   6.461   4.321   6.073  0.1526  3.3178  2.1593
 8087TIP3   OH245751   3.118   4.233   2.399 -0.2824  0.3172 -0.0192
 8087TIP3    H145752   3.036   4.279   2.417 -0.1715  0.4384  0.1816
 8087TIP3    H245753   3.106   4.195   2.313 -0.0996  1.3339 -0.5006
 8088TIP3   OH245754   1.284   5.254   0.078  0.1719 -0.2425  0.5400
 8088TIP3    H145755   1.379   5.238   0.081  0.3569  0.8909  0.8214
 8088TIP3    H245756   1.258   5.260   0.170  0.2675  2.0124  0.4294
 8089TIP3   OH245757   2.697   4.190   6.262  0.2994  0.6125  0.2123
 8089TIP3    H145758   2.714   4.097   6.281 -0.0300  0.4481 -0.2981
 8089TIP3    H245759   2.784   4.229   6.255  0.4750 -0.0593 -1.5412
 8090TIP3   OH245760   3.250   3.706   1.630 -0.3686  0.1827  0.0416
 8090TIP3    H145761   3.289   3.774   1.575 -0.2852 -0.2779 -0.4785
 8090TIP3    H245762   3.309   3.632   1.621 -1.9701 -0.9370 -1.7245
 8091TIP3   OH245763   6.569   4.641  15.829  0.3946 -0.3085 -0.0703
 8091TIP3    H145764   6.479   4.672  15.842  0.0713 -0.8554 -0.9337
 8091TIP3    H245765   6.616   4.672  15.906 -0.6859 -0.5793  0.7163
 8092TIP3   OH245766   6.127   3.574   3.071 -0.3995 -0.3822  0.0404
 8092TIP3    H145767   6.146   3.660   3.108 -0.3951 -0.4995  0.3125
 8092TIP3    H245768   6.055   3.541   3.124  0.0026 -0.8027  0.3270
 8093TIP3   OH245769   2.814   0.801  12.204  0.3131 -0.2917 -0.0341
 8093TIP3    H145770   2.857   0.836  12.282  0.4810 -0.2106 -0.1637
 8093TIP3    H245771   2.863   0.721  12.184  2.2220  1.2944 -1.8636
 8094TIP3   OH245772   3.657   0.014  10.827 -0.1746  0.3837 -0.0859
 8094TIP3    H145773   3.649  -0.015  10.917  0.0615  1.1726  0.1932
 8094TIP3    H245774   3.645   0.109  10.831 -0.4998  0.3826 -0.9230
 8095TIP3   OH245775   1.961   6.267  16.469  0.4648  0.5225 -0.0240
 8095TIP3    H145776   1.933   6.209  16.398  0.5569 -0.1823  0.5191
 8095TIP3    H245777   1.920   6.231  16.547  0.9778  0.8688  0.4066
 8096TIP3   OH245778   1.730   4.484   5.488 -0.2075  0.4927  0.0116
 8096TIP3    H145779   1.799   4.536   5.528  1.4988 -1.1412 -0.7521
 8096TIP3    H245780   1.729   4.402   5.537 -0.5705 -0.0956 -0.9479
 8097TIP3   OH245781   0.639   2.907   1.993 -0.0355  0.5633  0.5494
 8097TIP3    H145782   0.692   2.828   1.981 -0.3921  0.4260 -0.1461
 8097TIP3    H245783   0.558   2.889   1.945  0.4140  1.8880 -0.7122
 8098TIP3   OH245784   1.942   6.728  16.029 -0.0226  0.1621  0.2552
 8098TIP3    H145785   1.994   6.700  16.104  0.3824  2.0900  0.6995
 8098TIP3    H245786   1.979   6.812  16.003 -1.0012  0.1434 -1.2939
 8099TIP3   OH245787   2.688   0.324   0.666  0.0697  0.6261 -0.0717
 8099TIP3    H145788   2.680   0.322   0.761 -4.9128 -0.6280 -0.3962
 8099TIP3    H245789   2.726   0.239   0.643 -0.7767  0.0261  0.7068
 8100TIP3   OH245790   1.697   4.890  12.655  0.1797 -0.1711 -0.6009
 8100TIP3    H145791   1.684   4.973  12.611  0.6183 -0.4967 -1.3464
 8100TIP3    H245792   1.681   4.824  12.588  0.4769 -0.6766 -0.1789
 8101TIP3   OH245793   4.887   3.433   5.585  0.5719 -0.0164 -0.3920
 8101TIP3    H145794   4.940   3.469   5.657  0.0986  1.1919 -0.6397
 8101TIP3    H245795   4.857   3.348   5.618  0.8936  0.2424  0.5974
 8102TIP3   OH245796   2.241   5.029   3.087  0.5629 -0.0299  0.0238
 8102TIP3    H145797   2.175   5.060   3.149 -0.1955 -2.9448  0.7499
 8102TIP3    H245798   2.324   5.035   3.135  0.4444  0.9990  0.0993
 8103TIP3   OH245799   0.789   0.202  13.081  0.3721 -0.1646 -0.1818
 8103TIP3    H145800   0.865   0.239  13.035  0.7810 -1.1904 -0.3496
 8103TIP3    H245801   0.791   0.109  13.059 -1.2795 -0.0981 -0.6606
 8104TIP3   OH245802   3.486   0.131   1.945  0.1197 -0.8509  0.7388
 8104TIP3    H145803   3.398   0.118   1.910 -0.1239 -1.0012  1.4019
 8104TIP3    H245804   3.519   0.208   1.899  0.0324 -1.4017 -0.2605
 8105TIP3   OH245805   2.907   4.980  15.725  0.3832  0.2967 -0.0635
 8105TIP3    H145806   2.876   5.050  15.782  0.3210 -0.6590  1.0861
 8105TIP3    H245807   2.993   5.010  15.694 -1.2669  2.5931 -2.6440
 8106TIP3   OH245808   2.601   4.909   0.047  0.0138  0.1887 -0.2335
 8106TIP3    H145809   2.560   4.831   0.008  2.4450 -0.5442 -1.4089
 8106TIP3    H245810   2.620   4.965  -0.028 -0.7393  1.4618  0.5159
 8107TIP3   OH245811   2.920   5.329  11.011  0.1671  0.7476  0.8912
 8107TIP3    H145812   2.844   5.302  10.960  1.4167 -0.9502 -0.1495
 8107TIP3    H245813   2.924   5.424  11.001 -0.0960  0.5319 -1.5172
 8108TIP3   OH245814   2.885   2.227   3.550 -0.3786  0.1444 -0.2430
 8108TIP3    H145815   2.950   2.243   3.619  0.6773 -1.1288 -0.9234
 8108TIP3    H245816   2.809   2.279   3.577  0.5325  0.8123  1.1236
 8109TIP3   OH245817   0.457   6.181   5.551  0.0338 -0.0116 -0.3947
 8109TIP3    H145818   0.389   6.182   5.483 -0.4640 -0.2102  0.0990
 8109TIP3    H245819   0.539   6.191   5.502 -0.4933  2.5882 -0.7872
 8110TIP3   OH245820   1.836   5.266  14.261  0.3358  0.0321  0.7446
 8110TIP3    H145821   1.909   5.325  14.240 -0.9920  1.9440  1.3140
 8110TIP3    H245822   1.859   5.184  14.218  1.6210  1.3434 -1.1963
 8111TIP3   OH245823   0.004   5.283  11.264  0.1674 -0.1638 -0.5104
 8111TIP3    H145824  -0.065   5.347  11.248  0.4802  0.0467 -0.9922
 8111TIP3    H245825  -0.044   5.201  11.282 -0.2415  0.3456  0.7757
 8112TIP3   OH245826   3.429   0.715  11.337 -0.6082  0.3877  0.2570
 8112TIP3    H145827   3.495   0.712  11.405 -0.8886  2.1713  0.6342
 8112TIP3    H245828   3.478   0.727  11.256 -0.2813 -1.6402  0.1237
 8113TIP3   OH245829   1.724   4.028  13.432  0.2538 -0.0043  0.3207
 8113TIP3    H145830   1.818   4.016  13.417 -0.2097 -2.5811 -0.7770
 8113TIP3    H245831   1.702   4.108  13.384  1.9677  0.9119  1.0240
 8114TIP3   OH245832   3.513   1.882   6.333 -0.4561 -0.2950  0.0415
 8114TIP3    H145833   3.436   1.851   6.381 -1.5015 -0.3615 -1.6540
 8114TIP3    H245834   3.537   1.964   6.377 -1.0360 -0.6472  1.0397
 8115TIP3   OH245835   2.481   0.489   2.760  0.4376 -0.4364  0.5643
 8115TIP3    H145836   2.500   0.526   2.846  0.8739 -1.6625  1.0104
 8115TIP3    H245837   2.548   0.421   2.748 -0.2520 -0.9766 -0.2890
 8116TIP3   OH245838   6.269   4.502   3.938 -0.1961 -0.2293 -0.6639
 8116TIP3    H145839   6.273   4.408   3.956 -0.5644 -0.1444 -0.1252
 8116TIP3    H245840   6.176   4.522   3.934 -0.1586  0.5148  1.4259
 8117TIP3   OH245841   0.899   0.492   4.423  0.5123 -0.2954 -0.3439
 8117TIP3    H145842   0.857   0.534   4.347  0.6119 -0.1972 -0.3451
 8117TIP3    H245843   0.887   0.399   4.408  0.5978 -0.2790 -0.5188
 8118TIP3   OH245844   4.015   1.845   3.489 -0.1153 -0.3209  0.4713
 8118TIP3    H145845   4.073   1.769   3.492  0.6862  0.2208 -0.9652
 8118TIP3    H245846   3.977   1.843   3.401  0.0234  1.0213  0.3656
 8119TIP3   OH245847   2.880   5.271   3.597  0.3002  0.0251 -0.5644
 8119TIP3    H145848   2.802   5.312   3.635 -0.1829 -0.0624 -1.4476
 8119TIP3    H245849   2.872   5.179   3.621 -0.3763 -0.1599 -1.4725
 8120TIP3   OH245850   3.733   3.942  12.957  0.2561 -0.1899 -0.0003
 8120TIP3    H145851   3.665   3.881  12.929 -0.3879  1.1160 -1.3743
 8120TIP3    H245852   3.792   3.948  12.882  1.5202 -0.7628  0.9227
 8121TIP3   OH245853   3.730   5.184  11.420 -0.3776 -0.2544 -0.3059
 8121TIP3    H145854   3.801   5.222  11.369  0.5231 -0.8033  0.5219
 8121TIP3    H245855   3.734   5.229  11.505  0.0866 -1.5010  0.3471
 8122TIP3   OH245856   4.974   3.938  11.128 -0.5290  0.0582 -0.5547
 8122TIP3    H145857   4.886   3.930  11.165  0.3940  2.6433  2.3421
 8122TIP3    H245858   4.979   4.028  11.095  1.3865  0.2857  0.2975
 8123TIP3   OH245859   2.908   1.066  15.797 -0.3392  0.0930  0.4362
 8123TIP3    H145860   2.831   1.025  15.836 -0.0734 -0.2316  0.6302
 8123TIP3    H245861   2.975   1.060  15.865 -0.6173  1.8743  0.8900
 8124TIP3   OH245862   6.079   3.401   1.871  0.0983  0.2503 -0.0432
 8124TIP3    H145863   6.056   3.363   1.955 -1.3382  0.2744 -0.4151
 8124TIP3    H245864   6.174   3.413   1.875 -0.0588  0.9098  1.8316
 8125TIP3   OH245865   4.363   2.328   4.078 -1.1559  0.9388  0.9601
 8125TIP3    H145866   4.273   2.310   4.106 -1.5211 -1.8185 -1.6756
 8125TIP3    H245867   4.355   2.356   3.987  0.6433  0.6637  0.6912
 8126TIP3   OH245868   1.620   3.213   6.827 -0.6155  0.1579  0.3005
 8126TIP3    H145869   1.636   3.292   6.880 -0.2364 -0.3240  0.9125
 8126TIP3    H245870   1.625   3.243   6.737 -0.6148  0.8662  0.5316
 8127TIP3   OH245871   0.920   4.361  11.721 -0.2377 -0.1432  0.3398
 8127TIP3    H145872   0.886   4.283  11.765 -0.5614  0.5451  1.3479
 8127TIP3    H245873   0.951   4.417  11.792 -1.0907  1.1477 -0.2721
 8128TIP3   OH245874   2.574   4.836   2.557  0.3547  0.5724 -0.3833
 8128TIP3    H145875   2.645   4.893   2.587 -0.3881  0.8945  0.7956
 8128TIP3    H245876   2.613   4.748   2.559  1.0047  0.8471 -0.6495
 8129TIP3   OH245877   5.437   0.204  16.571 -0.9881 -0.0407 -1.0835
 8129TIP3    H145878   5.366   0.237  16.515 -2.6758 -2.3128 -0.3300
 8129TIP3    H245879   5.505   0.177  16.509 -0.9193  1.7142 -1.8347
 8130TIP3   OH245880   0.674   0.649  15.702 -0.2805 -0.3386  0.7970
 8130TIP3    H145881   0.621   0.574  15.673  1.3604 -0.9397 -0.6787
 8130TIP3    H245882   0.625   0.726  15.671  0.5137 -0.9202 -2.0345
 8131TIP3   OH245883   0.644   2.260  17.055  0.1430 -0.1541 -0.1808
 8131TIP3    H145884   0.584   2.334  17.068  0.2118  0.0140 -0.8082
 8131TIP3    H245885   0.729   2.292  17.086 -0.2362 -0.6348  1.3798
 8132TIP3   OH245886   3.280   3.570  15.514  0.2632  0.5119  0.0082
 8132TIP3    H145887   3.356   3.624  15.536  0.1982  0.4250  0.4432
 8132TIP3    H245888   3.210   3.633  15.495  0.1780  0.5819  0.5485
 8133TIP3   OH245889   2.354   4.772  12.131 -0.5698 -0.4651 -0.6194
 8133TIP3    H145890   2.313   4.766  12.217  2.2876 -1.8831  0.7101
 8133TIP3    H245891   2.358   4.866  12.112  1.2242  0.0502  2.0548
 8134TIP3   OH245892   6.471   2.325  15.907 -0.0763  0.2268 -0.4753
 8134TIP3    H145893   6.486   2.366  15.992 -4.5892 -0.0919  0.6184
 8134TIP3    H245894   6.444   2.235  15.929 -0.5725 -0.0822 -2.2781
 8135TIP3   OH245895   1.174   2.216   0.205 -0.5720  0.2629 -0.5929
 8135TIP3    H145896   1.210   2.130   0.227  1.8106  0.6819 -2.6424
 8135TIP3    H245897   1.135   2.247   0.287 -0.6445 -2.3362  0.4117
 8136TIP3   OH245898   4.979   3.883   5.706  0.0664 -0.0679 -0.0130
 8136TIP3    H145899   4.982   3.894   5.802  1.6832 -0.1463 -0.0349
 8136TIP3    H245900   4.886   3.876   5.686 -0.3463  0.7272  1.4764
 8137TIP3   OH245901   0.274   5.491  12.860 -0.4655 -0.4290  0.3532
 8137TIP3    H145902   0.252   5.414  12.807 -2.3543  0.7385 -0.5878
 8137TIP3    H245903   0.370   5.491  12.862 -0.3802 -1.3154 -1.8785
 8138TIP3   OH245904   5.828   6.726  14.413  0.2570 -0.7122  0.4482
 8138TIP3    H145905   5.877   6.696  14.490  0.4242 -0.4653  0.4402
 8138TIP3    H245906   5.862   6.814  14.396  0.5893 -0.9645 -0.2175
 8139TIP3   OH245907   2.452   3.954   2.388 -0.0675  0.2814  0.0677
 8139TIP3    H145908   2.445   4.017   2.460  0.1836 -0.0235  0.3591
 8139TIP3    H245909   2.392   3.988   2.321 -0.0686  0.7330  0.2942
 8140TIP3   OH245910   1.844   2.614  10.497  0.3634  0.3820  0.6428
 8140TIP3    H145911   1.878   2.698  10.466 -0.1011  0.9560  1.6597
 8140TIP3    H245912   1.902   2.590  10.570  1.5694 -1.0474 -0.7505
 8141TIP3   OH245913   6.626   4.816   3.952  0.1691 -0.4710 -0.1480
 8141TIP3    H145914   6.533   4.793   3.947  0.4932 -1.6650 -1.0499
 8141TIP3    H245915   6.659   4.766   4.027 -0.3329  1.5397  1.4540
 8142TIP3   OH245916   5.066   3.913   1.098  0.2215 -0.6298  0.6472
 8142TIP3    H145917   5.128   3.930   1.027 -0.3765  1.6282  0.6145
 8142TIP3    H245918   5.120   3.911   1.177  0.3617  1.2529  0.6121
 8143TIP3   OH245919   3.955   5.290  10.344 -0.2905  0.6461  0.7302
 8143TIP3    H145920   3.932   5.210  10.391  0.3155 -0.4108 -0.7370
 8143TIP3    H245921   4.020   5.262  10.280  1.1367  2.6046  1.2604
 8144TIP3   OH245922   5.482   0.663  11.326 -0.1716 -0.1625 -0.3777
 8144TIP3    H145923   5.474   0.707  11.411  1.0072  0.2641 -0.4770
 8144TIP3    H245924   5.404   0.690  11.278 -0.0120  0.9526 -0.0335
 8145TIP3   OH245925   4.766   0.720   2.800 -0.1399  0.4796 -0.2217
 8145TIP3    H145926   4.768   0.630   2.768 -1.4912  0.4177 -0.1711
 8145TIP3    H245927   4.852   0.733   2.840 -0.7047 -1.5194  1.7521
 8146TIP3   OH245928   5.390   2.017  16.755  0.0898  0.0372 -0.1149
 8146TIP3    H145929   5.390   2.102  16.710  0.9443  0.0197 -0.1669
 8146TIP3    H245930   5.471   1.975  16.726 -0.4474 -0.8930 -0.2659
 8147TIP3   OH245931   5.867   6.339   1.535  0.4550  0.4425  0.0869
 8147TIP3    H145932   5.900   6.417   1.491  0.4771  0.0976 -0.5143
 8147TIP3    H245933   5.787   6.317   1.487 -0.0286  0.6088  0.8145
 8148TIP3   OH245934   1.683   1.038   1.491 -0.4719 -0.7017  0.1686
 8148TIP3    H145935   1.687   0.970   1.558 -0.5722 -2.3535 -1.4540
 8148TIP3    H245936   1.748   1.102   1.519  1.1785 -2.5157  0.6266
 8149TIP3   OH245937   2.636   1.897   5.031  0.2187 -0.2053  0.1773
 8149TIP3    H145938   2.565   1.941   5.075 -1.0228 -1.0096 -0.9687
 8149TIP3    H245939   2.711   1.956   5.039 -0.9990  1.3791  0.0156
 8150TIP3   OH245940   5.061   2.987  15.711 -0.0191  0.2813 -0.6986
 8150TIP3    H145941   4.993   2.958  15.650  0.2716  1.5090 -1.6440
 8150TIP3    H245942   5.142   2.950  15.676 -0.0679 -0.3478 -0.1435
 8151TIP3   OH245943   4.701   6.548   6.651 -0.1609  0.2535 -0.2388
 8151TIP3    H145944   4.618   6.528   6.695 -0.3943  2.0924  0.2043
 8151TIP3    H245945   4.766   6.540   6.721  0.1283 -1.6865 -0.6987
 8152TIP3   OH245946   0.372   2.868  16.299  0.2446 -0.1888 -0.2960
 8152TIP3    H145947   0.365   2.778  16.269 -2.2304  0.3440 -1.3984
 8152TIP3    H245948   0.328   2.868  16.384 -1.9106  0.4759 -1.3973
 8153TIP3   OH245949   1.438   1.227  16.805 -0.2529  0.0285 -0.1702
 8153TIP3    H145950   1.484   1.285  16.745 -0.5218  0.4607  0.0419
 8153TIP3    H245951   1.507   1.173  16.844  0.3892  2.1903  1.8265
 8154TIP3   OH245952   4.123   0.257  17.049  0.5600 -0.2073  0.7380
 8154TIP3    H145953   4.170   0.279  16.969 -0.2665 -1.6757 -0.1687
 8154TIP3    H245954   4.156   0.171  17.074  0.5863  0.1050  1.8141
 8155TIP3   OH245955   6.107   0.190   4.872 -0.0035 -0.0361  0.1229
 8155TIP3    H145956   6.072   0.102   4.880 -1.2155  0.3977 -0.4249
 8155TIP3    H245957   6.147   0.193   4.785 -1.5769  0.5213 -0.5964
 8156TIP3   OH245958   2.355   3.578   0.005  0.2223  0.0395 -0.1733
 8156TIP3    H145959   2.305   3.602  -0.072 -1.1832 -1.9675  0.0783
 8156TIP3    H245960   2.289   3.560   0.072  1.3788  0.3114  1.0728
 8157TIP3   OH245961   2.292   0.499  15.977  0.5032  0.5942 -0.0868
 8157TIP3    H145962   2.198   0.488  15.962  0.5839  0.6261 -0.6249
 8157TIP3    H245963   2.304   0.479  16.070  0.2778 -1.6339 -0.5015
 8158TIP3   OH245964   3.325   1.374   1.588  0.0557  0.4453  0.0604
 8158TIP3    H145965   3.305   1.467   1.578 -0.7693  0.2644 -0.0511
 8158TIP3    H245966   3.355   1.346   1.502 -0.2439  0.4829 -0.0567
 8159TIP3   OH245967   5.242   2.685   2.910  0.1215  0.0626  0.2073
 8159TIP3    H145968   5.319   2.723   2.868  2.4904 -3.9255  0.7665
 8159TIP3    H245969   5.183   2.665   2.837 -0.1222  2.4466 -0.2893
 8160TIP3   OH245970   1.736   6.507  11.456 -0.9527 -0.6079 -0.2668
 8160TIP3    H145971   1.675   6.580  11.466 -2.4805 -1.9592  0.5106
 8160TIP3    H245972   1.724   6.478  11.366 -1.0199 -0.4782 -0.2982
 8161TIP3   OH245973   4.681   1.240   2.098  0.0396 -0.6512 -0.1072
 8161TIP3    H145974   4.590   1.256   2.124 -0.7682 -0.8493 -2.6771
 8161TIP3    H245975   4.684   1.147   2.077  0.8593 -0.6611  0.0413
 8162TIP3   OH245976   3.744   6.809   1.162  0.4384  0.0677  0.4555
 8162TIP3    H145977   3.722   6.725   1.202 -1.5116  0.4199  0.1630
 8162TIP3    H245978   3.814   6.844   1.217  0.4689 -1.2244  1.2527
 8163TIP3   OH245979   5.186   4.990   0.984  0.3405  0.4360 -0.6513
 8163TIP3    H145980   5.216   4.915   1.037  0.1452  0.6856 -0.1847
 8163TIP3    H245981   5.189   4.958   0.894  0.2612 -0.1354 -0.4553
 8164TIP3   OH245982   4.908   5.346  14.611 -0.2135 -0.1186  0.1931
 8164TIP3    H145983   4.853   5.392  14.548  1.0706 -1.5414 -2.0167
 8164TIP3    H245984   4.968   5.413  14.643 -1.3440  0.7760  0.4926
 8165TIP3   OH245985   6.264   4.940  15.222  0.2063  0.2085  0.0439
 8165TIP3    H145986   6.257   5.035  15.208  3.4062  0.7860  1.8962
 8165TIP3    H245987   6.296   4.906  15.139  2.2083  1.2406  0.3542
 8166TIP3   OH245988   5.044   2.438   5.753 -0.1125 -0.6299  0.5904
 8166TIP3    H145989   5.114   2.373   5.749 -2.5548 -3.4032  1.4254
 8166TIP3    H245990   4.999   2.420   5.836 -0.8475  2.1931  0.8844
 8167TIP3   OH245991   0.643   2.182  13.374 -0.3099  0.3004  0.3178
 8167TIP3    H145992   0.601   2.107  13.416 -0.6752  0.5374  0.3769
 8167TIP3    H245993   0.673   2.237  13.446 -2.5580  1.6190  0.2901
 8168TIP3   OH245994   5.431   4.207  16.962  0.5190  0.1998  0.0809
 8168TIP3    H145995   5.440   4.116  16.934 -1.5387 -0.5365  1.7045
 8168TIP3    H245996   5.521   4.240  16.963  1.1405 -1.2429 -2.2943
 8169TIP3   OH245997   2.077   2.589  13.373  0.1243  0.0440  0.4199
 8169TIP3    H145998   2.044   2.615  13.459 -2.2343 -0.5283 -0.2673
 8169TIP3    H245999   2.171   2.607  13.376 -0.0737  0.7692  2.8291
 8170TIP3   OH246000   4.941   2.662  14.587 -0.6793  0.0003 -0.2863
 8170TIP3    H146001   4.956   2.750  14.622 -0.9931 -0.5904  1.4095
 8170TIP3    H246002   5.023   2.615  14.605 -0.5539 -0.0816 -1.0792
 8171TIP3   OH246003   6.136   2.724  16.750 -0.4360 -0.3622  0.3674
 8171TIP3    H146004   6.106   2.801  16.798  0.7330 -0.8826  1.9882
 8171TIP3    H246005   6.228   2.716  16.773 -0.3730 -1.8353 -0.3292
 8172TIP3   OH246006   4.439   4.800  15.295  0.2013 -0.0014 -0.0649
 8172TIP3    H146007   4.509   4.851  15.253  0.4294  0.1258  0.4697
 8172TIP3    H246008   4.485   4.730  15.341  0.0366  0.5407  0.9429
 8173TIP3   OH246009   5.069   2.926  13.366  0.6942 -0.9550 -0.0931
 8173TIP3    H146010   5.146   2.938  13.422  0.2059 -0.4465  0.4825
 8173TIP3    H246011   5.097   2.862  13.300  1.5067 -1.0124  0.2960
 8174TIP3   OH246012   1.607   6.735  15.180  0.1334 -0.0014  0.3546
 8174TIP3    H146013   1.596   6.728  15.085  0.9438 -1.3660  0.3581
 8174TIP3    H246014   1.692   6.776  15.192  0.9316 -1.6472  0.4979
 8175TIP3   OH246015   4.736   0.905  16.554 -0.3716  0.5696  0.3376
 8175TIP3    H146016   4.828   0.928  16.566 -0.2824  0.5101 -0.2396
 8175TIP3    H246017   4.718   0.926  16.463 -0.0630 -2.4265 -0.4689
 8176TIP3   OH246018   4.212   3.989  12.579 -0.3761 -0.1106  0.1426
 8176TIP3    H146019   4.205   3.966  12.672 -1.2987 -0.6871 -0.0647
 8176TIP3    H246020   4.162   4.071  12.571 -0.2848 -0.0533  0.1520
 8177TIP3   OH246021   0.580   1.573   2.742  0.0134  0.4837 -0.6114
 8177TIP3    H146022   0.528   1.532   2.673  0.1539  0.2935 -0.6074
 8177TIP3    H246023   0.559   1.523   2.821  0.9111 -0.2068 -0.7959
 8178TIP3   OH246024   4.024   2.057  16.904  0.1478 -0.0371 -0.0282
 8178TIP3    H146025   4.005   2.111  16.981 -1.2397  1.1533 -1.1747
 8178TIP3    H246026   4.069   2.116  16.844  0.4451 -0.7116 -0.4716
 8179TIP3   OH246027   3.349   4.686  11.220 -0.2085  0.2646  0.0096
 8179TIP3    H146028   3.302   4.617  11.267 -1.1968 -0.3208 -1.7934
 8179TIP3    H246029   3.284   4.755  11.206  0.7747  1.5935  1.8027
 8180TIP3   OH246030   3.339   6.355   2.635  0.6739 -0.2419  1.2101
 8180TIP3    H146031   3.279   6.330   2.705 -1.0053  0.3489  0.0088
 8180TIP3    H246032   3.410   6.290   2.640 -0.4486 -1.4209  2.1489
 8181TIP3   OH246033   0.210   3.553  16.958 -0.2217  0.5738 -0.0835
 8181TIP3    H146034   0.172   3.607  17.027 -1.3770 -0.1495 -0.1466
 8181TIP3    H246035   0.233   3.615  16.889 -0.1503  1.1576  0.4605
 8182TIP3   OH246036   3.088   2.415   1.049  0.1307  0.1816 -0.1114
 8182TIP3    H146037   3.030   2.452   0.982  1.0468  0.7043 -0.6189
 8182TIP3    H246038   3.042   2.431   1.131 -0.2433  0.9886 -0.4683
 8183TIP3   OH246039   4.176   6.681   3.348  0.4842 -0.7085 -0.0294
 8183TIP3    H146040   4.225   6.660   3.269  0.6998 -2.8924  0.6645
 8183TIP3    H246041   4.134   6.599   3.373 -0.8183  0.3248  1.2792
 8184TIP3   OH246042   3.039   6.654   5.599 -0.8402  0.2408 -0.4900
 8184TIP3    H146043   3.034   6.559   5.607 -1.6284  0.4263  1.2626
 8184TIP3    H246044   3.122   6.669   5.553  0.0158 -1.2129  0.5402
 8185TIP3   OH246045   3.698   5.063   3.042  0.4510  0.5622 -0.0140
 8185TIP3    H146046   3.659   5.084   2.957  0.1901 -0.2787 -0.1054
 8185TIP3    H246047   3.789   5.089   3.034  0.9854 -1.5848 -1.3271
 8186TIP3   OH246048   2.424   3.775  16.904  0.1886 -0.1689  0.3894
 8186TIP3    H146049   2.435   3.683  16.880  0.6373 -0.2742  0.9805
 8186TIP3    H246050   2.358   3.774  16.974  0.4900 -0.0804  0.6731
 8187TIP3   OH246051   0.685   6.061   1.391 -0.3735  0.2827 -0.4868
 8187TIP3    H146052   0.758   6.111   1.354 -0.5448  1.7114  1.0612
 8187TIP3    H246053   0.699   6.065   1.486 -0.0669 -3.1066 -0.3194
 8188TIP3   OH246054   0.563   0.514   2.499 -0.3474 -0.3742 -0.0313
 8188TIP3    H146055   0.494   0.506   2.565  0.5117  0.4394  0.9675
 8188TIP3    H246056   0.553   0.602   2.463  0.6178  0.0139  0.6279
 8189TIP3   OH246057   5.777   4.756  15.809  0.1838  0.8136  0.0172
 8189TIP3    H146058   5.853   4.740  15.865 -0.6656 -0.5494  0.7941
 8189TIP3    H246059   5.754   4.670  15.774 -1.4764  1.0772  0.4060
 8190TIP3   OH246060   0.988   5.242  11.652 -0.3083 -0.5763 -0.0434
 8190TIP3    H146061   0.926   5.248  11.579  1.2684 -0.7923 -1.4433
 8190TIP3    H246062   1.008   5.332  11.674 -0.7921 -0.5084  0.1117
 8191TIP3   OH246063   5.265   0.066  12.294  0.3528  0.2202  0.0953
 8191TIP3    H146064   5.337   0.034  12.240 -0.7337 -2.4212  0.1073
 8191TIP3    H246065   5.306   0.119  12.361  2.3424 -1.5981  0.3679
 8192TIP3   OH246066   0.581   2.610   4.831 -0.1448 -0.0888  0.5212
 8192TIP3    H146067   0.657   2.662   4.855 -0.4676  0.5683  0.1312
 8192TIP3    H246068   0.528   2.668   4.776 -0.5865 -0.7687  0.2164
 8193TIP3   OH246069   4.554   3.848  10.898  0.0092 -0.7885 -0.1954
 8193TIP3    H146070   4.497   3.896  10.839 -0.8359 -0.6292  0.7365
 8193TIP3    H246071   4.553   3.899  10.979  2.2668 -0.2280 -0.4669
 8194TIP3   OH246072   0.461   6.594  13.592 -0.5438  0.0559 -0.2725
 8194TIP3    H146073   0.412   6.512  13.578  0.4335 -0.6356  0.2710
 8194TIP3    H246074   0.503   6.582  13.677  1.9982 -0.0835 -1.5140
 8195TIP3   OH246075   4.021   1.708   5.425 -0.0076  0.4260  0.8008
 8195TIP3    H146076   4.100   1.701   5.477  1.9921 -1.3278 -2.2552
 8195TIP3    H246077   4.042   1.773   5.358 -1.3479  0.3476  0.2938
 8196TIP3   OH246078   2.277   3.364  12.067 -0.1334  0.2804 -0.0918
 8196TIP3    H146079   2.242   3.336  12.152 -0.1945  0.2591 -0.1230
 8196TIP3    H246080   2.369   3.339  12.069  0.0763  1.0568  0.3140
 8197TIP3   OH246081   4.555   4.674   2.032  0.2856  0.1278  0.4067
 8197TIP3    H146082   4.644   4.655   2.060  0.4663 -1.3666 -1.0894
 8197TIP3    H246083   4.527   4.596   1.984 -1.5574  0.8727  0.2052
 8198TIP3   OH246084   2.339   3.574   4.647 -0.0196  0.2284  0.7338
 8198TIP3    H146085   2.346   3.573   4.551 -0.9406  2.4911  0.6089
 8198TIP3    H246086   2.249   3.546   4.664  0.7657 -2.1660  1.0515
 8199TIP3   OH246087   0.662   2.209  13.883 -0.1224 -0.4960  0.0613
 8199TIP3    H146088   0.737   2.154  13.905  1.0519  1.0266 -0.0972
 8199TIP3    H246089   0.666   2.219  13.788  1.0977  1.8532  0.3227
 8200TIP3   OH246090   1.719   6.629  12.158  0.3909  0.0042  0.0924
 8200TIP3    H146091   1.685   6.638  12.069  1.9282 -0.8079 -0.6047
 8200TIP3    H246092   1.693   6.709  12.203  1.3549  1.3471 -1.6932
 8201TIP3   OH246093   2.945   5.357   5.243  0.3447  0.1182 -0.3174
 8201TIP3    H146094   2.909   5.401   5.166  1.1042 -0.6992 -1.1628
 8201TIP3    H246095   2.885   5.285   5.260 -1.1275  1.6925  1.3212
 8202TIP3   OH246096   3.426   3.202   0.241 -0.5191 -0.0432 -0.2685
 8202TIP3    H146097   3.340   3.218   0.280 -0.1906  0.2668  0.3337
 8202TIP3    H246098   3.445   3.283   0.193 -1.2688 -0.7219 -1.7259
 8203TIP3   OH246099   2.039   2.592   1.257  0.0347 -0.1270 -0.1195
 8203TIP3    H146100   1.986   2.671   1.270  0.4326  0.1354 -0.0839
 8203TIP3    H246101   1.976   2.520   1.260 -0.3764  0.2149 -0.5027
 8204TIP3   OH246102   1.324   0.390   5.684  0.3043 -0.1810  0.2657
 8204TIP3    H146103   1.287   0.302   5.688 -0.8933  0.2896 -0.1655
 8204TIP3    H246104   1.285   0.437   5.757  0.9853 -0.0205  0.5312
 8205TIP3   OH246105   2.067   3.980   2.599  0.1624  0.0832  0.1909
 8205TIP3    H146106   2.124   4.000   2.524  0.1286 -1.8269 -0.3576
 8205TIP3    H246107   2.127   3.955   2.669  0.2020  1.9901  0.8776
 8206TIP3   OH246108   3.549   2.634  13.900  0.3048  0.2575 -0.5616
 8206TIP3    H146109   3.466   2.646  13.947 -0.1272 -0.4704 -1.1416
 8206TIP3    H246110   3.568   2.540  13.908  1.3742  0.5111  0.0688
 8207TIP3   OH246111   3.227   0.119  15.453 -0.2835 -0.1325  0.2168
 8207TIP3    H146112   3.285   0.195  15.463 -0.9880  0.2999  1.0695
 8207TIP3    H246113   3.140   0.152  15.472 -0.6871 -1.0142 -0.0629
 8208TIP3   OH246114   1.413   4.778   2.887  0.5763  0.6970 -0.1566
 8208TIP3    H146115   1.411   4.796   2.793  1.1168 -0.7798 -0.4593
 8208TIP3    H246116   1.337   4.721   2.902  0.9066  0.3376  0.1674
 8209TIP3   OH246117   2.766   0.724   0.753  0.1007 -0.7912  0.3026
 8209TIP3    H146118   2.858   0.748   0.766 -0.1607 -0.0389  0.8065
 8209TIP3    H246119   2.728   0.798   0.706  0.0294 -1.6322 -0.9641
 8210TIP3   OH246120   1.752   6.170   1.049 -0.1565  0.5442  0.4651
 8210TIP3    H146121   1.768   6.181   0.955  2.1115  0.7417  0.8398
 8210TIP3    H246122   1.773   6.078   1.066  0.2222  0.7138  0.9199
 8211TIP3   OH246123   1.154   1.979   2.869  0.5977  0.4246 -0.1639
 8211TIP3    H146124   1.065   2.000   2.898  0.4922  1.3315 -1.0915
 8211TIP3    H246125   1.173   2.046   2.802  1.6516 -0.2752 -0.5689
 8212TIP3   OH246126   5.914   3.579   4.475 -0.1612  0.9395  0.2081
 8212TIP3    H146127   5.859   3.618   4.543 -2.3119  1.3950 -1.7309
 8212TIP3    H246128   5.920   3.646   4.407  0.6610 -0.0822 -0.7481
 8213TIP3   OH246129   1.104   6.801  13.601 -0.8182 -0.3627 -0.6462
 8213TIP3    H146130   1.078   6.713  13.626  0.6945 -0.9380 -1.0153
 8213TIP3    H246131   1.184   6.789  13.550 -0.1509  1.2782 -0.0509
 8214TIP3   OH246132   5.204   4.728  14.792  0.3449 -0.1203  0.2642
 8214TIP3    H146133   5.117   4.762  14.815  0.7702  0.3434  1.2161
 8214TIP3    H246134   5.190   4.634  14.777 -0.5241  0.1563 -0.7160
 8215TIP3   OH246135   0.592   4.863   5.799  0.6225 -0.0905  0.0900
 8215TIP3    H146136   0.605   4.869   5.893 -1.7955  2.5559  0.3231
 8215TIP3    H246137   0.645   4.933   5.762 -0.2207  0.3368 -0.3237
 8216TIP3   OH246138   4.221   3.609   2.264 -0.1383  0.3949 -0.8356
 8216TIP3    H146139   4.174   3.681   2.307  0.8936  2.2720 -2.7033
 8216TIP3    H246140   4.294   3.590   2.322 -1.0556  0.0756  0.2263
 8217TIP3   OH246141   4.845   2.763  17.255 -0.0142 -0.2215  0.2222
 8217TIP3    H146142   4.851   2.692  17.191  2.5749 -0.3073  0.4878
 8217TIP3    H246143   4.866   2.842  17.205 -0.3627  0.0123  0.4514
 8218TIP3   OH246144   2.234   2.403  15.792  0.6686 -0.3956  0.2809
 8218TIP3    H146145   2.245   2.310  15.813  0.4601 -0.6669 -0.7823
 8218TIP3    H246146   2.147   2.409  15.754 -0.3766  0.6918  2.7445
 8219TIP3   OH246147   5.632   5.500   3.433 -0.1945  0.5456 -0.2009
 8219TIP3    H146148   5.688   5.436   3.478  1.1712  1.3099 -0.7752
 8219TIP3    H246149   5.574   5.533   3.501  1.5623  1.3742  0.9197
 8220TIP3   OH246150   6.565   5.772  16.105 -0.0265  0.6172  0.1422
 8220TIP3    H146151   6.641   5.751  16.159 -1.0300  0.7086  1.6058
 8220TIP3    H246152   6.495   5.793  16.167 -1.2815  0.4665 -1.1735
 8221TIP3   OH246153   2.181   4.074  16.262 -0.5103  0.5975  0.2050
 8221TIP3    H146154   2.133   4.108  16.338 -0.0871 -1.2556  1.3494
 8221TIP3    H246155   2.222   4.151  16.223  0.3309  1.4317  2.6354
 8222TIP3   OH246156   2.860   6.811  14.939  0.3950 -0.4394 -0.2286
 8222TIP3    H146157   2.896   6.861  15.012  0.0444  1.6983 -1.4776
 8222TIP3    H246158   2.774   6.783  14.971  0.7096 -0.4825  0.5994
 8223TIP3   OH246159   2.808   2.069  14.637 -0.3064  0.4813  1.0635
 8223TIP3    H146160   2.825   2.162  14.624 -0.1506  0.4329  0.9162
 8223TIP3    H246161   2.837   2.051  14.726  2.4112 -0.0570  0.1029
 8224TIP3   OH246162   0.504   6.371   1.237  0.2401 -0.4011  0.2452
 8224TIP3    H146163   0.542   6.446   1.282 -0.4479  1.8397 -2.7691
 8224TIP3    H246164   0.417   6.362   1.276  0.2121  0.5545  0.4092
 8225TIP3   OH246165   6.452   1.421  16.871  0.2262  0.1581  0.4006
 8225TIP3    H146166   6.510   1.386  16.803 -0.7099 -1.8959  0.6314
 8225TIP3    H246167   6.479   1.378  16.951  0.2999  1.4164  1.0675
 8226TIP3   OH246168   4.269   4.401  12.392  0.7168 -0.1253  0.4803
 8226TIP3    H146169   4.356   4.436  12.371 -0.1184  1.3939 -0.5564
 8226TIP3    H246170   4.208   4.466  12.357 -0.8839 -2.2487 -0.8004
 8227TIP3   OH246171   6.005   6.699  13.210  0.4672  0.7316  0.1303
 8227TIP3    H146172   6.026   6.702  13.303  2.7399  1.8922 -0.3834
 8227TIP3    H246173   6.062   6.630  13.175 -1.0514 -0.3531 -0.2575
 8228TIP3   OH246174   4.562   2.654   5.837  0.5052 -0.4938 -0.1988
 8228TIP3    H146175   4.485   2.599   5.824  1.0005 -0.8301 -1.9496
 8228TIP3    H246176   4.621   2.603   5.892  0.1598 -0.9359 -0.2447
 8229TIP3   OH246177   2.156   6.319   5.715  0.1367  0.1532 -0.6101
 8229TIP3    H146178   2.237   6.325   5.766 -0.0311  0.0522 -0.3343
 8229TIP3    H246179   2.172   6.247   5.654  0.1809  0.0039 -0.4243
 8230TIP3   OH246180   1.683   6.744   2.498  0.9436  0.8359  0.4016
 8230TIP3    H146181   1.681   6.649   2.507  0.2995  0.8559  0.5137
 8230TIP3    H246182   1.764   6.763   2.451  1.6385  0.3100  1.3626
 8231TIP3   OH246183   5.060   3.708   0.780  0.7132  0.2437 -0.5042
 8231TIP3    H146184   5.123   3.778   0.798  0.3940  0.6596 -0.9814
 8231TIP3    H246185   4.982   3.754   0.749  0.0134 -0.2399  0.5002
 8232TIP3   OH246186   2.841   2.609  15.575  0.4973  0.1751 -0.9128
 8232TIP3    H146187   2.841   2.562  15.658 -1.2422 -0.9520 -1.5163
 8232TIP3    H246188   2.836   2.701  15.600 -0.8840 -0.1963  0.2328
 8233TIP3   OH246189   2.994   2.345  14.860  0.2173  0.3763 -0.3981
 8233TIP3    H146190   2.944   2.328  14.780 -0.5726 -0.6454  0.3023
 8233TIP3    H246191   2.978   2.268  14.915  1.8162  0.4777  0.2167
 8234TIP3   OH246192   5.301   2.106   1.593  0.1918  0.2094 -0.3530
 8234TIP3    H146193   5.212   2.072   1.593 -0.8762  2.8799  1.2000
 8234TIP3    H246194   5.325   2.113   1.686  0.7667  2.5185 -0.6256
 8235TIP3   OH246195   3.966   5.406  16.090 -0.2830 -0.8537  0.5101
 8235TIP3    H146196   3.933   5.374  16.174 -0.0188  0.1275  1.0020
 8235TIP3    H246197   3.956   5.501  16.096  2.3807 -0.5348  0.5811
 8236TIP3   OH246198   4.047   5.975  15.650 -0.5286 -0.8162  0.1264
 8236TIP3    H146199   4.085   5.896  15.689  1.6918  1.7193  3.4081
 8236TIP3    H246200   3.953   5.959  15.651 -0.1297 -3.4245  0.7071
 8237TIP3   OH246201   4.451   5.817   4.484 -0.3660 -0.3456 -0.6548
 8237TIP3    H146202   4.492   5.894   4.444 -0.7689 -0.5485 -1.4805
 8237TIP3    H246203   4.424   5.846   4.571 -0.6397  0.4920 -1.0117
 8238TIP3   OH246204   5.922   3.671  17.094  0.0022  0.2110 -0.7086
 8238TIP3    H146205   5.996   3.638  17.144  0.5365  1.0265 -0.9653
 8238TIP3    H246206   5.852   3.682  17.158  0.8005  1.6318 -0.0776
 8239TIP3   OH246207   5.061   4.354  13.976  0.5415  0.4197  0.6672
 8239TIP3    H146208   5.130   4.385  13.917  0.6304  3.4570  2.2797
 8239TIP3    H246209   4.980   4.380  13.933  0.5720  1.6229  1.3318
 8240TIP3   OH246210   3.886   0.970   4.700  0.6990  0.0496  0.7147
 8240TIP3    H146211   3.976   0.996   4.720  1.0824  1.9402 -2.9897
 8240TIP3    H246212   3.893   0.919   4.620 -1.6380  1.4235 -0.4040
 8241TIP3   OH246213   1.862   5.846  16.524 -0.6001 -0.7150 -0.3073
 8241TIP3    H146214   1.777   5.804  16.519 -0.1211 -1.6573 -0.6906
 8241TIP3    H246215   1.924   5.774  16.534  0.2980 -0.1641 -1.6356
 8242TIP3   OH246216   2.434   0.905   3.999  1.1218 -0.1741 -0.5300
 8242TIP3    H146217   2.493   0.834   4.027  1.0821  0.1060  0.2935
 8242TIP3    H246218   2.378   0.921   4.075  0.9314  0.5384 -0.8124
 8243TIP3   OH246219   5.492   2.801   1.713 -0.2993 -0.1905 -0.5122
 8243TIP3    H146220   5.500   2.752   1.795 -1.3450 -1.4413 -1.1467
 8243TIP3    H246221   5.579   2.838   1.699  0.2917 -1.2061  0.3897
 8244TIP3   OH246222   2.706   0.427   3.070  0.2701 -0.1250 -0.2668
 8244TIP3    H146223   2.701   0.385   3.157  0.8449 -0.6018 -0.4587
 8244TIP3    H246224   2.755   0.364   3.017  1.1645  0.8083 -0.5554
 8245TIP3   OH246225   0.788   2.084   5.744 -0.1361 -0.1209  0.6998
 8245TIP3    H146226   0.782   2.103   5.650 -0.7416 -0.9042  0.5730
 8245TIP3    H246227   0.793   2.170   5.786  0.5318  0.2198 -0.0766
 8246TIP3   OH246228   3.983   0.708   2.740  0.4947 -0.0773  0.6017
 8246TIP3    H146229   4.070   0.684   2.773  0.3415 -2.0615 -0.3907
 8246TIP3    H246230   3.922   0.654   2.790 -0.0267 -0.0505  0.0058
 8247TIP3   OH246231   6.295   5.639  14.294 -0.5564  0.4808 -0.3927
 8247TIP3    H146232   6.351   5.690  14.352  0.1266  2.6439 -2.8497
 8247TIP3    H246233   6.328   5.549  14.301  0.4077  0.9669  1.4576
 8248TIP3   OH246234   5.227   3.594  13.870  0.3285  0.1602 -0.5023
 8248TIP3    H146235   5.199   3.643  13.948  0.5465 -0.2658 -0.1507
 8248TIP3    H246236   5.169   3.625  13.801 -0.9631 -0.6171  0.1973
 8249TIP3   OH246237   0.417   2.200  16.108  0.0825  0.2362  0.2498
 8249TIP3    H146238   0.349   2.262  16.085 -1.2248 -1.3892 -0.3396
 8249TIP3    H246239   0.466   2.186  16.027  1.0937  1.3517  0.6548
 8250TIP3   OH246240   6.474   5.354  16.919  0.2260  0.1460 -0.1431
 8250TIP3    H146241   6.531   5.428  16.939 -0.3966  0.9178 -1.1353
 8250TIP3    H246242   6.502   5.284  16.977  0.7366  1.2175  0.9010
 8251TIP3   OH246243   3.017   0.187   3.311 -0.2244 -0.3286 -0.1306
 8251TIP3    H146244   3.028   0.128   3.237  0.8700  0.4067 -0.5629
 8251TIP3    H246245   3.011   0.275   3.272 -0.1214  0.0107  0.6024
 8252TIP3   OH246246   2.341   2.924   5.243  0.1746 -0.2282 -0.0874
 8252TIP3    H146247   2.417   2.886   5.288 -0.4870 -1.2522  0.1782
 8252TIP3    H246248   2.355   2.905   5.151  1.0226  0.9716 -0.2147
 8253TIP3   OH246249   4.065   0.632   0.020 -0.1044  0.5781 -0.0704
 8253TIP3    H146250   3.975   0.663   0.009 -0.7434 -1.1011  0.2938
 8253TIP3    H246251   4.119   0.697  -0.026 -1.5618  1.2136 -0.9070
 8254TIP3   OH246252   4.719   0.804   1.587 -0.3006 -0.7348  0.0032
 8254TIP3    H146253   4.667   0.744   1.532  0.4468  0.6179 -2.2344
 8254TIP3    H246254   4.800   0.817   1.538  1.1931 -0.9598  2.3464
 8255TIP3   OH246255   4.111   6.529  11.548 -0.0742 -0.6569  0.3726
 8255TIP3    H146256   4.093   6.527  11.454 -1.3063 -0.8598  0.5936
 8255TIP3    H246257   4.183   6.468  11.560  0.8555  0.2383 -0.5935
 8256TIP3   OH246258   5.527   3.475   2.165 -0.6058  0.0867 -0.5450
 8256TIP3    H146259   5.462   3.498   2.098 -0.0787  0.5303 -0.9087
 8256TIP3    H246260   5.537   3.556   2.216  0.3712  0.3167 -1.0866
 8257TIP3   OH246261   3.952   2.830  12.127 -0.1160  0.5567  0.3676
 8257TIP3    H146262   4.001   2.910  12.109  1.5678 -0.5293 -0.0295
 8257TIP3    H246263   3.982   2.802  12.213 -0.0560 -0.0934  0.1396
 8258TIP3   OH246264   6.556   0.164  12.334  0.2884 -0.1869  0.7990
 8258TIP3    H146265   6.494   0.108  12.287 -0.1133 -0.0819  1.2000
 8258TIP3    H246266   6.554   0.247  12.286  0.3464 -0.2812  0.6320
 8259TIP3   OH246267   3.748   5.142  13.298 -0.0208 -0.6964  0.2167
 8259TIP3    H146268   3.728   5.093  13.378  1.5621 -1.3719  0.2287
 8259TIP3    H246269   3.844   5.148  13.297 -0.0412 -0.3192 -1.4107
 8260TIP3   OH246270   6.538   5.376   4.974 -0.6557  0.2249  0.4316
 8260TIP3    H146271   6.590   5.307   5.014 -0.0733 -0.3202 -1.2330
 8260TIP3    H246272   6.465   5.390   5.035  1.6432  1.3456  3.0278
 8261TIP3   OH246273   2.724   2.737  11.202 -0.1217  0.5228 -0.8135
 8261TIP3    H146274   2.688   2.756  11.289  0.3306 -1.2873 -0.2128
 8261TIP3    H246275   2.779   2.813  11.181 -0.2724  0.9865  0.4570
 8262TIP3   OH246276   5.033   3.596  10.707 -0.2511 -0.3832 -0.0642
 8262TIP3    H146277   4.999   3.515  10.745  0.5449 -0.6367  0.1246
 8262TIP3    H246278   5.035   3.658  10.780 -0.6203 -0.2676 -0.1497
 8263TIP3   OH246279   3.357   2.037  14.522 -0.1121 -0.2333 -0.4773
 8263TIP3    H146280   3.297   2.051  14.596  2.0229 -0.2027  1.3260
 8263TIP3    H246281   3.376   1.943  14.523  1.2142  0.0255  0.0881
 8264TIP3   OH246282   5.201   2.569   4.839  0.1897 -0.0157  0.7782
 8264TIP3    H146283   5.282   2.529   4.872 -0.3933  0.2668  2.6006
 8264TIP3    H246284   5.218   2.583   4.746  2.4407  0.5456  1.2442
 8265TIP3   OH246285   2.629   4.328  11.886 -0.3932  0.4252  0.4916
 8265TIP3    H146286   2.563   4.360  11.825 -1.0994  1.2839  1.6975
 8265TIP3    H246287   2.586   4.329  11.972  1.0903  0.7289  1.2569
 8266TIP3   OH246288   6.675   6.643  12.288 -0.6721 -0.1016 -0.5625
 8266TIP3    H146289   6.676   6.551  12.313  3.3761 -0.7632 -2.8961
 8266TIP3    H246290   6.643   6.643  12.197  0.9461  0.5943 -1.1461
 8267TIP3   OH246291   3.543   2.352   0.400 -0.2723 -0.1092 -0.0130
 8267TIP3    H146292   3.568   2.294   0.472 -0.2633  0.0552  0.1178
 8267TIP3    H246293   3.467   2.399   0.434  0.3923  0.7545  0.2911
 8268TIP3   OH246294   5.904   2.778   1.513  0.1214  0.3222  0.4475
 8268TIP3    H146295   5.831   2.835   1.537  1.5443  2.7527 -0.7521
 8268TIP3    H246296   5.863   2.698   1.479 -1.9292  0.8273  1.6487
 8269TIP3   OH246297   0.485   6.637   5.115  0.8761  0.1320  0.2327
 8269TIP3    H146298   0.562   6.645   5.171  0.3875  0.7851  0.8136
 8269TIP3    H246299   0.423   6.585   5.167  0.1992  1.2477  0.5370
 8270TIP3   OH246300   0.849   5.879  16.672 -0.5982  0.8827 -0.1958
 8270TIP3    H146301   0.804   5.952  16.629  0.2323  1.3729 -0.2505
 8270TIP3    H246302   0.779   5.828  16.713 -1.2339  1.4126 -0.6124
 8271TIP3   OH246303   4.591   2.171  13.704  0.5734  0.3644 -0.2698
 8271TIP3    H146304   4.523   2.112  13.737  0.9164 -0.1247 -0.4335
 8271TIP3    H246305   4.551   2.212  13.626  0.5946 -0.1913 -0.5767
 8272TIP3   OH246306   3.845   4.668  16.287  0.2409  0.3638  0.4395
 8272TIP3    H146307   3.760   4.689  16.249  0.6210  1.2512  0.0798
 8272TIP3    H246308   3.848   4.572  16.285 -0.2059  0.3606 -0.7398
 8273TIP3   OH246309   4.988   1.119   2.043  0.2378 -0.1273  0.3264
 8273TIP3    H146310   4.970   1.195   1.988  0.9744 -0.3010 -0.1618
 8273TIP3    H246311   4.920   1.056   2.019  0.9650 -0.4641 -0.8976
 8274TIP3   OH246312   3.673   0.518  14.531  0.1039 -0.7529  0.2624
 8274TIP3    H146313   3.683   0.581  14.602  0.4078  1.1713 -1.4670
 8274TIP3    H246314   3.610   0.454  14.566  0.1888  0.1782  2.2215
 8275TIP3   OH246315   5.555   6.251   5.714 -0.1653  0.3321  0.6469
 8275TIP3    H146316   5.588   6.165   5.737 -1.3531 -0.7023 -1.3497
 8275TIP3    H246317   5.487   6.269   5.779 -0.6093 -0.6983  0.4789
 8276TIP3   OH246318   5.180   3.646   4.325 -0.2400  0.8033 -0.2892
 8276TIP3    H146319   5.206   3.554   4.317  1.5880  1.2150  0.5893
 8276TIP3    H246320   5.130   3.649   4.406 -0.8809  0.4758 -0.6639
 8277TIP3   OH246321   5.026   1.532  12.089  0.2872  0.2721 -0.5187
 8277TIP3    H146322   4.979   1.526  12.172 -0.5728 -1.5183 -1.1200
 8277TIP3    H246323   5.115   1.557  12.113  0.2290 -0.9504  1.0021
 8278TIP3   OH246324   4.393   1.078  14.518  0.2510 -0.3605  0.2626
 8278TIP3    H146325   4.306   1.115  14.506  0.5831 -0.3867 -2.5192
 8278TIP3    H246326   4.452   1.153  14.511  0.5401 -0.5555  0.6355
 8279TIP3   OH246327   0.820   5.935   1.793  0.7358 -0.5290 -0.1060
 8279TIP3    H146328   0.897   5.961   1.843 -0.2039  0.2854  0.9657
 8279TIP3    H246329   0.752   5.997   1.821 -0.6405 -2.0186 -0.0634
 8280TIP3   OH246330   2.278   4.793  15.769  0.3982 -0.1532  0.0117
 8280TIP3    H146331   2.317   4.705  15.762 -2.3390 -1.4959  1.0228
 8280TIP3    H246332   2.244   4.810  15.681  0.6483 -0.2134 -0.1011
 8281TIP3   OH246333   6.640   0.308  16.227 -0.4433  0.2471 -0.6095
 8281TIP3    H146334   6.545   0.308  16.215 -0.9099 -1.0534  2.4705
 8281TIP3    H246335   6.656   0.237  16.289  2.3995  1.3629  0.0048
 8282TIP3   OH246336   3.757   4.726  12.110 -0.0345  0.0276  0.1715
 8282TIP3    H146337   3.751   4.786  12.185  0.5697 -0.5365  0.6768
 8282TIP3    H246338   3.825   4.764  12.055 -0.4571  0.4266 -0.0796
 8283TIP3   OH246339   4.325   0.281  13.784  0.1466 -0.3560 -0.6064
 8283TIP3    H146340   4.314   0.264  13.878  0.2930 -0.0859 -0.5396
 8283TIP3    H246341   4.252   0.235  13.743 -0.4246  0.2506 -0.2812
 8284TIP3   OH246342   6.530   6.312   4.790 -0.1937 -0.7030 -0.9172
 8284TIP3    H146343   6.498   6.338   4.876 -0.8578  0.2906 -1.4585
 8284TIP3    H246344   6.526   6.216   4.791  1.9984 -0.8291  0.9866
 8285TIP3   OH246345   3.400   6.191  13.249 -0.0322  0.8537 -0.1426
 8285TIP3    H146346   3.421   6.181  13.342 -2.9091  0.5815  0.5250
 8285TIP3    H246347   3.411   6.284  13.232  2.2131  0.6364  0.0112
 8286TIP3   OH246348   1.058   2.353   3.491  0.0072 -0.3890  0.5420
 8286TIP3    H146349   0.990   2.382   3.552 -0.4736  2.5143 -1.2698
 8286TIP3    H246350   1.123   2.422   3.494  1.7026 -1.9452  0.3784
 8287TIP3   OH246351   4.583   4.299  14.395  0.1294 -0.1797  0.5619
 8287TIP3    H146352   4.573   4.350  14.315  0.7254  0.0103  0.6096
 8287TIP3    H246353   4.673   4.313  14.422  0.2402 -1.0854  0.6896
 8288TIP3   OH246354   3.137   4.349  14.038 -0.6181 -0.3177  0.0227
 8288TIP3    H146355   3.211   4.297  14.008  0.1014  2.1666 -2.8556
 8288TIP3    H246356   3.060   4.301  14.008 -0.0581 -1.3171  0.1916
 8289TIP3   OH246357   6.076   1.961   5.017 -0.5990 -0.1404 -0.0015
 8289TIP3    H146358   6.143   1.893   5.030 -2.4833 -2.3533 -1.4852
 8289TIP3    H246359   6.122   2.032   4.973  1.1032 -1.0203  0.3082
 8290TIP3   OH246360   6.401   1.409  13.809  0.2004  0.5148  0.6640
 8290TIP3    H146361   6.487   1.406  13.853  1.2343  1.1600 -1.2730
 8290TIP3    H246362   6.416   1.370  13.724 -2.7119 -4.4102  2.2206
 8291TIP3   OH246363   4.231   0.733  15.254 -0.3147  0.1355  0.4583
 8291TIP3    H146364   4.203   0.772  15.172  2.7314  0.9776 -0.2359
 8291TIP3    H246365   4.230   0.639  15.238 -2.6395  0.1338  0.4639
 8292TIP3   OH246366   1.744   2.668  13.914 -0.1462 -0.1297 -0.4984
 8292TIP3    H146367   1.781   2.605  13.976 -1.3012  2.5666  3.1350
 8292TIP3    H246368   1.817   2.727  13.894 -0.0745 -0.2863 -0.6899
 8293TIP3   OH246369   1.985   2.235   0.023  0.0752 -0.4512 -0.3254
 8293TIP3    H146370   1.922   2.163   0.024  0.8459 -1.1242  1.2079
 8293TIP3    H246371   1.965   2.286   0.101  1.5560 -0.8145  0.3214
 8294TIP3   OH246372   1.896   1.722  15.751 -0.1152  0.2415 -0.4348
 8294TIP3    H146373   1.802   1.701  15.755  0.0232 -0.0873  1.3976
 8294TIP3    H246374   1.899   1.817  15.747 -0.4931  0.3713  1.8128
 8295TIP3   OH246375   1.851   4.766  16.490 -0.0328  0.7925  0.3655
 8295TIP3    H146376   1.830   4.856  16.516 -0.8650  1.4374 -2.3927
 8295TIP3    H246377   1.934   4.774  16.441 -0.9504  0.3338 -1.3211
 8296TIP3   OH246378   2.255   5.627  14.017  0.5184 -0.1381 -0.4995
 8296TIP3    H146379   2.310   5.673  13.954 -1.2028  1.8369 -0.6074
 8296TIP3    H246380   2.279   5.663  14.102  0.8546 -0.7774 -0.3201
 8297TIP3   OH246381   5.237   1.074   5.733 -0.0797 -0.2073 -0.1089
 8297TIP3    H146382   5.306   1.042   5.791  0.3175  0.5253 -0.1760
 8297TIP3    H246383   5.201   0.995   5.694  0.8412 -0.5880 -0.2042
 8298TIP3   OH246384   1.303   4.775   1.468  0.0113  0.1295 -0.3496
 8298TIP3    H146385   1.330   4.823   1.546 -1.1861 -0.5822  0.5211
 8298TIP3    H246386   1.296   4.841   1.400 -1.5242  1.1857  0.8082
 8299TIP3   OH246387   1.114   4.047  13.597 -0.0924  0.4803  1.3669
 8299TIP3    H146388   1.108   4.069  13.504 -0.4612  2.8854  1.9152
 8299TIP3    H246389   1.152   3.959  13.599 -0.4114  0.2516 -1.0528
 8300TIP3   OH246390   5.796   1.946  13.729  0.3284 -0.0374  0.3538
 8300TIP3    H146391   5.867   1.998  13.764  0.0021  0.5084  0.2056
 8300TIP3    H246392   5.717   1.981  13.771 -0.0609  0.5888 -0.8709
 8301TIP3   OH246393   4.056   5.730   3.194 -0.0639  0.7473 -0.2139
 8301TIP3    H146394   4.145   5.699   3.175 -0.5988 -0.7756 -0.3293
 8301TIP3    H246395   4.067   5.794   3.264  0.9949 -0.5768  0.8760
 8302TIP3   OH246396   0.505   2.120   6.037 -0.3253  0.2060 -0.4081
 8302TIP3    H146397   0.569   2.170   6.088 -0.4831 -0.5809  0.5677
 8302TIP3    H246398   0.471   2.183   5.973  1.0115  0.7778 -0.5741
 8303TIP3   OH246399   0.957   1.554   5.123 -0.3513  0.0523 -0.0574
 8303TIP3    H146400   1.016   1.579   5.195 -0.8606 -1.6395  0.9779
 8303TIP3    H246401   1.015   1.546   5.047  0.2318  1.6360  0.2021
 8304TIP3   OH246402   0.438   6.281   2.302 -0.2814 -0.3187 -0.2781
 8304TIP3    H146403   0.420   6.288   2.208 -2.1124 -3.6461 -0.2315
 8304TIP3    H246404   0.352   6.272   2.343  0.6748 -2.0317  1.4061
 8305TIP3   OH246405   5.578   4.967  11.413 -0.0331 -0.0073 -0.4759
 8305TIP3    H146406   5.548   4.887  11.455  1.2587 -0.5091 -0.4918
 8305TIP3    H246407   5.498   5.009  11.381 -0.7870 -0.8830  0.2382
 8306TIP3   OH246408   5.658   4.001  12.257 -0.2276 -0.8536 -0.1308
 8306TIP3    H146409   5.610   3.971  12.334 -0.0329 -2.5162 -0.6558
 8306TIP3    H246410   5.658   3.927  12.197  3.1522 -1.0034 -0.0671
 8307TIP3   OH246411   0.812   2.083  10.421 -0.3760 -0.1417  0.1101
 8307TIP3    H146412   0.897   2.112  10.387  0.1200  1.4398  2.5653
 8307TIP3    H246413   0.829   1.999  10.462 -0.3957 -0.7115 -1.0389
 8308TIP3   OH246414   0.490   3.461  15.730  0.2092 -0.4208  0.6038
 8308TIP3    H146415   0.489   3.556  15.715 -0.3224 -0.5356 -0.1478
 8308TIP3    H246416   0.557   3.428  15.671  0.3792 -0.5152  0.8497
 8309TIP3   OH246417   4.651   0.331  15.792 -0.4014  0.0250  0.4302
 8309TIP3    H146418   4.677   0.386  15.866 -0.3414  0.6295 -0.0391
 8309TIP3    H246419   4.561   0.355  15.774 -0.3064  0.1342  0.0839
 8310TIP3   OH246420   6.199   5.594  11.811  0.1407 -0.0235 -0.2016
 8310TIP3    H146421   6.235   5.656  11.875 -0.9691 -0.4305  0.8208
 8310TIP3    H246422   6.162   5.523  11.863 -0.8085 -0.3510 -1.2882
 8311TIP3   OH246423   5.079   3.461   6.849 -0.1090 -0.0061  0.1199
 8311TIP3    H146424   5.133   3.400   6.800  2.7595  0.0598  3.0137
 8311TIP3    H246425   5.030   3.406   6.911  0.7894  0.4055  1.2084
 8312TIP3   OH246426   5.819   4.009  13.585 -0.1114 -0.4323 -0.5204
 8312TIP3    H146427   5.780   4.094  13.563  1.6889  0.1200 -1.7152
 8312TIP3    H246428   5.803   4.000  13.679 -0.8834  0.9415 -0.4940
 8313TIP3   OH246429   0.733   0.934   5.570 -0.0920  0.1275  0.6952
 8313TIP3    H146430   0.754   0.842   5.554  1.7980  1.0505 -2.5591
 8313TIP3    H246431   0.785   0.957   5.647 -0.5721 -1.4761  1.5353
 8314TIP3   OH246432   5.290   3.225  13.637  0.1921 -0.1997  0.1249
 8314TIP3    H146433   5.332   3.282  13.702  0.5829  1.2404 -1.3572
 8314TIP3    H246434   5.197   3.235  13.652  0.2879  0.0602  0.5376
 8315TIP3   OH246435   0.666   4.256   2.483  0.8486 -0.2443 -0.4835
 8315TIP3    H146436   0.749   4.208   2.480  0.8953 -0.0826 -1.8362
 8315TIP3    H246437   0.600   4.189   2.501  1.1834 -0.4667 -0.0585
 8316TIP3   OH246438   0.323   5.712   5.749  0.5679 -0.1427 -0.1042
 8316TIP3    H146439   0.262   5.719   5.676 -1.4387 -1.7134  1.3668
 8316TIP3    H246440   0.299   5.784   5.807  1.7591  0.7309 -0.6677
 8317TIP3   OH246441   3.648   4.288   5.063  0.2403  0.0002  0.0942
 8317TIP3    H146442   3.647   4.316   4.972  2.1069 -1.4219 -0.3954
 8317TIP3    H246443   3.621   4.197   5.061  1.8109 -0.5064  0.7558
 8318TIP3   OH246444   4.597   0.649   0.889 -0.1556 -0.1013  0.0244
 8318TIP3    H146445   4.507   0.641   0.859 -0.2064 -2.1500  0.7136
 8318TIP3    H246446   4.641   0.570   0.857  0.9804  0.0570  1.1350
 8319TIP3   OH246447   3.219   6.195  15.190 -0.5055  0.1162 -0.0394
 8319TIP3    H146448   3.313   6.207  15.173 -0.4485  0.2170  0.3377
 8319TIP3    H246449   3.212   6.191  15.286 -0.7471 -1.0493 -0.0958
 8320TIP3   OH246450   3.573   4.655  15.201 -0.2855 -0.0540 -0.3085
 8320TIP3    H146451   3.587   4.586  15.136 -3.9377 -0.8587 -0.3425
 8320TIP3    H246452   3.601   4.616  15.283 -3.0726 -1.9678 -0.1924
 8321TIP3   OH246453   6.541   4.759   3.274  0.6199  0.4661  0.3009
 8321TIP3    H146454   6.551   4.783   3.366  1.7897 -1.5186  0.7074
 8321TIP3    H246455   6.446   4.759   3.259  0.3299 -1.1501  2.0466
 8322TIP3   OH246456   1.229   5.275   0.363 -0.8136 -0.0169  0.0363
 8322TIP3    H146457   1.159   5.224   0.402 -0.2938  1.3074  2.8403
 8322TIP3    H246458   1.309   5.226   0.383 -0.5367  0.7193  0.7905
 8323TIP3   OH246459   2.896   3.754  11.079 -0.2757  0.0127 -0.0155
 8323TIP3    H146460   2.915   3.758  10.985 -1.1152  1.5593 -0.1518
 8323TIP3    H246461   2.963   3.696  11.115  2.2912  2.2105 -1.0474
 8324TIP3   OH246462   5.414   0.117   4.105  0.7043  0.3078  0.7038
 8324TIP3    H146463   5.400   0.082   4.017  2.0346  1.5307 -0.0092
 8324TIP3    H246464   5.328   0.112   4.147 -0.6070  2.4611 -1.6443
 8325TIP3   OH246465   2.424   4.607  16.090  0.0471  0.1608 -0.1083
 8325TIP3    H146466   2.462   4.594  16.004  3.3123  1.9638  0.9958
 8325TIP3    H246467   2.358   4.675  16.078  0.6199  0.5357 -1.1370
 8326TIP3   OH246468   2.059   5.901   1.019 -0.2338 -0.6011 -0.9326
 8326TIP3    H146469   2.053   5.908   0.924 -0.3812  0.4938 -0.8480
 8326TIP3    H246470   2.087   5.810   1.035  1.7248 -0.2351 -2.0931
 8327TIP3   OH246471   4.639   4.854  14.757 -0.5717 -0.0669  0.3777
 8327TIP3    H146472   4.650   4.936  14.807  1.3198 -0.6393  0.9753
 8327TIP3    H246473   4.547   4.832  14.767 -1.0187  1.7783  0.5621
 8328TIP3   OH246474   5.825   5.390   2.120  0.5448 -0.0136  0.3852
 8328TIP3    H146475   5.879   5.367   2.195  0.1252 -2.4256  0.0082
 8328TIP3    H246476   5.811   5.484   2.127  1.1152 -0.0970  2.9252
 8329TIP3   OH246477   4.580   0.163   3.155 -0.3637  0.1346 -0.2627
 8329TIP3    H146478   4.641   0.232   3.180 -0.2339 -0.1076  0.0863
 8329TIP3    H246479   4.564   0.114   3.236  1.1073 -1.4842 -0.9089
 8330TIP3   OH246480   5.339   3.418   4.734 -0.2625  0.2206 -0.0865
 8330TIP3    H146481   5.339   3.497   4.788 -3.9343 -0.2083  0.6578
 8330TIP3    H246482   5.375   3.350   4.791  0.1548  0.7290  0.2654
 8331TIP3   OH246483   2.231   2.475   1.897 -0.5669  0.4291  0.0063
 8331TIP3    H146484   2.189   2.430   1.823 -1.9546  1.0183  0.4168
 8331TIP3    H246485   2.247   2.564   1.865 -1.8377  0.8984  0.6430
 8332TIP3   OH246486   2.504   5.576   1.606 -0.1475  0.6106 -0.1132
 8332TIP3    H146487   2.509   5.491   1.650 -0.3647  0.6412 -0.0264
 8332TIP3    H246488   2.577   5.576   1.545 -2.4926 -1.2863 -3.0735
 8333TIP3   OH246489   0.440   4.102   2.570  0.6268 -0.3959  0.6835
 8333TIP3    H146490   0.443   4.011   2.598 -0.7926 -0.4290  0.7404
 8333TIP3    H246491   0.460   4.099   2.477  1.5928 -0.6590  0.8925
 8334TIP3   OH246492   1.749   2.700  13.206 -0.1917 -0.1059 -0.5890
 8334TIP3    H146493   1.789   2.627  13.253 -0.8292 -1.3058 -1.8616
 8334TIP3    H246494   1.655   2.689  13.221 -0.2805  0.5668 -0.6383
 8335TIP3   OH246495   3.458   4.631   5.970 -0.4745 -0.5069  0.3779
 8335TIP3    H146496   3.507   4.672   5.898 -0.1355  1.0208  1.4653
 8335TIP3    H246497   3.478   4.538   5.962 -0.2479 -0.3353 -1.3611
 8336TIP3   OH246498   2.615   1.650   5.131 -0.4046  0.3571 -0.5792
 8336TIP3    H146499   2.559   1.607   5.066  1.0448 -0.2458 -1.4548
 8336TIP3    H246500   2.632   1.737   5.094 -0.7953  0.5594 -0.2877
 8337TIP3   OH246501   1.541   3.026  14.263 -0.3881 -0.7310 -0.3393
 8337TIP3    H146502   1.621   3.012  14.213 -0.0043  0.4417 -0.0824
 8337TIP3    H246503   1.519   3.118  14.248 -0.4383 -0.4345  1.3595
 8338TIP3   OH246504   4.417   1.456  11.797  0.6246  0.2419 -0.0828
 8338TIP3    H146505   4.495   1.508  11.779  0.9232 -0.1316  0.1197
 8338TIP3    H246506   4.387   1.487  11.882  1.5021 -0.7518  0.6028
 8339TIP3   OH246507   4.035   4.881  12.074  0.1717 -0.6178 -0.1599
 8339TIP3    H146508   4.069   4.793  12.059  0.8186 -0.3604 -0.1890
 8339TIP3    H246509   3.970   4.894  12.005  2.0625 -0.0146 -1.8563
 8340TIP3   OH246510   1.661   1.264   4.993  0.0337  0.1394 -0.2173
 8340TIP3    H146511   1.744   1.312   4.995 -0.5303  1.1014  0.8911
 8340TIP3    H246512   1.612   1.304   4.921 -0.3141  1.0409  0.5086
 8341TIP3   OH246513   3.870   5.861  14.301  0.1156 -0.3074  0.0059
 8341TIP3    H146514   3.917   5.796  14.355  0.2513  0.5482  0.9403
 8341TIP3    H246515   3.917   5.862  14.218 -0.0500 -1.5999 -0.1233
 8342TIP3   OH246516   3.428   5.675   0.222  0.1699 -0.4013  0.6042
 8342TIP3    H146517   3.431   5.585   0.254  0.9280 -0.5218  0.2244
 8342TIP3    H246518   3.478   5.673   0.140  0.4873  0.4294  0.7641
 8343TIP3   OH246519   6.508   1.507  16.324 -0.2430 -0.5611 -0.1187
 8343TIP3    H146520   6.599   1.507  16.352 -0.1270 -0.1746 -0.4876
 8343TIP3    H246521   6.457   1.505  16.405  0.0862  0.8652  0.1458
 8344TIP3   OH246522   5.332   2.805   3.905 -0.0728  0.4887  0.0301
 8344TIP3    H146523   5.409   2.779   3.854 -0.0957  1.5091 -0.5458
 8344TIP3    H246524   5.260   2.799   3.842  0.0284  2.6067 -0.3296
 8345TIP3   OH246525   2.168   2.982   1.909 -0.4836 -0.5233 -0.0400
 8345TIP3    H146526   2.123   3.001   1.992  1.9904 -2.2444  1.7726
 8345TIP3    H246527   2.140   2.893   1.886  0.1516 -0.7000 -0.1386
 8346TIP3   OH246528   6.056   6.246  13.985 -0.1604 -0.0536 -0.1304
 8346TIP3    H146529   6.140   6.287  14.004 -0.0488  0.7656 -2.2104
 8346TIP3    H246530   6.008   6.312  13.934 -1.3042 -1.2348 -0.6160
 8347TIP3   OH246531   2.730   2.394  16.507 -0.1979  0.2822  0.5087
 8347TIP3    H146532   2.821   2.386  16.535  0.3752 -0.6777 -1.5165
 8347TIP3    H246533   2.682   2.335  16.565  0.9893 -1.8478 -0.6088
 8348TIP3   OH246534   3.062   0.398  14.708  0.2391 -0.0494 -0.2086
 8348TIP3    H146535   3.060   0.390  14.613  0.1478  1.6055 -0.3568
 8348TIP3    H246536   2.971   0.394  14.735  0.2906 -0.9067 -0.1485
 8349TIP3   OH246537   1.740   4.291   4.790 -0.0497 -0.5314  0.1904
 8349TIP3    H146538   1.669   4.345   4.824  1.3352 -0.3627  2.9984
 8349TIP3    H246539   1.788   4.349   4.730 -1.9757 -0.5290 -1.4160
 8350TIP3   OH246540   3.636   5.067  14.476  0.0351 -0.3250 -0.0895
 8350TIP3    H146541   3.624   5.023  14.560  0.3704 -0.8936 -0.3400
 8350TIP3    H246542   3.729   5.087  14.472  0.2764 -1.5852 -0.9597
 8351TIP3   OH246543   6.110   3.971   0.489 -0.1378  0.4800 -1.1282
 8351TIP3    H146544   6.075   3.978   0.400  0.4070 -0.9641 -1.4702
 8351TIP3    H246545   6.033   3.956   0.544 -0.0982 -2.7022 -1.8796
 8352TIP3   OH246546   5.947   4.350   3.166 -0.2656  0.4718  0.7666
 8352TIP3    H146547   5.929   4.303   3.247  0.8084 -0.2437  0.5936
 8352TIP3    H246548   6.006   4.421   3.191  1.6498 -0.9394  0.2837
 8353TIP3   OH246549   6.631   2.988  15.522  0.0717  0.4739 -0.2060
 8353TIP3    H146550   6.579   2.908  15.519  0.0418  0.4358  0.9585
 8353TIP3    H246551   6.589   3.046  15.458  1.5535 -1.2809 -2.8287
 8354TIP3   OH246552   4.695   3.132  11.202 -0.0835 -0.1337  0.2310
 8354TIP3    H146553   4.679   3.076  11.126 -1.0933 -0.5320  0.7280
 8354TIP3    H246554   4.705   3.220  11.166 -3.3157  0.1414 -0.1668
 8355TIP3   OH246555   3.708   6.412   3.841  0.2067 -0.2379 -0.3487
 8355TIP3    H146556   3.634   6.363   3.876  0.0084 -0.9463 -1.7195
 8355TIP3    H246557   3.783   6.384   3.895  0.0653 -1.9475 -1.0032
 8356TIP3   OH246558   2.578   0.512   3.367 -0.3991  0.2999  0.0014
 8356TIP3    H146559   2.554   0.569   3.440  0.9355 -2.3091  2.6126
 8356TIP3    H246560   2.497   0.503   3.316 -1.2732  2.4360  0.9678
 8357TIP3   OH246561   3.239   4.438  17.175 -0.3227 -0.3311 -0.3968
 8357TIP3    H146562   3.270   4.350  17.199 -1.2741 -0.6172 -0.2003
 8357TIP3    H246563   3.261   4.447  17.083  1.5763  0.0029  0.0667
 8358TIP3   OH246564   3.642   1.740  16.062 -0.1042  0.0401  0.3084
 8358TIP3    H146565   3.660   1.728  15.968 -1.0406 -0.3310  0.1660
 8358TIP3    H246566   3.700   1.811  16.089  0.5610 -0.2179 -0.4329
 8359TIP3   OH246567   6.386   2.738   1.090  0.3302  0.2530 -0.5390
 8359TIP3    H146568   6.394   2.713   0.998  1.2264  0.6772 -0.5834
 8359TIP3    H246569   6.475   2.730   1.125  0.7778  3.7373 -0.6730
 8360TIP3   OH246570   0.261   1.671  13.999 -0.1469  0.1260 -0.2512
 8360TIP3    H146571   0.340   1.641  13.956 -0.5559  0.9947 -1.6165
 8360TIP3    H246572   0.289   1.746  14.052 -0.0707  0.4518 -0.7549
 8361TIP3   OH246573   4.851   4.391   0.080 -0.2374 -0.1913  0.0759
 8361TIP3    H146574   4.897   4.401  -0.003 -0.3971  1.9400  0.2159
 8361TIP3    H246575   4.844   4.296   0.093  1.8049 -0.5342 -1.2046
 8362TIP3   OH246576   3.347   6.806  13.582  0.5172  0.2902  0.1377
 8362TIP3    H146577   3.338   6.732  13.522 -0.0400  1.5887 -1.4090
 8362TIP3    H246578   3.440   6.828  13.579  0.4740  0.4120 -0.3256
 8363TIP3   OH246579   1.314   4.558  12.073 -0.0636 -0.0621 -1.3649
 8363TIP3    H146580   1.385   4.604  12.118  0.0739 -1.9986  0.4498
 8363TIP3    H246581   1.359   4.500  12.011  0.0214 -1.8202  0.2910
 8364TIP3   OH246582   0.276   2.721  13.476 -0.2378  0.6068 -0.8895
 8364TIP3    H146583   0.189   2.703  13.514 -0.5392  0.6973 -1.5282
 8364TIP3    H246584   0.330   2.744  13.551 -0.1106 -1.8882 -0.1691
 8365TIP3   OH246585   4.373   4.551  14.760 -0.3211  0.2307  0.1806
 8365TIP3    H146586   4.347   4.644  14.759 -0.4831  0.1966  0.9680
 8365TIP3    H246587   4.342   4.519  14.845 -0.3980 -0.5846 -0.1624
 8366TIP3   OH246588   2.351   3.490  16.192  0.2405 -0.6733  0.1281
 8366TIP3    H146589   2.430   3.446  16.223 -0.0653 -1.8344 -0.7217
 8366TIP3    H246590   2.361   3.580  16.222  1.7916 -0.8533  0.1907
 8367TIP3   OH246591   6.226   6.713  13.414 -0.8450 -0.1906 -0.3317
 8367TIP3    H146592   6.232   6.805  13.387  1.3925  0.2397  1.4360
 8367TIP3    H246593   6.235   6.715  13.509  0.0940 -2.2998 -0.3457
 8368TIP3   OH246594   6.068   2.271  16.151  0.1817  0.2960 -0.0027
 8368TIP3    H146595   6.028   2.211  16.088  0.2471  0.2207  0.0286
 8368TIP3    H246596   6.134   2.218  16.196  0.9659  0.6762 -0.7013
 8369TIP3   OH246597   2.500   0.945  14.925 -0.5272 -0.7068  0.2594
 8369TIP3    H146598   2.489   0.972  14.834  2.0047 -0.5834 -0.0658
 8369TIP3    H246599   2.494   0.849  14.923 -1.9903 -0.6181  0.2146
 8370TIP3   OH246600   1.051   1.954   1.999  0.1869  0.3786 -0.2063
 8370TIP3    H146601   1.020   1.869   2.029 -0.3390  0.2210 -1.1784
 8370TIP3    H246602   0.992   2.017   2.040 -0.9749  0.1246 -1.4536
 8371TIP3   OH246603   2.322   3.865   6.297  0.2795  0.0184  0.2766
 8371TIP3    H146604   2.413   3.893   6.303  0.7397 -1.3640 -0.1036
 8371TIP3    H246605   2.274   3.927   6.352  2.0767 -1.9470  4.2953
 8372TIP3   OH246606   5.375   0.973  11.939  0.4902 -0.5805  0.0067
 8372TIP3    H146607   5.307   0.914  11.971 -1.4462  1.9779  0.8625
 8372TIP3    H246608   5.421   1.001  12.019 -0.8940  1.6942  0.0769
 8373TIP3   OH246609   4.551   6.297   4.280  0.7203  0.4996 -0.1187
 8373TIP3    H146610   4.457   6.311   4.290  0.6026  0.2127 -0.8170
 8373TIP3    H246611   4.578   6.361   4.215  1.2036  1.2992  0.8601
 8374TIP3   OH246612   3.681   5.612   3.623  0.0323 -0.3770  0.0936
 8374TIP3    H146613   3.604   5.555   3.632 -0.0936 -0.1016  0.7702
 8374TIP3    H246614   3.668   5.658   3.540  0.3821 -1.7121 -0.7170
 8375TIP3   OH246615   5.769   2.575  12.529  0.1506  0.0222  0.1150
 8375TIP3    H146616   5.836   2.547  12.590  0.2745 -2.7131 -1.1980
 8375TIP3    H246617   5.688   2.535  12.561 -0.0647 -0.1913 -0.6746
 8376TIP3   OH246618   6.392   1.325   5.586  0.4815 -0.6996  0.4243
 8376TIP3    H146619   6.488   1.327   5.579  0.5920 -1.1319  1.7241
 8376TIP3    H246620   6.364   1.280   5.506  1.2271  1.2693 -0.9914
 8377TIP3   OH246621   4.227   2.039   4.596  0.4309 -0.2118 -0.0733
 8377TIP3    H146622   4.272   2.058   4.678 -0.2364  0.9433  0.0482
 8377TIP3    H246623   4.211   1.945   4.597 -0.3070 -0.0821  1.5098
 8378TIP3   OH246624   6.671   4.143  14.038  0.4743 -0.1360 -0.2729
 8378TIP3    H146625   6.716   4.127  14.121  1.1169 -0.5015 -0.6845
 8378TIP3    H246626   6.626   4.227  14.051 -0.3101 -0.7100  0.8062
 8379TIP3   OH246627   2.763   3.471  10.661  0.3902 -0.1891  0.2424
 8379TIP3    H146628   2.792   3.514  10.581 -1.0330  1.1339  0.4006
 8379TIP3    H246629   2.843   3.447  10.707  1.2069 -0.3809 -1.2792
 8380TIP3   OH246630   5.835   5.230   0.633  0.6585 -0.1228  0.2844
 8380TIP3    H146631   5.879   5.300   0.681 -0.7686  0.7191  0.3957
 8380TIP3    H246632   5.768   5.275   0.581  0.8286 -1.2334 -0.9221
 8381TIP3   OH246633   2.677   2.818  16.467 -0.4372 -0.7021  0.0613
 8381TIP3    H146634   2.657   2.895  16.415 -0.7268  0.0031  1.1884
 8381TIP3    H246635   2.609   2.817  16.535 -1.1355 -2.5989 -0.6222
 8382TIP3   OH246636   6.618   1.963  13.122  0.3011  0.7636 -0.4115
 8382TIP3    H146637   6.601   1.993  13.033 -0.2355 -0.3332 -0.6879
 8382TIP3    H246638   6.682   1.893  13.112 -0.2498  0.1955 -0.0004
 8383TIP3   OH246639   6.591   6.792  13.921  0.0826 -0.4675 -0.0733
 8383TIP3    H146640   6.583   6.863  13.985  0.7068  0.2236 -0.7439
 8383TIP3    H246641   6.549   6.826  13.842  1.6739 -0.2407 -0.8584
 8384TIP3   OH246642   5.171   0.748  16.954 -0.1657 -0.2333 -0.7977
 8384TIP3    H146643   5.217   0.774  17.033  0.0414  0.8776 -1.2705
 8384TIP3    H246644   5.221   0.789  16.883 -1.6215  0.6269 -1.3409
 8385TIP3   OH246645   2.305   1.502   1.586 -0.8363 -0.2338 -0.2013
 8385TIP3    H146646   2.294   1.511   1.491  1.7546  1.4709 -0.3647
 8385TIP3    H246647   2.332   1.410   1.598 -3.4143 -1.1129 -0.8549
 8386TIP3   OH246648   4.635   5.579   5.147 -0.0885 -0.1325  0.2486
 8386TIP3    H146649   4.634   5.576   5.243 -2.2172 -0.3129  0.2434
 8386TIP3    H246650   4.688   5.504   5.121 -1.0165 -1.1590  1.2656
 8387TIP3   OH246651   0.707   2.533  11.707 -0.5335 -0.2979  0.0452
 8387TIP3    H146652   0.689   2.627  11.709  0.6188 -0.0779  0.5264
 8387TIP3    H246653   0.684   2.503  11.795 -2.1186 -0.7053 -0.5039
 8388TIP3   OH246654   5.077   0.805  14.439  0.3891  0.0819 -0.0260
 8388TIP3    H146655   5.007   0.825  14.500 -0.0308 -1.0011 -0.1442
 8388TIP3    H246656   5.044   0.731  14.387 -0.4928  2.7923 -3.5639
 8389TIP3   OH246657   5.736   4.124  11.941  0.2015 -0.4120 -0.1670
 8389TIP3    H146658   5.762   4.184  12.010 -1.7717  1.8944 -1.3538
 8389TIP3    H246659   5.810   4.126  11.879  0.3079  0.4977 -0.0160
 8390TIP3   OH246660   0.695   2.061  15.410  0.0662 -0.7519 -0.2189
 8390TIP3    H146661   0.733   2.086  15.326  0.9921 -0.7093  0.1978
 8390TIP3    H246662   0.704   2.139  15.465  0.5573 -1.1521  0.2785
 8391TIP3   OH246663   5.942   3.937   5.078 -0.0802  0.2107  0.3400
 8391TIP3    H146664   5.945   3.846   5.109  1.2966 -0.3541 -1.4323
 8391TIP3    H246665   6.033   3.961   5.065 -0.5023  1.5059 -0.2560
 8392TIP3   OH246666   4.713   2.791  15.544  0.2398  0.4784  0.0164
 8392TIP3    H146667   4.777   2.741  15.494  0.9406 -0.1416  1.5086
 8392TIP3    H246668   4.654   2.828  15.478  2.3952  1.4229 -1.4181
 8393TIP3   OH246669   5.808   5.654   2.352  0.2615 -0.8604  0.1351
 8393TIP3    H146670   5.803   5.747   2.377  0.8226 -0.4125 -1.3215
 8393TIP3    H246671   5.770   5.652   2.264  0.2091 -2.0324  0.1873
 8394TIP3   OH246672   5.202   2.150  15.933  0.0452  0.2255 -0.2337
 8394TIP3    H146673   5.287   2.184  15.904 -0.2167 -0.3172 -1.7036
 8394TIP3    H246674   5.138   2.208  15.892 -0.3212 -0.0399 -0.0394
 8395TIP3   OH246675   0.387   6.250   1.763  0.4453  0.5768 -0.3830
 8395TIP3    H146676   0.355   6.167   1.730 -0.9360  0.5281  1.0183
 8395TIP3    H246677   0.350   6.316   1.705 -0.3318  0.3670 -0.1250
 8396TIP3   OH246678   2.712   2.652  17.033 -0.1336  0.1482 -0.5317
 8396TIP3    H146679   2.759   2.569  17.044 -1.1278 -0.2497  0.9313
 8396TIP3    H246680   2.753   2.711  17.095 -0.5792  0.2287 -0.3119
 8397TIP3   OH246681   3.625   2.292  12.038  0.2422 -0.3242 -0.5374
 8397TIP3    H146682   3.562   2.356  12.005  0.6244 -0.2264 -1.0991
 8397TIP3    H246683   3.639   2.233  11.964  0.9122 -0.2645 -0.4604
 8398TIP3   OH246684   3.981   1.483  16.064 -0.1703 -0.3906  0.1787
 8398TIP3    H146685   4.061   1.443  16.098 -0.3978  0.4475  1.7457
 8398TIP3    H246686   3.912   1.422  16.088 -0.2482 -0.1124  0.6796
 8399TIP3   OH246687   6.311   5.899  15.100  0.3010  0.3708  0.2049
 8399TIP3    H146688   6.331   5.846  15.022  1.4704 -0.6253  1.1487
 8399TIP3    H246689   6.234   5.949  15.076 -1.2513 -2.2654 -0.5033
 8400TIP3   OH246690   6.000   0.274   1.638  0.3288  0.3399 -0.0411
 8400TIP3    H146691   5.992   0.182   1.665  0.9260  0.2671 -0.1208
 8400TIP3    H246692   6.090   0.283   1.609  1.0667  1.5970  2.4490
 8401TIP3   OH246693   2.369   5.065   6.730  0.1689 -0.0580  0.5111
 8401TIP3    H146694   2.391   4.978   6.760  1.0380 -0.8799 -2.3588
 8401TIP3    H246695   2.292   5.053   6.674 -1.0269  1.3185  1.8078
 8402TIP3   OH246696   1.231   2.450   2.884 -0.4631 -0.8406  0.3802
 8402TIP3    H146697   1.147   2.409   2.860 -0.9759  0.8039 -0.7294
 8402TIP3    H246698   1.281   2.451   2.803 -0.2905  0.3024  0.4932
 8403TIP3   OH246699   2.513   5.750   3.563 -0.2797 -0.3336  0.0530
 8403TIP3    H146700   2.522   5.689   3.489 -0.6474 -1.1095  0.6380
 8403TIP3    H246701   2.504   5.693   3.639  0.4985  0.4664  0.7523
 8404TIP3   OH246702   5.603   5.578   4.170 -0.0263 -0.1567 -0.1972
 8404TIP3    H146703   5.615   5.672   4.179 -2.3890  0.3349 -1.6952
 8404TIP3    H246704   5.649   5.554   4.090  1.5816 -0.5055  0.8149
 8405TIP3   OH246705   0.886   3.926  15.424 -0.0737  0.3204 -0.6977
 8405TIP3    H146706   0.837   3.862  15.475  0.0098 -0.6270 -1.7860
 8405TIP3    H246707   0.918   3.989  15.488  1.3893 -1.7263  0.6644
 8406TIP3   OH246708   6.609   5.036   2.410 -0.1652  0.0841  0.2005
 8406TIP3    H146709   6.550   5.086   2.352 -0.8050 -0.6783  0.1841
 8406TIP3    H246710   6.557   5.020   2.488 -0.0603 -0.8086  0.0902
 8407TIP3   OH246711   2.578   1.522   0.310  0.0951  0.2915  0.5666
 8407TIP3    H146712   2.515   1.499   0.241  1.5253  0.6205 -0.8864
 8407TIP3    H246713   2.524   1.556   0.381 -1.6458 -2.5651  0.6756
 8408TIP3   OH246714   1.955   1.257   5.343 -0.3127 -0.7912 -0.6464
 8408TIP3    H146715   1.880   1.236   5.288 -2.1867  2.5137  0.4791
 8408TIP3    H246716   2.004   1.323   5.292 -1.6007  1.6508  1.1657
 8409TIP3   OH246717   0.072   0.779   3.921  0.6249  0.6004 -0.2054
 8409TIP3    H146718   0.128   0.761   3.997 -0.4354  2.6813  1.1293
 8409TIP3    H246719   0.086   0.871   3.902 -2.1135  1.1110  0.0026
 8410TIP3   OH246720   2.493   3.698  11.016  0.3868 -0.3587  0.3611
 8410TIP3    H146721   2.479   3.641  11.091  2.3065 -1.3720 -0.0270
 8410TIP3    H246722   2.507   3.639  10.942 -0.4691  0.6280 -0.6123
 8411TIP3   OH246723   4.322   4.603   1.754  0.1049  0.0231  0.1709
 8411TIP3    H146724   4.262   4.665   1.713  1.6667  0.5858 -1.3109
 8411TIP3    H246725   4.279   4.579   1.836 -1.4018  1.6010 -0.1283
 8412TIP3   OH246726   3.132   4.572  12.289  0.0046  0.0796 -0.7082
 8412TIP3    H146727   3.113   4.574  12.195 -0.2023 -0.7231 -0.6884
 8412TIP3    H246728   3.133   4.479  12.311  0.4383  0.2480  0.0110
 8413TIP3   OH246729   4.287   0.341  16.851  0.2483  0.2278  0.2880
 8413TIP3    H146730   4.369   0.337  16.899  1.0069  1.8018 -0.8471
 8413TIP3    H246731   4.306   0.301  16.766 -0.0922  0.7998 -0.0644
 8414TIP3   OH246732   2.835   1.319   1.538  0.1581 -0.7900 -0.3246
 8414TIP3    H146733   2.918   1.348   1.501  0.2195 -1.5110 -0.7440
 8414TIP3    H246734   2.775   1.391   1.520  0.5780 -0.4577 -0.4108
 8415TIP3   OH246735   5.523   6.028   2.920  0.2908  0.0906  0.1920
 8415TIP3    H146736   5.483   6.051   2.836  0.6841  1.9843  0.5025
 8415TIP3    H246737   5.616   6.019   2.901  0.0259 -2.3002 -0.1200
 8416TIP3   OH246738   1.728   1.409   1.181  0.1385  0.1250  0.4993
 8416TIP3    H146739   1.745   1.483   1.123 -1.5717  0.4358  0.3686
 8416TIP3    H246740   1.663   1.356   1.134 -0.1422 -0.4107  1.4655
 8417TIP3   OH246741   5.409   2.960  15.045  0.0894  0.7859 -0.7786
 8417TIP3    H146742   5.398   2.914  15.128  2.6867  0.4346 -0.5884
 8417TIP3    H246743   5.371   3.046  15.060 -0.7470  0.2303  0.3244
 8418TIP3   OH246744   1.203   2.025  16.627  0.4583 -0.2992  0.0764
 8418TIP3    H146745   1.254   2.087  16.576  1.4229  0.7982  2.2740
 8418TIP3    H246746   1.264   1.956  16.651  0.1962 -0.4475  0.3321
 8419TIP3   OH246747   1.010   1.700   2.091 -0.3591 -0.0327  0.4793
 8419TIP3    H146748   1.023   1.702   2.186 -0.4054 -2.6504  0.5743
 8419TIP3    H246749   1.076   1.638   2.060  0.3699  1.6163 -1.3580
 8420TIP3   OH246750   3.305   6.742  15.195 -0.2319  0.1214  0.0207
 8420TIP3    H146751   3.295   6.830  15.157 -1.3187  0.1262  0.3007
 8420TIP3    H246752   3.371   6.700  15.140 -0.5432  0.7195 -0.8264
 8421TIP3   OH246753   2.997   1.281   1.925 -0.4396  0.5569 -0.4399
 8421TIP3    H146754   3.036   1.238   1.848 -0.7853  0.3641 -0.5101
 8421TIP3    H246755   2.944   1.212   1.966  0.6268  0.3356  0.6062
 8422TIP3   OH246756   0.045   3.256  17.208  0.5739 -0.2587  0.5795
 8422TIP3    H146757   0.122   3.311  17.190 -0.0168  0.9557  1.6902
 8422TIP3    H246758   0.071   3.202  17.282  1.4082 -2.0319 -0.9636
 8423TIP3   OH246759   5.703   6.540  14.667 -0.4654  0.0247  0.2601
 8423TIP3    H146760   5.665   6.519  14.752 -0.0147 -0.9817  0.2209
 8423TIP3    H246761   5.729   6.632  14.675 -0.4563 -0.0496  1.1974
 8424TIP3   OH246762   6.253   4.810   4.661 -0.3653  0.2178  0.6587
 8424TIP3    H146763   6.265   4.898   4.625  0.4531 -0.2260 -0.1954
 8424TIP3    H246764   6.309   4.755   4.606 -2.4581 -1.1664 -0.1261
 8425TIP3   OH246765   6.544   4.590   3.746  0.0311 -0.7993 -0.1034
 8425TIP3    H146766   6.552   4.668   3.801  0.7349  0.1444 -1.5002
 8425TIP3    H246767   6.458   4.554   3.768  0.3613 -0.5240  1.6883
 8426TIP3   OH246768   6.012   6.734   4.862 -0.0469  0.3262 -0.2208
 8426TIP3    H146769   5.986   6.721   4.771  0.4048 -2.1411 -0.0349
 8426TIP3    H246770   5.935   6.709   4.913  0.4430 -0.5018  0.1295
 8427TIP3   OH246771   5.240   4.226  12.264 -0.7591 -0.2283  0.1867
 8427TIP3    H146772   5.240   4.317  12.294 -1.9612 -0.4603  0.9252
 8427TIP3    H246773   5.175   4.225  12.193 -0.3540 -0.3985 -0.1825
 8428TIP3   OH246774   5.562   0.845   6.319  0.5458 -0.5368 -0.2179
 8428TIP3    H146775   5.495   0.777   6.330 -0.9769  0.4709 -2.8396
 8428TIP3    H246776   5.548   0.905   6.392 -0.7464 -0.8625 -0.1963
 8429TIP3   OH246777   4.691   4.196   5.487  0.5718 -0.2032 -0.4023
 8429TIP3    H146778   4.632   4.271   5.474 -0.8868 -1.3908 -0.8051
 8429TIP3    H246779   4.728   4.210   5.574 -1.0978  0.0687  0.2958
 8430TIP3   OH246780   5.482   1.273  11.276  0.2887  0.4903  0.3332
 8430TIP3    H146781   5.476   1.359  11.235 -2.5867  0.4941  0.7099
 8430TIP3    H246782   5.460   1.212  11.206  0.9117  0.1410  0.4374
 8431TIP3   OH246783   2.133   1.681  15.525  0.2022 -0.2950  0.3726
 8431TIP3    H146784   2.205   1.632  15.564 -0.1045  0.1676  1.5298
 8431TIP3    H246785   2.063   1.678  15.590  0.1034  1.4729  0.3694
 8432TIP3   OH246786   1.257   6.248   0.897 -0.2990 -0.2930 -0.5616
 8432TIP3    H146787   1.261   6.279   0.987  1.7152 -0.2786 -0.6239
 8432TIP3    H246788   1.166   6.222   0.884 -0.3794 -1.3943  1.8544
 8433TIP3   OH246789   0.564   3.506  15.224  0.3924 -0.4733 -0.1573
 8433TIP3    H146790   0.543   3.414  15.242 -0.8249 -0.1318  0.2426
 8433TIP3    H246791   0.659   3.507  15.216  0.4233 -1.7750 -0.1919
 8434TIP3   OH246792   1.640   4.606   2.885  0.0649 -0.1669 -0.1355
 8434TIP3    H146793   1.710   4.670   2.900  0.1060 -0.9561  3.7089
 8434TIP3    H246794   1.560   4.657   2.882  0.3952  0.3510 -0.1217
 8435TIP3   OH246795   1.593   4.023  11.872 -0.0834 -0.6234 -0.3319
 8435TIP3    H146796   1.651   4.024  11.796 -1.3242  1.4550 -1.2818
 8435TIP3    H246797   1.602   4.111  11.910 -1.1359 -0.9256  0.6340
 8436TIP3   OH246798   1.213   0.193   0.061 -0.0056 -0.7406 -0.5491
 8436TIP3    H146799   1.259   0.269   0.026 -1.6918  0.9629  0.8045
 8436TIP3    H246800   1.276   0.151   0.120  0.2465  0.8548  0.3405
 8437TIP3   OH246801   6.013   4.000  16.059 -0.4223  0.4636  0.5059
 8437TIP3    H146802   5.953   3.984  16.132 -0.7888 -2.0571 -0.3036
 8437TIP3    H246803   6.096   3.963  16.088 -0.7283 -1.1125 -0.5726
 8438TIP3   OH246804   1.490   1.026  15.428 -0.2113  0.1416 -0.1493
 8438TIP3    H146805   1.575   1.044  15.469 -0.5887 -0.0613  0.7315
 8438TIP3    H246806   1.432   1.006  15.501 -1.0949  0.5663 -0.7295
 8439TIP3   OH246807   1.645   2.948   1.306 -0.0320 -0.3160  0.2739
 8439TIP3    H146808   1.636   2.966   1.213 -0.5498 -0.2187  0.3446
 8439TIP3    H246809   1.592   2.870   1.322  1.8843 -1.7098  0.0504
 8440TIP3   OH246810   3.012   2.890  16.647  0.3671  0.0723 -0.7662
 8440TIP3    H146811   3.047   2.805  16.618  2.0377 -0.8667  3.6062
 8440TIP3    H246812   2.932   2.867  16.696  1.1223  0.9231  0.9014
 8441TIP3   OH246813   6.805   1.515   0.547  0.3592 -0.1614 -0.0041
 8441TIP3    H146814   6.819   1.475   0.633 -0.4575 -2.7393 -1.0128
 8441TIP3    H246815   6.752   1.451   0.499  1.7075  0.7179 -2.8011
 8442TIP3   OH246816   1.583   0.061  12.222 -0.7255 -0.3962  0.7702
 8442TIP3    H146817   1.664   0.081  12.269 -0.8942  0.3425  0.7511
 8442TIP3    H246818   1.515   0.103  12.273 -0.9019  0.4805 -0.1674
 8443TIP3   OH246819   6.023   1.789  15.459  0.0087  0.2268 -0.1439
 8443TIP3    H146820   6.116   1.768  15.467  0.0726  0.1774 -0.9771
 8443TIP3    H246821   5.978   1.708  15.486  0.1827  0.5597  1.1942
 8444TIP3   OH246822   5.996   0.991   2.145  0.2256  0.3707 -0.3642
 8444TIP3    H146823   5.937   1.065   2.154  0.0300  0.2642 -0.7703
 8444TIP3    H246824   5.945   0.924   2.099  0.4579  0.0506 -0.1616
 8445TIP3   OH246825   4.201   1.737   2.783 -0.1665 -0.1502 -0.1114
 8445TIP3    H146826   4.108   1.736   2.763 -0.2973 -2.3138  0.5073
 8445TIP3    H246827   4.244   1.744   2.697 -0.8693 -0.6374 -0.5012
 8446TIP3   OH246828   3.339   2.976   1.533 -0.1659  0.2444 -0.0292
 8446TIP3    H146829   3.335   2.900   1.591 -1.0842 -0.4825 -1.0183
 8446TIP3    H246830   3.274   3.037   1.568 -0.3368  0.0305  0.0283
 8447TIP3   OH246831   0.431   6.148  11.498  0.3112  0.0562 -0.4595
 8447TIP3    H146832   0.412   6.178  11.409 -2.5838  0.3700  0.2090
 8447TIP3    H246833   0.380   6.068  11.507 -0.7216  0.8812  1.3981
 8448TIP3   OH246834   1.766   4.614  14.324 -0.2666 -0.2031 -0.3306
 8448TIP3    H146835   1.703   4.664  14.272  0.3084  0.0490 -0.7849
 8448TIP3    H246836   1.851   4.648  14.299  0.1090 -1.1577 -0.3749
 8449TIP3   OH246837   3.654   1.987   0.673  0.4334 -0.2885 -0.1240
 8449TIP3    H146838   3.641   1.923   0.743  0.0377  1.1605  1.1602
 8449TIP3    H246839   3.599   1.956   0.601  0.4263 -1.5093  0.4033
 8450TIP3   OH246840   1.928   1.391   0.413  0.7381 -0.0596 -0.2420
 8450TIP3    H146841   1.882   1.335   0.476  1.2010  1.7427  1.7700
 8450TIP3    H246842   1.988   1.332   0.367  0.0182 -1.5111  0.6487
 8451TIP3   OH246843   0.958   2.644  13.633  0.1049  0.2083  0.2854
 8451TIP3    H146844   0.941   2.557  13.594  1.8712 -0.2814  0.5750
 8451TIP3    H246845   0.901   2.703  13.583 -0.1194 -0.9163 -0.8401
 8452TIP3   OH246846   1.249   0.360   1.432  0.8367  0.2119 -0.2765
 8452TIP3    H146847   1.190   0.428   1.400  1.3792 -0.9609 -3.9493
 8452TIP3    H246848   1.198   0.311   1.496 -1.5371  0.4537 -1.9426
 8453TIP3   OH246849   2.299   6.418  16.777 -0.2832 -0.2124  0.2897
 8453TIP3    H146850   2.319   6.360  16.850  1.0302 -0.1042  0.0259
 8453TIP3    H246851   2.321   6.368  16.699  1.4732  0.8482  0.0818
 8454TIP3   OH246852   2.965   0.639   0.360 -0.2065  0.1924  0.6055
 8454TIP3    H146853   3.014   0.575   0.308 -0.1737 -1.0010  2.0712
 8454TIP3    H246854   3.011   0.642   0.444 -1.6575  0.3182  1.4142
 8455TIP3   OH246855   4.960   0.650   5.675  0.2512 -0.5080 -0.5419
 8455TIP3    H146856   4.878   0.675   5.632 -0.6551  0.2621  1.5754
 8455TIP3    H246857   5.022   0.717   5.646 -0.5589  0.4991 -0.0241
 8456TIP3   OH246858   1.992   6.312   2.730 -0.4072  0.0998  0.1674
 8456TIP3    H146859   2.056   6.374   2.695  0.0986 -0.6138 -0.1993
 8456TIP3    H246860   1.908   6.357   2.723  0.1099  1.2370  1.0935
 8457TIP3   OH246861   1.553   1.863  14.444 -0.4914  0.0786  0.0854
 8457TIP3    H146862   1.558   1.942  14.389 -0.0355 -1.4554 -2.1397
 8457TIP3    H246863   1.464   1.865  14.480  0.0506  2.4594  1.4348
 8458TIP3   OH246864   1.861   2.229  14.775 -0.1219  0.5246 -0.0545
 8458TIP3    H146865   1.898   2.317  14.780 -1.2909  1.0849 -1.0205
 8458TIP3    H246866   1.860   2.208  14.682  0.2402 -0.5532  0.1753
 8459TIP3   OH246867   4.026   2.113  13.090 -0.5879 -0.5268  0.4556
 8459TIP3    H146868   4.038   2.033  13.142 -0.8653  1.0491  3.0115
 8459TIP3    H246869   4.031   2.184  13.154  1.2107  1.6387 -1.9924
 8460TIP3   OH246870   1.031   2.893   5.215  0.0013  0.1343 -0.7452
 8460TIP3    H146871   1.003   2.808   5.182  0.6497  0.2015 -1.4746
 8460TIP3    H246872   0.968   2.955   5.179  0.4671  0.1571 -1.5377
 8461TIP3   OH246873   4.413   2.585   0.454  0.9037  0.5271 -0.1190
 8461TIP3    H146874   4.502   2.578   0.420  1.0217  2.6487 -0.3286
 8461TIP3    H246875   4.423   2.594   0.549  0.8406 -0.3876 -0.0211
 8462TIP3   OH246876   2.929   1.623   6.106 -0.1929 -0.4231  0.3179
 8462TIP3    H146877   2.844   1.643   6.146 -0.1799 -1.0077  0.6517
 8462TIP3    H246878   2.990   1.682   6.149 -0.2371 -0.8136  0.9205
 8463TIP3   OH246879   5.151   5.345   4.641 -0.3518  0.5565  0.2787
 8463TIP3    H146880   5.238   5.379   4.663 -0.4083 -0.1815  1.7181
 8463TIP3    H246881   5.169   5.270   4.585 -0.1587  1.8534 -1.4183
 8464TIP3   OH246882   4.170   4.314   3.422  0.5471 -0.2634  0.3665
 8464TIP3    H146883   4.119   4.393   3.443  1.6290  0.7585 -0.7615
 8464TIP3    H246884   4.226   4.341   3.349  0.4374 -2.2904 -0.4700
 8465TIP3   OH246885   4.901   3.118  13.295 -0.2425  0.4544 -0.2813
 8465TIP3    H146886   4.833   3.129  13.361 -0.0887  0.2546 -0.0864
 8465TIP3    H246887   4.966   3.062  13.338 -1.3285 -1.8047 -1.4685
 8466TIP3   OH246888   1.858   1.504  13.820 -0.1183 -0.3150  0.3317
 8466TIP3    H146889   1.924   1.561  13.781 -0.2106 -0.0067  0.6230
 8466TIP3    H246890   1.778   1.556  13.822 -0.5403 -0.9211 -0.6257
 8467TIP3   OH246891   2.672   3.620   4.336 -0.6188  0.1891  0.1826
 8467TIP3    H146892   2.716   3.616   4.421 -1.1770  0.1439  0.4717
 8467TIP3    H246893   2.598   3.560   4.345  0.4325 -1.3378 -0.9854
 8468TIP3   OH246894   2.254   3.963  12.392 -0.0701 -0.1941  0.4693
 8468TIP3    H146895   2.237   3.963  12.298 -1.6260 -2.8177  0.7016
 8468TIP3    H246896   2.345   3.935  12.401  0.0441 -0.0516 -0.2364
 8469TIP3   OH246897   5.656   4.597  14.205 -0.3175  0.0594 -0.0996
 8469TIP3    H146898   5.699   4.677  14.172  0.8003 -0.2941  0.4661
 8469TIP3    H246899   5.573   4.594  14.158  0.3853  0.6306 -1.4249
 8470TIP3   OH246900   1.095   5.355  15.843  0.3794 -0.0815  0.6995
 8470TIP3    H146901   1.158   5.313  15.901 -0.1544 -1.4342  0.3089
 8470TIP3    H246902   1.021   5.378  15.900 -0.3766 -1.8940  0.4822
 8471TIP3   OH246903   2.910   4.186   4.377  0.2704 -0.1786 -0.2964
 8471TIP3    H146904   2.916   4.206   4.470 -0.6685 -1.3079  0.0105
 8471TIP3    H246905   2.989   4.226   4.339  1.5428 -1.1940  1.2331
 8472TIP3   OH246906   2.025   3.929   1.861  0.0820 -0.5532  0.4455
 8472TIP3    H146907   2.060   4.018   1.853 -1.7683  0.1124 -0.4163
 8472TIP3    H246908   2.025   3.895   1.771 -0.7157 -0.8443  0.5550
 8473TIP3   OH246909   3.346   4.661   3.204  0.1570 -0.0326  0.5841
 8473TIP3    H146910   3.419   4.705   3.248  1.3639 -0.1214 -1.2591
 8473TIP3    H246911   3.354   4.687   3.112  0.3557 -3.3486 -0.4180
 8474TIP3   OH246912   4.057   0.223  12.024 -0.1145  0.7367 -0.1483
 8474TIP3    H146913   4.022   0.153  12.080  0.4508  1.7287  1.4636
 8474TIP3    H246914   4.067   0.181  11.939  1.0398 -1.4378  0.9835
 8475TIP3   OH246915   4.047   3.653   1.833 -0.4187  0.0115  0.2399
 8475TIP3    H146916   4.094   3.595   1.773 -0.1394 -0.3300  0.7879
 8475TIP3    H246917   4.104   3.660   1.909  0.4780  2.6374 -0.6434
 8476TIP3   OH246918   2.671   4.150   1.053  0.4872  0.7450  0.4951
 8476TIP3    H146919   2.676   4.154   1.148  1.0290 -0.1050  0.5160
 8476TIP3    H246920   2.629   4.232   1.027 -2.0077 -0.1207  1.6287
 8477TIP3   OH246921   3.595   3.447  13.719 -0.6219  0.2146  0.4884
 8477TIP3    H146922   3.612   3.479  13.631  0.0567 -1.6766 -0.0918
 8477TIP3    H246923   3.520   3.389  13.709 -0.5978  0.0634  1.1739
 8478TIP3   OH246924   1.848   4.536  16.724 -0.4090 -0.2465  0.0215
 8478TIP3    H146925   1.898   4.485  16.660 -1.8021  0.5868 -1.7508
 8478TIP3    H246926   1.854   4.626  16.694 -1.6231  0.0769  0.7094
 8479TIP3   OH246927   5.070   2.926  16.228 -0.4288 -0.1084  0.9080
 8479TIP3    H146928   5.093   3.007  16.182 -0.9769  0.2850  1.3189
 8479TIP3    H246929   5.154   2.880  16.240 -0.2393 -0.0522 -0.1714
 8480TIP3   OH246930   4.665   0.887   6.076  0.0955  0.3235 -0.3136
 8480TIP3    H146931   4.712   0.864   6.156 -0.2095 -2.6545 -0.9590
 8480TIP3    H246932   4.733   0.913   6.015  0.6708 -1.2518 -0.3485
 8481TIP3   OH246933   0.100   5.332  16.001 -0.3445 -0.1072  0.1301
 8481TIP3    H146934   0.104   5.401  15.935  1.1742 -0.2912 -0.0111
 8481TIP3    H246935   0.134   5.255  15.956 -0.2972 -0.4829  0.8086
 8482TIP3   OH246936   6.274   4.299   3.451 -0.7280  0.1238  0.3077
 8482TIP3    H146937   6.231   4.379   3.479 -2.1100  0.1836 -1.8513
 8482TIP3    H246938   6.338   4.327   3.386 -2.0724 -0.6123 -1.3718
 8483TIP3   OH246939   2.580   0.034   4.109  1.0211  0.6327  0.6295
 8483TIP3    H146940   2.554   0.101   4.045  1.0164 -0.4511 -0.5124
 8483TIP3    H246941   2.675   0.038   4.110  0.9808  1.9972  2.0280
 8484TIP3   OH246942   1.501   4.505  13.998 -0.3772  0.5369 -0.2614
 8484TIP3    H146943   1.476   4.595  13.977 -0.8619  0.5697  0.4569
 8484TIP3    H246944   1.596   4.505  13.994 -0.4207  0.6884 -1.8719
 8485TIP3   OH246945   6.420   3.872  14.757 -0.5396 -0.2565 -0.0044
 8485TIP3    H146946   6.348   3.845  14.699 -0.1375 -1.9010  0.2337
 8485TIP3    H246947   6.418   3.807  14.827  0.7129  0.1344  0.3818
 8486TIP3   OH246948   0.319   3.963   3.934  0.2584 -0.2429  0.4364
 8486TIP3    H146949   0.324   3.879   3.979  1.9894 -0.1477  0.4663
 8486TIP3    H246950   0.378   3.954   3.859  0.9093  1.1392  0.7631
 8487TIP3   OH246951   4.185   2.334  12.897  0.6091  0.6196  0.5544
 8487TIP3    H146952   4.145   2.418  12.918  1.8086  1.3927 -0.2067
 8487TIP3    H246953   4.278   2.354  12.884  0.9780 -0.8909  0.7632
 8488TIP3   OH246954   6.235   5.236   2.049  0.1521  1.1628 -0.0886
 8488TIP3    H146955   6.180   5.274   1.980 -2.5400  0.5961  1.6771
 8488TIP3    H246956   6.284   5.167   2.005 -1.3259  0.9987 -1.5274
 8489TIP3   OH246957   2.663   2.425  13.106  0.7689 -0.0425  0.2011
 8489TIP3    H146958   2.587   2.383  13.066  0.6462 -0.3456  0.7493
 8489TIP3    H246959   2.667   2.512  13.065 -0.0167  0.0633  0.3497
 8490TIP3   OH246960   3.893   0.021   4.756 -0.0535 -0.0637 -0.2076
 8490TIP3    H146961   3.883  -0.014   4.845 -1.3553 -0.8574 -0.6537
 8490TIP3    H246962   3.960   0.089   4.765  0.9242 -1.1559  1.0985
 8491TIP3   OH246963   6.800   4.492   5.512  0.5382 -0.3130 -0.3430
 8491TIP3    H146964   6.791   4.558   5.443 -2.4712 -1.2612 -0.9082
 8491TIP3    H246965   6.774   4.410   5.471 -1.4612 -0.8811  1.9315
 8492TIP3   OH246966   5.067   3.022  17.277 -0.4135  0.0263 -0.5194
 8492TIP3    H146967   5.096   3.089  17.339  1.2505  1.7325 -3.0564
 8492TIP3    H246968   5.104   2.941  17.311  0.6278  0.9668  0.6546
 8493TIP3   OH246969   1.059   4.849  15.015  0.3504  0.6842  0.0389
 8493TIP3    H146970   1.080   4.756  15.027 -1.8409 -0.0447 -1.4975
 8493TIP3    H246971   1.144   4.893  15.017  1.5877 -1.5637 -0.9369
 8494TIP3   OH246972   0.035   5.384   1.167  0.0705 -0.3342  0.4218
 8494TIP3    H146973   0.058   5.458   1.110 -0.4845  0.2838  0.9947
 8494TIP3    H246974  -0.017   5.326   1.111 -0.8414  0.4760  0.4136
 8495TIP3   OH246975   5.415   3.676  10.941  0.5748  0.1967 -0.0516
 8495TIP3    H146976   5.468   3.633  10.874 -0.5194  1.0382 -1.4734
 8495TIP3    H246977   5.361   3.607  10.978 -0.1227  0.0552 -1.3127
 8496TIP3   OH246978   3.515   4.294   3.585  0.7311  0.1459 -0.0096
 8496TIP3    H146979   3.458   4.355   3.631 -1.9455 -0.2455 -2.7272
 8496TIP3    H246980   3.467   4.211   3.587  1.2226 -0.2059 -2.2798
 8497TIP3   OH246981   1.265   2.849  15.223 -0.3467 -0.3063  0.3196
 8497TIP3    H146982   1.231   2.939  15.224  1.5493  0.4461  0.0561
 8497TIP3    H246983   1.358   2.859  15.246 -0.1904 -2.2399  0.5853
 8498TIP3   OH246984   4.844   5.646  17.113 -0.1275  0.0895 -0.1891
 8498TIP3    H146985   4.786   5.664  17.039  1.4796  0.2694 -1.4212
 8498TIP3    H246986   4.932   5.653  17.077  0.6885  0.7182  1.8790
 8499TIP3   OH246987   1.959   0.599  15.080  0.3063 -0.2737  0.2847
 8499TIP3    H146988   1.987   0.643  15.160  2.8602 -0.6066 -0.4024
 8499TIP3    H246989   1.900   0.662  15.037  0.1369  0.5094  1.6555
 8500TIP3   OH246990   5.804   1.172   1.718 -0.3066 -0.0278 -0.4588
 8500TIP3    H146991   5.797   1.107   1.789 -0.6351 -0.4387 -0.8660
 8500TIP3    H246992   5.815   1.255   1.764 -2.1691 -0.0837  0.1146
 8501TIP3   OH246993   5.943   5.945   0.317 -0.0573 -0.4793 -0.0061
 8501TIP3    H146994   5.896   6.010   0.264 -1.5163 -0.5744  1.1235
 8501TIP3    H246995   6.008   5.995   0.366 -0.8301  0.0649  0.4685
 8502TIP3   OH246996   6.573   2.123   3.502  0.3437 -0.0657  0.2485
 8502TIP3    H146997   6.555   2.059   3.434 -0.0453  0.1682  0.1310
 8502TIP3    H246998   6.487   2.156   3.529  0.5568  0.7005  0.0203
 8503TIP3   OH246999   3.841   3.300  16.319 -0.1088 -0.5321 -0.2615
 8503TIP3    H147000   3.812   3.222  16.272 -1.0938  0.2570 -0.9747
 8503TIP3    H247001   3.847   3.271  16.411  0.5409 -1.7158 -0.6686
 8504TIP3   OH247002   6.034   5.497   2.327 -0.5350 -0.2042 -0.0591
 8504TIP3    H147003   6.115   5.547   2.321 -0.3750 -0.5895 -1.2715
 8504TIP3    H247004   5.967   5.555   2.291 -0.6256 -0.2641  0.0112
 8505TIP3   OH247005   2.888   5.868  14.206  0.5054  0.6454 -0.2053
 8505TIP3    H147006   2.856   5.830  14.125  2.0334  0.2185 -0.6361
 8505TIP3    H247007   2.861   5.960  14.202 -1.3861  0.0931 -0.1325
 8506TIP3   OH247008   0.409   6.426  15.518 -0.2718 -0.3903  0.2390
 8506TIP3    H147009   0.456   6.399  15.440 -1.0667 -1.3114  0.0676
 8506TIP3    H247010   0.413   6.522  15.517  1.0212 -0.4398 -0.1082
 8507TIP3   OH247011   0.882   6.503  16.161  0.5339 -0.1604  0.1340
 8507TIP3    H147012   0.865   6.409  16.160  0.1427 -0.0890 -0.7282
 8507TIP3    H247013   0.805   6.542  16.202 -1.0918  0.0834 -2.9326
 8508TIP3   OH247014   6.723   3.368   1.757  0.1409 -0.0664 -0.2189
 8508TIP3    H147015   6.630   3.354   1.738  0.2000 -0.6563 -0.0768
 8508TIP3    H247016   6.732   3.464   1.760 -0.5885 -0.0048  0.3644
 8509TIP3   OH247017   2.546   4.511  10.835 -0.6211 -0.4358 -0.2860
 8509TIP3    H147018   2.514   4.601  10.841  1.5263  0.3390  0.0923
 8509TIP3    H247019   2.467   4.458  10.824 -1.7811  1.6589 -2.5478
 8510TIP3   OH247020   2.538   3.986   0.178 -0.4826  0.3880 -0.1372
 8510TIP3    H147021   2.527   3.928   0.254  1.9435 -0.8228 -0.6469
 8510TIP3    H247022   2.510   3.932   0.104 -1.7129  1.1584 -0.2378
 8511TIP3   OH247023   2.274   2.228   4.759  0.4649  0.1826 -0.1534
 8511TIP3    H147024   2.282   2.200   4.668 -1.1876 -1.3446  0.1499
 8511TIP3    H247025   2.221   2.308   4.755 -0.0342 -0.1643 -0.4925
 8512TIP3   OH247026   0.728   0.055   3.944 -0.5604 -0.0447  0.2346
 8512TIP3    H147027   0.707   0.147   3.929 -0.6444 -0.2508 -0.9716
 8512TIP3    H247028   0.794   0.056   4.013 -1.0321  0.8833  0.6762
 8513TIP3   OH247029   1.699   3.018  14.590 -0.2261  0.0383  0.2602
 8513TIP3    H147030   1.737   2.981  14.669 -1.6694 -0.8023  0.5710
 8513TIP3    H247031   1.766   3.003  14.523 -1.0035 -3.8045  0.2179
 8514TIP3   OH247032   3.635   2.988  13.723 -0.4943 -0.3406  0.4156
 8514TIP3    H147033   3.692   2.918  13.754  1.2504  0.9451  0.2021
 8514TIP3    H247034   3.555   2.978  13.774  0.5147 -1.2204  1.8764
 8515TIP3   OH247035   3.538   5.786   1.242 -0.4683 -0.5548 -0.0273
 8515TIP3    H147036   3.480   5.855   1.273  0.2491  0.4937 -0.9903
 8515TIP3    H247037   3.482   5.708   1.235 -1.2318 -0.1277  1.2425
 8516TIP3   OH247038   3.720   1.503  16.467 -0.1519 -0.2298 -0.3962
 8516TIP3    H147039   3.756   1.426  16.423 -1.3879 -0.4781 -0.9721
 8516TIP3    H247040   3.794   1.537  16.518  0.4910 -1.6173 -0.3636
 8517TIP3   OH247041   1.670   5.976  16.825 -0.0591  0.1801  0.4673
 8517TIP3    H147042   1.594   6.034  16.832  0.6612  1.0981  0.8144
 8517TIP3    H247043   1.645   5.897  16.872 -0.7104  0.5721  0.7809
 8518TIP3   OH247044   3.602   4.238  13.574  0.4035  0.2045 -0.0498
 8518TIP3    H147045   3.568   4.188  13.649 -0.0476  2.3393  1.1863
 8518TIP3    H247046   3.605   4.328  13.604 -0.0906  1.1547 -2.7448
 8519TIP3   OH247047   5.357   6.337   0.650  0.4141  1.0206 -0.1269
 8519TIP3    H147048   5.373   6.354   0.557 -0.2579  1.0553 -0.2388
 8519TIP3    H247049   5.409   6.259   0.669  1.3833  1.6254 -0.2687
 8520TIP3   OH247050   3.158   0.691  16.815  0.1468 -0.0767 -0.3045
 8520TIP3    H147051   3.100   0.766  16.825 -0.5896 -0.5647 -0.8049
 8520TIP3    H247052   3.243   0.729  16.792 -0.6464  0.5439 -2.3214
 8521TIP3   OH247053   5.993   2.136   6.528 -0.4852  0.0017 -0.4302
 8521TIP3    H147054   5.948   2.060   6.564 -0.1709 -1.2056 -2.4581
 8521TIP3    H247055   6.081   2.132   6.566 -1.1053  0.6017  1.1200
 8522TIP3   OH247056   6.799   5.169   2.586  0.4371  0.6230  0.4418
 8522TIP3    H147057   6.802   5.107   2.659  1.8072 -0.6399 -0.6526
 8522TIP3    H247058   6.752   5.123   2.517 -0.6068  1.7038  0.4257
 8523TIP3   OH247059   5.603   2.631  16.633  0.7592 -0.0355  0.0367
 8523TIP3    H147060   5.696   2.654  16.630  0.1156  2.6593 -0.5411
 8523TIP3    H247061   5.583   2.600  16.545  0.8029  0.7222 -0.2454
 8524TIP3   OH247062   2.534   1.823  15.679 -0.1310  0.2479  0.1458
 8524TIP3    H147063   2.570   1.882  15.746 -2.5356  0.2853  1.4315
 8524TIP3    H247064   2.460   1.780  15.721 -0.8875 -0.7111 -2.0814
 8525TIP3   OH247065   1.990   1.367  12.376  0.7061 -0.1246  0.3647
 8525TIP3    H147066   2.034   1.408  12.302  0.2006 -0.1321  0.0550
 8525TIP3    H247067   1.925   1.309  12.336 -0.1307  0.4861  0.8207
 8526TIP3   OH247068   6.383   2.782  12.384 -0.6152 -0.2725  0.0638
 8526TIP3    H147069   6.376   2.728  12.462  1.4633  1.8636  1.7814
 8526TIP3    H247070   6.449   2.739  12.330  0.4344  0.0987  1.0475
 8527TIP3   OH247071   0.052   5.329  13.399  0.0950  0.1303  0.1501
 8527TIP3    H147072   0.057   5.424  13.405  0.5213  0.1554 -0.5624
 8527TIP3    H247073  -0.009   5.304  13.468  0.1082  0.9046  0.4503
 8528TIP3   OH247074   6.620   2.001  12.505 -0.0606  0.1207 -0.3163
 8528TIP3    H147075   6.529   1.998  12.475 -0.4905  2.1361  0.7373
 8528TIP3    H247076   6.667   2.040  12.431 -0.1363 -0.3665 -0.6268
 8529TIP3   OH247077   2.888   6.246   3.752 -0.3938  0.6658 -0.2074
 8529TIP3    H147078   2.963   6.187   3.748  1.9884  3.3253  3.1562
 8529TIP3    H247079   2.836   6.215   3.826  0.2247  2.0427  0.8109
 8530TIP3   OH247080   3.459   1.272  15.663 -0.1246  0.1871 -0.1615
 8530TIP3    H147081   3.430   1.351  15.708 -1.7268  0.1336 -1.0715
 8530TIP3    H247082   3.421   1.200  15.713  0.8862  0.0057  0.3539
 8531TIP3   OH247083   0.399   2.919   1.802 -0.0958 -0.5330  0.7038
 8531TIP3    H147084   0.407   2.980   1.730  0.2767 -2.2907 -0.7774
 8531TIP3    H247085   0.365   2.972   1.875  1.6297  1.7301 -0.0820
 8532TIP3   OH247086   0.852   3.860   3.467  0.5647  0.1117 -0.4705
 8532TIP3    H147087   0.902   3.936   3.494 -0.8812  1.1469 -0.6455
 8532TIP3    H247088   0.906   3.785   3.494  1.5288  1.1737  0.6217
 8533TIP3   OH247089   5.116   1.953  11.729  0.3017  0.1871  0.4524
 8533TIP3    H147090   5.210   1.961  11.746  0.6236 -1.2474 -0.5269
 8533TIP3    H247091   5.095   2.027  11.673  1.2438 -0.4655 -0.7918
 8534TIP3   OH247092   1.041   6.240  13.722  0.6182 -0.0274 -0.1787
 8534TIP3    H147093   1.052   6.234  13.817 -1.3440  1.0732  0.1396
 8534TIP3    H247094   0.954   6.203  13.705  1.1482 -0.6566 -1.6134
 8535TIP3   OH247095   1.318   4.572  13.748 -0.2527 -0.2598  0.5385
 8535TIP3    H147096   1.388   4.625  13.711 -1.0522 -0.8063 -1.8466
 8535TIP3    H247097   1.358   4.486  13.761  0.0667 -0.0299  1.1016
 8536TIP3   OH247098   0.560   4.574   4.597 -0.2187  0.4648 -0.7585
 8536TIP3    H147099   0.606   4.657   4.610  1.0892 -0.6400  2.2055
 8536TIP3    H247100   0.479   4.598   4.552  0.0599  3.3631  0.1849
 8537TIP3   OH247101   1.457   2.809   6.685 -0.6199 -0.0032 -0.0541
 8537TIP3    H147102   1.508   2.788   6.607  0.2893  1.9767 -0.0171
 8537TIP3    H247103   1.374   2.764   6.672  0.1463 -1.0602 -1.3788
 8538TIP3   OH247104   0.391   6.264   3.691 -1.0119  0.5035 -0.3440
 8538TIP3    H147105   0.343   6.347   3.687 -2.4570 -0.3143 -0.3314
 8538TIP3    H247106   0.380   6.234   3.781  1.3468  1.3335  0.2729
 8539TIP3   OH247107   3.352   6.522   2.048  0.0711 -0.0860  0.0644
 8539TIP3    H147108   3.446   6.520   2.026  0.3281  0.9553  1.0731
 8539TIP3    H247109   3.346   6.580   2.123 -1.3100 -0.7084  0.4438
 8540TIP3   OH247110   4.451   1.836   1.878  0.2969  0.4542 -0.0983
 8540TIP3    H147111   4.500   1.756   1.896 -1.2022 -0.2832  0.7911
 8540TIP3    H247112   4.501   1.880   1.809  1.1673 -1.2116 -0.5429
 8541TIP3   OH247113   0.922   2.989  13.020 -0.2716  0.5995 -0.4515
 8541TIP3    H147114   0.981   2.978  13.095 -1.1961  1.2490  0.3839
 8541TIP3    H247115   0.914   2.902  12.982 -0.0928  0.1976  0.4327
 8542TIP3   OH247116   6.180   4.915  14.078 -0.0446  0.2669  0.4165
 8542TIP3    H147117   6.249   4.878  14.133 -0.4489 -0.4134  0.4734
 8542TIP3    H247118   6.176   4.856  14.002  0.0979  0.8556 -0.0465
 8543TIP3   OH247119   4.822   2.801   5.429  0.5777 -0.3176 -0.0558
 8543TIP3    H147120   4.751   2.811   5.492  1.3374 -1.5245  1.0263
 8543TIP3    H247121   4.784   2.748   5.358  0.2622 -0.5586  0.2910
 8544TIP3   OH247122   4.817   3.436  16.368  0.0060 -0.2450  0.3125
 8544TIP3    H147123   4.883   3.374  16.398  1.1859 -0.6094 -2.8910
 8544TIP3    H247124   4.858   3.522  16.378  1.1718 -0.4935 -2.0243
 8545TIP3   OH247125   3.830   3.723   3.666  0.2977  0.2056  0.5180
 8545TIP3    H147126   3.832   3.723   3.762 -0.3280 -0.1553  0.5350
 8545TIP3    H247127   3.753   3.776   3.644 -0.7226 -1.3654  0.2578
 8546TIP3   OH247128   1.927   3.927  16.626  0.1560  0.0872 -0.1985
 8546TIP3    H147129   2.013   3.919  16.669 -0.1669  1.9616  0.8417
 8546TIP3    H247130   1.933   4.008  16.576 -1.9930  1.8756  2.2908
 8547TIP3   OH247131   6.689   3.607  12.292 -0.8103 -0.2623  0.4771
 8547TIP3    H147132   6.652   3.656  12.365  1.9475  0.2243  1.5945
 8547TIP3    H247133   6.685   3.516  12.320  1.7645  0.0515  1.9961
 8548TIP3   OH247134   4.371   2.783   6.109 -0.3284 -0.3139 -0.2006
 8548TIP3    H147135   4.453   2.811   6.069 -0.7549  1.3653  0.0836
 8548TIP3    H247136   4.305   2.796   6.041 -0.4821 -1.0093 -0.1950
 8549TIP3   OH247137   1.977   0.017   0.210  0.3230  0.4532  0.5467
 8549TIP3    H147138   2.044  -0.052   0.215  0.7132  0.7722 -0.1722
 8549TIP3    H247139   1.901  -0.020   0.255 -0.4291 -1.5927 -2.2087
 8550TIP3   OH247140   6.262   3.818  13.959  0.1627  0.4146 -0.1045
 8550TIP3    H147141   6.313   3.893  13.928  1.5044  1.0330  3.3106
 8550TIP3    H247142   6.171   3.840  13.940  0.7512  1.7232 -1.4628
 8551TIP3   OH247143   1.745   5.429  16.377  0.3553  0.3110  0.0013
 8551TIP3    H147144   1.815   5.442  16.313  0.9123  1.9177  0.8862
 8551TIP3    H247145   1.730   5.517  16.413 -1.2517 -0.2423  0.7130
 8552TIP3   OH247146   3.296   0.206  14.807 -0.2165  0.0600 -0.0872
 8552TIP3    H147147   3.209   0.239  14.783 -0.0233 -0.7190 -1.9997
 8552TIP3    H247148   3.289   0.111  14.800  1.1311  0.0439 -1.5915
 8553TIP3   OH247149   5.193   6.534   0.259  0.1551 -0.5525 -0.3753
 8553TIP3    H147150   5.118   6.582   0.224 -0.7101 -1.7287 -0.1501
 8553TIP3    H247151   5.157   6.478   0.327  1.1168 -1.6978 -0.7904
 8554TIP3   OH247152   4.115   2.497  11.718 -0.4504 -0.1631  0.3773
 8554TIP3    H147153   4.115   2.557  11.643 -3.8382 -0.3077  0.1607
 8554TIP3    H247154   4.104   2.553  11.794 -0.6458 -0.2825  0.4380
 8555TIP3   OH247155   1.342   0.739  13.012 -0.1602  0.0999  0.2631
 8555TIP3    H147156   1.251   0.734  12.982  0.5402  1.0802 -2.1183
 8555TIP3    H247157   1.349   0.825  13.053  0.2895  1.0643 -1.7538
 8556TIP3   OH247158   6.209   0.442  11.385  0.0063  0.3334  0.2401
 8556TIP3    H147159   6.203   0.414  11.294  0.2657  1.3997 -0.1132
 8556TIP3    H247160   6.300   0.424  11.409 -0.4462 -1.3418  0.7640
 8557TIP3   OH247161   0.223   4.968  16.659 -0.1138 -0.5460 -0.0911
 8557TIP3    H147162   0.159   4.950  16.727 -1.0581 -0.7725 -1.0389
 8557TIP3    H247163   0.173   5.006  16.587  0.7166 -1.2436 -1.0605
 8558TIP3   OH247164   3.722   2.498   3.669  0.6385 -0.0376 -0.0277
 8558TIP3    H147165   3.649   2.444   3.639  1.3869 -1.3881  0.5195
 8558TIP3    H247166   3.757   2.449   3.744  2.7229  0.0893 -0.9153
 8559TIP3   OH247167   3.325   3.708   4.969  0.3817  0.2908  0.2673
 8559TIP3    H147168   3.369   3.671   4.893  3.4266  0.1935  1.9731
 8559TIP3    H247169   3.279   3.785   4.936  0.4067 -0.6041 -1.9048
 8560TIP3   OH247170   5.938   3.595  10.426  0.1941  0.7549 -0.1793
 8560TIP3    H147171   6.019   3.555  10.395  0.3850  1.0798 -0.1053
 8560TIP3    H247172   5.925   3.671  10.369 -1.3026 -0.6136 -1.7160
 8561TIP3   OH247173   2.015   6.572  15.059  0.4106 -0.1024 -0.1559
 8561TIP3    H147174   2.014   6.610  14.972  0.3952 -0.1071 -0.1575
 8561TIP3    H247175   1.993   6.479  15.045  0.7447 -0.1778 -0.1827
 8562TIP3   OH247176   0.309   0.437   6.247 -0.1334  0.3045  0.6255
 8562TIP3    H147177   0.391   0.431   6.296  0.3175  1.2623  0.0017
 8562TIP3    H247178   0.253   0.369   6.285  1.6032 -1.6375 -0.2296
 8563TIP3   OH247179   4.515   3.185  16.096 -0.1496  0.0585  0.1313
 8563TIP3    H147180   4.568   3.181  16.176 -0.9948  0.0830  0.6896
 8563TIP3    H247181   4.561   3.248  16.040  0.0720  0.5607  0.8681
 8564TIP3   OH247182   2.104   1.331  15.171  0.5816 -0.0751 -0.2880
 8564TIP3    H147183   2.077   1.245  15.200 -0.2831  0.4910  0.5927
 8564TIP3    H247184   2.030   1.388  15.190  0.4506  0.5455 -2.4805
 8565TIP3   OH247185   2.117   2.340   1.693  0.0241 -0.0726  0.0549
 8565TIP3    H147186   2.107   2.245   1.695  1.4115 -0.2158  1.2956
 8565TIP3    H247187   2.096   2.365   1.603  1.9536 -1.8407 -0.9212
 8566TIP3   OH247188   4.658   1.171   6.104 -0.3263  0.4487  0.0870
 8566TIP3    H147189   4.705   1.221   6.171 -0.6339  0.2627  0.4433
 8566TIP3    H247190   4.727   1.134   6.049 -0.0934  1.0836 -0.0527
 8567TIP3   OH247191   5.445   3.905  10.672 -0.3293 -0.4201 -0.0315
 8567TIP3    H147192   5.405   3.938  10.592  1.1071 -1.8629 -1.3672
 8567TIP3    H247193   5.384   3.931  10.742 -1.2949  1.3738 -1.4927
 8568TIP3   OH247194   4.175   0.129  12.697  0.2039  0.8994 -0.5185
 8568TIP3    H147195   4.208   0.171  12.617 -0.3412 -1.1291 -1.8443
 8568TIP3    H247196   4.080   0.141  12.692  0.0550 -0.3445 -0.8527
 8569TIP3   OH247197   5.651   3.688   2.809 -0.2582  0.7637  0.3530
 8569TIP3    H147198   5.582   3.754   2.801  0.5988  1.4467 -1.6361
 8569TIP3    H247199   5.733   3.737   2.801  0.4223 -0.3136  0.6017
 8570TIP3   OH247200   5.463   2.937   1.404 -0.6880 -0.1982 -0.2378
 8570TIP3    H147201   5.449   2.924   1.310 -1.7319 -1.5224  0.0729
 8570TIP3    H247202   5.464   2.848   1.440 -1.0397  0.3249  1.0948
 8571TIP3   OH247203   6.024   4.378  11.728 -0.0277 -0.3067  0.1845
 8571TIP3    H147204   6.012   4.439  11.654  2.8412  0.4552  0.2916
 8571TIP3    H247205   6.005   4.292  11.691  0.3411  0.1838 -1.1867
 8572TIP3   OH247206   0.600   2.067  16.371 -0.0479 -0.2609 -0.5820
 8572TIP3    H147207   0.617   2.073  16.277 -0.4706  1.0425 -0.5889
 8572TIP3    H247208   0.679   2.103  16.411  0.4058 -1.4249 -0.4152
 8573TIP3   OH247209   1.289   2.659  13.904  0.0948 -0.0291 -0.2362
 8573TIP3    H147210   1.247   2.631  13.822  1.6320 -1.3413 -0.6072
 8573TIP3    H247211   1.382   2.648  13.888  0.3779 -1.3668  2.0768
 8574TIP3   OH247212   5.447   0.566   3.975  0.2629 -1.1059 -0.3686
 8574TIP3    H147213   5.504   0.527   4.042  0.2316  1.6177  1.3301
 8574TIP3    H247214   5.367   0.513   3.978  0.2132 -0.9398  1.8640
 8575TIP3   OH247215   1.077   3.315   3.680  0.1736  0.1419 -0.0174
 8575TIP3    H147216   0.987   3.296   3.707 -0.1033  1.1340 -0.2367
 8575TIP3    H247217   1.111   3.230   3.650 -0.0796 -0.6016  1.7524
 8576TIP3   OH247218   0.436   5.891  15.754  1.1024 -0.7467 -0.1658
 8576TIP3    H147219   0.437   5.964  15.816 -0.8592 -2.2268  1.6700
 8576TIP3    H247220   0.495   5.919  15.684  1.9510  1.7491  1.4583
 8577TIP3   OH247221   1.058   1.722  13.294  0.6185  0.0202 -0.2898
 8577TIP3    H147222   1.022   1.692  13.210  0.6546  0.1813 -0.3624
 8577TIP3    H247223   1.096   1.807  13.275  1.0882 -0.1723 -0.2259
 8578TIP3   OH247224   3.266   6.643  11.352 -0.4128 -0.1803 -0.3129
 8578TIP3    H147225   3.224   6.612  11.433 -0.9955  0.5828 -0.3074
 8578TIP3    H247226   3.359   6.650  11.374 -0.3044 -1.7237 -0.2642
 8579TIP3   OH247227   5.355   4.341  16.708  0.0438  0.0205  0.4471
 8579TIP3    H147228   5.405   4.404  16.656  0.9404 -0.0993  1.1510
 8579TIP3    H247229   5.399   4.339  16.793  0.1054 -1.6501  0.3914
 8580TIP3   OH247230   0.314   0.513   2.617  0.3235  0.1791  0.2202
 8580TIP3    H147231   0.275   0.554   2.540  0.6357  0.6085  0.2859
 8580TIP3    H247232   0.246   0.456   2.652  0.5756 -0.9240 -1.0511
 8581TIP3   OH247233   2.206   2.959  15.508 -0.1836 -0.0591 -0.4431
 8581TIP3    H147234   2.294   2.956  15.547  0.2222  0.1659 -1.3330
 8581TIP3    H247235   2.172   2.870  15.519 -0.3952  0.1898  1.1315
 8582TIP3   OH247236   3.025   2.203   0.812  0.8376 -0.4862  0.1630
 8582TIP3    H147237   3.035   2.162   0.727  0.6223  0.5892 -0.3928
 8582TIP3    H247238   3.106   2.253   0.824 -1.0114  3.1619 -1.5425
 8583TIP3   OH247239   5.143   5.081  17.063 -0.2038 -0.3071  0.0811
 8583TIP3    H147240   5.205   5.014  17.091  0.0278 -0.4723 -0.8092
 8583TIP3    H247241   5.182   5.163  17.093 -0.6369 -0.5923  1.4274
 8584TIP3   OH247242   5.863   1.108  14.113  0.3363 -0.1178  0.0012
 8584TIP3    H147243   5.773   1.089  14.139  0.4618 -1.1677 -0.2972
 8584TIP3    H247244   5.907   1.134  14.194 -0.9012  3.1330 -0.2912
 8585TIP3   OH247245   6.121   4.169  15.862  0.3648  0.5215 -0.1351
 8585TIP3    H147246   6.060   4.242  15.871  0.0064  0.1663  0.3059
 8585TIP3    H247247   6.094   4.106  15.929  0.5451 -0.1016 -0.6355
 8586TIP3   OH247248   2.030   2.240  12.299 -0.3641 -0.0408  0.2750
 8586TIP3    H147249   1.970   2.309  12.271 -0.7596 -0.0876  0.9980
 8586TIP3    H247250   2.009   2.226  12.391 -0.8186 -1.6406 -0.0488
 8587TIP3   OH247251   3.761   6.624  17.175  0.0667  0.4543  0.1240
 8587TIP3    H147252   3.739   6.536  17.204 -1.3931  1.5002  2.2911
 8587TIP3    H247253   3.854   6.618  17.150 -0.3249 -1.9519 -0.9590
 8588TIP3   OH247254   4.348   1.561   2.329  0.3143 -0.5126  0.3935
 8588TIP3    H147255   4.364   1.489   2.269 -0.5944 -0.4622  0.0770
 8588TIP3    H247256   4.305   1.521   2.405 -0.6385 -0.2382  0.0036
 8589TIP3   OH247257   3.095   2.593   4.459  0.0363 -0.0937  0.1576
 8589TIP3    H147258   3.109   2.541   4.379  1.5576  0.7848 -0.1544
 8589TIP3    H247259   3.057   2.675   4.428  2.8892  1.2493  0.0359
 8590TIP3   OH247260   0.935   4.434   4.017 -0.5709 -0.2888  0.1532
 8590TIP3    H147261   0.891   4.413   4.099 -1.1273  0.6406  0.1085
 8590TIP3    H247262   1.024   4.458   4.043 -1.5260  2.7636  0.8352
 8591TIP3   OH247263   6.376   4.588   0.416  0.2397 -0.3146  0.3874
 8591TIP3    H147264   6.281   4.573   0.412 -0.1491  0.7913  3.6963
 8591TIP3    H247265   6.389   4.672   0.373  0.1388 -1.7658 -2.5954
 8592TIP3   OH247266   4.652   3.608  16.968 -0.5329 -0.0563  0.1077
 8592TIP3    H147267   4.667   3.605  17.062 -0.8124  2.7229  0.2617
 8592TIP3    H247268   4.735   3.582  16.929 -0.7563 -2.3808  1.0891
 8593TIP3   OH247269   4.121   0.871  14.773 -0.1951 -0.3226  0.4422
 8593TIP3    H147270   4.107   0.942  14.836  0.8793  0.2672  0.0142
 8593TIP3    H247271   4.210   0.841  14.790 -0.2445 -0.8145 -0.1518
 8594TIP3   OH247272   6.233   3.932   2.418  0.5486  0.4803 -0.3352
 8594TIP3    H147273   6.203   3.853   2.372 -1.2021  0.2580  1.1052
 8594TIP3    H247274   6.244   3.997   2.349 -1.2204 -0.0853 -1.1971
 8595TIP3   OH247275   2.438   0.243   4.033 -0.5578  0.4872 -0.2406
 8595TIP3    H147276   2.421   0.336   4.021  1.7609  0.7205 -1.8817
 8595TIP3    H247277   2.399   0.201   3.957 -0.1851  0.2747 -0.3144
 8596TIP3   OH247278   5.286   6.582   4.101 -0.3963  0.2855  0.0641
 8596TIP3    H147279   5.228   6.581   4.177 -1.3242  1.7478 -0.6130
 8596TIP3    H247280   5.362   6.634   4.129 -0.5174  0.4206  0.1376
 8597TIP3   OH247281   5.722   0.424  14.166 -0.5231  0.0195 -0.0937
 8597TIP3    H147282   5.748   0.504  14.121 -0.1514 -0.4835 -0.7992
 8597TIP3    H247283   5.734   0.442  14.259 -3.4262  1.8658 -0.0051
 8598TIP3   OH247284   0.594   3.342   4.725 -0.0354  0.2139 -0.2835
 8598TIP3    H147285   0.645   3.262   4.737  0.6684  0.2475 -2.7839
 8598TIP3    H247286   0.532   3.342   4.798  0.0176 -2.5585 -0.1826
 8599TIP3   OH247287   5.219   4.631  15.394  0.1297 -0.3546  0.7978
 8599TIP3    H147288   5.231   4.725  15.382  0.4757 -0.6688 -1.4559
 8599TIP3    H247289   5.303   4.601  15.429 -0.5707  0.4180  3.2671
 8600TIP3   OH247290   2.171   2.607   0.520  0.5337 -0.4320  0.4468
 8600TIP3    H147291   2.089   2.560   0.505 -0.4017  1.2971  0.0531
 8600TIP3    H247292   2.239   2.551   0.483 -0.7446 -0.6613 -1.6026
 8601TIP3   OH247293   5.828   5.049  11.454  0.3121  0.2502 -0.0934
 8601TIP3    H147294   5.734   5.031  11.451  0.2305  0.4706  0.8873
 8601TIP3    H247295   5.833   5.145  11.462  0.6024  0.1700  0.6744
 8602TIP3   OH247296   0.572   4.024  16.565  0.3713 -0.3336  0.0149
 8602TIP3    H147297   0.638   3.968  16.524  0.8293  1.0135 -1.1032
 8602TIP3    H247298   0.598   4.113  16.543 -0.9776  0.2909  0.8515
 8603TIP3   OH247299   3.810   4.348   2.974  0.3048  0.2245  0.3638
 8603TIP3    H147300   3.859   4.378   3.050 -2.3008  1.3196  1.6659
 8603TIP3    H247301   3.725   4.392   2.980  0.2546  0.9045 -3.5499
 8604TIP3   OH247302   2.167   2.461   0.049  0.5529  0.1455  0.6931
 8604TIP3    H147303   2.072   2.451   0.041  0.5677  0.2482  0.3617
 8604TIP3    H247304   2.202   2.424  -0.032  0.7638  0.5682  0.5910
 8605TIP3   OH247305   3.193   6.675  16.945  0.4499 -0.4659 -0.2725
 8605TIP3    H147306   3.165   6.596  16.990  0.5139  0.8758  2.2010
 8605TIP3    H247307   3.286   6.682  16.963  0.4733  0.1160 -0.5748
 8606TIP3   OH247308   5.867   4.117  11.680  0.4461  0.3012  0.4691
 8606TIP3    H147309   5.816   4.055  11.628  0.1723 -0.0014  1.0895
 8606TIP3    H247310   5.952   4.121  11.636 -0.0556  0.6888 -0.4726
 8607TIP3   OH247311   3.019   5.708   2.613 -0.0982  0.0539  0.3628
 8607TIP3    H147312   2.994   5.678   2.700  0.9341  1.6227  1.2300
 8607TIP3    H247313   3.106   5.746   2.624 -0.7768  2.0836 -0.9347
 8608TIP3   OH247314   5.338   5.756  16.660  0.1541 -0.3880 -0.2455
 8608TIP3    H147315   5.413   5.771  16.718 -0.7437  0.4244  0.7371
 8608TIP3    H247316   5.377   5.741  16.574  1.4378  0.2130  0.2090
 8609TIP3   OH247317   5.666   0.391  13.727 -0.4537  0.1762  0.0243
 8609TIP3    H147318   5.626   0.314  13.766 -0.9548  1.3921  2.0211
 8609TIP3    H247319   5.759   0.369  13.720 -0.4544 -0.3293  1.3809
 8610TIP3   OH247320   2.486   6.699   4.541  0.2235  0.2583  0.3608
 8610TIP3    H147321   2.511   6.791   4.528  2.6057 -0.3818  0.3223
 8610TIP3    H247322   2.520   6.654   4.464 -1.0698 -0.6507  0.3118
 8611TIP3   OH247323   2.803   2.671  11.957 -0.0304  0.0564 -0.1491
 8611TIP3    H147324   2.767   2.754  11.925 -1.0771 -1.7232 -3.8513
 8611TIP3    H247325   2.727   2.624  11.991  0.2791 -0.1583  0.2486
 8612TIP3   OH247326   2.525   3.761   2.192  0.0875  0.2589 -0.2899
 8612TIP3    H147327   2.497   3.831   2.252  1.1084  0.8453 -0.4728
 8612TIP3    H247328   2.577   3.703   2.247 -2.7902 -1.7213  0.4287
 8613TIP3   OH247329   4.699   5.872   5.462 -0.1855 -0.1499 -0.0803
 8613TIP3    H147330   4.779   5.924   5.460 -0.7480  0.7151 -0.4226
 8613TIP3    H247331   4.661   5.889   5.548 -0.6481  0.4436 -0.3949
 8614TIP3   OH247332   1.891   4.122   4.943  0.6491  0.1319  0.4936
 8614TIP3    H147333   1.858   4.200   4.897  0.5676  0.1218  0.5343
 8614TIP3    H247334   1.814   4.087   4.988  0.2848 -0.9901 -0.9500
 8615TIP3   OH247335   1.655   3.752  11.922 -0.0251  0.1811  0.0985
 8615TIP3    H147336   1.736   3.753  11.974 -0.7400 -0.6214  1.2388
 8615TIP3    H247337   1.642   3.844  11.898  0.8099  0.4273  0.5445
 8616TIP3   OH247338   5.975   5.354  15.260  0.3752 -0.5332 -0.2685
 8616TIP3    H147339   6.040   5.297  15.302  3.2896  2.6935 -0.1745
 8616TIP3    H247340   5.955   5.311  15.177  2.4547 -1.7543 -0.1665
 8617TIP3   OH247341   0.354   0.277   0.310 -0.2548 -0.3606 -0.3811
 8617TIP3    H147342   0.441   0.237   0.309 -0.2650 -0.3806 -1.1182
 8617TIP3    H247343   0.361   0.351   0.250 -0.7028 -0.2690 -0.3244
 8618TIP3   OH247344   2.807   5.652  15.677 -0.0062  0.1798  0.0031
 8618TIP3    H147345   2.872   5.602  15.726 -0.6094 -1.5925 -0.9487
 8618TIP3    H247346   2.804   5.611  15.591 -1.2585  1.2153 -0.4752
 8619TIP3   OH247347   4.959   4.107   1.844 -0.2284 -0.4500 -1.0082
 8619TIP3    H147348   5.022   4.149   1.787  1.4109 -1.1827  0.2357
 8619TIP3    H247349   4.995   4.019   1.859  1.6237  1.0556  4.5205
 8620TIP3   OH247350   1.050   2.705   3.971 -0.6843  0.0930  0.3104
 8620TIP3    H147351   1.078   2.614   3.979  4.2622  1.4415  0.1214
 8620TIP3    H247352   1.091   2.749   4.046 -1.5148  2.4848 -0.6012
 8621TIP3   OH247353   2.288   2.572   5.326  0.2437 -0.0013  0.1474
 8621TIP3    H147354   2.308   2.649   5.380  0.4431  0.0680 -0.0219
 8621TIP3    H247355   2.374   2.540   5.297  0.3481 -1.8964  2.4324
 8622TIP3   OH247356   4.222   5.144   5.342 -0.5735  0.0500  0.1047
 8622TIP3    H147357   4.193   5.081   5.408 -2.3871  0.5980 -0.1380
 8622TIP3    H247358   4.250   5.090   5.268 -0.6278 -0.5038  0.4869
 8623TIP3   OH247359   4.779   3.900   1.656 -0.1563 -0.0709 -0.2659
 8623TIP3    H147360   4.779   3.807   1.634  1.1817 -0.5759  1.7497
 8623TIP3    H247361   4.739   3.905   1.742  2.3492  0.8604  0.9153
 8624TIP3   OH247362   1.325   3.258   5.728 -0.7450 -0.2813 -0.0517
 8624TIP3    H147363   1.407   3.210   5.728 -0.5725 -0.0540  1.8514
 8624TIP3    H247364   1.277   3.225   5.653 -0.9158 -3.9190  1.5644
 8625TIP3   OH247365   2.865   4.782  12.083  0.5356 -0.0627 -0.0114
 8625TIP3    H147366   2.889   4.853  12.024 -0.4663  0.8967  0.7094
 8625TIP3    H247367   2.769   4.782  12.082  0.5128 -2.0426 -0.7553
 8626TIP3   OH247368   3.693   5.428  12.058  0.4907 -0.2778  0.1470
 8626TIP3    H147369   3.751   5.491  12.100  0.2950  0.1686 -0.2411
 8626TIP3    H247370   3.719   5.343  12.093  0.6760  0.0313  0.7710
 8627TIP3   OH247371   1.244   2.589  13.342  0.1054 -0.4486  0.3854
 8627TIP3    H147372   1.172   2.647  13.317 -0.1940 -0.9649  0.0345
 8627TIP3    H247373   1.206   2.501  13.338  0.7847 -0.7318  0.0869
 8628TIP3   OH247374   2.473   2.095   0.875  0.6466  0.5786 -0.0289
 8628TIP3    H147375   2.547   2.155   0.863  0.6606  0.5103 -0.2814
 8628TIP3    H247376   2.514   2.012   0.899  0.6363  0.6214  0.1388
 8629TIP3   OH247377   1.795   3.010   1.925  0.7100  0.3043  0.7545
 8629TIP3    H147378   1.821   3.066   1.851 -0.0634  0.0943  0.3116
 8629TIP3    H247379   1.726   3.060   1.969 -2.8055 -1.9244 -1.9486
 8630TIP3   OH247380   1.514   2.823   1.765  0.2924  0.4661  0.3656
 8630TIP3    H147381   1.605   2.822   1.736  1.0224 -2.0636  2.5603
 8630TIP3    H247382   1.475   2.746   1.726 -1.2473  2.1134 -1.4416
 8631TIP3   OH247383   5.055   5.035  14.483  0.8932 -0.4845 -0.4719
 8631TIP3    H147384   5.008   4.951  14.486 -0.7221  0.4289  0.4447
 8631TIP3    H247385   5.090   5.046  14.571  0.6037  0.0807 -0.4260
 8632TIP3   OH247386   1.244   3.298   2.232  0.2384 -0.9579  0.1351
 8632TIP3    H147387   1.310   3.290   2.301 -1.8933 -0.2931  2.3080
 8632TIP3    H247388   1.293   3.324   2.154  2.6784 -1.6682  1.4026
 8633TIP3   OH247389   0.584   2.086  11.093 -0.1774 -0.1896  0.7480
 8633TIP3    H147390   0.530   2.149  11.044  0.2700 -0.0384  0.4340
 8633TIP3    H247391   0.592   2.124  11.180 -0.9682 -0.4495  0.9336
 8634TIP3   OH247392   4.475   6.141  12.422  0.2878 -0.0661  0.6727
 8634TIP3    H147393   4.505   6.203  12.489 -0.0956  1.2899 -0.3922
 8634TIP3    H247394   4.554   6.094  12.395  0.4984 -0.3993  1.8377
 8635TIP3   OH247395   0.582   1.281  16.533 -0.5522  0.2490  0.6738
 8635TIP3    H147396   0.542   1.358  16.493 -1.5736  0.5768  2.2882
 8635TIP3    H247397   0.584   1.216  16.462 -0.9838  1.2894 -0.3111
 8636TIP3   OH247398   4.387   2.982  15.939 -0.0950  0.5266  0.0312
 8636TIP3    H147399   4.419   3.017  16.022  2.2899 -0.3119 -0.4864
 8636TIP3    H247400   4.466   2.971  15.886 -1.5444  0.7402 -2.2437
 8637TIP3   OH247401   5.194   6.024   2.536  0.2585  0.3629 -0.0869
 8637TIP3    H147402   5.244   5.994   2.461 -2.3835 -0.9588 -1.3821
 8637TIP3    H247403   5.136   6.092   2.500  0.9280  1.7169  1.3342
 8638TIP3   OH247404   4.983   4.603   5.105  0.3002  0.1467  0.2035
 8638TIP3    H147405   5.051   4.580   5.169  0.2609 -0.1255  0.1466
 8638TIP3    H247406   4.910   4.634   5.158  1.0825  2.0534  0.1962
 8639TIP3   OH247407   2.703   5.507   3.742  0.1373  0.3186  0.2454
 8639TIP3    H147408   2.630   5.537   3.796 -0.4779  1.7191 -1.3384
 8639TIP3    H247409   2.667   5.432   3.695 -0.2835  1.0046 -0.5302
 8640TIP3   OH247410   5.015   0.720   2.890  0.2679 -0.5103  0.1079
 8640TIP3    H147411   5.055   0.805   2.873  0.5456 -0.7169 -0.2987
 8640TIP3    H247412   5.085   0.657   2.873 -1.1117 -1.0912 -3.8441
 8641TIP3   OH247413   6.244   3.306   4.877 -0.4784 -0.1051  0.2764
 8641TIP3    H147414   6.225   3.277   4.788 -1.7975  0.7876  0.2501
 8641TIP3    H247415   6.170   3.275   4.929 -0.3691  0.5307  0.8199
 8642TIP3   OH247416   4.843   4.737  13.053  0.7467  0.1801  0.1011
 8642TIP3    H147417   4.922   4.747  13.107 -0.6460  2.0018  1.8446
 8642TIP3    H247418   4.786   4.680  13.104 -0.5092  1.7611  0.4832
 8643TIP3   OH247419   3.806   3.338   2.769 -0.0567  0.0097  0.1342
 8643TIP3    H147420   3.754   3.330   2.688 -0.6608  2.6058  0.2281
 8643TIP3    H247421   3.743   3.365   2.835  0.5755 -1.4287  1.3682
 8644TIP3   OH247422   2.623   5.703  12.401 -0.1944  0.3762 -0.2247
 8644TIP3    H147423   2.705   5.709  12.352 -0.0510  0.4827  0.0297
 8644TIP3    H247424   2.589   5.616  12.380 -1.1777  1.1940 -2.1713
 8645TIP3   OH247425   0.956   3.938   4.037  0.9745  0.2990 -0.4420
 8645TIP3    H147426   0.959   3.845   4.058  0.6661  0.6197  1.0581
 8645TIP3    H247427   0.877   3.970   4.079  1.2531  1.3143 -0.6680
 8646TIP3   OH247428   3.957   0.702   0.831 -0.2381  0.1500  0.1227
 8646TIP3    H147429   3.991   0.639   0.895 -0.0554  0.9097  0.7798
 8646TIP3    H247430   3.898   0.650   0.776  1.2251 -0.9799 -0.4191
 8647TIP3   OH247431   4.785   3.711   4.762  0.6189 -0.0793 -0.0520
 8647TIP3    H147432   4.865   3.659   4.750  0.4984  0.0981 -1.7673
 8647TIP3    H247433   4.725   3.679   4.694  0.3782  1.9960 -0.8604
 8648TIP3   OH247434   0.875   0.267   6.062 -0.0470  0.0159 -0.5820
 8648TIP3    H147435   0.836   0.312   6.137 -0.1416  1.6205 -1.5495
 8648TIP3    H247436   0.956   0.228   6.096  0.1399  1.1054  0.2550
 8649TIP3   OH247437   5.670   6.055  15.656 -0.6570  0.1860  0.5681
 8649TIP3    H147438   5.659   5.962  15.633 -0.7814 -0.0430  1.5442
 8649TIP3    H247439   5.647   6.060  15.749  1.6626  0.7817  1.1312
 8650TIP3   OH247440   5.499   4.730  12.142  0.6678 -0.3895  0.3804
 8650TIP3    H147441   5.420   4.711  12.192 -0.0972 -2.7682 -1.6516
 8650TIP3    H247442   5.472   4.796  12.078  0.7169 -0.0661  0.6920
 8651TIP3   OH247443   0.997   4.521   0.262 -0.3567  0.3992  0.2682
 8651TIP3    H147444   1.056   4.445   0.258  0.8379  1.3702 -0.8116
 8651TIP3    H247445   0.985   4.547   0.171 -2.3776  0.3058  0.4804
 8652TIP3   OH247446   6.421   6.460  13.165  0.5031 -0.1080 -0.1440
 8652TIP3    H147447   6.452   6.526  13.228 -1.6657  0.6843  0.1172
 8652TIP3    H247448   6.475   6.383  13.183  1.2978  0.7543  1.3059
 8653TIP3   OH247449   6.315   4.766   4.000  0.0636  0.1383 -0.3173
 8653TIP3    H147450   6.305   4.774   4.095  0.0712 -0.2990 -0.2806
 8653TIP3    H247451   6.276   4.681   3.978  1.1090 -0.2891 -0.5533
 8654TIP3   OH247452   4.143   1.342   3.425 -0.5913  0.5976 -0.1199
 8654TIP3    H147453   4.067   1.304   3.383 -0.5888 -0.4768  0.8503
 8654TIP3    H247454   4.213   1.333   3.360 -0.8424 -0.0803 -0.2960
 8655TIP3   OH247455   5.583   0.999   3.285 -0.6736 -0.1644  0.4868
 8655TIP3    H147456   5.618   1.046   3.209  0.9228 -0.4794  1.0132
 8655TIP3    H247457   5.615   1.048   3.360  2.2616 -2.9023  1.0870
 8656TIP3   OH247458   4.982   3.258   2.084 -0.3850 -0.4238 -0.4384
 8656TIP3    H147459   5.002   3.202   2.009 -0.6990 -0.7504 -0.2799
 8656TIP3    H247460   5.016   3.211   2.160  1.7986  0.8738 -0.5796
 8657TIP3   OH247461   5.990   1.393   2.824 -0.0867  0.5836  0.6257
 8657TIP3    H147462   6.076   1.354   2.810 -0.5107 -0.0044 -0.3896
 8657TIP3    H247463   5.974   1.444   2.745 -1.4076 -0.7161  0.0233
 8658TIP3   OH247464   3.268   4.533  15.402 -0.2795 -0.0211  0.8532
 8658TIP3    H147465   3.248   4.602  15.338 -0.5036 -0.4503  0.4608
 8658TIP3    H247466   3.240   4.570  15.486 -0.5149  0.3193  0.6271
 8659TIP3   OH247467   1.565   1.991  15.833  1.0241  0.2272 -0.2045
 8659TIP3    H147468   1.620   1.967  15.908 -0.0170 -1.1828  0.1278
 8659TIP3    H247469   1.621   1.974  15.757  2.0129  1.4653  0.2307
 8660TIP3   OH247470   6.282   0.430  14.592  0.1098  0.6114 -0.7484
 8660TIP3    H147471   6.369   0.389  14.593 -0.2434 -0.1419  2.0309
 8660TIP3    H247472   6.222   0.359  14.617 -1.1811  1.3995 -1.5887
 8661TIP3   OH247473   2.764   2.444  12.772  0.1706  0.3238  0.4781
 8661TIP3    H147474   2.795   2.459  12.683 -0.7396  1.9864  0.4290
 8661TIP3    H247475   2.704   2.370  12.764  0.0373  0.5094 -0.3030
 8662TIP3   OH247476   1.051   3.966   3.201 -0.9976  0.3843  0.1145
 8662TIP3    H147477   1.145   3.964   3.185 -1.1859  1.1590 -1.1168
 8662TIP3    H247478   1.029   3.875   3.224  0.1419  0.3330  1.0208
 8663TIP3   OH247479   6.680   4.011  12.657  0.4140 -0.1210  0.6985
 8663TIP3    H147480   6.660   3.939  12.716 -0.0215  0.3814  1.1700
 8663TIP3    H247481   6.693   3.970  12.572 -1.8334 -0.5581  0.5424
 8664TIP3   OH247482   3.936   1.783   2.346  0.0393  0.7713 -0.0816
 8664TIP3    H147483   3.869   1.837   2.387  0.9109 -0.5219  3.1600
 8664TIP3    H247484   3.887   1.706   2.314 -0.0692 -0.2582  2.4359
 8665TIP3   OH247485   1.622   1.092  13.907  0.1121 -0.7171 -1.0009
 8665TIP3    H147486   1.702   1.112  13.857 -0.2051 -2.1401 -2.1240
 8665TIP3    H247487   1.565   1.048  13.844 -1.0083 -0.9671  0.1688
 8666TIP3   OH247488   3.373   6.118  16.405  0.6988  0.3978 -0.0467
 8666TIP3    H147489   3.314   6.090  16.335  0.0967  0.4058  0.4615
 8666TIP3    H247490   3.419   6.193  16.368  0.4200  0.3713 -0.4536
 8667TIP3   OH247491   4.745   3.191  10.752  0.1204 -0.6487 -0.0389
 8667TIP3    H147492   4.799   3.114  10.773 -0.4062 -1.1280 -0.4151
 8667TIP3    H247493   4.670   3.155  10.704 -0.0552  0.1225 -0.3458
 8668TIP3   OH247494   4.148   4.370   5.801  0.3047  0.4827  0.2032
 8668TIP3    H147495   4.057   4.396   5.789  0.0122 -0.4869  0.2654
 8668TIP3    H247496   4.156   4.351   5.894  0.1746 -0.8622 -0.0447
 8669TIP3   OH247497   1.717   4.858   3.596  0.7511 -0.0968 -0.1013
 8669TIP3    H147498   1.716   4.763   3.591  1.2394  0.0238 -3.2915
 8669TIP3    H247499   1.630   4.885   3.569  0.4155  0.3607  1.3963
 8670TIP3   OH247500   3.803   1.484   3.558  0.4027  0.2103 -0.3053
 8670TIP3    H147501   3.849   1.562   3.590 -1.7325  0.9131  1.1378
 8670TIP3    H247502   3.777   1.437   3.637 -0.9746 -0.3937 -1.0987
 8671TIP3   OH247503   5.845   0.790   5.854  0.2940 -0.4346  0.5169
 8671TIP3    H147504   5.786   0.730   5.900 -0.3759 -0.1510  0.0403
 8671TIP3    H247505   5.894   0.834   5.924 -1.9522  1.2755  1.0815
 8672TIP3   OH247506   3.276   1.369   4.646  0.0228  0.0404  0.2551
 8672TIP3    H147507   3.226   1.291   4.621  0.1371  0.2089 -0.4970
 8672TIP3    H247508   3.366   1.337   4.656 -0.0239 -0.0276  0.4682
 8673TIP3   OH247509   3.329   4.461   5.762  0.4435  0.7307 -0.7588
 8673TIP3    H147510   3.356   4.553   5.758  2.1174  0.3353  0.7446
 8673TIP3    H247511   3.355   4.432   5.849 -0.3936 -1.0878 -1.0853
 8674TIP3   OH247512   3.541   1.950   2.817 -0.0046 -0.1612  0.3612
 8674TIP3    H147513   3.472   1.887   2.833 -0.1106 -0.3196 -0.6888
 8674TIP3    H247514   3.499   2.021   2.769  0.7348 -0.6713 -1.0718
 8675TIP3   OH247515   4.781   2.158   3.567 -0.3070 -0.1918  0.2187
 8675TIP3    H147516   4.802   2.238   3.615  0.4597 -0.3706  0.1756
 8675TIP3    H247517   4.720   2.112   3.625 -0.3550  0.1823  0.4683
 8676TIP3   OH247518   0.740   6.173   0.317  0.1728 -0.1350  0.0069
 8676TIP3    H147519   0.768   6.204   0.231  0.2831 -2.9676 -1.0218
 8676TIP3    H247520   0.646   6.191   0.319  0.5780  2.1534  0.3089
 8677TIP3   OH247521   1.494   4.704  15.650  0.3552  0.1528  0.6730
 8677TIP3    H147522   1.429   4.774  15.644  0.5539  0.2988  0.1771
 8677TIP3    H247523   1.518   4.686  15.559 -0.6011 -1.4120  0.7134
 8678TIP3   OH247524   5.398   6.436   3.702 -0.0088  0.5159  0.0575
 8678TIP3    H147525   5.333   6.402   3.640  0.1879 -0.4407  0.3740
 8678TIP3    H247526   5.345   6.481   3.768 -0.4516 -1.2718  0.9523
 8679TIP3   OH247527   0.005   1.950  16.765  0.1386  0.0649 -0.3425
 8679TIP3    H147528   0.093   1.964  16.730  0.1217 -1.6931 -1.1494
 8679TIP3    H247529   0.013   1.966  16.859  0.4260  3.8298 -0.9129
 8680TIP3   OH247530   1.044   4.873  14.095  0.9034  0.0426  0.5433
 8680TIP3    H147531   1.067   4.828  14.176  0.0603 -1.6511 -0.1219
 8680TIP3    H247532   1.105   4.838  14.030  0.2535 -0.1582  0.0264
 8681TIP3   OH247533   1.696   2.670  14.619  0.0191  0.1386 -0.2120
 8681TIP3    H147534   1.670   2.655  14.710  1.1520 -0.4007  0.0232
 8681TIP3    H247535   1.635   2.737  14.588 -0.4256  0.2703  0.9226
 8682TIP3   OH247536   5.888   3.254   0.602 -0.2793 -0.8168 -0.1344
 8682TIP3    H147537   5.929   3.322   0.548  0.7269 -1.4528 -0.1828
 8682TIP3    H247538   5.795   3.274   0.599 -0.0793  0.0280 -0.8970
 8683TIP3   OH247539   2.833   4.121  15.649  0.3185 -0.1706 -0.0248
 8683TIP3    H147540   2.782   4.126  15.568  2.1075  2.5142 -1.0708
 8683TIP3    H247541   2.905   4.061  15.629  1.3706  1.3203 -0.8393
 8684TIP3   OH247542   3.185   5.059   5.591  0.2665  0.0415 -0.2939
 8684TIP3    H147543   3.109   5.002   5.590  1.3783 -1.4737 -1.1340
 8684TIP3    H247544   3.222   5.052   5.503  1.7892  0.1626  0.3174
 8685TIP3   OH247545   4.936   0.127   2.613  0.6139  0.3892  0.9118
 8685TIP3    H147546   4.989   0.200   2.646  1.6585  0.2615 -0.4589
 8685TIP3    H247547   4.999   0.066   2.576 -0.4263 -0.1732  0.0276
 8686TIP3   OH247548   5.334   1.940  11.965 -0.4812  0.1303 -0.4618
 8686TIP3    H147549   5.396   1.915  12.033 -1.6007 -0.4196  0.3679
 8686TIP3    H247550   5.321   1.861  11.914 -1.9002 -0.2606  0.4838
 8687TIP3   OH247551   6.242   6.104   2.935 -0.3828  0.0221 -0.1624
 8687TIP3    H147552   6.159   6.087   2.892  0.0928  0.2126 -1.1694
 8687TIP3    H247553   6.281   6.017   2.949 -1.9028 -0.2655  2.6933
 8688TIP3   OH247554   3.188   3.598   3.804 -0.0795  0.0287  0.1126
 8688TIP3    H147555   3.103   3.618   3.843  0.3896 -0.1238  1.2225
 8688TIP3    H247556   3.229   3.684   3.790 -0.6210  0.1315 -0.9212
 8689TIP3   OH247557   2.747   6.515  14.466  0.0236  0.2166  0.3839
 8689TIP3    H147558   2.766   6.522  14.559 -1.5365 -1.9329  0.8999
 8689TIP3    H247559   2.683   6.445  14.460  1.4584 -0.9094 -2.5089
 8690TIP3   OH247560   0.647   3.768  11.400  0.1582  0.6419 -0.3838
 8690TIP3    H147561   0.600   3.703  11.347 -0.4346 -0.3513  1.3242
 8690TIP3    H247562   0.734   3.731  11.411 -0.5883 -0.5830  1.7522
 8691TIP3   OH247563   3.792   4.347  12.991  0.3571  0.0716  0.3637
 8691TIP3    H147564   3.726   4.279  12.995 -0.4722  0.7756 -0.8901
 8691TIP3    H247565   3.803   4.376  13.081 -0.4587 -0.6003  0.6791
 8692TIP3   OH247566   5.275   5.278   5.024  0.0255  0.3167 -0.4914
 8692TIP3    H147567   5.362   5.291   4.986 -0.0015  1.0601 -0.3116
 8692TIP3    H247568   5.279   5.193   5.067  1.5644  1.5563  1.9601
 8693TIP3   OH247569   5.672   0.686   6.025  0.3515  0.1507  0.0637
 8693TIP3    H147570   5.690   0.664   6.117  1.6398  3.8066  0.7758
 8693TIP3    H247571   5.577   0.694   6.020  0.2770 -0.0363  1.1087
 8694TIP3   OH247572   6.409   2.459  14.140 -0.2851  0.5879  0.2996
 8694TIP3    H147573   6.370   2.380  14.102  0.0969  0.5888 -0.0986
 8694TIP3    H247574   6.466   2.492  14.072 -0.7687  1.4493  0.3075
 8695TIP3   OH247575   0.682   2.660  14.442  0.3699  0.0370 -0.5685
 8695TIP3    H147576   0.681   2.583  14.385  2.2615 -1.0652  0.8382
 8695TIP3    H247577   0.772   2.664  14.475 -0.2965  1.5632  1.1052
 8696TIP3   OH247578   1.361   1.943  10.423  0.3302 -0.0498  0.2517
 8696TIP3    H147579   1.437   1.978  10.376  0.2797 -0.4478 -0.1337
 8696TIP3    H247580   1.328   2.017  10.474 -0.7758  0.9479 -1.8509
 8697TIP3   OH247581   3.635   1.666   5.845 -0.1299  0.0417 -0.6639
 8697TIP3    H147582   3.689   1.611   5.789  0.0997  0.4723 -0.8713
 8697TIP3    H247583   3.554   1.617   5.856  0.2189 -0.5067 -0.5320
 8698TIP3   OH247584   2.054   6.198   1.411 -0.0380 -0.5217  0.1179
 8698TIP3    H147585   2.004   6.253   1.350  0.4441 -1.5448 -1.2280
 8698TIP3    H247586   2.109   6.143   1.355  1.0644 -0.8817  1.5138
 8699TIP3   OH247587   4.576   4.499   3.800  0.5845 -0.4068 -0.0292
 8699TIP3    H147588   4.633   4.433   3.761  1.0694  0.5254 -0.9161
 8699TIP3    H247589   4.635   4.553   3.853  0.3698 -0.0422 -0.1600
 8700TIP3   OH247590   6.250   5.644  11.122 -0.5798  0.4908  0.1088
 8700TIP3    H147591   6.261   5.551  11.142  0.1713  0.3470 -0.9625
 8700TIP3    H247592   6.263   5.688  11.206  2.0357 -0.1558  0.0863
 8701TIP3   OH247593   2.077   0.715  16.711 -0.3381 -0.5066 -0.4670
 8701TIP3    H147594   2.072   0.626  16.746 -0.8181  0.2784  1.5310
 8701TIP3    H247595   2.006   0.720  16.648 -0.8186 -1.2807 -0.0006
 8702TIP3   OH247596   3.679   0.163  11.466 -0.5720  0.4098 -0.3993
 8702TIP3    H147597   3.727   0.080  11.461  3.5553  2.4660  2.5960
 8702TIP3    H247598   3.610   0.147  11.530  0.0129 -0.8187 -0.0600
 8703TIP3   OH247599   3.946   3.129  17.035 -0.3901 -0.4813 -0.3831
 8703TIP3    H147600   3.934   3.216  16.998  0.0980 -0.2923 -0.0900
 8703TIP3    H247601   4.029   3.098  16.999 -0.0543 -0.4140  0.3313
 8704TIP3   OH247602   1.691   1.431   5.758 -0.2736  0.3942  0.4029
 8704TIP3    H147603   1.663   1.510   5.803 -0.2266  0.5452  0.1669
 8704TIP3    H247604   1.760   1.460   5.698 -0.1716  0.1563  0.4037
 8705TIP3   OH247605   5.488   1.605  15.320 -0.1666  0.1581  0.1851
 8705TIP3    H147606   5.527   1.561  15.395  0.3059 -0.6843 -0.5351
 8705TIP3    H247607   5.556   1.664  15.288 -0.3965  0.5773  0.4689
 8706TIP3   OH247608   3.007   2.236   0.265  0.6981 -0.0485  0.2989
 8706TIP3    H147609   2.917   2.253   0.294  0.8386 -0.1738  0.8156
 8706TIP3    H247610   3.047   2.323   0.261  0.9507 -0.1105  1.3926
 8707TIP3   OH247611   2.901   1.384  11.356 -0.0958 -0.0929  0.3869
 8707TIP3    H147612   2.895   1.340  11.271 -0.5501  0.6959  0.0003
 8707TIP3    H247613   2.825   1.442  11.358  0.8894  1.2278  0.5526
 8708TIP3   OH247614   2.507   0.139  12.924 -0.2798  0.4391  0.0830
 8708TIP3    H147615   2.479   0.211  12.980 -1.4245  0.6183 -0.7165
 8708TIP3    H247616   2.426   0.104  12.887  0.3488 -0.6259 -0.3011
 8709TIP3   OH247617   1.208   4.079   1.368  0.3975  0.2805  0.8249
 8709TIP3    H147618   1.279   4.041   1.419  0.5289  0.0022  0.4398
 8709TIP3    H247619   1.251   4.117   1.291  0.0588 -0.4574  0.2715
 8710TIP3   OH247620   3.432   5.155  13.691  0.2887  0.0072 -0.1795
 8710TIP3    H147621   3.515   5.195  13.718  0.6815 -1.0894  0.2651
 8710TIP3    H247622   3.420   5.082  13.751 -0.7652 -0.1439 -0.5539
 8711TIP3   OH247623   3.542   4.706  13.909  0.0473 -0.9810 -0.0087
 8711TIP3    H147624   3.485   4.657  13.850  2.0226  1.2964 -4.0244
 8711TIP3    H247625   3.615   4.646  13.926  0.5307 -0.8961 -1.7074
 8712TIP3   OH247626   5.047   6.187  15.591  0.0669  0.1469 -0.1845
 8712TIP3    H147627   5.135   6.152  15.576  0.2532  0.4183  0.2447
 8712TIP3    H247628   5.034   6.249  15.519 -0.6476 -1.4883 -1.4875
 8713TIP3   OH247629   4.387   4.573   5.435 -0.0117  0.2322  0.2710
 8713TIP3    H147630   4.308   4.611   5.475 -1.1953 -2.0099  0.1583
 8713TIP3    H247631   4.360   4.550   5.346  0.9843  0.1292 -0.0109
 8714TIP3   OH247632   5.892   6.397  11.504  0.0354  0.4015  0.0949
 8714TIP3    H147633   5.872   6.490  11.502 -2.1900 -0.0644 -1.3207
 8714TIP3    H247634   5.931   6.379  11.419 -0.6625 -0.1680 -0.1121
 8715TIP3   OH247635   3.720   0.133   3.957 -0.4838 -0.0940 -0.4562
 8715TIP3    H147636   3.699   0.146   3.864  1.9674 -0.3417 -1.0789
 8715TIP3    H247637   3.675   0.052   3.980 -1.3930  0.1442 -1.3335
 8716TIP3   OH247638   5.166   4.130   5.021  0.0619  0.0997 -0.1279
 8716TIP3    H147639   5.257   4.141   4.995  0.9132 -1.2575  2.1957
 8716TIP3    H247640   5.161   4.167   5.109 -1.3972 -0.7500  0.1572
 8717TIP3   OH247641   2.656   3.328   4.155 -0.5735 -0.3881  0.6406
 8717TIP3    H147642   2.627   3.417   4.139 -1.2650 -0.7543 -0.2055
 8717TIP3    H247643   2.631   3.310   4.246  0.4652  0.6130  1.1352
 8718TIP3   OH247644   3.122   0.442  13.945  0.0952  0.5763  0.5916
 8718TIP3    H147645   3.108   0.536  13.935 -1.4430  0.5957  2.7263
 8718TIP3    H247646   3.106   0.424  14.038  1.1961 -1.6646  0.4031
 8719TIP3   OH247647   1.241   1.061  12.082  0.0820 -0.3183 -0.0028
 8719TIP3    H147648   1.171   1.084  12.021  0.7882 -0.8932 -1.0522
 8719TIP3    H247649   1.248   1.137  12.140 -0.5005  0.3095 -0.7315
 8720TIP3   OH247650   1.082   2.706  14.217 -0.3264 -0.0559  0.9048
 8720TIP3    H147651   1.086   2.745  14.304  0.0208 -0.3699  1.0340
 8720TIP3    H247652   1.141   2.760  14.164 -1.7322  1.0740  0.4811
 8721TIP3   OH247653   1.379   6.610  16.961 -0.1181 -0.3064  0.5523
 8721TIP3    H147654   1.456   6.564  16.995 -0.3481 -1.5837 -0.5889
 8721TIP3    H247655   1.390   6.607  16.866 -0.4343  1.5253  0.4475
 8722TIP3   OH247656   1.140   0.000   1.344 -0.5768  0.0440 -0.1631
 8722TIP3    H147657   1.158   0.078   1.291  0.0830  0.2784  0.3930
 8722TIP3    H247658   1.206   0.004   1.414 -0.9413 -0.6809  0.2172
 8723TIP3   OH247659   1.658   4.960   5.454  0.4396  0.1350  0.3577
 8723TIP3    H147660   1.629   5.018   5.383 -0.5588  0.3866  0.9559
 8723TIP3    H247661   1.731   4.911   5.417  0.8818  1.3241 -0.3663
 8724TIP3   OH247662   2.578   2.843   1.929 -0.4663  0.0362  0.2925
 8724TIP3    H147663   2.571   2.781   2.003 -3.6980 -0.6041 -0.4374
 8724TIP3    H247664   2.543   2.925   1.964 -0.1426  0.2852  0.0321
 8725TIP3   OH247665   6.468   3.696   3.739 -0.1806  0.0171  0.4949
 8725TIP3    H147666   6.518   3.768   3.778  0.1367 -1.2326  2.4860
 8725TIP3    H247667   6.484   3.704   3.645 -0.2417  2.5879  0.6770
 8726TIP3   OH247668   5.113   2.963   3.992 -0.1508 -0.3159 -0.2651
 8726TIP3    H147669   5.193   2.911   3.989 -0.2277 -0.5524  1.3745
 8726TIP3    H247670   5.097   2.987   3.901  1.8718 -0.1192 -0.5975
 8727TIP3   OH247671   3.924   1.213  12.697 -0.2199 -0.1793  0.2073
 8727TIP3    H147672   3.959   1.162  12.624  1.5667 -0.1771  1.0322
 8727TIP3    H247673   3.984   1.196  12.770 -2.7917 -1.3820  2.1647
 8728TIP3   OH247674   3.949   1.888   1.629  0.5477  0.3233 -0.2568
 8728TIP3    H147675   3.949   1.975   1.589  0.4988 -0.6210 -2.3840
 8728TIP3    H247676   4.032   1.848   1.601  1.0653  0.0369  1.5676
 8729TIP3   OH247677   4.730   1.976   3.822  0.2148  0.5223 -0.1188
 8729TIP3    H147678   4.712   2.016   3.907 -0.4255  0.5631 -0.2734
 8729TIP3    H247679   4.787   1.902   3.842  2.0007  1.9036  0.1034
 8730TIP3   OH247680   2.052   2.306  16.665  0.5859  0.3891  0.0779
 8730TIP3    H147681   1.978   2.341  16.615  1.2937  0.3918 -0.9926
 8730TIP3    H247682   2.037   2.337  16.754  0.2304  1.8892 -0.4775
 8731TIP3   OH247683   5.071   4.073  13.552 -0.5858 -0.1856 -0.2496
 8731TIP3    H147684   5.110   4.003  13.500 -1.7158 -0.3134 -0.9373
 8731TIP3    H247685   5.091   4.153  13.504  1.8550  0.1287  1.2173
 8732TIP3   OH247686   3.866   1.391  14.528  0.2673  0.4018  0.0747
 8732TIP3    H147687   3.957   1.390  14.501  0.5453 -0.1932  1.0213
 8732TIP3    H247688   3.865   1.447  14.606  0.1258 -1.0244  1.1062
 8733TIP3   OH247689   3.270   1.540   3.976  0.1136  0.3644 -0.2402
 8733TIP3    H147690   3.324   1.480   4.028 -0.0969  1.5353  1.3733
 8733TIP3    H247691   3.328   1.571   3.907  0.8827  0.0388  0.2520
 8734TIP3   OH247692   4.718   1.138   3.694  0.0542 -0.1776  0.2359
 8734TIP3    H147693   4.639   1.126   3.746 -1.0159 -2.0223 -1.7393
 8734TIP3    H247694   4.725   1.233   3.684 -1.4525  0.0542  1.1385
 8735TIP3   OH247695   5.035   5.160  14.750  0.4007  0.1535 -0.0334
 8735TIP3    H147696   5.021   5.203  14.835  0.6905 -0.4880  0.3406
 8735TIP3    H247697   4.997   5.221  14.686 -3.7903 -1.3660  0.8675
 8736TIP3   OH247698   6.197   6.742  15.239  0.1041 -1.0079  0.2156
 8736TIP3    H147699   6.240   6.665  15.275  0.0862  0.0590  2.5892
 8736TIP3    H247700   6.264   6.784  15.185  0.6240 -1.7797  0.2581
 8737TIP3   OH247701   4.356   6.301   2.326 -0.1396  0.3078 -0.2090
 8737TIP3    H147702   4.304   6.378   2.303 -1.9983 -1.1579 -1.1448
 8737TIP3    H247703   4.341   6.289   2.420 -1.5939 -0.1403 -0.4831
 8738TIP3   OH247704   6.779   3.977  13.130 -0.3312 -0.7274  0.5708
 8738TIP3    H147705   6.814   4.047  13.184 -1.5967 -1.6400  2.6457
 8738TIP3    H247706   6.838   3.903  13.146  0.4157 -0.4436 -0.8240
 8739TIP3   OH247707   1.310   4.209   3.467 -0.1056 -0.3187  0.0212
 8739TIP3    H147708   1.229   4.214   3.517  1.1615  0.8949  2.0211
 8739TIP3    H247709   1.340   4.119   3.479  0.0620 -0.1096  1.2903
 8740TIP3   OH247710   3.082   0.810   4.287 -0.1614 -0.0659  0.1885
 8740TIP3    H147711   3.021   0.880   4.311  0.1552 -0.4549  2.2171
 8740TIP3    H247712   3.026   0.734   4.271 -0.3321  0.0188  0.3808
 8741TIP3   OH247713   1.573   5.201  16.452  0.9996  0.1289  0.3408
 8741TIP3    H147714   1.644   5.262  16.433  0.8204 -0.0187 -0.8386
 8741TIP3    H247715   1.494   5.255  16.454  0.5092 -0.3343 -3.0090
 8742TIP3   OH247716   6.743   1.510   4.821 -0.3648  0.4487 -0.2464
 8742TIP3    H147717   6.818   1.471   4.777 -0.1395  0.0565  0.4742
 8742TIP3    H247718   6.763   1.604   4.824 -1.0273  0.6592 -2.2054
 8743TIP3   OH247719   5.900   1.090  13.161 -0.1699  0.0874  0.1027
 8743TIP3    H147720   5.836   1.148  13.202  0.0955  0.0483  0.5767
 8743TIP3    H247721   5.850   1.039  13.099 -0.9335 -1.2465  1.7876
 8744TIP3   OH247722   2.588   2.567  14.897  0.1694 -0.1118 -0.1964
 8744TIP3    H147723   2.680   2.546  14.887 -0.2389 -2.0331 -0.1676
 8744TIP3    H247724   2.549   2.487  14.934 -1.1876  1.2508  1.4337
 8745TIP3   OH247725   3.033   5.292  13.979  0.2452  0.0899 -0.0805
 8745TIP3    H147726   2.982   5.230  13.927  1.5129 -0.7764 -0.3157
 8745TIP3    H247727   3.033   5.373  13.928 -0.8405  0.0724 -0.1036
 8746TIP3   OH247728   4.742   0.465   1.354  0.1700  0.3248 -0.1035
 8746TIP3    H147729   4.800   0.454   1.278 -0.9060 -1.3524 -0.7247
 8746TIP3    H247730   4.709   0.554   1.348  1.9325  0.9710 -0.2880
 8747TIP3   OH247731   4.178   6.347  12.903 -0.2541 -0.2493  0.2881
 8747TIP3    H147732   4.196   6.433  12.865 -0.6127  0.1165  0.9289
 8747TIP3    H247733   4.264   6.307  12.913 -0.1292 -0.2068 -0.5653
 8748TIP3   OH247734   2.602   1.480   1.543  0.2382 -0.2193 -0.0683
 8748TIP3    H147735   2.620   1.565   1.502 -1.9555  0.0557 -0.5370
 8748TIP3    H247736   2.563   1.502   1.627 -0.5613 -0.7660 -0.2928
 8749TIP3   OH247737   1.782   5.887  13.657  0.5592  0.4943  0.3014
 8749TIP3    H147738   1.739   5.873  13.742 -2.0370  2.6480 -0.5657
 8749TIP3    H247739   1.803   5.980  13.656  0.7523  0.4427 -1.3422
 8750TIP3   OH247740   5.555   2.416  15.313  0.1149 -0.2831 -0.4316
 8750TIP3    H147741   5.573   2.499  15.358 -0.4235  0.2831 -1.2386
 8750TIP3    H247742   5.634   2.399  15.262 -0.0646  0.1330 -0.8565
 8751TIP3   OH247743   3.156   1.596  10.739  0.0483 -0.5513 -0.5087
 8751TIP3    H147744   3.121   1.667  10.684  1.7043 -1.2548 -2.5642
 8751TIP3    H247745   3.201   1.538  10.677  2.4220 -1.1254  1.6554
 8752TIP3   OH247746   5.663   1.808  15.561  0.3809 -0.2532 -0.9482
 8752TIP3    H147747   5.722   1.736  15.538  0.2522  0.5672 -3.9866
 8752TIP3    H247748   5.677   1.874  15.494 -2.2289  1.0120 -0.3315
 8753TIP3   OH247749   3.231   4.496   4.470  0.3359  0.2596 -0.4386
 8753TIP3    H147750   3.302   4.496   4.534 -1.0547 -0.1406  1.1369
 8753TIP3    H247751   3.152   4.512   4.522 -0.8278 -0.2272 -2.0349
 8754TIP3   OH247752   5.289   6.561   1.247 -0.1204 -0.1135 -0.2575
 8754TIP3    H147753   5.314   6.555   1.340 -1.3484  1.3412  0.1947
 8754TIP3    H247754   5.223   6.493   1.235 -2.2039  1.6622  0.7413
 8755TIP3   OH247755   4.432   1.498   2.798  0.5022  0.4855  0.0397
 8755TIP3    H147756   4.392   1.584   2.809  0.3913  0.2972  1.1368
 8755TIP3    H247757   4.484   1.506   2.718  0.4356  1.5520  0.0951
 8756TIP3   OH247758   4.432   1.761   1.005 -0.2131  0.1019  0.4431
 8756TIP3    H147759   4.469   1.681   1.043 -1.1170 -0.9354 -0.7940
 8756TIP3    H247760   4.480   1.773   0.923  0.4942  1.3063  1.0339
 8757TIP3   OH247761   2.622   0.076  14.053  0.7208 -0.0839 -0.7353
 8757TIP3    H147762   2.533   0.099  14.026  0.4761 -0.6407 -0.3922
 8757TIP3    H247763   2.612   0.004  14.114  1.2933  0.9361  0.5984
 8758TIP3   OH247764   5.133   3.070  14.553 -0.0634 -0.0684  0.4996
 8758TIP3    H147765   5.226   3.066  14.574 -0.2825 -1.3840  1.2814
 8758TIP3    H247766   5.124   3.021  14.471  0.3409  2.5162 -1.1430
 8759TIP3   OH247767   4.517   5.242  12.170 -0.8137 -1.0050 -0.2108
 8759TIP3    H147768   4.578   5.169  12.175 -1.9018 -1.9455 -0.4497
 8759TIP3    H247769   4.483   5.250  12.260 -0.8679 -0.9530 -0.2364
 8760TIP3   OH247770   1.333   5.623  13.096 -0.3969 -0.2738 -0.0286
 8760TIP3    H147771   1.426   5.620  13.074 -0.0003  2.0417  1.1857
 8760TIP3    H247772   1.290   5.654  13.016 -0.1450 -1.4100 -0.6119
 8761TIP3   OH247773   6.195   5.619   2.052 -0.4832  0.4063  0.1361
 8761TIP3    H147774   6.202   5.714   2.047 -1.1769  0.4121 -0.8709
 8761TIP3    H247775   6.127   5.596   1.988  0.3896 -0.8497 -0.3628
 8762TIP3   OH247776   4.568   6.236  14.404 -0.0036  0.5521  0.5196
 8762TIP3    H147777   4.606   6.223  14.317  1.6455  1.1771  1.1311
 8762TIP3    H247778   4.573   6.150  14.446  2.3950  0.9907  1.2217
 8763TIP3   OH247779   3.430   2.405  16.738  0.4720  0.0312 -0.5053
 8763TIP3    H147780   3.363   2.338  16.749 -0.3708  1.0673  0.7223
 8763TIP3    H247781   3.513   2.356  16.735 -0.3667 -1.3221 -2.8507
 8764TIP3   OH247782   5.305   4.908   3.483  0.1940  0.5908 -0.3091
 8764TIP3    H147783   5.260   4.952   3.411 -0.5352  1.0218  0.3923
 8764TIP3    H247784   5.389   4.953   3.490  0.3945  0.3445 -1.0805
 8765TIP3   OH247785   0.148   1.529  11.278  0.6815 -0.1463 -0.0186
 8765TIP3    H147786   0.110   1.453  11.321  0.9021  0.8976  2.0945
 8765TIP3    H247787   0.073   1.584  11.254  0.6862  0.7171  1.8586
 8766TIP3   OH247788   1.307   2.013   4.199 -0.2948 -0.0192 -0.5872
 8766TIP3    H147789   1.277   2.104   4.202  0.9893  0.3767  1.4035
 8766TIP3    H247790   1.394   2.018   4.160 -1.1456 -0.6978 -2.6414
 8767TIP3   OH247791   3.151   2.171  11.269  0.1146 -0.1172  0.1084
 8767TIP3    H147792   3.216   2.218  11.217 -1.4637  1.5146 -0.4686
 8767TIP3    H247793   3.112   2.108  11.209 -1.9662  2.0180 -0.8728
 8768TIP3   OH247794   0.883   5.170  13.516 -0.3710 -0.0347  0.4876
 8768TIP3    H147795   0.904   5.240  13.454 -0.0242 -0.5008  0.0779
 8768TIP3    H247796   0.788   5.179  13.530 -0.1983  1.0041  1.0398
 8769TIP3   OH247797   0.864   5.597   0.524  0.2325  0.3272 -0.5397
 8769TIP3    H147798   0.818   5.565   0.602 -0.3807  1.9178 -0.2291
 8769TIP3    H247799   0.897   5.683   0.550 -0.9499  1.3749 -2.3931
 8770TIP3   OH247800   6.646   5.571  11.879  0.0692 -0.5647 -0.6416
 8770TIP3    H147801   6.582   5.537  11.941  0.0274 -1.9216 -1.4120
 8770TIP3    H247802   6.694   5.638  11.928 -0.2861 -1.2759  0.6933
 8771TIP3   OH247803   5.148   6.712  13.525 -0.2311 -0.1688 -0.8874
 8771TIP3    H147804   5.107   6.793  13.555  0.2905  0.3858 -1.6531
 8771TIP3    H247805   5.139   6.652  13.599 -1.0800  0.4188 -0.4993
 8772TIP3   OH247806   5.919   5.810  13.187  0.3116 -0.1842  0.2385
 8772TIP3    H147807   5.964   5.809  13.272 -1.5150 -1.3789  1.2133
 8772TIP3    H247808   5.984   5.773  13.126  1.0757 -0.8346  1.4110
 8773TIP3   OH247809   5.947   4.137  14.335 -0.5672  0.1594 -0.4656
 8773TIP3    H147810   5.902   4.212  14.297 -0.8908 -0.0271 -0.4514
 8773TIP3    H247811   5.892   4.110  14.409 -0.3275  0.0582 -0.3213
 8774TIP3   OH247812   1.123   4.170  12.059 -0.6703  0.0978 -0.2777
 8774TIP3    H147813   1.160   4.164  12.147 -0.2547 -0.3066 -0.4831
 8774TIP3    H247814   1.028   4.167  12.074 -0.5966 -0.2733  0.1324
 8775TIP3   OH247815   4.698   5.616   2.769  0.5539  0.2734  0.3911
 8775TIP3    H147816   4.690   5.656   2.856  0.9294 -0.6916  0.8815
 8775TIP3    H247817   4.607   5.597   2.743  0.6199 -2.7173  2.1569
 8776TIP3   OH247818   2.076   0.573   0.125  0.2361 -0.7084 -0.4620
 8776TIP3    H147819   2.007   0.624   0.167 -0.5958 -0.9454 -1.5405
 8776TIP3    H247820   2.098   0.621   0.046  1.3701 -0.5962 -0.0973
 8777TIP3   OH247821   2.633   4.934   5.884  0.1485  0.0928  0.1630
 8777TIP3    H147822   2.564   4.999   5.871 -0.1748 -0.1537  0.6320
 8777TIP3    H247823   2.629   4.878   5.807  1.1125  1.2516 -0.7391
 8778TIP3   OH247824   0.791   5.965  15.522 -0.0404 -0.4194 -0.4465
 8778TIP3    H147825   0.831   5.977  15.436  1.8148 -2.8991 -0.0015
 8778TIP3    H247826   0.848   6.014  15.582  0.5714 -1.3982 -0.2175
 8779TIP3   OH247827   3.018   3.532   4.889  0.3800  0.5578  0.3300
 8779TIP3    H147828   3.067   3.531   4.807  1.3528  0.9839  0.9014
 8779TIP3    H247829   2.993   3.624   4.901 -0.4423  0.3705  0.1193
 8780TIP3   OH247830   2.769   0.317  11.498  0.4341  0.6709 -0.2486
 8780TIP3    H147831   2.847   0.359  11.462 -1.4774  2.4927 -2.4268
 8780TIP3    H247832   2.718   0.388  11.536 -1.8393  0.0968 -2.0824
 8781TIP3   OH247833   6.687   3.880   4.381  0.2941  0.4216 -0.2269
 8781TIP3    H147834   6.593   3.884   4.394 -0.0463 -1.6947 -1.6528
 8781TIP3    H247835   6.724   3.941   4.445 -2.0362  1.3139  0.2917
 8782TIP3   OH247836   1.908   5.787  13.965 -0.0014 -0.2447  0.5490
 8782TIP3    H147837   1.980   5.809  13.907 -0.1654  1.8935  1.1092
 8782TIP3    H247838   1.836   5.844  13.937 -0.0491  0.8967  2.8741
 8783TIP3   OH247839   1.171   5.291   3.399 -0.2934  0.2521  0.0334
 8783TIP3    H147840   1.169   5.200   3.427  0.5579  0.3874  0.5281
 8783TIP3    H247841   1.078   5.316   3.394 -0.5827 -0.9776 -1.2629
 8784TIP3   OH247842   0.661   5.431   0.658  0.4357  0.4292 -0.5435
 8784TIP3    H147843   0.672   5.459   0.749 -1.4963 -0.4300 -0.0142
 8784TIP3    H247844   0.577   5.468   0.631  0.8654  0.4644 -1.9145
 8785TIP3   OH247845   1.170   5.728  15.820  0.3203  0.8280 -0.2415
 8785TIP3    H147846   1.227   5.653  15.807  1.6669  1.5104  1.5675
 8785TIP3    H247847   1.085   5.700  15.786  0.9213 -1.3429 -0.0127
 8786TIP3   OH247848   0.004   3.668  15.718 -0.2849  0.6837  0.1226
 8786TIP3    H147849   0.056   3.656  15.639  0.0616  0.6833  0.3538
 8786TIP3    H247850  -0.083   3.693  15.685 -0.3436 -0.0400 -0.2824
 8787TIP3   OH247851   2.064   6.746   3.127  0.4975  0.3712 -0.2121
 8787TIP3    H147852   1.989   6.696   3.094  0.6377  0.4194 -0.5989
 8787TIP3    H247853   2.103   6.785   3.049  0.9698  0.2883 -0.0174
 8788TIP3   OH247854   4.023   0.187   4.376  0.1598 -0.2387 -0.2372
 8788TIP3    H147855   3.988   0.099   4.365 -0.1779 -0.3173  1.3275
 8788TIP3    H247856   3.980   0.239   4.309  0.2891 -1.2429 -1.1060
 8789TIP3   OH247857   2.479   3.715   5.000  0.2712 -0.1110 -0.8745
 8789TIP3    H147858   2.409   3.778   4.988  0.7297  0.3882 -0.9231
 8789TIP3    H247859   2.524   3.712   4.915  0.9749  0.3759 -0.5248
 8790TIP3   OH247860   0.475   3.212  16.787  0.3778  0.2775  0.1433
 8790TIP3    H147861   0.538   3.283  16.779  0.0647  0.7419  1.7063
 8790TIP3    H247862   0.422   3.234  16.863 -2.4630  0.4902 -1.7914
 8791TIP3   OH247863   5.072   5.085   4.059 -0.0676 -0.3858 -0.3870
 8791TIP3    H147864   5.047   5.159   4.004  0.3967 -1.3993 -2.0213
 8791TIP3    H247865   5.014   5.014   4.031  1.6393 -1.5312 -1.1651
 8792TIP3   OH247866   5.151   1.548   2.778  0.3288  0.1105 -0.0065
 8792TIP3    H147867   5.083   1.508   2.723 -0.0607 -2.4375  2.1870
 8792TIP3    H247868   5.110   1.628   2.812 -1.0512 -0.6569  0.1598
 8793TIP3   OH247869   0.533   2.645   0.958  0.2679  0.5059 -0.0441
 8793TIP3    H147870   0.531   2.712   0.890  1.8982  0.6401 -0.0003
 8793TIP3    H247871   0.461   2.667   1.016 -0.6570  0.8496 -1.2933
 8794TIP3   OH247872   4.672   4.001  12.396 -0.1657  0.1290 -0.1044
 8794TIP3    H147873   4.724   3.948  12.336  0.9366  1.4303 -0.3029
 8794TIP3    H247874   4.661   3.945  12.473  1.7670 -0.0584  0.0586
 8795TIP3   OH247875   0.193   0.408  16.934 -0.1575 -0.7008  0.0034
 8795TIP3    H147876   0.175   0.343  16.867  2.8868 -0.4772 -1.0942
 8795TIP3    H247877   0.201   0.357  17.015 -1.0389 -1.2917 -0.2692
 8796TIP3   OH247878   4.446   4.577  12.753 -0.4729 -0.0532 -0.3521
 8796TIP3    H147879   4.497   4.535  12.683 -2.5986  0.1743 -2.0946
 8796TIP3    H247880   4.370   4.615  12.708 -1.6326  0.5355  2.0168
 8797TIP3   OH247881   2.043   6.125  15.797  0.2222 -0.2937 -0.3854
 8797TIP3    H147882   1.972   6.139  15.858  0.5699  1.0154 -0.2735
 8797TIP3    H247883   2.101   6.201  15.809  0.7396 -0.4650 -1.7012
 8798TIP3   OH247884   3.367   2.194   2.200  0.4378 -0.3104  0.1248
 8798TIP3    H147885   3.299   2.127   2.194  0.2218  0.0262 -1.1542
 8798TIP3    H247886   3.351   2.252   2.127  2.5149 -0.6132 -0.6158
 8799TIP3   OH247887   5.818   5.347  11.438  0.3995  0.1309 -0.3807
 8799TIP3    H147888   5.799   5.438  11.413  1.6973  0.9164  1.4050
 8799TIP3    H247889   5.912   5.337  11.422  0.4625 -0.5725  0.4340
 8800TIP3   OH247890   2.308   6.171  13.669  0.4132 -0.2165 -0.3007
 8800TIP3    H147891   2.261   6.254  13.655 -0.3767 -0.5270  0.3946
 8800TIP3    H247892   2.388   6.180  13.618 -0.1204  0.5839 -1.0329
 8801TIP3   OH247893   2.410   3.663  11.753  0.1137 -0.2912 -0.2658
 8801TIP3    H147894   2.475   3.656  11.823 -0.1826  2.1316  0.2752
 8801TIP3    H247895   2.337   3.608  11.782 -0.0847  0.8509  1.4116
 8802TIP3   OH247896   5.015   3.162  14.096 -0.0386  0.2256 -0.6234
 8802TIP3    H147897   5.010   3.124  14.183 -0.8423  2.5717  0.3936
 8802TIP3    H247898   5.044   3.090  14.040 -0.0525 -1.4541  1.4675
 8803TIP3   OH247899   1.563   4.560   1.317 -0.0707  0.5388  0.0994
 8803TIP3    H147900   1.618   4.575   1.240  0.1612  1.1868  0.3833
 8803TIP3    H247901   1.626   4.539   1.387 -0.3478 -1.1534 -0.1332
 8804TIP3   OH247902   3.679   5.572   2.189  0.1565 -0.3909 -0.4245
 8804TIP3    H147903   3.763   5.557   2.231  0.7576 -0.3687 -1.6076
 8804TIP3    H247904   3.677   5.666   2.172 -0.4916 -0.2492  0.3930
 8805TIP3   OH247905   5.124   3.823   5.408  0.1283  0.3966 -0.0017
 8805TIP3    H147906   5.138   3.877   5.486 -0.9709  0.4541  0.1646
 8805TIP3    H247907   5.152   3.735   5.435  2.3743  0.9599 -0.4295
 8806TIP3   OH247908   0.002   1.309  11.397  0.3006  0.3243  0.1919
 8806TIP3    H147909  -0.080   1.330  11.443  1.0455  0.1446  1.6080
 8806TIP3    H247910  -0.026   1.253  11.324 -0.9481  1.0175  0.1243
 8807TIP3   OH247911   5.058   4.973  12.177  0.4697 -0.1226 -0.1908
 8807TIP3    H147912   4.992   4.904  12.177  0.9963 -0.6631 -1.8673
 8807TIP3    H247913   5.011   5.052  12.150 -0.3472  0.4213  2.7365
 8808TIP3   OH247914   0.319   2.236  15.123 -0.3501  0.2993 -0.7855
 8808TIP3    H147915   0.360   2.310  15.169 -0.8244  0.1140 -0.0606
 8808TIP3    H247916   0.236   2.222  15.168  0.3945 -1.6389  0.0431
 8809TIP3   OH247917   3.382   0.740  12.710 -0.1748 -0.3028 -0.9114
 8809TIP3    H147918   3.370   0.765  12.618 -0.5917  1.7022 -0.3160
 8809TIP3    H247919   3.403   0.821  12.755  0.8308 -1.4013  0.6568
 8810TIP3   OH247920   1.140   0.821   3.695 -0.2491  0.4012 -0.2540
 8810TIP3    H147921   1.067   0.865   3.738  0.1049  1.4829 -0.7400
 8810TIP3    H247922   1.113   0.815   3.603  0.1212  0.4951 -0.3703
 8811TIP3   OH247923   3.117   6.499   2.204 -0.8708 -0.3032 -0.7199
 8811TIP3    H147924   3.157   6.429   2.153  0.6638  1.0369 -1.3867
 8811TIP3    H247925   3.031   6.512   2.163 -0.5926 -0.8240 -1.4713
 8812TIP3   OH247926   0.139   4.962  13.926  0.2572  0.5366  0.2586
 8812TIP3    H147927   0.078   4.889  13.939  0.4122  0.3243 -0.1922
 8812TIP3    H247928   0.125   5.019  14.002 -0.7190  0.6456  0.0011
 8813TIP3   OH247929   2.781   0.719   0.046 -0.1958  0.0791  0.4214
 8813TIP3    H147930   2.762   0.813   0.043 -0.2676  0.0400 -0.4000
 8813TIP3    H247931   2.860   0.709  -0.006 -0.2038 -0.3199  0.4861
 8814TIP3   OH247932   3.491   3.629  17.199 -0.2912 -0.3339  0.0831
 8814TIP3    H147933   3.580   3.620  17.164  0.1218  1.1323  0.7124
 8814TIP3    H247934   3.453   3.701  17.148 -0.0101  1.1918  1.9550
 8815TIP3   OH247935   1.262   5.625   3.451  0.2392  0.3972 -0.0914
 8815TIP3    H147936   1.239   5.558   3.387 -1.1294  0.1348  0.6513
 8815TIP3    H247937   1.323   5.683   3.404 -0.9260  0.3599 -1.7115
 8816TIP3   OH247938   1.524   1.942   0.212 -0.0511  0.2264  0.2736
 8816TIP3    H147939   1.528   1.861   0.262  1.9599  0.5535  0.6721
 8816TIP3    H247940   1.597   1.995   0.245  0.6114  0.9118 -2.1629
 8817TIP3   OH247941   6.267   4.777   3.247  0.3978  0.3091  0.5353
 8817TIP3    H147942   6.244   4.820   3.329  1.4547  0.0364  0.9791
 8817TIP3    H247943   6.193   4.796   3.188  0.2236  1.5692  1.1470
 8818TIP3   OH247944   4.614   4.494   2.892  0.1391 -0.4852  0.7758
 8818TIP3    H147945   4.647   4.521   2.806  0.0447 -1.4082  0.4493
 8818TIP3    H247946   4.555   4.421   2.874  0.0820 -0.6544  1.6191
 8819TIP3   OH247947   4.433   2.494  10.569  0.0622 -0.0479  0.1305
 8819TIP3    H147948   4.344   2.512  10.597  0.0817 -0.0573  0.1991
 8819TIP3    H247949   4.439   2.529  10.481  0.7560  2.2538  1.0591
 8820TIP3   OH247950   2.439   6.006  11.721 -0.1226 -0.3601 -0.1465
 8820TIP3    H147951   2.442   6.017  11.816  0.0551 -2.0348  0.0577
 8820TIP3    H247952   2.520   6.046  11.690 -0.2588  0.3347  0.3951
 8821TIP3   OH247953   1.727   3.352   4.081  0.1570  0.6279 -0.6192
 8821TIP3    H147954   1.812   3.394   4.089  0.2457  0.1734  1.0280
 8821TIP3    H247955   1.668   3.407   4.133 -0.2657  0.1920 -0.6303
 8822TIP3   OH247956   5.874   5.311   5.294 -0.4164 -0.4334 -0.4219
 8822TIP3    H147957   5.805   5.289   5.356 -1.0704 -0.0811 -1.0205
 8822TIP3    H247958   5.905   5.226   5.261 -1.6976 -0.5335 -1.3794
 8823TIP3   OH247959   1.848   1.070   6.135 -0.4265 -0.1591 -0.0938
 8823TIP3    H147960   1.894   1.133   6.080  0.3086  0.1784  0.8827
 8823TIP3    H247961   1.755   1.089   6.121 -0.3509 -1.9574 -3.3643
 8824TIP3   OH247962   2.157   3.688  15.393 -0.2574 -0.0194  0.7399
 8824TIP3    H147963   2.233   3.646  15.353 -0.5403  0.0477  0.1163
 8824TIP3    H247964   2.105   3.616  15.427 -0.5542 -0.1641  0.0049
 8825TIP3   OH247965   6.140   6.177   2.020  0.2803 -0.4971 -0.1732
 8825TIP3    H147966   6.078   6.233   2.068  1.6787  0.1736  0.9047
 8825TIP3    H247967   6.118   6.190   1.928 -0.0654  1.0837  0.1111
 8826TIP3   OH247968   3.788   3.911  15.420  0.8166  0.2501  0.4102
 8826TIP3    H147969   3.873   3.945  15.391  0.3505  0.0159 -1.2823
 8826TIP3    H247970   3.730   3.987  15.415  0.2634 -0.2752 -1.2938
 8827TIP3   OH247971   3.302   4.341   0.467 -0.0713  0.2640 -0.1754
 8827TIP3    H147972   3.351   4.305   0.541  1.2109  1.5335 -0.3869
 8827TIP3    H247973   3.250   4.411   0.504 -0.7954 -0.2642 -0.1763
 8828TIP3   OH247974   3.981   6.279  14.291 -0.0300 -0.2330 -0.6900
 8828TIP3    H147975   3.950   6.345  14.353 -0.8922 -1.4613  0.2050
 8828TIP3    H247976   4.071   6.260  14.319 -0.5883 -1.1512  0.5223
 8829TIP3   OH247977   4.677   3.539   6.259  0.3565 -0.1949  0.2292
 8829TIP3    H147978   4.600   3.484   6.269 -0.8716  1.4447 -0.1116
 8829TIP3    H247979   4.656   3.620   6.306  1.6949  0.4367 -0.2247
 8830TIP3   OH247980   0.675   2.389  16.103 -0.5048 -0.0050 -0.0134
 8830TIP3    H147981   0.601   2.441  16.072  0.2044  0.4769 -0.9112
 8830TIP3    H247982   0.647   2.298  16.090 -0.4182  0.1813 -1.6146
 8831TIP3   OH247983   4.469   4.211   0.203  0.2732  0.1924  0.0420
 8831TIP3    H147984   4.460   4.303   0.178 -1.0332  0.9841  3.2008
 8831TIP3    H247985   4.549   4.209   0.255  0.0385 -0.3606  0.3799
 8832TIP3   OH247986   0.415   1.144  11.882  0.3312  0.1485  0.2856
 8832TIP3    H147987   0.461   1.200  11.820 -2.6815  1.6305 -0.6766
 8832TIP3    H247988   0.369   1.080  11.827 -1.6047  0.8976  0.9936
 8833TIP3   OH247989   6.181   6.190  11.594 -0.1177 -0.0695 -0.2222
 8833TIP3    H147990   6.107   6.140  11.627 -0.3522  0.7060  0.4498
 8833TIP3    H247991   6.160   6.207  11.502 -1.2755  1.0378  0.2268
 8834TIP3   OH247992   3.787   0.681   2.517 -0.0097 -0.1331  0.2657
 8834TIP3    H147993   3.857   0.707   2.577 -0.1089  1.7725 -0.4090
 8834TIP3    H247994   3.765   0.761   2.470 -1.3109 -1.1587 -0.9110
 8835TIP3   OH247995   1.787   2.465  13.681 -0.6293  0.4832  0.1260
 8835TIP3    H147996   1.843   2.422  13.745 -0.6669 -0.6715 -0.6020
 8835TIP3    H247997   1.847   2.513  13.624 -0.3270 -1.0503 -0.8789
 8836TIP3   OH247998   5.814   0.669  15.541  0.4057 -0.3712 -0.3009
 8836TIP3    H147999   5.731   0.693  15.498 -1.0303 -2.7781  0.9981
 8836TIP3    H248000   5.875   0.655  15.469 -1.6342 -3.1321 -1.6171
 8837TIP3   OH248001   1.197   4.788   5.917 -0.4981  0.0890  0.0884
 8837TIP3    H148002   1.182   4.858   5.981  1.7538 -0.0393  0.8054
 8837TIP3    H248003   1.178   4.829   5.832  0.3547  1.4326  0.5266
 8838TIP3   OH248004   0.034   0.875   1.238  0.0983 -0.2424 -0.5578
 8838TIP3    H148005  -0.008   0.929   1.171 -1.7625 -1.0503 -0.0753
 8838TIP3    H248006   0.030   0.786   1.203  1.8417 -0.2868 -0.7017
 8839TIP3   OH248007   6.479   4.367  15.448  0.2873  0.1026  0.2820
 8839TIP3    H148008   6.485   4.342  15.540 -1.4988 -0.3530  0.3030
 8839TIP3    H248009   6.442   4.290  15.404 -0.3001  0.8316 -0.5414
 8840TIP3   OH248010   4.522   1.983  12.976 -0.2246 -0.8070  0.2730
 8840TIP3    H148011   4.498   1.920  13.044  0.0195  0.0643  1.1728
 8840TIP3    H248012   4.615   1.998  12.988 -0.3915  0.1450  0.4217
 8841TIP3   OH248013   4.236   6.178   1.953  0.0065 -0.6245 -0.0381
 8841TIP3    H148014   4.238   6.260   1.904 -0.4098  0.2195  1.3413
 8841TIP3    H248015   4.313   6.130   1.923  0.9228  0.7864  0.0316
 8842TIP3   OH248016   3.935   5.556   2.223 -0.3213 -0.3753 -0.5771
 8842TIP3    H148017   3.930   5.637   2.272 -3.6633  0.1213 -1.6152
 8842TIP3    H248018   4.005   5.571   2.159  0.0440  1.1477  0.1613
 8843TIP3   OH248019   0.339   1.236   5.726 -0.4534 -0.1015 -0.6819
 8843TIP3    H148020   0.320   1.187   5.646 -0.0631  1.0984 -1.5166
 8843TIP3    H248021   0.345   1.169   5.794  0.2278 -1.2321 -1.8400
 8844TIP3   OH248022   0.773   4.234   5.584  0.2027 -0.2168  0.7537
 8844TIP3    H148023   0.711   4.204   5.650 -0.7027  0.9929  0.4816
 8844TIP3    H248024   0.723   4.235   5.503  0.0709  2.2838  0.8082
 8845TIP3   OH248025   0.103   1.708   1.195  0.0648 -0.1391 -0.3629
 8845TIP3    H148026   0.104   1.711   1.100  0.3558  1.6484 -0.3163
 8845TIP3    H248027   0.066   1.792   1.222 -1.7457 -1.3425  1.0802
 8846TIP3   OH248028   0.995   4.510  16.332  0.2219 -0.2305 -0.2345
 8846TIP3    H148029   1.022   4.552  16.250 -1.0342  0.9220 -0.0770
 8846TIP3    H248030   1.044   4.428  16.334  0.3630 -0.2120 -2.0837
 8847TIP3   OH248031   2.841   4.345   5.331  0.5902 -0.2107  0.1450
 8847TIP3    H148032   2.836   4.439   5.347 -1.9488 -0.4152  0.7451
 8847TIP3    H248033   2.779   4.307   5.393  2.0567 -2.3461  0.3514
 8848TIP3   OH248034   2.817   4.480  14.921 -0.2852 -0.3095  0.2474
 8848TIP3    H148035   2.842   4.505  15.010  1.9761  0.8815 -0.6748
 8848TIP3    H248036   2.900   4.462  14.877 -1.2812  0.3253 -1.9645
 8849TIP3   OH248037   4.288   6.684  16.430 -0.2908 -0.1331  0.4685
 8849TIP3    H148038   4.252   6.603  16.392  0.0277  0.1103 -0.3709
 8849TIP3    H248039   4.383   6.671  16.429 -0.1442  0.8385 -1.0766
 8850TIP3   OH248040   6.695   2.958   4.818 -0.4711  0.0854  0.2253
 8850TIP3    H148041   6.637   3.025   4.855 -0.1830  1.0507 -1.0600
 8850TIP3    H248042   6.656   2.937   4.734  1.2781  1.0801 -0.8647
 8851TIP3   OH248043   6.339   0.293   2.157  1.2167 -0.4634  0.2063
 8851TIP3    H148044   6.248   0.290   2.125  1.4593  1.4960 -0.7782
 8851TIP3    H248045   6.369   0.203   2.152  0.0564 -0.7833 -1.7096
 8852TIP3   OH248046   4.840   5.403  12.543  0.2096 -0.0735 -0.4286
 8852TIP3    H148047   4.773   5.462  12.508  0.0885  1.1054  1.7141
 8852TIP3    H248048   4.899   5.388  12.470 -1.8363 -0.3390 -2.0793
 8853TIP3   OH248049   3.450   6.460  12.509  0.3949 -0.3641  0.0648
 8853TIP3    H148050   3.458   6.364  12.507 -0.5116 -0.4522  0.9170
 8853TIP3    H248051   3.433   6.481  12.600  0.2974  0.5989 -0.1747
 8854TIP3   OH248052   0.870   5.994  11.474 -0.2736  0.4089  0.1410
 8854TIP3    H148053   0.804   5.936  11.435  0.3557  1.1738 -2.1801
 8854TIP3    H248054   0.925   5.936  11.527  1.0910 -1.4305 -3.1075
 8855TIP3   OH248055   1.796   1.402  15.739  0.0685 -0.2548 -0.2927
 8855TIP3    H148056   1.750   1.486  15.744 -1.1674 -0.9177 -0.1733
 8855TIP3    H248057   1.751   1.347  15.804 -2.1305 -2.4003 -3.4648
 8856TIP3   OH248058   2.267   3.924  14.302 -0.4906  0.0417  0.1494
 8856TIP3    H148059   2.349   3.875  14.296 -0.2322  0.3709  0.9898
 8856TIP3    H248060   2.225   3.910  14.217 -0.2392 -1.3151  0.2393
 8857TIP3   OH248061   6.255   0.495  13.793  0.3093  0.0531  0.4665
 8857TIP3    H148062   6.293   0.492  13.705  0.3672 -1.1188  0.5290
 8857TIP3    H248063   6.255   0.588  13.816  0.0281  0.3891 -0.8869
 8858TIP3   OH248064   5.698   1.849   0.252 -0.6680  0.4848  0.1755
 8858TIP3    H148065   5.633   1.814   0.191 -0.6935  0.6895  0.0802
 8858TIP3    H248066   5.764   1.889   0.195 -1.1966  1.5626  0.2985
 8859TIP3   OH248067   3.273   5.901  15.243  0.1217 -0.2482  0.6261
 8859TIP3    H148068   3.255   5.834  15.177  1.5019 -0.9768  0.9655
 8859TIP3    H248069   3.239   5.982  15.205 -1.2166 -1.0729  0.0448
 8860TIP3   OH248070   3.005   4.887  16.192  0.7829  0.0950  0.1337
 8860TIP3    H148071   2.915   4.874  16.163  0.3742  2.0965  0.3857
 8860TIP3    H248072   3.056   4.895  16.110  0.8643 -1.7137 -0.0126
 8861TIP3   OH248073   6.524   3.007   1.557  0.3877  0.5860  0.1940
 8861TIP3    H148074   6.431   3.005   1.581  0.5355 -1.3717  0.6166
 8861TIP3    H248075   6.524   3.031   1.464 -0.6344 -1.2391 -0.2826
 8862TIP3   OH248076   6.243   3.452  15.689  0.5555  0.1424  0.5380
 8862TIP3    H148077   6.148   3.447  15.687  0.5708  0.1075 -1.7351
 8862TIP3    H248078   6.271   3.372  15.733 -0.4223 -0.6594 -0.2858
 8863TIP3   OH248079   0.727   0.156   5.409 -0.4485  0.0218 -0.0247
 8863TIP3    H148080   0.793   0.218   5.440  0.1497 -1.4048  1.7217
 8863TIP3    H248081   0.744   0.077   5.460 -1.8845 -1.2154 -1.4100
 8864TIP3   OH248082   0.844   0.351  14.552  0.6977  0.4906 -0.1077
 8864TIP3    H148083   0.840   0.318  14.642 -0.5932  0.5734 -0.1264
 8864TIP3    H248084   0.905   0.292  14.508 -0.9662 -1.4303  0.0650
 8865TIP3   OH248085   2.027   5.195   5.268  0.5535 -0.1060  0.1565
 8865TIP3    H148086   2.071   5.278   5.282 -1.8832  1.3341 -0.4929
 8865TIP3    H248087   2.044   5.145   5.348  2.2940  0.8719  0.4209
 8866TIP3   OH248088   5.009   2.002   5.354 -0.3508 -0.2754  0.1061
 8866TIP3    H148089   5.086   1.947   5.367 -0.1821 -0.2118 -0.5913
 8866TIP3    H248090   4.997   2.047   5.437  0.5490 -0.0621  0.1211
 8867TIP3   OH248091   5.154   4.619  11.501 -0.4730 -0.2270 -0.3634
 8867TIP3    H148092   5.170   4.673  11.578  0.4010 -0.2403 -0.5281
 8867TIP3    H248093   5.119   4.537  11.536 -0.1166 -0.2185  0.0219
 8868TIP3   OH248094   0.961   4.225  15.157  0.2494  0.1806  0.6240
 8868TIP3    H148095   1.009   4.253  15.079  0.9342 -0.4416  0.8143
 8868TIP3    H248096   0.919   4.143  15.131 -1.9256  1.4669 -0.0025
 8869TIP3   OH248097   5.841   2.067  12.974 -0.2982 -0.3232  0.2160
 8869TIP3    H148098   5.875   2.145  13.017  0.7714 -1.6197  1.8038
 8869TIP3    H248099   5.762   2.045  13.022 -2.2324  1.4194 -2.0775
 8870TIP3   OH248100   1.341   0.657   1.568 -0.1183 -0.1344 -0.1618
 8870TIP3    H148101   1.417   0.598   1.570 -0.2561 -0.3301 -0.8439
 8870TIP3    H248102   1.336   0.691   1.658 -1.3539 -2.8295  0.8535
 8871TIP3   OH248103   5.651   0.110   2.384 -0.1868 -0.1744 -0.1219
 8871TIP3    H148104   5.696   0.183   2.426 -2.9514  1.8818 -0.5626
 8871TIP3    H248105   5.563   0.111   2.423  0.0098 -3.8696  0.5220
 8872TIP3   OH248106   1.388   0.886  11.885  0.0709 -0.7223  0.4464
 8872TIP3    H148107   1.362   0.965  11.933 -0.9445 -0.8218  0.0848
 8872TIP3    H248108   1.314   0.826  11.898 -0.1682 -0.7843 -1.1480
 8873TIP3   OH248109   6.563   3.733   2.400 -0.2089 -0.0012  0.2009
 8873TIP3    H148110   6.494   3.666   2.397 -0.0866 -0.0408 -2.6464
 8873TIP3    H248111   6.521   3.808   2.441 -1.0688 -0.9976  1.1809
 8874TIP3   OH248112   5.425   4.642   4.470 -0.0204  0.1548  0.3037
 8874TIP3    H148113   5.482   4.589   4.414  1.4635  1.6107  0.4172
 8874TIP3    H248114   5.482   4.673   4.541 -1.0762  1.1872  0.7252
 8875TIP3   OH248115   0.213   3.986  12.535  0.0833  0.2631 -0.2724
 8875TIP3    H148116   0.194   3.988  12.441 -0.9637  1.9447 -0.0439
 8875TIP3    H248117   0.308   3.980  12.540  0.2176  1.2355 -1.4500
 8876TIP3   OH248118   0.587   1.321  12.050 -0.0676 -0.1086  0.5425
 8876TIP3    H148119   0.546   1.339  11.966  1.3732 -0.0137 -0.1605
 8876TIP3    H248120   0.672   1.282  12.028  0.9473  1.2279  1.9205
 8877TIP3   OH248121   0.314   0.360   1.922 -0.2922 -0.6134 -0.3203
 8877TIP3    H148122   0.234   0.361   1.871  0.4386  0.2072 -1.4690
 8877TIP3    H248123   0.314   0.274   1.965 -1.6488 -0.7157 -0.5034
 8878TIP3   OH248124   6.350   5.712  12.773 -0.0354 -0.6320  0.0177
 8878TIP3    H148125   6.402   5.792  12.763  2.7619 -2.3740  0.3598
 8878TIP3    H248126   6.340   5.679  12.684  0.6908 -1.0706  0.0971
 8879TIP3   OH248127   0.142   3.697   1.213 -0.5253  0.3889 -0.6058
 8879TIP3    H148128   0.097   3.645   1.279  1.3087  0.8805  1.1012
 8879TIP3    H248129   0.081   3.768   1.191 -0.9003  0.5995  1.0832
 8880TIP3   OH248130   4.181   1.875   3.999 -0.0980 -0.0127 -0.6270
 8880TIP3    H148131   4.165   1.953   3.946  0.6177  1.1469  0.8124
 8880TIP3    H248132   4.172   1.905   4.090  0.1633 -1.6154 -0.0439
 8881TIP3   OH248133   6.055   6.134   4.177  0.5333 -0.4125  0.0040
 8881TIP3    H148134   6.080   6.053   4.221 -0.6671 -1.3694 -1.0466
 8881TIP3    H248135   6.111   6.137   4.099  0.9617  0.0465  0.3300
 8882TIP3   OH248136   2.130   6.801   2.236  0.3379 -0.0126 -0.0132
 8882TIP3    H148137   2.157   6.852   2.160 -0.9646  1.7116  0.6499
 8882TIP3    H248138   2.181   6.720   2.230  1.2687  0.6878 -1.9477
 8883TIP3   OH248139   3.536   4.635   0.544 -0.0410 -0.0972  0.6833
 8883TIP3    H148140   3.460   4.654   0.598 -0.3161 -0.5617  0.4638
 8883TIP3    H248141   3.569   4.552   0.578 -1.8627 -1.8533 -1.6430
 8884TIP3   OH248142   5.475   2.252  15.877  0.8195 -0.0402  0.2156
 8884TIP3    H148143   5.472   2.228  15.970 -2.8267 -1.3269 -0.1404
 8884TIP3    H248144   5.545   2.197  15.840 -0.5800 -2.7520  1.4251
 8885TIP3   OH248145   0.235   0.154  16.085  0.9207 -0.5654  0.1867
 8885TIP3    H148146   0.313   0.210  16.093 -0.1080  1.2861 -2.0728
 8885TIP3    H248147   0.213   0.156  15.992 -1.0260 -2.1888  0.5678
 8886TIP3   OH248148   0.058   4.978   5.364 -1.3827 -0.3517  0.4521
 8886TIP3    H148149  -0.006   4.988   5.294 -0.9631  1.5172  0.3068
 8886TIP3    H248150   0.137   4.945   5.320 -2.2365 -2.7953  0.6548
 8887TIP3   OH248151   2.756   0.671  13.494  0.7130  0.2910 -0.2355
 8887TIP3    H148152   2.798   0.617  13.560  1.4417  0.1752 -0.7864
 8887TIP3    H248153   2.671   0.694  13.531  1.0486  0.0798  0.6567
 8888TIP3   OH248154   1.610   1.644  16.051 -0.2567  0.6723 -0.0029
 8888TIP3    H148155   1.703   1.658  16.036 -0.4775  1.8928 -0.2347
 8888TIP3    H248156   1.605   1.553  16.082  1.1564  1.0796  1.4940
 8889TIP3   OH248157   0.875   4.909  15.206  0.0265  0.0421  0.3382
 8889TIP3    H148158   0.918   4.973  15.263 -1.2093 -0.2034  1.5439
 8889TIP3    H248159   0.935   4.900  15.132  1.4087  0.7291  1.3538
 8890TIP3   OH248160   6.668   6.034   4.088  0.2574  0.2941 -0.7746
 8890TIP3    H148161   6.740   6.013   4.028  1.7535  2.4327  0.2311
 8890TIP3    H248162   6.613   6.094   4.038  0.7288  0.9451 -0.5069
 8891TIP3   OH248163   4.030   1.916  15.246  0.4482 -0.0537  0.2144
 8891TIP3    H148164   3.952   1.895  15.298  0.2103  0.6793  0.1681
 8891TIP3    H248165   4.014   1.874  15.161 -0.5562  1.2620 -0.2687
 8892TIP3   OH248166   2.867   6.142   3.161  0.1679  0.2041 -0.4603
 8892TIP3    H148167   2.842   6.059   3.120  1.5956 -1.3371  1.6794
 8892TIP3    H248168   2.919   6.187   3.094  1.6069 -1.8165 -0.7533
 8893TIP3   OH248169   0.555   5.404  11.506 -0.2628 -0.0591 -0.3562
 8893TIP3    H148170   0.650   5.401  11.507 -0.2396  0.5574  1.1468
 8893TIP3    H248171   0.527   5.327  11.555 -0.4666  0.8472  1.0136
 8894TIP3   OH248172   2.330   5.484  13.741  0.6558  0.2870 -0.6044
 8894TIP3    H148173   2.326   5.548  13.670 -2.0754 -0.0588 -0.8230
 8894TIP3    H248174   2.370   5.531  13.814 -0.8757  2.1409 -0.9089
 8895TIP3   OH248175   2.359   1.637   0.846 -0.3243 -0.1744 -0.4241
 8895TIP3    H148176   2.282   1.648   0.791  0.4449 -0.5050 -1.5851
 8895TIP3    H248177   2.377   1.543   0.844 -1.2444 -0.4209  1.7203
 8896TIP3   OH248178   0.992   5.910   0.889  0.0208  0.4635  0.4038
 8896TIP3    H148179   1.082   5.912   0.854  0.8147  1.3392  2.3958
 8896TIP3    H248180   1.000   5.865   0.973 -1.1888  1.5965  1.1450
 8897TIP3   OH248181   4.032   3.188   5.589 -0.6033 -0.0401  0.1718
 8897TIP3    H148182   3.999   3.236   5.665 -1.6908  0.2038 -0.4440
 8897TIP3    H248183   3.990   3.102   5.594 -0.1416 -0.2646  0.2208
 8898TIP3   OH248184   0.647   6.659  11.924  0.3706  0.5349 -0.3402
 8898TIP3    H148185   0.718   6.657  11.988 -0.8514  1.2912  1.0694
 8898TIP3    H248186   0.574   6.617  11.968 -1.2548  3.3247 -0.2697
 8899TIP3   OH248187   5.062   6.774  13.266 -0.3740 -0.3382 -0.3624
 8899TIP3    H148188   5.001   6.842  13.293 -0.4451 -1.0098  1.1946
 8899TIP3    H248189   5.087   6.730  13.347  0.9666 -1.0824 -1.1665
 8900TIP3   OH248190   6.354   3.286   0.742  0.5487 -0.4590 -0.3393
 8900TIP3    H148191   6.374   3.366   0.695  0.3060  0.0539  0.4088
 8900TIP3    H248192   6.332   3.315   0.831  2.2158 -1.4962  0.4440
 8901TIP3   OH248193   0.338   4.916   5.856  0.5605  0.2978  0.0890
 8901TIP3    H148194   0.430   4.892   5.850  0.8354  1.6352 -1.1175
 8901TIP3    H248195   0.335   4.990   5.916 -0.0422 -1.2748  2.0736
 8902TIP3   OH248196   3.143   0.459  11.652  0.1721  0.2367  0.3020
 8902TIP3    H148197   3.210   0.415  11.703  0.3581 -1.1415 -1.0995
 8902TIP3    H248198   3.100   0.518  11.714  1.3617 -0.3199  1.6687
 8903TIP3   OH248199   4.418   6.402   4.745  0.1943 -0.3353  0.7898
 8903TIP3    H148200   4.418   6.314   4.783 -1.1943 -0.6504  0.0922
 8903TIP3    H248201   4.333   6.438   4.768  0.3436  0.4289  0.1641
 8904TIP3   OH248202   2.839   5.931  15.239 -0.3092  0.4289 -0.0046
 8904TIP3    H148203   2.873   5.986  15.168 -0.4122 -0.2688 -0.5977
 8904TIP3    H248204   2.751   5.965  15.255 -0.3438  0.4874 -0.3139
 8905TIP3   OH248205   0.087   4.157  14.588  0.1916  0.5161  0.1517
 8905TIP3    H148206   0.111   4.250  14.586 -0.4733  0.6862  0.0168
 8905TIP3    H248207   0.020   4.151  14.655  1.5130 -0.1891  1.4296
 8906TIP3   OH248208   2.036   0.944   4.526  0.4534 -0.0202 -0.4942
 8906TIP3    H148209   1.998   0.943   4.438  0.8216 -1.5701 -0.6614
 8906TIP3    H248210   1.969   0.903   4.581  0.1308  1.1557 -0.0162
 8907TIP3   OH248211   0.341   1.540  14.414  0.1299 -0.3003 -0.4797
 8907TIP3    H148212   0.357   1.456  14.371  0.8912  0.0512 -0.8942
 8907TIP3    H248213   0.401   1.541  14.488 -1.1867 -0.9095  0.6190
 8908TIP3   OH248214   6.555   3.787   0.325  0.6865  0.0788  0.1276
 8908TIP3    H148215   6.630   3.767   0.381  0.7935  0.2588  0.0487
 8908TIP3    H248216   6.488   3.820   0.386  0.7838  0.2239  0.1553
 8909TIP3   OH248217   6.079   1.792  14.980 -0.1941  0.1625  0.1507
 8909TIP3    H148218   6.167   1.802  15.016 -0.0706  0.2049 -0.1665
 8909TIP3    H248219   6.078   1.703  14.944 -0.2988  0.1426  0.2029
 8910TIP3   OH248220   6.636   2.925   3.678  0.0820 -0.1966 -0.2861
 8910TIP3    H148221   6.678   3.002   3.716 -0.7077 -0.0011  0.1797
 8910TIP3    H248222   6.709   2.876   3.639  0.7390  0.1737  0.4619
 8911TIP3   OH248223   5.431   0.327  13.081 -0.2890 -0.1521  0.2411
 8911TIP3    H148224   5.399   0.248  13.125  0.4952 -0.3780  0.4036
 8911TIP3    H248225   5.433   0.393  13.150 -2.4382  0.4351 -0.2302
 8912TIP3   OH248226   0.357   2.170  12.179 -0.0132  0.1247  0.0322
 8912TIP3    H148227   0.357   2.126  12.265  2.8985 -0.6115 -0.3202
 8912TIP3    H248228   0.420   2.121  12.127  0.1374  2.1548 -1.7491
 8913TIP3   OH248229   2.762   1.829  13.891  0.5387 -0.1581 -0.3767
 8913TIP3    H148230   2.704   1.788  13.955 -2.3327  1.4177 -1.8613
 8913TIP3    H248231   2.825   1.878  13.943  0.6043 -1.9627  1.2815
 8914TIP3   OH248232   6.569   1.235   4.168  0.3771 -0.5876 -0.2022
 8914TIP3    H148233   6.491   1.218   4.222  0.5918 -0.2112  0.2237
 8914TIP3    H248234   6.604   1.148   4.149  0.0806 -0.7410 -0.0555
 8915TIP3   OH248235   2.736   0.814   4.553  0.1363 -0.4689 -0.1967
 8915TIP3    H148236   2.792   0.765   4.613  0.4465 -1.0001 -0.9144
 8915TIP3    H248237   2.743   0.767   4.470 -1.7986 -0.8653 -0.1538
 8916TIP3   OH248238   3.384   1.786   6.583  0.3082 -0.5121 -0.6773
 8916TIP3    H148239   3.455   1.732   6.617 -0.4809 -0.8670  0.4341
 8916TIP3    H248240   3.375   1.857   6.646 -1.0203 -1.0505 -0.2340
 8917TIP3   OH248241   3.057   1.666   3.060  0.4464 -0.6619 -0.1892
 8917TIP3    H148242   3.078   1.684   3.152 -1.4546 -2.7805  0.7135
 8917TIP3    H248243   3.141   1.670   3.015  1.1617  2.3429  1.2773
 8918TIP3   OH248244   0.353   2.582   3.761  0.1030  0.4023  0.1593
 8918TIP3    H148245   0.334   2.599   3.669 -0.8149  1.1434  0.4779
 8918TIP3    H248246   0.287   2.518   3.788 -0.7151  1.4883  0.7515
 8919TIP3   OH248247   6.754   4.592  16.367  0.5932  0.4776 -0.1721
 8919TIP3    H148248   6.748   4.496  16.373  1.4563  0.3909 -0.6105
 8919TIP3    H248249   6.768   4.621  16.457 -0.6850  0.2801  0.1044
 8920TIP3   OH248250   2.957   3.154   5.398  0.0175  0.7054 -0.3264
 8920TIP3    H148251   2.875   3.142   5.447 -0.4459  0.3791 -1.1721
 8920TIP3    H248252   2.981   3.245   5.414 -1.0238  1.0758 -0.8542
 8921TIP3   OH248253   3.680   6.502  15.827 -0.6680  0.1093  0.1657
 8921TIP3    H148254   3.594   6.492  15.787  0.1528 -0.7770 -1.4622
 8921TIP3    H248255   3.741   6.472  15.759  0.8026 -1.1708  2.0083
 8922TIP3   OH248256   0.778   0.270   4.151  0.2680  0.3189 -0.1700
 8922TIP3    H148257   0.872   0.269   4.170  0.1764 -3.5549  0.4318
 8922TIP3    H248258   0.738   0.231   4.228 -1.5178 -1.2646 -1.8509
 8923TIP3   OH248259   5.955   4.356   2.891  0.3466  0.7529  0.5368
 8923TIP3    H148260   5.934   4.327   2.980  2.6373 -0.0050  0.8634
 8923TIP3    H248261   5.871   4.380   2.853 -0.8367 -0.3366  2.4013
 8924TIP3   OH248262   1.569   6.618   0.057  1.0109  0.1887 -0.1710
 8924TIP3    H148263   1.492   6.660   0.019  1.1354  0.6551  0.0946
 8924TIP3    H248264   1.582   6.662   0.141  0.6062 -0.9801  0.5214
 8925TIP3   OH248265   1.610   3.585  17.186  0.2235 -0.2523  0.3035
 8925TIP3    H148266   1.585   3.627  17.268  1.0236 -0.4623  0.6588
 8925TIP3    H248267   1.692   3.627  17.161 -0.2686  0.1554 -0.6521
 8926TIP3   OH248268   3.695   4.342  13.333 -0.3285 -0.0701 -0.3996
 8926TIP3    H148269   3.620   4.364  13.277 -0.5720 -0.8325 -0.3740
 8926TIP3    H248270   3.657   4.297  13.408  0.1792 -0.7014 -0.5142
 8927TIP3   OH248271   2.669   1.983  15.871  0.0561 -0.3200 -0.0454
 8927TIP3    H148272   2.751   2.031  15.859 -0.0649 -0.3365 -0.9207
 8927TIP3    H248273   2.632   2.020  15.951 -0.8321  2.1754 -1.5661
 8928TIP3   OH248274   1.782   4.627   0.241  0.2749  0.7618  0.0969
 8928TIP3    H148275   1.849   4.696   0.241  0.4874  0.5640  2.0046
 8928TIP3    H248276   1.824   4.554   0.195  0.3268  1.6287 -1.2570
 8929TIP3   OH248277   4.841   2.806  13.431  0.1474  0.4019 -0.2652
 8929TIP3    H148278   4.926   2.849  13.421 -0.0649  1.4111  2.0139
 8929TIP3    H248279   4.856   2.737  13.495 -0.2540 -0.9074 -1.5488
 8930TIP3   OH248280   4.189   0.020  17.178 -0.4218  0.9502 -0.3005
 8930TIP3    H148281   4.155  -0.066  17.199 -1.0123  1.3839  0.5241
 8930TIP3    H248282   4.223   0.054  17.260 -3.1113  2.8148  0.1119
 8931TIP3   OH248283   2.221   5.374  12.482 -0.6192  0.5074  0.1632
 8931TIP3    H148284   2.206   5.320  12.560 -1.7155  0.6620  0.0697
 8931TIP3    H248285   2.262   5.314  12.420 -1.8370 -0.2312  0.0567
 8932TIP3   OH248286   6.393   5.977  12.666 -0.6826  0.2418  0.3721
 8932TIP3    H148287   6.466   6.033  12.641 -1.1057  1.5239  1.9729
 8932TIP3    H248288   6.376   5.925  12.588  1.2140  0.7021 -0.3875
 8933TIP3   OH248289   1.320   5.555   0.863  0.2340  0.4419  0.3151
 8933TIP3    H148290   1.324   5.472   0.814  2.6433  0.4071  0.5085
 8933TIP3    H248291   1.258   5.608   0.815 -1.2662 -1.4346  0.1071
 8934TIP3   OH248292   3.211   2.759   0.345  0.2443 -0.6621  0.3061
 8934TIP3    H148293   3.302   2.734   0.328  0.3810 -1.1554  1.6597
 8934TIP3    H248294   3.185   2.810   0.269  1.6992 -0.4036 -0.0317
 8935TIP3   OH248295   2.814   1.525   1.267  0.2548 -0.5325  0.4288
 8935TIP3    H148296   2.883   1.572   1.314  1.0350 -0.2502 -0.9368
 8935TIP3    H248297   2.862   1.462   1.213 -0.5438 -0.2079 -0.6734
 8936TIP3   OH248298   4.078   1.314   4.875  0.0038  0.9294 -0.3485
 8936TIP3    H148299   4.013   1.253   4.910  0.8178 -0.0628 -0.5398
 8936TIP3    H248300   4.146   1.318   4.943  0.8473  0.1899 -1.1411
 8937TIP3   OH248301   6.438   6.442   1.512 -0.1831 -0.0362  0.0440
 8937TIP3    H148302   6.519   6.404   1.478 -0.1591 -0.5434  0.6636
 8937TIP3    H248303   6.457   6.464   1.603 -0.9387 -0.8178  0.4074
 8938TIP3   OH248304   2.556   3.714  11.966  0.0913 -0.4778 -0.6917
 8938TIP3    H148305   2.591   3.798  11.936 -0.0736 -0.6447 -1.3504
 8938TIP3    H248306   2.633   3.664  11.993  0.1075  0.2930  0.7738
 8939TIP3   OH248307   2.727   0.368   3.560 -0.4674 -0.4021  0.1903
 8939TIP3    H148308   2.662   0.300   3.544  0.3337 -1.3236  0.7807
 8939TIP3    H248309   2.731   0.416   3.477  1.5964 -3.3682 -1.5585
 8940TIP3   OH248310   4.542   4.031  13.299  0.5775 -0.0852 -0.2462
 8940TIP3    H148311   4.448   4.042  13.284  0.8698  1.8892 -0.7422
 8940TIP3    H248312   4.555   4.059  13.389  0.4068 -2.2869  0.5021
 8941TIP3   OH248313   6.660   1.981  11.083 -0.1829  0.1817  0.0134
 8941TIP3    H148314   6.661   1.975  10.987  0.4365 -0.9658  0.0774
 8941TIP3    H248315   6.702   1.899  11.112 -0.1151  0.6500  1.2546
 8942TIP3   OH248316   0.571   1.820  15.378  0.4016  0.3552 -0.0482
 8942TIP3    H148317   0.606   1.908  15.389 -0.0199  0.9427 -2.8752
 8942TIP3    H248318   0.634   1.775  15.322 -1.6333  0.3633 -2.4359
 8943TIP3   OH248319   2.317   5.759   1.584 -0.8852 -0.1393 -0.1743
 8943TIP3    H148320   2.396   5.710   1.604 -1.2101 -0.4098  0.4539
 8943TIP3    H248321   2.286   5.722   1.501  0.2302  0.7038 -0.9826
 8944TIP3   OH248322   3.725   1.376  12.844 -0.5369 -0.3845  0.1661
 8944TIP3    H148323   3.757   1.313  12.909 -1.8597 -0.6888  0.5269
 8944TIP3    H248324   3.641   1.342  12.816 -0.9845  0.8996 -0.1025
 8945TIP3   OH248325   1.793   1.078  16.182  0.0317 -0.3550  0.3098
 8945TIP3    H148326   1.827   1.166  16.196 -0.2494 -0.4425  1.6250
 8945TIP3    H248327   1.832   1.050  16.099  2.4223 -0.0609  1.2736
 8946TIP3   OH248328   2.744   1.746  13.630 -0.2749 -0.3210 -0.0028
 8946TIP3    H148329   2.668   1.787  13.590 -0.6159 -0.7818  0.1640
 8946TIP3    H248330   2.752   1.787  13.716  0.3998  0.6005 -0.4901
 8947TIP3   OH248331   3.136   3.392  11.383  0.2029  0.3380  0.2467
 8947TIP3    H148332   3.213   3.347  11.346  0.3486 -0.1786  1.1684
 8947TIP3    H248333   3.110   3.454  11.315  2.2184  1.4318  0.4358
 8948TIP3   OH248334   1.547   0.453   3.585  0.3926 -0.2634 -0.5631
 8948TIP3    H148335   1.523   0.543   3.604 -1.4313 -0.9371  0.4051
 8948TIP3    H248336   1.520   0.440   3.494 -0.3211 -0.1674 -0.3638
 8949TIP3   OH248337   4.938   2.641  15.944 -0.3194 -0.8796  0.2539
 8949TIP3    H148338   5.033   2.647  15.952 -0.3412 -0.2660  0.0639
 8949TIP3    H248339   4.904   2.719  15.988 -0.7229 -0.9609  0.0966
 8950TIP3   OH248340   6.456   0.948   1.616 -0.0818  0.2669  0.3290
 8950TIP3    H148341   6.487   0.943   1.707  1.1775  2.4504  0.0371
 8950TIP3    H248342   6.502   0.877   1.571  1.0185  0.6293  0.8918
 8951TIP3   OH248343   2.716   5.608   6.396  0.9836 -0.0586  0.0104
 8951TIP3    H148344   2.789   5.662   6.426 -0.0929  0.4137  1.8792
 8951TIP3    H248345   2.640   5.640   6.446 -0.8308  0.4375 -2.9192
 8952TIP3   OH248346   0.710   1.912   4.852 -0.0161  0.0381  0.2262
 8952TIP3    H148347   0.752   1.888   4.770 -1.0012  2.7980 -1.1234
 8952TIP3    H248348   0.623   1.873   4.846  0.4971 -1.2082  0.7276
 8953TIP3   OH248349   1.754   5.276   6.110  0.3178 -0.2994  0.0198
 8953TIP3    H148350   1.698   5.284   6.033 -0.4835  2.0320  0.8069
 8953TIP3    H248351   1.693   5.261   6.182  1.1079 -3.2268  0.1595
 8954TIP3   OH248352   3.017   2.078   1.045 -0.1926 -0.0641  0.1012
 8954TIP3    H148353   2.976   2.133   1.112  0.4993  2.0922 -1.1982
 8954TIP3    H248354   2.981   2.110   0.963  1.4101 -0.5121 -0.7914
 8955TIP3   OH248355   6.608   0.382   0.025  0.0039  0.6507 -0.3934
 8955TIP3    H148356   6.541   0.446   0.052 -0.8246 -0.2502 -0.2693
 8955TIP3    H248357   6.563   0.326  -0.038 -0.0270 -1.2871  1.2787
 8956TIP3   OH248358   6.138   3.992   4.584 -0.0372 -0.0509 -0.2923
 8956TIP3    H148359   6.173   3.975   4.671  0.0815  0.0880 -0.3130
 8956TIP3    H248360   6.089   4.074   4.593  0.1688  0.0861 -0.4106
 8957TIP3   OH248361   0.680   3.222   1.385  0.2339  0.2460 -0.2387
 8957TIP3    H148362   0.660   3.282   1.312 -0.8325  0.7911  0.4901
 8957TIP3    H248363   0.643   3.138   1.357 -0.7727  0.6183 -0.0340
 8958TIP3   OH248364   0.723   4.488  16.283 -0.0683  0.1437  0.4944
 8958TIP3    H148365   0.729   4.458  16.192 -0.5058  0.1866  0.4518
 8958TIP3    H248366   0.812   4.514  16.305  0.2834 -1.0011  0.4669
 8959TIP3   OH248367   1.951   5.675   4.034 -0.0974 -0.0889  0.0135
 8959TIP3    H148368   1.875   5.652   3.980  0.1779 -0.4741 -0.2190
 8959TIP3    H248369   1.957   5.604   4.097 -0.1660  0.1463  0.2860
 8960TIP3   OH248370   5.389   5.316   0.072 -0.3342  0.0984 -0.5420
 8960TIP3    H148371   5.387   5.354  -0.016  0.3674  0.2091 -0.5201
 8960TIP3    H248372   5.418   5.388   0.128 -0.9154  0.0658 -0.1985
 8961TIP3   OH248373   6.526   3.407   3.758  0.2100 -0.3106  0.0012
 8961TIP3    H148374   6.487   3.379   3.676 -1.0287 -1.7230  1.0489
 8961TIP3    H248375   6.535   3.502   3.749 -0.9836 -0.3072 -1.3072
 8962TIP3   OH248376   5.697   1.424   2.718 -0.5559  0.1371 -0.3016
 8962TIP3    H148377   5.744   1.497   2.758  1.5997 -2.2797  1.8698
 8962TIP3    H248378   5.606   1.437   2.742  0.0737  1.1686  1.6319
 8963TIP3   OH248379   5.860   4.629  16.264  0.2620 -0.1408  0.6713
 8963TIP3    H148380   5.780   4.679  16.283  1.1487  0.6034  2.5812
 8963TIP3    H248381   5.874   4.640  16.170 -1.4069  0.4278  0.4728
 8964TIP3   OH248382   4.767   3.578  11.760 -0.2599 -0.1566 -0.2850
 8964TIP3    H148383   4.786   3.500  11.708 -0.1005 -0.6089  0.4551
 8964TIP3    H248384   4.826   3.573  11.835 -1.4217 -0.1861  0.6353
 8965TIP3   OH248385   3.858   3.251   5.800 -0.9443 -0.2753 -0.9786
 8965TIP3    H148386   3.875   3.309   5.874  0.7939 -0.1246 -1.4636
 8965TIP3    H248387   3.870   3.163   5.835 -0.7324 -0.2256 -0.9220
 8966TIP3   OH248388   1.382   6.634  12.802  0.1819 -0.0425 -0.2809
 8966TIP3    H148389   1.403   6.650  12.710  0.5320  0.8711 -0.0472
 8966TIP3    H248390   1.289   6.656  12.808  0.0110 -0.6801 -0.5432
 8967TIP3   OH248391   2.880   1.460   2.929 -0.0875 -0.4614  0.3029
 8967TIP3    H148392   2.827   1.518   2.874  0.3709 -1.3666 -1.1108
 8967TIP3    H248393   2.939   1.519   2.976 -2.1557  0.5331  1.7070
 8968TIP3   OH248394   0.131   4.855   4.167  0.0386  0.1733  0.0742
 8968TIP3    H148395   0.051   4.906   4.151  1.7432  2.3601 -1.8757
 8968TIP3    H248396   0.129   4.785   4.102 -1.4723 -1.2993  1.6523
 8969TIP3   OH248397   5.248   1.699   0.866 -0.2476  0.9194  0.0307
 8969TIP3    H148398   5.210   1.631   0.811 -0.6173  1.5245 -0.4692
 8969TIP3    H248399   5.225   1.781   0.822  0.9814  1.3353  0.1254
 8970TIP3   OH248400   0.986   2.809   1.146 -0.3748  0.1164  0.4044
 8970TIP3    H148401   0.919   2.741   1.138 -0.8013  0.6668 -0.9189
 8970TIP3    H248402   0.944   2.878   1.199 -0.8861  0.4904 -0.4814
 8971TIP3   OH248403   5.662   0.641   3.150 -0.1226  0.2662  0.1967
 8971TIP3    H148404   5.757   0.644   3.142  0.0291 -1.1883  1.2391
 8971TIP3    H248405   5.640   0.714   3.207  0.4328  0.2159  0.4744
 8972TIP3   OH248406   0.118   5.160  11.778 -0.4453 -0.0053 -0.1183
 8972TIP3    H148407   0.114   5.086  11.717 -0.1936 -0.7334  0.7526
 8972TIP3    H248408   0.043   5.148  11.836 -1.9900  1.8999 -1.6427
 8973TIP3   OH248409   2.344   5.355  15.038  0.4038  0.3625 -0.8736
 8973TIP3    H148410   2.256   5.353  15.001 -0.6110 -4.2196  1.3736
 8973TIP3    H248411   2.400   5.316  14.970 -0.0477 -0.5729 -0.7136
 8974TIP3   OH248412   5.777   0.283  11.953 -0.3883 -0.6156  0.0453
 8974TIP3    H148413   5.736   0.284  12.040  1.3867 -0.9232  0.9151
 8974TIP3    H248414   5.708   0.256  11.894 -1.5635 -0.6497  1.4101
 8975TIP3   OH248415   2.234   3.952  13.457  0.3838  0.4122  0.1086
 8975TIP3    H148416   2.283   3.990  13.530  1.9635 -1.6844  0.2051
 8975TIP3    H248417   2.301   3.928  13.393 -0.7413 -0.2768 -0.8430
 8976TIP3   OH248418   3.755   0.254  10.646 -0.0758 -1.2611 -0.1651
 8976TIP3    H148419   3.679   0.301  10.678  0.9489  0.1920  0.1987
 8976TIP3    H248420   3.720   0.191  10.583 -1.6124 -0.9726  0.3893
 8977TIP3   OH248421   1.248   3.586   1.621  0.4062  0.5013  0.6477
 8977TIP3    H148422   1.198   3.630   1.690 -1.2794 -0.6131  0.1850
 8977TIP3    H248423   1.192   3.594   1.543  0.8761 -0.9212  0.1578
 8978TIP3   OH248424   2.156   5.074  17.038 -0.1758 -0.1561 -0.3040
 8978TIP3    H148425   2.065   5.093  17.060  0.7899  0.1050  3.8944
 8978TIP3    H248426   2.202   5.156  17.055  0.7199  0.0773 -3.5925
 8979TIP3   OH248427   5.341   4.963   0.770 -0.6943  0.1814 -0.1437
 8979TIP3    H148428   5.412   4.918   0.724 -1.2901 -0.6640 -0.2678
 8979TIP3    H248429   5.376   5.048   0.793  0.7354 -0.6451  0.7783
 8980TIP3   OH248430   5.187   1.711  16.246  0.0490 -0.1725  0.0977
 8980TIP3    H148431   5.150   1.648  16.308 -1.3300 -1.3003 -1.8589
 8980TIP3    H248432   5.116   1.773  16.229 -0.5151 -1.5112 -2.5501
 8981TIP3   OH248433   2.739   4.750  14.615 -0.4293 -0.0217  0.0506
 8981TIP3    H148434   2.827   4.739  14.651 -0.8955 -1.5198  0.7662
 8981TIP3    H248435   2.741   4.703  14.532 -0.9661 -1.2753  0.7420
 8982TIP3   OH248436   5.649   5.489  13.455 -0.0282  0.2129  0.1955
 8982TIP3    H148437   5.629   5.482  13.362  0.7674 -0.2616  0.0674
 8982TIP3    H248438   5.672   5.581  13.467 -0.1605  0.2818 -0.0635
 8983TIP3   OH248439   5.680   1.726   0.011 -0.2346 -0.5542  0.0595
 8983TIP3    H148440   5.752   1.781  -0.020 -0.2757 -1.4717 -1.7502
 8983TIP3    H248441   5.607   1.748  -0.046 -0.9454 -0.7759  0.8724
 8984TIP3   OH248442   2.115   4.565  16.298 -0.1107 -0.1738 -0.4599
 8984TIP3    H148443   2.020   4.561  16.287 -0.0931 -0.1396 -0.6304
 8984TIP3    H248444   2.146   4.481  16.262 -0.0067  0.1632 -1.1613
 8985TIP3   OH248445   1.952   6.607  15.317  0.0352  0.0240  0.1092
 8985TIP3    H148446   1.981   6.528  15.364 -0.0999  0.4009  0.8314
 8985TIP3    H248447   1.979   6.592  15.226 -0.0927 -0.9078  0.2211
 8986TIP3   OH248448   0.657   3.757   2.458  0.1987  0.6304 -0.2779
 8986TIP3    H148449   0.571   3.727   2.431  0.4220  0.8717 -1.3070
 8986TIP3    H248450   0.641   3.810   2.536 -0.6707  1.1794 -0.8115
 8987TIP3   OH248451   1.184   5.900   4.966  0.1568  0.2796  0.2517
 8987TIP3    H148452   1.201   5.806   4.968 -2.3132 -0.2816 -1.9787
 8987TIP3    H248453   1.125   5.916   5.039 -0.0558 -0.0336  0.1458
 8988TIP3   OH248454   4.612   4.486  14.004  0.1233  0.4264  0.4458
 8988TIP3    H148455   4.569   4.401  14.007  2.6451 -0.8644  2.1340
 8988TIP3    H248456   4.588   4.530  14.086 -0.3387  0.9115  0.0537
 8989TIP3   OH248457   0.577   4.155  13.292 -0.0567  0.2359  0.0969
 8989TIP3    H148458   0.655   4.207  13.272 -0.3282  0.3436 -0.6818
 8989TIP3    H248459   0.607   4.064  13.285 -0.2305  0.2728 -1.1051
 8990TIP3   OH248460   4.227   1.835   2.363 -0.3629  0.0946  0.4844
 8990TIP3    H148461   4.283   1.758   2.354  0.5643  0.7432  0.5593
 8990TIP3    H248462   4.138   1.803   2.349  0.0800 -0.8560 -0.1697
 8991TIP3   OH248463   3.151   1.038   4.460 -0.2829  0.3332 -0.6290
 8991TIP3    H148464   3.151   0.945   4.438 -0.5527  0.6015 -1.8067
 8991TIP3    H248465   3.175   1.082   4.379 -0.6254  1.3248 -0.2043
 8992TIP3   OH248466   5.842   3.100  13.285  0.2490  0.1459 -0.2074
 8992TIP3    H148467   5.793   3.095  13.204  0.8465  1.9905 -0.7151
 8992TIP3    H248468   5.925   3.142  13.260  0.3111  1.0116  1.3877
 8993TIP3   OH248469   5.530   5.493  14.781 -0.0250 -0.2443  0.4287
 8993TIP3    H148470   5.558   5.585  14.785 -2.9294  0.6599  1.2198
 8993TIP3    H248471   5.466   5.491  14.710 -1.1605 -1.2862  1.4476
 8994TIP3   OH248472   4.299   6.260   2.581 -0.1030 -0.1689  0.3947
 8994TIP3    H148473   4.240   6.334   2.565 -1.2057 -1.4250 -1.4771
 8994TIP3    H248474   4.251   6.205   2.643  0.7551  0.6820  1.8569
 8995TIP3   OH248475   6.357   1.953   6.017 -0.5967 -0.2698  0.2621
 8995TIP3    H148476   6.451   1.939   6.027 -0.4166  1.3031  0.8837
 8995TIP3    H248477   6.324   1.868   5.987  1.1015 -0.6485 -0.6430
 8996TIP3   OH248478   3.083   6.619   0.297 -0.1349 -0.1758 -0.3569
 8996TIP3    H148479   3.160   6.617   0.353  0.6485 -1.3500 -1.4401
 8996TIP3    H248480   3.030   6.692   0.330  0.0414 -1.1948  2.2311
 8997TIP3   OH248481   1.346   1.110   5.462  0.3907 -0.3152 -0.0410
 8997TIP3    H148482   1.369   1.193   5.504  0.1586 -0.2618 -0.0184
 8997TIP3    H248483   1.260   1.125   5.425  0.6020 -0.3613 -0.5525
 8998TIP3   OH248484   3.497   3.371   1.279 -0.5028 -0.2238  0.7984
 8998TIP3    H148485   3.423   3.316   1.256  0.8759 -1.0502 -1.8817
 8998TIP3    H248486   3.551   3.316   1.336 -0.3000 -0.8565  0.0147
 8999TIP3   OH248487   3.485   5.376  12.549 -0.2664 -0.0906 -0.2011
 8999TIP3    H148488   3.570   5.419  12.554 -0.5053  0.4920 -1.0116
 8999TIP3    H248489   3.504   5.290  12.511  0.3563 -1.1573  2.4269
 9000TIP3   OH248490   3.359   4.522  11.924 -0.0721 -0.1969  0.5848
 9000TIP3    H148491   3.424   4.572  11.972 -1.3051  1.0060  1.0130
 9000TIP3    H248492   3.280   4.526  11.978 -1.4664  1.1284 -1.4933
 9001TIP3   OH248493   4.992   4.127   0.096  0.8330  0.1101 -0.3489
 9001TIP3    H148494   5.009   4.034   0.084  1.3778  0.0248  1.0349
 9001TIP3    H248495   5.078   4.166   0.110  0.3795  0.3748  1.9772
 9002TIP3   OH248496   2.728   3.534   4.650 -0.3021  0.4053 -0.1824
 9002TIP3    H148497   2.697   3.621   4.675 -1.3537  0.7024 -2.4178
 9002TIP3    H248498   2.670   3.474   4.696  0.0464  0.8784  0.8935
 9003TIP3   OH248499   6.677   5.084  16.137 -0.8454  0.2054 -0.0864
 9003TIP3    H148500   6.755   5.036  16.164 -1.3115 -0.5056  0.0033
 9003TIP3    H248501   6.689   5.101  16.044 -0.2406  0.7498  0.0881
 9004TIP3   OH248502   6.066   1.309  13.659 -0.6880  0.0193 -0.7244
 9004TIP3    H148503   6.147   1.265  13.635 -0.6437  0.4264 -1.3305
 9004TIP3    H248504   6.081   1.341  13.748 -1.2134 -2.3338  0.2376
 9005TIP3   OH248505   2.326   6.192  16.905  0.1398  1.1945 -0.5295
 9005TIP3    H148506   2.371   6.177  16.988 -0.0297 -1.6999 -0.9195
 9005TIP3    H248507   2.233   6.183  16.927  0.1506 -1.0060 -1.2612
 9006TIP3   OH248508   0.679   4.842   4.611  0.4557 -0.9141  0.5623
 9006TIP3    H148509   0.695   4.886   4.527 -0.3094 -0.7547  0.4969
 9006TIP3    H248510   0.717   4.901   4.676  3.6939 -2.3922  0.1541
 9007TIP3   OH248511   4.902   2.900  13.745  0.4190 -0.0464  0.1073
 9007TIP3    H148512   4.893   2.980  13.798  0.7858 -1.4140  2.2943
 9007TIP3    H248513   4.985   2.911  13.699  1.3610  0.0652  1.7872
 9008TIP3   OH248514   0.494   1.102  17.247  0.3558  0.5740 -0.2553
 9008TIP3    H148515   0.505   1.012  17.278 -0.3166  0.5048 -0.1998
 9008TIP3    H248516   0.512   1.098  17.153  0.3186  0.3791 -0.2561
 9009TIP3   OH248517   3.725   0.888   4.107  0.0823 -0.3736  0.4197
 9009TIP3    H148518   3.797   0.909   4.047 -1.0013  0.2690 -0.6744
 9009TIP3    H248519   3.690   0.805   4.073  2.0309 -2.1595  2.5795
 9010TIP3   OH248520   6.218   2.539  12.077  0.0081 -0.0836 -0.2784
 9010TIP3    H148521   6.172   2.529  11.994  0.6211 -0.9938 -0.5134
 9010TIP3    H248522   6.218   2.452  12.116  0.7489  0.0945  0.1427
 9011TIP3   OH248523   3.089   4.597  12.001  0.5944 -0.2431 -0.0594
 9011TIP3    H148524   3.094   4.613  11.906  2.2227 -0.8881 -0.0945
 9011TIP3    H248525   2.999   4.619  12.024  0.0061 -0.6814 -1.8704
 9012TIP3   OH248526   0.323   6.087  16.271  0.0479 -0.1952  0.1778
 9012TIP3    H148527   0.345   6.052  16.185 -0.3267 -0.4279  0.1799
 9012TIP3    H248528   0.317   6.010  16.328 -1.1447 -0.1614  0.0985
 9013TIP3   OH248529   1.669   6.332  16.874 -0.1159  0.2500  0.1441
 9013TIP3    H148530   1.669   6.261  16.939  2.4872  1.0976  1.1123
 9013TIP3    H248531   1.674   6.412  16.927 -0.1346  1.0333 -1.0358
 9014TIP3   OH248532   2.431   0.742  11.737 -0.2436 -0.2597  0.2903
 9014TIP3    H148533   2.455   0.835  11.727 -0.0141 -0.2188  1.1784
 9014TIP3    H248534   2.368   0.741  11.809 -0.1380 -0.8117  0.3726
 9015TIP3   OH248535   4.759   0.172   3.518 -0.0223  0.0258 -0.3707
 9015TIP3    H148536   4.757   0.202   3.609 -0.1031  0.7790 -0.6103
 9015TIP3    H248537   4.677   0.205   3.481  1.1446  1.9258 -1.3843
 9016TIP3   OH248538   2.471   2.673  11.474  0.7591  0.4314  0.2367
 9016TIP3    H148539   2.498   2.746  11.419 -0.0471  0.7639  0.2798
 9016TIP3    H248540   2.519   2.598  11.439 -1.4567  0.1577 -2.4046
 9017TIP3   OH248541   4.123   4.979   4.907 -0.0811 -0.0978 -0.0181
 9017TIP3    H148542   4.201   5.035   4.910 -0.7951  1.0381 -1.4744
 9017TIP3    H248543   4.120   4.949   4.816 -1.2097 -0.3033  0.0865
 9018TIP3   OH248544   4.062   1.249   4.366  0.1603 -0.2770 -0.5880
 9018TIP3    H148545   3.974   1.221   4.343  0.3293 -0.6915 -0.7204
 9018TIP3    H248546   4.097   1.179   4.421  1.2629 -1.2302 -2.4483
 9019TIP3   OH248547   5.325   5.346  16.630 -0.6149 -0.6010 -0.4397
 9019TIP3    H148548   5.246   5.391  16.657 -0.7316 -1.5315  0.8082
 9019TIP3    H248549   5.295   5.275  16.574 -0.8006 -1.8130  1.1572
 9020TIP3   OH248550   4.885   4.756  12.167  0.0440 -0.3021  0.0894
 9020TIP3    H148551   4.824   4.768  12.095  1.5838  1.1884 -1.0105
 9020TIP3    H248552   4.901   4.662  12.170 -1.8555 -0.6471  0.0420
 9021TIP3   OH248553   0.285   4.021   4.916 -0.2068  0.0205 -0.5067
 9021TIP3    H148554   0.266   4.108   4.952 -0.6968 -0.4249  0.3189
 9021TIP3    H248555   0.230   3.962   4.967  0.1221 -0.7733 -1.0758
 9022TIP3   OH248556   1.673   3.016   0.433 -0.2042 -0.4038  0.1185
 9022TIP3    H148557   1.702   3.104   0.458 -0.5298 -0.9646  2.5967
 9022TIP3    H248558   1.742   2.958   0.466 -0.7167 -1.1990 -0.2071
 9023TIP3   OH248559   2.879   5.499   0.749 -0.6688  0.1567  0.1092
 9023TIP3    H148560   2.868   5.524   0.841 -0.3264  2.0754 -0.3608
 9023TIP3    H248561   2.965   5.534   0.724 -1.4930  1.1496 -1.4190
 9024TIP3   OH248562   6.537   1.842   1.920 -0.5640 -0.0630  0.3228
 9024TIP3    H148563   6.593   1.861   1.844 -0.3889  0.6394  0.6244
 9024TIP3    H248564   6.595   1.795   1.981 -0.4981  0.0362  0.3369
 9025TIP3   OH248565   1.608   2.345   6.421 -0.1865 -0.4519  0.6026
 9025TIP3    H148566   1.694   2.383   6.402 -0.7881 -0.1274 -1.5691
 9025TIP3    H248567   1.619   2.301   6.505  1.5892  1.2138  1.2624
 9026TIP3   OH248568   0.618   0.522   3.520  0.1773  0.1627  0.4238
 9026TIP3    H148569   0.593   0.561   3.603 -0.4485 -0.0797  0.3541
 9026TIP3    H248570   0.664   0.592   3.473  0.3752  0.3518  0.8958
 9027TIP3   OH248571   3.275   5.380  15.832 -0.0417 -0.5747  0.0786
 9027TIP3    H148572   3.341   5.381  15.762 -1.1004  1.6029 -0.9471
 9027TIP3    H248573   3.324   5.358  15.911  1.8744  0.6270 -0.7290
 9028TIP3   OH248574   5.044   3.583   4.094  0.3121 -0.3587  0.0221
 9028TIP3    H148575   4.993   3.514   4.134  1.1775 -1.8276 -1.3400
 9028TIP3    H248576   5.098   3.619   4.165  1.7893 -2.8655  0.2180
 9029TIP3   OH248577   2.465   1.677  11.154 -0.4896  0.5056  0.1835
 9029TIP3    H148578   2.409   1.652  11.227 -2.0347 -2.9329 -2.0293
 9029TIP3    H248579   2.405   1.707  11.086  0.4714 -0.8622 -1.3231
 9030TIP3   OH248580   0.908   5.754   5.116  0.4837 -0.4982  0.6002
 9030TIP3    H148581   0.955   5.750   5.033 -2.6918  0.2350 -1.3067
 9030TIP3    H248582   0.884   5.663   5.134 -2.4646 -0.1778 -1.4981
 9031TIP3   OH248583   1.768   4.257   4.052  0.1565 -0.3741 -0.1377
 9031TIP3    H148584   1.841   4.273   4.113  0.1081 -1.2350  0.1607
 9031TIP3    H248585   1.715   4.190   4.096 -0.4056 -0.2955 -0.6937
 9032TIP3   OH248586   0.151   1.644   5.418 -0.5072  0.2056 -0.0518
 9032TIP3    H148587   0.104   1.722   5.386 -0.4194  0.1271 -0.3744
 9032TIP3    H248588   0.241   1.657   5.390 -0.6040 -0.2806 -0.6062
 9033TIP3   OH248589   5.509   3.808   3.747 -0.3972 -0.0517  0.5835
 9033TIP3    H148590   5.486   3.901   3.757 -1.2099 -0.1074 -0.5803
 9033TIP3    H248591   5.426   3.762   3.763 -0.2619 -0.4974  0.0062
 9034TIP3   OH248592   4.688   0.946  15.327 -0.2139 -0.7698 -0.6949
 9034TIP3    H148593   4.672   0.861  15.287 -0.1557 -0.7026 -0.8619
 9034TIP3    H248594   4.692   0.928  15.421  0.9591 -1.1360 -0.8098
 9035TIP3   OH248595   5.702   2.286  17.158  0.2285  0.4412  0.0414
 9035TIP3    H148596   5.731   2.374  17.181  1.6995  0.0618 -0.3256
 9035TIP3    H248597   5.656   2.254  17.236 -0.0240  1.4011  0.2870
 9036TIP3   OH248598   1.084   5.502  14.321  0.1988  0.0866  0.3192
 9036TIP3    H148599   1.106   5.459  14.403  1.3355 -1.8582 -0.9517
 9036TIP3    H248600   1.011   5.450  14.286 -0.8744  1.4351  0.5018
 9037TIP3   OH248601   1.864   1.778  11.747  0.0853 -0.5560  0.6942
 9037TIP3    H148602   1.907   1.754  11.664 -0.5001  1.3131 -0.1728
 9037TIP3    H248603   1.927   1.753  11.814  2.7082  2.2787 -0.5445
 9038TIP3   OH248604   0.583   1.393  15.848  0.4745 -0.0621  0.1824
 9038TIP3    H148605   0.543   1.464  15.899  0.9727  1.0350 -0.9158
 9038TIP3    H248606   0.563   1.415  15.757 -0.1786 -1.8581 -0.1344
 9039TIP3   OH248607   0.143   6.059  12.257  0.1448  0.6930 -0.0998
 9039TIP3    H148608   0.159   6.140  12.209  1.6504 -1.6765 -3.8063
 9039TIP3    H248609   0.229   6.020  12.268 -0.6902 -1.0708  0.3897
 9040TIP3   OH248610   6.650   0.592  12.622 -0.2001  0.1085  0.1950
 9040TIP3    H148611   6.727   0.549  12.585  0.9011  0.3736  2.1403
 9040TIP3    H248612   6.683   0.676  12.654 -0.8291 -0.6832  3.0213
 9041TIP3   OH248613   0.534   1.657  15.943 -0.5421 -0.0059  0.3835
 9041TIP3    H148614   0.571   1.694  15.863  2.0386 -0.9651  1.0748
 9041TIP3    H248615   0.573   1.708  16.014  0.5649 -1.8936  1.1884
 9042TIP3   OH248616   1.696   0.594  11.108  0.2520  0.2939 -0.3994
 9042TIP3    H148617   1.698   0.499  11.114 -0.1526  0.3261  0.2993
 9042TIP3    H248618   1.788   0.620  11.100  0.4671 -0.0675  0.8398
 9043TIP3   OH248619   4.358   5.645   5.719 -0.1323 -0.1274 -0.0555
 9043TIP3    H148620   4.403   5.728   5.738  3.6887 -2.2017  0.3591
 9043TIP3    H248621   4.303   5.665   5.644 -0.8847  3.3034  1.2770
 9044TIP3   OH248622   1.911   0.314   1.140  0.1763  0.4580 -0.3887
 9044TIP3    H148623   1.943   0.393   1.181  0.1056  0.0604  0.4364
 9044TIP3    H248624   1.964   0.305   1.060 -0.0736  1.5280 -0.6731
 9045TIP3   OH248625   2.850   2.903  15.625  0.0902  0.9124  0.0405
 9045TIP3    H148626   2.798   2.955  15.563 -1.4877 -0.4710  0.1632
 9045TIP3    H248627   2.843   2.950  15.707 -0.2075  1.2244 -0.1612
 9046TIP3   OH248628   2.146   3.365  15.191  0.0181  0.1294 -0.4530
 9046TIP3    H148629   2.143   3.285  15.244 -0.9375  0.5702  0.1581
 9046TIP3    H248630   2.236   3.397  15.201 -0.2760  0.4438  1.2331
 9047TIP3   OH248631   0.326   3.691   5.311 -0.4494 -0.4991  0.1068
 9047TIP3    H148632   0.289   3.738   5.386  0.6825  0.9863 -0.2583
 9047TIP3    H248633   0.250   3.645   5.273 -1.3735  0.1999  1.0572
 9048TIP3   OH248634   1.629   0.632  13.620 -1.1200  0.0137  0.3898
 9048TIP3    H148635   1.538   0.662  13.613 -0.9004  0.3700 -1.2432
 9048TIP3    H248636   1.633   0.556  13.563 -0.0886  0.7911 -0.6047
 9049TIP3   OH248637   5.873   2.821  12.784  0.2795  0.9832 -0.2147
 9049TIP3    H148638   5.958   2.825  12.740 -0.1136  1.5493 -0.9500
 9049TIP3    H248639   5.813   2.860  12.721 -0.4862  0.7921  0.3971
 9050TIP3   OH248640   0.237   6.619   5.662  0.2762  0.1241 -0.0293
 9050TIP3    H148641   0.217   6.711   5.674 -2.6679 -0.4020 -0.5014
 9050TIP3    H248642   0.290   6.616   5.583 -0.8978  1.2836 -0.8816
 9051TIP3   OH248643   2.744   1.430   3.233 -0.2216 -0.5979 -0.1504
 9051TIP3    H148644   2.757   1.515   3.190  1.9434 -0.8515 -0.0746
 9051TIP3    H248645   2.817   1.376   3.201  0.1300 -1.5042  2.0760
 9052TIP3   OH248646   5.483   6.116   6.148  0.1240  0.3859  0.1092
 9052TIP3    H148647   5.574   6.145   6.157  0.3559 -0.4291  0.4388
 9052TIP3    H248648   5.486   6.023   6.167 -1.0293  0.6500  1.6678
 9053TIP3   OH248649   0.871   5.876   0.615 -0.0440 -0.3545  0.2530
 9053TIP3    H148650   0.912   5.911   0.536 -0.9655  0.6936  0.2289
 9053TIP3    H248651   0.940   5.879   0.681  1.1451 -2.5223 -0.8409
 9054TIP3   OH248652   3.032   1.685  13.627  0.3829  0.0257 -0.2188
 9054TIP3    H148653   2.938   1.694  13.609  0.1892 -2.2629 -0.5050
 9054TIP3    H248654   3.041   1.706  13.720 -0.3277  0.7575 -0.3098
 9055TIP3   OH248655   4.512   6.334  16.822  0.4509  1.0646  0.1521
 9055TIP3    H148656   4.549   6.250  16.792  0.9293  1.1009  0.6318
 9055TIP3    H248657   4.418   6.321  16.818  0.5225  0.2713  0.8452
 9056TIP3   OH248658   1.114   1.683  11.237  0.0627  0.2646 -0.1558
 9056TIP3    H148659   1.172   1.758  11.254  0.5769 -0.5675  1.9086
 9056TIP3    H248660   1.028   1.722  11.223  1.0058  1.4815 -2.7096
 9057TIP3   OH248661   0.315   3.195   4.025  0.5925  0.1841 -0.2947
 9057TIP3    H148662   0.254   3.235   4.086  0.5678  0.1051 -0.2680
 9057TIP3    H248663   0.393   3.250   4.030  0.2633  0.7158 -0.8755
 9058TIP3   OH248664   4.759   3.858  16.428 -0.4149  0.1468  0.0417
 9058TIP3    H148665   4.665   3.873  16.432 -0.8055 -1.9005 -1.0152
 9058TIP3    H248666   4.785   3.889  16.341 -0.0873  0.7732  0.3588
 9059TIP3   OH248667   2.231   5.644  13.214  0.2151 -0.2434 -0.7906
 9059TIP3    H148668   2.312   5.650  13.163  0.1162 -2.3405 -1.2282
 9059TIP3    H248669   2.173   5.591  13.161 -1.0824  0.3356  0.0251
 9060TIP3   OH248670   3.142   4.324  12.452  0.3031 -0.0994 -0.2999
 9060TIP3    H148671   3.153   4.259  12.520  0.6293 -2.3294 -2.4245
 9060TIP3    H248672   3.183   4.286  12.374 -0.2685  2.2465 -1.8220
 9061TIP3   OH248673   5.739   4.969  17.182  0.2072 -0.0222  0.4888
 9061TIP3    H148674   5.780   5.055  17.189  0.8215 -0.2264 -0.5713
 9061TIP3    H248675   5.663   4.974  17.240 -0.4991  1.6574 -0.5639
 9062TIP3   OH248676   1.311   0.885   3.386 -0.2997  0.3419  0.4085
 9062TIP3    H148677   1.342   0.843   3.306 -1.5796  0.1226  0.0159
 9062TIP3    H248678   1.336   0.977   3.375 -1.9274  0.6429 -1.0128
 9063TIP3   OH248679   0.274   4.625   0.595  0.6061  0.2517  0.4317
 9063TIP3    H148680   0.318   4.708   0.614 -2.2923  1.3867  2.6476
 9063TIP3    H248681   0.184   4.651   0.571  0.2102 -2.1382 -0.8142
 9064TIP3   OH248682   0.753   6.139  16.594  0.5680  0.4977 -0.3223
 9064TIP3    H148683   0.848   6.150  16.592  0.7067 -0.5761 -0.0995
 9064TIP3    H248684   0.726   6.181  16.676  1.2718 -2.0927  1.3265
 9065TIP3   OH248685   0.801   3.545   1.026  0.2563 -0.3025  0.0306
 9065TIP3    H148686   0.761   3.560   0.940  0.4214 -1.5994 -0.2798
 9065TIP3    H248687   0.730   3.561   1.088  0.2466  1.0650 -0.3163
 9066TIP3   OH248688   1.370   3.571   5.576  0.1089  0.1141 -0.5251
 9066TIP3    H148689   1.295   3.514   5.596  0.8520 -0.8891 -0.5658
 9066TIP3    H248690   1.342   3.658   5.606 -0.2841 -0.6321  1.3916
 9067TIP3   OH248691   6.227   6.408  14.606  0.8474  0.1450  0.2115
 9067TIP3    H148692   6.224   6.417  14.511 -0.7722  1.2913  0.3659
 9067TIP3    H248693   6.161   6.342  14.626  1.4194 -0.3380  0.5171
 9068TIP3   OH248694   2.735   4.652   4.296 -0.3131  0.2206 -0.3066
 9068TIP3    H148695   2.773   4.654   4.384 -0.4149  1.2492 -0.2824
 9068TIP3    H248696   2.777   4.725   4.250 -1.4454  0.6853 -0.6142
 9069TIP3   OH248697   1.731   4.790  11.275 -0.6075 -0.9448 -0.1179
 9069TIP3    H148698   1.737   4.816  11.184  3.3620 -1.5804 -0.1076
 9069TIP3    H248699   1.726   4.694  11.273 -1.2420 -0.9294  0.3307
 9070TIP3   OH248700   0.250   0.734   4.132 -0.3180 -0.1589 -0.1082
 9070TIP3    H148701   0.185   0.700   4.193  1.5933 -2.9897  0.4268
 9070TIP3    H248702   0.262   0.825   4.158 -1.0133 -0.7651  2.4677
 9071TIP3   OH248703   6.675   0.832   3.259  0.1726 -0.4012  0.8011
 9071TIP3    H148704   6.734   0.804   3.189 -2.3495  0.0782 -1.6117
 9071TIP3    H248705   6.621   0.755   3.278 -0.1916 -0.0770  1.0972
 9072TIP3   OH248706   0.539   0.986  12.441  0.2370  0.1425 -0.8906
 9072TIP3    H148707   0.466   1.039  12.475 -0.7336 -0.5997 -1.7877
 9072TIP3    H248708   0.589   1.047  12.387  0.7804  0.8799  0.4193
 9073TIP3   OH248709   3.952   5.760   0.012  0.0098 -0.2172  0.3654
 9073TIP3    H148710   3.901   5.689  -0.027 -1.7342 -0.1200  2.3586
 9073TIP3    H248711   3.887   5.813   0.058  1.4522  1.9780 -0.0553
 9074TIP3   OH248712   0.597   0.085  13.352 -0.0498 -0.3839 -0.3621
 9074TIP3    H148713   0.680   0.131  13.336 -1.2279  1.9762  0.0838
 9074TIP3    H248714   0.588   0.084  13.447 -1.4862  1.2155 -0.4462
 9075TIP3   OH248715   5.853   0.719  12.026 -0.2456 -0.5517  0.0625
 9075TIP3    H148716   5.854   0.814  12.037  1.1639 -0.4595 -0.7506
 9075TIP3    H248717   5.920   0.688  12.086  0.2345 -0.9185 -0.6670
 9076TIP3   OH248718   5.060   1.607   4.569  0.2607 -0.4031  0.2244
 9076TIP3    H148719   5.128   1.599   4.502  0.1193 -3.0080  0.3369
 9076TIP3    H248720   5.076   1.692   4.610  1.1375  0.6737 -2.2327
 9077TIP3   OH248721   2.632   5.874  17.260 -0.0510  0.3065  0.2206
 9077TIP3    H148722   2.564   5.851  17.197 -0.5688 -0.5376  1.0748
 9077TIP3    H248723   2.680   5.793  17.273  0.4918  0.6543  0.3819
 9078TIP3   OH248724   4.929   0.780  11.368 -0.5757 -0.1496 -0.4746
 9078TIP3    H148725   4.959   0.869  11.349  1.6253 -0.7520 -0.0437
 9078TIP3    H248726   4.858   0.764  11.306  0.9778  0.8400 -2.5727
 9079TIP3   OH248727   3.498   4.077  13.767 -0.3612 -0.4126  0.6339
 9079TIP3    H148728   3.550   4.080  13.848  2.6503 -2.0141 -1.1273
 9079TIP3    H248729   3.510   3.988  13.735 -0.9190  0.4155 -1.9411
 9080TIP3   OH248730   1.572   0.242   6.213  0.4844  0.2811 -0.9411
 9080TIP3    H148731   1.477   0.232   6.211  0.6084 -1.0122 -0.7724
 9080TIP3    H248732   1.587   0.317   6.270 -0.4903  1.3411 -2.0519
 9081TIP3   OH248733   5.913   1.461  16.538 -0.3518  0.5528 -0.1577
 9081TIP3    H148734   5.897   1.426  16.450 -0.0025 -0.4878  0.1840
 9081TIP3    H248735   5.972   1.535  16.524 -0.1516  0.2761 -0.7911
 9082TIP3   OH248736   0.941   4.519  11.948 -0.0473 -0.1862 -0.0564
 9082TIP3    H148737   0.848   4.512  11.972 -0.1314  0.2743 -0.2419
 9082TIP3    H248738   0.985   4.538  12.031 -0.0240 -1.1843  0.1620
 9083TIP3   OH248739   5.791   0.692  14.121  0.4438 -0.7436 -1.6461
 9083TIP3    H148740   5.805   0.745  14.043 -1.8379 -0.0748 -1.6221
 9083TIP3    H248741   5.706   0.720  14.154  1.8398 -0.2253  1.7016
 9084TIP3   OH248742   2.295   6.176   4.694  0.5023  0.0608  0.7170
 9084TIP3    H148743   2.286   6.170   4.599  0.2941  1.0078  0.6720
 9084TIP3    H248744   2.357   6.248   4.708 -0.9501  1.2076  1.3430
 9085TIP3   OH248745   6.772   1.749  13.041  0.0696  0.6191  0.3229
 9085TIP3    H148746   6.696   1.691  13.034 -0.7826  1.7562  0.0226
 9085TIP3    H248747   6.829   1.724  12.968 -0.8695  1.0023 -0.5396
 9086TIP3   OH248748   1.438   6.505  15.073 -0.4295  0.0053  0.2608
 9086TIP3    H148749   1.523   6.500  15.031 -0.1379 -1.2312  1.0006
 9086TIP3    H248750   1.377   6.466  15.010 -0.6587  1.9052 -0.7520
 9087TIP3   OH248751   1.817   0.110   1.430  0.2417 -0.1840 -0.7033
 9087TIP3    H148752   1.909   0.086   1.443  0.4102  1.3495  1.1535
 9087TIP3    H248753   1.815   0.204   1.445 -1.6865 -0.2470 -0.4672
 9088TIP3   OH248754   1.564   3.641  14.751 -0.0221 -0.7697 -0.0425
 9088TIP3    H148755   1.541   3.638  14.658  2.8019 -1.6231 -0.7753
 9088TIP3    H248756   1.562   3.550  14.779  1.0382 -0.7224  0.2045
 9089TIP3   OH248757   4.233   4.652   3.828 -0.3929  0.4631 -0.1934
 9089TIP3    H148758   4.245   4.609   3.912  2.2622 -1.4119 -1.4295
 9089TIP3    H248759   4.147   4.624   3.797 -0.8320  0.1510  1.2988
 9090TIP3   OH248760   0.227   4.325   2.539 -0.5076 -0.0897  0.0034
 9090TIP3    H148761   0.307   4.275   2.556 -0.4054  0.1985  0.3736
 9090TIP3    H248762   0.215   4.378   2.618 -0.4889  0.6421 -0.4864
 9091TIP3   OH248763   6.505   4.363   3.323  0.1434  0.5533 -0.1603
 9091TIP3    H148764   6.532   4.418   3.249  1.2574 -0.8251 -0.8079
 9091TIP3    H248765   6.564   4.389   3.394  0.0036  0.8848 -0.1616
 9092TIP3   OH248766   1.788   0.738  11.368 -0.4312  0.2565 -0.0235
 9092TIP3    H148767   1.800   0.733  11.274 -0.8238 -1.9392  0.0339
 9092TIP3    H248768   1.799   0.831  11.388 -0.9236  0.8367 -2.3006
 9093TIP3   OH248769   6.418   2.883  17.044 -0.6355  0.3114 -0.1598
 9093TIP3    H148770   6.393   2.885  16.951 -2.1438 -2.4283  0.1404
 9093TIP3    H248771   6.512   2.865  17.043 -0.6444  0.2610 -1.1340
 9094TIP3   OH248772   1.955   1.086   2.227 -0.0206  0.0816  0.0855
 9094TIP3    H148773   2.047   1.091   2.254 -0.3367 -0.3295  1.2821
 9094TIP3    H248774   1.954   1.026   2.153  1.0318  2.1066 -1.6034
 9095TIP3   OH248775   4.464   3.805  16.962 -0.5148 -0.3856 -0.1880
 9095TIP3    H148776   4.530   3.736  16.956  0.0672 -0.1147  2.4297
 9095TIP3    H248777   4.499   3.876  16.908  0.7799 -0.6882  0.2236
 9096TIP3   OH248778   3.437   0.756  14.427 -0.0668  0.6798 -0.1510
 9096TIP3    H148779   3.351   0.740  14.468  1.1974 -3.1734  1.2275
 9096TIP3    H248780   3.418   0.764  14.334 -1.9367 -0.0451  0.1388
 9097TIP3   OH248781   2.437   0.100  12.342 -0.2067 -0.2857 -0.0256
 9097TIP3    H148782   2.420   0.006  12.357  3.0673 -0.8878  0.2009
 9097TIP3    H248783   2.492   0.126  12.416 -0.5083  1.6812 -0.4783
 9098TIP3   OH248784   1.618   5.950  14.863  0.1526  0.2745  0.0434
 9098TIP3    H148785   1.552   5.880  14.857  0.7334 -0.2045 -0.8273
 9098TIP3    H248786   1.567   6.031  14.859 -0.5745 -0.0927  1.5656
 9099TIP3   OH248787   0.905   4.625  16.876  0.1746  0.2809 -0.3699
 9099TIP3    H148788   0.997   4.624  16.901  0.4426  0.2525 -1.3383
 9099TIP3    H248789   0.906   4.615  16.781 -0.8201  0.4719 -0.4052
 9100TIP3   OH248790   2.122   5.452   4.177 -0.6081  0.1442 -0.1169
 9100TIP3    H148791   2.122   5.385   4.110 -2.0025  1.0335 -1.0333
 9100TIP3    H248792   2.174   5.415   4.249  0.6679 -0.9152 -1.5541
 9101TIP3   OH248793   1.080   5.519  15.613  0.0684  0.1479  0.8546
 9101TIP3    H148794   1.076   5.452  15.682  0.2042 -0.4278  0.3095
 9101TIP3    H248795   1.133   5.479  15.544 -1.4732  0.0457 -0.2996
 9102TIP3   OH248796   3.264   0.735  13.294 -0.1618 -0.1820 -0.8255
 9102TIP3    H148797   3.286   0.697  13.209  0.4379 -0.7412 -0.4209
 9102TIP3    H248798   3.305   0.822  13.292  0.7913 -0.6207 -0.6797
 9103TIP3   OH248799   5.534   6.364   3.067  0.0584  0.3953  0.2609
 9103TIP3    H148800   5.473   6.310   3.016  0.4230  0.3643 -0.1479
 9103TIP3    H248801   5.544   6.317   3.149 -3.1117  2.1285  1.7252
 9104TIP3   OH248802   2.567   2.007  16.555  0.2848 -0.2364 -0.0364
 9104TIP3    H148803   2.471   2.013  16.551  0.2590  1.7235  2.4705
 9104TIP3    H248804   2.597   2.070  16.490 -0.1419  1.1383  1.0812
 9105TIP3   OH248805   6.782   3.799   4.726  0.2667 -0.8776 -0.3255
 9105TIP3    H148806   6.749   3.880   4.764  1.4122 -0.9039  0.7609
 9105TIP3    H248807   6.782   3.737   4.798  0.7835 -1.4396 -0.8025
 9106TIP3   OH248808   1.359   6.570  12.492  0.4395 -0.3077 -0.5873
 9106TIP3    H148809   1.420   6.644  12.483  0.2236  0.1614  1.5257
 9106TIP3    H248810   1.361   6.527  12.407  3.1086  0.1787 -0.8188
 9107TIP3   OH248811   1.049   2.045   3.272  0.4017  0.1502  0.3699
 9107TIP3    H148812   0.987   2.101   3.225  0.4354 -0.5488 -0.5104
 9107TIP3    H248813   1.133   2.091   3.265  0.1539  0.6736  0.8334
 9108TIP3   OH248814   0.005   3.563  13.679 -0.3619  0.2488  0.0782
 9108TIP3    H148815  -0.034   3.477  13.670 -0.8183  0.2411  1.9740
 9108TIP3    H248816  -0.035   3.615  13.610 -1.1136 -0.6850 -0.1946
 9109TIP3   OH248817   5.785   2.593   1.362 -0.2414 -0.4268  0.3711
 9109TIP3    H148818   5.790   2.503   1.332 -0.3365  0.3182 -1.9651
 9109TIP3    H248819   5.698   2.623   1.334 -0.0467  0.5132  0.7376
 9110TIP3   OH248820   2.857   1.414   0.383  0.3585  0.4226  0.0937
 9110TIP3    H148821   2.765   1.442   0.377 -0.2537 -1.3584  0.9390
 9110TIP3    H248822   2.853   1.319   0.379  2.1340  0.3169  0.7568
 9111TIP3   OH248823   4.340   4.252  16.765 -0.6465 -0.9231 -0.2162
 9111TIP3    H148824   4.285   4.316  16.719 -1.1720  1.0578  2.9967
 9111TIP3    H248825   4.429   4.282  16.750 -0.7982 -0.4236 -0.1369
 9112TIP3   OH248826   1.807   5.468   2.137 -0.4334  0.5202  0.1140
 9112TIP3    H148827   1.774   5.379   2.126  1.2816 -0.5586  3.0871
 9112TIP3    H248828   1.885   5.459   2.191 -0.8959  3.9334  1.5377
 9113TIP3   OH248829   3.770   4.515  11.536  0.0789 -0.4307  0.4521
 9113TIP3    H148830   3.783   4.430  11.493 -0.6047 -0.6408  0.6635
 9113TIP3    H248831   3.728   4.494  11.619  0.1862  0.0901  0.6392
 9114TIP3   OH248832   4.591   4.357   5.052 -0.2965  0.3499 -0.2358
 9114TIP3    H148833   4.683   4.334   5.039  0.1685  1.0189  1.8255
 9114TIP3    H248834   4.547   4.274   5.069  0.5677  0.4100  2.4362
 9115TIP3   OH248835   3.821   2.105  13.805  0.6309 -0.4394 -0.0684
 9115TIP3    H148836   3.890   2.109  13.739  0.0468 -0.4659 -0.6757
 9115TIP3    H248837   3.825   2.190  13.850  2.5845 -1.2844  1.4428
 9116TIP3   OH248838   4.426   5.963   3.083  0.4491  0.2519  0.1032
 9116TIP3    H148839   4.399   6.049   3.053 -0.0534  0.1032  0.1146
 9116TIP3    H248840   4.344   5.913   3.088  0.6117  0.0616  1.0205
 9117TIP3   OH248841   2.182   2.341   6.164 -0.3434  0.3417 -0.2803
 9117TIP3    H148842   2.133   2.421   6.143 -0.5080  0.6957  1.3360
 9117TIP3    H248843   2.144   2.312   6.248  1.6879  0.2053  0.6134
 9118TIP3   OH248844   6.215   1.921   5.348  0.0770  0.1605 -0.1176
 9118TIP3    H148845   6.246   1.975   5.421 -2.6016  1.4465  0.1323
 9118TIP3    H248846   6.247   1.965   5.270  0.2510  0.5505  0.1690
 9119TIP3   OH248847   4.501   2.594  17.130  0.2585 -0.7856  0.0528
 9119TIP3    H148848   4.541   2.659  17.072 -3.4139  3.5929  2.1378
 9119TIP3    H248849   4.468   2.526  17.070  0.6705  1.2533 -2.5959
 9120TIP3   OH248850   0.140   3.578   0.714  0.5768  0.3485  0.3318
 9120TIP3    H148851   0.128   3.483   0.711 -2.1551  0.5678  2.6204
 9120TIP3    H248852   0.232   3.590   0.736  0.9469 -1.7718  0.0381
 9121TIP3   OH248853   2.176   2.516  10.858  0.4663 -0.3856  0.0527
 9121TIP3    H148854   2.105   2.579  10.870 -0.3866 -1.4224  0.6380
 9121TIP3    H248855   2.249   2.552  10.908 -0.3681 -0.3935  1.3197
 9122TIP3   OH248856   4.047   4.484  13.808  0.2703 -0.6352  0.3224
 9122TIP3    H148857   4.094   4.425  13.867  2.8326 -0.2336 -1.2635
 9122TIP3    H248858   4.096   4.566  13.811 -1.6981  0.5773  0.4088
 9123TIP3   OH248859   6.547   6.534   6.227 -0.3076 -0.3877  0.2856
 9123TIP3    H148860   6.491   6.514   6.302  0.9113  2.0899  1.9061
 9123TIP3    H248861   6.632   6.499   6.252  0.2621  1.0345  0.3660
 9124TIP3   OH248862   5.392   4.099  15.334 -0.8627  0.3676 -0.1251
 9124TIP3    H148863   5.469   4.069  15.286  0.8793  1.7110  1.7390
 9124TIP3    H248864   5.384   4.192  15.312 -3.0517 -0.1334 -1.6801
 9125TIP3   OH248865   2.786   1.279  12.268  0.3572 -0.3554  0.3335
 9125TIP3    H148866   2.771   1.235  12.352  0.6776  0.0981  0.6341
 9125TIP3    H248867   2.797   1.208  12.206  1.2924 -0.7130  0.8942
 9126TIP3   OH248868   2.078   2.958   6.809  0.2090 -0.4281 -0.0930
 9126TIP3    H148869   2.128   2.931   6.886 -1.8649  1.3796  1.9714
 9126TIP3    H248870   2.142   3.003   6.753  1.1004  1.1107  2.1044
 9127TIP3   OH248871   3.456   0.941  12.083  0.4602 -0.6561  0.7610
 9127TIP3    H148872   3.545   0.975  12.082  0.6648 -1.1938 -1.9385
 9127TIP3    H248873   3.409   0.993  12.018 -0.4515 -2.3170  0.0561
 9128TIP3   OH248874   1.730   3.086  11.888  0.2051 -0.0109  0.2824
 9128TIP3    H148875   1.733   3.171  11.844  2.6115  0.0989  0.6254
 9128TIP3    H248876   1.719   3.108  11.981 -1.5784 -0.1630  0.1272
 9129TIP3   OH248877   3.691   1.095   2.200  0.4595 -0.2314  0.3985
 9129TIP3    H148878   3.670   1.072   2.109 -0.3654  1.0706  0.2579
 9129TIP3    H248879   3.697   1.190   2.200  2.7919 -0.3347  1.2134
 9130TIP3   OH248880   3.672   3.085   2.437  0.7265  0.2357  0.4200
 9130TIP3    H148881   3.759   3.119   2.455  0.3899  1.3732 -0.0664
 9130TIP3    H248882   3.666   3.080   2.342  0.5176 -0.5154  0.4696
 9131TIP3   OH248883   3.192   5.798  14.173 -0.8081  0.5653  0.3562
 9131TIP3    H148884   3.203   5.729  14.107  1.0005  0.9427  0.2216
 9131TIP3    H248885   3.098   5.800  14.190 -1.0915 -0.7776 -0.8787
 9132TIP3   OH248886   5.727   2.943   1.630  0.1198 -0.4319  0.0594
 9132TIP3    H148887   5.670   3.020   1.627  0.7498 -0.0435 -2.9052
 9132TIP3    H248888   5.815   2.979   1.644  0.1172 -0.8130  1.1546
 9133TIP3   OH248889   4.644   4.175  11.543  0.2127  0.3223 -0.0840
 9133TIP3    H148890   4.703   4.221  11.603 -0.2169  1.9802 -0.9085
 9133TIP3    H248891   4.560   4.175  11.588 -0.0792  1.4500 -0.6294
 9134TIP3   OH248892   0.870   6.156   4.648  0.2217 -0.8213  0.5848
 9134TIP3    H148893   0.895   6.145   4.556  1.5856  0.8317  0.7247
 9134TIP3    H248894   0.793   6.212   4.645  0.6412 -0.2414  0.4575
 9135TIP3   OH248895   3.684   3.215   1.409 -0.1289 -0.3251  0.3079
 9135TIP3    H148896   3.742   3.202   1.335  1.1199  1.4256  0.9532
 9135TIP3    H248897   3.671   3.128   1.445  0.0589 -1.0598 -1.3480
 9136TIP3   OH248898   4.477   2.611   4.968  0.0048 -0.1008  0.3026
 9136TIP3    H148899   4.467   2.658   5.051  1.4260  0.4925  0.1596
 9136TIP3    H248900   4.490   2.680   4.904  1.0332 -0.6533 -0.0839
 9137TIP3   OH248901   1.169   1.286  15.786 -0.0343  0.1229 -0.1320
 9137TIP3    H148902   1.095   1.255  15.838 -2.5290  2.9287 -1.8716
 9137TIP3    H248903   1.204   1.361  15.834 -0.0087  0.4302 -0.6182
 9138TIP3   OH248904   0.481   2.998  15.912  0.4167  0.4046 -0.8225
 9138TIP3    H148905   0.527   3.015  15.993  0.2905  0.1245 -0.6907
 9138TIP3    H248906   0.446   3.083  15.886 -4.2135 -0.3367  2.2807
 9139TIP3   OH248907   3.297   2.898  13.662 -0.0679  0.3792 -0.5150
 9139TIP3    H148908   3.300   2.945  13.745 -0.0272  0.2669 -0.4541
 9139TIP3    H248909   3.204   2.888  13.643 -0.1004  2.4367 -1.6240
 9140TIP3   OH248910   2.854   3.131  12.024  0.1257  0.3184  0.2733
 9140TIP3    H148911   2.805   3.168  11.951 -2.0349 -0.3695  1.3062
 9140TIP3    H248912   2.862   3.038  12.003 -1.1407 -0.0271  1.1933
 9141TIP3   OH248913   1.013   0.422  15.101  0.3704 -0.4297 -0.2344
 9141TIP3    H148914   0.981   0.502  15.059 -0.4919 -1.6493 -1.9460
 9141TIP3    H248915   1.049   0.370  15.030  2.5384 -0.8404  1.1052
 9142TIP3   OH248916   6.770   1.650   1.888  0.3868 -0.2455  0.1614
 9142TIP3    H148917   6.789   1.588   1.818  2.0992  1.0171 -0.5167
 9142TIP3    H248918   6.824   1.726   1.868  0.0216  0.5830  2.2296
 9143TIP3   OH248919   4.030   5.319   5.907  0.4420  0.5443  0.1511
 9143TIP3    H148920   4.122   5.345   5.902  0.1250  1.6949  0.0651
 9143TIP3    H248921   4.007   5.296   5.816  1.0631 -1.3021  0.4307
 9144TIP3   OH248922   6.610   5.849  16.924 -0.0480  0.2253 -0.4290
 9144TIP3    H148923   6.595   5.843  17.018  1.4519 -1.5934 -0.2864
 9144TIP3    H248924   6.567   5.772  16.887 -2.3154  1.9392 -1.4877
 9145TIP3   OH248925   5.590   4.807   1.905 -0.4548 -0.3246 -1.1656
 9145TIP3    H148926   5.656   4.852   1.958  0.1797 -0.4196 -1.8772
 9145TIP3    H248927   5.546   4.877   1.857 -2.6734  0.0413  1.2604
 9146TIP3   OH248928   5.077   0.207   1.222 -0.0663  0.5606 -0.2592
 9146TIP3    H148929   5.157   0.258   1.205  0.6403 -0.0837  1.0305
 9146TIP3    H248930   5.059   0.161   1.140  0.6842  0.9959 -0.6700
 9147TIP3   OH248931   3.209   6.703  16.645  0.3006 -0.5963  0.1035
 9147TIP3    H148932   3.224   6.729  16.736  0.3173 -2.2875  0.6043
 9147TIP3    H248933   3.151   6.628  16.651 -0.2776 -0.2860 -1.3330
 9148TIP3   OH248934   6.648   4.243   4.974 -0.0236 -0.0294  0.2504
 9148TIP3    H148935   6.686   4.327   4.949  0.5443 -0.5669 -0.6829
 9148TIP3    H248936   6.553   4.257   4.969  0.0549  0.7645  0.8282
 9149TIP3   OH248937   1.957   4.550  17.282  0.2808 -0.0755 -0.3742
 9149TIP3    H148938   1.981   4.623  17.225 -2.1348  1.9485  1.0984
 9149TIP3    H248939   2.017   4.556  17.356  0.2333  0.2857 -0.3647
 9150TIP3   OH248940   0.121   6.305   2.053  0.0512  0.2434  0.6195
 9150TIP3    H148941   0.121   6.230   1.993 -1.7179  0.9445 -0.2794
 9150TIP3    H248942   0.050   6.287   2.114  1.1112  0.0934  1.8318
 9151TIP3   OH248943   3.928   2.752   5.255 -0.0506  0.3917 -0.2347
 9151TIP3    H148944   3.912   2.741   5.161 -0.4654 -0.1574 -0.1008
 9151TIP3    H248945   3.889   2.837   5.276 -0.2064  0.3870 -0.5021
 9152TIP3   OH248946   6.318   6.186   2.229  0.1391 -0.7044 -0.2975
 9152TIP3    H148947   6.362   6.269   2.214 -0.8520  0.1877  1.5502
 9152TIP3    H248948   6.249   6.183   2.163 -0.6088  0.5487  0.3953
 9153TIP3   OH248949   0.252   1.575  12.970  0.2185 -0.5401  0.3140
 9153TIP3    H148950   0.164   1.549  12.943  1.1592 -2.5432 -0.9663
 9153TIP3    H248951   0.283   1.504  13.025  1.5273 -0.4997 -0.3408
 9154TIP3   OH248952   6.703   0.683  11.410  0.3783 -0.2539  0.4813
 9154TIP3    H148953   6.686   0.770  11.376 -2.3887 -0.2860  1.6733
 9154TIP3    H248954   6.767   0.696  11.481 -0.7858  0.9279  1.3213
 9155TIP3   OH248955   1.829   2.722   5.079  0.5329 -0.1868  0.2951
 9155TIP3    H148956   1.832   2.669   5.000  4.8743  3.0250 -1.8723
 9155TIP3    H248957   1.883   2.675   5.142 -0.6842 -1.3504  0.5044
 9156TIP3   OH248958   0.228   1.757   3.731 -0.3310 -0.3201 -0.0723
 9156TIP3    H148959   0.200   1.848   3.733 -0.7822 -0.4580 -0.1832
 9156TIP3    H248960   0.148   1.707   3.715  0.2343 -0.5824 -2.2893
 9157TIP3   OH248961   4.907   3.997   4.251 -0.1344 -0.4689  0.1252
 9157TIP3    H148962   4.823   4.043   4.251 -0.3607 -0.8821 -0.0096
 9157TIP3    H248963   4.898   3.930   4.184  0.3478 -0.4345  0.0262
 9158TIP3   OH248964   5.460   0.012  13.788  0.6583  0.0389  0.2210
 9158TIP3    H148965   5.530   0.076  13.777 -2.5698  3.5684 -0.5692
 9158TIP3    H248966   5.446  -0.024  13.701  1.0490 -0.2083  0.2586
 9159TIP3   OH248967   0.915   4.025  14.183  0.3501  0.2065 -0.4077
 9159TIP3    H148968   0.987   3.997  14.127 -1.3778 -0.2446 -2.4363
 9159TIP3    H248969   0.888   3.946  14.229  0.7722  0.2637 -0.0531
 9160TIP3   OH248970   2.722   1.230   1.781 -0.8347  0.4585  0.1237
 9160TIP3    H148971   2.745   1.274   1.700  0.2084  0.7108  0.5472
 9160TIP3    H248972   2.726   1.299   1.848  0.9101 -0.2759  0.8061
 9161TIP3   OH248973   0.029   5.761   1.617  0.0670  0.3451 -0.1562
 9161TIP3    H148974   0.093   5.791   1.681 -0.9218 -0.5352  1.2726
 9161TIP3    H248975  -0.023   5.838   1.596 -1.8811 -0.0886  2.8069
 9162TIP3   OH248976   1.198   3.987   3.696 -1.2817 -0.4028  0.5451
 9162TIP3    H148977   1.193   4.015   3.787  0.9646  3.4079 -0.3829
 9162TIP3    H248978   1.114   4.013   3.658 -1.6208 -0.6124  1.1475
 9163TIP3   OH248979   1.171   1.983  14.865  0.3190  0.0681 -0.0796
 9163TIP3    H148980   1.177   1.888  14.857 -2.3621 -0.2181  0.8068
 9163TIP3    H248981   1.239   2.016  14.806  0.2085 -2.3541 -1.6575
 9164TIP3   OH248982   6.385   4.560   2.672  0.9382  0.1738 -0.5408
 9164TIP3    H148983   6.446   4.535   2.602  0.2326  0.0968 -1.1375
 9164TIP3    H248984   6.305   4.511   2.652  0.6563  0.3283  0.1955
 9165TIP3   OH248985   1.060   4.090   4.312 -0.2435 -0.3428  0.4187
 9165TIP3    H148986   1.151   4.093   4.340 -0.7889  2.6288  2.1315
 9165TIP3    H248987   1.036   3.997   4.317  2.7435 -1.1952 -0.3605
 9166TIP3   OH248988   5.347   4.980  16.272  0.1272 -0.2562  0.6283
 9166TIP3    H148989   5.404   4.942  16.338  0.4655 -1.3644 -0.2752
 9166TIP3    H248990   5.323   5.066  16.306  2.9662  0.5555  0.6574
 9167TIP3   OH248991   0.902   6.720   0.107 -0.0512 -0.9781  0.0271
 9167TIP3    H148992   0.899   6.814   0.124 -0.7367 -0.7660 -1.1841
 9167TIP3    H248993   0.978   6.709   0.049  1.1778 -1.4407  1.7037
 9168TIP3   OH248994   5.487   4.855  13.988 -0.1174 -0.0707 -0.1529
 9168TIP3    H148995   5.572   4.875  13.948 -0.0734  1.9669  0.8909
 9168TIP3    H248996   5.484   4.911  14.066 -2.5856  0.1750 -0.3921
 9169TIP3   OH248997   0.749   5.395   3.817  0.2774  0.0903 -0.2648
 9169TIP3    H148998   0.785   5.480   3.793 -0.4697  0.3279 -0.5900
 9169TIP3    H248999   0.792   5.371   3.899  0.1917  0.9771  0.0365
 9170TIP3   OH249000   3.944   1.424   0.523  0.3589  0.0872  0.0514
 9170TIP3    H149001   4.009   1.478   0.478  1.9920 -1.4350  0.5581
 9170TIP3    H249002   3.968   1.334   0.502 -1.7198 -0.5149  0.0764
 9171TIP3   OH249003   1.463   1.376   5.538  0.2962 -0.4119 -0.6370
 9171TIP3    H149004   1.524   1.377   5.611  1.2261  1.0828 -1.4266
 9171TIP3    H249005   1.404   1.449   5.554  0.6856  0.1067 -1.5276
 9172TIP3   OH249006   0.153   2.666   5.089 -0.1069  0.2749  0.0664
 9172TIP3    H149007   0.200   2.624   5.161  1.2071  0.2145 -0.8131
 9172TIP3    H249008   0.089   2.600   5.061 -0.8020  0.3960  1.3314
 9173TIP3   OH249009   1.566   6.462   2.038 -0.0307 -0.0017 -0.4763
 9173TIP3    H149010   1.587   6.549   2.072  2.4261 -1.1153  0.9475
 9173TIP3    H249011   1.545   6.478   1.946 -0.9195  2.2593  0.0692
 9174TIP3   OH249012   6.679   5.239  16.625  0.2723 -0.2795  0.1250
 9174TIP3    H149013   6.638   5.256  16.541  0.7264  0.9508  0.1454
 9174TIP3    H249014   6.759   5.191  16.604  1.6719  2.2240 -0.3411
 9175TIP3   OH249015   2.209   6.065   4.448 -0.4703  0.3450 -0.3576
 9175TIP3    H149016   2.188   6.091   4.359  1.9295  2.6270 -0.3423
 9175TIP3    H249017   2.278   6.000   4.438 -1.5153 -0.7850 -0.2140
 9176TIP3   OH249018   1.558   2.218   1.167 -0.3008  0.5966 -0.4125
 9176TIP3    H149019   1.511   2.289   1.211 -3.3035 -1.0507 -0.8228
 9176TIP3    H249020   1.576   2.154   1.236 -0.8294  0.1387 -0.6934
 9177TIP3   OH249021   6.562   0.171  14.127  0.1287 -0.3868  0.2138
 9177TIP3    H149022   6.498   0.234  14.092  1.5122  0.3157 -1.1362
 9177TIP3    H249023   6.620   0.223  14.182  0.1676 -0.8311  0.5982
 9178TIP3   OH249024   0.002   0.614   5.152 -0.1312 -0.4129 -0.2770
 9178TIP3    H149025  -0.091   0.609   5.132  0.0175 -0.1893 -1.0255
 9178TIP3    H249026   0.026   0.524   5.177 -0.4836 -0.5345 -0.3798
 9179TIP3   OH249027   6.601   3.958   3.706  0.1493 -0.3782  0.3917
 9179TIP3    H149028   6.574   4.023   3.641  1.2051  2.2361  2.4179
 9179TIP3    H249029   6.577   3.998   3.790 -2.6273 -4.3476  1.5828
 9180TIP3   OH249030   1.520   3.298  12.484  0.3651  0.6146 -0.1253
 9180TIP3    H149031   1.572   3.379  12.484  0.4865  0.5444  0.8648
 9180TIP3    H249032   1.540   3.257  12.569  0.0245 -0.2731 -0.4660
 9181TIP3   OH249033   2.950   2.561  16.659 -0.2754  0.3077  0.5442
 9181TIP3    H149034   3.038   2.597  16.671 -0.7070  1.2852  0.8505
 9181TIP3    H249035   2.943   2.494  16.727  0.8515 -0.9823 -0.5821
 9182TIP3   OH249036   0.905   5.976  11.071  0.3086 -0.0191  0.1131
 9182TIP3    H149037   0.906   6.071  11.059 -2.5911  0.2242  1.2730
 9182TIP3    H249038   0.813   5.956  11.089  1.1036 -2.8721  1.2172
 9183TIP3   OH249039   0.104   2.829  14.699  0.8027 -0.7480  0.1077
 9183TIP3    H149040   0.152   2.900  14.741  0.3855  0.6349 -1.6814
 9183TIP3    H249041   0.075   2.866  14.616 -3.8439 -1.3196  1.3099
 9184TIP3   OH249042   0.970   1.482  15.435 -0.2994 -0.0740 -0.1185
 9184TIP3    H149043   1.011   1.558  15.476 -2.0409  0.3997  0.7799
 9184TIP3    H249044   1.043   1.433  15.397  1.1073  0.6463  1.5985
 9185TIP3   OH249045   3.625   1.679   0.819 -0.0423  0.1145 -0.4884
 9185TIP3    H149046   3.717   1.650   0.824  0.3491  1.5992  1.9188
 9185TIP3    H249047   3.575   1.606   0.856  0.1337 -0.6948 -1.7949
 9186TIP3   OH249048   5.142   2.830   5.029  0.4921 -0.3709  0.4190
 9186TIP3    H149049   5.234   2.845   5.008  0.6346  1.6175  2.3067
 9186TIP3    H249050   5.130   2.735   5.018  2.4246 -0.4686 -1.0474
 9187TIP3   OH249051   4.363   0.787  13.421  0.5495 -0.0448  0.0597
 9187TIP3    H149052   4.344   0.720  13.486  2.9059  0.8581  1.7703
 9187TIP3    H249053   4.426   0.745  13.362 -0.7971 -0.5218 -1.0653
 9188TIP3   OH249054   0.962   4.582  15.406  0.6738 -0.5510 -0.3098
 9188TIP3    H149055   0.877   4.541  15.391  1.4802 -2.3732  0.0091
 9188TIP3    H249056   0.965   4.596  15.500 -1.3910  4.3147 -0.7925
 9189TIP3   OH249057   0.225   1.418  16.366  0.0162 -0.4366 -0.0484
 9189TIP3    H149058   0.252   1.411  16.275 -0.2776  1.0152 -0.2555
 9189TIP3    H249059   0.129   1.416  16.363  0.0072 -0.4502  0.2296
 9190TIP3   OH249060   3.864   5.752   1.854 -0.4620  0.2235 -0.4594
 9190TIP3    H149061   3.850   5.779   1.944  0.2032  0.4035 -0.4028
 9190TIP3    H249062   3.797   5.799   1.804 -0.1769  0.9338 -0.1887
 9191TIP3   OH249063   2.620   1.179  17.160  0.0964  0.6487  0.0880
 9191TIP3    H149064   2.544   1.162  17.105  0.1315 -0.3654  0.3461
 9191TIP3    H249065   2.671   1.244  17.112  0.1117 -0.2053 -1.0515
 9192TIP3   OH249066   2.450   6.736   5.978 -0.2870 -0.6854  0.0504
 9192TIP3    H149067   2.503   6.696   6.047  1.5759  2.5635  0.5837
 9192TIP3    H249068   2.473   6.687   5.899  2.5802 -0.1594  0.5124
 9193TIP3   OH249069   3.356   2.449   3.408  0.0018 -0.1489 -0.3410
 9193TIP3    H149070   3.434   2.431   3.460 -0.3439 -1.9212 -0.3805
 9193TIP3    H249071   3.283   2.439   3.469 -0.2636  0.3186 -0.5775
 9194TIP3   OH249072   5.077   3.290  13.137  0.2009 -0.4172  0.0264
 9194TIP3    H149073   5.015   3.257  13.202 -0.6821 -1.1975 -1.1948
 9194TIP3    H249074   5.119   3.211  13.102 -1.0755 -0.1902 -2.0748
 9195TIP3   OH249075   2.952   5.680  14.591 -0.2083  0.1823  0.7024
 9195TIP3    H149076   2.916   5.729  14.517  0.5157 -1.4173 -0.7426
 9195TIP3    H249077   2.899   5.602  14.597  1.6709 -1.1966 -0.1188
 9196TIP3   OH249078   3.630   5.519  16.868  0.0575  0.0525  0.4164
 9196TIP3    H149079   3.562   5.536  16.803  0.7987 -0.7884 -0.6047
 9196TIP3    H249080   3.711   5.545  16.825  0.4821  0.2100  1.2974
 9197TIP3   OH249081   1.111   0.012   0.529 -0.0905 -0.2906  0.1685
 9197TIP3    H149082   1.031  -0.004   0.477  0.7748 -1.4878 -0.8344
 9197TIP3    H249083   1.080   0.014   0.619 -1.0766 -2.2395 -0.0844
 9198TIP3   OH249084   3.737   1.511  13.120  0.1960  0.0423  0.0053
 9198TIP3    H149085   3.688   1.594  13.117  0.3202  0.1295  0.4225
 9198TIP3    H249086   3.671   1.445  13.138  0.1605  0.1023  0.0945
 9199TIP3   OH249087   4.590   6.236  16.206 -0.2262 -0.4687 -0.3609
 9199TIP3    H149088   4.665   6.233  16.146 -1.5730  0.4897 -2.1271
 9199TIP3    H249089   4.525   6.288  16.160 -1.1085  0.7234  2.1914
 9200TIP3   OH249090   5.145   1.389  16.947  0.0173  0.6992  0.4134
 9200TIP3    H149091   5.055   1.376  16.916 -0.6842  3.3367  1.1194
 9200TIP3    H249092   5.160   1.317  17.008 -1.4288 -0.0814 -0.1170
 9201TIP3   OH249093   2.501   1.328   5.035  0.4803 -0.0389  0.2149
 9201TIP3    H149094   2.519   1.237   5.060 -0.3682  0.0404  1.1499
 9201TIP3    H249095   2.411   1.343   5.064  0.6882  1.1618  0.2494
 9202TIP3   OH249096   5.537   4.314   5.810  0.0672 -0.0986  0.3536
 9202TIP3    H149097   5.591   4.235   5.802  0.4133 -0.0966  2.3417
 9202TIP3    H249098   5.579   4.364   5.880 -1.0382  1.1398  0.1438
 9203TIP3   OH249099   4.191   3.865  16.977  0.4421 -0.0427  0.0035
 9203TIP3    H149100   4.152   3.848  16.891 -1.8600  0.8985  0.8137
 9203TIP3    H249101   4.285   3.855  16.963 -0.0047 -1.5000 -2.2480
 9204TIP3   OH249102   0.136   3.438  16.586 -0.3045 -0.3657 -0.5000
 9204TIP3    H149103   0.071   3.484  16.532 -0.3862 -0.7322 -0.7176
 9204TIP3    H249104   0.086   3.404  16.660 -0.5767 -1.6308 -1.2615
 9205TIP3   OH249105   6.127   4.568   2.091 -0.1102  0.4982 -0.2375
 9205TIP3    H149106   6.213   4.605   2.110  0.3201 -0.1332 -0.9437
 9205TIP3    H249107   6.111   4.589   1.999 -1.0244  1.2339  0.0853
 9206TIP3   OH249108   5.251   4.014  14.130 -0.4241  0.9691  0.1417
 9206TIP3    H149109   5.199   3.935  14.115 -0.9505  1.8261 -2.7242
 9206TIP3    H249110   5.341   3.982  14.137 -0.1474  0.3711 -4.5937
 9207TIP3   OH249111   5.996   5.652   3.291 -0.1199 -0.0160  0.2299
 9207TIP3    H149112   5.947   5.575   3.264  0.4852 -1.2964  2.6068
 9207TIP3    H249113   6.071   5.655   3.231  0.4527 -1.9545  0.8122
 9208TIP3   OH249114   0.302   4.148   4.252  0.2512 -0.6838  0.7536
 9208TIP3    H149115   0.335   4.174   4.165  2.0450 -1.8864  1.0521
 9208TIP3    H249116   0.323   4.223   4.308 -1.6453  0.4370  0.0042
 9209TIP3   OH249117   4.247   2.804   4.125 -0.7944  0.0899 -0.1416
 9209TIP3    H149118   4.277   2.883   4.080  3.1331  0.4165  2.8429
 9209TIP3    H249119   4.158   2.826   4.154 -0.1355  3.0375 -0.1878
 9210TIP3   OH249120   4.102   3.446  15.889  0.2854  0.3324  0.5079
 9210TIP3    H149121   4.155   3.396  15.951 -0.7813 -0.8660  0.4591
 9210TIP3    H249122   4.094   3.390  15.812  0.5694  1.3165 -0.2613
 9211TIP3   OH249123   1.753   3.242  17.099 -0.4210  0.6506  0.4741
 9211TIP3    H149124   1.737   3.299  17.024 -0.2193 -0.1901 -0.2206
 9211TIP3    H249125   1.712   3.286  17.173 -1.9408  0.7367 -0.4197
 9212TIP3   OH249126   4.200   1.629  16.766  0.6269  0.0393 -0.8280
 9212TIP3    H149127   4.137   1.590  16.706  0.4033 -0.1792 -0.4494
 9212TIP3    H249128   4.149   1.692  16.817  0.7499 -0.0037 -0.6485
 9213TIP3   OH249129   3.327   2.960  11.192  0.4080  0.4967 -0.2692
 9213TIP3    H149130   3.309   2.900  11.120 -1.3602 -0.2524  0.7486
 9213TIP3    H249131   3.367   2.905  11.259 -0.9068  0.4800  0.5346
 9214TIP3   OH249132   1.209   5.033   4.162 -0.6887 -0.6270  0.5832
 9214TIP3    H149133   1.186   5.080   4.082 -0.2696 -1.1943  0.1252
 9214TIP3    H249134   1.303   5.049   4.173 -0.6156 -1.0740  0.6145
 9215TIP3   OH249135   6.285   2.586   0.635 -0.1760 -0.2477  0.1203
 9215TIP3    H149136   6.356   2.647   0.617  0.1057  0.2796  2.8550
 9215TIP3    H249137   6.305   2.509   0.581  1.8909  0.3035  0.0608
 9216TIP3   OH249138   3.396   1.429   4.175  0.1700  0.5624 -0.1233
 9216TIP3    H149139   3.363   1.360   4.231  0.4284 -0.5144 -1.2729
 9216TIP3    H249140   3.491   1.429   4.188  0.0431  1.6081  0.8800
 9217TIP3   OH249141   4.170   2.438   2.858 -0.9024 -0.4932  0.6419
 9217TIP3    H149142   4.144   2.353   2.893 -1.2755 -1.0781 -0.9885
 9217TIP3    H249143   4.149   2.432   2.765  1.1538  0.5743  0.0770
 9218TIP3   OH249144   1.890   5.469  14.741 -0.3214 -0.2255 -0.2687
 9218TIP3    H149145   1.834   5.491  14.667 -1.0298 -0.5398  0.1704
 9218TIP3    H249146   1.969   5.433  14.702  0.5796  2.4288 -0.9822
 9219TIP3   OH249147   2.122   3.003   1.504  0.1508  0.4947  0.5341
 9219TIP3    H149148   2.137   3.090   1.541 -0.4892  1.1039 -0.6012
 9219TIP3    H249149   2.076   2.955   1.573 -1.0164  1.6157  0.5624
 9220TIP3   OH249150   4.978   4.375  16.411  0.0814  0.5701  0.0615
 9220TIP3    H149151   5.068   4.399  16.389  0.1329  0.4982  0.1922
 9220TIP3    H249152   4.969   4.285  16.380  0.0178  0.6160 -0.0574
 9221TIP3   OH249153   2.550   2.384   0.590  0.3442  0.4042 -0.3851
 9221TIP3    H149154   2.503   2.444   0.533 -0.0993 -0.3781 -0.8391
 9221TIP3    H249155   2.505   2.300   0.581 -1.2443  0.8278  2.9198
 9222TIP3   OH249156   4.573   3.815  11.436  0.4438  0.0774  0.0258
 9222TIP3    H149157   4.487   3.856  11.425  0.2405 -0.0803  1.0012
 9222TIP3    H249158   4.560   3.724  11.412  0.5703  0.2661 -0.7760
 9223TIP3   OH249159   5.126   3.924   3.756  0.1620 -0.5284 -0.4822
 9223TIP3    H149160   5.105   3.968   3.674  1.1073 -2.1258 -1.6178
 9223TIP3    H249161   5.174   3.845   3.730  0.4570 -1.0891  1.6012
 9224TIP3   OH249162   1.981   1.020  15.895  0.2094 -0.0526 -0.5204
 9224TIP3    H149163   1.997   0.926  15.889  5.7295  0.8157 -1.5531
 9224TIP3    H249164   2.007   1.054  15.809 -1.3732  2.4987 -0.0469
 9225TIP3   OH249165   0.872   3.120  11.126 -0.2286  0.5050 -0.7195
 9225TIP3    H149166   0.964   3.110  11.099 -0.2258  3.3381 -1.8896
 9225TIP3    H249167   0.827   3.046  11.085  1.3607 -0.4219 -0.8671
 9226TIP3   OH249168   5.910   4.735  14.359  0.1445 -0.5328  0.1087
 9226TIP3    H149169   5.930   4.676  14.286  0.2604  0.3865 -0.6139
 9226TIP3    H249170   5.897   4.820  14.317  1.2627  0.2225  1.2688
 9227TIP3   OH249171   6.219   4.023   1.207 -0.1198  0.4759  0.2628
 9227TIP3    H149172   6.306   4.050   1.179  0.5953 -0.9100  1.1473
 9227TIP3    H249173   6.195   3.953   1.147 -0.4558  0.5757  0.2788
 9228TIP3   OH249174   3.449   5.691  15.306 -0.6387 -0.3099  0.5635
 9228TIP3    H149175   3.383   5.755  15.280 -2.0864 -1.0753  2.2237
 9228TIP3    H249176   3.420   5.609  15.266 -0.6983 -0.6444  1.2889
 9229TIP3   OH249177   2.339   2.142  13.250  0.7125 -0.0531  0.2848
 9229TIP3    H149178   2.422   2.095  13.265  1.3640  1.3625  1.2600
 9229TIP3    H249179   2.327   2.195  13.329 -0.3386  0.9213 -0.5083
 9230TIP3   OH249180   2.283   0.215   5.163 -0.3113  0.3722  0.2457
 9230TIP3    H149181   2.289   0.229   5.068  1.1949 -1.6664  0.0181
 9230TIP3    H249182   2.205   0.160   5.174 -0.7389  0.9673  0.2564
 9231TIP3   OH249183   5.650   5.266  15.086  0.4001 -0.0685 -0.3044
 9231TIP3    H149184   5.663   5.360  15.101  0.4417 -0.2197  0.6011
 9231TIP3    H249185   5.739   5.231  15.081  0.3940  0.0032 -1.1151
 9232TIP3   OH249186   5.763   4.649  12.223  0.4829 -0.4688 -0.0309
 9232TIP3    H149187   5.835   4.713  12.224  0.5930 -0.5196 -2.1459
 9232TIP3    H249188   5.686   4.700  12.199  0.4886 -1.0380 -1.2895
 9233TIP3   OH249189   2.392   5.889   5.096  0.1314 -0.0997  0.1190
 9233TIP3    H149190   2.305   5.921   5.120 -0.7608 -1.5012 -1.1510
 9233TIP3    H249191   2.409   5.926   5.009  0.7124  0.0119  0.2761
 9234TIP3   OH249192   2.901   5.673  13.646 -0.4945  0.0315 -0.0357
 9234TIP3    H149193   2.955   5.596  13.632 -0.8579 -0.6521  2.1747
 9234TIP3    H249194   2.931   5.736  13.580  0.2037 -1.7670 -1.4698
 9235TIP3   OH249195   4.820   6.549  14.313  0.2815 -0.0716 -0.5837
 9235TIP3    H149196   4.858   6.598  14.385  0.6624  0.4184 -1.1198
 9235TIP3    H249197   4.864   6.464  14.316 -0.2296 -0.3180  0.2108
 9236TIP3   OH249198   2.484   6.582   4.065  0.1396  0.2430 -0.4949
 9236TIP3    H149199   2.502   6.675   4.075  0.8310  0.0955 -0.3427
 9236TIP3    H249200   2.567   6.539   4.085 -0.7094 -0.5209  1.6247
 9237TIP3   OH249201   3.307   4.185   4.087  0.7262  0.4184 -0.2010
 9237TIP3    H149202   3.343   4.272   4.067 -0.7137  0.6374 -1.9833
 9237TIP3    H249203   3.299   4.143   4.001 -1.0277 -0.5020  0.3993
 9238TIP3   OH249204   6.619   1.258  13.741  0.3782 -0.3424 -0.2393
 9238TIP3    H149205   6.706   1.219  13.741  0.5584  0.0535 -0.5786
 9238TIP3    H249206   6.559   1.183  13.742  0.7186 -0.6178 -0.3986
 9239TIP3   OH249207   3.748   2.422   2.198 -0.3189  0.1303 -0.3998
 9239TIP3    H149208   3.669   2.464   2.230 -0.0802  1.9205 -2.0250
 9239TIP3    H249209   3.722   2.332   2.181 -1.3435  0.0729  1.4342
 9240TIP3   OH249210   0.540   4.195  16.183 -0.4270  0.0137  0.0013
 9240TIP3    H149211   0.463   4.171  16.234 -0.5096  0.9268  0.3263
 9240TIP3    H249212   0.602   4.124  16.197 -0.7877 -0.1726  0.6628
 9241TIP3   OH249213   1.132   4.203  15.816  0.0337  0.0309 -0.0569
 9241TIP3    H149214   1.225   4.203  15.840 -0.0766 -2.5673  0.5427
 9241TIP3    H249215   1.126   4.263  15.743  2.3171 -0.2248 -0.5019
 9242TIP3   OH249216   0.085   3.308   2.456  0.1320  0.1058 -0.2406
 9242TIP3    H149217  -0.000   3.301   2.414 -1.3965  0.7329  2.6184
 9242TIP3    H249218   0.145   3.333   2.385 -1.9019 -1.0277 -2.4112
 9243TIP3   OH249219   4.612   3.830   5.262 -0.2492  0.6153  0.1049
 9243TIP3    H149220   4.620   3.760   5.197  0.6277  1.3173 -0.5731
 9243TIP3    H249221   4.699   3.835   5.302 -0.3324  1.2335  0.2141
 9244TIP3   OH249222   2.362   2.995   2.418 -0.0051 -0.6889 -0.4114
 9244TIP3    H149223   2.295   2.993   2.486  0.6415  0.0505  0.2615
 9244TIP3    H249224   2.315   3.019   2.338 -0.2490  1.8291  0.4385
 9245TIP3   OH249225   1.846   2.658   1.544  0.0748  0.3180 -0.7369
 9245TIP3    H149226   1.787   2.642   1.471 -1.3538  0.0938  0.4545
 9245TIP3    H249227   1.807   2.612   1.618  1.4073  0.6789  0.2250
 9246TIP3   OH249228   5.667   6.729  15.691  0.4332 -0.3042  0.0338
 9246TIP3    H149229   5.661   6.807  15.747  0.3785  0.1375 -0.5759
 9246TIP3    H249230   5.579   6.692  15.692  0.1091  0.4013 -0.7295
 9247TIP3   OH249231   2.465   3.933   6.671  0.8192  0.0138 -0.4479
 9247TIP3    H149232   2.551   3.934   6.714  1.1711  0.7206 -1.1649
 9247TIP3    H249233   2.480   3.886   6.589 -0.0899 -2.3198  0.6518
 9248TIP3   OH249234   2.979   6.515  11.498  0.0898  0.5544 -0.1738
 9248TIP3    H149235   2.935   6.579  11.442  0.0056  0.8194  0.1949
 9248TIP3    H249236   2.955   6.430  11.461  0.2924  0.7360 -0.7331
 9249TIP3   OH249237   1.272   2.856  14.778 -0.2924 -0.5329  0.0158
 9249TIP3    H149238   1.271   2.905  14.696  1.3372 -1.4448 -0.5562
 9249TIP3    H249239   1.339   2.900  14.831 -1.3897  0.1000  0.8973
 9250TIP3   OH249240   5.909   4.446   5.753  0.0788  0.2307 -0.1152
 9250TIP3    H149241   5.988   4.461   5.804 -1.7301  4.2167  1.6906
 9250TIP3    H249242   5.838   4.454   5.816 -1.9483 -0.0251 -2.3156
 9251TIP3   OH249243   4.673   5.713  14.371  0.3116  0.1414 -0.2083
 9251TIP3    H149244   4.683   5.682  14.281 -0.2250  2.2768 -1.0320
 9251TIP3    H249245   4.714   5.799  14.372  0.5170  0.0484  1.6637
 9252TIP3   OH249246   1.966   5.584  16.626  0.8551 -0.1312 -0.4621
 9252TIP3    H149247   1.927   5.499  16.643 -0.0007  0.2728 -0.4025
 9252TIP3    H249248   2.009   5.608  16.709  0.5675 -0.2263 -0.2847
 9253TIP3   OH249249   6.557   0.692  14.473 -0.0719 -0.1811 -0.6279
 9253TIP3    H149250   6.470   0.686  14.434 -0.6856 -0.2294  0.7465
 9253TIP3    H249251   6.549   0.761  14.539  0.7503 -0.6780 -0.0066
 9254TIP3   OH249252   0.461   5.507   2.789  0.5089  0.7207  0.2579
 9254TIP3    H149253   0.503   5.532   2.871 -0.0404  1.6295  0.2696
 9254TIP3    H249254   0.479   5.580   2.729 -1.1276  1.1806  0.2957
 9255TIP3   OH249255   1.421   2.441   2.378 -0.4565  0.4947  0.0023
 9255TIP3    H149256   1.417   2.371   2.313 -0.6284 -0.7710  1.3633
 9255TIP3    H249257   1.512   2.470   2.376 -0.2240 -0.2286 -0.0755
 9256TIP3   OH249258   6.360   1.727   1.300  0.1595  0.3201 -0.3454
 9256TIP3    H149259   6.302   1.723   1.377  1.3020 -0.6849  0.4888
 9256TIP3    H249260   6.376   1.820   1.288  0.8331  0.4501  1.3222
 9257TIP3   OH249261   6.350   5.820  16.580  0.5100 -0.0898  0.4139
 9257TIP3    H149262   6.361   5.878  16.655  1.8539  0.8073 -0.4461
 9257TIP3    H249263   6.272   5.853  16.535 -0.3412 -0.6741  1.4293
 9258TIP3   OH249264   6.066   3.785   5.751 -0.1099  0.0274  0.5665
 9258TIP3    H149265   6.125   3.803   5.677  1.2637  1.0380  1.8848
 9258TIP3    H249266   6.049   3.691   5.745  0.3686  0.0087 -0.7519
 9259TIP3   OH249267   2.382   4.654  15.389 -0.2450 -0.0392 -0.5165
 9259TIP3    H149268   2.286   4.652  15.379 -0.4092  0.7571  0.8265
 9259TIP3    H249269   2.402   4.747  15.403  0.8546 -0.0475 -1.8811
 9260TIP3   OH249270   2.508   3.814  17.259  0.4483  0.1047 -0.2005
 9260TIP3    H149271   2.475   3.725  17.244 -1.8063  1.1633 -1.8098
 9260TIP3    H249272   2.577   3.825  17.194  0.3077 -0.2428 -0.4079
 9261TIP3   OH249273   1.531   2.507   6.049  0.5110 -0.1038 -0.3617
 9261TIP3    H149274   1.572   2.497   6.135  0.6251  1.0659 -0.2703
 9261TIP3    H249275   1.449   2.459   6.056 -0.5368  1.8245  1.1635
 9262TIP3   OH249276   3.371   3.720   6.566  0.2819 -0.7836  0.1890
 9262TIP3    H149277   3.465   3.739   6.569  0.4904 -1.8723  0.8005
 9262TIP3    H249278   3.329   3.805   6.571  1.2389 -0.2942  0.0024
 9263TIP3   OH249279   5.904   4.316  13.266  0.2160  0.4296 -0.2056
 9263TIP3    H149280   5.922   4.227  13.237  1.1192  0.6107 -0.2221
 9263TIP3    H249281   5.955   4.326  13.347  0.1544  0.9354 -0.2269
 9264TIP3   OH249282   5.412   2.476  11.112  0.0841  0.4559  0.1671
 9264TIP3    H149283   5.355   2.407  11.145 -1.6434  1.7841  0.0370
 9264TIP3    H249284   5.497   2.433  11.099 -0.9912 -1.6565 -0.0750
 9265TIP3   OH249285   3.797   1.324   4.837  0.2648  0.8137 -0.2846
 9265TIP3    H149286   3.750   1.341   4.919  1.4198 -0.5872  0.6913
 9265TIP3    H249287   3.851   1.402   4.824 -1.5344  1.9926 -0.8842
 9266TIP3   OH249288   2.231   1.391   0.537 -0.1602  0.1767 -0.3866
 9266TIP3    H149289   2.200   1.303   0.517 -0.6114  0.4645 -0.9590
 9266TIP3    H249290   2.152   1.439   0.564  0.3834 -0.1360  1.8712
 9267TIP3   OH249291   2.457   5.064   3.293 -0.0269 -0.5592 -0.0445
 9267TIP3    H149292   2.467   5.158   3.276  0.4815 -0.2552  1.7220
 9267TIP3    H249293   2.535   5.024   3.255 -0.2826 -0.2690 -0.8677
 9268TIP3   OH249294   4.065   4.740   3.210 -0.2139 -0.4144 -0.2238
 9268TIP3    H149295   4.018   4.717   3.290 -0.0691  1.4453  0.4252
 9268TIP3    H249296   4.156   4.719   3.228  0.0157  1.2165  0.6037
 9269TIP3   OH249297   5.899   2.292  14.684  0.3381  0.2677 -0.4754
 9269TIP3    H149298   5.908   2.379  14.644 -0.0961  0.3219 -0.4645
 9269TIP3    H249299   5.988   2.262  14.698  0.5204 -0.0131 -2.0786
 9270TIP3   OH249300   0.983   6.477  16.926 -0.2531 -0.0427 -0.4153
 9270TIP3    H149301   1.033   6.463  16.846  0.4896 -0.0195  0.0482
 9270TIP3    H249302   0.977   6.390  16.966  1.0726  0.2871  0.5099
 9271TIP3   OH249303   2.668   6.510   1.813  0.1416 -0.1688 -0.0560
 9271TIP3    H149304   2.745   6.465   1.848  0.2067  0.4523  0.6206
 9271TIP3    H249305   2.704   6.572   1.749  0.0141 -1.3801 -1.3180
 9272TIP3   OH249306   5.380   1.905  15.251  0.0613  0.3701 -0.3770
 9272TIP3    H149307   5.400   1.998  15.259  0.9497  0.1802 -0.2815
 9272TIP3    H249308   5.464   1.865  15.229 -0.0984 -0.5572  0.7115
 9273TIP3   OH249309   4.919   5.482   5.157 -0.0137 -0.0214 -0.7572
 9273TIP3    H149310   4.893   5.390   5.144  0.1744  0.1644 -2.5079
 9273TIP3    H249311   4.964   5.482   5.242 -1.2741 -1.2794 -0.0615
 9274TIP3   OH249312   0.689   3.143  15.609  0.1771  0.9996  0.2915
 9274TIP3    H149313   0.600   3.171  15.588 -0.0824  0.8753  1.2026
 9274TIP3    H249314   0.682   3.048  15.617  0.5463  0.9163 -0.3667
 9275TIP3   OH249315   4.419   2.713   1.595  0.5395 -0.1991  0.4021
 9275TIP3    H149316   4.410   2.785   1.532  1.1439  0.6423  1.2751
 9275TIP3    H249317   4.476   2.650   1.551  0.0081 -0.1623 -0.3659
 9276TIP3   OH249318   4.179   3.039   1.717 -0.0168  0.0003 -0.8153
 9276TIP3    H149319   4.097   3.067   1.759  0.0137 -1.2742  0.1304
 9276TIP3    H249320   4.154   2.961   1.667  0.7301 -0.7406 -0.0503
 9277TIP3   OH249321   0.553   2.269   2.246 -0.3844 -0.2215 -0.0212
 9277TIP3    H149322   0.636   2.314   2.238 -1.0477  1.0171 -0.0670
 9277TIP3    H249323   0.570   2.197   2.307  1.2122 -1.2191 -1.6196
 9278TIP3   OH249324   4.753   0.913  16.910  0.1403  0.1688  0.1222
 9278TIP3    H149325   4.738   0.850  16.840 -0.6015 -0.2909  0.6903
 9278TIP3    H249326   4.709   0.993  16.882 -0.9260 -0.2936  0.4799
 9279TIP3   OH249327   0.414   5.851  15.064  0.4967  0.1180 -0.1021
 9279TIP3    H149328   0.370   5.934  15.045 -0.1661  0.3301  2.2085
 9279TIP3    H249329   0.486   5.875  15.123 -0.7813 -1.1400  2.0226
 9280TIP3   OH249330   3.335   3.290  13.916  0.8286  0.2753  0.0088
 9280TIP3    H149331   3.249   3.330  13.910  2.1242  3.2691  0.4756
 9280TIP3    H249332   3.364   3.281  13.825  0.4856  0.3160 -0.1002
 9281TIP3   OH249333   6.034   3.888   1.372 -0.5752 -0.2861 -0.4016
 9281TIP3    H149334   6.094   3.917   1.303 -1.2351  1.5800 -0.2256
 9281TIP3    H249335   6.091   3.869   1.447 -0.0288 -0.4245 -0.8536
 9282TIP3   OH249336   1.172   4.141  11.601  0.0275 -0.2046 -0.3238
 9282TIP3    H149337   1.151   4.049  11.614  1.4130 -0.2154  2.0308
 9282TIP3    H249338   1.206   4.171  11.686  1.0552  2.0759 -1.4909
 9283TIP3   OH249339   6.710   0.938  14.530 -0.3350  0.2300 -0.2532
 9283TIP3    H149340   6.710   1.029  14.558  2.5475  0.4193 -0.7156
 9283TIP3    H249341   6.719   0.942  14.435 -4.0250 -0.5032 -0.6809
 9284TIP3   OH249342   2.546   3.809   0.621  0.0411 -0.5961  0.0380
 9284TIP3    H149343   2.471   3.823   0.564  0.1550 -1.5963 -0.3674
 9284TIP3    H249344   2.515   3.746   0.686  0.2873 -0.4063  0.3384
 9285TIP3   OH249345   2.279   2.718   1.751 -0.0699 -0.8350  0.3942
 9285TIP3    H149346   2.347   2.773   1.710  1.4291 -2.5944  0.4509
 9285TIP3    H249347   2.233   2.678   1.678 -0.7950  0.0382  0.3636
 9286TIP3   OH249348   3.323   2.758   1.039 -0.1140  0.6842  0.1146
 9286TIP3    H149349   3.243   2.720   1.003 -0.8327  0.6419  1.6965
 9286TIP3    H249350   3.394   2.706   1.001 -0.9993 -1.1786  0.9459
 9287TIP3   OH249351   4.588   3.493   0.449 -0.0402 -0.2328  0.0187
 9287TIP3    H149352   4.618   3.495   0.539 -0.4776 -2.7467  0.2705
 9287TIP3    H249353   4.516   3.556   0.445  0.3912  0.3402  1.2715
 9288TIP3   OH249354   5.792   2.175   0.631 -0.5842  0.0980 -0.0017
 9288TIP3    H149355   5.768   2.252   0.682 -0.1925  1.0216 -1.2034
 9288TIP3    H249356   5.768   2.101   0.687 -1.6901  1.0714  0.8350
 9289TIP3   OH249357   5.046   6.294  15.140  0.2117  0.3486  0.4713
 9289TIP3    H149358   5.034   6.206  15.175 -1.1034  0.3154 -0.0542
 9289TIP3    H249359   5.124   6.288  15.085  0.1226 -0.4808  0.4399
 9290TIP3   OH249360   4.920   6.645   6.316  0.3678 -0.2036 -0.6961
 9290TIP3    H149361   4.873   6.562   6.322 -0.1109 -0.0740 -2.2904
 9290TIP3    H249362   5.008   6.621   6.287 -0.4340 -0.0321 -3.4999
 9291TIP3   OH249363   6.668   5.848  10.525  0.0215  0.0810  0.8859
 9291TIP3    H149364   6.717   5.865  10.445 -0.9230  0.2200  0.3324
 9291TIP3    H249365   6.621   5.930  10.542 -1.5065 -0.6718  0.3587
 9292TIP3   OH249366   5.459   2.650  15.461  0.2128 -0.0357 -0.1735
 9292TIP3    H149367   5.472   2.735  15.503  1.5996 -1.4272  2.2981
 9292TIP3    H249368   5.383   2.612  15.504  0.0974 -0.4171 -0.7018
 9293TIP3   OH249369   6.741   4.481   4.869  0.0819 -0.3626  0.0225
 9293TIP3    H149370   6.673   4.455   4.807  0.9647  3.0456 -2.5242
 9293TIP3    H249371   6.823   4.460   4.824  0.7307  0.3013  0.8854
 9294TIP3   OH249372   0.624   2.711  11.229  0.0980  0.8905 -0.3324
 9294TIP3    H149373   0.556   2.766  11.267 -0.9960  0.6771 -1.9400
 9294TIP3    H249374   0.625   2.633  11.284 -0.7431  1.0338 -0.1086
 9295TIP3   OH249375   1.323   6.153   2.961 -0.7004  0.0444 -0.5412
 9295TIP3    H149376   1.389   6.085   2.973  0.8787  1.4411 -1.1618
 9295TIP3    H249377   1.303   6.183   3.050 -2.0828 -1.8315 -0.1911
 9296TIP3   OH249378   5.457   1.286   4.160  0.1298 -0.6200  0.1075
 9296TIP3    H149379   5.548   1.260   4.176  1.0180  1.6433 -0.9435
 9296TIP3    H249380   5.424   1.313   4.245  0.2245 -2.0986  0.6173
 9297TIP3   OH249381   2.519   3.044  15.070  0.4880  0.1963  0.1548
 9297TIP3    H149382   2.526   2.949  15.058 -2.0613 -0.1119  0.7646
 9297TIP3    H249383   2.536   3.058  15.164 -1.0834  0.0785  0.4791
 9298TIP3   OH249384   2.606   2.326   1.101  0.5178  0.3599 -0.6533
 9298TIP3    H149385   2.590   2.328   1.007  2.0308  0.9210 -0.9141
 9298TIP3    H249386   2.631   2.416   1.123 -1.3518  0.6216  0.5743
 9299TIP3   OH249387   4.786   1.739   0.676  0.0263  0.0714  0.0856
 9299TIP3    H149388   4.791   1.798   0.752  1.1399 -2.6476  2.2116
 9299TIP3    H249389   4.708   1.686   0.693 -0.6600  0.5620 -1.5322
 9300TIP3   OH249390   4.307   6.719   2.443 -0.1228  0.7744 -0.3697
 9300TIP3    H149391   4.400   6.710   2.465 -0.1396  0.2231 -0.5306
 9300TIP3    H249392   4.286   6.810   2.466  0.2469  0.6587  0.4613
 9301TIP3   OH249393   3.128   3.339   1.437 -0.5888  0.0004 -0.2506
 9301TIP3    H149394   3.177   3.300   1.365 -0.1305  1.5157 -0.7932
 9301TIP3    H249395   3.196   3.376   1.494 -1.0223  0.6566 -0.1492
 9302TIP3   OH249396   6.082   6.311  12.666  0.0418 -0.6502  0.3274
 9302TIP3    H149397   6.057   6.333  12.755  2.3115 -2.2915  1.4184
 9302TIP3    H249398   6.061   6.218  12.657 -2.7853  0.1185 -1.8375
 9303TIP3   OH249399   2.774   3.647   0.585  0.1250 -0.6884 -0.2954
 9303TIP3    H149400   2.689   3.691   0.591 -0.2964 -1.6879  1.2414
 9303TIP3    H249401   2.804   3.665   0.496 -1.0810  0.7972 -0.4211
 9304TIP3   OH249402   5.972   4.639  15.496  0.7079  0.2266  0.9172
 9304TIP3    H149403   6.019   4.718  15.471 -0.0818  0.6164  0.6563
 9304TIP3    H249404   5.970   4.586  15.417  1.3511 -0.1220  1.1269
 9305TIP3   OH249405   4.616   1.638   2.267  0.3010  0.1935  0.2690
 9305TIP3    H149406   4.618   1.725   2.229 -0.2104  0.2386  0.3327
 9305TIP3    H249407   4.525   1.627   2.295  0.5991  0.0472  1.2004
 9306TIP3   OH249408   5.193   4.691   4.617 -0.0676  0.1802 -0.2098
 9306TIP3    H149409   5.232   4.749   4.682  0.8972 -1.2356  0.4862
 9306TIP3    H249410   5.267   4.648   4.575 -0.8012 -2.0827  0.7231
 9307TIP3   OH249411   4.917   1.341   5.369 -0.5411 -0.0117 -0.2030
 9307TIP3    H149412   4.845   1.292   5.408 -0.3700  1.0631  1.4928
 9307TIP3    H249413   4.900   1.432   5.391  0.4092  0.4540 -1.2977
 9308TIP3   OH249414   2.317   5.826   3.870  0.8778  0.0891 -0.1299
 9308TIP3    H149415   2.411   5.811   3.868  0.6770 -1.0829 -1.0429
 9308TIP3    H249416   2.282   5.757   3.926  0.7752  1.8841  2.1333
 9309TIP3   OH249417   1.372   3.491  15.640  0.3384 -0.0886  0.0090
 9309TIP3    H149418   1.283   3.511  15.667  0.4575  0.3642  0.0632
 9309TIP3    H249419   1.423   3.493  15.720 -0.2696 -4.2822  0.6589
 9310TIP3   OH249420   5.679   1.552   4.488 -0.1613  0.0860  0.1633
 9310TIP3    H149421   5.765   1.529   4.453  0.1166 -0.8681  1.4439
 9310TIP3    H249422   5.627   1.574   4.410  1.2226  0.6726 -0.6189
 9311TIP3   OH249423   1.789   3.484   0.704 -0.1826  0.4665  0.4326
 9311TIP3    H149424   1.809   3.543   0.631 -1.5249 -0.0155 -0.3200
 9311TIP3    H249425   1.756   3.542   0.772 -0.6363  0.6937  0.0189
 9312TIP3   OH249426   2.463   0.083  11.834  0.0469  0.8138 -0.2711
 9312TIP3    H149427   2.412   0.003  11.826 -0.2452  0.8455  1.1734
 9312TIP3    H249428   2.549   0.061  11.797 -0.3265  0.1261 -0.7350
 9313TIP3   OH249429   4.809   4.906  16.717  0.6452 -0.5630  0.5074
 9313TIP3    H149430   4.843   4.889  16.629 -0.4403  1.5768 -0.4003
 9313TIP3    H249431   4.723   4.947  16.701  1.0189  1.1103  2.5163
 9314TIP3   OH249432   1.823   4.463  12.266 -0.1842  0.0474  0.7087
 9314TIP3    H149433   1.818   4.406  12.189  0.2275 -0.3257  0.9578
 9314TIP3    H249434   1.749   4.437  12.321  0.4475 -0.7636  1.1774
 9315TIP3   OH249435   3.293   0.184  16.597  0.1764 -0.1266  0.2873
 9315TIP3    H149436   3.216   0.194  16.652  0.2703  0.4178  0.3263
 9315TIP3    H249437   3.323   0.095  16.612 -1.4970 -0.9386 -1.1057
 9316TIP3   OH249438   0.567   1.043   4.293  0.2307  0.3057  0.0959
 9316TIP3    H149439   0.564   1.130   4.333 -0.7223  0.1006  0.4792
 9316TIP3    H249440   0.652   1.039   4.250  0.1315  1.5728 -0.2334
 9317TIP3   OH249441   5.079   2.139  13.711 -0.7389 -0.1290  0.5212
 9317TIP3    H149442   5.084   2.175  13.800  1.0517  0.3331  0.2614
 9317TIP3    H249443   5.109   2.049  13.719  0.4699  0.2394  0.2213
 9318TIP3   OH249444   3.806   5.595   3.861 -0.4072  0.1682  0.2958
 9318TIP3    H149445   3.764   5.621   3.779 -3.6253 -0.2033  1.7320
 9318TIP3    H249446   3.805   5.499   3.859  1.2183  0.1454 -0.0329
 9319TIP3   OH249447   1.186   2.835   2.712 -0.0853  0.1145 -0.3065
 9319TIP3    H149448   1.134   2.915   2.712 -0.2782 -0.0114 -0.7332
 9319TIP3    H249449   1.130   2.769   2.673 -0.4358 -0.5793  1.3376
 9320TIP3   OH249450   0.529   4.451  10.561  0.9572  0.0007 -0.1222
 9320TIP3    H149451   0.524   4.358  10.585  0.6499  0.0134 -0.1355
 9320TIP3    H249452   0.477   4.495  10.628 -0.0084  0.0251 -0.8735
 9321TIP3   OH249453   0.791   3.772  16.630 -0.2381  0.2803 -0.2164
 9321TIP3    H149454   0.736   3.824  16.689  1.1205  2.5544 -0.8489
 9321TIP3    H249455   0.836   3.710  16.688 -1.1288  0.5064  0.7392
 9322TIP3   OH249456   1.560   5.755   4.004  0.1265 -0.0304  1.1793
 9322TIP3    H149457   1.529   5.845   3.997 -0.1488 -0.1437  0.9635
 9322TIP3    H249458   1.636   5.751   3.946  0.0963  0.0423  1.1351
 9323TIP3   OH249459   3.546   5.033   0.255 -0.5022  0.2548  0.5921
 9323TIP3    H149460   3.640   5.016   0.242 -0.7744 -0.2071 -0.8593
 9323TIP3    H249461   3.537   5.046   0.349  0.7774 -1.1852  0.9280
 9324TIP3   OH249462   2.881   4.910  11.820 -0.0793 -0.1535 -0.3734
 9324TIP3    H149463   2.964   4.957  11.807 -0.0363 -0.0593  0.2131
 9324TIP3    H249464   2.814   4.972  11.795 -0.0290  0.2869  0.5431
 9325TIP3   OH249465   1.838   3.390  14.794 -0.0320  0.2501  0.2338
 9325TIP3    H149466   1.884   3.335  14.858 -0.0438 -0.1918 -0.1318
 9325TIP3    H249467   1.844   3.479  14.829 -3.1260 -0.4264  2.6678
 9326TIP3   OH249468   4.037   1.309  15.220 -0.1203  0.1443  0.1804
 9326TIP3    H149469   4.105   1.298  15.286 -0.3355  2.0288  0.7479
 9326TIP3    H249470   4.051   1.237  15.159  2.0089  0.1624  0.6157
 9327TIP3   OH249471   4.737   6.219  11.335  0.1739 -0.2615 -0.4381
 9327TIP3    H149472   4.731   6.259  11.421  0.2443  0.1432 -0.6236
 9327TIP3    H249473   4.774   6.132  11.352 -2.4892 -1.3028  0.2574
 9328TIP3   OH249474   3.421   2.180  14.293 -0.3739  0.0056 -0.6576
 9328TIP3    H149475   3.414   2.272  14.319  2.1160 -0.3084  1.3941
 9328TIP3    H249476   3.389   2.131  14.369 -0.4976 -0.8218 -1.2397
 9329TIP3   OH249477   5.447   3.792  15.755  0.0860  0.1014 -0.3271
 9329TIP3    H149478   5.460   3.860  15.689  0.5916  1.0599  0.7455
 9329TIP3    H249479   5.370   3.822  15.804  1.2056  0.6959  1.1097
 9330TIP3   OH249480   1.538   3.840   3.191  0.1193  0.6024 -0.4279
 9330TIP3    H149481   1.503   3.753   3.210  1.9336  0.3133  1.8397
 9330TIP3    H249482   1.541   3.844   3.096  1.3739 -2.3886 -0.5740
 9331TIP3   OH249483   5.421   6.029  11.487 -0.3039 -0.1248 -0.2781
 9331TIP3    H149484   5.493   6.036  11.425 -0.1945 -1.0968 -0.2655
 9331TIP3    H249485   5.459   5.988  11.564 -0.7624 -0.2384 -0.1084
 9332TIP3   OH249486   3.800   0.045  15.433 -0.0296 -0.3623 -0.8480
 9332TIP3    H149487   3.712   0.056  15.396  0.5585  0.9117 -1.9395
 9332TIP3    H249488   3.844  -0.015  15.373  0.7788  1.3458 -2.0167
 9333TIP3   OH249489   3.724   5.417   2.891  0.1041 -0.6288 -0.1227
 9333TIP3    H149490   3.688   5.332   2.865  0.8413 -1.2893  1.0067
 9333TIP3    H249491   3.796   5.431   2.830 -1.3105  0.1877 -1.6762
 9334TIP3   OH249492   1.010   5.956   1.551  0.1869  0.6458  1.0188
 9334TIP3    H149493   1.051   5.869   1.556  0.1212  0.4835 -1.0032
 9334TIP3    H249494   0.950   5.958   1.625 -0.3090 -1.2970  0.6966
 9335TIP3   OH249495   6.275   6.511  12.768 -0.1888 -0.0213  0.3893
 9335TIP3    H149496   6.366   6.486  12.755  0.3461  1.1324  1.7846
 9335TIP3    H249497   6.226   6.456  12.707  1.6880  1.5725 -2.6564
 9336TIP3   OH249498   2.516   6.254  13.327 -0.6453  0.2798 -0.2784
 9336TIP3    H149499   2.522   6.312  13.403  0.5515  0.6295 -0.6375
 9336TIP3    H249500   2.461   6.301  13.265  1.4748  1.6845 -1.1391
 9337TIP3   OH249501   2.555   1.196   3.963 -0.0865 -0.3263 -0.1340
 9337TIP3    H149502   2.621   1.149   4.014 -0.0725 -1.6211 -1.3424
 9337TIP3    H249503   2.546   1.146   3.882 -1.2860  0.8187 -0.7290
 9338TIP3   OH249504   2.968   4.127   1.140 -0.2452  0.2213 -0.0364
 9338TIP3    H149505   2.962   4.035   1.167  1.7622 -0.3958 -1.6257
 9338TIP3    H249506   2.887   4.166   1.172 -1.5264 -2.2995 -0.0768
 9339TIP3   OH249507   1.507   1.050   1.786 -0.4073  0.0768 -0.6189
 9339TIP3    H149508   1.566   1.088   1.852  1.8901 -1.5459 -1.6604
 9339TIP3    H249509   1.481   1.125   1.732  1.3392  0.7335 -0.6089
 9340TIP3   OH249510   5.797   6.459  13.161 -0.1027 -0.1621 -0.3485
 9340TIP3    H149511   5.831   6.417  13.241  0.0015  1.3105  0.3897
 9340TIP3    H249512   5.841   6.543  13.157 -0.9757  0.2581 -1.3557
 9341TIP3   OH249513   1.751   1.503   2.337  0.2182 -0.4694  0.0266
 9341TIP3    H149514   1.733   1.409   2.342 -0.7359 -0.2708  0.4324
 9341TIP3    H249515   1.784   1.517   2.249 -1.2807 -0.9069 -0.6108
 9342TIP3   OH249516   1.244   6.529   4.352 -0.9106  0.2200  0.2788
 9342TIP3    H149517   1.192   6.517   4.273 -0.7671  0.8681  0.0871
 9342TIP3    H249518   1.272   6.440   4.375 -0.6821  0.0592 -0.5812
 9343TIP3   OH249519   1.558   0.708  15.126  0.0569  0.5687  0.6472
 9343TIP3    H149520   1.590   0.715  15.216  1.7633 -1.4978  0.2463
 9343TIP3    H249521   1.626   0.749  15.073  0.4683 -0.7982  0.0829
 9344TIP3   OH249522   2.978   3.923   0.667 -0.2370  1.0639  0.4117
 9344TIP3    H149523   2.941   3.950   0.583 -0.9474  0.9870  0.6881
 9344TIP3    H249524   2.912   3.950   0.732 -0.0800  0.3953  0.8636
 9345TIP3   OH249525   3.010   2.620  11.805  0.0979 -0.0766  0.4546
 9345TIP3    H149526   2.930   2.640  11.853 -1.8101 -0.5890 -2.3899
 9345TIP3    H249527   3.044   2.706  11.779  0.1182  0.1062  1.0648
 9346TIP3   OH249528   3.507   6.399  16.812 -0.3635  0.3882  0.3222
 9346TIP3    H149529   3.476   6.422  16.724  0.1181  0.7269  0.2379
 9346TIP3    H249530   3.504   6.481  16.861 -1.2771  0.0598  0.8223
 9347TIP3   OH249531   6.211   4.515  15.139  0.3786 -0.2019  0.2400
 9347TIP3    H149532   6.269   4.457  15.089  0.7901  0.2142  0.2304
 9347TIP3    H249533   6.173   4.459  15.207  0.7451 -0.4878  0.2083
 9348TIP3   OH249534   2.992   4.396  13.234 -0.6889 -0.2184 -0.1157
 9348TIP3    H149535   2.913   4.406  13.287 -1.6046  1.0665 -1.6640
 9348TIP3    H249536   2.961   4.359  13.151  0.2798  0.5924 -0.8594
 9349TIP3   OH249537   3.568   4.449  15.013 -0.6558 -0.5420  0.1383
 9349TIP3    H149538   3.576   4.474  14.921 -0.8371 -1.5823 -0.1628
 9349TIP3    H249539   3.546   4.356  15.012 -1.4092 -0.3929  1.2218
 9350TIP3   OH249540   6.000   6.302   5.474 -0.8622  0.1456 -0.0703
 9350TIP3    H149541   6.089   6.331   5.453 -1.8908  2.8146 -0.9818
 9350TIP3    H249542   5.948   6.383   5.476 -2.9511 -1.1692  2.1082
 9351TIP3   OH249543   6.394   6.192  12.160 -0.2443  0.0955 -0.5596
 9351TIP3    H149544   6.349   6.138  12.224  0.6875  1.2630  1.1365
 9351TIP3    H249545   6.325   6.240  12.115 -0.8112  0.4356  0.6710
 9352TIP3   OH249546   5.402   5.841   0.750  0.1783 -0.1113 -0.1572
 9352TIP3    H149547   5.337   5.883   0.807  1.3997  0.0404  1.1611
 9352TIP3    H249548   5.410   5.900   0.675 -0.6638  0.2436  0.0266
 9353TIP3   OH249549   5.765   1.973   0.811 -0.1371 -1.1265  0.1973
 9353TIP3    H149550   5.821   1.895   0.809 -0.0368 -1.0362 -0.5066
 9353TIP3    H249551   5.678   1.939   0.833 -0.0509 -1.4059  0.1133
 9354TIP3   OH249552   1.361   0.203  12.322  0.2436  0.2777 -0.3861
 9354TIP3    H149553   1.397   0.290  12.338 -0.3405  0.2213  1.3633
 9354TIP3    H249554   1.295   0.216  12.255 -1.1575  1.5191  1.1917
 9355TIP3   OH249555   1.100   1.802   4.573  0.1681  0.2349  0.1911
 9355TIP3    H149556   1.113   1.807   4.478  2.1855 -0.8928  0.3619
 9355TIP3    H249557   1.148   1.723   4.599  0.3201  0.9809  2.2595
 9356TIP3   OH249558   0.107   5.817   5.241 -0.6733 -0.6419 -0.2509
 9356TIP3    H149559   0.027   5.782   5.281 -0.7978 -0.5209 -0.3934
 9356TIP3    H249560   0.135   5.749   5.180 -0.5218 -0.7975 -0.0121
 9357TIP3   OH249561   3.744   3.561  17.180  0.0053  0.3854 -0.0819
 9357TIP3    H149562   3.787   3.567  17.094  0.9878  0.5252  0.4188
 9357TIP3    H249563   3.774   3.478  17.216  0.9872  1.1366  0.8682
 9358TIP3   OH249564   4.740   0.547  11.775  0.1152  0.6922  0.3079
 9358TIP3    H149565   4.700   0.633  11.784  1.9628  1.7635 -1.2130
 9358TIP3    H249566   4.827   0.565  11.738  1.3085 -1.6629  1.8075
 9359TIP3   OH249567   3.799   3.012  11.914  0.4081 -0.6097 -0.4670
 9359TIP3    H149568   3.748   2.979  11.840 -1.7042  0.5102  0.4072
 9359TIP3    H249569   3.749   2.985  11.991  1.1906  0.4361  0.4278
 9360TIP3   OH249570   2.148   4.032   5.009 -0.2275  0.3617 -0.3343
 9360TIP3    H149571   2.062   4.066   4.982 -0.0535  0.4004 -0.8414
 9360TIP3    H249572   2.128   3.975   5.083 -0.7236  0.1952 -0.5894
 9361TIP3   OH249573   1.619   2.700   0.152  0.2036 -0.3729  0.2478
 9361TIP3    H149574   1.564   2.761   0.202  0.7097  0.3589 -0.0737
 9361TIP3    H249575   1.612   2.731   0.061  1.2438 -0.2001  0.2268
 9362TIP3   OH249576   5.949   1.276  12.570  0.2084  0.0960  0.1560
 9362TIP3    H149577   5.892   1.206  12.602 -1.0550  0.3214 -1.4825
 9362TIP3    H249578   5.939   1.273  12.475  0.4955  2.1956  0.0236
 9363TIP3   OH249579   2.042   2.617  11.286  0.6348  0.2093 -0.5421
 9363TIP3    H149580   2.091   2.683  11.238 -0.0803  0.7317 -0.5507
 9363TIP3    H249581   2.090   2.607  11.369  0.0427  1.6479 -0.0140
 9364TIP3   OH249582   0.845   2.120  11.315  0.6177  0.6440 -0.2193
 9364TIP3    H149583   0.877   2.209  11.302  1.1024  0.6943  1.3156
 9364TIP3    H249584   0.750   2.130  11.324  0.6583  0.9785 -0.1588
 9365TIP3   OH249585   5.343   5.102  13.674 -0.7665 -0.5199 -0.8187
 9365TIP3    H149586   5.370   5.018  13.713  0.0024 -0.3182 -0.8985
 9365TIP3    H249587   5.399   5.111  13.597 -1.7027 -0.5147 -1.5027
 9366TIP3   OH249588   4.770   3.063  14.674 -0.6406  0.5682  0.6977
 9366TIP3    H149589   4.774   3.101  14.587  0.6949  2.6523  1.6455
 9366TIP3    H249590   4.732   2.976  14.660  2.2015 -0.2600 -2.3182
 9367TIP3   OH249591   3.218   5.103   0.310 -0.0372 -0.1375 -0.1122
 9367TIP3    H149592   3.125   5.081   0.299 -0.3823  0.7668  0.8534
 9367TIP3    H249593   3.257   5.088   0.224 -1.2234  0.1529 -0.7120
 9368TIP3   OH249594   4.960   6.254  16.353 -0.0031  0.0400 -0.1076
 9368TIP3    H149595   4.878   6.208  16.370  0.3477 -0.2534  0.8177
 9368TIP3    H249596   4.975   6.242  16.259 -1.1817  0.3766 -0.3427
 9369TIP3   OH249597   2.123   1.722  17.052 -0.3840  0.4800  0.0454
 9369TIP3    H149598   2.113   1.788  16.983 -1.2270 -0.9475 -1.2389
 9369TIP3    H249599   2.214   1.695  17.047  0.0781  1.8213  0.8615
 9370TIP3   OH249600   1.746   3.264  16.729  0.0242  0.2580 -0.6115
 9370TIP3    H149601   1.808   3.336  16.718  1.8873 -1.1855  0.0373
 9370TIP3    H249602   1.698   3.285  16.808  1.0463  0.4604 -0.0367
 9371TIP3   OH249603   1.295   1.855   5.620  0.5040  0.7680  0.2385
 9371TIP3    H149604   1.376   1.888   5.658 -0.2683  0.5434  2.1104
 9371TIP3    H249605   1.244   1.934   5.599  1.1040  0.9024 -0.7725
 9372TIP3   OH249606   5.128   2.404   6.273  0.5019 -0.1691 -0.2483
 9372TIP3    H149607   5.129   2.311   6.296  2.2877  0.0193  0.4753
 9372TIP3    H249608   5.098   2.448   6.352  0.8362 -0.0233 -0.2042
 9373TIP3   OH249609   3.731   0.764  14.329 -0.7507  0.3311  0.1591
 9373TIP3    H149610   3.667   0.739  14.396 -1.2424 -1.1269 -0.8297
 9373TIP3    H249611   3.678   0.789  14.254 -0.1505 -1.5951 -0.9108
 9374TIP3   OH249612   3.625   6.389   0.096  0.2499  0.3223  0.0032
 9374TIP3    H149613   3.563   6.364   0.029  1.9010 -0.9302 -1.0955
 9374TIP3    H249614   3.628   6.314   0.155 -0.0186  0.7855  0.6142
 9375TIP3   OH249615   6.342   2.650  14.601 -0.2260  0.1751  0.0837
 9375TIP3    H149616   6.347   2.735  14.557 -0.6209  0.0933 -0.1261
 9375TIP3    H249617   6.267   2.658  14.661 -1.1011 -0.4550 -0.8971
 9376TIP3   OH249618   1.025   5.855  13.673 -0.0777  0.0301  0.2839
 9376TIP3    H149619   1.067   5.896  13.597  2.0089  0.4931  1.6344
 9376TIP3    H249620   1.054   5.763  13.669  0.1676  0.0926  0.6033
 9377TIP3   OH249621   4.317   3.335   5.074  0.7480 -0.4749 -0.0878
 9377TIP3    H149622   4.297   3.427   5.092  1.3802 -0.0582 -1.4453
 9377TIP3    H249623   4.326   3.295   5.160 -1.9910  0.1728  0.5693
 9378TIP3   OH249624   4.192   5.166   1.385  0.1390  0.0484  0.3135
 9378TIP3    H149625   4.115   5.119   1.352  0.6245 -0.6764  0.2114
 9378TIP3    H249626   4.261   5.100   1.386  0.5831  0.5292  1.0620
 9379TIP3   OH249627   0.161   3.118  15.327  0.1626  0.3329 -0.4836
 9379TIP3    H149628   0.085   3.165  15.293 -0.0310 -1.5515 -2.7539
 9379TIP3    H249629   0.130   3.028  15.340  1.7905 -0.2708 -0.6686
 9380TIP3   OH249630   6.201   5.821   0.134 -0.2162 -0.1891 -0.0671
 9380TIP3    H149631   6.211   5.797   0.041  0.2264  2.1558 -0.6454
 9380TIP3    H249632   6.123   5.876   0.136 -0.1116 -0.0663  0.9250
 9381TIP3   OH249633   0.735   3.337  12.810 -0.2170 -0.2801  1.3122
 9381TIP3    H149634   0.721   3.267  12.874  2.9793 -1.2963  0.9984
 9381TIP3    H249635   0.815   3.380  12.839 -0.5159  1.3456 -0.1803
 9382TIP3   OH249636   0.188   5.932  15.628 -0.2079 -0.2473 -0.3537
 9382TIP3    H149637   0.169   5.884  15.547  1.6553 -1.0610 -0.3288
 9382TIP3    H249638   0.280   5.913  15.646 -0.8010 -0.6233  2.3505
 9383TIP3   OH249639   1.901   4.941  13.580  0.1086 -0.1538  0.3677
 9383TIP3    H149640   1.844   4.949  13.504 -0.6186 -0.6885  0.8482
 9383TIP3    H249641   1.990   4.954  13.546 -0.1735 -0.8283 -0.6325
 9384TIP3   OH249642   2.071   4.404  16.563  0.7348  0.5053  0.0137
 9384TIP3    H149643   2.120   4.460  16.624  0.7306  1.2052 -0.6226
 9384TIP3    H249644   2.085   4.444  16.477 -1.7814  1.3002 -0.0667
 9385TIP3   OH249645   4.880   4.159   5.223  0.1617 -0.0150 -0.3493
 9385TIP3    H149646   4.891   4.241   5.175 -0.1596  0.1833 -0.0904
 9385TIP3    H249647   4.833   4.184   5.303 -0.1723 -0.4937 -0.3932
 9386TIP3   OH249648   3.166   6.061   0.312  0.3641  0.3680 -0.7047
 9386TIP3    H149649   3.153   6.155   0.325 -1.3070  0.0942 -0.2363
 9386TIP3    H249650   3.143   6.022   0.396  0.6349 -0.4955 -1.0299
 9387TIP3   OH249651   6.523   5.040  12.089 -0.0702  0.1886  0.2539
 9387TIP3    H149652   6.437   5.060  12.051 -0.0277 -0.9012 -0.4031
 9387TIP3    H249653   6.504   5.024  12.182 -0.6916 -0.8081 -0.0356
 9388TIP3   OH249654   1.671   6.719   3.290  0.0145 -0.4664  0.1039
 9388TIP3    H149655   1.664   6.804   3.333 -1.2926 -0.6254  0.2155
 9388TIP3    H249656   1.679   6.656   3.362 -4.1249 -0.9353  0.2845
 9389TIP3   OH249657   6.661   4.377  13.317 -0.2125 -0.3678 -0.5381
 9389TIP3    H149658   6.656   4.442  13.247  1.7119 -0.6866 -0.9963
 9389TIP3    H249659   6.719   4.309  13.283  0.9280 -0.4263  1.4322
 9390TIP3   OH249660   0.455   6.155   4.894  0.3779 -0.4590  0.1765
 9390TIP3    H149661   0.532   6.199   4.931  0.3909  1.1197 -1.6322
 9390TIP3    H249662   0.417   6.106   4.967  0.9314  1.8151  2.0376
 9391TIP3   OH249663   0.395   1.967  13.326 -0.0554 -0.4804  0.1296
 9391TIP3    H149664   0.320   1.939  13.378 -0.7268 -0.7166 -0.9554
 9391TIP3    H249665   0.448   1.888  13.315  0.9415 -0.0807  1.8318
 9392TIP3   OH249666   5.243   5.168  11.429 -0.0498 -0.1108  0.1921
 9392TIP3    H149667   5.244   5.090  11.374  2.1376 -0.4669  0.6652
 9392TIP3    H249668   5.316   5.221  11.397  1.9242 -0.7738  3.3192
 9393TIP3   OH249669   4.580   1.776  16.848  0.3075  0.1691 -0.3730
 9393TIP3    H149670   4.513   1.767  16.916  1.0838 -0.0634  0.3674
 9393TIP3    H249671   4.539   1.829  16.780 -0.2877  0.8639  0.5203
 9394TIP3   OH249672   2.600   2.687  12.710 -0.2166  0.0470  0.1127
 9394TIP3    H149673   2.586   2.757  12.648  0.3302  0.3748  0.3590
 9394TIP3    H249674   2.599   2.607  12.657 -0.5881  0.2538 -0.1968
 9395TIP3   OH249675   4.920   6.100   4.984 -0.2647  0.3839  0.4140
 9395TIP3    H149676   4.974   6.154   4.927  0.0445 -1.3727 -1.0159
 9395TIP3    H249677   4.956   6.012   4.975 -1.4096 -0.2628  1.8643
 9396TIP3   OH249678   4.501   2.558  10.299 -0.1922  0.5429  0.0680
 9396TIP3    H149679   4.409   2.565  10.273 -0.5132  0.5097  1.1724
 9396TIP3    H249680   4.549   2.560  10.216 -1.1805  0.6001 -0.5198
 9397TIP3   OH249681   1.449   4.363   0.701  0.1696 -0.2976 -0.0395
 9397TIP3    H149682   1.358   4.336   0.688  0.1644  0.3698 -1.5091
 9397TIP3    H249683   1.454   4.451   0.662  1.1808  0.1263  0.9985
 9398TIP3   OH249684   3.500   4.634  17.285  0.0260  0.0361  0.0922
 9398TIP3    H149685   3.545   4.718  17.276  1.3542 -0.4968  1.5510
 9398TIP3    H249686   3.421   4.653  17.334 -0.6102  0.7290 -1.1747
 9399TIP3   OH249687   4.152   1.156  14.374 -0.5364 -0.4907  0.3251
 9399TIP3    H149688   4.085   1.168  14.307  0.2223  1.5080 -0.1279
 9399TIP3    H249689   4.158   1.242  14.418  0.1024 -1.3086  1.8766
 9400TIP3   OH249690   3.266   1.927   4.431  0.1686 -0.0881  0.3823
 9400TIP3    H149691   3.239   1.906   4.341 -0.5684  1.1942  0.2993
 9400TIP3    H249692   3.185   1.924   4.481  0.2667  1.2297  0.6230
 9401TIP3   OH249693   1.635   2.062  14.278 -0.1274 -0.3016 -0.3187
 9401TIP3    H149694   1.707   2.112  14.240 -1.5118  2.3634  0.4965
 9401TIP3    H249695   1.598   2.013  14.204  0.7350  0.4941 -1.2809
 9402TIP3   OH249696   2.694   6.731   5.096  0.1821 -0.7637 -0.0852
 9402TIP3    H149697   2.733   6.811   5.060  0.3744 -1.0265 -0.4654
 9402TIP3    H249698   2.767   6.686   5.138  0.1260 -0.8644 -0.0964
 9403TIP3   OH249699   2.190   0.152   2.769  0.1865 -0.4221 -0.4375
 9403TIP3    H149700   2.282   0.132   2.755  0.3649 -0.5865  0.8866
 9403TIP3    H249701   2.157   0.179   2.683  1.8722  1.2581 -0.5811
 9404TIP3   OH249702   0.268   6.128   3.467 -0.4136 -0.3954  0.9474
 9404TIP3    H149703   0.263   6.212   3.422 -0.7580 -0.8841  0.0492
 9404TIP3    H249704   0.328   6.143   3.540  0.8485  0.1789 -0.1964
 9405TIP3   OH249705   5.532   3.452  10.543 -0.1472 -0.1009 -0.5235
 9405TIP3    H149706   5.592   3.452  10.468 -0.5822  1.1223 -0.8980
 9405TIP3    H249707   5.500   3.543  10.547  0.0886 -0.0927  1.3254
 9406TIP3   OH249708   6.460   6.349  16.612 -0.8431 -0.1562 -0.2520
 9406TIP3    H149709   6.477   6.271  16.559 -0.7375 -2.5831  3.1539
 9406TIP3    H249710   6.367   6.344  16.634 -0.4536 -0.3537  1.4536
 9407TIP3   OH249711   4.235   2.062  11.294 -0.1730  0.6186  0.3052
 9407TIP3    H149712   4.306   2.113  11.256 -0.8273  0.9507 -0.4976
 9407TIP3    H249713   4.214   1.997  11.226 -1.2680  1.1339  0.1345
 9408TIP3   OH249714   6.370   5.718   1.840  0.1864 -0.6003  0.1821
 9408TIP3    H149715   6.356   5.630   1.874  1.4160 -0.7583  0.2935
 9408TIP3    H249716   6.426   5.761   1.905  0.3923 -0.0536 -0.3484
 9409TIP3   OH249717   3.174   4.057  14.218  0.6969  0.4734 -0.1371
 9409TIP3    H149718   3.131   3.972  14.223  2.5501 -0.5136 -0.5819
 9409TIP3    H249719   3.102   4.121  14.224 -0.5387 -1.0753  2.0735
 9410TIP3   OH249720   3.726   1.359   2.175 -0.1250  0.6840 -0.0173
 9410TIP3    H149721   3.643   1.389   2.212 -0.1551  0.1670  0.3385
 9410TIP3    H249722   3.712   1.361   2.081 -0.6036  0.4426  0.0450
 9411TIP3   OH249723   5.513   5.885  10.863 -0.3376 -0.2445 -0.1265
 9411TIP3    H149724   5.547   5.904  10.775  0.9986  0.9346  0.6249
 9411TIP3    H249725   5.451   5.956  10.880 -2.0866 -1.5519 -0.8819
 9412TIP3   OH249726   1.085   2.414  14.193 -0.1473 -0.0090  0.4991
 9412TIP3    H149727   1.078   2.501  14.230  0.1593 -0.1989  1.0108
 9412TIP3    H249728   1.140   2.426  14.115  1.1468  0.0252  1.3870
 9413TIP3   OH249729   5.427   5.574  17.063  0.3774 -0.1068 -0.4912
 9413TIP3    H149730   5.501   5.618  17.106 -0.4125  0.1820  0.5835
 9413TIP3    H249731   5.459   5.554  16.975  2.1425 -0.9798  0.3158
 9414TIP3   OH249732   0.029   5.579   2.048  0.2579 -0.6976  0.8892
 9414TIP3    H149733   0.080   5.551   1.972 -1.0483  0.3169 -0.3842
 9414TIP3    H249734  -0.009   5.497   2.082 -1.6912 -0.8162 -1.4521
 9415TIP3   OH249735   0.927   0.379   2.774  0.0795 -0.7836 -0.3602
 9415TIP3    H149736   0.889   0.449   2.721  0.1487 -1.3537 -1.1685
 9415TIP3    H249737   0.903   0.298   2.728  0.5658 -1.2535  0.2051
 9416TIP3   OH249738   2.321   1.917  16.427 -0.3219  0.1934 -0.7353
 9416TIP3    H149739   2.290   1.827  16.440  0.9925  0.1120  2.4163
 9416TIP3    H249740   2.248   1.971  16.458  0.7735  0.0552  2.3543
 9417TIP3   OH249741   2.680   2.188   5.410  0.3633  0.4488 -0.2390
 9417TIP3    H149742   2.601   2.227   5.373  0.0858 -0.1644 -0.2955
 9417TIP3    H249743   2.683   2.218   5.500 -0.9313 -1.0212  0.3114
 9418TIP3   OH249744   3.736   6.170  13.783 -0.0571  0.4672  0.1031
 9418TIP3    H149745   3.764   6.090  13.739 -0.8865  0.2428 -0.0143
 9418TIP3    H249746   3.786   6.170  13.865 -0.7931 -0.6722  0.5521
 9419TIP3   OH249747   6.064   3.656  10.911 -0.4667  0.0980  0.6893
 9419TIP3    H149748   6.014   3.584  10.948  0.7625 -1.3115 -0.3240
 9419TIP3    H249749   6.042   3.655  10.817  1.5924 -0.6907  0.1906
 9420TIP3   OH249750   2.109   6.045  12.370 -0.1917  0.6415 -0.0771
 9420TIP3    H149751   2.035   6.104  12.355 -1.3362 -0.8019 -0.1550
 9420TIP3    H249752   2.144   6.028  12.282  0.6772  1.8524  0.0140
 9421TIP3   OH249753   1.467   3.473   1.228 -0.0358  0.0038  0.2511
 9421TIP3    H149754   1.460   3.392   1.279  0.2437 -0.3130 -0.2101
 9421TIP3    H249755   1.544   3.459   1.173  0.2758  0.7655  0.4930
 9422TIP3   OH249756   1.630   4.625  15.374 -0.8584  0.6385  0.1894
 9422TIP3    H149757   1.537   4.615  15.352 -1.3975  0.7218  2.3078
 9422TIP3    H249758   1.654   4.540  15.411  0.5476 -0.1610 -2.4094
 9423TIP3   OH249759   4.373   4.168   3.552  0.9224  0.4740 -0.1765
 9423TIP3    H149760   4.310   4.197   3.487  0.2978  1.1453  0.7063
 9423TIP3    H249761   4.452   4.220   3.536  0.5801  1.0312 -0.0389
 9424TIP3   OH249762   2.990   4.977  14.617 -0.3330 -0.2429 -0.5026
 9424TIP3    H149763   3.080   4.976  14.584 -0.1337  0.8429 -0.0102
 9424TIP3    H249764   2.990   4.916  14.690  0.1005  0.0370 -0.2686
 9425TIP3   OH249765   3.014   6.773   3.572  0.2947 -0.2156  0.2160
 9425TIP3    H149766   3.022   6.868   3.585  0.3153 -0.0097 -1.1719
 9425TIP3    H249767   3.062   6.735   3.645  1.0808  0.8660  0.2878
 9426TIP3   OH249768   6.068   6.011  13.438  0.2150  0.0192  0.3381
 9426TIP3    H149769   5.990   6.060  13.463 -0.0475 -0.2857  0.1199
 9426TIP3    H249770   6.057   5.925  13.478  0.7193  0.1690  0.7987
 9427TIP3   OH249771   1.200   2.215   4.916 -0.1782 -0.4138 -0.3909
 9427TIP3    H149772   1.146   2.166   4.978  1.1432 -0.6335  0.6043
 9427TIP3    H249773   1.279   2.238   4.965 -0.8654  2.9572 -0.7630
 9428TIP3   OH249774   5.600   4.683  10.464 -0.2807  0.4866  0.4266
 9428TIP3    H149775   5.657   4.738  10.410  0.2476  0.1083  0.5947
 9428TIP3    H249776   5.563   4.744  10.529 -0.3029  0.7896  0.1309
 9429TIP3   OH249777   4.617   2.030  11.659  0.7189  0.2493  0.0431
 9429TIP3    H149778   4.587   2.075  11.579 -0.1807 -0.8086 -0.2226
 9429TIP3    H249779   4.711   2.048  11.662  0.9958 -0.6802 -1.9243
 9430TIP3   OH249780   4.061   2.521  14.623  0.1446 -0.7102 -0.0161
 9430TIP3    H149781   4.013   2.452  14.668  0.0261 -1.2154 -0.9191
 9430TIP3    H249782   4.028   2.520  14.534 -0.2090  0.8385  0.0773
 9431TIP3   OH249783   5.926   3.234   4.100 -0.9164 -0.0020  0.2901
 9431TIP3    H149784   5.905   3.314   4.148  0.6170  1.2115 -0.9973
 9431TIP3    H249785   5.864   3.232   4.028 -0.4730  0.4291 -0.1052
 9432TIP3   OH249786   0.663   6.390   3.786  0.0716 -0.0296 -0.6370
 9432TIP3    H149787   0.577   6.409   3.749  0.3061 -0.8900 -1.6420
 9432TIP3    H249788   0.693   6.475   3.819 -1.5207  0.1139  0.5257
 9433TIP3   OH249789   0.497   4.864  14.678  0.1304  0.1407  0.1951
 9433TIP3    H149790   0.407   4.846  14.703 -0.4847  3.0342  0.3048
 9433TIP3    H249791   0.490   4.902  14.590  1.1886  0.8361  0.3973
 9434TIP3   OH249792   6.034   4.553  11.483 -0.0346  0.7123 -0.1597
 9434TIP3    H149793   6.037   4.646  11.505 -1.2959  0.9841 -1.0498
 9434TIP3    H249794   5.950   4.543  11.437  0.4937 -0.6985 -0.8186
 9435TIP3   OH249795   0.109   5.801  11.102 -0.4185  0.2356 -0.1815
 9435TIP3    H149796   0.106   5.871  11.036 -0.0206  0.6401  0.2157
 9435TIP3    H249797   0.069   5.726  11.060 -0.1154  0.4751 -0.9096
 9436TIP3   OH249798   0.962   3.212  16.158  0.1231 -0.3881 -0.6603
 9436TIP3    H149799   0.909   3.248  16.229  0.7036 -1.8585  0.5440
 9436TIP3    H249800   0.971   3.119  16.180 -0.5435 -1.0935 -3.1788
 9437TIP3   OH249801   6.217   3.553  10.383  0.2463  0.0201 -0.7575
 9437TIP3    H149802   6.244   3.639  10.414  0.7782  0.6258 -2.8227
 9437TIP3    H249803   6.298   3.510  10.357 -0.2019 -0.3586 -1.5500
 9438TIP3   OH249804   4.272   3.378  12.614  0.1392  0.3157 -0.3161
 9438TIP3    H149805   4.252   3.443  12.682  2.9882  0.4262  0.4692
 9438TIP3    H249806   4.302   3.431  12.539  1.2794 -0.0065 -0.1002
 9439TIP3   OH249807   0.218   5.731   5.495  0.3317  0.3622  0.1625
 9439TIP3    H149808   0.227   5.711   5.402  0.0817 -1.9552  0.6138
 9439TIP3    H249809   0.124   5.737   5.510  0.3813  1.0889  0.2037
 9440TIP3   OH249810   0.492   3.446   2.452  0.4385 -0.2025 -0.6317
 9440TIP3    H149811   0.473   3.539   2.444  2.0995  0.1473 -0.6082
 9440TIP3    H249812   0.431   3.404   2.391 -0.8387  0.8132 -0.0917
 9441TIP3   OH249813   4.431   4.849   4.656  0.8650  0.3720 -0.0987
 9441TIP3    H149814   4.402   4.813   4.740 -0.6251  2.6696  0.3979
 9441TIP3    H249815   4.491   4.920   4.679  0.3239  1.1199 -0.9679
 9442TIP3   OH249816   1.657   6.816  16.505  0.2728 -0.4658  0.2241
 9442TIP3    H149817   1.686   6.792  16.593 -1.1955 -0.1996  0.7889
 9442TIP3    H249818   1.570   6.854  16.518  0.3780  0.3148 -1.2548
 9443TIP3   OH249819   0.886   4.622  16.568 -0.1760 -0.4179 -0.4256
 9443TIP3    H149820   0.807   4.569  16.572 -0.1671 -0.3464  0.8909
 9443TIP3    H249821   0.938   4.582  16.498 -0.8091 -1.2452 -0.4316
 9444TIP3   OH249822   3.184   0.258   1.556  0.0408  0.1691  0.3088
 9444TIP3    H149823   3.267   0.245   1.510 -0.5427  0.9749 -0.9917
 9444TIP3    H249824   3.197   0.338   1.607  0.7999 -0.9012  1.8445
 9445TIP3   OH249825   0.220   2.817  15.657  0.7703  0.0157 -0.1198
 9445TIP3    H149826   0.254   2.811  15.568 -0.1355 -0.3545 -0.4374
 9445TIP3    H249827   0.185   2.906  15.663  1.3799  0.2461  0.0656
 9446TIP3   OH249828   0.852   6.106   2.770 -0.2166 -0.0495  0.5447
 9446TIP3    H149829   0.814   6.192   2.752 -3.7851 -1.9779 -1.8314
 9446TIP3    H249830   0.808   6.076   2.849  0.8173  0.1842  1.2113
 9447TIP3   OH249831   5.213   3.443   2.907 -0.3204  0.0592 -0.5118
 9447TIP3    H149832   5.212   3.497   2.828 -1.0174  1.5269  0.4667
 9447TIP3    H249833   5.260   3.497   2.971 -2.2746  0.1350  0.9054
 9448TIP3   OH249834   4.290   3.060   4.467 -0.1456 -0.5211 -0.3326
 9448TIP3    H149835   4.367   3.023   4.424  0.8835 -1.4783  2.2843
 9448TIP3    H249836   4.304   3.045   4.560 -3.8139 -1.3089  0.1690
 9449TIP3   OH249837   2.926   5.903  13.362  0.3457  0.5363  0.2523
 9449TIP3    H149838   2.985   5.828  13.354 -0.3288  0.0144  0.0963
 9449TIP3    H249839   2.853   5.883  13.304  1.9781  3.1313 -2.8525
 9450TIP3   OH249840   5.071   6.419   5.742 -0.5260 -0.3557 -0.0834
 9450TIP3    H149841   5.146   6.471   5.773 -1.6307  1.6037 -0.6359
 9450TIP3    H249842   5.030   6.386   5.822 -1.7889  2.4542  0.5121
 9451TIP3   OH249843   3.852   1.288   2.996 -0.0350  0.0049  0.2061
 9451TIP3    H149844   3.912   1.287   2.922 -0.2977 -2.1918 -0.0011
 9451TIP3    H249845   3.842   1.381   3.017  1.5587  0.5351 -1.2584
 9452TIP3   OH249846   4.098   0.682  15.030 -0.1454 -0.5013  0.0184
 9452TIP3    H149847   4.068   0.726  14.951 -0.5629 -0.9371 -0.0700
 9452TIP3    H249848   4.186   0.651  15.009  0.5946  1.2567  0.4569
 9453TIP3   OH249849   0.819   2.981  15.978 -0.1267  0.4549 -0.5216
 9453TIP3    H149850   0.851   2.965  16.066  0.9617  1.1445 -0.7770
 9453TIP3    H249851   0.827   2.897  15.933  0.4648  0.3973 -0.3111
 9454TIP3   OH249852   1.977   6.354   3.415 -0.2854  0.2393 -0.2560
 9454TIP3    H149853   1.984   6.276   3.360 -0.0135 -0.6273  0.9785
 9454TIP3    H249854   1.885   6.378   3.412 -0.5778 -0.8036  0.2598
 9455TIP3   OH249855   3.597   2.648  15.526 -0.5034 -0.2567  0.1914
 9455TIP3    H149856   3.558   2.729  15.558  0.9380 -0.6334  3.0476
 9455TIP3    H249857   3.545   2.579  15.566  0.1085 -0.7358  0.1681
 9456TIP3   OH249858   6.090   3.383  12.869 -0.5295  0.5460 -0.4323
 9456TIP3    H149859   6.139   3.460  12.839  0.7383  0.1660  0.6345
 9456TIP3    H249860   6.007   3.418  12.900 -0.5337  1.3179 -1.2939
 9457TIP3   OH249861   3.364   0.627  16.202 -0.2535  0.1593 -0.7989
 9457TIP3    H149862   3.391   0.571  16.129 -2.0928  0.5947 -1.8350
 9457TIP3    H249863   3.315   0.570  16.260  0.1437  0.0925 -0.5318
 9458TIP3   OH249864   4.728   3.733   3.221  0.0206 -0.4709 -0.4111
 9458TIP3    H149865   4.693   3.821   3.229  1.4641 -0.1189  2.4634
 9458TIP3    H249866   4.780   3.735   3.141 -2.2430  0.4415 -1.9040
 9459TIP3   OH249867   4.362   4.763   0.931  0.1057 -0.5950 -0.3179
 9459TIP3    H149868   4.335   4.816   1.007 -0.2422 -1.5766  0.2611
 9459TIP3    H249869   4.441   4.718   0.960  0.8116  0.1739 -1.0627
 9460TIP3   OH249870   4.280   0.873   0.895 -0.8479 -0.5371  0.6714
 9460TIP3    H149871   4.311   0.883   0.985  0.8619 -1.5013  0.2210
 9460TIP3    H249872   4.327   0.796   0.863 -0.4390  0.5984 -1.4797
 9461TIP3   OH249873   4.175   1.584  17.268 -0.7336  0.2361 -0.0562
 9461TIP3    H149874   4.135   1.644  17.331  0.2410 -0.4129  1.2043
 9461TIP3    H249875   4.261   1.565  17.305 -0.7981 -1.4756 -0.7512
 9462TIP3   OH249876   1.213   6.368  13.546  0.0269 -0.0088  0.4188
 9462TIP3    H149877   1.179   6.353  13.458  1.3767  0.7739 -0.2573
 9462TIP3    H249878   1.150   6.325  13.604 -0.1221 -1.7992 -1.0074
 9463TIP3   OH249879   4.094   4.191   0.019  0.1678 -0.0244  0.0257
 9463TIP3    H149880   4.151   4.263   0.045  0.3896  0.0550 -0.6598
 9463TIP3    H249881   4.008   4.214   0.053 -0.1477  1.4446 -1.7230
 9464TIP3   OH249882   2.004   3.906  15.475 -0.1070  0.1355 -0.6410
 9464TIP3    H149883   1.978   3.913  15.567 -0.0200  1.1411 -0.6915
 9464TIP3    H249884   2.052   3.823  15.470 -0.6185 -0.2171  0.0903
 9465TIP3   OH249885   0.153   2.947  12.023 -0.0269  0.3793 -0.5736
 9465TIP3    H149886   0.153   2.851  12.028 -1.7185  0.3946  0.3392
 9465TIP3    H249887   0.065   2.972  12.053  0.5890  2.2373 -0.2631
 9466TIP3   OH249888   1.579   2.724  15.910 -0.6233 -0.1570 -0.0166
 9466TIP3    H149889   1.631   2.790  15.955  2.2935 -2.6597  0.4237
 9466TIP3    H249890   1.626   2.707  15.829 -2.5830 -0.1046 -1.2063
 9467TIP3   OH249891   6.104   2.870   6.077 -0.1786 -0.2751 -0.1031
 9467TIP3    H149892   6.037   2.803   6.061 -0.2210 -0.6439  1.5193
 9467TIP3    H249893   6.182   2.837   6.032 -0.7639 -0.3997 -1.0456
 9468TIP3   OH249894   0.905   1.883  16.745  0.0057 -0.3736  0.5098
 9468TIP3    H149895   0.810   1.893  16.751  0.3714  2.5391  1.7824
 9468TIP3    H249896   0.927   1.913  16.657  0.0768  1.9908  1.3029
 9469TIP3   OH249897   5.333   3.293  14.751 -0.4262 -0.2904 -0.2875
 9469TIP3    H149898   5.344   3.222  14.688 -0.1390 -0.4134 -0.0995
 9469TIP3    H249899   5.381   3.264  14.829 -0.2958  0.1150 -0.2151
 9470TIP3   OH249900   6.219   4.035   6.235  0.2073  0.1183  0.3107
 9470TIP3    H149901   6.200   3.951   6.194 -1.3627  1.3152 -1.5325
 9470TIP3    H249902   6.314   4.037   6.243  0.6559 -0.0102 -3.7844
 9471TIP3   OH249903   0.266   2.677   6.544 -0.0292 -0.2640  0.0747
 9471TIP3    H149904   0.313   2.745   6.592 -0.2346  0.6014 -0.9150
 9471TIP3    H249905   0.298   2.595   6.580  1.1776  0.3422  0.4040
 9472TIP3   OH249906   3.480   6.085   3.002  0.0028  0.3121 -0.4301
 9472TIP3    H149907   3.554   6.075   3.062  0.1478 -1.9541 -0.9584
 9472TIP3    H249908   3.403   6.075   3.058  0.0870  1.0426 -0.1654
 9473TIP3   OH249909   2.445   1.962   4.697  0.4914  0.0859  0.5756
 9473TIP3    H149910   2.420   2.005   4.779 -0.2066  0.7562  0.0227
 9473TIP3    H249911   2.363   1.951   4.649  0.7546 -1.3068  0.4378
 9474TIP3   OH249912   5.688   1.890  16.941 -0.0594 -0.2998  0.1501
 9474TIP3    H149913   5.643   1.946  16.879 -0.2308 -0.1027  0.4472
 9474TIP3    H249914   5.765   1.940  16.967 -0.8277  0.3031  1.3043
 9475TIP3   OH249915   4.324   4.630   0.379 -0.0620  0.1260 -0.1843
 9475TIP3    H149916   4.244   4.646   0.429  1.1815  1.6846  1.4241
 9475TIP3    H249917   4.344   4.715   0.339  1.5282  0.1387  0.5922
 9476TIP3   OH249918   3.522   3.639   1.683 -0.4473 -0.4087  0.4776
 9476TIP3    H149919   3.597   3.610   1.631 -0.0998  0.6028  0.4021
 9476TIP3    H249920   3.560   3.687   1.756 -1.0411  1.1864 -0.2206
 9477TIP3   OH249921   1.926   6.325   1.181  0.3549 -0.4176  0.5698
 9477TIP3    H149922   1.873   6.262   1.131 -0.2982 -1.0797  2.0536
 9477TIP3    H249923   1.946   6.394   1.118 -1.0646 -0.8683 -0.4219
 9478TIP3   OH249924   6.340   4.840   4.267  0.2136 -0.6377 -0.0032
 9478TIP3    H149925   6.391   4.796   4.335 -0.4692  1.0664  1.6509
 9478TIP3    H249926   6.249   4.831   4.296 -0.2161 -1.3218 -1.5467
 9479TIP3   OH249927   6.421   6.072  16.118  0.4193  0.0110  0.0526
 9479TIP3    H149928   6.360   6.008  16.081  0.4426 -0.6442  1.1294
 9479TIP3    H249929   6.370   6.153  16.123  0.2074 -0.0645 -0.7527
 9480TIP3   OH249930   4.523   5.943   1.541  0.4321 -0.5150 -0.2706
 9480TIP3    H149931   4.573   5.963   1.621 -0.7474 -0.9000  0.5791
 9480TIP3    H249932   4.495   6.029   1.509 -0.8919 -0.4739  0.9323
 9481TIP3   OH249933   0.680   5.604   5.550  0.2881  0.1156  0.3505
 9481TIP3    H149934   0.750   5.663   5.522 -0.4171  1.2873  1.0325
 9481TIP3    H249935   0.666   5.546   5.475 -0.5369  2.2435 -1.1897
 9482TIP3   OH249936   3.057   2.022   2.148 -0.4847 -0.0356 -0.0622
 9482TIP3    H149937   3.005   2.045   2.071  0.4974 -0.5560 -0.8981
 9482TIP3    H249938   3.129   1.969   2.113 -1.2466 -2.1749  1.4953
 9483TIP3   OH249939   2.396   1.689  10.778  0.5148  0.0710 -0.4173
 9483TIP3    H149940   2.417   1.605  10.819 -1.2396 -0.5720 -0.7856
 9483TIP3    H249941   2.351   1.738  10.847  1.7444  0.8233 -0.1274
 9484TIP3   OH249942   2.157   0.929   1.846  0.1827 -1.1459 -0.0460
 9484TIP3    H149943   2.222   0.973   1.901 -0.5966 -2.1458  1.7429
 9484TIP3    H249944   2.206   0.897   1.771  0.9660  1.7575 -0.8239
 9485TIP3   OH249945   5.157   1.420   2.292  0.1748 -0.0407  0.4335
 9485TIP3    H149946   5.096   1.347   2.293 -0.0476  0.1495  0.5977
 9485TIP3    H249947   5.238   1.384   2.329 -0.0774 -0.0758  0.9501
 9486TIP3   OH249948   5.007   1.473   0.905  0.6696 -0.1106 -0.1546
 9486TIP3    H149949   4.911   1.469   0.911  0.7179 -1.8124 -0.2671
 9486TIP3    H249950   5.025   1.509   0.819  0.1235  2.3540  0.7314
 9487TIP3   OH249951   2.433   3.092  16.885 -0.2131  0.1825  0.2474
 9487TIP3    H149952   2.483   3.172  16.867  1.1676 -0.4916  0.9913
 9487TIP3    H249953   2.465   3.030  16.819 -0.8518  0.0690  0.0465
 9488TIP3   OH249954   6.669   1.820   3.418 -0.3087 -0.1936 -0.2448
 9488TIP3    H149955   6.586   1.777   3.437  0.4188 -1.7887 -0.5822
 9488TIP3    H249956   6.711   1.829   3.503 -1.6599  2.4339  0.1872
 9489TIP3   OH249957   1.282   0.923  11.371 -0.3118  0.6098 -0.0394
 9489TIP3    H149958   1.360   0.867  11.362 -0.8568 -0.3799  1.2879
 9489TIP3    H249959   1.210   0.868  11.339 -1.0459  0.0527  2.4733
 9490TIP3   OH249960   2.291   0.734   3.409  0.2270 -0.3848  0.0533
 9490TIP3    H149961   2.347   0.759   3.335  0.6002  0.5408  0.6518
 9490TIP3    H249962   2.349   0.690   3.470 -0.2717 -2.0414 -0.6303
 9491TIP3   OH249963   1.312   2.387  15.726  0.2575 -0.4006  0.2382
 9491TIP3    H149964   1.310   2.303  15.772 -3.7222 -2.0582 -2.7016
 9491TIP3    H249965   1.389   2.381  15.670  0.5831 -1.6409  0.7983
 9492TIP3   OH249966   5.903   6.449  14.494 -0.2675 -0.1126 -0.6119
 9492TIP3    H149967   5.939   6.376  14.545  0.1293  0.0382 -0.6785
 9492TIP3    H249968   5.825   6.475  14.543  0.3730  0.3472  0.1876
 9493TIP3   OH249969   5.844   0.153   0.210 -0.5355  0.3908  0.0656
 9493TIP3    H149970   5.875   0.132   0.298 -0.2250  0.9864  0.1040
 9493TIP3    H249971   5.834   0.069   0.167  0.4934  0.1549  0.2784
 9494TIP3   OH249972   4.255   2.557  11.006  0.7609  0.2635 -0.0510
 9494TIP3    H149973   4.236   2.623  11.073  0.6762  1.7856 -1.5264
 9494TIP3    H249974   4.174   2.551  10.955  0.1146 -2.4029  1.1874
 9495TIP3   OH249975   3.112   6.262  13.003 -0.2242 -0.4002  0.8056
 9495TIP3    H149976   3.068   6.218  13.075  1.2354 -2.1903  0.6529
 9495TIP3    H249977   3.149   6.341  13.042  1.1955 -1.7284  2.2044
 9496TIP3   OH249978   2.284   4.979   0.812  0.1875 -0.3124  0.0468
 9496TIP3    H149979   2.284   4.911   0.745 -1.4634  0.5586 -0.8867
 9496TIP3    H249980   2.278   4.932   0.895  0.7975 -1.3565 -0.5007
 9497TIP3   OH249981   0.498   4.065  11.177 -0.0059 -0.2425 -0.2474
 9497TIP3    H149982   0.466   3.982  11.144  1.3486 -1.1071  0.5390
 9497TIP3    H249983   0.589   4.047  11.203  0.4258  1.5676 -0.4226
 9498TIP3   OH249984   5.707   2.148   3.246 -0.1430  0.5891  0.1088
 9498TIP3    H149985   5.677   2.209   3.178 -1.9967  4.4908  4.1882
 9498TIP3    H249986   5.630   2.095   3.266  0.3181 -0.3418 -0.5160
 9499TIP3   OH249987   6.003   2.512   2.674  0.8806 -0.5526  0.2546
 9499TIP3    H149988   6.089   2.531   2.637  1.1269  0.4784  1.3286
 9499TIP3    H249989   5.997   2.417   2.675  1.4451 -0.6218 -1.0939
 9500TIP3   OH249990   3.246   4.653  11.688 -0.0895 -0.4848  0.1636
 9500TIP3    H149991   3.277   4.714  11.755 -1.0597  1.1390 -0.8410
 9500TIP3    H249992   3.320   4.641  11.629  0.2069 -0.5507  0.5489
 9501TIP3   OH249993   5.564   4.856  12.412 -0.1597 -0.1701 -0.0794
 9501TIP3    H149994   5.559   4.932  12.354 -2.1081 -0.4677 -0.3144
 9501TIP3    H249995   5.522   4.785  12.364  1.1755 -1.2865  0.3588
 9502TIP3   OH249996   0.292   1.010   1.688  0.2942 -0.7665 -0.3627
 9502TIP3    H149997   0.236   0.965   1.751  2.1475 -0.4510  1.5648
 9502TIP3    H249998   0.297   1.100   1.719 -1.0993  0.1424 -2.6114
 9503TIP3   OH249999   3.587   2.025  12.144  0.2065  0.0574 -0.1161
 9503TIP3    H150000   3.588   2.097  12.081 -4.6503 -0.6932 -1.2708
 9503TIP3    H250001   3.610   1.948  12.093  0.7379  0.1034  0.0539
 9504TIP3   OH250002   6.432   0.645   4.497 -0.1668  0.0498  0.2598
 9504TIP3    H150003   6.382   0.650   4.579 -1.8207  0.3276 -0.7500
 9504TIP3    H250004   6.486   0.724   4.497  0.0038 -0.0588  1.1814
 9505TIP3   OH250005   6.439   0.958   0.689  0.4518  0.1022 -0.1892
 9505TIP3    H150006   6.508   0.992   0.633 -1.6626  2.8375 -1.2646
 9505TIP3    H250007   6.467   0.982   0.778  1.3151  0.3958 -0.5356
 9506TIP3   OH250008   0.762   2.954   1.599 -0.4051  0.2554 -0.1104
 9506TIP3    H150009   0.676   2.994   1.606  0.6497  2.5047  0.7659
 9506TIP3    H250010   0.793   2.949   1.690  0.4791 -0.3132 -0.4374
 9507TIP3   OH250011   1.877   3.077   0.206  0.7159  0.0018  0.5801
 9507TIP3    H150012   1.859   3.061   0.299 -0.7516  2.0174  0.6763
 9507TIP3    H250013   1.822   3.015   0.159 -0.4437  0.6819  1.0256
 9508TIP3   OH250014   0.099   0.548  15.232  0.1809 -0.2331 -0.8565
 9508TIP3    H150015   0.172   0.493  15.204  1.6944  0.3794  1.7582
 9508TIP3    H250016   0.039   0.488  15.277  1.2438  0.0258  0.9241
 9509TIP3   OH250017   0.187   4.794  16.366  0.1269 -0.3974  1.2255
 9509TIP3    H150018   0.166   4.783  16.459 -0.5770 -0.3378  1.0718
 9509TIP3    H250019   0.198   4.704  16.334  1.2888 -0.3897  1.5711
 9510TIP3   OH250020   5.396   0.337  11.620  0.2118 -0.0946 -0.9845
 9510TIP3    H150021   5.376   0.333  11.526  0.2970  1.3182 -1.0640
 9510TIP3    H250022   5.434   0.424  11.633 -0.7431  0.1007  0.5521
 9511TIP3   OH250023   1.035   4.654  15.664 -0.2068 -0.0925  0.5167
 9511TIP3    H150024   1.068   4.580  15.715 -0.0283  0.8555  1.7993
 9511TIP3    H250025   1.110   4.681  15.611 -0.0454 -0.3404  0.6153
 9512TIP3   OH250026   2.885   6.322   1.385  0.3886  0.5464  0.1379
 9512TIP3    H150027   2.827   6.280   1.322  1.0425 -0.5523  0.2405
 9512TIP3    H250028   2.953   6.363   1.332  0.6928  0.0027  0.1034
 9513TIP3   OH250029   3.165   5.556   3.425 -0.1080  0.3059  0.4052
 9513TIP3    H150030   3.123   5.475   3.393 -0.8657  0.3366  1.2956
 9513TIP3    H250031   3.114   5.626   3.385 -0.8882  0.3434  1.4380
 9514TIP3   OH250032   1.557   3.756   2.612 -0.0038 -0.1072 -0.3555
 9514TIP3    H150033   1.651   3.741   2.607 -0.1125 -1.3149  0.8810
 9514TIP3    H250034   1.548   3.844   2.649  0.6364  1.0184 -2.8398
 9515TIP3   OH250035   2.650   3.004   6.577 -0.7241  0.1589 -0.0276
 9515TIP3    H150036   2.697   3.042   6.504 -1.2834 -0.1703 -0.5671
 9515TIP3    H250037   2.650   3.072   6.645  1.7297 -0.3533  0.5119
 9516TIP3   OH250038   2.222   5.087  12.413  0.1325 -0.4955 -0.7658
 9516TIP3    H150039   2.255   5.028  12.345 -1.2385 -0.3289 -1.6017
 9516TIP3    H250040   2.144   5.043  12.447 -0.4217  0.4235 -0.8106
 9517TIP3   OH250041   2.536   6.714   5.356  0.5212  0.3039  0.0697
 9517TIP3    H150042   2.610   6.714   5.417  0.7368 -0.6465 -0.1876
 9517TIP3    H250043   2.577   6.712   5.269  0.1967  0.5554 -0.0902
 9518TIP3   OH250044   1.087   6.065   4.020 -0.3040  0.1290  0.6573
 9518TIP3    H150045   1.019   6.050   4.086 -1.3497  0.3203 -0.3660
 9518TIP3    H250046   1.085   5.985   3.966  0.6195 -0.0716  0.9128
 9519TIP3   OH250047   0.926   4.001   5.550  0.3367 -0.1681 -0.7222
 9519TIP3    H150048   0.871   3.986   5.473 -0.9282  2.0143 -0.2824
 9519TIP3    H250049   0.904   4.090   5.578  3.0597  0.2052  0.3202
 9520TIP3   OH250050   2.870   6.234   0.389 -0.1493  0.5078 -0.6971
 9520TIP3    H150051   2.795   6.191   0.348  0.6314  0.0281 -1.6292
 9520TIP3    H250052   2.834   6.272   0.470 -0.8967 -1.6825  0.0360
 9521TIP3   OH250053   6.297   1.703  16.019 -0.5605  0.3053 -0.0684
 9521TIP3    H150054   6.389   1.729  16.014 -0.4702 -0.2560 -1.9583
 9521TIP3    H250055   6.293   1.621  15.969 -2.0422  0.2330  0.1540
 9522TIP3   OH250056   1.608   1.615  13.803 -0.8672 -0.0266 -0.4356
 9522TIP3    H150057   1.569   1.581  13.883  1.7454 -2.0690  0.0400
 9522TIP3    H250058   1.543   1.677  13.769 -2.4631  0.1250  2.6874
 9523TIP3   OH250059   5.885   2.716   5.994 -0.0222 -0.4229  0.1365
 9523TIP3    H150060   5.850   2.693   6.079  1.8292 -0.0544  1.0330
 9523TIP3    H250061   5.816   2.768   5.952 -0.7619 -0.2237  1.5925
 9524TIP3   OH250062   1.361   1.680   1.288 -0.4480 -0.3489  0.2213
 9524TIP3    H150063   1.314   1.596   1.293 -1.1163 -0.0957 -1.4243
 9524TIP3    H250064   1.366   1.699   1.195  0.1284  1.2183  0.5553
 9525TIP3   OH250065   0.059   6.064   1.376 -0.0024 -0.2094 -0.2748
 9525TIP3    H150066  -0.036   6.074   1.380 -0.0035 -0.3907  0.3567
 9525TIP3    H250067   0.077   6.031   1.288 -0.4865  0.2135 -0.5302
 9526TIP3   OH250068   6.553   5.720  11.345  0.7997  0.1819 -0.2250
 9526TIP3    H150069   6.501   5.797  11.322  0.2607 -0.0604  0.1772
 9526TIP3    H250070   6.511   5.686  11.424  0.3440 -1.1965 -1.0524
 9527TIP3   OH250071   2.381   1.312  15.235  0.3887 -0.0397 -0.7078
 9527TIP3    H150072   2.455   1.371  15.243  1.6080 -1.6354  0.1108
 9527TIP3    H250073   2.305   1.366  15.254  1.4808  1.2236  0.1644
 9528TIP3   OH250074   5.605   0.395   6.403  0.0606 -0.2442  0.2288
 9528TIP3    H150075   5.664   0.463   6.370 -1.0654  1.5360  1.8009
 9528TIP3    H250076   5.613   0.324   6.340  2.3623  0.7696 -0.6629
 9529TIP3   OH250077   2.571   5.439  12.912 -0.2873 -0.0610  0.6403
 9529TIP3    H150078   2.564   5.367  12.975 -4.0779 -2.1923 -1.9443
 9529TIP3    H250079   2.665   5.456  12.905  0.3597 -0.8271  5.5352
 9530TIP3   OH250080   3.926   5.694  11.308  0.0448 -0.2197 -0.2236
 9530TIP3    H150081   3.872   5.767  11.340 -0.1946 -0.0264 -1.0536
 9530TIP3    H250082   3.933   5.635  11.383  1.1258  1.1569  0.7736
 9531TIP3   OH250083   0.035   0.407  13.107  0.2734 -0.3787 -0.2057
 9531TIP3    H150084   0.080   0.450  13.180 -0.2216 -0.1382 -0.0393
 9531TIP3    H250085   0.022   0.477  13.043  1.4071 -0.7557 -0.8657
 9532TIP3   OH250086   6.202   1.229   2.745  0.0811  0.1675  0.1357
 9532TIP3    H150087   6.217   1.275   2.663  1.2194 -0.2274  0.1190
 9532TIP3    H250088   6.268   1.263   2.805  0.2403 -0.6572  0.4393
 9533TIP3   OH250089   2.033   0.304   2.265  0.0664 -0.0580 -0.2924
 9533TIP3    H150090   1.993   0.232   2.216  1.8406 -1.0688 -0.3170
 9533TIP3    H250091   2.016   0.382   2.211 -1.1625 -0.5766 -0.6696
 9534TIP3   OH250092   5.924   6.420  16.417 -0.1901 -0.0559  0.7423
 9534TIP3    H150093   6.002   6.375  16.385 -0.2508 -0.5526  1.2838
 9534TIP3    H250094   5.937   6.511  16.391  1.7725  0.3586  2.9926
 9535TIP3   OH250095   2.854   3.422  14.767 -0.0877  0.0378  0.4991
 9535TIP3    H150096   2.833   3.402  14.676  0.3220 -0.2551  0.4693
 9535TIP3    H250097   2.789   3.373  14.818 -0.3014  0.1820  0.3645
 9536TIP3   OH250098   1.420   6.001  16.313 -1.2164  0.4281 -0.5538
 9536TIP3    H150099   1.396   5.932  16.375 -0.7541 -0.7602 -1.6554
 9536TIP3    H250100   1.338   6.044  16.292 -1.6838 -0.4974 -0.6662
 9537TIP3   OH250101   1.965   2.324   4.003 -0.2189 -0.2359 -0.3238
 9537TIP3    H150102   1.885   2.326   4.056  0.4831 -1.0620  0.7948
 9537TIP3    H250103   1.933   2.323   3.913 -1.3969  3.1884 -0.0026
 9538TIP3   OH250104   0.263   1.798  11.214  0.3185 -0.2656 -0.4544
 9538TIP3    H150105   0.292   1.832  11.129 -0.3274  0.1332 -0.5107
 9538TIP3    H250106   0.185   1.746  11.194 -0.5922  0.8852  0.0680
 9539TIP3   OH250107   2.095   6.324   1.664 -0.3305 -0.4110  0.4206
 9539TIP3    H150108   2.112   6.245   1.614  0.8723 -1.4039  2.3404
 9539TIP3    H250109   2.040   6.378   1.607 -1.9384 -3.0035 -0.5419
 9540TIP3   OH250110   4.541   6.662  14.844 -0.2786 -0.2863  0.4131
 9540TIP3    H150111   4.614   6.604  14.864 -0.1270  0.1091  1.0414
 9540TIP3    H250112   4.579   6.750  14.843 -0.6615 -0.1183  0.3095
 9541TIP3   OH250113   6.099   3.968  16.468 -0.0798 -0.1378  0.5289
 9541TIP3    H150114   6.109   3.959  16.563 -1.0929 -0.1175  0.6463
 9541TIP3    H250115   6.072   4.060  16.456 -0.8702 -0.3984  0.3006
 9542TIP3   OH250116   6.770   4.667  14.852  0.1243  0.6277 -0.2633
 9542TIP3    H150117   6.824   4.721  14.910 -0.3786  0.7129  0.1379
 9542TIP3    H250118   6.701   4.633  14.910  1.8985 -2.5616  0.0701
 9543TIP3   OH250119   0.164   1.323   1.422  0.6485  0.6016  0.3737
 9543TIP3    H150120   0.107   1.367   1.358 -0.1209  0.4834  0.9745
 9543TIP3    H250121   0.128   1.235   1.429  2.9130 -0.5369 -1.7212
 9544TIP3   OH250122   0.539   1.239  12.646 -0.0497 -0.3483 -0.2519
 9544TIP3    H150123   0.534   1.333  12.629  0.8306 -0.0794  0.9116
 9544TIP3    H250124   0.520   1.199  12.561  0.1761  0.8838 -0.9082
 9545TIP3   OH250125   6.722   0.051   3.702 -0.3845 -0.2755 -0.0715
 9545TIP3    H150126   6.689   0.087   3.784 -1.6256  1.8977 -1.4791
 9545TIP3    H250127   6.643   0.037   3.649  0.5951  0.7336 -1.8149
 9546TIP3   OH250128   6.001   3.810   2.812  0.2649  0.9001 -0.7156
 9546TIP3    H150129   6.065   3.843   2.875 -0.1060  3.6152 -1.7143
 9546TIP3    H250130   5.916   3.840   2.846 -0.0982  0.8461 -1.5691
 9547TIP3   OH250131   6.370   5.914  11.708 -0.1393 -0.1409  0.1104
 9547TIP3    H150132   6.305   5.967  11.662  0.9244  1.4205  0.3612
 9547TIP3    H250133   6.402   5.971  11.778  1.8083 -0.7388 -0.2757
 9548TIP3   OH250134   6.414   1.182  11.123  0.2845 -0.3472  0.4075
 9548TIP3    H150135   6.364   1.102  11.142  0.2404 -0.3442  0.2986
 9548TIP3    H250136   6.505   1.153  11.120  0.2428 -0.4405  0.0908
 9549TIP3   OH250137   3.290   5.996   3.168  0.0988  0.2506  0.3822
 9549TIP3    H150138   3.218   6.001   3.231 -2.0475 -0.3834 -1.9585
 9549TIP3    H250139   3.311   5.902   3.165 -1.2589 -0.0115 -1.4095
 9550TIP3   OH250140   1.524   3.747   5.004  0.5349  0.5831  0.0221
 9550TIP3    H150141   1.611   3.772   5.036 -0.0605  0.4997  1.7371
 9550TIP3    H250142   1.522   3.652   5.012  0.4603  0.5373 -0.5013
 9551TIP3   OH250143   4.702   3.161   1.984 -0.8597  0.3491 -0.1202
 9551TIP3    H150144   4.718   3.067   1.976  0.8421  0.6214 -0.0237
 9551TIP3    H250145   4.646   3.170   2.061 -2.2527 -0.6912 -0.9726
 9552TIP3   OH250146   0.858   6.745   5.494 -0.0498  0.1150  0.0901
 9552TIP3    H150147   0.920   6.739   5.567  0.5949  0.3585 -0.4247
 9552TIP3    H250148   0.914   6.745   5.416 -0.7192  0.0871 -0.3918
 9553TIP3   OH250149   2.356   2.430   0.258  0.1927 -0.0211 -0.3195
 9553TIP3    H150150   2.292   2.422   0.187 -0.6574  0.6790  0.3544
 9553TIP3    H250151   2.326   2.367   0.324 -0.9327  1.6632  0.8236
 9554TIP3   OH250152   2.476   5.724   5.388  0.1290 -0.1675  0.3547
 9554TIP3    H150153   2.545   5.666   5.356 -0.2923 -0.5935  0.2129
 9554TIP3    H250154   2.405   5.665   5.412  0.2013  0.1929  1.4727
 9555TIP3   OH250155   3.401   6.202   6.051 -0.1771 -0.0743  0.3121
 9555TIP3    H150156   3.378   6.110   6.057 -1.0143 -0.0701 -2.2841
 9555TIP3    H250157   3.458   6.218   6.126 -1.3563 -2.2881  1.7124
 9556TIP3   OH250158   1.676   1.331  10.493 -0.4570 -0.0660 -0.3231
 9556TIP3    H150159   1.620   1.353  10.568  1.7830  1.8853  0.8427
 9556TIP3    H250160   1.632   1.371  10.418 -2.0306 -0.8976  0.1273
 9557TIP3   OH250161   0.937   5.505  11.696 -0.4560 -0.0617 -0.3669
 9557TIP3    H150162   0.942   5.595  11.665  1.2128  0.0397  0.1502
 9557TIP3    H250163   0.890   5.510  11.779  0.5137  0.4603  0.1480
 9558TIP3   OH250164   4.884   1.198  11.774  0.3261 -0.0767 -0.3801
 9558TIP3    H150165   4.789   1.188  11.776  0.4553 -1.8790 -1.8333
 9558TIP3    H250166   4.899   1.279  11.724 -0.4069 -0.6107 -1.4755
 9559TIP3   OH250167   6.538   1.748   5.835  0.2024  0.0782  0.3696
 9559TIP3    H150168   6.567   1.787   5.917 -4.6883  0.8267  1.9524
 9559TIP3    H250169   6.475   1.812   5.800 -0.0063 -1.5939 -2.4202
 9560TIP3   OH250170   5.179   2.802  11.595  0.1627 -0.3137 -0.3040
 9560TIP3    H150171   5.175   2.718  11.548 -0.4894 -0.8213  0.6391
 9560TIP3    H250172   5.255   2.794  11.652  0.6688  0.1148 -0.9153
 9561TIP3   OH250173   4.699   3.220   2.261  0.0247  0.2476 -0.1041
 9561TIP3    H150174   4.679   3.163   2.335  0.6038 -0.9912 -0.8771
 9561TIP3    H250175   4.795   3.227   2.261  0.0782 -0.3812 -1.1809
 9562TIP3   OH250176   4.969   4.061  14.000  0.1380  0.4592  0.2560
 9562TIP3    H150177   5.047   4.072  13.946 -0.6091 -1.0546 -1.1813
 9562TIP3    H250178   4.923   4.144  13.992 -0.1123  0.1570 -1.7204
 9563TIP3   OH250179   0.974   2.812   3.638  0.0382 -0.2193  0.3848
 9563TIP3    H150180   0.926   2.890   3.665  1.1955  0.5243  0.3120
 9563TIP3    H250181   0.942   2.794   3.549  0.4361  0.7085  0.0516
 9564TIP3   OH250182   2.337   4.271  12.931 -0.9971  0.2199  0.3881
 9564TIP3    H150183   2.244   4.254  12.923 -1.2000  1.0629  0.9201
 9564TIP3    H250184   2.373   4.248  12.845 -2.2157  3.2241 -1.0078
 9565TIP3   OH250185   2.285   0.225  11.630  0.5261 -0.0398 -0.0908
 9565TIP3    H150186   2.235   0.307  11.639  0.6399  0.0090  0.1069
 9565TIP3    H250187   2.363   0.238  11.685  1.3062  0.3089 -1.2596
 9566TIP3   OH250188   0.527   2.043  11.988 -0.2954  0.2661  0.0416
 9566TIP3    H150189   0.552   1.955  12.016 -1.1324  0.0156  0.0082
 9566TIP3    H250190   0.550   2.045  11.895  0.8503  0.5071  0.3116
 9567TIP3   OH250191   0.037   4.717  15.346 -0.2016 -0.2251 -0.0665
 9567TIP3    H150192  -0.006   4.650  15.400  0.3853 -1.3622 -0.9754
 9567TIP3    H250193   0.125   4.682  15.330  0.3932  1.1583  0.1313
 9568TIP3   OH250194   2.034   5.052  12.045  0.0467 -0.0275 -0.2020
 9568TIP3    H150195   1.991   4.979  12.090 -0.7475 -1.1818 -2.7445
 9568TIP3    H250196   2.023   5.032  11.952  3.0070  1.4963 -0.9244
 9569TIP3   OH250197   6.413   1.728   3.244 -0.1975 -0.4972 -0.2141
 9569TIP3    H150198   6.395   1.769   3.328 -0.2698 -0.4042 -0.2747
 9569TIP3    H250199   6.327   1.717   3.204 -0.2393 -1.3562  0.1037
 9570TIP3   OH250200   0.649   1.945   4.164  0.0526  0.0838 -0.1763
 9570TIP3    H150201   0.579   1.879   4.165  0.3448 -0.2186  0.6381
 9570TIP3    H250202   0.711   1.913   4.099 -0.5284  0.3091 -0.8444
 9571TIP3   OH250203   6.809   6.340   5.211  0.3280 -0.2293  0.1406
 9571TIP3    H150204   6.803   6.389   5.293  0.8542 -0.5538  0.3737
 9571TIP3    H250205   6.761   6.393   5.148  0.6808  0.4594  0.4493
 9572TIP3   OH250206   2.885   5.522   5.521 -0.0598  0.1556  0.4846
 9572TIP3    H150207   2.912   5.442   5.567 -1.3134 -0.3929  0.2777
 9572TIP3    H250208   2.894   5.500   5.428 -0.5742  0.2074  0.4266
 9573TIP3   OH250209   4.664   1.990   5.502  0.3335  0.1693  0.5564
 9573TIP3    H150210   4.646   2.057   5.568  0.3765 -0.3540  1.1063
 9573TIP3    H250211   4.635   2.029   5.420 -1.5328  0.0768  1.1618
 9574TIP3   OH250212   0.532   0.702  15.465  0.3817 -0.3807 -0.2354
 9574TIP3    H150213   0.623   0.711  15.494  0.2091 -0.2050  0.2693
 9574TIP3    H250214   0.505   0.617  15.499  0.9639 -1.3395 -2.0898
 9575TIP3   OH250215   3.736   5.303  15.494  0.5236 -0.4453 -0.6406
 9575TIP3    H150216   3.676   5.237  15.527 -0.6982  0.8738 -0.1418
 9575TIP3    H250217   3.819   5.285  15.537 -0.2723 -0.5841  0.8474
 9576TIP3   OH250218   2.637   6.134  17.206 -0.5872  0.3332  0.6009
 9576TIP3    H150219   2.543   6.154  17.210 -0.5738  0.8336 -1.1388
 9576TIP3    H250220   2.644   6.042  17.230 -1.7000 -0.1066 -0.6980
 9577TIP3   OH250221   2.555   5.855  11.219 -0.4543  0.0766 -0.3159
 9577TIP3    H150222   2.640   5.828  11.255 -1.2132 -1.1835  0.5619
 9577TIP3    H250223   2.552   5.817  11.132  0.4627  1.3021 -0.9014
 9578TIP3   OH250224   1.758   5.695  11.042  0.1983  0.0631  0.1318
 9578TIP3    H150225   1.790   5.781  11.069  0.2893  0.2353 -0.5100
 9578TIP3    H250226   1.834   5.638  11.050 -0.0807 -0.1578  1.4052
 9579TIP3   OH250227   2.915   5.690   3.847 -0.4671  0.4258  0.1117
 9579TIP3    H150228   2.838   5.648   3.883 -0.4072 -0.7305 -1.0786
 9579TIP3    H250229   2.972   5.618   3.820 -0.1935  1.2536 -1.5742
 9580TIP3   OH250230   5.111   2.148  14.540 -0.2985  0.1200 -0.2530
 9580TIP3    H150231   5.108   2.244  14.548 -0.1112  0.0927  0.1412
 9580TIP3    H250232   5.144   2.133  14.452 -0.5715  0.4187 -0.4106
 9581TIP3   OH250233   0.150   4.182  15.338 -0.2090  0.0783 -0.1993
 9581TIP3    H150234   0.056   4.171  15.357 -0.0530 -0.8032  0.0850
 9581TIP3    H250235   0.193   4.121  15.397  0.6139  1.1779  0.3407
 9582TIP3   OH250236   3.084   2.721   2.281 -0.9172  0.6289  0.1190
 9582TIP3    H150237   3.018   2.657   2.307  0.7532 -0.5706  1.4264
 9582TIP3    H250238   3.127   2.747   2.362  2.4629 -1.0774 -1.0387
 9583TIP3   OH250239   4.309   5.453   5.315 -0.9602 -0.3834 -0.0871
 9583TIP3    H150240   4.224   5.476   5.353 -0.4575  3.5557 -1.0890
 9583TIP3    H250241   4.291   5.434   5.223 -0.8901 -0.4456 -0.0888
 9584TIP3   OH250242   0.972   6.105   6.571 -0.1551  0.0365  0.2095
 9584TIP3    H150243   1.043   6.121   6.632  0.6371  0.2241 -0.7394
 9584TIP3    H250244   0.906   6.171   6.592 -1.6855 -2.4242  3.5066
 9585TIP3   OH250245   3.246   1.946   0.648 -0.2746  0.3114 -0.5293
 9585TIP3    H150246   3.186   1.892   0.699  1.1200 -0.5499  0.2394
 9585TIP3    H250247   3.199   1.965   0.567 -2.0430  0.6651  0.5564
 9586TIP3   OH250248   4.067   3.939  15.269 -0.4081  0.2603  0.0278
 9586TIP3    H150249   4.021   4.020  15.288 -1.8845 -0.1792 -1.5584
 9586TIP3    H250250   4.135   3.964  15.205 -0.0128  0.4757  0.5305
 9587TIP3   OH250251   0.743   1.907  13.514 -0.0255  0.3197  0.0121
 9587TIP3    H150252   0.654   1.882  13.540  0.1303 -0.0199  0.2206
 9587TIP3    H250253   0.762   1.852  13.439  0.0478  0.3178  0.0309
 9588TIP3   OH250254   3.528   6.665  14.964 -0.1949  0.2612  0.1733
 9588TIP3    H150255   3.460   6.684  14.900 -0.3972 -1.3048 -0.0706
 9588TIP3    H250256   3.602   6.634  14.913  0.2065  0.5677  0.5631
 9589TIP3   OH250257   1.702   3.893   3.665  0.3501 -0.0517 -0.2828
 9589TIP3    H150258   1.729   3.902   3.573 -0.8804  0.7640 -0.5750
 9589TIP3    H250259   1.698   3.798   3.679  1.6398 -0.1840 -0.7340
 9590TIP3   OH250260   3.220   6.345  16.922  0.2507  0.0015  0.2620
 9590TIP3    H150261   3.168   6.289  16.865 -0.8746  1.7472 -0.4584
 9590TIP3    H250262   3.304   6.299  16.931 -0.8941 -2.1205  0.2686
 9591TIP3   OH250263   3.533   1.837   0.032 -0.2152  0.6085  0.4388
 9591TIP3    H150264   3.554   1.918   0.078  1.6353  0.8879 -0.8800
 9591TIP3    H250265   3.617   1.803   0.001 -1.2272 -0.5091 -1.1958
 9592TIP3   OH250266   3.607   6.716   5.026  0.2805 -0.7567 -0.0104
 9592TIP3    H150267   3.598   6.775   4.951 -1.7915 -1.1318 -0.0822
 9592TIP3    H250268   3.664   6.646   4.995 -1.8515 -1.7702 -1.8154
 9593TIP3   OH250269   3.303   3.220   2.689 -0.0695  0.3617  0.3694
 9593TIP3    H150270   3.314   3.269   2.771 -1.2827  0.3625  0.5403
 9593TIP3    H250271   3.388   3.178   2.675  0.1407  0.3213  1.6592
 9594TIP3   OH250272   5.259   4.525  15.042  0.3122  0.1658 -0.2959
 9594TIP3    H150273   5.187   4.495  15.098  1.6271 -2.4203  0.0583
 9594TIP3    H250274   5.227   4.512  14.953  0.2899 -0.8113 -0.1433
 9595TIP3   OH250275   5.849   5.239  14.488  0.2063 -0.3151  0.0215
 9595TIP3    H150276   5.818   5.247  14.579  0.2458 -1.2730  0.1262
 9595TIP3    H250277   5.942   5.258  14.493  0.2683 -0.6721  0.2306
 9596TIP3   OH250278   0.468   4.080   2.288 -0.1029 -0.1689 -0.6202
 9596TIP3    H150279   0.546   4.120   2.249 -0.5302 -0.5392 -1.8954
 9596TIP3    H250280   0.410   4.062   2.213 -0.7886 -1.2457  0.1430
 9597TIP3   OH250281   3.952   0.250  11.426  0.7639  0.6451  0.1710
 9597TIP3    H150282   3.859   0.224  11.422  0.8552  0.1412  1.0700
 9597TIP3    H250283   3.951   0.345  11.418  0.0980  0.7154  1.0738
 9598TIP3   OH250284   3.482   5.826  13.406 -0.3625  0.3312  0.7862
 9598TIP3    H150285   3.489   5.731  13.409 -1.8807  0.2249  1.1897
 9598TIP3    H250286   3.569   5.857  13.434  0.9970 -0.9095 -1.8439
 9599TIP3   OH250287   2.132   0.755  17.209 -0.2970  0.6135  0.4093
 9599TIP3    H150288   2.136   0.814  17.133 -3.4352  1.1773  0.6057
 9599TIP3    H250289   2.149   0.813  17.284  1.5176  0.3012  0.2576
 9600TIP3   OH250290   3.801   5.096  14.229  0.1792  1.3143  0.6723
 9600TIP3    H150291   3.884   5.067  14.193  0.0085 -0.5470  1.7111
 9600TIP3    H250292   3.825   5.155  14.301  0.5521  2.1880 -0.1529
 9601TIP3   OH250293   0.570   6.121   6.179 -0.0619  0.0872 -0.0269
 9601TIP3    H150294   0.648   6.174   6.164  1.2168 -1.5833  0.5676
 9601TIP3    H250295   0.577   6.092   6.270 -0.5188 -1.3947 -0.4447
 9602TIP3   OH250296   1.172   5.296   4.932 -0.4314  0.4680  0.3940
 9602TIP3    H150297   1.255   5.327   4.969 -0.5894  0.9786  0.3154
 9602TIP3    H250298   1.191   5.282   4.839 -0.3972  0.4529  0.4027
 9603TIP3   OH250299   0.776   2.805   4.916  0.0284  0.0308 -0.0950
 9603TIP3    H150300   0.856   2.843   4.878  0.0075 -0.9962 -1.1820
 9603TIP3    H250301   0.801   2.783   5.006  0.9637 -0.2465 -0.4131
 9604TIP3   OH250302   3.202   1.294  13.171 -0.1086  0.1022 -0.4396
 9604TIP3    H150303   3.225   1.354  13.100  0.3174  0.3227 -0.1199
 9604TIP3    H250304   3.119   1.327  13.205 -0.2551  0.0650 -0.7599
 9605TIP3   OH250305   6.360   3.858  12.429 -0.2902  0.0462  0.4092
 9605TIP3    H150306   6.297   3.786  12.433  0.0605 -0.3231 -0.5940
 9605TIP3    H250307   6.442   3.821  12.462 -0.4389  0.3637  1.1548
 9606TIP3   OH250308   6.238   3.303  13.569  0.0651 -0.6658  0.4741
 9606TIP3    H150309   6.255   3.242  13.497 -2.0462 -1.5705  0.7022
 9606TIP3    H250310   6.147   3.286  13.594  0.0188  1.3140  1.7704
 9607TIP3   OH250311   6.692   1.996  14.821 -0.2933  0.5524  0.1795
 9607TIP3    H150312   6.652   2.081  14.840  1.1538  1.6156 -1.3542
 9607TIP3    H250313   6.675   1.981  14.728  1.2003  0.1340 -0.0489
 9608TIP3   OH250314   0.146   5.128   4.352  0.1382  0.3519 -0.0337
 9608TIP3    H150315   0.145   5.224   4.350  0.2128  0.4016  1.7730
 9608TIP3    H250316   0.227   5.105   4.305  0.1186  1.1613 -0.4879
 9609TIP3   OH250317   0.269   6.667   6.523 -0.2197  0.2302  0.0791
 9609TIP3    H150318   0.341   6.635   6.578 -1.3999 -0.9357  0.9662
 9609TIP3    H250319   0.210   6.592   6.515 -0.8166  0.8550 -1.5402
 9610TIP3   OH250320   6.131   1.461   1.663 -0.4817  0.1570  0.0165
 9610TIP3    H150321   6.124   1.378   1.616  0.6260  0.3980 -0.5991
 9610TIP3    H250322   6.187   1.442   1.738  0.6882  0.5758 -0.7234
 9611TIP3   OH250323   5.742   2.932   2.833  0.3781 -0.4144  0.2978
 9611TIP3    H150324   5.717   3.011   2.880  0.5473  0.3197 -0.8365
 9611TIP3    H250325   5.838   2.928   2.842  0.6828  1.0771 -2.0729
 9612TIP3   OH250326   1.468   0.222  11.657 -0.0598  0.0553 -0.2096
 9612TIP3    H150327   1.377   0.196  11.671  0.5924 -1.6419  1.0397
 9612TIP3    H250328   1.489   0.277  11.733  0.3246 -0.5427  0.1157
 9613TIP3   OH250329   1.176   0.826   0.821  0.0192  0.0215  0.7130
 9613TIP3    H150330   1.213   0.752   0.773  1.3039  1.1619 -0.0840
 9613TIP3    H250331   1.252   0.869   0.861 -0.8372  0.2089  2.1936
 9614TIP3   OH250332   6.513   2.580  17.077  0.0776  1.0243 -0.0008
 9614TIP3    H150333   6.477   2.629  17.151  0.3230 -0.2316  0.9770
 9614TIP3    H250334   6.491   2.488  17.097  0.7882  0.6077 -1.1193
 9615TIP3   OH250335   3.310   5.924  16.074  0.1395  0.2155  0.7019
 9615TIP3    H150336   3.216   5.906  16.064  0.2693 -0.4058  0.6101
 9615TIP3    H250337   3.346   5.844  16.110  0.4451  0.8600  1.8568
 9616TIP3   OH250338   6.485   3.429   4.644  0.6424 -0.5479  0.4619
 9616TIP3    H150339   6.410   3.369   4.653 -0.2944  0.5439 -0.0089
 9616TIP3    H250340   6.488   3.450   4.551  1.0006  0.0967  0.6184
 9617TIP3   OH250341   1.053   6.065  16.740  0.0492 -0.0042 -0.3703
 9617TIP3    H150342   1.003   5.985  16.722 -0.5716  0.5720 -1.2354
 9617TIP3    H250343   1.054   6.112  16.657  2.5359 -0.2648 -0.5180
 9618TIP3   OH250344   3.116   1.511  11.001 -0.5547 -0.1919  0.4551
 9618TIP3    H150345   3.208   1.500  11.027 -0.3917  1.9671  0.9079
 9618TIP3    H250346   3.120   1.530  10.907 -0.4469  0.9441  0.6837
 9619TIP3   OH250347   6.720   3.172  11.308  0.0022  0.3837 -0.1722
 9619TIP3    H150348   6.668   3.242  11.347 -0.9848 -0.0437 -0.6987
 9619TIP3    H250349   6.698   3.176  11.215  0.9334  0.2107 -0.4003
 9620TIP3   OH250350   6.741   4.205   5.975  0.0876  0.3474 -0.2903
 9620TIP3    H150351   6.817   4.261   5.961  0.2775  0.6422  1.6450
 9620TIP3    H250352   6.774   4.133   6.029 -0.6949 -0.2614 -0.6201
 9621TIP3   OH250353   5.828   0.721  13.650  0.0862 -0.6341  0.7018
 9621TIP3    H150354   5.733   0.713  13.644 -0.1312  1.1000  1.6192
 9621TIP3    H250355   5.853   0.768  13.570 -0.2022  1.6251  1.8867
 9622TIP3   OH250356   5.028   0.555  16.003  0.4279  0.3444 -0.2315
 9622TIP3    H150357   4.970   0.503  16.059  0.1858 -0.4776 -1.2317
 9622TIP3    H250358   4.976   0.572  15.924  0.6491  1.7696 -0.0756
 9623TIP3   OH250359   0.107   2.278  15.282 -0.0328 -0.7601  0.4396
 9623TIP3    H150360   0.015   2.266  15.260 -0.3473  1.5736  0.3530
 9623TIP3    H250361   0.113   2.369  15.312  2.2864 -0.7866  0.1587
 9624TIP3   OH250362   1.432   1.275  14.173  0.4016 -0.6781  0.2251
 9624TIP3    H150363   1.400   1.235  14.254 -2.1551 -0.9358 -0.8764
 9624TIP3    H250364   1.414   1.211  14.105  0.5846  0.3983 -0.8588
 9625TIP3   OH250365   0.069   5.183   1.540 -0.2911 -0.1580  0.4834
 9625TIP3    H150366   0.093   5.275   1.546 -1.9887  0.2651  1.0590
 9625TIP3    H250367   0.118   5.150   1.465  0.4222  1.1889  0.3489
 9626TIP3   OH250368   6.108   4.239  12.460  0.0401 -0.2121 -0.4756
 9626TIP3    H150369   6.031   4.281  12.422 -0.5663  0.0827  1.0291
 9626TIP3    H250370   6.131   4.169  12.399  0.6874  1.8934 -2.7246
 9627TIP3   OH250371   2.792   6.481  14.750 -0.2276  0.5527  0.1244
 9627TIP3    H150372   2.868   6.450  14.800 -0.7276 -1.2075 -0.1721
 9627TIP3    H250373   2.717   6.440  14.792 -0.8112  0.4708 -0.9823
 9628TIP3   OH250374   1.306   3.762   2.222 -0.5060 -0.2702  0.1719
 9628TIP3    H150375   1.253   3.697   2.176  0.3666 -0.3242 -0.7499
 9628TIP3    H250376   1.266   3.846   2.199 -0.0403 -0.2953 -0.6992
 9629TIP3   OH250377   4.571   0.662  12.768 -0.3974 -0.0615  0.5701
 9629TIP3    H150378   4.487   0.635  12.730  0.3724 -0.0318 -1.2105
 9629TIP3    H250379   4.632   0.659  12.695  0.7447  1.8140  1.4028
 9630TIP3   OH250380   1.762   5.193  11.432  0.8298 -0.1178 -0.0825
 9630TIP3    H150381   1.673   5.204  11.467 -0.4169  0.3385 -3.2144
 9630TIP3    H250382   1.815   5.253  11.485 -0.9981  0.7171  0.8811
 9631TIP3   OH250383   2.718   5.020  12.823 -0.0369 -0.1133 -0.3629
 9631TIP3    H150384   2.728   5.074  12.744  1.0885  1.3556  0.7515
 9631TIP3    H250385   2.763   4.939  12.803  1.4598  0.7964 -0.7274
 9632TIP3   OH250386   1.063   3.609   1.405 -0.2164 -1.0376 -0.0177
 9632TIP3    H150387   1.074   3.660   1.325  0.4347 -0.1973  0.6066
 9632TIP3    H250388   1.013   3.532   1.377  1.6617 -1.7032 -1.5942
 9633TIP3   OH250389   4.342   3.900   3.553 -0.4246 -0.3831  0.0756
 9633TIP3    H150390   4.352   3.995   3.560 -0.1354 -0.3762 -0.4093
 9633TIP3    H250391   4.261   3.888   3.504  0.1686 -0.3660 -0.9271
 9634TIP3   OH250392   5.027   5.484  16.477 -0.9537  0.0763 -0.4610
 9634TIP3    H150393   5.046   5.447  16.391  3.3321  2.7969 -0.8383
 9634TIP3    H250394   4.974   5.561  16.460 -1.2725 -0.1479 -0.5032
 9635TIP3   OH250395   4.286   2.707  13.757  0.2875  0.3593 -0.2896
 9635TIP3    H150396   4.304   2.623  13.800  0.1465 -0.0657 -1.0594
 9635TIP3    H250397   4.197   2.700  13.724  0.8100  0.2271 -1.7041
 9636TIP3   OH250398   5.367   4.352  14.594 -0.3084  0.3827  0.6143
 9636TIP3    H150399   5.439   4.369  14.654 -0.1099  1.4435  0.0923
 9636TIP3    H250400   5.387   4.267  14.555 -0.1755 -0.0650  1.6594
 9637TIP3   OH250401   1.578   0.083   1.248 -0.0025  0.5561 -0.3882
 9637TIP3    H150402   1.512   0.147   1.224 -1.3400 -0.8524 -0.4924
 9637TIP3    H250403   1.649   0.136   1.287 -1.5747  1.9820  0.6072
 9638TIP3   OH250404   1.516   1.243   1.132  0.3777  0.6330 -0.1180
 9638TIP3    H150405   1.504   1.203   1.218 -2.1052 -0.0217 -0.7485
 9638TIP3    H250406   1.438   1.220   1.083  0.7347  2.8925 -1.8414
 9639TIP3   OH250407   5.715   1.869   1.567 -0.2357 -0.2496  0.1214
 9639TIP3    H150408   5.799   1.848   1.528  0.7333  0.7801  1.6153
 9639TIP3    H250409   5.658   1.796   1.543  1.0554 -0.9080 -0.9501
 9640TIP3   OH250410   6.176   5.073   0.741  0.3964 -0.3277  0.0468
 9640TIP3    H150411   6.154   5.087   0.648  0.4284 -1.9277 -0.2259
 9640TIP3    H250412   6.271   5.078   0.744  0.2476  3.3641  0.6595
 9641TIP3   OH250413   1.497   6.159   3.605  0.7643  0.3313 -0.0576
 9641TIP3    H150414   1.461   6.083   3.561  1.3323 -0.3465  0.6318
 9641TIP3    H250415   1.429   6.226   3.598  0.3050 -0.2055 -0.7476
 9642TIP3   OH250416   5.219   0.714   0.473  0.0511 -0.2349  0.3379
 9642TIP3    H150417   5.126   0.698   0.484  0.0251 -0.5363 -0.3499
 9642TIP3    H250418   5.224   0.796   0.425  0.1121 -1.1272 -1.2054
 9643TIP3   OH250419   5.635   1.954  16.652 -0.1914 -0.3287 -0.1374
 9643TIP3    H150420   5.639   1.870  16.606  1.3731  0.4404 -1.4465
 9643TIP3    H250421   5.723   1.991  16.644 -1.2421  2.1459 -0.9508
 9644TIP3   OH250422   1.382   1.543   5.117 -0.8287 -0.6484 -0.1192
 9644TIP3    H150423   1.312   1.576   5.174 -2.3641 -2.4938 -0.8997
 9644TIP3    H250424   1.463   1.560   5.166 -1.9693 -0.3792  1.7072
 9645TIP3   OH250425   0.369   5.000   3.104 -0.1551  0.3469 -0.1516
 9645TIP3    H150426   0.349   4.944   3.179 -1.3370  1.0919  0.1163
 9645TIP3    H250427   0.332   5.086   3.128  1.5580  1.2248 -0.5794
 9646TIP3   OH250428   1.899   4.290  17.104 -0.1356 -0.4003 -0.2117
 9646TIP3    H150429   1.908   4.234  17.182  0.6895  0.3633  0.2627
 9646TIP3    H250430   1.961   4.362  17.120 -1.8298  1.1342 -0.3752
 9647TIP3   OH250431   4.881   6.460  15.008  0.1902 -0.0921 -0.1080
 9647TIP3    H150432   4.912   6.388  15.063 -0.2475 -1.9377 -2.2181
 9647TIP3    H250433   4.954   6.479  14.950 -0.4814 -0.3647 -1.0499
 9648TIP3   OH250434   0.331   1.156  12.482  0.5808 -0.2186  0.3241
 9648TIP3    H150435   0.266   1.215  12.519  0.7747  0.1670  0.0438
 9648TIP3    H250436   0.373   1.206  12.412 -0.3819 -1.2398 -1.0148
 9649TIP3   OH250437   6.123   1.560  15.606 -0.1669 -0.1524 -0.1113
 9649TIP3    H150438   6.178   1.637  15.595 -0.6356  0.2177  0.1316
 9649TIP3    H250439   6.167   1.509  15.675  1.3356 -1.1932 -1.7913
 9650TIP3   OH250440   4.925   3.786   3.026  0.3480  0.9094 -0.2956
 9650TIP3    H150441   4.912   3.864   2.972  1.6284  0.9297 -0.5945
 9650TIP3    H250442   5.016   3.760   3.009 -0.4705 -1.4202 -1.2227
 9651TIP3   OH250443   5.973   0.159   3.990  0.1116  0.7356  0.5870
 9651TIP3    H150444   5.969   0.219   4.064 -0.8074  0.8030  0.4958
 9651TIP3    H250445   5.888   0.114   3.991  0.4040  0.1538  0.0590
 9652TIP3   OH250446   6.655   3.129  10.774  0.1086 -0.9145  0.2287
 9652TIP3    H150447   6.562   3.149  10.784  0.1924  0.6876 -1.9826
 9652TIP3    H250448   6.674   3.071  10.848 -2.7387 -1.6470  0.4797
 9653TIP3   OH250449   2.433   2.956  12.851 -0.0082  0.0585 -0.1534
 9653TIP3    H150450   2.513   2.976  12.899 -0.0127 -0.2429 -0.0160
 9653TIP3    H250451   2.411   3.037  12.805  1.5298 -0.4614 -1.8681
 9654TIP3   OH250452   5.949   1.828   0.468  0.2119  0.2791 -0.2419
 9654TIP3    H150453   6.015   1.893   0.492  1.4892 -1.0265 -0.1592
 9654TIP3    H250454   5.906   1.867   0.391  0.2566  1.6844  0.4187
 9655TIP3   OH250455   3.252   5.482  14.912  0.3406 -0.0425 -0.0487
 9655TIP3    H150456   3.242   5.490  14.818  0.8852  0.2178 -0.0854
 9655TIP3    H250457   3.322   5.417  14.924  0.5113  0.1794  0.1665
 9656TIP3   OH250458   6.204   6.526  16.494 -0.2129 -0.4699 -0.3845
 9656TIP3    H150459   6.294   6.520  16.462  0.3897 -1.8720  1.4966
 9656TIP3    H250460   6.198   6.615  16.529  0.4948 -0.4337 -0.3461
 9657TIP3   OH250461   2.065   4.071   0.337  0.6927 -0.3933  0.1764
 9657TIP3    H150462   2.120   4.003   0.297 -0.1949 -0.3849 -1.0752
 9657TIP3    H250463   2.114   4.099   0.415  1.0395 -2.4999  0.7490
 9658TIP3   OH250464   2.642   5.784   4.502  0.1262  0.3998 -0.1400
 9658TIP3    H150465   2.662   5.772   4.595  0.5634 -1.2180 -0.4413
 9658TIP3    H250466   2.702   5.725   4.456  0.3523  1.6578 -1.4969
 9659TIP3   OH250467   6.702   4.146  14.827  0.0738  0.0249 -0.2305
 9659TIP3    H150468   6.625   4.119  14.777 -0.5102  1.2936 -0.0520
 9659TIP3    H250469   6.753   4.066  14.839 -0.8356 -0.6824 -1.0193
 9660TIP3   OH250470   2.386   5.497  14.608 -0.2486 -0.1748 -0.4739
 9660TIP3    H150471   2.323   5.568  14.595 -0.7201 -0.2408  1.2689
 9660TIP3    H250472   2.458   5.537  14.657 -0.1481 -0.7033 -0.1838
 9661TIP3   OH250473   2.772   2.342   0.365  0.0920  0.3198  0.2883
 9661TIP3    H150474   2.752   2.416   0.307  0.5494  0.6219  0.5109
 9661TIP3    H250475   2.709   2.352   0.437 -1.2066 -0.6798 -0.6771
 9662TIP3   OH250476   3.785   2.877   0.340  0.0257  0.1699 -0.2555
 9662TIP3    H150477   3.744   2.862   0.255  0.8465 -1.6071 -0.3720
 9662TIP3    H250478   3.716   2.915   0.394 -1.2141 -0.9991 -0.9980
 9663TIP3   OH250479   3.661   1.505  17.200 -0.1345  0.3835  0.1994
 9663TIP3    H150480   3.582   1.516  17.148 -0.2329  1.3547  0.5306
 9663TIP3    H250481   3.631   1.466  17.282 -0.3196  0.9948  0.4291
 9664TIP3   OH250482   5.406   2.128   4.706  0.0760 -0.5450 -0.0541
 9664TIP3    H150483   5.454   2.052   4.738  1.0524  0.0299 -0.1088
 9664TIP3    H250484   5.321   2.125   4.750 -0.2225 -2.1386 -0.7105
 9665TIP3   OH250485   2.323   2.399  16.052 -0.0218  0.5741 -0.2544
 9665TIP3    H150486   2.328   2.305  16.070 -3.3526  0.5883  1.1430
 9665TIP3    H250487   2.310   2.404  15.958 -0.9502 -0.4535 -0.1984
 9666TIP3   OH250488   4.201   3.764  15.469  0.3684  0.7634  0.1006
 9666TIP3    H150489   4.179   3.804  15.553  0.1050  0.5786  0.1215
 9666TIP3    H250490   4.137   3.800  15.408  1.2371  1.7364 -0.2499
 9667TIP3   OH250491   5.550   1.601   1.623 -0.3999 -0.1596 -0.0126
 9667TIP3    H150492   5.472   1.613   1.570  0.0973 -2.8540 -1.4166
 9667TIP3    H250493   5.573   1.509   1.612  2.4153  0.3564  1.1417
 9668TIP3   OH250494   5.707   3.300   2.521 -0.0280  0.1929  0.3176
 9668TIP3    H150495   5.638   3.344   2.571  1.3222  0.2862  2.1831
 9668TIP3    H250496   5.689   3.207   2.530 -2.0492  0.2548 -2.4066
 9669TIP3   OH250497   2.040   5.039  14.393 -0.1333  0.2456 -0.0426
 9669TIP3    H150498   2.061   5.012  14.483  1.8160  0.9090 -0.2857
 9669TIP3    H250499   2.125   5.058  14.353 -0.9538 -0.3142 -2.1284
 9670TIP3   OH250500   2.701   2.611   5.543  0.5874 -0.7974  0.1215
 9670TIP3    H150501   2.623   2.588   5.592  0.1458 -0.9294 -0.6245
 9670TIP3    H250502   2.739   2.526   5.518  0.7821 -0.7328  0.1981
 9671TIP3   OH250503   3.131   2.477   2.052 -0.0208 -0.1842  1.0673
 9671TIP3    H150504   3.068   2.540   2.016 -0.7505 -1.2933  0.3861
 9671TIP3    H250505   3.095   2.454   2.137 -0.7370 -1.0932  0.5250
 9672TIP3   OH250506   6.325   0.872   5.500 -0.2243  0.3097 -0.1436
 9672TIP3    H150507   6.414   0.840   5.484 -0.0007 -0.1409  1.8363
 9672TIP3    H250508   6.269   0.805   5.460  0.3070 -0.3334  0.1684
 9673TIP3   OH250509   2.731   1.720  15.313  0.2927 -0.1487 -0.3009
 9673TIP3    H150510   2.801   1.784  15.327  1.2956 -1.3894  0.3958
 9673TIP3    H250511   2.771   1.636  15.333 -0.4175 -1.2325 -3.1454
 9674TIP3   OH250512   2.420   2.314  13.027  0.4104 -0.1196 -0.3461
 9674TIP3    H150513   2.373   2.251  13.082 -1.1096 -0.6725 -2.2222
 9674TIP3    H250514   2.376   2.397  13.043  0.0150 -0.2670 -0.6382
 9675TIP3   OH250515   6.458   6.405  12.301  0.5261  0.3677  0.0580
 9675TIP3    H150516   6.440   6.326  12.250  0.0903 -0.8522  2.0417
 9675TIP3    H250517   6.372   6.446  12.313  0.8392  1.5288 -1.5500
 9676TIP3   OH250518   1.726   1.688   2.539 -0.0741  0.0198  0.4092
 9676TIP3    H150519   1.721   1.638   2.457  1.0639 -0.1653  0.4433
 9676TIP3    H250520   1.672   1.638   2.600  0.5444 -0.8433  0.2692
 9677TIP3   OH250521   2.742   2.430  13.363  0.3712 -0.5517  0.2361
 9677TIP3    H150522   2.816   2.369  13.368 -1.2208 -2.5740 -0.0832
 9677TIP3    H250523   2.708   2.417  13.274 -0.7674 -0.1050  0.6120
 9678TIP3   OH250524   1.411   3.388  14.871 -0.3116 -0.1912 -0.3850
 9678TIP3    H150525   1.343   3.391  14.804 -1.8880  0.0730  1.2170
 9678TIP3    H250526   1.398   3.467  14.923  2.1256  0.6042 -0.9167
 9679TIP3   OH250527   0.129   4.896  12.614  0.3037 -0.2388 -0.3807
 9679TIP3    H150528   0.192   4.958  12.576  1.6021 -1.5626 -0.4538
 9679TIP3    H250529   0.144   4.902  12.708  0.7976 -0.8027 -0.4189
 9680TIP3   OH250530   6.622   5.506   3.122  0.4275 -0.1183 -0.0987
 9680TIP3    H150531   6.542   5.515   3.174  0.8189  1.5763  0.2425
 9680TIP3    H250532   6.629   5.412   3.105 -2.4379 -0.1438 -1.4160
 9681TIP3   OH250533   2.372   1.140   5.906 -0.1497  0.6109  0.2729
 9681TIP3    H150534   2.391   1.049   5.929 -1.6365  0.7433  2.0748
 9681TIP3    H250535   2.436   1.161   5.837  1.3899 -1.2035  1.1201
 9682TIP3   OH250536   4.323   6.615   4.359  0.2747 -0.0801  0.5400
 9682TIP3    H150537   4.284   6.678   4.420  0.9236  1.1578 -0.2923
 9682TIP3    H250538   4.404   6.587   4.402  0.8544  0.9714  0.1801
 9683TIP3   OH250539   5.394   5.940   5.345  0.2575 -0.0298  0.6279
 9683TIP3    H150540   5.339   5.961   5.269  1.0606  0.0568  0.0660
 9683TIP3    H250541   5.333   5.938   5.418 -0.4945  0.1218  0.0183
 9684TIP3   OH250542   1.706   5.147   5.260  0.2107  0.0770 -0.6299
 9684TIP3    H150543   1.799   5.166   5.273  0.2032 -1.0333  1.2228
 9684TIP3    H250544   1.704   5.096   5.179  1.3550 -0.7362 -0.1733
 9685TIP3   OH250545   4.659   0.275   4.403  0.5015  0.2573 -0.6613
 9685TIP3    H150546   4.725   0.340   4.427  0.6687 -0.4351  0.8500
 9685TIP3    H250547   4.638   0.231   4.486 -0.6503 -0.6389 -1.4143
 9686TIP3   OH250548   3.571   0.967  16.828  0.5938  0.2650 -0.3242
 9686TIP3    H150549   3.566   0.917  16.909  2.2177  1.0239  0.2524
 9686TIP3    H250550   3.489   1.016  16.825  0.4810  0.1524  0.7965
 9687TIP3   OH250551   2.145   5.124   4.969 -0.0412  0.4500 -0.0900
 9687TIP3    H150552   2.074   5.184   4.946 -0.7699  0.0222  1.0147
 9687TIP3    H250553   2.186   5.164   5.046  0.6215  0.4565 -0.4432
 9688TIP3   OH250554   4.996   1.381  16.234  0.7028  0.1022 -0.3465
 9688TIP3    H150555   4.957   1.467  16.246  2.8331  0.9831  0.6606
 9688TIP3    H250556   4.961   1.329  16.306 -0.5414  0.1437 -0.9167
 9689TIP3   OH250557   0.932   0.467   4.723 -0.1866  0.3686  0.0965
 9689TIP3    H150558   0.915   0.453   4.630  0.6821 -0.1272  0.0050
 9689TIP3    H250559   0.854   0.512   4.755 -1.6755 -1.8337 -0.3016
 9690TIP3   OH250560   2.372   6.736   1.064  0.5504  0.1637 -0.8390
 9690TIP3    H150561   2.290   6.688   1.054  1.9738 -2.4397 -0.5786
 9690TIP3    H250562   2.349   6.814   1.115 -1.9379  0.0870 -1.7755
 9691TIP3   OH250563   3.330   0.612   3.369  0.2308 -0.3752 -0.1069
 9691TIP3    H150564   3.262   0.628   3.303  0.3899 -0.5379 -0.3102
 9691TIP3    H250565   3.409   0.593   3.318 -0.1108 -2.4958  0.1119
 9692TIP3   OH250566   1.264   2.362  16.304  0.6686  0.2508  0.0206
 9692TIP3    H150567   1.173   2.350  16.275  0.8844  0.3916 -0.7216
 9692TIP3    H250568   1.266   2.451  16.339  1.0301  1.0318 -1.9277
 9693TIP3   OH250569   0.894   3.797  17.291  0.8149 -0.6346 -0.1045
 9693TIP3    H150570   0.982   3.765  17.313  0.1982 -1.3292  1.4211
 9693TIP3    H250571   0.835   3.733  17.331 -0.4016  0.5702  0.0427
 9694TIP3   OH250572   4.388   3.525   3.349 -0.4596 -0.2717 -0.7035
 9694TIP3    H150573   4.380   3.585   3.274 -1.1991 -0.8534 -1.1028
 9694TIP3    H250574   4.388   3.438   3.309  0.3402 -0.5423 -0.1075
 9695TIP3   OH250575   5.041   5.321   0.094  0.2865 -0.1528  0.2992
 9695TIP3    H150576   5.058   5.391   0.032  0.1634 -1.7290 -1.5597
 9695TIP3    H250577   4.997   5.364   0.168  0.3827  1.7286 -0.7206
 9696TIP3   OH250578   5.362   4.723  13.770  0.5968 -0.6188 -0.1290
 9696TIP3    H150579   5.378   4.790  13.836  0.4771 -1.0188  0.3108
 9696TIP3    H250580   5.393   4.761  13.688  0.8598 -0.1679  0.1816
 9697TIP3   OH250581   0.446   6.043   1.252 -0.0337  0.4599 -0.6023
 9697TIP3    H150582   0.398   6.105   1.305  0.3277  1.2255 -1.1540
 9697TIP3    H250583   0.530   6.032   1.297  0.9482  2.4097 -1.8703
 9698TIP3   OH250584   3.296   0.453  12.780  0.1667 -0.0977  0.0602
 9698TIP3    H150585   3.213   0.457  12.828  0.3444  0.7459  0.3032
 9698TIP3    H250586   3.306   0.540  12.742 -0.8785 -1.2369 -3.0378
 9699TIP3   OH250587   6.786   0.933   2.869 -0.5414 -0.3846  0.0128
 9699TIP3    H150588   6.832   0.954   2.950 -0.4821 -0.8119  0.0934
 9699TIP3    H250589   6.796   1.011   2.814 -3.0823  1.0732  1.5179
 9700TIP3   OH250590   3.776   6.576  10.902  0.3054  0.4929  0.2062
 9700TIP3    H150591   3.859   6.585  10.856  0.4600  0.5636  0.4987
 9700TIP3    H250592   3.715   6.545  10.835  0.2231  1.8046 -0.3514
 9701TIP3   OH250593   6.353   0.779  13.319  0.2307 -0.4695 -0.6463
 9701TIP3    H150594   6.339   0.787  13.414 -1.3319  1.2218 -1.0034
 9701TIP3    H250595   6.410   0.853  13.297 -1.2748  0.5043 -1.3734
 9702TIP3   OH250596   3.891   6.207   3.423  0.3318  0.4511 -0.3097
 9702TIP3    H150597   3.853   6.230   3.508  0.1858  0.2560 -0.3234
 9702TIP3    H250598   3.943   6.128   3.441  2.0900  1.6642  0.0695
 9703TIP3   OH250599   5.647   1.074   5.759  0.4924  0.5327 -0.3004
 9703TIP3    H150600   5.584   1.005   5.741 -0.8423  1.2736  1.4753
 9703TIP3    H250601   5.666   1.067   5.852  1.1834  1.8615 -0.3190
 9704TIP3   OH250602   4.082   5.996  13.843  0.3880  0.2457  0.4466
 9704TIP3    H150603   4.021   6.067  13.865 -0.0520 -0.2012  0.6539
 9704TIP3    H250604   4.096   6.005  13.749  0.7683  0.9563  0.5667
 9705TIP3   OH250605   4.877   1.633  16.303  0.2547  0.2660 -0.4688
 9705TIP3    H150606   4.947   1.635  16.368  0.2962 -1.2099 -0.4645
 9705TIP3    H250607   4.800   1.667  16.350  0.8246  1.4037 -0.3310
 9706TIP3   OH250608   5.818   1.804   2.075 -0.1012 -0.0765  0.6005
 9706TIP3    H150609   5.844   1.896   2.072 -1.3861  0.3275  1.6141
 9706TIP3    H250610   5.867   1.764   2.003 -0.4774  1.6389 -0.6601
 9707TIP3   OH250611   1.263   5.184   5.391 -0.1396 -0.5981  0.0996
 9707TIP3    H150612   1.335   5.217   5.336  0.2102 -1.0342  0.2899
 9707TIP3    H250613   1.303   5.173   5.478 -0.4235 -0.8887  0.1925
 9708TIP3   OH250614   4.061   3.792   2.419 -0.0253 -0.0145  0.2761
 9708TIP3    H150615   4.065   3.887   2.410 -1.0812  0.0018  0.0074
 9708TIP3    H250616   4.087   3.776   2.510  2.0868  0.3903 -0.2268
 9709TIP3   OH250617   5.440   0.739   3.316 -0.2526  0.1571  0.1759
 9709TIP3    H150618   5.465   0.818   3.365  0.8988  0.3069 -0.6331
 9709TIP3    H250619   5.441   0.766   3.225  2.5539 -1.4039 -0.3088
 9710TIP3   OH250620   0.229   4.824  14.769  0.0572  0.1038 -0.3039
 9710TIP3    H150621   0.257   4.766  14.840 -0.3457  0.7748  0.4044
 9710TIP3    H250622   0.178   4.767  14.711 -1.6589  0.0504  1.1900
 9711TIP3   OH250623   3.334   3.623   5.424  0.3473  0.8304 -0.4691
 9711TIP3    H150624   3.420   3.611   5.383  0.3674 -0.6771 -0.0405
 9711TIP3    H250625   3.272   3.629   5.352  0.5385 -0.4830 -0.7485
 9712TIP3   OH250626   2.389   0.386   3.590 -0.5725  0.3428  0.2155
 9712TIP3    H150627   2.408   0.298   3.557 -0.9894  0.1492  0.4861
 9712TIP3    H250628   2.419   0.445   3.521 -2.3462 -0.0965 -0.9514
 9713TIP3   OH250629   3.056   5.627   4.858  0.2707 -0.1464  0.2709
 9713TIP3    H150630   3.116   5.646   4.931  1.3280  0.8338 -0.8322
 9713TIP3    H250631   3.112   5.592   4.789 -0.1287  2.3161 -1.3769
 9714TIP3   OH250632   2.956   2.961   4.877  0.0152 -0.2035  0.0727
 9714TIP3    H150633   2.968   2.981   4.970 -1.2900 -0.9720  0.4250
 9714TIP3    H250634   2.978   2.868   4.870 -0.1965 -0.2264 -0.3163
 9715TIP3   OH250635   6.396   0.228   0.669  0.9243 -0.3330  0.0309
 9715TIP3    H150636   6.369   0.319   0.679  1.2912 -0.1753 -0.4150
 9715TIP3    H250637   6.480   0.223   0.715  1.5729 -0.1179 -1.1092
 9716TIP3   OH250638   1.389   4.955  16.518  0.5982  0.5682 -0.1219
 9716TIP3    H150639   1.444   4.889  16.476 -0.0707  0.2794 -0.5530
 9716TIP3    H250640   1.382   5.025  16.453 -2.0550 -0.7394 -1.2994
 9717TIP3   OH250641   4.315   6.652   2.758 -0.2825 -0.2767 -0.5134
 9717TIP3    H150642   4.385   6.591   2.735  1.1040  0.4845  1.5551
 9717TIP3    H250643   4.243   6.596   2.786  0.8460 -1.0122  0.9995
 9718TIP3   OH250644   4.569   6.072  15.827  0.8084 -0.0241  0.6783
 9718TIP3    H150645   4.498   6.135  15.840  0.1247 -0.6682  0.1617
 9718TIP3    H250646   4.630   6.117  15.769  2.0572  1.4584  3.0952
 9719TIP3   OH250647   0.162   1.428  13.738  0.1024  0.3082  0.1401
 9719TIP3    H150648   0.230   1.463  13.681  0.5184  0.4409  0.7086
 9719TIP3    H250649   0.204   1.354  13.783 -0.3368 -0.0374 -0.0068
 9720TIP3   OH250650   4.957   5.187   3.384 -0.2780 -0.8885  0.2011
 9720TIP3    H150651   4.962   5.212   3.292 -0.2532  0.4621  0.5654
 9720TIP3    H250652   4.871   5.148   3.394 -1.8738  2.5693  0.4792
 9721TIP3   OH250653   0.077   5.630   6.422  0.5075  0.6832 -0.1262
 9721TIP3    H150654   0.161   5.653   6.381 -0.3159  0.6158 -1.8929
 9721TIP3    H250655   0.042   5.713   6.453  0.7503  0.8463 -0.2862
 9722TIP3   OH250656   5.654   0.455   5.051 -0.6445  0.6476  0.2221
 9722TIP3    H150657   5.669   0.446   4.957  1.1211 -1.0882  0.6479
 9722TIP3    H250658   5.637   0.366   5.081  1.3758  0.8203  1.9571
 9723TIP3   OH250659   5.461   3.447  13.514  0.0681 -0.1928 -0.0659
 9723TIP3    H150660   5.481   3.430  13.422  1.6653 -0.0424  0.2397
 9723TIP3    H250661   5.391   3.386  13.535 -1.0329  0.4733 -1.6599
 9724TIP3   OH250662   5.726   2.514   3.588 -0.5120  0.1610 -0.0786
 9724TIP3    H150663   5.749   2.577   3.519  0.8889 -0.2952 -0.0460
 9724TIP3    H250664   5.735   2.429   3.546 -0.5274 -0.0871  0.4227
 9725TIP3   OH250665   5.604   6.471  12.524  0.1871 -0.0155  0.0779
 9725TIP3    H150666   5.634   6.464  12.614  0.2795  1.0257  0.1334
 9725TIP3    H250667   5.509   6.460  12.529  0.0380  1.3821  0.4678
 9726TIP3   OH250668   2.874   2.402   5.463 -0.6708 -0.7673 -0.1374
 9726TIP3    H150669   2.871   2.414   5.558 -0.9279  1.4018 -0.3855
 9726TIP3    H250670   2.967   2.408   5.441 -0.7106 -0.1328 -0.1427
 9727TIP3   OH250671   0.988   5.754  14.419  0.6059  0.0520 -0.0739
 9727TIP3    H150672   0.935   5.714  14.488 -0.0083  2.5216  0.9220
 9727TIP3    H250673   1.057   5.689  14.402 -1.2296 -2.0745  0.3989
 9728TIP3   OH250674   3.817   2.197   2.784 -0.0765 -0.1632 -0.0758
 9728TIP3    H150675   3.819   2.125   2.721  2.7902  1.2632 -1.7458
 9728TIP3    H250676   3.841   2.274   2.733 -0.4644  1.5397  2.2177
 9729TIP3   OH250677   0.540   3.610  14.346  0.3508 -0.0193 -0.1114
 9729TIP3    H150678   0.625   3.568  14.356  0.2110 -0.1824  0.4140
 9729TIP3    H250679   0.539   3.679  14.412  1.1344  1.7473 -1.9099
 9730TIP3   OH250680   3.944   3.922  12.356  0.4284 -0.2756  0.4236
 9730TIP3    H150681   4.026   3.929  12.404  0.6295  0.7079 -0.0413
 9730TIP3    H250682   3.893   3.998  12.384  0.2383 -0.1196 -0.3147
 9731TIP3   OH250683   6.741   0.315  11.420  0.2067 -0.0411 -0.0004
 9731TIP3    H150684   6.730   0.290  11.328 -0.3832 -0.5937  0.2103
 9731TIP3    H250685   6.704   0.241  11.469  0.2296  0.3893  0.6716
 9732TIP3   OH250686   2.530   1.919  14.639  0.0747  0.1995  0.7779
 9732TIP3    H150687   2.498   1.864  14.567  0.1627  0.5517  0.4722
 9732TIP3    H250688   2.623   1.931  14.620  0.2908 -0.4424  1.4242
 9733TIP3   OH250689   0.857   5.573  11.137 -0.1231 -0.2250 -0.3117
 9733TIP3    H150690   0.945   5.588  11.101  0.3752 -2.3665 -0.0407
 9733TIP3    H250691   0.798   5.599  11.067  0.6867  2.1290 -0.1596
 9734TIP3   OH250692   4.551   1.671   5.593 -0.6475 -0.2562  0.0239
 9734TIP3    H150693   4.572   1.710   5.678 -2.1825 -0.3794  0.4701
 9734TIP3    H250694   4.606   1.720   5.531  0.3473 -0.0375  1.0440
 9735TIP3   OH250695   3.186   4.705   5.989  0.4188  0.1857 -0.1418
 9735TIP3    H150696   3.267   4.658   5.972  1.5211  1.8492  0.4082
 9735TIP3    H250697   3.211   4.798   5.989 -1.5774  0.7660 -0.5645
 9736TIP3   OH250698   3.268   4.824  11.935  0.1793 -0.1927 -0.0370
 9736TIP3    H150699   3.346   4.794  11.980 -0.0514 -0.1541  0.3879
 9736TIP3    H250700   3.195   4.783  11.982 -0.1656  1.4041  0.8536
 9737TIP3   OH250701   5.529   5.767  15.940 -0.4169  1.1095  0.4415
 9737TIP3    H150702   5.577   5.757  16.023  0.7316 -0.0818 -0.3446
 9737TIP3    H250703   5.548   5.856  15.912  1.1811  0.7452  0.2713
 9738TIP3   OH250704   5.339   1.496  14.817 -0.0873 -0.1518  0.0290
 9738TIP3    H150705   5.354   1.495  14.912  0.9330  1.6206 -0.0889
 9738TIP3    H250706   5.290   1.576  14.801 -2.6316 -1.7955 -0.6477
 9739TIP3   OH250707   0.816   6.235   2.301 -0.2908  0.7621  0.1372
 9739TIP3    H150708   0.911   6.245   2.297 -0.2976  0.2763 -2.2369
 9739TIP3    H250709   0.801   6.141   2.302 -0.7759  0.7894 -1.9177
 9740TIP3   OH250710   0.227   2.598   4.473 -0.2312 -0.2409 -0.1604
 9740TIP3    H150711   0.286   2.544   4.525 -0.6272 -0.6163 -0.0927
 9740TIP3    H250712   0.206   2.672   4.530  1.8451  1.0031 -0.9703
 9741TIP3   OH250713   5.006   3.180   4.437 -0.4815  0.4383  0.1507
 9741TIP3    H150714   5.094   3.210   4.459  0.0616 -0.1508 -1.1550
 9741TIP3    H250715   5.013   3.085   4.431 -0.9564  0.4625 -0.9852
 9742TIP3   OH250716   6.482   6.649   5.737 -0.2083  0.1926 -0.1464
 9742TIP3    H150717   6.415   6.611   5.681  0.0615  1.0876 -1.1034
 9742TIP3    H250718   6.488   6.590   5.812 -0.8195 -0.8335 -0.8957
 9743TIP3   OH250719   6.223   6.577   5.668  0.0437  0.2751  0.0200
 9743TIP3    H150720   6.142   6.629   5.670 -0.6597 -0.8030 -0.0293
 9743TIP3    H250721   6.220   6.532   5.583  0.1567 -0.6131  0.4881
 9744TIP3   OH250722   4.718   4.807   4.899 -0.8887 -0.5392 -0.4485
 9744TIP3    H150723   4.671   4.741   4.847 -1.4554  1.1580 -2.1263
 9744TIP3    H250724   4.669   4.888   4.885  1.8320  1.0417 -1.3235
 9745TIP3   OH250725   4.420   4.083   0.553 -0.0608 -0.1120  0.1741
 9745TIP3    H150726   4.324   4.080   0.551 -0.0382 -1.8547  0.2322
 9745TIP3    H250727   4.443   4.041   0.636  0.7665 -0.6432 -0.3175
 9746TIP3   OH250728   3.317   2.320  13.018 -0.3319 -0.0094 -0.0169
 9746TIP3    H150729   3.234   2.308  13.064 -0.3667 -0.6839 -0.2448
 9746TIP3    H250730   3.373   2.367  13.080 -0.6320 -0.2425  0.4341
 9747TIP3   OH250731   2.392   1.814   5.280 -0.1084  0.0312  0.1850
 9747TIP3    H150732   2.441   1.756   5.223 -0.5955 -0.7586  0.5596
 9747TIP3    H250733   2.424   1.902   5.259  1.8417 -0.5074  0.8223
 9748TIP3   OH250734   2.328   1.454  13.363 -0.2223 -0.4372  0.3467
 9748TIP3    H150735   2.307   1.389  13.430 -0.3161 -2.1543 -1.3317
 9748TIP3    H250736   2.243   1.479  13.327 -0.1060 -0.1502  0.2733
 9749TIP3   OH250737   4.855   1.594  15.694  0.1716  0.1899 -0.1627
 9749TIP3    H150738   4.911   1.655  15.742  0.5327 -0.4469  0.2342
 9749TIP3    H250739   4.917   1.537  15.647 -0.1295 -0.5698  0.3407
 9750TIP3   OH250740   4.767   6.012  15.015 -0.0808  0.6392  0.5513
 9750TIP3    H150741   4.860   6.020  15.038  0.4598 -0.0461 -1.2539
 9750TIP3    H250742   4.723   5.995  15.098  1.5668 -0.2371  1.2835
 9751TIP3   OH250743   5.706   0.373   0.099  0.0554 -0.0412 -0.0076
 9751TIP3    H150744   5.660   0.321   0.032  0.2725  0.4308 -0.5297
 9751TIP3    H250745   5.769   0.313   0.137 -0.9496 -0.6842  0.6751
 9752TIP3   OH250746   4.655   4.168   3.004  0.1841  0.4080 -0.2548
 9752TIP3    H150747   4.678   4.222   2.928  0.2471 -0.2778 -0.7253
 9752TIP3    H250748   4.689   4.218   3.079  0.6396  0.8073 -0.7189
 9753TIP3   OH250749   4.616   5.187   5.906  0.2711 -0.2923 -0.1619
 9753TIP3    H150750   4.665   5.129   5.848 -0.2133 -1.0786  0.2018
 9753TIP3    H250751   4.670   5.192   5.985 -0.1134 -0.9702  0.1484
 9754TIP3   OH250752   2.926   3.429   4.482  0.0620 -0.1712  0.0346
 9754TIP3    H150753   2.923   3.338   4.513 -0.3377 -0.2399 -0.2045
 9754TIP3    H250754   2.873   3.478   4.544  1.3911  0.1341  0.9488
 9755TIP3   OH250755   0.150   5.883   4.672 -0.3017  0.0861 -0.3286
 9755TIP3    H150756   0.096   5.908   4.748 -1.4520 -1.8362 -0.4641
 9755TIP3    H250757   0.132   5.790   4.661  2.5943 -0.4435 -0.8027
 9756TIP3   OH250758   5.134   3.779  14.079 -0.0995 -0.3166 -0.0298
 9756TIP3    H150759   5.047   3.778  14.119  0.3156  1.2360  0.9675
 9756TIP3    H250760   5.181   3.707  14.121 -0.3759 -0.1023  0.6509
 9757TIP3   OH250761   4.217   2.556  15.034  0.3317 -0.0785  0.1185
 9757TIP3    H150762   4.235   2.582  14.944  1.1194  0.3886  0.4042
 9757TIP3    H250763   4.231   2.461  15.036 -0.5401 -0.2302 -0.4424
 9758TIP3   OH250764   6.765   4.755  13.988 -0.4375 -0.3707 -0.3698
 9758TIP3    H150765   6.695   4.711  14.036 -1.7468  1.1459 -0.8271
 9758TIP3    H250766   6.743   4.743  13.896 -1.2587  1.8303 -0.5014
 9759TIP3   OH250767   2.881   2.605  14.095  0.1417  0.9488  0.1406
 9759TIP3    H150768   2.805   2.547  14.092  0.5262  0.4494  0.0314
 9759TIP3    H250769   2.954   2.552  14.064  0.6070  1.3170  0.5785
 9760TIP3   OH250770   1.095   4.633  16.105  0.3005  0.3023  0.1835
 9760TIP3    H150771   1.182   4.601  16.081  0.2195  0.6891 -0.6515
 9760TIP3    H250772   1.038   4.600  16.035 -0.1662  0.3536  0.5368
 9761TIP3   OH250773   2.962   4.623  16.309 -0.0444 -0.2683 -0.2674
 9761TIP3    H150774   2.952   4.710  16.348  0.5589  0.5064 -1.7682
 9761TIP3    H250775   2.895   4.569  16.351 -1.0886  1.1828 -0.0486
 9762TIP3   OH250776   2.900   6.774  13.691  0.0157 -0.5474 -1.2083
 9762TIP3    H150777   2.910   6.855  13.640 -0.7752  0.6860  0.5695
 9762TIP3    H250778   2.987   6.758  13.727  0.1617 -0.4984 -1.5301
 9763TIP3   OH250779   0.917   0.697   6.181  0.4206  0.3777 -0.2050
 9763TIP3    H150780   0.875   0.715   6.265  1.3376 -3.4410  1.1786
 9763TIP3    H250781   0.849   0.717   6.116 -1.8071 -0.7009  1.7063
 9764TIP3   OH250782   3.329   4.331  12.902 -0.1900 -0.4596 -0.5743
 9764TIP3    H150783   3.349   4.309  12.811  0.2385 -1.0788 -0.3395
 9764TIP3    H250784   3.290   4.250  12.937 -2.0283  0.3524 -0.7037
 9765TIP3   OH250785   5.707   3.751  15.118 -0.3321  0.2676 -0.0357
 9765TIP3    H150786   5.664   3.768  15.034 -1.2890 -1.0391  0.1692
 9765TIP3    H250787   5.756   3.670  15.104 -0.5472  0.0105  0.6772
 9766TIP3   OH250788   0.926   2.423  13.487  0.1161 -0.2536 -0.2587
 9766TIP3    H150789   0.870   2.428  13.410  0.7405 -0.0301 -0.7065
 9766TIP3    H250790   1.004   2.375  13.457  0.0540 -0.7876  0.4203
 9767TIP3   OH250791   3.490   3.999  15.905 -0.0152 -0.1774  0.1964
 9767TIP3    H150792   3.532   3.981  15.989  0.2667 -0.5903 -0.0273
 9767TIP3    H250793   3.492   4.094  15.896  1.9191 -0.2486 -0.3317
 9768TIP3   OH250794   5.801   6.603  15.124  0.1450  0.1166 -0.0167
 9768TIP3    H150795   5.852   6.533  15.084 -0.1523 -0.2988  0.3339
 9768TIP3    H250796   5.852   6.682  15.107  0.0743 -0.0645 -1.1339
 9769TIP3   OH250797   4.126   2.180   3.354  0.0631  0.5481 -0.2808
 9769TIP3    H150798   4.064   2.252   3.358 -0.5965  0.0612 -1.4211
 9769TIP3    H250799   4.208   2.217   3.386 -1.0552  0.9129  2.2640
 9770TIP3   OH250800   3.390   4.433   5.200 -0.4942  0.2854 -0.2274
 9770TIP3    H150801   3.301   4.399   5.199  0.0947 -1.3333  0.3816
 9770TIP3    H250802   3.441   4.366   5.247  1.4881 -0.0162 -2.6606
 9771TIP3   OH250803   3.867   2.627   2.013 -0.1473  0.0483 -0.0097
 9771TIP3    H150804   3.896   2.650   2.101 -2.5257 -0.3015  0.8921
 9771TIP3    H250805   3.847   2.534   2.017 -1.1515  0.2227 -0.6423
 9772TIP3   OH250806   0.209   1.203  13.958  0.0754 -0.3048 -0.0893
 9772TIP3    H150807   0.223   1.118  14.001 -0.3292  0.3203  1.2813
 9772TIP3    H250808   0.258   1.265  14.012 -0.0781  0.4216 -0.7918
 9773TIP3   OH250809   2.623   2.049   3.671 -0.0462 -0.7035 -0.1268
 9773TIP3    H150810   2.574   2.118   3.626 -0.6984 -0.8355  0.3853
 9773TIP3    H250811   2.607   2.064   3.764  0.7047 -0.8862  0.0364
 9774TIP3   OH250812   5.341   4.341  16.103  0.3611  0.3126 -0.2362
 9774TIP3    H150813   5.323   4.338  16.197 -1.8634 -0.7995 -0.6523
 9774TIP3    H250814   5.354   4.249  16.079 -3.2898  0.0967 -1.7227
 9775TIP3   OH250815   4.250   3.705   1.258 -0.3353 -0.4078 -0.0989
 9775TIP3    H150816   4.336   3.662   1.257 -0.2773 -0.3508  1.2776
 9775TIP3    H250817   4.268   3.795   1.231  0.3825  0.1718  2.1888
 9776TIP3   OH250818   1.710   5.002   0.714  0.2251 -0.3094  0.4958
 9776TIP3    H150819   1.762   4.961   0.645  0.5913 -0.0911  0.6406
 9776TIP3    H250820   1.680   4.930   0.769  1.2545 -0.3402  1.0181
 9777TIP3   OH250821   4.736   5.447  11.231 -0.0484  0.6465  0.5156
 9777TIP3    H150822   4.760   5.485  11.147 -0.9953 -0.1654 -0.1360
 9777TIP3    H250823   4.755   5.353  11.221 -0.3874  0.5130  1.1235
 9778TIP3   OH250824   5.485   1.645  13.171  0.1571 -0.4909 -0.6106
 9778TIP3    H150825   5.481   1.712  13.240  0.0786 -0.7465 -0.3644
 9778TIP3    H250826   5.462   1.563  13.216 -2.9717 -0.2013 -1.5496
 9779TIP3   OH250827   0.825   2.408  10.492  0.1840 -0.1271  0.0428
 9779TIP3    H150828   0.817   2.369  10.405 -0.0025  2.5493 -1.2035
 9779TIP3    H250829   0.895   2.473  10.482 -0.4910  0.8575  1.6220
 9780TIP3   OH250830   1.846   4.863  11.506  0.0113 -0.2405  0.3505
 9780TIP3    H150831   1.782   4.872  11.577 -0.3926 -1.2260  0.1167
 9780TIP3    H250832   1.793   4.848  11.428  0.4633  0.6938 -0.1459
 9781TIP3   OH250833   4.770   0.139  15.964 -0.2973  0.4586 -0.0105
 9781TIP3    H150834   4.742   0.217  15.916  2.9606  1.9710  0.3578
 9781TIP3    H250835   4.836   0.098  15.907  0.0595 -0.4441  1.0216
 9782TIP3   OH250836   1.806   1.092   6.693 -0.2775  0.0684  0.1818
 9782TIP3    H150837   1.868   1.164   6.687  0.8655 -0.8787  0.3128
 9782TIP3    H250838   1.860   1.013   6.681 -1.3451 -0.8007  0.9555
 9783TIP3   OH250839   5.583   3.149   2.927  0.1049 -0.9221 -0.1834
 9783TIP3    H150840   5.599   3.220   2.866  1.2949  1.2589  2.5671
 9783TIP3    H250841   5.619   3.180   3.010 -1.7848 -3.6167  1.7324
 9784TIP3   OH250842   1.009   3.645   4.671  0.0597  0.1318 -0.0929
 9784TIP3    H150843   0.915   3.632   4.683 -0.4022  1.7546 -1.7410
 9784TIP3    H250844   1.044   3.649   4.760 -1.6387  1.0124  0.5563
 9785TIP3   OH250845   5.516   5.596   0.407 -0.0342  0.1085  0.1092
 9785TIP3    H150846   5.492   5.688   0.395 -0.4675 -0.0886 -0.5188
 9785TIP3    H250847   5.546   5.567   0.321 -0.5481 -0.5298  0.1465
 9786TIP3   OH250848   1.962   5.271  11.703 -0.4234  0.3630 -0.0477
 9786TIP3    H150849   1.935   5.183  11.678  0.2006 -0.3639  1.8174
 9786TIP3    H250850   2.057   5.269  11.699 -0.4101  0.9771 -0.0529
 9787TIP3   OH250851   5.561   3.009  10.723 -0.3174  0.2314 -0.4931
 9787TIP3    H150852   5.513   3.010  10.640 -1.3762 -2.2311  0.0382
 9787TIP3    H250853   5.497   3.037  10.788 -0.0457  0.2559 -0.2358
 9788TIP3   OH250854   2.816   4.288   2.376  0.0971 -0.2835  0.3101
 9788TIP3    H150855   2.810   4.361   2.316  0.4037 -0.4225  0.1111
 9788TIP3    H250856   2.829   4.328   2.462  1.3997 -0.1430  0.0467
 9789TIP3   OH250857   4.253   6.384  11.044 -0.2302 -0.0260 -0.0247
 9789TIP3    H150858   4.270   6.370  10.950 -2.6818  2.4435 -0.9211
 9789TIP3    H250859   4.340   6.381  11.085  1.0481  0.2121 -2.5968
 9790TIP3   OH250860   1.334   0.842  15.031 -0.3650 -0.7314  0.0876
 9790TIP3    H150861   1.390   0.773  15.067 -0.0376 -0.0811  0.8261
 9790TIP3    H250862   1.255   0.839  15.084 -0.7708 -1.2043 -0.5297
 9791TIP3   OH250863   3.448   2.354  15.804  0.2230  0.0346 -0.0221
 9791TIP3    H150864   3.364   2.319  15.836  0.3948 -1.1939 -0.8947
 9791TIP3    H250865   3.469   2.424  15.866 -2.3189  1.5789 -0.8051
 9792TIP3   OH250866   3.668   5.483  13.865 -0.0305 -0.2642  0.3444
 9792TIP3    H150867   3.757   5.512  13.883 -0.1101 -0.5266  1.1352
 9792TIP3    H250868   3.628   5.470  13.951 -1.6867  2.4578  0.0480
 9793TIP3   OH250869   2.833   4.912   3.338  0.2948 -0.0777 -0.4083
 9793TIP3    H150870   2.774   4.958   3.279 -0.1676 -0.2607 -0.0883
 9793TIP3    H250871   2.800   4.931   3.426 -0.0481 -1.2072 -0.2782
 9794TIP3   OH250872   1.947   2.460  12.178 -0.1719  0.6902  0.5548
 9794TIP3    H150873   1.952   2.526  12.248  2.9187  1.2665 -0.1481
 9794TIP3    H250874   1.877   2.492  12.121  0.4351  2.7317  0.8976
 9795TIP3   OH250875   4.065   0.091  12.972 -0.1913 -0.4983 -0.9489
 9795TIP3    H150876   4.033   0.163  12.917  0.4397  0.9406  0.5466
 9795TIP3    H250877   4.160   0.099  12.969 -0.1415 -0.6361  0.0437
 9796TIP3   OH250878   4.024   1.963  12.464  0.0176  0.1472 -0.6457
 9796TIP3    H150879   3.955   1.970  12.398  0.2256 -1.2845 -1.0412
 9796TIP3    H250880   4.005   1.881  12.510  0.8068  0.3149 -0.0111
 9797TIP3   OH250881   1.496   1.316   2.394 -0.4383  0.2411 -0.8404
 9797TIP3    H150882   1.425   1.253   2.392  0.1832 -0.4642 -1.0600
 9797TIP3    H250883   1.573   1.267   2.364  0.6421  0.3647  1.6483
 9798TIP3   OH250884   0.582   3.937   1.677  0.0144 -0.1192 -0.1805
 9798TIP3    H150885   0.630   3.861   1.644  0.7459  0.1410  0.2823
 9798TIP3    H250886   0.498   3.901   1.706  0.7962 -0.9592  1.1247
 9799TIP3   OH250887   5.838   6.720   2.448  0.7220 -0.1134 -0.0069
 9799TIP3    H150888   5.900   6.763   2.390 -1.0658 -0.3272 -2.1462
 9799TIP3    H250889   5.803   6.790   2.503  2.3418  0.1051  0.7805
 9800TIP3   OH250890   6.389   1.086  16.036  0.4173  0.1928  0.1056
 9800TIP3    H150891   6.457   1.052  16.095 -1.3019 -0.6730  1.6323
 9800TIP3    H250892   6.340   1.148  16.090  1.5075  2.7053 -1.7138
 9801TIP3   OH250893   5.830   2.419   3.821 -1.5854  0.0386  0.1842
 9801TIP3    H150894   5.786   2.457   3.898 -0.4859  3.4573 -0.7767
 9801TIP3    H250895   5.806   2.477   3.749 -0.4013 -1.5738 -1.5431
 9802TIP3   OH250896   0.419   3.876   4.342 -0.1337 -0.1069  0.2173
 9802TIP3    H150897   0.340   3.840   4.383 -0.6251 -0.0077 -0.6463
 9802TIP3    H250898   0.392   3.960   4.306  0.6638  0.4723  0.9544
 9803TIP3   OH250899   1.771   6.221  15.124  0.0482 -0.2203 -0.5039
 9803TIP3    H150900   1.681   6.194  15.141  0.1114  0.8586  1.6354
 9803TIP3    H250901   1.768   6.316  15.123  1.2047 -0.1734 -0.1850
 9804TIP3   OH250902   3.927   0.688  11.146 -0.3240 -0.3510 -0.0169
 9804TIP3    H150903   3.984   0.684  11.069  1.3245 -0.3374  1.1736
 9804TIP3    H250904   3.839   0.697  11.111  0.4655  0.1886 -1.8889
 9805TIP3   OH250905   2.618   6.500  16.130  0.1947 -0.0494 -0.3352
 9805TIP3    H150906   2.647   6.492  16.221  0.3225 -0.0837 -0.3801
 9805TIP3    H250907   2.667   6.576  16.097  1.5913 -1.1937 -0.9334
 9806TIP3   OH250908   1.581   0.286   0.217  0.1337  0.1685  0.1126
 9806TIP3    H150909   1.651   0.348   0.197 -0.7463  1.3424  0.5823
 9806TIP3    H250910   1.568   0.237   0.137  0.0233  1.4243 -0.6549
 9807TIP3   OH250911   1.568   1.828  13.063 -0.0547 -0.1143 -0.3326
 9807TIP3    H150912   1.582   1.795  13.152  2.0868 -0.1695 -0.6792
 9807TIP3    H250913   1.524   1.912  13.076  1.0399  0.2990  0.8141
 9808TIP3   OH250914   1.308   5.234  12.858  0.4007 -0.9593  1.0363
 9808TIP3    H150915   1.270   5.156  12.898 -0.1633 -2.0104 -1.4172
 9808TIP3    H250916   1.233   5.286  12.830  0.7778  0.1787  2.1434
 9809TIP3   OH250917   5.883   5.506  11.035 -0.0791  0.5493  0.3542
 9809TIP3    H150918   5.799   5.512  10.990  0.0500  0.9983  0.1776
 9809TIP3    H250919   5.948   5.534  10.971  0.2792 -0.4355  0.2746
 9810TIP3   OH250920   4.927   5.004   4.343 -0.3265 -0.8960  0.2901
 9810TIP3    H150921   4.901   5.003   4.435 -0.4567  0.6330  0.2885
 9810TIP3    H250922   4.960   5.093   4.329 -0.2519 -1.1409 -1.1220
 9811TIP3   OH250923   3.815   4.337  14.403 -0.0631 -0.4777 -0.2980
 9811TIP3    H150924   3.758   4.275  14.449  0.0852 -0.0329  0.5017
 9811TIP3    H250925   3.760   4.372  14.333 -1.4985  1.5322  1.7624
 9812TIP3   OH250926   0.704   3.922   4.558  0.2365 -0.0952 -0.3942
 9812TIP3    H150927   0.789   3.927   4.514  1.2509 -3.0415  1.0865
 9812TIP3    H250928   0.648   3.983   4.510  2.6443  0.4302 -2.6256
 9813TIP3   OH250929   1.074   3.316  16.719  0.0534 -0.3287 -0.1850
 9813TIP3    H150930   1.122   3.285  16.795  0.4574 -0.9024 -0.6688
 9813TIP3    H250931   1.014   3.382  16.753  0.9468  0.1496  0.4751
 9814TIP3   OH250932   4.782   4.764   5.168  0.3249 -0.7104 -0.0389
 9814TIP3    H150933   4.748   4.789   5.082  0.4078 -0.6676 -0.0594
 9814TIP3    H250934   4.858   4.822   5.181 -1.1632  1.0098  1.1531
 9815TIP3   OH250935   5.994   0.295  14.688  0.0737  0.2497 -0.2181
 9815TIP3    H150936   5.935   0.364  14.658 -0.9654  0.3316  1.9511
 9815TIP3    H250937   6.053   0.338  14.750  1.1239 -0.2712 -0.8302
 9816TIP3   OH250938   2.550   0.969   3.530 -0.6596  0.3079  0.6194
 9816TIP3    H150939   2.483   0.958   3.597  0.2203 -1.1620  1.2891
 9816TIP3    H250940   2.557   0.883   3.488 -0.8217  1.0749 -0.9892
 9817TIP3   OH250941   4.952   5.494   3.689 -0.2348 -0.1095 -0.0927
 9817TIP3    H150942   5.042   5.525   3.701 -1.4711  2.9419  1.9052
 9817TIP3    H250943   4.907   5.566   3.644 -1.6267 -1.7376 -1.3992
 9818TIP3   OH250944   3.590   1.883   5.230  0.9123  0.4381  0.6342
 9818TIP3    H150945   3.529   1.812   5.207  1.2577  0.6492 -0.9899
 9818TIP3    H250946   3.661   1.838   5.277  1.5041 -0.4378 -1.0401
 9819TIP3   OH250947   5.414   5.196  15.626  0.3960 -0.4770  0.5282
 9819TIP3    H150948   5.360   5.142  15.684 -0.0088 -0.0935  0.5114
 9819TIP3    H250949   5.486   5.138  15.600 -2.2890 -2.5061 -2.9895
 9820TIP3   OH250950   0.193   3.665   2.976 -0.6062  0.2605 -0.2562
 9820TIP3    H150951   0.204   3.707   3.061  1.8134  1.6135 -1.2204
 9820TIP3    H250952   0.251   3.589   2.978  0.5831  1.1241 -1.2241
 9821TIP3   OH250953   0.278   3.045   0.481  0.2281 -0.0606 -0.0017
 9821TIP3    H150954   0.369   3.062   0.457  0.4221 -1.1266 -0.0530
 9821TIP3    H250955   0.240   3.006   0.403 -0.1743  0.0505  0.1398
 9822TIP3   OH250956   6.376   4.568  13.680 -0.3119 -0.0387 -0.0887
 9822TIP3    H150957   6.457   4.588  13.633  2.0050 -1.5324  3.0212
 9822TIP3    H250958   6.338   4.495  13.632  0.8419 -0.1062 -0.9263
 9823TIP3   OH250959   4.751   1.541   5.095  0.5861  0.0078 -0.4992
 9823TIP3    H150960   4.824   1.480   5.094 -0.3530 -1.1643  1.0236
 9823TIP3    H250961   4.699   1.517   5.018  2.0214  1.1911 -1.9022
 9824TIP3   OH250962   3.174   1.952   1.757 -0.0782 -0.2989  1.0409
 9824TIP3    H150963   3.222   2.035   1.753  0.2959 -0.5701 -0.5523
 9824TIP3    H250964   3.201   1.906   1.678  1.0111 -2.6560  2.7538
 9825TIP3   OH250965   3.976   5.921   6.146 -0.1358  0.7407  0.4247
 9825TIP3    H150966   3.983   5.939   6.240 -0.9841  0.0017  0.6366
 9825TIP3    H250967   4.066   5.898   6.120 -0.5390 -2.9693  1.9094
 9826TIP3   OH250968   4.644   0.733  13.004  0.6100 -0.5053 -0.7431
 9826TIP3    H150969   4.738   0.743  12.989  0.8731 -2.0694 -0.2654
 9826TIP3    H250970   4.607   0.718  12.918  0.9469 -0.9346 -0.8141
 9827TIP3   OH250971   5.123   6.369  16.735  0.1455  0.3964 -0.5876
 9827TIP3    H150972   5.144   6.282  16.769 -0.6116  0.0102 -1.0929
 9827TIP3    H250973   5.031   6.383  16.759 -0.1792  0.4182 -1.8301
 9828TIP3   OH250974   0.144   0.157   3.983 -0.1766 -0.2546  0.0141
 9828TIP3    H150975   0.142   0.172   4.077 -0.9896  1.9629 -0.3224
 9828TIP3    H250976   0.056   0.126   3.962  0.8869 -3.8401  0.3850
 9829TIP3   OH250977   4.287   1.612   3.165  0.0001 -0.6212 -0.6480
 9829TIP3    H150978   4.255   1.552   3.233 -1.5785  0.6171 -0.2553
 9829TIP3    H250979   4.380   1.594   3.159 -0.1238 -1.8348  0.7737
 9830TIP3   OH250980   0.451   6.772   0.864 -0.0428  0.8286  0.3421
 9830TIP3    H150981   0.486   6.826   0.792  2.9240  0.4857  1.4353
 9830TIP3    H250982   0.471   6.822   0.943  1.1893 -1.0498  1.2495
 9831TIP3   OH250983   2.576   2.908   5.398  0.0797  0.3071 -0.2707
 9831TIP3    H150984   2.650   2.860   5.361 -0.3963 -1.1353  0.6177
 9831TIP3    H250985   2.603   3.000   5.393  1.3094 -0.0803 -1.3073
 9832TIP3   OH250986   2.179   3.952   0.835 -0.6675 -0.8185  0.3600
 9832TIP3    H150987   2.185   3.876   0.777  2.4958 -0.7208  0.4661
 9832TIP3    H250988   2.163   3.915   0.921 -0.4661 -1.2848  0.1985
 9833TIP3   OH250989   0.348   1.983  13.972 -0.3565 -0.0527  0.1434
 9833TIP3    H150990   0.420   2.014  13.917 -0.7885 -0.3461 -0.5988
 9833TIP3    H250991   0.333   2.055  14.033  1.5715 -0.5984  1.3094
 9834TIP3   OH250992   3.736   2.822   1.271  0.0281 -0.2621 -0.2445
 9834TIP3    H150993   3.801   2.843   1.338  1.0948 -1.9775 -0.7361
 9834TIP3    H250994   3.658   2.871   1.298  1.5739  2.0446  0.1874
 9835TIP3   OH250995   5.862   1.635  11.588  0.2217  0.0678 -0.1061
 9835TIP3    H150996   5.856   1.674  11.675  0.7229 -0.6224  0.2375
 9835TIP3    H250997   5.931   1.569  11.595 -1.5489 -1.8869 -0.2796
 9836TIP3   OH250998   3.922   1.222   3.349  0.1953  0.1880 -0.2231
 9836TIP3    H150999   3.836   1.229   3.309 -0.4933 -0.1015  1.2072
 9836TIP3    H251000   3.919   1.143   3.402  0.8188  0.9915  1.0505
 9837TIP3   OH251001   4.106   5.978   4.535  0.0628 -0.0827  0.7202
 9837TIP3    H151002   4.130   6.070   4.533 -1.1488  0.2238 -1.0177
 9837TIP3    H251003   4.134   5.944   4.450  1.7329 -1.6635  1.8573
 9838TIP3   OH251004   1.143   1.861   4.968 -0.0935  0.4230  0.1748
 9838TIP3    H151005   1.094   1.789   4.928  0.5031  0.9533 -1.5731
 9838TIP3    H251006   1.076   1.924   4.994 -0.4534  0.5074 -0.9035
 9839TIP3   OH251007   5.016   3.174  12.090  0.6949 -0.3056 -0.1405
 9839TIP3    H151008   4.964   3.151  12.013  1.1197  1.1340 -0.8751
 9839TIP3    H251009   5.106   3.177  12.057  0.7889  1.0950  0.2182
 9840TIP3   OH251010   6.080   3.081   2.586  0.6041 -0.1838  0.2692
 9840TIP3    H151011   6.161   3.131   2.577  1.1234 -0.9304  0.7731
 9840TIP3    H251012   6.039   3.116   2.665  0.0681  0.6940 -0.3822
 9841TIP3   OH251013   4.185   1.206   1.922  0.1694 -0.0047 -0.6588
 9841TIP3    H151014   4.198   1.112   1.934 -1.1682 -0.6214 -3.4157
 9841TIP3    H251015   4.271   1.240   1.897  0.6566 -0.4823  0.3476
 9842TIP3   OH251016   3.619   0.568   3.503  0.0446  0.0832  0.3435
 9842TIP3    H151017   3.602   0.589   3.411 -0.9712 -0.4339  0.3976
 9842TIP3    H251018   3.532   0.550   3.539  0.6061 -1.3712  0.9916
 9843TIP3   OH251019   4.947   2.900   0.613  0.8875 -0.1077 -0.1220
 9843TIP3    H151020   4.954   2.982   0.564 -0.1377  0.3350  0.4694
 9843TIP3    H251021   4.856   2.897   0.643  1.2856 -0.7909  1.0455
 9844TIP3   OH251022   1.681   6.698   6.295 -0.3939  0.2241 -0.0393
 9844TIP3    H151023   1.725   6.625   6.253  0.1988  0.4351  0.2131
 9844TIP3    H251024   1.746   6.769   6.296 -1.5405  1.3308 -1.9042
 9845TIP3   OH251025   6.683   4.573  13.770  0.3352  0.6309 -0.9630
 9845TIP3    H151026   6.744   4.516  13.816 -0.5382  0.2524 -0.2504
 9845TIP3    H251027   6.647   4.519  13.699  0.1191  0.5547 -0.7946
 9846TIP3   OH251028   2.694   3.632   3.839  0.3772 -0.0526  0.6500
 9846TIP3    H151029   2.627   3.697   3.860 -0.6687 -0.5484 -1.0054
 9846TIP3    H251030   2.645   3.552   3.819  1.4771 -0.5467 -0.1799
 9847TIP3   OH251031   1.693   2.648   0.986 -0.4508 -0.2782  0.6320
 9847TIP3    H151032   1.689   2.585   0.914  1.0843 -1.4633  1.5593
 9847TIP3    H251033   1.601   2.666   1.008 -0.9059 -1.3792 -0.3423
 9848TIP3   OH251034   1.168   1.585   4.917  0.3459  0.2175  0.9081
 9848TIP3    H151035   1.242   1.610   4.972 -0.1540  2.3905  0.6392
 9848TIP3    H251036   1.199   1.597   4.828 -0.4469  1.5449  0.8004
 9849TIP3   OH251037   6.333   4.051  15.715 -0.3326 -0.2304  0.2771
 9849TIP3    H151038   6.415   4.095  15.693  0.7610 -1.1279  2.3228
 9849TIP3    H251039   6.297   4.102  15.788  0.6079 -2.2180  2.2179
 9850TIP3   OH251040   0.148   2.630   4.778  0.2402  0.4285  0.2229
 9850TIP3    H151041   0.160   2.542   4.743 -1.0976  0.9827 -1.7515
 9850TIP3    H251042   0.179   2.625   4.869  0.0556 -2.0970  0.1796
 9851TIP3   OH251043   2.175   5.208   0.939  0.1219 -0.3146  0.5098
 9851TIP3    H151044   2.237   5.154   0.890 -0.4342 -0.2416 -0.2787
 9851TIP3    H251045   2.113   5.240   0.873 -0.8385 -0.5039  1.3101
 9852TIP3   OH251046   4.866   4.308   3.180  0.2401 -0.2307 -0.8031
 9852TIP3    H151047   4.887   4.396   3.147 -0.6329 -0.6398 -2.4978
 9852TIP3    H251048   4.949   4.276   3.216  0.7117  1.0468 -0.7189
 9853TIP3   OH251049   2.466   5.164   0.101 -0.1689 -0.6123 -0.2225
 9853TIP3    H151050   2.470   5.132   0.191 -0.7341  1.1275  0.4620
 9853TIP3    H251051   2.518   5.103   0.050  2.4543 -0.1045  1.7724
 9854TIP3   OH251052   0.973   5.046  12.374  0.1218  0.0848 -0.0293
 9854TIP3    H151053   1.048   4.999  12.411  1.0476  2.1961  0.8786
 9854TIP3    H251054   0.945   4.992  12.301  0.9360 -2.0254  1.1758
 9855TIP3   OH251055   6.230   4.621  14.220  0.0564 -0.3945 -0.0900
 9855TIP3    H151056   6.270   4.708  14.219 -1.3531  0.2883  0.2656
 9855TIP3    H251057   6.267   4.578  14.297  1.4566 -0.4695 -0.7865
 9856TIP3   OH251058   1.977   3.689   0.937  0.2837 -0.3638  0.4245
 9856TIP3    H151059   2.026   3.628   0.881  1.2548 -0.0225  0.8925
 9856TIP3    H251060   2.044   3.733   0.989 -0.4667  0.6583  0.5408
 9857TIP3   OH251061   3.091   3.274  16.726  0.6292  0.3758 -0.1810
 9857TIP3    H151062   3.156   3.204  16.738  0.9431  0.8693  1.1291
 9857TIP3    H251063   3.007   3.229  16.730  0.8507 -0.0322 -0.0452
 9858TIP3   OH251064   6.290   1.176  16.842 -0.5745  0.2036 -0.0183
 9858TIP3    H151065   6.369   1.180  16.896  0.0884  0.2885 -0.9922
 9858TIP3    H251066   6.221   1.212  16.899  0.4362  1.8725  0.2091
 9859TIP3   OH251067   5.543   5.218   3.987  0.4772  1.1344 -0.2729
 9859TIP3    H151068   5.499   5.290   4.033  1.1834  0.0020  2.2870
 9859TIP3    H251069   5.581   5.258   3.909  1.4629  3.7118  1.4663
 9860TIP3   OH251070   0.564   2.156  11.345  0.2618 -0.3263  0.3309
 9860TIP3    H151071   0.480   2.118  11.370 -1.2221  1.3970 -1.9050
 9860TIP3    H251072   0.591   2.208  11.420 -2.4675  2.0314 -0.2490
 9861TIP3   OH251073   0.267   5.412   5.714  0.4910  0.2438  0.0314
 9861TIP3    H151074   0.248   5.365   5.795 -0.4377  0.4687 -0.0536
 9861TIP3    H251075   0.302   5.496   5.743  0.3140  0.2612  0.2004
 9862TIP3   OH251076   4.301   0.569  14.866  0.1316  0.6144  0.3094
 9862TIP3    H151077   4.310   0.557  14.772  0.0208  0.9942  0.2498
 9862TIP3    H251078   4.365   0.509  14.905  0.5179  0.8144 -0.0210
 9863TIP3   OH251079   4.817   0.277   2.260  0.6992 -0.7932  0.6537
 9863TIP3    H151080   4.878   0.256   2.189  1.2239 -0.5676  1.0339
 9863TIP3    H251081   4.873   0.284   2.337  0.8040  3.4356  0.3144
 9864TIP3   OH251082   3.946   0.041   5.681 -0.2362 -0.0535  0.4466
 9864TIP3    H151083   4.028   0.061   5.725  1.8946 -1.7459 -2.5405
 9864TIP3    H251084   3.884   0.104   5.716  2.6180  2.0527  1.9382
 9865TIP3   OH251085   6.774   1.940   4.359  0.5746 -0.0789  0.9470
 9865TIP3    H151086   6.698   1.883   4.364 -0.7636  1.2865 -2.1767
 9865TIP3    H251087   6.818   1.916   4.278  1.3990  1.5932  0.8573
 9866TIP3   OH251088   3.666   0.269   1.320 -0.0901  0.6142  0.0461
 9866TIP3    H151089   3.728   0.302   1.386 -0.2522  0.5490  0.2300
 9866TIP3    H251090   3.715   0.275   1.237  0.0458  0.8762  0.1423
 9867TIP3   OH251091   1.315   1.597   5.550  0.4124  0.0031  0.6510
 9867TIP3    H151092   1.314   1.688   5.580 -2.3269  0.9081 -1.9360
 9867TIP3    H251093   1.242   1.556   5.595  1.2332 -0.7594  1.3040
 9868TIP3   OH251094   2.971   1.063   1.607  0.6025  0.4902  0.0578
 9868TIP3    H151095   2.909   1.135   1.591 -1.4835 -1.2090  0.3880
 9868TIP3    H251096   3.037   1.074   1.538 -1.0139  1.2758 -1.4011
 9869TIP3   OH251097   0.118   3.158  13.404 -0.1842  0.4843 -0.1212
 9869TIP3    H151098   0.172   3.082  13.380 -1.9639 -0.9032  0.1156
 9869TIP3    H251099   0.156   3.190  13.485 -0.6509 -1.4522  0.8878
 9870TIP3   OH251100   2.326   3.706  15.121 -0.5626  0.0555  0.3517
 9870TIP3    H151101   2.390   3.667  15.061 -0.5561  0.5819  0.0149
 9870TIP3    H251102   2.329   3.650  15.199 -0.4657 -0.5448 -0.0795
 9871TIP3   OH251103   5.656   1.375  15.401  0.1274  0.4201  0.6110
 9871TIP3    H151104   5.566   1.361  15.370  0.2712  2.3061 -0.7935
 9871TIP3    H251105   5.710   1.329  15.337  0.3077  2.2836 -0.6142
 9872TIP3   OH251106   5.771   0.413  14.967  0.3512 -0.3367 -0.1501
 9872TIP3    H151107   5.780   0.402  15.062  1.2386  2.5760  0.1448
 9872TIP3    H251108   5.678   0.396  14.950  0.0766 -0.3946  1.3071
 9873TIP3   OH251109   0.402   1.595  16.183 -0.6578 -0.2419  0.1314
 9873TIP3    H151110   0.321   1.642  16.201 -0.1017  1.3589 -1.4271
 9873TIP3    H251111   0.411   1.597  16.088  2.7362  2.2956  0.4286
 9874TIP3   OH251112   4.451   3.598   2.440  0.2564 -0.0220  0.0714
 9874TIP3    H151113   4.428   3.515   2.483  0.3255  0.3478  0.8241
 9874TIP3    H251114   4.533   3.625   2.481 -0.9479  1.5920  1.4876
 9875TIP3   OH251115   2.018   0.733   3.491  0.1850 -0.1471 -0.0633
 9875TIP3    H151116   2.095   0.718   3.436  0.0456 -1.2493  0.0260
 9875TIP3    H251117   1.948   0.755   3.430  0.4166  0.2194 -0.1979
 9876TIP3   OH251118   1.791   5.924   5.120  0.1265 -0.0207 -0.2466
 9876TIP3    H151119   1.698   5.945   5.130  0.1865  0.4807 -0.7305
 9876TIP3    H251120   1.812   5.951   5.031  0.5135 -0.9788 -0.4580
 9877TIP3   OH251121   4.845   0.245   4.754  0.1871 -0.4627 -0.6356
 9877TIP3    H151122   4.768   0.188   4.751 -1.4143  1.4500  1.9244
 9877TIP3    H251123   4.818   0.325   4.709  1.5002 -0.6653 -1.8134
 9878TIP3   OH251124   2.602   3.210   1.961 -0.2829  0.1502  0.1234
 9878TIP3    H151125   2.568   3.283   1.910 -1.3461 -0.2522  0.2236
 9878TIP3    H251126   2.682   3.243   2.001 -1.8063  1.9062  1.7843
 9879TIP3   OH251127   2.119   0.756   5.677 -0.0553 -0.4077  0.2356
 9879TIP3    H151128   2.044   0.756   5.617  1.0272 -0.1453 -1.1332
 9879TIP3    H251129   2.185   0.703   5.633  1.2433  0.8929  0.5893
 9880TIP3   OH251130   6.621   4.088  12.288  0.9537  0.3257 -0.0604
 9880TIP3    H151131   6.592   4.089  12.197 -0.8300 -0.3245  0.4720
 9880TIP3    H251132   6.548   4.126  12.337  1.6812  0.1990  1.1526
 9881TIP3   OH251133   2.724   5.161   5.280  0.2917 -0.0819  0.1840
 9881TIP3    H151134   2.679   5.095   5.332  0.9818 -0.1637  0.6774
 9881TIP3    H251135   2.703   5.244   5.323 -0.2292 -0.0156 -0.1894
 9882TIP3   OH251136   4.353   4.743   4.883 -0.6645  0.1311 -0.3936
 9882TIP3    H151137   4.421   4.675   4.883  1.0003  1.7691 -2.1139
 9882TIP3    H251138   4.352   4.775   4.973 -0.9748 -1.6545  0.2708
 9883TIP3   OH251139   2.933   2.214   1.904  0.3206 -0.4119  0.2512
 9883TIP3    H151140   2.959   2.282   1.841  1.1895  0.0008  1.0281
 9883TIP3    H251141   2.931   2.134   1.852  2.5972 -0.3532 -0.0006
 9884TIP3   OH251142   4.280   5.527  14.926  0.5959  0.1036  0.3771
 9884TIP3    H151143   4.221   5.602  14.913  0.4744 -0.2235 -1.0527
 9884TIP3    H251144   4.259   5.495  15.014 -1.6734 -0.2528 -0.2565
 9885TIP3   OH251145   2.619   5.410   0.130  0.1873 -0.1144 -0.3449
 9885TIP3    H151146   2.557   5.337   0.130  0.0078 -0.0667  3.7920
 9885TIP3    H251147   2.705   5.368   0.124  0.1676 -0.9078  3.3261
 9886TIP3   OH251148   3.268   1.177   2.724 -0.6075 -0.2665 -0.0532
 9886TIP3    H151149   3.174   1.164   2.715 -0.5424 -0.9286  0.2437
 9886TIP3    H251150   3.302   1.169   2.634 -0.9602  1.0158 -0.3102
 9887TIP3   OH251151   5.255   6.723  16.269 -0.4548  0.2111 -0.0689
 9887TIP3    H151152   5.244   6.630  16.287 -2.3110  0.0466 -1.8936
 9887TIP3    H251153   5.204   6.767  16.337 -0.0620 -0.1006  0.4352
 9888TIP3   OH251154   5.321   6.353   3.276  0.0380  0.2631 -0.5924
 9888TIP3    H151155   5.301   6.278   3.220  1.0082  1.6461 -2.8608
 9888TIP3    H251156   5.335   6.315   3.363 -0.5789 -2.0511 -1.4706
 9889TIP3   OH251157   3.566   0.196  14.906  0.0991  0.3825 -0.0866
 9889TIP3    H151158   3.475   0.184  14.879 -0.3592 -0.5766  1.7223
 9889TIP3    H251159   3.607   0.110  14.891  0.6382  0.7329 -0.6407
 9890TIP3   OH251160   1.284   5.271  15.115  0.2718  0.1882  0.0164
 9890TIP3    H151161   1.317   5.212  15.047 -2.6063 -3.6075  1.7030
 9890TIP3    H251162   1.201   5.303  15.081 -0.4141 -0.4780  1.0323
 9891TIP3   OH251163   3.043   0.113   1.341  0.3453  0.2291  0.6242
 9891TIP3    H151164   2.992   0.175   1.289  1.1444 -0.1576 -0.6368
 9891TIP3    H251165   3.078   0.166   1.413  0.2270  1.0350  0.1008
 9892TIP3   OH251166   6.489   2.626   1.487  0.4020 -0.4326 -0.3838
 9892TIP3    H151167   6.434   2.692   1.445 -0.4724 -0.9465 -0.0421
 9892TIP3    H251168   6.563   2.676   1.522 -0.3902  0.4083  0.1070
 9893TIP3   OH251169   5.041   6.087  13.081  0.3603  0.0749  0.2346
 9893TIP3    H151170   4.996   6.005  13.098  1.0691 -0.2966  0.3281
 9893TIP3    H251171   4.997   6.122  13.003  0.6538 -0.8319 -0.3402
 9894TIP3   OH251172   5.974   2.397  16.873  0.6747  0.4744 -0.2877
 9894TIP3    H151173   5.995   2.389  16.966 -1.6662 -2.4154  0.0440
 9894TIP3    H251174   5.926   2.480  16.866  1.3116  0.9560  0.9701
 9895TIP3   OH251175   4.475   3.404  14.362  0.2314  0.2684  0.3862
 9895TIP3    H151176   4.434   3.321  14.337 -0.6977  0.4816  1.1900
 9895TIP3    H251177   4.405   3.468  14.353  0.9297  0.9603 -0.1519
 9896TIP3   OH251178   2.499   6.242   3.139  0.0316 -0.2772  0.5473
 9896TIP3    H151179   2.530   6.192   3.063  1.1104  0.0372  0.7695
 9896TIP3    H251180   2.499   6.333   3.109 -0.7052 -0.2737  0.5470
 9897TIP3   OH251181   2.128   6.616   1.090  0.1465  0.5484  0.1444
 9897TIP3    H151182   2.065   6.688   1.099  0.1137  0.3358  1.7141
 9897TIP3    H251183   2.081   6.549   1.041  0.1941  1.6077 -1.3869
 9898TIP3   OH251184   4.195   3.082  16.936  0.1844 -0.3562  0.0249
 9898TIP3    H151185   4.265   3.130  16.891 -1.0421 -1.1606 -2.8664
 9898TIP3    H251186   4.239   3.037  17.008  2.3886  0.3026 -0.8654
 9899TIP3   OH251187   4.070   4.922  11.478  0.1605 -0.5773 -0.0748
 9899TIP3    H151188   4.024   4.953  11.400 -2.1771 -1.3813  0.9520
 9899TIP3    H251189   4.154   4.890  11.445  0.1536  1.2491 -1.9322
 9900TIP3   OH251190   2.560   4.970  13.712  0.2657 -0.2798  0.3073
 9900TIP3    H151191   2.536   5.006  13.797  1.7692 -0.5123  0.8430
 9900TIP3    H251192   2.558   5.045  13.652 -0.7469 -0.1101  0.5354
 9901TIP3   OH251193   3.358   2.516   2.877  0.3085  0.7785  0.1980
 9901TIP3    H151194   3.297   2.586   2.853 -0.9267 -0.6755 -0.9875
 9901TIP3    H251195   3.304   2.453   2.925  0.8077 -0.6653 -1.1039
 9902TIP3   OH251196   4.518   0.177   1.401  0.0407  0.2582  0.3644
 9902TIP3    H151197   4.464   0.249   1.435 -0.8857 -0.2964  0.0990
 9902TIP3    H251198   4.467   0.098   1.422  0.4000 -0.2207 -0.5629
 9903TIP3   OH251199   0.464   5.604  15.934 -0.6007 -0.1521 -0.8855
 9903TIP3    H151200   0.535   5.551  15.898 -0.1331 -0.3539  0.3048
 9903TIP3    H251201   0.402   5.615  15.861  0.6001 -0.0487 -1.9112
 9904TIP3   OH251202   4.173   2.144  15.222  0.0544 -1.0093 -0.0857
 9904TIP3    H151203   4.145   2.054  15.239 -2.4630 -0.2665 -0.1145
 9904TIP3    H251204   4.092   2.193  15.210  1.3279  1.5409  1.2273
 9905TIP3   OH251205   1.119   4.711  11.547  0.2655  0.1194 -0.4959
 9905TIP3    H151206   1.092   4.798  11.579  0.7621  0.0552  0.0992
 9905TIP3    H251207   1.106   4.654  11.622  2.5599  0.1750 -0.0408
 9906TIP3   OH251208   4.936   3.226   3.847 -0.1360 -0.5786  0.3048
 9906TIP3    H151209   5.020   3.222   3.893 -0.7048 -1.7963  1.2541
 9906TIP3    H251210   4.893   3.304   3.882  0.4801 -0.0888 -0.0072
 9907TIP3   OH251211   5.277   6.618  14.466 -0.4518 -0.4648  0.7736
 9907TIP3    H151212   5.192   6.587  14.436  0.4503 -0.1267 -2.2680
 9907TIP3    H251213   5.330   6.539  14.475  0.2547 -0.3299 -1.8238
 9908TIP3   OH251214   1.968   0.700  14.758  0.2356  0.2993  0.5358
 9908TIP3    H151215   1.921   0.678  14.678  1.0439 -0.1494  0.1803
 9908TIP3    H251216   2.059   0.712  14.730  0.5697 -0.1228  1.4231
 9909TIP3   OH251217   0.181   4.378   5.992 -0.2338 -0.0963 -0.7244
 9909TIP3    H151218   0.160   4.416   5.906  1.1204  3.5686  0.4564
 9909TIP3    H251219   0.266   4.336   5.980  0.3288  1.0988 -1.0239
 9910TIP3   OH251220   1.383   1.666   3.504  0.4490 -0.4658  0.2571
 9910TIP3    H151221   1.420   1.640   3.588 -2.6289  2.1607  2.5549
 9910TIP3    H251222   1.299   1.620   3.499 -1.0290  2.0949  0.3906
 9911TIP3   OH251223   4.248   2.320   4.675  0.1412  0.7273  0.6817
 9911TIP3    H151224   4.304   2.248   4.648  2.1189  1.9704  1.4226
 9911TIP3    H251225   4.159   2.288   4.658  1.0099 -1.5425  0.1998
 9912TIP3   OH251226   1.201   4.829  11.158  0.1412 -0.5630 -0.2537
 9912TIP3    H151227   1.240   4.832  11.245  0.6147  2.5765 -0.4987
 9912TIP3    H251228   1.275   4.827  11.098 -0.1558 -1.0918 -0.6048
 9913TIP3   OH251229   6.611   6.111  16.828 -0.2966  0.5848 -0.0976
 9913TIP3    H151230   6.599   6.177  16.896 -0.3963 -0.2609  0.7088
 9913TIP3    H251231   6.669   6.046  16.867  0.8626  0.8519 -1.3491
 9914TIP3   OH251232   0.508   4.905  11.858 -0.2227  0.6183 -0.6915
 9914TIP3    H151233   0.416   4.896  11.833  0.0820 -0.1115 -1.5909
 9914TIP3    H251234   0.511   4.881  11.950 -0.6344 -1.2021 -1.1399
 9915TIP3   OH251235   1.294   6.349   3.632 -0.1018 -0.1361 -0.5082
 9915TIP3    H151236   1.217   6.303   3.598 -1.0906  0.3792  1.0146
 9915TIP3    H251237   1.301   6.427   3.577 -2.3119  1.2227  1.0697
 9916TIP3   OH251238   2.187   0.747   2.489 -0.7202  0.1174  0.0904
 9916TIP3    H151239   2.159   0.824   2.538 -0.2550  1.7042 -2.0452
 9916TIP3    H251240   2.209   0.781   2.402 -0.2496 -2.3922 -0.8116
 9917TIP3   OH251241   4.580   4.793   0.330  0.7867  0.0044 -0.0770
 9917TIP3    H151242   4.590   4.794   0.425 -2.1570 -1.3481  0.3007
 9917TIP3    H251243   4.633   4.719   0.300  2.2384  0.8358  0.4329
 9918TIP3   OH251244   4.180   5.659  11.209  0.0942  0.2179  0.7709
 9918TIP3    H151245   4.095   5.700  11.225  0.6752  1.9645 -0.4665
 9918TIP3    H251246   4.159   5.568  11.189 -1.3910  0.3569  1.6112
 9919TIP3   OH251247   3.160   1.634   1.924  0.8747 -0.0401  0.1979
 9919TIP3    H151248   3.066   1.651   1.936  0.3137 -2.3207 -0.6679
 9919TIP3    H251249   3.203   1.714   1.955 -1.3747  1.2663  0.0794
 9920TIP3   OH251250   5.574   0.021   4.873  0.4527 -0.4265 -0.3152
 9920TIP3    H151251   5.502  -0.040   4.890  0.9362 -1.2886 -1.3538
 9920TIP3    H251252   5.537   0.087   4.815  1.3670 -2.6920 -3.5816
 9921TIP3   OH251253   0.918   5.203  17.057  0.0125 -0.2688  0.0587
 9921TIP3    H151254   0.858   5.192  17.130 -1.2481 -0.7603 -1.0137
 9921TIP3    H251255   0.905   5.124  17.003  0.8992  0.0863 -0.6997
 9922TIP3   OH251256   5.923   1.092  16.089 -0.1192 -0.1831  0.2363
 9922TIP3    H151257   5.864   1.145  16.036 -0.9083 -0.4789  0.7986
 9922TIP3    H251258   5.988   1.059  16.027 -0.8501 -0.2762 -0.4888
 9923TIP3   OH251259   1.400   6.345  16.753 -0.3141  0.1259  0.9901
 9923TIP3    H151260   1.346   6.272  16.785  0.3303 -0.6078  0.4129
 9923TIP3    H251261   1.488   6.324  16.783 -0.0570  0.4530  0.4566
 9924TIP3   OH251262   4.366   3.904   3.096  0.4177  0.3593  0.3804
 9924TIP3    H151263   4.324   3.825   3.132  1.0190 -0.0953  0.1058
 9924TIP3    H251264   4.330   3.913   3.008  0.0599  0.6088  0.5557
 9925TIP3   OH251265   4.626   1.399   5.656  0.2654 -0.9264  0.0236
 9925TIP3    H151266   4.593   1.417   5.744  0.5239 -0.9320  0.1242
 9925TIP3    H251267   4.619   1.483   5.610  1.6286 -0.5020  0.5466
 9926TIP3   OH251268   1.166   5.291   2.258 -0.0457  0.7972  0.0884
 9926TIP3    H151269   1.145   5.380   2.285 -0.8747  0.4459  0.6038
 9926TIP3    H251270   1.226   5.302   2.183  1.9607  1.7838  1.7854
 9927TIP3   OH251271   2.685   0.404  12.452  0.0923 -0.2014 -0.0508
 9927TIP3    H151272   2.637   0.410  12.535  0.3931  2.1047  0.0092
 9927TIP3    H251273   2.618   0.407  12.384  0.0070  0.8922  0.0726
 9928TIP3   OH251274   2.293   0.211   2.109  0.1315  0.3244  0.4715
 9928TIP3    H151275   2.376   0.236   2.067 -0.4820 -0.3395 -1.1738
 9928TIP3    H251276   2.226   0.241   2.048 -0.7570 -1.3123  0.6263
 9929TIP3   OH251277   2.939   5.983  12.198  0.4096 -0.0196  0.3903
 9929TIP3    H151278   2.974   5.968  12.286 -2.2601 -0.4188  1.4266
 9929TIP3    H251279   2.860   6.035  12.211 -0.0140 -0.0397 -1.7800
 9930TIP3   OH251280   6.635   2.255  14.368 -0.0889 -0.1840  0.8210
 9930TIP3    H151281   6.609   2.241  14.277 -2.6692  0.7191  1.3972
 9930TIP3    H251282   6.620   2.348  14.384 -0.3391 -0.4783  2.3715
 9931TIP3   OH251283   0.157   2.180  14.327 -0.3804 -0.8179 -0.5291
 9931TIP3    H151284   0.094   2.251  14.314 -0.3610 -0.5843  0.6185
 9931TIP3    H251285   0.139   2.148  14.415 -0.2985 -2.1608 -0.9940
 9932TIP3   OH251286   3.846   5.719   3.025 -0.3989 -0.0868 -0.0378
 9932TIP3    H151287   3.893   5.739   2.945 -0.4193 -0.2684 -0.0969
 9932TIP3    H251288   3.909   5.734   3.095  0.4864 -2.5286 -0.2557
 9933TIP3   OH251289   4.135   5.723  15.754  0.0275 -0.6079  0.2887
 9933TIP3    H151290   4.216   5.688  15.716 -0.1335 -2.1979  1.3913
 9933TIP3    H251291   4.065   5.678  15.709 -0.2593  0.7150 -0.6079
 9934TIP3   OH251292   4.675   4.511   0.630  0.1039  0.1109  0.4644
 9934TIP3    H151293   4.641   4.425   0.655  0.9881 -0.1307  0.8572
 9934TIP3    H251294   4.746   4.491   0.569  0.7225  0.5370  1.0375
 9935TIP3   OH251295   0.232   1.747   3.416 -0.0273 -1.0152  0.2384
 9935TIP3    H151296   0.322   1.758   3.387  0.2191 -2.6102  0.3145
 9935TIP3    H251297   0.239   1.728   3.510 -0.3569 -2.1666  0.0397
 9936TIP3   OH251298   2.428   0.861  13.506 -0.3790 -0.0973  0.2294
 9936TIP3    H151299   2.479   0.939  13.485 -0.2375  0.3433  2.1489
 9936TIP3    H251300   2.466   0.792  13.450  1.1767  0.6148  0.3800
 9937TIP3   OH251301   3.538   6.613  11.348 -0.2019 -0.1844  0.5934
 9937TIP3    H151302   3.611   6.609  11.286 -1.3221 -0.1674 -0.7692
 9937TIP3    H251303   3.575   6.654  11.426  0.9786  0.8038 -0.4571
 9938TIP3   OH251304   2.624   6.745   2.087 -0.2260 -0.6901  0.2529
 9938TIP3    H151305   2.601   6.788   2.004  1.3380 -0.8847 -0.3033
 9938TIP3    H251306   2.573   6.792   2.153 -0.2774  0.5317 -0.6214
 9939TIP3   OH251307   0.520   2.691   3.931 -0.4196  0.1755 -0.2062
 9939TIP3    H151308   0.435   2.657   3.904 -1.2955  1.4866  0.8307
 9939TIP3    H251309   0.500   2.756   3.997  1.4650 -0.2229  0.7994
 9940TIP3   OH251310   5.892   2.670  10.806 -0.1423  0.3363  0.1500
 9940TIP3    H151311   5.899   2.645  10.898  1.0992 -1.1366 -0.3270
 9940TIP3    H251312   5.869   2.763  10.809 -4.0750 -0.5840  1.9646
 9941TIP3   OH251313   2.094   6.524   1.973  0.1530  0.2562 -0.0784
 9941TIP3    H151314   2.128   6.502   2.060  0.4384  0.9629 -0.0072
 9941TIP3    H251315   2.006   6.487   1.971  0.3787 -0.3032  0.2852
 9942TIP3   OH251316   4.117   3.077  17.277 -0.3363 -0.1144  0.3118
 9942TIP3    H151317   4.122   3.130  17.197  1.3610  1.3360  1.3358
 9942TIP3    H251318   4.208   3.061  17.301 -0.8320 -0.6275  1.8982
 9943TIP3   OH251319   2.395   1.186  13.104  0.0270  0.0231 -0.4296
 9943TIP3    H151320   2.305   1.175  13.135 -0.2731  1.7855 -0.6047
 9943TIP3    H251321   2.433   1.098  13.106 -1.4509 -0.6024  0.4188
 9944TIP3   OH251322   3.788   2.509   0.269 -0.5262  0.3246 -0.1513
 9944TIP3    H151323   3.781   2.415   0.254 -0.4569  0.1398  0.8944
 9944TIP3    H251324   3.819   2.545   0.186  1.4498 -0.8282  0.0483
 9945TIP3   OH251325   0.269   1.618   2.907  0.3867 -0.2080  0.1238
 9945TIP3    H151326   0.228   1.650   2.987 -0.0112  0.6128 -0.4083
 9945TIP3    H251327   0.196   1.586   2.853  0.3104  2.1503 -1.2330
 9946TIP3   OH251328   4.021   5.829  13.570 -0.1896 -0.0295 -0.4342
 9946TIP3    H151329   4.096   5.815  13.628  0.4695  1.1921 -0.9654
 9946TIP3    H251330   3.955   5.869  13.626  0.2264  0.5861 -0.3781
 9947TIP3   OH251331   0.353   1.771  14.260  0.0058 -0.2840 -0.0045
 9947TIP3    H151332   0.437   1.790  14.301  0.9906  1.0471 -2.5304
 9947TIP3    H251333   0.340   1.677  14.273  2.1529 -0.5942 -0.0417
 9948TIP3   OH251334   4.749   2.070   4.697  0.5173 -0.4382 -0.4613
 9948TIP3    H151335   4.702   2.133   4.752  0.9601 -0.9322  0.4855
 9948TIP3    H251336   4.759   2.114   4.613  1.9693  1.2663  0.5797
 9949TIP3   OH251337   0.779   4.905  10.658 -0.1073 -0.6060  0.2171
 9949TIP3    H151338   0.787   4.997  10.635  0.7247 -1.2533 -2.2275
 9949TIP3    H251339   0.738   4.864  10.582  0.0091 -2.3319  1.0457
 9950TIP3   OH251340   1.000   3.597  15.358  0.2292 -0.5983 -0.6100
 9950TIP3    H151341   0.976   3.520  15.306 -1.9280 -0.1895 -0.3028
 9950TIP3    H251342   0.918   3.647  15.365  1.5260  1.5945 -0.5789
 9951TIP3   OH251343   4.983   6.194   4.310  0.0143 -0.2827  0.3875
 9951TIP3    H151344   4.994   6.257   4.239  0.9682 -1.0292 -0.1364
 9951TIP3    H251345   4.918   6.234   4.368 -0.6606  0.3999 -0.8213
 9952TIP3   OH251346   0.071   4.312   6.806 -0.0243  0.3188 -0.0111
 9952TIP3    H151347  -0.003   4.334   6.748 -0.3285  1.1860  0.6879
 9952TIP3    H251348   0.036   4.245   6.864 -0.7788  1.8560  1.3567
 9953TIP3   OH251349   2.129   2.865  14.325  0.2072 -0.1766  0.2311
 9953TIP3    H151350   2.143   2.772  14.345 -1.4958 -0.5632 -0.3181
 9953TIP3    H251351   2.201   2.887  14.266  0.8247 -1.0467  0.6339
 9954TIP3   OH251352   1.299   4.555   6.193 -0.3326  0.0142  0.4882
 9954TIP3    H151353   1.282   4.645   6.221  0.6353 -0.3872  2.4403
 9954TIP3    H251354   1.330   4.563   6.103 -3.1841  1.3777 -0.4335
 9955TIP3   OH251355   5.406   5.729   2.494  0.9448 -0.2155  0.0933
 9955TIP3    H151356   5.366   5.781   2.425 -0.9039  2.2331  2.8704
 9955TIP3    H251357   5.493   5.767   2.505  1.5323 -1.1236 -1.4112
 9956TIP3   OH251358   0.683   3.269  14.534  1.1928  0.2501  0.0147
 9956TIP3    H151359   0.672   3.194  14.591  2.9324  0.1665  0.2830
 9956TIP3    H251360   0.646   3.343  14.583  0.7790 -0.1777  0.3496
 9957TIP3   OH251361   5.273   3.535  11.118 -0.2355 -0.4149  0.4118
 9957TIP3    H151362   5.300   3.516  11.208  1.1745 -0.2251  0.0505
 9957TIP3    H251363   5.195   3.589  11.127  0.0766 -0.1336  1.5282
 9958TIP3   OH251364   6.587   4.436  12.392 -0.5887  0.2903  0.5042
 9958TIP3    H151365   6.562   4.355  12.437  1.2968  1.0894  3.1197
 9958TIP3    H251366   6.682   4.426  12.377 -0.9564  0.5377 -2.3867
 9959TIP3   OH251367   1.503   5.513   2.486  0.0171  0.2230  0.0426
 9959TIP3    H151368   1.535   5.447   2.547 -0.3190 -0.0635 -0.0860
 9959TIP3    H251369   1.580   5.566   2.465  0.1758  0.1990  0.5556
 9960TIP3   OH251370   0.686   3.092  14.744 -0.2521 -0.2673  0.1119
 9960TIP3    H151371   0.637   3.011  14.731  1.6455 -1.3949 -0.2609
 9960TIP3    H251372   0.775   3.063  14.767  0.2449  1.7090  0.7809
 9961TIP3   OH251373   5.481   4.392  14.973  0.3118  0.2437  0.3272
 9961TIP3    H151374   5.525   4.471  15.006  0.7019 -0.6260  1.9312
 9961TIP3    H251375   5.388   4.407  14.992  0.2473  0.7884 -0.3804
 9962TIP3   OH251376   1.603   1.331  11.005 -0.5491 -0.5115 -0.2640
 9962TIP3    H151377   1.590   1.312  10.912 -1.5074 -1.2523  0.0100
 9962TIP3    H251378   1.624   1.245  11.043  0.2726 -0.1378  0.1312
 9963TIP3   OH251379   6.086   0.543  15.912  0.4530 -0.4333 -0.1307
 9963TIP3    H151380   6.056   0.554  16.002  1.2663 -0.6234  0.1679
 9963TIP3    H251381   6.089   0.632  15.877 -0.1265 -0.3845 -0.0569
 9964TIP3   OH251382   4.191   3.468   1.670  0.5419 -0.1984  0.0618
 9964TIP3    H151383   4.195   3.380   1.634 -0.1283  0.2852 -1.2101
 9964TIP3    H251384   4.278   3.505   1.655  0.7164 -0.5245  0.2856
 9965TIP3   OH251385   5.190   2.976  13.670 -0.2626 -0.9288  0.4641
 9965TIP3    H151386   5.228   3.064  13.663 -0.6701 -0.7401  0.6018
 9965TIP3    H251387   5.259   2.923  13.710 -0.2799 -0.5005  1.0633
 9966TIP3   OH251388   5.590   4.379  14.734 -0.0801  0.0342  0.0885
 9966TIP3    H151389   5.630   4.453  14.687  0.5973  1.0489  2.1865
 9966TIP3    H251390   5.572   4.414  14.821 -0.2167 -2.1452  0.9526
 9967TIP3   OH251391   1.665   4.376   5.164  0.0181  0.1254  0.2002
 9967TIP3    H151392   1.638   4.456   5.211 -0.6112 -0.1808  0.3625
 9967TIP3    H251393   1.740   4.404   5.111  0.9303  0.4050  1.6121
 9968TIP3   OH251394   0.357   6.168  11.227  0.0978  0.2230  0.5183
 9968TIP3    H151395   0.413   6.193  11.153 -0.2659 -0.3594  0.0364
 9968TIP3    H251396   0.270   6.202  11.204  0.2500  1.1480  1.2773
 9969TIP3   OH251397   1.452   1.741  15.527 -0.4623  0.2100  0.3688
 9969TIP3    H151398   1.380   1.684  15.500 -1.1920  1.3048 -0.0472
 9969TIP3    H251399   1.420   1.830  15.509  1.7528  0.6322 -1.7258
 9970TIP3   OH251400   1.924   6.251   0.539  0.3152  0.3228  0.0893
 9970TIP3    H151401   1.933   6.156   0.532  2.0550  0.5533 -1.5827
 9970TIP3    H251402   1.932   6.282   0.448 -0.4508  2.0423  0.5889
 9971TIP3   OH251403   6.446   2.770   4.114  0.6014 -0.2054  0.0413
 9971TIP3    H151404   6.483   2.810   4.193 -0.1655 -1.4616  1.0743
 9971TIP3    H251405   6.472   2.678   4.120  0.1404 -0.4073 -0.9381
 9972TIP3   OH251406   6.109   3.028   0.153 -0.0629 -0.4808 -0.0161
 9972TIP3    H151407   6.173   3.013   0.083  0.1443 -0.8039  0.2386
 9972TIP3    H251408   6.083   3.120   0.143 -1.1522 -0.9440 -1.4426
 9973TIP3   OH251409   5.343   1.360   4.399 -0.5108 -0.4770 -0.5370
 9973TIP3    H151410   5.348   1.455   4.412  2.6451 -0.5847 -0.6587
 9973TIP3    H251411   5.291   1.328   4.473  0.7554  1.0580  1.0475
 9974TIP3   OH251412   0.001   6.813  14.564 -0.1752  0.3375  0.7288
 9974TIP3    H151413   0.082   6.853  14.532 -0.6600  1.2048  0.5899
 9974TIP3    H251414   0.022   6.719  14.570  0.3952  0.3505 -0.7056
 9975TIP3   OH251415   1.960   6.115   4.591 -0.2417 -0.2516  0.3552
 9975TIP3    H151416   1.968   6.208   4.614  1.1324  0.0724 -1.3105
 9975TIP3    H251417   2.042   6.095   4.545 -0.1966 -2.4977  1.3542
 9976TIP3   OH251418   4.267   5.182  11.166 -0.1630 -0.1583 -0.2428
 9976TIP3    H151419   4.323   5.145  11.098 -0.2768 -0.5986 -0.0963
 9976TIP3    H251420   4.314   5.261  11.195  1.3097 -1.5018  1.1503
 9977TIP3   OH251421   4.789   1.069   2.629  0.8487  0.4173  0.0565
 9977TIP3    H151422   4.709   1.111   2.662  0.8147 -0.8238  1.5992
 9977TIP3    H251423   4.762   1.027   2.547  0.4086  1.6822 -0.4578
 9978TIP3   OH251424   1.059   4.070  13.932 -0.0006  0.3291 -0.8402
 9978TIP3    H151425   1.095   4.154  13.903 -1.9211  1.3138 -0.5333
 9978TIP3    H251426   1.036   4.024  13.851 -2.0050  1.5308 -0.9824
 9979TIP3   OH251427   4.358   3.907   1.810  0.2312 -0.3742 -0.2201
 9979TIP3    H151428   4.354   3.874   1.720  1.3395  0.1589 -0.4652
 9979TIP3    H251429   4.442   3.951   1.816 -0.2549  0.4284  0.7979
 9980TIP3   OH251430   6.383   6.616   0.031  0.1432  0.3333 -0.0704
 9980TIP3    H151431   6.358   6.526   0.008  1.4532  0.8783 -4.1584
 9980TIP3    H251432   6.441   6.607   0.106  0.3370 -2.2534 -0.4852
 9981TIP3   OH251433   6.140   5.738  15.561  0.6723 -0.1930 -0.3332
 9981TIP3    H151434   6.220   5.688  15.572  1.3043  1.3569  2.5962
 9981TIP3    H251435   6.168   5.822  15.524  0.2119 -0.2370 -0.7948
 9982TIP3   OH251436   6.192   5.834   1.659 -0.2848 -0.4706  0.0625
 9982TIP3    H151437   6.250   5.809   1.731  0.1267 -0.0769 -0.1333
 9982TIP3    H251438   6.243   5.818   1.580 -0.5755 -0.4738 -0.1259
 9983TIP3   OH251439   2.838   3.161   1.717 -0.9185 -0.0546 -0.6564
 9983TIP3    H151440   2.811   3.116   1.797 -0.0015 -0.1432 -0.3976
 9983TIP3    H251441   2.887   3.238   1.747 -0.6566 -0.0317 -1.1277
 9984TIP3   OH251442   5.557   2.611   1.896 -0.3661  0.1916  0.4705
 9984TIP3    H151443   5.580   2.531   1.849 -0.6614 -0.0551  0.7405
 9984TIP3    H251444   5.640   2.640   1.935 -0.1115  0.4392 -0.2588
 9985TIP3   OH251445   0.093   4.648  15.787  0.0369 -0.2764  0.4163
 9985TIP3    H151446   0.016   4.618  15.739 -0.5669  0.9572  0.5999
 9985TIP3    H251447   0.148   4.690  15.721 -0.5500  0.9486  0.6900
 9986TIP3   OH251448   1.811   5.411   3.885 -0.0916 -0.5527 -0.1327
 9986TIP3    H151449   1.733   5.410   3.830 -1.3034 -0.1685  1.5500
 9986TIP3    H251450   1.792   5.348   3.954  0.9954 -0.2523  0.4435
 9987TIP3   OH251451   6.590   3.745   0.000 -0.3207  0.3014 -0.0279
 9987TIP3    H151452   6.587   3.801  -0.077 -1.0715  0.8864  0.4127
 9987TIP3    H251453   6.555   3.661  -0.029  0.9239  0.0178 -0.7291
 9988TIP3   OH251454   4.437   0.811  14.463 -0.1597  0.0715  0.1587
 9988TIP3    H151455   4.523   0.841  14.434 -0.4864  0.7826 -0.0873
 9988TIP3    H251456   4.390   0.892  14.485 -1.2968 -0.2096 -1.1586
 9989TIP3   OH251457   5.991   6.125   2.804  0.1527  0.6887  0.4147
 9989TIP3    H151458   5.955   6.194   2.859  0.6694  1.3914 -0.1039
 9989TIP3    H251459   5.993   6.164   2.716 -1.6183 -0.7719 -0.3016
 9990TIP3   OH251460   0.432   0.047   0.088 -0.3740 -0.0312 -0.3038
 9990TIP3    H151461   0.458   0.127   0.044  0.3880 -0.5135 -0.7520
 9990TIP3    H251462   0.502  -0.015   0.067 -0.9151 -0.7843  0.1041
 9991TIP3   OH251463   0.352   0.262  12.905  0.2922 -0.0426 -0.1604
 9991TIP3    H151464   0.285   0.276  12.838  0.6776  2.4694 -0.0424
 9991TIP3    H251465   0.303   0.243  12.985 -0.1699 -3.4920 -1.1470
 9992TIP3   OH251466   5.723   6.452   4.102 -0.7290  0.0992  1.0693
 9992TIP3    H151467   5.742   6.491   4.017 -0.0050 -2.3429  0.0855
 9992TIP3    H251468   5.808   6.435   4.141 -1.0540  0.5025  1.9790
 9993TIP3   OH251469   2.006   2.378  10.659 -0.0113 -0.0081 -0.4620
 9993TIP3    H151470   2.035   2.396  10.569 -0.6644  2.2363 -0.2556
 9993TIP3    H251471   2.063   2.433  10.714  0.3991 -1.3879  0.5037
 9994TIP3   OH251472   6.813   6.461  14.273 -0.0652  0.2048 -0.2694
 9994TIP3    H151473   6.833   6.471  14.180 -0.2190  0.2865 -0.2938
 9994TIP3    H251474   6.718   6.455  14.277 -0.0982  0.8066 -0.0630
 9995TIP3   OH251475   5.012   2.285  15.806 -0.5036 -0.4181  0.3173
 9995TIP3    H151476   4.952   2.294  15.880 -0.3252  1.5462  0.2528
 9995TIP3    H251477   4.957   2.300  15.729 -0.3040 -0.5370  0.1520
 9996TIP3   OH251478   2.717   4.266  16.917 -0.1694 -0.2020 -0.6806
 9996TIP3    H151479   2.685   4.189  16.870 -2.3436  0.6087 -0.5708
 9996TIP3    H251480   2.742   4.327  16.848  0.7532 -0.6691 -0.7691
 9997TIP3   OH251481   0.622   3.645  14.094 -0.2357 -0.1617  0.6116
 9997TIP3    H151482   0.605   3.582  14.024  0.6993 -1.4256  1.4933
 9997TIP3    H251483   0.547   3.638  14.153 -1.3801  1.4324 -0.6154
 9998TIP3   OH251484   1.942   4.639  16.054 -0.5370  0.2091 -0.5796
 9998TIP3    H151485   1.935   4.543  16.050 -0.4167  0.1846 -0.2287
 9998TIP3    H251486   1.877   4.670  15.991  0.6901 -0.1388 -2.0608
 9999TIP3   OH251487   3.150   5.869  13.869  0.3408 -0.5552 -0.3522
 9999TIP3    H151488   3.192   5.853  13.784 -1.8572 -1.6928 -1.2592
 9999TIP3    H251489   3.109   5.786  13.892 -0.3092  0.1508  1.1389
10000TIP3   OH251490   2.762   6.183  11.981  0.2243 -0.1168  0.2276
10000TIP3    H151491   2.791   6.117  11.918  0.4737 -0.4196  0.6591
10000TIP3    H251492   2.842   6.212  12.025 -0.1171 -1.0203  1.4842
10001TIP3   OH251493   2.501   1.802   6.554  0.8746 -0.4340 -0.1303
10001TIP3    H151494   2.584   1.780   6.597  1.8909 -0.0898 -1.8848
10001TIP3    H251495   2.471   1.720   6.516  1.2779 -0.1883 -0.9716
10002TIP3   OH251496   6.093   3.022  12.094  0.0435 -0.2404 -0.0716
10002TIP3    H151497   6.176   3.015  12.142  0.8532 -1.1690 -1.5430
10002TIP3    H251498   6.025   3.020  12.161  1.1608 -1.0765  1.0457
10003TIP3   OH251499   4.707   2.874  12.102  0.2306  0.2306  0.3887
10003TIP3    H151500   4.706   2.933  12.026  1.6652 -1.9418 -1.3784
10003TIP3    H251501   4.704   2.933  12.177 -2.1719  2.4240 -1.3217
10004TIP3   OH251502   0.233   2.412   4.974  0.2191 -0.2474  0.0482
10004TIP3    H151503   0.255   2.441   5.062  0.2273  0.5931 -0.2265
10004TIP3    H251504   0.138   2.407   4.974  0.2911 -1.8234  0.5914
10005TIP3   OH251505   4.805   6.356   5.335  0.2354  0.1862 -0.1289
10005TIP3    H151506   4.868   6.371   5.265  0.1190 -0.2495 -0.3271
10005TIP3    H251507   4.851   6.299   5.397  0.3243  0.5370  0.1306
10006TIP3   OH251508   5.769   6.662   4.952 -0.4217 -0.1223  0.0037
10006TIP3    H151509   5.740   6.630   5.037 -1.0548 -1.4638 -0.7062
10006TIP3    H251510   5.707   6.731   4.930 -1.8167 -1.5056 -0.5153
10007TIP3   OH251511   6.334   2.873  14.420  0.2980  0.1413  0.0937
10007TIP3    H151512   6.362   2.962  14.445  1.3883  0.1119 -1.0010
10007TIP3    H251513   6.414   2.830  14.391 -0.0562 -1.5198  1.5081
10008TIP3   OH251514   0.610   0.776   0.017  0.1989  0.6023  0.0062
10008TIP3    H151515   0.618   0.841   0.087  0.0595  1.9697 -1.2311
10008TIP3    H251516   0.521   0.787  -0.016  0.0296 -0.5223  0.0765
10009TIP3   OH251517   6.594   2.258  13.690  0.1835  0.5527  0.3780
10009TIP3    H151518   6.661   2.269  13.757  0.5835  1.3047 -0.1263
10009TIP3    H251519   6.534   2.331  13.704  0.0785  0.5121  0.1383
10010TIP3   OH251520   6.549   3.233   5.148  0.3316 -0.2312  0.3730
10010TIP3    H151521   6.558   3.306   5.087 -0.8748 -1.2990 -1.1483
10010TIP3    H251522   6.635   3.223   5.188  0.5244  1.9616  0.5542
10011TIP3   OH251523   6.748   6.724   6.027 -0.2162  0.2734 -0.0956
10011TIP3    H151524   6.742   6.713   6.122  0.1020 -1.7413 -0.2800
10011TIP3    H251525   6.753   6.819   6.014  0.2548  0.5522  1.9275
10012TIP3   OH251526   4.045   3.179   0.492 -0.2814 -0.1334 -0.6320
10012TIP3    H151527   4.045   3.138   0.405  0.3686  1.3968 -1.3754
10012TIP3    H251528   3.993   3.259   0.481  0.3064  0.3798  0.2369
10013TIP3   OH251529   2.855   5.523  12.910  0.3046  0.1408 -0.6697
10013TIP3    H151530   2.888   5.546  12.997 -1.9031  0.0171  0.2647
10013TIP3    H251531   2.863   5.428  12.906  3.1445  0.4010 -1.8112
10014TIP3   OH251532   4.844   0.419  12.654  0.4235 -0.1256 -0.8507
10014TIP3    H151533   4.808   0.503  12.627  1.1907  0.5712  0.2563
10014TIP3    H251534   4.780   0.384  12.716  0.0936 -0.3744 -1.3287
10015TIP3   OH251535   3.276   4.824  15.465  0.2170  0.5100  0.5688
10015TIP3    H151536   3.222   4.805  15.542  0.5625 -2.1757  0.1991
10015TIP3    H251537   3.365   4.830  15.499  0.2471  0.2795  0.5361
10016TIP3   OH251538   0.777   0.549  15.364 -0.1717 -0.0964  0.2197
10016TIP3    H151539   0.755   0.470  15.412  0.9883 -0.2072  0.5949
10016TIP3    H251540   0.839   0.595  15.421 -0.8425  1.0814  0.0140
10017TIP3   OH251541   1.510   6.329   0.786  0.2931 -0.0882 -0.2982
10017TIP3    H151542   1.435   6.299   0.837 -0.0104  0.7966 -0.2202
10017TIP3    H251543   1.577   6.347   0.853  0.2132  0.1531 -0.2816
10018TIP3   OH251544   2.044   1.115  15.632  0.1071  0.5798 -0.2562
10018TIP3    H151545   2.132   1.149  15.649 -0.3769  1.7267  0.0103
10018TIP3    H251546   2.056   1.054  15.560  1.4405 -0.7872  1.0685
10019TIP3   OH251547   3.535   0.890  14.175  0.4730  0.2105  0.4423
10019TIP3    H151548   3.534   0.986  14.167  1.6555  0.3599  1.9681
10019TIP3    H251549   3.442   0.866  14.175  0.1740  1.2747 -0.7490
10020TIP3   OH251550   3.418   0.284  14.574  0.3266 -0.0825  0.5490
10020TIP3    H151551   3.387   0.209  14.524 -2.1343  0.6738  0.8472
10020TIP3    H251552   3.361   0.287  14.651  0.7404  1.7589  0.8307
10021TIP3   OH251553   0.631   2.006   4.481 -0.3772 -0.4654  0.1947
10021TIP3    H151554   0.690   2.077   4.505 -0.3116 -0.5904  0.4034
10021TIP3    H251555   0.675   1.961   4.409 -0.3206 -0.4246  0.2044
10022TIP3   OH251556   5.218   6.740  11.249 -0.0903  0.2976  0.9604
10022TIP3    H151557   5.234   6.825  11.210  0.0084  0.4028  1.2339
10022TIP3    H251558   5.236   6.751  11.342 -1.1593  0.2685  1.1813
10023TIP3   OH251559   3.349   2.327   5.645 -0.2516 -0.8092 -0.2467
10023TIP3    H151560   3.414   2.380   5.598 -1.9534  0.0217 -1.6984
10023TIP3    H251561   3.393   2.243   5.660  1.2679 -0.1531 -0.9196
10024TIP3   OH251562   1.144   5.389   3.671  0.2937 -0.0937 -0.8955
10024TIP3    H151563   1.127   5.298   3.693 -2.5576  0.1597 -1.8752
10024TIP3    H251564   1.136   5.394   3.576  1.7652  0.9286 -0.9904
10025TIP3   OH251565   0.764   3.075   0.822  0.1208 -0.0552 -0.8360
10025TIP3    H151566   0.671   3.069   0.845 -0.0012 -0.2654 -1.3907
10025TIP3    H251567   0.802   3.126   0.893  0.0458 -2.1151  0.7595
10026TIP3   OH251568   1.088   1.244  11.260  0.0222  0.0040 -0.1336
10026TIP3    H151569   1.092   1.150  11.280 -0.2121  0.2090  0.9186
10026TIP3    H251570   1.138   1.254  11.179  1.7002 -0.7261  0.8020
10027TIP3   OH251571   2.083   6.091   4.904 -0.1718 -0.4660  0.2132
10027TIP3    H151572   2.150   6.097   4.836  0.8343  0.1927  1.2423
10027TIP3    H251573   2.000   6.094   4.856  0.5135  0.0424 -0.9761
10028TIP3   OH251574   5.736   3.380   5.687  0.4100 -0.4084  0.0819
10028TIP3    H151575   5.705   3.457   5.639  1.4661 -0.5711 -0.8888
10028TIP3    H251576   5.799   3.414   5.750  0.7357 -0.4510 -0.2185
10029TIP3   OH251577   0.798   0.330  17.232 -0.0929  0.1974 -0.6430
10029TIP3    H151578   0.857   0.278  17.177  1.2135  0.9399  0.0424
10029TIP3    H251579   0.848   0.410  17.251 -0.7869  0.2188  1.1059
10030TIP3   OH251580   2.600   1.742   6.228  0.2921  0.3287  0.1210
10030TIP3    H151581   2.531   1.677   6.242 -0.8371  1.5773  0.4979
10030TIP3    H251582   2.675   1.708   6.275 -0.2775 -0.7276  0.2812
10031TIP3   OH251583   2.424   5.310   0.459 -0.4742 -0.4178  0.0527
10031TIP3    H151584   2.412   5.234   0.401  0.4562  1.1178 -2.2286
10031TIP3    H251585   2.469   5.275   0.535 -0.3302 -2.2199 -0.8328
10032TIP3   OH251586   2.810   3.786   5.367  0.7635  0.9136  0.0262
10032TIP3    H151587   2.772   3.720   5.309  1.2730  0.6750 -0.0359
10032TIP3    H251588   2.846   3.852   5.307 -1.9141  2.5109  0.0819
10033TIP3   OH251589   2.104   1.491  12.165 -0.3084 -0.5517 -0.6346
10033TIP3    H151590   2.117   1.430  12.091  0.5704 -1.3541  0.1692
10033TIP3    H251591   2.187   1.536  12.173 -0.5653 -0.1138 -0.4343
10034TIP3   OH251592   3.971   0.203  12.276  0.6203  0.1966  0.3086
10034TIP3    H151593   4.006   0.266  12.213 -3.9021 -0.1934 -2.8438
10034TIP3    H251594   3.913   0.254  12.333  0.0845 -0.4244  0.3364
10035TIP3   OH251595   6.394   4.747  13.228 -0.1084 -0.2641 -0.5943
10035TIP3    H151596   6.322   4.807  13.245  0.2564  0.9923 -3.3238
10035TIP3    H251597   6.352   4.665  13.201 -0.5211 -0.2315 -0.0769
10036TIP3   OH251598   3.424   1.836  13.733 -0.6085  0.3318  0.1205
10036TIP3    H151599   3.517   1.822  13.748 -0.2569 -0.1772 -2.2777
10036TIP3    H251600   3.387   1.748  13.725 -0.7755  0.5482 -1.6986
10037TIP3   OH251601   2.065   0.565  14.016  0.6281  0.8164  0.6062
10037TIP3    H151602   2.011   0.644  14.020  0.5418  0.6648  3.4541
10037TIP3    H251603   2.155   0.597  14.025  0.7459  0.7399 -0.2455
10038TIP3   OH251604   2.929   3.955   2.701 -0.3216 -0.1814 -0.5063
10038TIP3    H151605   2.879   4.037   2.707 -0.9664 -0.5956 -0.1640
10038TIP3    H251606   2.976   3.961   2.618  0.2206  0.8673 -0.1405
10039TIP3   OH251607   2.026   2.469  14.814  1.0787 -0.2052 -0.2395
10039TIP3    H151608   2.105   2.436  14.857  0.2090  0.1968  1.7239
10039TIP3    H251609   2.014   2.556  14.850 -0.3486 -0.3206 -0.4256
10040TIP3   OH251610   2.900   2.430   6.905 -0.3998 -0.3904  0.4124
10040TIP3    H151611   2.970   2.365   6.903 -0.0947 -0.0657  0.4053
10040TIP3    H251612   2.850   2.409   6.984 -0.3147 -0.6446  0.3996
10041TIP3   OH251613   1.834   5.578  15.171  0.6362 -0.0328 -0.4580
10041TIP3    H151614   1.855   5.671  15.179 -2.6570  0.7888 -0.4582
10041TIP3    H251615   1.739   5.577  15.155  0.3833 -3.4444  0.9987
10042TIP3   OH251616   5.344   5.837   0.305 -0.6978 -0.2993  0.5717
10042TIP3    H151617   5.336   5.875   0.217 -1.0264 -0.2588  0.6215
10042TIP3    H251618   5.295   5.755   0.301  2.6203 -2.3348 -0.4765
10043TIP3   OH251619   3.094   3.088  12.168 -0.1090  0.0484 -0.2194
10043TIP3    H151620   3.117   3.165  12.221  0.5083 -0.8062  0.7835
10043TIP3    H251621   3.018   3.116  12.116  0.1782  1.3631  0.0530
10044TIP3   OH251622   0.428   5.161  15.105  0.4810  0.5459  0.6005
10044TIP3    H151623   0.393   5.098  15.169 -1.9552  0.4817 -0.7232
10044TIP3    H251624   0.522   5.143  15.103  0.0274 -2.1609  1.2244
10045TIP3   OH251625   3.725   3.925   0.425  0.3183 -0.6747 -0.0633
10045TIP3    H151626   3.647   3.875   0.404  0.3283 -1.3991  1.5561
10045TIP3    H251627   3.798   3.869   0.398  0.2991 -0.3637 -0.7748
10046TIP3   OH251628   3.830   3.554   4.365  0.2526 -0.0280  0.0836
10046TIP3    H151629   3.873   3.629   4.407 -0.0604  1.1243 -1.5710
10046TIP3    H251630   3.901   3.502   4.329  0.4700 -0.4662  1.1526
10047TIP3   OH251631   0.754   5.450   1.795 -0.4574 -0.2180 -0.2940
10047TIP3    H151632   0.800   5.436   1.713 -0.1339 -1.4590  0.0823
10047TIP3    H251633   0.822   5.449   1.862 -1.0180 -2.3235  0.2906
10048TIP3   OH251634   5.530   4.877  15.705 -0.0683 -0.4395 -0.5122
10048TIP3    H151635   5.564   4.938  15.641 -0.5459  0.9211  0.4954
10048TIP3    H251636   5.605   4.855  15.760 -0.4454  1.5017  0.8704
10049TIP3   OH251637   2.385   1.654   3.477 -0.2403 -0.1363  0.5521
10049TIP3    H151638   2.395   1.748   3.490 -0.1481 -0.2179  1.1126
10049TIP3    H251639   2.472   1.618   3.490 -0.3080 -0.3168  0.5167
10050TIP3   OH251640   4.354   1.903   0.519 -0.2329  0.4572  0.6137
10050TIP3    H151641   4.435   1.950   0.501  0.1311 -0.4044 -0.0373
10050TIP3    H251642   4.286   1.970   0.515  0.6183  1.4920  2.8202
10051TIP3   OH251643   3.006   5.307   5.647 -1.1431  0.3960  0.6279
10051TIP3    H151644   3.026   5.267   5.732 -0.7127 -1.1652 -0.1896
10051TIP3    H251645   3.068   5.267   5.586 -1.5946  1.3342 -0.4730
10052TIP3   OH251646   4.181   5.000   1.616 -1.0478 -0.2766 -0.3037
10052TIP3    H151647   4.234   5.077   1.595 -1.7888 -0.0167 -1.2715
10052TIP3    H251648   4.165   5.007   1.710 -0.1692  0.1450 -0.1774
10053TIP3   OH251649   5.484   1.685  16.906 -0.0489 -0.1081  0.2940
10053TIP3    H151650   5.540   1.756  16.936 -1.0363  0.2487  1.3262
10053TIP3    H251651   5.542   1.627  16.856  0.8028  1.2881 -0.3420
10054TIP3   OH251652   0.385   4.885   0.627 -0.9701  0.1337  0.0058
10054TIP3    H151653   0.355   4.851   0.712  0.2939 -0.9497  0.0323
10054TIP3    H251654   0.415   4.974   0.646  0.3270 -0.4838  0.9184
10055TIP3   OH251655   3.059   6.357  13.902  0.2933 -0.1486 -0.8216
10055TIP3    H151656   3.112   6.377  13.980  0.3976 -0.5961 -0.7774
10055TIP3    H251657   3.064   6.262  13.893 -0.7615 -0.2290 -0.6327
10056TIP3   OH251658   1.545   0.286   4.080  0.0823  0.8404 -0.1098
10056TIP3    H151659   1.580   0.367   4.044  3.2606  0.7628  2.5476
10056TIP3    H251660   1.621   0.227   4.085 -1.5804 -1.3011  0.6877
10057TIP3   OH251661   2.979   2.921   1.676 -0.0030 -0.8995  0.4787
10057TIP3    H151662   3.039   2.989   1.644 -0.3036 -0.5405  0.6757
10057TIP3    H251663   2.934   2.962   1.749  0.6067 -1.6943  1.3069
10058TIP3   OH251664   6.156   5.064  12.322  0.6097 -0.7055  0.3789
10058TIP3    H151665   6.120   5.000  12.384 -1.1630 -0.3209 -0.2372
10058TIP3    H251666   6.098   5.139  12.329  2.8328  0.9900  1.2966
10059TIP3   OH251667   0.402   0.972   2.369  0.3833  0.3102 -0.6643
10059TIP3    H151668   0.384   1.060   2.404  1.8000  0.0809  0.6707
10059TIP3    H251669   0.382   0.913   2.442 -1.0548 -0.5485 -1.7190
10060TIP3   OH251670   1.905   4.814   3.897 -0.8874  0.0630  0.2999
10060TIP3    H151671   1.964   4.805   3.823  1.4805 -0.0692  2.1647
10060TIP3    H251672   1.889   4.725   3.927 -1.5975  0.1373  0.1593
10061TIP3   OH251673   1.677   0.248   1.824  0.1464  0.4627  0.2875
10061TIP3    H151674   1.643   0.174   1.873 -1.5454  1.2725  0.3766
10061TIP3    H251675   1.636   0.325   1.865  0.3808  1.3058 -1.0249
10062TIP3   OH251676   5.378   4.129  13.282  0.3057 -0.1135 -0.7937
10062TIP3    H151677   5.339   4.208  13.245 -0.3391  1.0118  2.1323
10062TIP3    H251678   5.473   4.146  13.279  0.1531  1.0687  0.3677
10063TIP3   OH251679   4.670   3.361  14.141 -0.5936 -0.0293 -0.0264
10063TIP3    H151680   4.599   3.394  14.196 -0.6986  1.2332 -0.8726
10063TIP3    H251681   4.626   3.324  14.064 -0.3795 -0.1456 -0.0939
10064TIP3   OH251682   5.374   3.051   0.282 -0.2988  0.2849  0.7904
10064TIP3    H151683   5.417   3.055   0.197 -0.6063  3.7387  0.7338
10064TIP3    H251684   5.446   3.037   0.344  0.0318 -1.2849  0.0888
10065TIP3   OH251685   0.708   4.492   5.871  0.2213 -0.4065  0.9735
10065TIP3    H151686   0.666   4.542   5.801  0.5826 -0.9815  0.3459
10065TIP3    H251687   0.801   4.511   5.862  0.7506 -3.6512 -1.2753
10066TIP3   OH251688   4.771   5.900  12.876 -0.2816 -0.1668  0.3082
10066TIP3    H151689   4.685   5.876  12.910 -0.4820  1.9797  1.4432
10066TIP3    H251690   4.755   5.932  12.788 -0.6112 -0.1113  0.3896
10067TIP3   OH251691   6.116   2.415   1.257 -0.1390  0.7282  0.1370
10067TIP3    H151692   6.161   2.421   1.341 -0.7483 -1.0306  0.6206
10067TIP3    H251693   6.029   2.452   1.274 -0.1687  0.6214  0.2220
10068TIP3   OH251694   4.347   5.177   4.866 -0.0135  0.2270  0.0777
10068TIP3    H151695   4.431   5.153   4.828 -0.8273 -0.7633 -1.1444
10068TIP3    H251696   4.318   5.252   4.815 -0.5663 -0.3724 -0.4903
10069TIP3   OH251697   5.515   5.975   1.557  0.2280  0.2125  0.2734
10069TIP3    H151698   5.519   5.915   1.631 -0.8068  0.8112  0.8315
10069TIP3    H251699   5.554   6.056   1.590 -1.1855  0.8193  0.5322
10070TIP3   OH251700   0.950   3.622  12.079  0.3816 -0.3934 -0.7345
10070TIP3    H151701   0.966   3.671  12.160  0.0689  0.5462 -1.2277
10070TIP3    H251702   0.901   3.545  12.106 -3.7993  2.1824 -0.5364
10071TIP3   OH251703   3.975   4.783  16.678  0.9269 -0.2310 -0.5938
10071TIP3    H151704   3.893   4.770  16.630  0.2386  2.6426 -0.3029
10071TIP3    H251705   4.027   4.840  16.622  1.9416 -0.5192  0.0495
10072TIP3   OH251706   0.193   0.878   3.368  0.1727  0.5561  0.0103
10072TIP3    H151707   0.126   0.932   3.410  0.8590  2.6101 -1.4285
10072TIP3    H251708   0.225   0.932   3.296  1.8740 -1.2544 -0.6339
10073TIP3   OH251709   1.325   5.039  14.336  0.1766  0.1838  0.3820
10073TIP3    H151710   1.399   5.099  14.345  0.7041 -0.1129 -1.6462
10073TIP3    H251711   1.362   4.952  14.351 -0.1978  0.2082  1.4593
10074TIP3   OH251712   5.967   4.927   1.742 -0.2088 -0.4519  0.1143
10074TIP3    H151713   6.002   4.898   1.658 -2.0437 -2.5040 -0.0046
10074TIP3    H251714   5.884   4.970   1.720 -0.0190  0.2461  0.7507
10075TIP3   OH251715   0.041   2.100   1.604 -0.0378  0.2944 -0.0858
10075TIP3    H151716   0.088   2.162   1.548 -0.4156  1.0308  0.3960
10075TIP3    H251717   0.099   2.088   1.680  1.5246 -2.4652 -1.6409
10076TIP3   OH251718   4.671   6.801  11.568  0.3987  0.3042  0.9542
10076TIP3    H151719   4.672   6.754  11.651 -2.1621  0.2604  1.0019
10076TIP3    H251720   4.751   6.774  11.524  1.2229 -0.5459  2.9203
10077TIP3   OH251721   1.066   6.355   0.608  0.6106 -0.4410  0.1732
10077TIP3    H151722   1.014   6.284   0.572  0.2705 -1.4330  2.5120
10077TIP3    H251723   1.003   6.425   0.625  0.4063 -0.7782  0.8300
10078TIP3   OH251724   5.144   0.115  12.630 -0.7208  0.6144  0.0526
10078TIP3    H151725   5.148   0.064  12.711  1.0283 -0.7877 -0.8976
10078TIP3    H251726   5.109   0.200  12.657 -0.7893 -0.0580  2.1556
10079TIP3   OH251727   1.220   3.041  12.621  0.0469  0.4742 -0.7000
10079TIP3    H151728   1.255   2.952  12.624 -0.7520  0.1812  0.7581
10079TIP3    H251729   1.166   3.043  12.542 -1.0167 -0.7778 -0.0315
10080TIP3   OH251730   2.879   3.582  13.284  0.0762  0.6086 -0.2211
10080TIP3    H151731   2.856   3.639  13.356 -2.5579 -0.7581  0.0871
10080TIP3    H251732   2.943   3.521  13.321  0.0123  0.9682  0.4828
10081TIP3   OH251733   5.546   5.057   2.548 -0.3804 -0.4990 -0.6964
10081TIP3    H151734   5.556   5.073   2.454  1.4379  0.8870 -0.2991
10081TIP3    H251735   5.546   5.144   2.587  0.3891 -1.1264  0.7329
10082TIP3   OH251736   2.799   3.779   4.137 -0.5771  0.0581 -0.0052
10082TIP3    H151737   2.717   3.780   4.088 -1.3356  0.8595  1.2711
10082TIP3    H251738   2.779   3.728   4.216 -0.2402  1.3860  0.9525
10083TIP3   OH251739   2.044   5.754   2.865  0.7087  0.4941  0.0602
10083TIP3    H151740   1.997   5.672   2.849  1.1056  0.4177 -0.7383
10083TIP3    H251741   2.033   5.803   2.783 -1.0436  1.9847  1.1396
10084TIP3   OH251742   0.934   2.992   1.853 -0.7257 -0.4073 -0.0431
10084TIP3    H151743   0.964   3.079   1.878 -0.5211 -0.8304  1.2500
10084TIP3    H251744   1.002   2.933   1.887 -1.9504 -1.2163  1.0692
10085TIP3   OH251745   4.031   0.539  12.020  0.5995  0.7779 -0.1951
10085TIP3    H151746   4.061   0.585  11.942 -1.8225  0.6073 -1.2733
10085TIP3    H251747   4.048   0.447  12.001 -0.3332  0.6988 -0.7362
10086TIP3   OH251748   1.138   1.379  12.607 -0.4189  0.1675 -0.5340
10086TIP3    H151749   1.138   1.471  12.577  0.0261  0.0967 -0.7602
10086TIP3    H251750   1.096   1.331  12.536  0.0426  0.0915 -0.7589
10087TIP3   OH251751   5.831   2.533   5.411 -0.4615  0.0024  0.3440
10087TIP3    H151752   5.739   2.524   5.385  0.1596  1.9338 -2.7249
10087TIP3    H251753   5.832   2.611   5.467 -0.7335 -0.2594  0.7203
10088TIP3   OH251754   0.205   5.436   3.000  0.1464 -0.2483 -0.0135
10088TIP3    H151755   0.152   5.516   3.011 -1.2758 -0.7235 -2.8501
10088TIP3    H251756   0.266   5.458   2.930  0.5842 -1.2389  0.0643
10089TIP3   OH251757   4.803   0.225  11.800  0.1847 -0.3394 -0.5219
10089TIP3    H151758   4.873   0.239  11.736 -0.1738 -2.3678 -1.4007
10089TIP3    H251759   4.848   0.194  11.879  0.3441 -1.0766 -0.8957
10090TIP3   OH251760   6.374   4.886   0.254 -0.1426 -0.1406  0.4371
10090TIP3    H151761   6.310   4.946   0.215  1.9365  1.4557 -0.6152
10090TIP3    H251762   6.457   4.932   0.246  1.5665 -3.3042 -0.6850
10091TIP3   OH251763   4.836   4.704   5.599  0.0426 -0.7526 -0.0602
10091TIP3    H151764   4.886   4.641   5.547 -0.0453 -0.7439 -0.1550
10091TIP3    H251765   4.761   4.655   5.632 -0.0293 -0.6969 -0.1385
10092TIP3   OH251766   3.478   1.809   2.212  0.0718  0.3044 -0.0575
10092TIP3    H151767   3.471   1.882   2.274 -0.6362 -0.0881  0.3355
10092TIP3    H251768   3.413   1.745   2.243  1.2670 -0.8610  0.0918
10093TIP3   OH251769   5.850   4.442  15.008 -0.2536  0.0153 -0.0967
10093TIP3    H151770   5.936   4.401  15.000 -1.2873 -2.4105  0.5167
10093TIP3    H251771   5.824   4.463  14.919  0.2767 -0.7753 -0.4425
10094TIP3   OH251772   5.828   6.136  16.050 -0.2114 -0.2896  0.3017
10094TIP3    H151773   5.870   6.219  16.027 -0.0552 -1.0386 -2.2142
10094TIP3    H251774   5.758   6.161  16.111  0.7021  1.5265  0.6358
10095TIP3   OH251775   2.579   3.633  14.557  0.1780 -0.5802  0.5823
10095TIP3    H151776   2.646   3.565  14.550  0.9283  0.2331 -0.2956
10095TIP3    H251777   2.499   3.586  14.579  0.7522 -1.7096  0.2834
10096TIP3   OH251778   3.084   2.394   5.697 -0.1763 -0.2677 -0.0883
10096TIP3    H151779   3.178   2.397   5.681 -0.1435  1.2253  0.3295
10096TIP3    H251780   3.059   2.304   5.676  0.7785  0.1797 -3.4361
10097TIP3   OH251781   3.067   5.271  14.655  0.4172 -0.5805 -0.6887
10097TIP3    H151782   3.068   5.284  14.560  1.0303 -2.6151 -0.9639
10097TIP3    H251783   2.984   5.226  14.672 -0.4938  1.2891 -0.0351
10098TIP3   OH251784   3.815   1.073   0.823 -0.7817 -0.1072 -0.1729
10098TIP3    H151785   3.803   1.162   0.790  0.5946  0.5390  1.0267
10098TIP3    H251786   3.909   1.059   0.822 -0.8921 -1.0007  1.0610
10099TIP3   OH251787   1.024   6.403  17.260  0.0734 -0.2731 -0.2657
10099TIP3    H151788   0.960   6.367  17.321 -0.7963  2.5537  0.5809
10099TIP3    H251789   1.026   6.341  17.187 -1.8223 -1.6536  0.8157
10100TIP3   OH251790   1.516   1.870   5.799  0.2618 -0.2932 -0.0659
10100TIP3    H151791   1.529   1.782   5.832  0.6630  0.1656  1.0267
10100TIP3    H251792   1.601   1.896   5.763  0.0469 -0.4798 -0.7245
10101TIP3   OH251793   3.021   2.851  14.138 -0.0497 -0.2795  0.5586
10101TIP3    H151794   3.001   2.901  14.059 -1.9419  0.7084  1.6186
10101TIP3    H251795   2.997   2.761  14.117 -1.4936  0.1464  0.3093
10102TIP3   OH251796   2.545   1.570  12.620  0.6376  0.2337 -0.1852
10102TIP3    H151797   2.582   1.541  12.537  1.7309 -0.4417  0.5303
10102TIP3    H251798   2.500   1.494  12.655 -0.8102  0.8367 -0.6825
10103TIP3   OH251799   6.114   4.839   2.574  0.2185  0.9486  0.3501
10103TIP3    H151800   6.111   4.783   2.496  1.9632 -0.0815  1.0022
10103TIP3    H251801   6.030   4.824   2.617 -0.0373  0.1560 -0.3983
10104TIP3   OH251802   6.626   5.414  14.061  0.2719 -0.2374 -0.7758
10104TIP3    H151803   6.694   5.412  13.994  0.9779  0.4992 -0.1042
10104TIP3    H251804   6.615   5.507  14.081  0.5219 -0.4795  0.5588
10105TIP3   OH251805   2.397   1.714  15.907 -0.1014  0.8523  0.1200
10105TIP3    H151806   2.393   1.668  15.991  1.6446  0.2575 -0.1027
10105TIP3    H251807   2.317   1.767  15.905 -0.4173  0.4832  1.9279
10106TIP3   OH251808   5.006   6.301   3.497  0.3222 -0.5071  0.5532
10106TIP3    H151809   4.991   6.365   3.427  1.2989 -0.6055  0.2483
10106TIP3    H251810   4.924   6.301   3.547 -0.1540  0.0277 -0.2117
10107TIP3   OH251811   3.810   2.076  13.415  0.0607 -0.0415  0.1339
10107TIP3    H151812   3.719   2.084  13.443 -0.4363 -0.2885 -1.3838
10107TIP3    H251813   3.806   2.024  13.335  1.5556 -0.1653  0.1285
10108TIP3   OH251814   4.426   1.978  13.775 -0.2133  0.2528  0.7400
10108TIP3    H151815   4.444   1.884  13.780  1.3437  0.5401  0.8450
10108TIP3    H251816   4.376   1.997  13.855 -2.6694 -0.8997 -0.4594
10109TIP3   OH251817   3.726   5.725  12.858 -0.2961 -0.2915  0.1380
10109TIP3    H151818   3.810   5.702  12.899 -0.3815 -2.2846 -0.7267
10109TIP3    H251819   3.727   5.821  12.853  1.9700 -0.2769  0.0916
10110TIP3   OH251820   5.136   4.355  15.719  0.2156  0.4170 -0.4587
10110TIP3    H151821   5.060   4.305  15.690  1.3175 -0.9331 -1.1106
10110TIP3    H251822   5.129   4.439  15.673 -1.1327  0.4969 -0.1213
10111TIP3   OH251823   1.866   1.780   0.757  0.2770 -0.3552  0.5116
10111TIP3    H151824   1.877   1.811   0.846 -0.0526  0.6710  0.2001
10111TIP3    H251825   1.794   1.832   0.722  0.8039 -0.3255 -0.5551
10112TIP3   OH251826   2.794   1.059  13.166  0.0842  0.2214 -0.7082
10112TIP3    H151827   2.712   1.020  13.196  1.2908 -0.9657  1.0704
10112TIP3    H251828   2.861   0.997  13.191  2.0489  3.2842  2.0169
10113TIP3   OH251829   4.778   5.847   3.306 -0.2861  0.1052 -0.3927
10113TIP3    H151830   4.689   5.871   3.333 -0.3360 -2.0562  1.4818
10113TIP3    H251831   4.797   5.767   3.355  3.1935  1.2474  0.2224
10114TIP3   OH251832   5.080   3.542   5.361  0.5402  0.3185  0.2553
10114TIP3    H151833   5.029   3.565   5.284  1.4939  0.9952 -0.1813
10114TIP3    H251834   5.016   3.502   5.421 -0.1161 -0.6046 -1.0405
10115TIP3   OH251835   5.091   0.276  11.672  0.1127 -0.4222  0.2653
10115TIP3    H151836   5.184   0.296  11.660 -0.1860  1.2830  0.7550
10115TIP3    H251837   5.046   0.358  11.654 -1.5582 -1.9065 -2.8440
10116TIP3   OH251838   6.276   5.061   4.024 -0.2475 -0.2343 -0.3474
10116TIP3    H151839   6.313   5.051   4.111  0.6151  1.6309 -0.4818
10116TIP3    H251840   6.298   4.980   3.979  0.8973 -0.4585  0.5960
10117TIP3   OH251841   2.591   6.352  14.855  0.8238  0.0937 -1.0582
10117TIP3    H151842   2.638   6.270  14.848 -0.4065 -0.9501  2.0095
10117TIP3    H251843   2.498   6.328  14.848  0.3814  0.9974  1.2250
10118TIP3   OH251844   5.734   2.251  11.703 -0.0846 -0.2673 -0.3791
10118TIP3    H151845   5.678   2.236  11.779  0.0820  0.0400 -0.1991
10118TIP3    H251846   5.705   2.335  11.668 -0.4311 -0.5964 -0.8899
10119TIP3   OH251847   3.415   3.331   4.355  0.1395 -0.6048 -0.1455
10119TIP3    H151848   3.448   3.421   4.365 -0.2283 -0.2481 -1.9653
10119TIP3    H251849   3.385   3.307   4.443  0.0391  1.1431  0.3259
10120TIP3   OH251850   6.147   1.588   0.659  0.0148 -0.3766  0.1225
10120TIP3    H151851   6.175   1.505   0.696  1.1582 -0.6328 -1.2809
10120TIP3    H251852   6.075   1.564   0.599 -0.3445 -0.2269  0.4912
10121TIP3   OH251853   0.061   0.714   2.616 -0.2261 -0.3098  0.4108
10121TIP3    H151854  -0.011   0.773   2.597  1.3690  1.4866 -0.1835
10121TIP3    H251855   0.048   0.689   2.708 -2.0774 -0.7165  0.0466
10122TIP3   OH251856   4.404   0.340  17.231  0.2608 -0.0980 -0.1759
10122TIP3    H151857   4.400   0.393  17.151 -0.1724  0.4483  0.2113
10122TIP3    H251858   4.387   0.401  17.302  3.9879  0.0609  0.6369
10123TIP3   OH251859   5.498   4.638   2.794 -0.5860 -0.0246  0.2248
10123TIP3    H151860   5.544   4.721   2.803 -1.2080  0.2516  0.9394
10123TIP3    H251861   5.474   4.633   2.702  0.8708 -0.1776 -0.1519
10124TIP3   OH251862   4.239   3.422   1.982  0.2301  0.4020 -0.1327
10124TIP3    H151863   4.317   3.418   2.037 -1.4716 -0.2257  2.3121
10124TIP3    H251864   4.261   3.368   1.906  1.0166 -2.5959  2.1063
10125TIP3   OH251865   4.921   1.213  11.445  0.0059  0.0955 -0.0650
10125TIP3    H151866   4.995   1.266  11.476 -0.1867 -0.0674  0.6556
10125TIP3    H251867   4.847   1.242  11.498 -0.8949  1.6208 -2.0519
10126TIP3   OH251868   5.827   5.727  12.124  0.4692  0.5579 -0.1343
10126TIP3    H151869   5.741   5.769  12.115 -0.3286 -0.9138  0.3104
10126TIP3    H251870   5.872   5.747  12.042 -1.2553 -0.6926 -1.4329
10127TIP3   OH251871   2.588   3.196   4.571 -0.2384 -0.1597  0.2215
10127TIP3    H151872   2.554   3.200   4.482 -2.2793 -0.8193  0.9242
10127TIP3    H251873   2.529   3.253   4.621  0.3264 -0.5182  1.3068
10128TIP3   OH251874   3.226   3.249   5.836 -0.3782 -0.2805  0.2205
10128TIP3    H151875   3.320   3.259   5.818 -0.6622  1.4374 -0.3979
10128TIP3    H251876   3.221   3.173   5.894  1.4963  0.2628  1.1502
10129TIP3   OH251877   0.434   0.096   2.978  0.1456  0.0686  0.1444
10129TIP3    H151878   0.471   0.101   2.890 -0.8821 -0.9518 -0.3564
10129TIP3    H251879   0.395   0.008   2.983 -1.1620  0.6874  1.0652
10130TIP3   OH251880   5.840   6.038   1.342  0.2866  0.2528  0.3409
10130TIP3    H151881   5.749   6.056   1.318  0.2875 -1.6369 -1.2595
10130TIP3    H251882   5.892   6.097   1.287  0.0276  1.4868  1.4134
10131TIP3   OH251883   0.069   4.326   3.392  0.1335  0.4871 -0.9815
10131TIP3    H151884  -0.001   4.377   3.350 -0.5063 -0.3350 -0.9342
10131TIP3    H251885   0.150   4.361   3.356 -0.3825  0.1820 -2.4664
10132TIP3   OH251886   5.799   4.239   0.897  0.1013  0.2084  0.0925
10132TIP3    H151887   5.856   4.243   0.820 -1.8819  1.9021 -1.3218
10132TIP3    H251888   5.753   4.323   0.898 -3.1589 -1.4972  0.5797
10133TIP3   OH251889   6.088   2.363  17.174  0.1986  0.0309 -0.4494
10133TIP3    H151890   6.050   2.281  17.145  1.0312 -1.5896  2.7640
10133TIP3    H251891   6.174   2.367  17.131  0.1111 -0.7273 -0.6879
10134TIP3   OH251892   4.871   4.079  17.060 -0.3508  0.0834 -0.2639
10134TIP3    H151893   4.904   4.044  16.977 -0.6498 -0.5010 -0.1340
10134TIP3    H251894   4.949   4.100  17.110 -0.1794 -1.2986  0.0461
10135TIP3   OH251895   1.449   5.165   2.461  0.2506 -0.0245 -0.2656
10135TIP3    H151896   1.441   5.076   2.497  3.4352 -0.7953 -1.2880
10135TIP3    H251897   1.483   5.217   2.534  0.2795 -0.0930 -0.2296
10136TIP3   OH251898   6.204   1.435   0.972 -0.2868  0.0579 -0.3529
10136TIP3    H151899   6.175   1.433   1.063  1.0997  0.8295  0.1121
10136TIP3    H251900   6.245   1.521   0.962  0.8146 -0.5727 -1.3079
10137TIP3   OH251901   5.365   6.368   2.322 -0.0546  0.3015  0.4626
10137TIP3    H151902   5.310   6.367   2.244 -0.0011  0.2507  0.4257
10137TIP3    H251903   5.424   6.294   2.310 -0.7233 -0.3345  1.0326
10138TIP3   OH251904   4.392   5.360  11.937 -0.6744  0.2947 -0.1865
10138TIP3    H151905   4.423   5.342  12.026  3.6615  0.0449 -1.6020
10138TIP3    H251906   4.425   5.286  11.886 -1.4142  1.4198 -2.3089
10139TIP3   OH251907   3.013   4.001   1.638  0.1546  0.3668  0.1156
10139TIP3    H151908   3.052   3.978   1.554  0.2130  2.3179 -0.4121
10139TIP3    H251909   2.937   3.943   1.645  1.1726 -1.0760 -0.4240
10140TIP3   OH251910   6.439   6.468   5.954  0.5981 -0.0156 -0.0503
10140TIP3    H151911   6.440   6.372   5.963  2.3534  0.0772  1.0249
10140TIP3    H251912   6.466   6.500   6.040 -1.6809  1.5143  0.1239
10141TIP3   OH251913   1.924   1.909   4.827 -0.3620 -0.1916 -0.1874
10141TIP3    H151914   1.845   1.869   4.864 -0.3360 -0.2166 -0.1592
10141TIP3    H251915   1.892   1.982   4.774 -0.3225  0.6769  0.9541
10142TIP3   OH251916   5.825   2.899  10.396  0.4305  0.2814  0.1643
10142TIP3    H151917   5.833   2.971  10.458  1.4565  0.4872 -0.1969
10142TIP3    H251918   5.821   2.941  10.311 -0.5956 -0.0192  0.0579
10143TIP3   OH251919   1.658   5.070   3.301 -0.0124  0.0233 -0.6014
10143TIP3    H151920   1.646   5.165   3.304  1.4089  0.1476  1.6884
10143TIP3    H251921   1.729   5.052   3.362 -1.2832 -2.6979  0.1594
10144TIP3   OH251922   0.517   2.557  13.646  0.2036  0.0814  0.6744
10144TIP3    H151923   0.452   2.493  13.618 -0.2952  0.7651  0.2506
10144TIP3    H251924   0.508   2.561  13.741  2.0717 -2.4441  1.0072
10145TIP3   OH251925   3.244   1.902   1.994 -0.4436 -0.1395 -0.6599
10145TIP3    H151926   3.216   1.927   1.906  1.1278 -1.0794 -1.4415
10145TIP3    H251927   3.338   1.886   1.986  0.2878  2.4778  1.8099
10146TIP3   OH251928   1.001   2.361   5.538 -0.0269  0.6431  0.0268
10146TIP3    H151929   1.045   2.393   5.459 -0.1733  0.8727  0.0372
10146TIP3    H251930   1.027   2.424   5.606 -1.1631  1.3447 -0.1779
10147TIP3   OH251931   0.011   4.480   1.899 -0.0334  0.4657  0.8811
10147TIP3    H151932  -0.034   4.445   1.822  1.6424  0.8645 -0.2909
10147TIP3    H251933   0.001   4.575   1.891 -0.8600  0.4624  1.7867
10148TIP3   OH251934   4.049   4.066   2.435  0.4655  0.0878  0.1756
10148TIP3    H151935   3.954   4.059   2.439  0.4956  0.0366  0.8240
10148TIP3    H251936   4.073   4.121   2.509  0.8316  1.2611 -0.7908
10149TIP3   OH251937   0.637   0.765  14.340 -0.0363  0.0018 -0.0900
10149TIP3    H151938   0.604   0.689  14.388 -0.6900 -0.1871 -0.8259
10149TIP3    H251939   0.617   0.746  14.248  1.8603  0.0098 -0.5339
10150TIP3   OH251940   2.623   6.783   0.958 -0.4410 -0.0932  0.3279
10150TIP3    H151941   2.539   6.782   1.004  0.1502  2.8487  1.5879
10150TIP3    H251942   2.603   6.821   0.872 -0.8469 -1.9274 -0.4103
10151TIP3   OH251943   6.814   5.446   2.518  0.3609  0.2729  0.2727
10151TIP3    H151944   6.835   5.361   2.555 -2.9718  0.0979  1.9656
10151TIP3    H251945   6.784   5.427   2.429 -0.3195 -0.2988  0.6258
10152TIP3   OH251946   0.098   6.003   4.430 -0.2653 -0.1154 -0.6804
10152TIP3    H151947   0.029   5.970   4.373 -0.9748 -1.6956  1.0302
10152TIP3    H251948   0.068   5.982   4.519  1.2784  1.3765  0.2349
10153TIP3   OH251949   5.575   4.536   5.197  0.1245 -0.2494 -0.0584
10153TIP3    H151950   5.615   4.575   5.275  1.1173 -0.6750 -0.3542
10153TIP3    H251951   5.537   4.454   5.228  0.5397 -0.4301 -0.0219
10154TIP3   OH251952   4.248   5.425   1.273 -0.0584  0.5954 -0.4754
10154TIP3    H151953   4.192   5.353   1.303 -1.3577  1.7713 -0.0074
10154TIP3    H251954   4.280   5.396   1.188  0.0758 -0.8776  0.0524
10155TIP3   OH251955   1.732   2.121  16.200 -0.3598 -0.0691 -0.3618
10155TIP3    H151956   1.658   2.181  16.196  1.6063  2.3995 -1.2797
10155TIP3    H251957   1.727   2.071  16.119 -0.5950  0.6671 -0.8081
10156TIP3   OH251958   1.851   5.306   0.333 -0.4011  0.2583 -0.3500
10156TIP3    H151959   1.812   5.220   0.319 -1.6835  0.2862  2.7412
10156TIP3    H251960   1.865   5.311   0.427  1.9573  2.4870 -0.7553
10157TIP3   OH251961   0.720   0.524  12.113  0.2453  0.0234  0.1751
10157TIP3    H151962   0.746   0.433  12.101  1.8385  0.6802 -1.6607
10157TIP3    H251963   0.627   0.520  12.138 -0.0179 -2.0450 -1.0233
10158TIP3   OH251964   5.450   6.371  13.537 -0.0221  0.0923 -0.2209
10158TIP3    H151965   5.429   6.283  13.568 -1.0854  0.5943  0.4954
10158TIP3    H251966   5.469   6.420  13.617 -3.1910  1.5150 -0.2832
10159TIP3   OH251967   5.710   1.138   6.326 -0.1385  0.1938 -0.0434
10159TIP3    H151968   5.687   1.230   6.343  2.0895  1.2362 -2.2613
10159TIP3    H251969   5.659   1.088   6.389 -0.5766  3.0450  1.9456
10160TIP3   OH251970   4.457   4.385  17.247 -0.3239 -0.4458  0.3642
10160TIP3    H151971   4.495   4.323  17.185 -1.7948  0.4486 -1.5030
10160TIP3    H251972   4.532   4.424  17.292  0.7975 -0.8470 -1.1294
10161TIP3   OH251973   5.638   1.717  16.516  0.1031  0.1000 -0.4430
10161TIP3    H151974   5.613   1.636  16.560  0.1811  1.3617  2.0879
10161TIP3    H251975   5.572   1.730  16.449 -0.7618 -1.2904  0.1179
10162TIP3   OH251976   6.366   2.085   0.019  0.5958  0.2150  0.2465
10162TIP3    H151977   6.405   2.001   0.043  1.8555  0.3941 -1.0890
10162TIP3    H251978   6.434   2.150   0.041  0.1338  0.7596  0.0709
10163TIP3   OH251979   3.923   3.424  11.571 -0.6539  0.0663 -0.2044
10163TIP3    H151980   3.875   3.386  11.644 -1.4727  1.1311 -0.1708
10163TIP3    H251981   3.866   3.494  11.539  1.1452  1.8148  0.2904
10164TIP3   OH251982   6.175   5.571   4.929 -0.5507 -0.1918  0.1389
10164TIP3    H151983   6.169   5.475   4.933  2.0699 -0.4398 -0.7974
10164TIP3    H251984   6.144   5.600   5.015 -0.8702 -1.9132  0.6321
10165TIP3   OH251985   1.606   1.089  16.398 -0.0691 -0.2423 -0.3912
10165TIP3    H151986   1.648   1.068  16.315 -1.9730  2.0466 -2.0195
10165TIP3    H251987   1.662   1.157  16.437 -0.0913 -0.0809 -0.6409
10166TIP3   OH251988   4.077   4.553  12.291  0.0933  0.3463  0.2786
10166TIP3    H151989   4.131   4.571  12.214  0.0517  0.2404  0.2237
10166TIP3    H251990   4.000   4.508  12.256 -1.4855  3.2082 -0.0427
10167TIP3   OH251991   2.831   4.093   2.027  0.2894  0.5140 -0.5929
10167TIP3    H151992   2.840   4.053   1.940 -0.8145 -0.6945 -0.1731
10167TIP3    H251993   2.898   4.051   2.080 -0.8017 -0.7515 -0.1791
10168TIP3   OH251994   2.483   3.591  11.268  0.1135 -0.0341  0.3649
10168TIP3    H151995   2.479   3.508  11.221  0.3691  0.4787 -0.5820
10168TIP3    H251996   2.567   3.588  11.315  0.5839  0.0932 -0.4499
10169TIP3   OH251997   0.315   4.119   0.511 -0.5709 -0.4604  0.1697
10169TIP3    H151998   0.404   4.134   0.481  0.2891  1.9316  3.6781
10169TIP3    H251999   0.318   4.035   0.556  0.0317 -0.1745  0.6628
10170TIP3   OH252000   2.862   2.578  14.965 -0.1600 -0.5996 -0.0584
10170TIP3    H152001   2.911   2.497  14.955  0.3838 -0.2105 -0.5739
10170TIP3    H252002   2.865   2.596  15.059 -1.3930 -1.8480  0.2349
10171TIP3   OH252003   5.814   2.274   3.476  0.5234  0.5368  0.1544
10171TIP3    H152004   5.781   2.244   3.391 -1.7415 -2.3266  1.9298
10171TIP3    H252005   5.909   2.269   3.468  0.3078 -2.1949 -1.3877
10172TIP3   OH252006   0.021   1.698  13.295  0.3440 -0.1202  0.0347
10172TIP3    H152007   0.000   1.722  13.205 -2.1261 -1.1650  0.2717
10172TIP3    H252008  -0.015   1.769  13.348 -0.7905 -0.8940  0.3311
10173TIP3   OH252009   6.091   1.405  13.248 -0.0868  0.2527 -0.2007
10173TIP3    H152010   6.014   1.388  13.193 -0.2302 -0.1268  0.1218
10173TIP3    H252011   6.086   1.499  13.267  0.7298  0.6839 -2.0021
10174TIP3   OH252012   2.657   3.813  16.610  0.1241 -0.7966 -0.3411
10174TIP3    H152013   2.579   3.758  16.609 -2.0618  2.1539 -1.9200
10174TIP3    H252014   2.712   3.779  16.539 -1.2405 -0.9143 -1.3572
10175TIP3   OH252015   6.790   1.049   4.871  0.2242 -0.2656 -0.6092
10175TIP3    H152016   6.853   1.090   4.930 -0.8249 -0.0582  0.3821
10175TIP3    H252017   6.720   1.114   4.862 -1.0053 -1.4555  0.2359
10176TIP3   OH252018   5.045   2.402  15.250  0.0748 -0.3533 -1.0927
10176TIP3    H152019   5.024   2.311  15.225  0.0144 -0.6691  0.1072
10176TIP3    H252020   5.141   2.406  15.245  0.3083 -1.3651  1.8045
10177TIP3   OH252021   5.695   1.733  14.500  0.2087 -0.5887  0.0787
10177TIP3    H152022   5.723   1.652  14.542 -0.1253 -1.0450 -0.5863
10177TIP3    H252023   5.775   1.766  14.458  0.7718  0.3460  1.8087
10178TIP3   OH252024   5.160   0.942   3.577  0.6576 -0.2288  0.0098
10178TIP3    H152025   5.238   0.958   3.630  0.6250 -0.1166  0.0221
10178TIP3    H252026   5.092   0.996   3.617  0.2523 -1.2766  0.7765
10179TIP3   OH252027   1.287   3.527  13.284 -0.2612 -0.0167 -0.1851
10179TIP3    H152028   1.254   3.469  13.352  2.9722  0.2664  1.7278
10179TIP3    H252029   1.343   3.471  13.230  0.0810  0.5501 -0.4210
10180TIP3   OH252030   3.328   2.917  12.014 -0.1508  0.1015  0.2618
10180TIP3    H152031   3.256   2.956  12.064 -0.1893  1.0311 -0.5144
10180TIP3    H252032   3.379   2.870  12.080 -1.0981 -0.0208  0.9203
10181TIP3   OH252033   4.903   4.846   0.650  0.1514 -0.1801 -0.2267
10181TIP3    H152034   4.988   4.890   0.660  0.7885 -0.8357 -2.3801
10181TIP3    H252035   4.862   4.890   0.575 -0.5546 -1.1501 -0.4126
10182TIP3   OH252036   6.607   5.655   4.978  0.1354  0.2482 -0.1331
10182TIP3    H152037   6.603   5.560   4.993 -2.3193  0.4455  0.7323
10182TIP3    H252038   6.525   5.676   4.933  0.4077  2.0362  0.1588
10183TIP3   OH252039   1.293   6.583   3.321  0.6705  0.5743 -0.4872
10183TIP3    H152040   1.332   6.610   3.238  1.6054 -1.7554 -0.8425
10183TIP3    H252041   1.267   6.492   3.307  0.1458  0.3798  1.5442
10184TIP3   OH252042   4.164   4.752  14.633 -0.2697  0.7246  0.2009
10184TIP3    H152043   4.099   4.792  14.575  0.6201  0.3429 -1.0867
10184TIP3    H252044   4.165   4.660  14.607  0.1991  0.5736  0.7642
10185TIP3   OH252045   0.947   3.284   0.489  0.6506  0.5372  0.0725
10185TIP3    H152046   0.927   3.371   0.524  0.0477  0.7512 -0.7940
10185TIP3    H252047   0.963   3.299   0.396  0.2499 -0.3213 -0.1375
10186TIP3   OH252048   5.352   5.316  14.924 -0.0413 -0.4394 -0.2343
10186TIP3    H152049   5.395   5.301  15.008 -1.5765  0.7233  0.7768
10186TIP3    H252050   5.409   5.377  14.878  0.0689  0.0519  0.5539
10187TIP3   OH252051   4.965   5.307   4.381 -0.0139 -0.4023 -0.3586
10187TIP3    H152052   4.986   5.348   4.465  1.1535 -1.0432 -0.3235
10187TIP3    H252053   4.879   5.268   4.394  0.3011 -0.7742  0.6504
10188TIP3   OH252054   3.530   4.336  11.604  0.1487  0.5636  0.5889
10188TIP3    H152055   3.593   4.291  11.661  0.0156 -0.3084  0.0458
10188TIP3    H252056   3.448   4.332  11.652  0.3432  1.0656  0.9705
10189TIP3   OH252057   6.480   3.253   0.409 -0.4107  0.4332  0.2450
10189TIP3    H152058   6.468   3.347   0.421 -0.0973  0.5590 -0.4027
10189TIP3    H252059   6.396   3.215   0.435 -0.6729  0.9301  0.1331
10190TIP3   OH252060   3.136   3.166  12.773  0.1517  0.3542  0.8424
10190TIP3    H152061   3.184   3.237  12.815 -2.1092  1.4275  1.6686
10190TIP3    H252062   3.111   3.107  12.844 -0.3683  0.1688  0.5136
10191TIP3   OH252063   6.148   5.801   3.024 -0.0690 -0.4777  0.6322
10191TIP3    H152064   6.223   5.752   3.059 -0.3034 -0.1585  1.5970
10191TIP3    H252065   6.109   5.741   2.960  1.4560 -0.3549 -0.4522
10192TIP3   OH252066   5.647   2.800  14.361 -0.5918  0.2003  0.4730
10192TIP3    H152067   5.689   2.739  14.300 -2.1268 -0.8601  0.4617
10192TIP3    H252068   5.583   2.847  14.309 -0.0266  1.2331  0.6854
10193TIP3   OH252069   2.981   4.527  13.907 -0.1706  0.2788  0.4895
10193TIP3    H152070   3.063   4.503  13.952  0.5595 -1.8419 -1.8733
10193TIP3    H252071   3.007   4.596  13.845 -0.3947  0.3512  0.4774
10194TIP3   OH252072   3.179   6.815   2.787  0.1630  0.6875  0.2266
10194TIP3    H152073   3.125   6.772   2.853  1.1608  0.1240  0.6851
10194TIP3    H252074   3.196   6.746   2.722  0.4809  0.8160  0.1734
10195TIP3   OH252075   5.449   0.099  15.945 -0.5566 -0.6036 -0.1805
10195TIP3    H152076   5.503   0.161  15.896 -1.2355 -1.2510 -1.7854
10195TIP3    H252077   5.374   0.151  15.975 -0.5521 -0.3915 -0.5339
10196TIP3   OH252078   1.774   2.610   1.246  0.2409  0.2034  0.5955
10196TIP3    H152079   1.762   2.630   1.153  2.0999 -1.6840 -0.1081
10196TIP3    H252080   1.689   2.577   1.275 -0.1187  0.0036 -0.6610
10197TIP3   OH252081   3.991   6.324   4.954 -0.7530 -0.5723 -0.0563
10197TIP3    H152082   4.014   6.292   5.041 -0.6858 -1.5045 -0.4116
10197TIP3    H252083   3.910   6.278   4.931 -0.4036 -0.8397 -0.7696
10198TIP3   OH252084   2.962   6.565  16.001  0.0938 -0.5136  0.3660
10198TIP3    H152085   3.032   6.517  16.045 -1.0307 -0.8427  1.8105
10198TIP3    H252086   2.965   6.653  16.038 -0.2609 -0.5325  0.4463
10199TIP3   OH252087   0.921   2.013   3.557 -0.0224 -0.8788  0.1386
10199TIP3    H152088   0.966   2.066   3.491  0.9848 -0.7874  0.8988
10199TIP3    H252089   0.828   2.027   3.539  0.2403 -0.2573 -0.7814
10200TIP3   OH252090   4.063   4.543  11.411 -0.1192 -0.3490  0.0507
10200TIP3    H152091   4.018   4.590  11.482  1.3028 -0.3620  0.9768
10200TIP3    H252092   3.999   4.479  11.381 -0.9875  0.1194  0.8580
10201TIP3   OH252093   1.030   5.999   3.036  0.0504 -0.7266  0.4345
10201TIP3    H152094   0.974   6.022   3.110 -1.4167 -1.3402 -0.4640
10201TIP3    H252095   1.097   5.941   3.073 -1.4302 -2.0604  1.0408
10202TIP3   OH252096   1.114   5.975  10.669  0.0861  0.3949  0.1078
10202TIP3    H152097   1.180   5.928  10.619  0.0340 -0.7729  1.1244
10202TIP3    H252098   1.050   5.909  10.694 -0.2224  1.0771  1.1783
10203TIP3   OH252099   6.252   2.175   2.274  0.0550  0.2817 -0.7812
10203TIP3    H152100   6.323   2.174   2.339  0.6520  1.3068 -1.4067
10203TIP3    H252101   6.200   2.098   2.295  0.6960  0.1539  0.4199
10204TIP3   OH252102   1.299   3.156   4.356 -0.1972 -0.2613 -0.4698
10204TIP3    H152103   1.392   3.165   4.334 -0.3433  0.4268 -0.8148
10204TIP3    H252104   1.260   3.112   4.281 -0.4330  0.8336 -1.0037
10205TIP3   OH252105   5.352   3.315   5.875 -0.0316 -0.1653  0.2593
10205TIP3    H152106   5.259   3.335   5.865 -0.0966 -0.9332 -0.7556
10205TIP3    H252107   5.390   3.394   5.912 -0.6744  0.9960 -1.5303
10206TIP3   OH252108   2.215   4.389   2.161 -0.6134  0.2034 -0.7066
10206TIP3    H152109   2.166   4.373   2.242 -2.1128 -0.1818 -1.6683
10206TIP3    H252110   2.147   4.394   2.094  0.6167  0.6750 -1.9151
10207TIP3   OH252111   4.989   3.905  12.455 -0.3215  0.8474  0.3072
10207TIP3    H152112   5.048   3.833  12.475 -0.8107 -0.2750 -2.1601
10207TIP3    H252113   4.927   3.907  12.528  0.7102 -0.1270  1.2178
10208TIP3   OH252114   6.732   0.427   3.178 -0.6413 -0.3848  0.4307
10208TIP3    H152115   6.670   0.472   3.235 -2.2126 -2.7554  0.6660
10208TIP3    H252116   6.692   0.341   3.162  0.9056 -0.6587 -2.2928
10209TIP3   OH252117   4.192   3.867  13.711 -0.1811  0.2503  0.0825
10209TIP3    H152118   4.185   3.962  13.718  0.3847  0.2136  1.5472
10209TIP3    H252119   4.217   3.850  13.621  1.6431  1.6390  0.3076
10210TIP3   OH252120   6.387   0.936   6.164  0.2399 -1.1066 -0.4397
10210TIP3    H152121   6.401   0.842   6.161 -0.5031 -1.2858  0.9961
10210TIP3    H252122   6.292   0.946   6.171  0.3038 -0.2533 -0.7542
10211TIP3   OH252123   0.750   0.815   5.309 -0.1058  0.5204  0.0725
10211TIP3    H152124   0.751   0.906   5.338  0.0767  1.2262 -2.0378
10211TIP3    H252125   0.658   0.797   5.292  0.0923  1.1048 -1.7817
10212TIP3   OH252126   0.934   5.596   3.740  0.2860 -0.0968  0.3374
10212TIP3    H152127   0.903   5.659   3.675  0.7758 -0.5724 -0.3719
10212TIP3    H252128   1.012   5.557   3.699  1.4625  0.6472  1.8185
10213TIP3   OH252129   0.644   3.510   0.797  0.1702 -0.0639  0.4725
10213TIP3    H152130   0.615   3.442   0.736  1.9214  0.3644 -0.9002
10213TIP3    H252131   0.563   3.549   0.830 -0.8508 -2.7100  1.2045
10214TIP3   OH252132   6.040   6.625   0.576  0.0975  0.4889  0.2210
10214TIP3    H152133   6.076   6.557   0.519 -0.2632 -1.1066  1.8535
10214TIP3    H252134   6.069   6.708   0.537  2.5358 -0.6593 -0.4741
10215TIP3   OH252135   6.450   4.110   1.408  0.0446 -0.0115 -0.6445
10215TIP3    H152136   6.532   4.152   1.432  1.1658 -2.9744  0.8898
10215TIP3    H252137   6.450   4.109   1.313  0.9876  1.5155 -0.6715
10216TIP3   OH252138   5.661   3.696  12.382  0.6036 -0.2831  0.1241
10216TIP3    H152139   5.606   3.772  12.400  0.7872 -0.2937  0.7580
10216TIP3    H252140   5.605   3.621  12.404  0.7017 -0.3059  0.3012
10217TIP3   OH252141   5.184   0.582  13.293  0.3113 -0.4377  0.1762
10217TIP3    H152142   5.271   0.556  13.325  0.3502 -0.8377 -0.2505
10217TIP3    H252143   5.124   0.518  13.332  0.1921 -0.1197  0.5289
10218TIP3   OH252144   0.262   1.332  13.138  0.0981  0.1328  0.6701
10218TIP3    H152145   0.320   1.287  13.200 -0.7343  0.3125  1.5980
10218TIP3    H252146   0.228   1.262  13.081 -0.0184 -0.2014  1.1464
10219TIP3   OH252147   6.051   0.855   5.676  0.4340 -0.0976  0.0941
10219TIP3    H152148   6.138   0.823   5.700  0.0562 -2.4615 -1.5121
10219TIP3    H252149   5.991   0.811   5.735  0.2997  1.5742  1.2384
10220TIP3   OH252150   3.086   1.397  14.810  0.2318  0.3924 -0.0189
10220TIP3    H152151   3.083   1.370  14.902  0.7066  0.9606  0.1670
10220TIP3    H252152   3.013   1.351  14.769  1.0033 -1.1325  0.3009
10221TIP3   OH252153   1.664   1.228  12.888 -0.0097  0.3778  0.0436
10221TIP3    H152154   1.687   1.281  12.812 -1.6256  1.2270  0.1155
10221TIP3    H252155   1.598   1.280  12.934  0.4171 -0.4436  1.6434
10222TIP3   OH252156   0.140   1.624   3.166 -0.6804 -0.0207 -0.0895
10222TIP3    H152157   0.187   1.658   3.242 -0.4492 -1.5726  0.4832
10222TIP3    H252158   0.056   1.670   3.166  0.3521  1.8850 -0.4137
10223TIP3   OH252159   0.681   5.835   0.213 -0.1108 -0.3056  0.0538
10223TIP3    H152160   0.760   5.888   0.222 -0.3674  0.3210 -1.2161
10223TIP3    H252161   0.712   5.746   0.199  0.3848  0.0509 -1.1299
10224TIP3   OH252162   5.973   4.050  15.636  0.0440 -0.3441  0.0630
10224TIP3    H152163   6.055   4.069  15.681  0.0577  0.0427 -0.1277
10224TIP3    H252164   5.906   4.056  15.704  0.1033 -0.0864  0.0982
10225TIP3   OH252165   0.790   3.398  11.106 -0.4358  1.2495  0.3256
10225TIP3    H152166   0.696   3.380  11.105 -0.4866  1.2866 -3.5026
10225TIP3    H252167   0.831   3.314  11.129 -1.3061  0.3730 -1.2465
10226TIP3   OH252168   6.125   5.572  10.890 -0.0563 -0.2394 -0.1295
10226TIP3    H152169   6.109   5.478  10.881 -1.1341 -0.1628  0.9953
10226TIP3    H252170   6.202   5.578  10.946 -0.8886 -0.4257  1.0490
10227TIP3   OH252171   5.538   2.630   4.394 -0.2164  0.0517  0.1907
10227TIP3    H152172   5.566   2.541   4.416 -0.5401 -0.1602 -0.2355
10227TIP3    H252173   5.615   2.671   4.355  0.2311  0.2879  1.3070
10228TIP3   OH252174   4.320   2.627  14.060 -0.1432 -0.0249  0.2848
10228TIP3    H152175   4.350   2.707  14.102 -0.8079  0.8045 -0.7875
10228TIP3    H252176   4.389   2.604  13.998 -0.6662  0.6144 -0.5473
10229TIP3   OH252177   3.151   3.624  10.527 -0.2450 -0.1941  0.5406
10229TIP3    H152178   3.219   3.688  10.550 -0.3598  1.4797 -3.4146
10229TIP3    H252179   3.181   3.542  10.567  2.4866  1.2195  1.5303
10230TIP3   OH252180   3.371   6.238   0.378 -0.0368  0.4359 -0.4574
10230TIP3    H152181   3.407   6.189   0.305 -0.7027  0.0965 -0.5593
10230TIP3    H252182   3.373   6.177   0.451 -1.2552  0.1158 -0.6854
10231TIP3   OH252183   1.503   5.762   0.266  0.3014 -0.2733 -0.5396
10231TIP3    H152184   1.413   5.745   0.295  0.1700 -1.1964 -1.4931
10231TIP3    H252185   1.554   5.689   0.301  0.5724 -0.1067 -0.5828
10232TIP3   OH252186   4.653   2.368  10.673 -0.4144  0.0323 -0.1457
10232TIP3    H152187   4.709   2.431  10.629  1.9969 -1.5789  0.5119
10232TIP3    H252188   4.566   2.383  10.636  0.7054  1.6512 -2.2151
10233TIP3   OH252189   5.312   1.820   2.630  0.6704 -0.4396  0.0086
10233TIP3    H152190   5.232   1.813   2.681  1.1697 -0.3926  0.8185
10233TIP3    H252191   5.302   1.757   2.560  1.0301 -2.3507  1.6309
10234TIP3   OH252192   6.024   4.003   3.607  0.1699 -0.0294 -0.6965
10234TIP3    H152193   5.940   4.026   3.648 -0.3242 -0.7865 -1.2578
10234TIP3    H252194   6.072   3.957   3.675  0.2795  0.7102 -0.2612
10235TIP3   OH252195   6.550   0.336   2.345 -0.0803  0.0286  0.1039
10235TIP3    H152196   6.475   0.366   2.293 -0.0807 -0.5078 -0.2040
10235TIP3    H252197   6.573   0.412   2.400  0.0048  0.6368 -0.7669
10236TIP3   OH252198   0.288   0.848   2.582 -0.0082  0.2951  0.4971
10236TIP3    H152199   0.343   0.828   2.658  1.5893 -1.5002 -1.0888
10236TIP3    H252200   0.210   0.794   2.595  1.0709 -1.4371 -0.0422
10237TIP3   OH252201   6.514   2.762  15.430  0.4008  0.2476 -0.0818
10237TIP3    H152202   6.573   2.731  15.361 -0.4726 -0.7939 -0.3771
10237TIP3    H252203   6.427   2.729  15.404 -0.4458  2.3710 -0.0375
10238TIP3   OH252204   3.347   3.852   5.665 -0.2782  0.1101  0.4183
10238TIP3    H152205   3.368   3.925   5.607 -2.8854  0.3742 -0.2607
10238TIP3    H252206   3.331   3.778   5.606 -0.0339 -0.3858  0.9677
10239TIP3   OH252207   2.506   0.295  16.908  0.0319 -0.2888  0.0742
10239TIP3    H152208   2.560   0.240  16.850 -0.1645  0.7468 -1.0906
10239TIP3    H252209   2.510   0.382  16.869 -3.3822 -0.3879 -0.6646
10240TIP3   OH252210   2.974   3.134   2.192 -0.1608 -0.4652 -0.6284
10240TIP3    H152211   2.950   3.044   2.170 -0.7405 -0.5681  0.4149
10240TIP3    H252212   2.976   3.179   2.107 -0.9039 -1.2050 -1.0532
10241TIP3   OH252213   0.264   3.699  13.759 -0.3241  0.3582 -0.0710
10241TIP3    H152214   0.238   3.732  13.674 -0.7684  0.5525  0.1407
10241TIP3    H252215   0.189   3.649  13.790 -0.0114 -0.0526  0.0277
10242TIP3   OH252216   4.642   6.436   0.817 -0.1690 -0.0995  0.0917
10242TIP3    H152217   4.630   6.389   0.900 -0.3131 -0.4332 -0.1181
10242TIP3    H252218   4.596   6.383   0.752 -0.4678  0.4185 -0.1222
10243TIP3   OH252219   0.225   1.878   2.273 -0.0496 -0.0473 -0.0777
10243TIP3    H152220   0.239   1.910   2.184  0.4224  1.2940  0.4705
10243TIP3    H252221   0.131   1.860   2.277  0.0536 -0.8335 -1.0781
10244TIP3   OH252222   3.583   0.579   2.872 -0.3727 -0.6702  0.5132
10244TIP3    H152223   3.565   0.534   2.789  0.6570  1.2454 -0.7922
10244TIP3    H252224   3.496   0.596   2.909 -1.0257  1.5062 -1.8770
10245TIP3   OH252225   6.260   6.678  13.692 -0.0924  0.0951 -0.2419
10245TIP3    H152226   6.333   6.618  13.684  0.3213  0.6812 -0.8781
10245TIP3    H252227   6.220   6.656  13.777  0.3769 -0.7038 -0.2222
10246TIP3   OH252228   1.789   3.583  14.297 -0.2817 -0.0434  0.2564
10246TIP3    H152229   1.762   3.540  14.216 -1.4565 -2.3561  1.8029
10246TIP3    H252230   1.707   3.608  14.339  0.2426 -0.1840  1.3957
10247TIP3   OH252231   5.190   3.760  13.414 -0.0925  0.0191  0.2221
10247TIP3    H152232   5.177   3.668  13.438 -0.8043 -0.2640 -1.1701
10247TIP3    H252233   5.119   3.779  13.353  0.1125  1.4758  0.4073
10248TIP3   OH252234   2.156   5.128   3.957  0.6104  0.0342 -0.2225
10248TIP3    H152235   2.153   5.064   4.028 -1.1114  1.3219  0.9094
10248TIP3    H252236   2.135   5.078   3.878 -2.0367 -0.5792  0.8231
10249TIP3   OH252237   3.722   3.926   5.843 -0.4290  0.0091  0.3898
10249TIP3    H152238   3.806   3.971   5.851 -0.8533  0.5812  1.6806
10249TIP3    H252239   3.669   3.984   5.789  0.6130 -1.2591 -2.0887
10250TIP3   OH252240   4.546   0.558  14.489  0.5252  0.3314 -0.1233
10250TIP3    H152241   4.504   0.498  14.427 -0.9647 -0.3782  1.5309
10250TIP3    H252242   4.510   0.644  14.468  0.9971  0.3044 -1.0640
10251TIP3   OH252243   1.289   0.263  15.551 -0.3096 -0.0817 -0.1836
10251TIP3    H152244   1.379   0.289  15.571  0.1831 -1.8128 -0.0659
10251TIP3    H252245   1.235   0.323  15.603  0.7798  0.7062  0.0602
10252TIP3   OH252246   4.831   3.005  14.360 -0.8195 -0.3542 -0.3069
10252TIP3    H152247   4.790   2.944  14.298 -1.4683 -1.3885  1.1263
10252TIP3    H252248   4.925   2.986  14.353 -0.9869 -1.2594 -0.1515
10253TIP3   OH252249   0.149   2.415  11.889 -0.6868 -0.4445 -0.3395
10253TIP3    H152250   0.115   2.505  11.895  2.2544  0.7978 -1.5616
10253TIP3    H252251   0.192   2.400  11.972 -2.6517 -1.3915  0.5378
10254TIP3   OH252252   5.494   0.979  16.577  0.2159  0.0963 -0.4901
10254TIP3    H152253   5.456   0.929  16.504 -0.6838 -0.1065  0.0970
10254TIP3    H252254   5.583   0.946  16.585 -0.3135 -1.3202 -0.2191
10255TIP3   OH252255   0.967   6.685  11.347 -0.2084 -0.7291 -0.0974
10255TIP3    H152256   0.901   6.635  11.299  1.3112 -0.1463 -2.8849
10255TIP3    H252257   1.032   6.620  11.373 -0.8874 -1.0015  0.9331
10256TIP3   OH252258   4.370   0.844   3.695  0.1948  0.1396  0.5712
10256TIP3    H152259   4.292   0.806   3.656  1.0586 -2.1808  1.0392
10256TIP3    H252260   4.433   0.849   3.622  0.4742 -0.4351  0.7731
10257TIP3   OH252261   0.233   1.216  17.229  0.5735  0.2735 -0.0586
10257TIP3    H152262   0.231   1.290  17.290  0.6627  0.3606 -0.1581
10257TIP3    H252263   0.325   1.208  17.204  0.8839 -1.1867  1.5313
10258TIP3   OH252264   5.209   2.632  15.911 -0.5306  0.5334  0.0928
10258TIP3    H152265   5.252   2.709  15.874  0.5089  0.9155  1.9867
10258TIP3    H252266   5.272   2.560  15.898 -1.1901  0.1550 -1.0271
10259TIP3   OH252267   2.003   4.372   1.962  0.5736  0.1423 -0.2551
10259TIP3    H152268   1.929   4.367   2.022  1.2811  0.5387  0.6613
10259TIP3    H252269   1.973   4.431   1.893  0.3532  1.0401  0.5885
10260TIP3   OH252270   0.011   2.570  10.454 -0.3949 -0.2956  0.1164
10260TIP3    H152271  -0.059   2.506  10.445  1.5613 -2.2138 -2.1936
10260TIP3    H252272   0.002   2.625  10.376 -0.4219  0.5829  0.7356
10261TIP3   OH252273   4.916   0.761   1.402 -0.7740  0.3265 -0.1398
10261TIP3    H152274   4.846   0.726   1.346  0.1885 -0.0831 -1.1026
10261TIP3    H252275   4.949   0.837   1.354 -0.7384  0.6873  0.4503
10262TIP3   OH252276   0.482   6.744   1.957 -0.0927  0.2144 -0.1606
10262TIP3    H152277   0.540   6.812   1.991  0.5781 -0.2917 -0.2852
10262TIP3    H252278   0.480   6.678   2.027  1.6060 -1.0199 -1.2516
10263TIP3   OH252279   2.098   3.590   6.499 -0.0668  0.0212 -0.0532
10263TIP3    H152280   2.177   3.539   6.479 -0.0151 -0.1163  0.4832
10263TIP3    H252281   2.130   3.664   6.552 -0.2243  0.2729 -0.3048
10264TIP3   OH252282   2.691   1.193   0.664 -0.0733  0.0525 -0.8094
10264TIP3    H152283   2.660   1.220   0.750  4.0696  0.5826  0.6394
10264TIP3    H252284   2.623   1.223   0.603 -3.0864 -0.3821  2.2423
10265TIP3   OH252285   3.538   6.152   2.588  0.0685 -0.5609 -0.4819
10265TIP3    H152286   3.584   6.144   2.671 -1.4740  0.4803  0.4966
10265TIP3    H252287   3.588   6.216   2.538  1.3124 -1.6003 -0.6056
10266TIP3   OH252288   3.705   0.751   2.125 -0.4189  0.8486 -0.4113
10266TIP3    H152289   3.672   0.786   2.042  1.1886  0.8600 -1.0458
10266TIP3    H252290   3.646   0.790   2.191 -1.9069  0.5767 -1.5431
10267TIP3   OH252291   0.329   3.931   0.711 -0.1621  0.2618 -0.1241
10267TIP3    H152292   0.380   3.850   0.708 -0.0589  0.3542 -0.9320
10267TIP3    H252293   0.345   3.966   0.799  0.3747 -0.2194 -0.0283
10268TIP3   OH252294   5.593   6.197   0.682 -0.0666  0.1062 -0.1923
10268TIP3    H152295   5.660   6.139   0.644 -1.0244 -2.5700  2.0175
10268TIP3    H252296   5.625   6.216   0.771 -0.4710  1.8533 -0.3957
10269TIP3   OH252297   2.755   2.709  10.670  0.1747  0.0682  0.0233
10269TIP3    H152298   2.780   2.786  10.721  2.1498  0.7351 -1.8552
10269TIP3    H252299   2.660   2.703  10.680 -0.0928  3.0878 -0.2051
10270TIP3   OH252300   0.496   5.486   1.722 -0.0109 -0.1589 -0.0464
10270TIP3    H152301   0.498   5.571   1.678 -2.3520 -0.9359 -1.7694
10270TIP3    H252302   0.586   5.471   1.750  0.8952  1.8472 -1.7856
10271TIP3   OH252303   4.539   1.732   6.217  1.1915  0.5196 -0.2775
10271TIP3    H152304   4.538   1.725   6.312 -1.7911  1.0409 -0.2444
10271TIP3    H252305   4.518   1.644   6.186  0.0386  0.8371 -0.4106
10272TIP3   OH252306   2.593   0.143  15.249  0.5589 -0.0208  0.3048
10272TIP3    H152307   2.523   0.173  15.190  0.4125  1.2293  1.1075
10272TIP3    H252308   2.633   0.070  15.202 -1.2583 -0.7296 -0.1930
10273TIP3   OH252309   6.087   3.547   1.551  0.1434  0.4304  0.5592
10273TIP3    H152310   6.137   3.471   1.581 -1.0576 -0.8108 -0.5366
10273TIP3    H252311   6.104   3.614   1.617  0.0001 -1.2755  2.3715
10274TIP3   OH252312   6.598   6.201  15.245  0.4001 -0.3226  0.3382
10274TIP3    H152313   6.672   6.253  15.276  0.1957  0.9738 -1.2713
10274TIP3    H252314   6.627   6.166  15.160 -1.6347  2.1476 -1.4598
10275TIP3   OH252315   0.971   4.883  16.621 -0.0195 -0.4463  0.1296
10275TIP3    H152316   0.925   4.800  16.608 -0.2168 -0.0916 -1.4661
10275TIP3    H252317   0.978   4.921  16.534  2.3027  0.0332  0.4876
10276TIP3   OH252318   2.877   5.216   1.704 -0.2390 -0.1261 -0.1229
10276TIP3    H152319   2.894   5.263   1.786  0.1262  0.5096 -0.5561
10276TIP3    H252320   2.909   5.275   1.636 -2.0985  0.0987 -0.8376
10277TIP3   OH252321   0.651   3.982  13.688 -0.2296 -0.4109 -0.6916
10277TIP3    H152322   0.701   4.015  13.762 -0.6765  1.4996 -1.2333
10277TIP3    H252323   0.594   3.915  13.725  0.5353 -0.4419  0.4383
10278TIP3   OH252324   2.209   0.129   4.614  0.2130 -0.4350 -0.2991
10278TIP3    H152325   2.302   0.110   4.624  0.6378  1.7277  0.1320
10278TIP3    H252326   2.204   0.183   4.534 -0.4846  0.5911  0.4172
10279TIP3   OH252327   0.287   5.069  16.972  0.3512  0.0194 -0.0568
10279TIP3    H152328   0.365   5.023  16.941  0.2618 -0.9053  1.0665
10279TIP3    H252329   0.214   5.021  16.932  0.2740 -0.5748  0.7865
10280TIP3   OH252330   4.778   1.649   1.003  0.3056  0.2047  0.5051
10280TIP3    H152331   4.714   1.624   0.937  0.9530 -3.7185  1.2079
10280TIP3    H252332   4.836   1.711   0.959 -1.3235  0.3306 -1.5075
10281TIP3   OH252333   2.773   6.720  11.762 -0.2184 -0.1260 -0.3256
10281TIP3    H152334   2.770   6.646  11.701 -1.0102  0.9272 -1.5851
10281TIP3    H252335   2.727   6.790  11.717  1.5064  1.4980  0.3790
10282TIP3   OH252336   2.016   6.514  11.299 -0.0926  0.6477 -0.3383
10282TIP3    H152337   2.069   6.444  11.261 -1.4855 -1.9313  2.2537
10282TIP3    H252338   1.932   6.509  11.252 -1.4108 -1.7873  2.1465
10283TIP3   OH252339   6.659   0.956   0.435 -0.5736 -0.2941 -0.0252
10283TIP3    H152340   6.673   1.051   0.431 -2.1625  0.0289  1.3949
10283TIP3    H252341   6.575   0.943   0.390 -1.9928 -0.5950  2.6049
10284TIP3   OH252342   6.684   2.266  12.122  0.0739 -0.6260  0.2466
10284TIP3    H152343   6.651   2.279  12.033 -0.3181  1.2389  0.6407
10284TIP3    H252344   6.776   2.241  12.110 -0.5127 -2.3637 -0.7373
10285TIP3   OH252345   2.203   5.993   1.643 -0.1164  0.0030  0.0907
10285TIP3    H152346   2.224   5.901   1.625 -2.6075 -0.5227 -0.3390
10285TIP3    H252347   2.266   6.019   1.710  0.4337 -2.1190  0.4371
10286TIP3   OH252348   1.643   0.975   2.902  0.1140  0.0339 -0.2945
10286TIP3    H152349   1.635   0.892   2.855  2.2274 -0.3780  0.0230
10286TIP3    H252350   1.704   1.027   2.849  0.4283  0.5899  0.5976
10287TIP3   OH252351   3.052   4.747  11.473 -0.1327 -0.2202 -0.1796
10287TIP3    H152352   3.010   4.663  11.457 -1.6097  0.5248 -0.3026
10287TIP3    H252353   3.086   4.740  11.562 -3.0618  0.1711  1.0358
10288TIP3   OH252354   5.540   2.136   5.672 -0.5048 -0.0817  0.1913
10288TIP3    H152355   5.477   2.067   5.692 -1.7925  1.1293  0.3607
10288TIP3    H252356   5.616   2.116   5.727 -1.2416 -0.7954  0.9595
10289TIP3   OH252357   3.336   4.699   6.242  0.1208  0.5243 -0.6743
10289TIP3    H152358   3.258   4.697   6.186 -0.0446 -0.7719 -0.4090
10289TIP3    H252359   3.331   4.618   6.293  1.9443  0.1627 -1.0480
10290TIP3   OH252360   6.004   6.191   2.535 -0.0918  0.1989 -0.3944
10290TIP3    H152361   6.009   6.108   2.487  0.2951 -1.0475  1.7482
10290TIP3    H252362   6.072   6.245   2.496 -0.0782 -0.6204 -1.5525
10291TIP3   OH252363   4.355   5.042   5.127  0.5114  0.4443 -0.1030
10291TIP3    H152364   4.316   4.955   5.130  1.0963  0.2189  1.2523
10291TIP3    H252365   4.364   5.061   5.033 -0.8221 -0.3966 -0.4122
10292TIP3   OH252366   0.143   0.141  17.138 -0.0451  0.2487  0.3378
10292TIP3    H152367   0.234   0.111  17.135 -0.1161  0.0435  0.1875
10292TIP3    H252368   0.123   0.146  17.231  0.2231  0.6147  0.3767
10293TIP3   OH252369   5.883   5.778  15.668 -0.5007  0.3309  0.4958
10293TIP3    H152370   5.972   5.770  15.633 -0.7914  2.0343 -0.6740
10293TIP3    H252371   5.888   5.848  15.732 -1.2942  1.4476 -0.6332
10294TIP3   OH252372   1.878   1.670   4.099 -0.5601 -0.4982 -0.4746
10294TIP3    H152373   1.820   1.612   4.050 -2.3678  0.5204  0.3892
10294TIP3    H252374   1.883   1.749   4.046  0.5354 -0.8205 -0.8434
10295TIP3   OH252375   5.177   6.717   0.536 -0.2894  0.0324 -0.0457
10295TIP3    H152376   5.161   6.668   0.455  1.9516  0.3022 -0.7029
10295TIP3    H252377   5.272   6.726   0.539 -0.5315  2.6611  1.0632
10296TIP3   OH252378   4.637   1.794   5.832 -0.5925 -0.2363 -0.2048
10296TIP3    H152379   4.621   1.833   5.919 -3.8014 -2.2660  0.1882
10296TIP3    H252380   4.724   1.826   5.808 -0.9201  2.9397  2.3658
10297TIP3   OH252381   4.966   1.004  15.299 -0.5812 -0.5039  0.2847
10297TIP3    H152382   4.914   1.081  15.273  0.1539 -0.7804 -2.1406
10297TIP3    H252383   4.901   0.943  15.335 -1.6810 -0.0642 -0.8846
10298TIP3   OH252384   4.028   4.646   4.235  0.4219  0.3294 -0.2101
10298TIP3    H152385   4.026   4.720   4.295 -0.8192  0.2599 -0.1553
10298TIP3    H252386   4.008   4.570   4.289 -0.1770  0.1949 -0.6175
10299TIP3   OH252387   4.532   0.932   4.485 -0.5390 -0.0313  0.2702
10299TIP3    H152388   4.604   0.870   4.473 -1.0404 -0.6437  0.3947
10299TIP3    H252389   4.521   0.973   4.399 -0.9810 -0.9716 -0.1263
10300TIP3   OH252390   2.984   3.929   2.984  0.4097  0.0807 -0.5858
10300TIP3    H152391   2.985   3.943   2.890 -1.9814 -2.4747 -1.0598
10300TIP3    H252392   2.924   3.995   3.018  0.4286  0.2996 -0.9791
10301TIP3   OH252393   4.636   1.721  11.636 -0.7325  0.4973 -0.1791
10301TIP3    H152394   4.730   1.727  11.617 -0.5429 -0.3564  0.4459
10301TIP3    H252395   4.608   1.811  11.650 -0.4042  0.9393 -2.2716
10302TIP3   OH252396   3.592   3.697   1.253 -0.3501 -0.1826 -0.3387
10302TIP3    H152397   3.499   3.715   1.271  0.1505  2.2425  0.0138
10302TIP3    H252398   3.636   3.722   1.334  0.7750  0.1850 -1.0610
10303TIP3   OH252399   3.132   5.428   6.433 -0.5875 -0.3272  0.1986
10303TIP3    H152400   3.224   5.431   6.460 -0.4182 -0.4352 -0.3524
10303TIP3    H252401   3.120   5.339   6.400 -0.3188  0.3179 -1.7017
10304TIP3   OH252402   4.986   3.645  11.976  0.4887 -0.2467  0.2656
10304TIP3    H152403   4.970   3.572  11.915  0.0184 -0.1607  0.2877
10304TIP3    H252404   4.985   3.604  12.063  0.1170 -0.1930  0.2848
10305TIP3   OH252405   5.024   1.742   2.492  0.1986  0.3062  0.1581
10305TIP3    H152406   5.024   1.802   2.566  0.4759 -1.3617  1.5607
10305TIP3    H252407   5.068   1.790   2.421  2.2960  0.9887  1.8810
10306TIP3   OH252408   5.622   1.147   0.611  0.0681 -0.0228 -0.0105
10306TIP3    H152409   5.636   1.099   0.692  0.6777 -0.7562 -0.5450
10306TIP3    H252410   5.683   1.221   0.616  2.4231 -1.8065 -1.1967
10307TIP3   OH252411   3.190   2.831   2.018 -0.1873  0.4062 -1.0724
10307TIP3    H152412   3.151   2.803   2.101 -2.2704  4.3784 -0.5888
10307TIP3    H252413   3.279   2.859   2.042 -1.2942  2.9940  0.1846
10308TIP3   OH252414   0.764   1.361   0.520 -0.3134  0.6545 -0.4346
10308TIP3    H152415   0.741   1.269   0.532 -2.6274  0.9202 -2.4432
10308TIP3    H252416   0.706   1.408   0.580 -1.9784  1.0201 -2.2638
10309TIP3   OH252417   3.788   5.498  11.814 -0.1792  0.6298 -0.2233
10309TIP3    H152418   3.771   5.592  11.818  1.8118  0.9384  1.8495
10309TIP3    H252419   3.747   5.463  11.893  2.0410  0.2933  0.8200
10310TIP3   OH252420   3.133   4.041  12.159 -0.0194 -0.1398  0.2830
10310TIP3    H152421   3.117   3.982  12.233 -1.6161  1.8170  1.5371
10310TIP3    H252422   3.219   4.014  12.126  0.5591 -1.2998  2.6155
10311TIP3   OH252423   3.739   0.255   1.818 -0.2380 -0.4827  0.9914
10311TIP3    H152424   3.809   0.190   1.809  3.2195  3.0523  0.7324
10311TIP3    H252425   3.702   0.262   1.730  0.7501 -0.6804  0.5460
10312TIP3   OH252426   2.291   4.791   2.774 -0.1325  0.3535  0.0822
10312TIP3    H152427   2.245   4.717   2.814  0.9142  0.3217  1.2439
10312TIP3    H252428   2.295   4.770   2.681 -0.7721 -0.5530  0.2628
10313TIP3   OH252429   1.812   3.779  12.574 -0.6498 -0.2393  0.1022
10313TIP3    H152430   1.733   3.827  12.599 -0.1741 -0.1875  1.5198
10313TIP3    H252431   1.859   3.765  12.656  0.4701 -0.8985 -0.6394
10314TIP3   OH252432   1.425   5.237  12.578  0.0867 -0.1644  0.2572
10314TIP3    H152433   1.457   5.150  12.601  1.6640  0.3840  0.1872
10314TIP3    H252434   1.377   5.266  12.656 -4.0067 -2.7130 -1.1779
10315TIP3   OH252435   4.497   5.552   2.190 -0.2234 -0.1883 -0.0991
10315TIP3    H152436   4.497   5.647   2.202 -1.4066  0.0222 -1.4952
10315TIP3    H252437   4.419   5.522   2.238  0.8517 -0.6243  1.4013
10316TIP3   OH252438   1.924   5.680   5.176  0.0351  0.2281  0.2614
10316TIP3    H152439   1.986   5.681   5.103 -1.7552 -1.8325 -1.3285
10316TIP3    H252440   1.873   5.760   5.165  0.7442  0.6674  0.1289
10317TIP3   OH252441   1.535   1.866  11.214 -0.2843  0.2097  0.0668
10317TIP3    H152442   1.565   1.894  11.127 -0.1728 -0.6120 -0.1636
10317TIP3    H252443   1.440   1.875  11.211 -0.4731 -1.8211 -0.8718
10318TIP3   OH252444   6.530   5.408  13.671 -0.0157 -0.2272  0.3418
10318TIP3    H152445   6.466   5.365  13.727 -0.6355  0.3469  0.0890
10318TIP3    H252446   6.599   5.343  13.658 -1.5402 -1.6287 -1.1003
10319TIP3   OH252447   5.217   5.171   1.318  0.2756 -0.3092  0.3674
10319TIP3    H152448   5.282   5.149   1.384  0.3633 -0.4798  0.2235
10319TIP3    H252449   5.267   5.188   1.239  0.1007 -1.1214  0.0749
10320TIP3   OH252450   1.913   6.245  12.358 -0.6380 -0.5555 -0.3623
10320TIP3    H152451   1.838   6.275  12.307  0.6121  0.5750 -1.5899
10320TIP3    H252452   1.989   6.288  12.317  0.5652 -0.8579  1.4879
10321TIP3   OH252453   5.346   6.433  11.243 -0.1036 -0.1497 -0.1400
10321TIP3    H152454   5.292   6.357  11.266 -0.1149 -0.2142 -0.3777
10321TIP3    H252455   5.291   6.485  11.184  0.6738 -1.0416 -1.7080
10322TIP3   OH252456   6.590   4.985   0.606 -0.3227  0.2023  0.2348
10322TIP3    H152457   6.635   5.001   0.523 -1.7819  2.0471 -0.2448
10322TIP3    H252458   6.590   4.890   0.616  1.6706  0.0588 -0.8574
10323TIP3   OH252459   2.538   6.428  11.071  0.7325  0.4954 -0.7150
10323TIP3    H152460   2.525   6.352  11.014 -1.2387  0.2507  0.0284
10323TIP3    H252461   2.613   6.404  11.126  1.3782 -0.0880 -1.8420
10324TIP3   OH252462   4.023   1.355  13.827 -0.0759  0.0306  0.5001
10324TIP3    H152463   4.090   1.367  13.759  0.0115  0.6488  0.6911
10324TIP3    H252464   3.951   1.411  13.799 -0.6811 -0.9326  0.0883
10325TIP3   OH252465   4.238   2.972   5.238  0.2622  0.3731 -0.1571
10325TIP3    H152466   4.331   2.962   5.216  0.0238  0.5857 -1.3382
10325TIP3    H252467   4.223   2.910   5.309  0.9698 -0.7559 -0.9639
10326TIP3   OH252468   3.387   1.880   0.860 -0.5706  0.2671  0.7743
10326TIP3    H152469   3.359   1.901   0.771 -1.6482 -0.5150  0.9198
10326TIP3    H252470   3.388   1.965   0.906  1.3666  0.8843 -0.3308
10327TIP3   OH252471   1.564   0.871  12.700 -1.1007 -0.6195 -0.1156
10327TIP3    H152472   1.657   0.894  12.694 -1.3681  0.7968  1.0218
10327TIP3    H252473   1.538   0.854  12.609 -0.0369  0.1807 -0.5752
10328TIP3   OH252474   6.012   4.999   4.025  0.1921 -0.2612  0.1499
10328TIP3    H152475   6.100   5.036   4.017  0.0461  0.1122  0.2939
10328TIP3    H252476   5.964   5.061   4.080 -0.7076  0.4907 -1.4363
10329TIP3   OH252477   3.998   4.702  13.320  0.2963  0.1546 -0.7476
10329TIP3    H152478   3.928   4.741  13.268 -0.2697  0.0671 -0.0704
10329TIP3    H252479   4.006   4.759  13.396 -0.6814 -1.1221  0.3559
10330TIP3   OH252480   4.904   5.628   6.547 -0.0509 -0.2173  0.6214
10330TIP3    H152481   4.868   5.600   6.463  0.0629 -1.0802  0.8523
10330TIP3    H252482   4.925   5.720   6.535  0.1102 -0.3755 -0.3511
10331TIP3   OH252483   1.409   2.347   4.332 -0.4230  0.3501  0.1410
10331TIP3    H152484   1.324   2.373   4.367 -0.5593 -2.8371  2.3932
10331TIP3    H252485   1.401   2.363   4.238 -3.1647  1.0229  0.4224
10332TIP3   OH252486   1.934   5.976   0.550  0.0686  0.0739 -0.1496
10332TIP3    H152487   1.889   5.921   0.486  0.0769  0.2643 -0.3221
10332TIP3    H252488   1.938   5.923   0.630 -0.9833  0.2768  0.0448
10333TIP3   OH252489   0.296   4.594   5.231  0.1469  0.3504  0.5905
10333TIP3    H152490   0.362   4.533   5.198 -0.4155 -0.0231  0.1445
10333TIP3    H252491   0.308   4.593   5.326 -0.0332 -0.6602  0.6104
10334TIP3   OH252492   6.807   5.349  13.852 -0.0086  0.4089 -0.6298
10334TIP3    H152493   6.827   5.421  13.793  0.2555  0.7503 -0.1233
10334TIP3    H252494   6.764   5.284  13.796  0.8184  0.4563 -1.3275
10335TIP3   OH252495   0.642   6.249   5.122  0.0833  0.3600 -0.2137
10335TIP3    H152496   0.737   6.242   5.108  0.1867  1.3314 -0.0444
10335TIP3    H252497   0.610   6.159   5.117  1.2800 -0.2021  1.6158
10336TIP3   OH252498   4.999   2.901   5.682 -0.3804  0.6446 -0.2056
10336TIP3    H152499   5.060   2.831   5.661 -1.8682 -1.2507  1.5417
10336TIP3    H252500   4.940   2.906   5.607 -0.1437  0.1631 -0.4219
10337TIP3   OH252501   3.697   3.768   1.484  0.3152 -0.3969  0.0794
10337TIP3    H152502   3.790   3.743   1.478  0.4303 -0.0426  0.4298
10337TIP3    H252503   3.694   3.833   1.554  0.0686  0.8643 -1.0843
10338TIP3   OH252504   1.947   1.322  11.605 -0.1005 -0.0614 -0.3500
10338TIP3    H152505   1.916   1.412  11.589 -0.7148 -0.4894 -1.6535
10338TIP3    H252506   1.868   1.268  11.599  0.5138 -0.8811 -1.2972
10339TIP3   OH252507   3.686   2.459  16.346 -0.7158  0.6577  0.8290
10339TIP3    H152508   3.734   2.395  16.398 -0.6552  0.1441  0.1495
10339TIP3    H252509   3.713   2.544  16.380  0.2060  0.3512  0.8593
10340TIP3   OH252510   3.746   0.745   3.732  0.1578 -0.1694 -0.2970
10340TIP3    H152511   3.760   0.755   3.637  0.8543 -1.1271 -0.3075
10340TIP3    H252512   3.715   0.655   3.742  0.1812 -0.1014  0.3990
10341TIP3   OH252513   4.336   0.359   2.303  0.2130 -1.2531  0.7001
10341TIP3    H152514   4.335   0.364   2.207  1.1039  2.4715  0.8176
10341TIP3    H252515   4.249   0.388   2.330  0.9891  0.8307  1.0638
10342TIP3   OH252516   1.074   5.253  12.052 -0.0242 -0.1913 -0.3523
10342TIP3    H152517   0.979   5.262  12.042 -0.0269 -2.6459 -3.0903
10342TIP3    H252518   1.088   5.163  12.079  1.5396  0.1142 -0.0631
10343TIP3   OH252519   1.712   0.901  14.389 -0.2016 -0.7139 -0.0467
10343TIP3    H152520   1.703   0.996  14.384  1.2087 -0.6257 -1.1809
10343TIP3    H252521   1.680   0.870  14.304 -2.0337 -1.3876  0.8484
10344TIP3   OH252522   4.413   2.017  16.684  0.0141  0.1212 -0.5473
10344TIP3    H152523   4.488   2.065  16.650 -0.3540  0.3870 -0.9798
10344TIP3    H252524   4.402   2.050  16.773  1.6903 -1.4012  0.2569
10345TIP3   OH252525   2.022   6.544   2.469  0.3405 -0.7353  0.0428
10345TIP3    H152526   2.046   6.607   2.537 -1.6956  0.9332 -0.7204
10345TIP3    H252527   2.015   6.596   2.389 -0.7887 -2.0281 -0.7353
10346TIP3   OH252528   0.811   5.087   5.720 -0.0872  0.0496  0.2798
10346TIP3    H152529   0.866   5.091   5.641 -0.4020 -0.0698  0.0554
10346TIP3    H252530   0.784   5.177   5.735  0.3113  0.1367  0.4909
10347TIP3   OH252531   3.284   2.211  16.884  0.2308 -0.3373  0.2355
10347TIP3    H152532   3.355   2.188  16.945  0.7973 -0.7485 -0.5844
10347TIP3    H252533   3.274   2.134  16.828 -0.1016  0.1556 -0.3819
10348TIP3   OH252534   2.028   6.376   4.588  0.0574 -0.2411  0.0696
10348TIP3    H152535   2.032   6.460   4.634 -1.2436 -0.4438  0.5843
10348TIP3    H252536   2.054   6.397   4.498  2.3991  0.1991  0.8107
10349TIP3   OH252537   3.992   0.085   3.965  0.8038  0.4221 -0.5212
10349TIP3    H152538   3.986   0.032   3.886 -0.5129 -4.1181  2.4349
10349TIP3    H252539   3.902   0.109   3.985  1.2187  2.3018 -0.8267
10350TIP3   OH252540   6.676   5.430   4.453 -0.2530  0.7660 -0.0665
10350TIP3    H152541   6.617   5.457   4.382  0.9404  2.4404 -0.4517
10350TIP3    H252542   6.617   5.409   4.526 -1.4911 -0.9041 -1.5147
10351TIP3   OH252543   3.655   6.122  15.624 -0.5015 -0.1559  0.5497
10351TIP3    H152544   3.583   6.174  15.589 -1.3436 -1.0982  0.8625
10351TIP3    H252545   3.680   6.064  15.552  0.3051  0.5240  0.2674
10352TIP3   OH252546   5.688   2.071  12.620 -0.3040 -0.0284  0.0007
10352TIP3    H152547   5.671   2.151  12.669 -2.4003 -1.1518  1.1697
10352TIP3    H252548   5.642   2.003  12.669  0.6043 -1.7811 -1.5335
10353TIP3   OH252549   6.739   5.047   3.879  0.0660 -0.3073 -0.2979
10353TIP3    H152550   6.692   5.079   3.802 -1.4258 -0.3250  0.5833
10353TIP3    H252551   6.693   4.967   3.905  0.7964 -0.5217  0.3837
10354TIP3   OH252552   0.013   1.017  15.182 -0.5682 -0.6537 -0.0145
10354TIP3    H152553   0.076   1.087  15.162 -0.9977 -0.8452 -2.1802
10354TIP3    H252554   0.067   0.941  15.201 -0.1072  0.0322  1.4642
10355TIP3   OH252555   2.676   4.774  16.033 -0.0898  0.2292  0.0895
10355TIP3    H152556   2.595   4.810  16.069 -0.2970 -0.1509  0.0060
10355TIP3    H252557   2.697   4.700  16.091  0.7620  0.9662  0.7304
10356TIP3   OH252558   1.946   4.848   4.837  0.1562 -0.2049 -0.3507
10356TIP3    H152559   1.987   4.803   4.911 -0.1765 -0.2486 -0.1928
10356TIP3    H252560   2.007   4.835   4.764  2.8190  3.6424  0.9655
10357TIP3   OH252561   2.668   6.273  16.596 -0.1679  0.3065 -0.2005
10357TIP3    H152562   2.714   6.298  16.676 -1.6295  0.4820  0.6007
10357TIP3    H252563   2.707   6.188  16.572  1.0924  0.8087  0.0267
10358TIP3   OH252564   3.286   3.845  14.014  0.6990  0.3913 -0.3124
10358TIP3    H152565   3.342   3.784  14.062  0.3776 -0.4229 -0.9672
10358TIP3    H252566   3.199   3.834  14.052  0.7172  0.7143 -0.1755
10359TIP3   OH252567   5.850   2.841  16.174 -0.1910 -0.3033  0.0564
10359TIP3    H152568   5.857   2.793  16.256  1.3112 -2.1624 -1.0941
10359TIP3    H252569   5.795   2.785  16.118  0.6256 -0.1467 -0.9213
10360TIP3   OH252570   0.510   3.248  13.958  0.0209 -0.6940  0.6688
10360TIP3    H152571   0.433   3.198  13.934  1.1169 -1.7744 -0.7512
10360TIP3    H252572   0.487   3.339  13.937 -1.5058 -0.7584  2.0158
10361TIP3   OH252573   4.805   2.531   3.103  0.1373  0.2561  0.1039
10361TIP3    H152574   4.893   2.515   3.137 -0.3229 -0.5259  0.9292
10361TIP3    H252575   4.750   2.544   3.180 -0.7091 -0.4636 -0.3592
10362TIP3   OH252576   5.597   2.167   0.122 -0.1904  0.2223 -0.0382
10362TIP3    H152577   5.545   2.247   0.125 -0.7457 -0.1022 -0.9562
10362TIP3    H252578   5.683   2.194   0.157 -0.7456  0.9091  0.8412
10363TIP3   OH252579   2.849   2.574   2.427 -0.0780  0.6755 -0.0816
10363TIP3    H152580   2.827   2.579   2.521  0.3532  3.2569 -0.0706
10363TIP3    H252581   2.764   2.571   2.383 -0.2877 -2.1002  0.4021
10364TIP3   OH252582   5.475   1.143   2.719  0.0671  0.7024  0.3410
10364TIP3    H152583   5.498   1.198   2.795  0.1777  0.2964  0.6041
10364TIP3    H252584   5.387   1.170   2.696  0.5614  1.8286 -0.2760
10365TIP3   OH252585   1.528   2.884  13.083 -0.0985  0.1405  0.7542
10365TIP3    H152586   1.513   2.979  13.085 -1.7425 -0.1141  1.9829
10365TIP3    H252587   1.523   2.857  13.175 -0.7801 -1.2963  0.3138
10366TIP3   OH252588   6.202   1.302  17.193 -0.1561 -0.0838  0.3481
10366TIP3    H152589   6.152   1.279  17.271 -0.7872  0.2488  0.0503
10366TIP3    H252590   6.149   1.268  17.120  0.0196  0.3177  0.0253
10367TIP3   OH252591   1.476   4.701  14.227 -0.1928 -0.1174 -0.4412
10367TIP3    H152592   1.385   4.700  14.198 -0.7749 -0.4230  1.3246
10367TIP3    H252593   1.485   4.624  14.283  0.7225  0.7378  0.6248
10368TIP3   OH252594   0.650   5.291  15.436  0.0075  0.3092  0.2379
10368TIP3    H152595   0.726   5.348  15.421  0.2683 -0.2187 -0.4391
10368TIP3    H252596   0.686   5.203  15.445 -0.5229  0.0564 -0.0727
10369TIP3   OH252597   3.565   5.499   4.810  0.4232  0.3150 -0.0124
10369TIP3    H152598   3.543   5.486   4.718 -0.6389 -0.5291  0.3407
10369TIP3    H252599   3.585   5.592   4.818  0.0628  0.4798 -1.0108
10370TIP3   OH252600   0.395   4.965   2.395  0.0685  0.2405 -0.7087
10370TIP3    H152601   0.473   4.977   2.341  1.1572  1.0153  0.9958
10370TIP3    H252602   0.424   4.985   2.484 -1.5880 -1.4181  0.2358
10371TIP3   OH252603   5.717   0.160   6.222  0.2280 -0.0087 -0.0250
10371TIP3    H152604   5.708   0.084   6.165  1.0336 -0.4800  0.4637
10371TIP3    H252605   5.751   0.125   6.304  0.1438  0.8128  0.3690
10372TIP3   OH252606   5.862   1.192   3.359  0.1773  0.0394  0.2531
10372TIP3    H152607   5.921   1.135   3.409  0.6928  0.4148  0.0729
10372TIP3    H252608   5.777   1.181   3.402  0.3710 -0.5196  0.5023
10373TIP3   OH252609   1.982   3.600   5.099 -0.2564 -0.0884  0.4614
10373TIP3    H152610   2.040   3.564   5.031  0.3519 -0.1388  1.0041
10373TIP3    H252611   1.954   3.524   5.149  0.3848  0.0962  1.1091
10374TIP3   OH252612   5.209   2.342  10.513 -0.0352 -0.1006  0.3993
10374TIP3    H152613   5.258   2.335  10.595  0.0421  1.7483  0.5172
10374TIP3    H252614   5.264   2.395  10.456 -0.6359 -0.3675 -0.4399
10375TIP3   OH252615   1.288   0.141   2.581  0.0629  0.3826  0.7357
10375TIP3    H152616   1.248   0.212   2.631  1.8202  1.8727  0.0634
10375TIP3    H252617   1.230   0.131   2.505 -0.0387  1.3256  0.6768
10376TIP3   OH252618   6.330   2.205  14.043  0.2775  0.0582  0.0444
10376TIP3    H152619   6.425   2.198  14.032  0.5418  0.5428  1.9200
10376TIP3    H252620   6.295   2.183  13.957  2.0007 -2.3895 -0.1095
10377TIP3   OH252621   2.583   3.471  12.998 -0.0271 -0.4830 -0.1663
10377TIP3    H152622   2.643   3.430  12.936  0.6132 -1.7920  1.2805
10377TIP3    H252623   2.626   3.460  13.083 -0.5246  1.9537  0.4341
10378TIP3   OH252624   1.104   0.676   4.092  0.5557  0.1485  0.6129
10378TIP3    H152625   1.113   0.597   4.146 -0.2045 -1.0879 -1.0275
10378TIP3    H252626   1.121   0.646   4.003  1.7663  2.1542  0.1360
10379TIP3   OH252627   0.734   0.446   2.079  0.0469  0.2449  0.2045
10379TIP3    H152628   0.790   0.383   2.034 -0.5166 -0.4372  0.4432
10379TIP3    H252629   0.783   0.528   2.077  1.7179 -0.6921  1.7194
10380TIP3   OH252630   2.949   5.449  16.436 -0.1586  0.6789 -0.1908
10380TIP3    H152631   2.984   5.421  16.520 -0.5618  0.4131 -0.1125
10380TIP3    H252632   2.881   5.385  16.415  0.3090  0.4396 -0.9763
10381TIP3   OH252633   2.904   0.488   0.699 -0.5932 -1.2548  0.4775
10381TIP3    H152634   2.839   0.557   0.691  1.0340  0.3259  0.4539
10381TIP3    H252635   2.876   0.420   0.638 -0.7182  0.6015 -1.5693
10382TIP3   OH252636   2.306   3.761  15.859 -0.0423  0.0353  0.1603
10382TIP3    H152637   2.396   3.745  15.888  0.0329  0.1459 -0.0087
10382TIP3    H252638   2.306   3.853  15.831 -0.0106 -0.1803 -0.5657
10383TIP3   OH252639   6.500   1.911  16.989 -0.3861  0.2158 -0.3775
10383TIP3    H152640   6.553   1.836  17.017 -1.3821 -0.5486 -0.5064
10383TIP3    H252641   6.411   1.889  17.017 -0.8254  0.9895 -1.1372
10384TIP3   OH252642   5.837   5.605   5.233 -0.8916  0.0179  0.1770
10384TIP3    H152643   5.859   5.525   5.282 -3.0988 -1.4760 -1.1974
10384TIP3    H252644   5.835   5.674   5.300  0.6478 -1.1162  1.4445
10385TIP3   OH252645   2.088   5.995  13.020 -0.4123 -0.0813  0.4062
10385TIP3    H152646   2.173   6.017  12.983  0.3630  0.5512  2.4642
10385TIP3    H252647   2.108   5.946  13.100 -2.0172 -1.4843 -0.0159
10386TIP3   OH252648   5.723   6.728   1.309 -0.3189 -0.1273 -1.2314
10386TIP3    H152649   5.715   6.717   1.404  0.4353  0.9416 -1.0498
10386TIP3    H252650   5.644   6.775   1.284 -0.0200  0.5035 -0.9905
10387TIP3   OH252651   1.036   6.333   4.879  0.5362  0.0041  0.2608
10387TIP3    H152652   0.991   6.410   4.913  0.0360 -0.2380  0.1444
10387TIP3    H252653   0.967   6.268   4.865  0.7658 -0.0088 -0.9255
10388TIP3   OH252654   5.274   5.593   0.697 -0.3293 -0.2043 -0.3510
10388TIP3    H152655   5.270   5.637   0.612 -1.5309  4.0821  1.7488
10388TIP3    H252656   5.354   5.627   0.737 -1.3955  0.2786  1.4259
10389TIP3   OH252657   4.863   4.593   1.428  0.0991  0.3183  0.2426
10389TIP3    H152658   4.856   4.608   1.334 -0.3314  1.9657  0.5146
10389TIP3    H252659   4.773   4.583   1.458  0.2503 -0.4537  0.4412
10390TIP3   OH252660   2.899   3.242  14.032  0.6641 -0.4643 -0.5561
10390TIP3    H152661   2.806   3.261  14.046  0.7266 -0.8556  0.4177
10390TIP3    H252662   2.938   3.249  14.119  1.3598 -1.3530 -0.7944
10391TIP3   OH252663   1.083   5.216   2.509  0.1544 -0.6908  0.2060
10391TIP3    H152664   1.070   5.255   2.422  0.2623  2.0832  1.3769
10391TIP3    H252665   1.176   5.229   2.528  0.1597 -1.3914  0.7058
10392TIP3   OH252666   0.383   2.863  13.700  0.1226 -0.0727  0.0120
10392TIP3    H152667   0.446   2.828  13.763  1.2977 -0.3040 -1.2586
10392TIP3    H252668   0.437   2.911  13.637 -1.2551  2.2185  0.5065
10393TIP3   OH252669   0.374   3.707   2.421  0.2079  0.0884  0.2424
10393TIP3    H152670   0.292   3.721   2.469  0.2592 -2.8852  1.3231
10393TIP3    H252671   0.347   3.681   2.333  0.0764  2.9615 -0.5978
10394TIP3   OH252672   6.136   0.604  13.461 -0.0469  0.1987 -0.4728
10394TIP3    H152673   6.207   0.614  13.524 -0.6661 -1.4631  0.5322
10394TIP3    H252674   6.153   0.671  13.395  1.3699  1.0887  0.7481
10395TIP3   OH252675   6.075   3.232  17.193 -0.1560  0.1175  0.0432
10395TIP3    H152676   6.149   3.275  17.150 -0.7603  1.1487  0.0180
10395TIP3    H252677   6.024   3.194  17.121 -2.0008  3.1487 -0.3575
10396TIP3   OH252678   3.383   5.629  12.205  0.2359  0.1153  0.1409
10396TIP3    H152679   3.473   5.623  12.239 -0.2756 -1.8717  1.2033
10396TIP3    H252680   3.331   5.577  12.265 -1.9671  2.6313  0.5204
10397TIP3   OH252681   0.130   4.241  12.194  0.4317  1.1355 -0.2439
10397TIP3    H152682   0.126   4.325  12.239  1.3871  0.4982  1.0669
10397TIP3    H252683   0.120   4.176  12.264  1.1702  0.1454 -1.0516
10398TIP3   OH252684   0.154   1.211   5.039 -0.0030 -0.0108  0.3311
10398TIP3    H152685   0.218   1.201   4.969 -0.0065 -0.4352  0.3843
10398TIP3    H252686   0.175   1.140   5.101 -0.7793 -0.4141  0.1452
10399TIP3   OH252687   5.651   0.173  14.701 -0.5215  0.6325 -0.0262
10399TIP3    H152688   5.729   0.130  14.738 -0.2856  0.9907 -0.1096
10399TIP3    H252689   5.669   0.178  14.608 -1.1334 -0.3004 -0.2021
10400TIP3   OH252690   1.801   4.041   0.403  0.1711 -0.1885 -0.4394
10400TIP3    H152691   1.799   3.945   0.404 -0.4234 -0.1908 -1.4853
10400TIP3    H252692   1.889   4.062   0.374  0.6803 -0.4015  0.9029
10401TIP3   OH252693   1.061   0.903  14.128  0.1942  0.0186 -0.0348
10401TIP3    H152694   1.072   0.976  14.189  0.7810 -0.8966  0.9748
10401TIP3    H252695   1.148   0.865  14.120 -0.4848 -1.8429  1.0903
10402TIP3   OH252696   4.540   3.569  11.597 -0.0886 -0.2108  0.1062
10402TIP3    H152697   4.508   3.617  11.673  0.0330 -0.7856  0.5225
10402TIP3    H252698   4.633   3.554  11.615  0.4446  1.5019 -1.1224
10403TIP3   OH252699   0.506   1.355   3.840 -0.0879 -0.6422 -0.6663
10403TIP3    H152700   0.498   1.264   3.812 -1.6225 -1.0699  1.1004
10403TIP3    H252701   0.483   1.354   3.933  0.9936  1.3773 -0.3492
10404TIP3   OH252702   2.775   4.813  14.201  0.3515  0.1284  0.3785
10404TIP3    H152703   2.861   4.825  14.241 -0.5462  3.0808  1.5692
10404TIP3    H252704   2.772   4.878  14.131 -1.2221  0.6123  0.8829
10405TIP3   OH252705   2.188   4.816  16.031  0.1664 -0.2690 -0.5618
10405TIP3    H152706   2.116   4.753  16.032 -0.1248  0.0539  1.6737
10405TIP3    H252707   2.214   4.821  15.939 -1.9668 -1.1771 -1.2518
10406TIP3   OH252708   6.177   5.739   0.463 -0.0737 -0.4225 -0.4279
10406TIP3    H152709   6.113   5.769   0.398  1.2859  1.6447 -0.8597
10406TIP3    H252710   6.246   5.697   0.411 -0.5778 -1.7721 -0.0353
10407TIP3   OH252711   2.014   6.663  14.304  0.3269  0.0321  0.5640
10407TIP3    H152712   2.056   6.580  14.328  2.5351 -0.0584 -3.2240
10407TIP3    H252713   1.925   6.638  14.277  0.4154 -0.8431  1.0700
10408TIP3   OH252714   3.564   5.074   5.228 -0.6480  0.3434  0.4510
10408TIP3    H152715   3.557   5.165   5.200 -0.5241  0.7090  1.5690
10408TIP3    H252716   3.603   5.029   5.153  1.5196  1.6526  0.7334
10409TIP3   OH252717   1.699   4.410  15.546 -0.3635  0.1261 -0.1823
10409TIP3    H152718   1.608   4.381  15.534 -0.9182  1.3884  0.8406
10409TIP3    H252719   1.736   4.348  15.609 -0.3103 -0.7904 -1.1066
10410TIP3   OH252720   2.929   6.405   1.910 -0.4160 -0.2729 -0.9562
10410TIP3    H152721   3.011   6.363   1.935  0.1076  1.8097  0.9571
10410TIP3    H252722   2.939   6.421   1.816  0.5152 -1.8176 -1.1516
10411TIP3   OH252723   5.355   5.230   3.663  0.2076  0.2249  0.0502
10411TIP3    H152724   5.411   5.152   3.660  1.2061  0.8820  1.0083
10411TIP3    H252725   5.360   5.259   3.754 -0.9506  0.8429 -0.0760
10412TIP3   OH252726   2.365   3.056  12.148 -0.1580 -0.3805 -0.6658
10412TIP3    H152727   2.314   3.052  12.067 -1.6148  1.0489  0.1631
10412TIP3    H252728   2.301   3.050  12.218  1.0543 -1.1259  0.4130
10413TIP3   OH252729   6.723   0.031   3.126 -0.4639  0.0970  1.0365
10413TIP3    H152730   6.746  -0.053   3.085  0.3867  1.7161 -1.9971
10413TIP3    H252731   6.759   0.025   3.214 -0.2857 -2.6698  0.8328
10414TIP3   OH252732   2.986   1.912  12.326 -0.2879 -0.0619 -0.4854
10414TIP3    H152733   3.045   1.861  12.271  1.7561  2.4266 -0.7364
10414TIP3    H252734   2.985   1.999  12.285 -0.2253  1.3121  2.3178
10415TIP3   OH252735   0.552   0.278   5.175 -0.0899 -0.1186  0.2043
10415TIP3    H152736   0.636   0.237   5.195 -0.3253  0.1022  1.7001
10415TIP3    H252737   0.518   0.228   5.100  0.9074 -0.8453  0.2260
10416TIP3   OH252738   1.643   3.734  13.379  0.3125 -0.2795 -0.2170
10416TIP3    H152739   1.629   3.823  13.409  0.1220 -0.5628  0.5597
10416TIP3    H252740   1.733   3.714  13.405  0.8401  0.1814 -1.6781
10417TIP3   OH252741   2.900   5.241   1.281 -0.0266 -0.7713 -0.3914
10417TIP3    H152742   2.877   5.172   1.343 -1.7819  0.6059  0.5230
10417TIP3    H252743   2.821   5.294   1.272  0.8827  0.3772 -2.0913
10418TIP3   OH252744   0.339   4.378  10.915 -0.1155  0.4705 -0.4376
10418TIP3    H152745   0.331   4.339  10.828 -1.2684  0.1463 -0.1939
10418TIP3    H252746   0.262   4.435  10.923  1.3878  2.5894 -0.6803
10419TIP3   OH252747   4.047   2.513  12.363 -0.1232 -0.3369 -0.0351
10419TIP3    H152748   4.046   2.438  12.422 -0.1388  0.1432  0.5779
10419TIP3    H252749   3.967   2.561  12.384  0.1929  0.1777 -0.0035
10420TIP3   OH252750   4.767   0.494  14.762  0.5001 -0.3809  0.1994
10420TIP3    H152751   4.682   0.459  14.789  0.8956 -0.5047  1.3105
10420TIP3    H252752   4.747   0.577  14.720 -0.4642 -1.9203 -2.5214
10421TIP3   OH252753   6.060   2.941  14.570  0.1797  0.1041  0.5268
10421TIP3    H152754   5.970   2.966  14.551  0.0048 -0.3522  0.7378
10421TIP3    H252755   6.087   2.888  14.495 -0.3701 -1.3431  1.3269
10422TIP3   OH252756   6.310   3.227   2.608  0.1588  0.5898 -0.4313
10422TIP3    H152757   6.361   3.166   2.660  0.3541 -0.3864 -1.7417
10422TIP3    H252758   6.371   3.299   2.588  0.3924  0.4515 -0.2164
10423TIP3   OH252759   1.580   4.378  11.463 -0.5193 -0.0209  0.5088
10423TIP3    H152760   1.523   4.301  11.457  0.6160 -0.7805 -0.8805
10423TIP3    H252761   1.655   4.356  11.408  0.2845  1.6935  0.8978
10424TIP3   OH252762   2.678   4.195   4.871  0.4357 -0.1524  0.6541
10424TIP3    H152763   2.732   4.190   4.950 -0.9856  0.8581  1.7130
10424TIP3    H252764   2.707   4.122   4.817  0.0397 -2.0922  3.0012
10425TIP3   OH252765   6.041   5.064   0.487 -0.1200  0.3548 -0.0331
10425TIP3    H152766   5.975   5.032   0.426  0.2859 -0.8676  0.1524
10425TIP3    H252767   5.991   5.092   0.564 -0.5696  1.2534 -0.6396
10426TIP3   OH252768   6.071   0.373   5.878 -0.2226 -0.2094  0.4749
10426TIP3    H152769   6.030   0.375   5.965  1.6567  0.0926  1.3808
10426TIP3    H252770   6.063   0.281   5.851  3.1807 -1.3175  2.9743
10427TIP3   OH252771   1.481   1.220  11.744  0.4322 -0.1589  0.2091
10427TIP3    H152772   1.529   1.177  11.814 -0.0477 -0.1053  0.5780
10427TIP3    H252773   1.449   1.301  11.784  1.1724  0.4450 -0.4227
10428TIP3   OH252774   0.653   3.457  14.716  0.2508  0.7641 -0.0558
10428TIP3    H152775   0.628   3.491  14.802  0.2531  0.5774  0.0210
10428TIP3    H252776   0.747   3.470  14.711  0.3054  0.4604  0.1163
10429TIP3   OH252777   5.529   6.682  15.184 -0.3101 -0.3377 -0.2998
10429TIP3    H152778   5.540   6.758  15.241 -0.4801 -1.5713  1.4058
10429TIP3    H252779   5.616   6.666  15.149 -0.4793  1.3097 -1.5870
10430TIP3   OH252780   5.133   6.434   4.823  0.4896 -0.0353 -0.2196
10430TIP3    H152781   5.072   6.377   4.776  1.0412 -0.5872 -0.2648
10430TIP3    H252782   5.202   6.453   4.760  1.0692 -0.5162  0.2691
10431TIP3   OH252783   3.784   5.918   4.427 -0.1259  0.3723  0.0663
10431TIP3    H152784   3.854   5.979   4.405 -0.2415 -0.0016 -1.4445
10431TIP3    H252785   3.829   5.841   4.462  0.0994  0.8098  0.7431
10432TIP3   OH252786   2.485   6.005   3.280  0.5378  0.7012  0.4862
10432TIP3    H152787   2.562   6.024   3.333  3.1478  0.7786 -3.1685
10432TIP3    H252788   2.484   6.073   3.213 -2.0259 -0.0274 -0.2942
10433TIP3   OH252789   0.235   1.032   1.346 -0.1305 -0.2839 -0.0453
10433TIP3    H152790   0.235   1.014   1.440 -3.6274 -0.0178  0.0721
10433TIP3    H252791   0.196   0.954   1.307 -1.3691  0.7559 -0.9559
10434TIP3   OH252792   2.304   4.482   0.007  0.1055  0.1539  0.0123
10434TIP3    H152793   2.243   4.484   0.081 -1.1731 -1.2494 -0.9873
10434TIP3    H252794   2.379   4.433   0.040  0.4028  1.2439  1.0083
10435TIP3   OH252795   0.338   0.453  16.596  0.1994  0.3336  0.3489
10435TIP3    H152796   0.369   0.511  16.527  1.0984  1.9337  2.0558
10435TIP3    H252797   0.393   0.375  16.587  0.5871  0.6866 -0.4931
10436TIP3   OH252798   4.160   4.954   0.527  0.4555 -0.3363  0.3334
10436TIP3    H152799   4.239   4.959   0.580 -0.5400 -0.3056  1.8751
10436TIP3    H252800   4.112   4.879   0.562 -0.4807  0.0290 -0.1407
10437TIP3   OH252801   0.723   0.019  15.870  0.4491  0.0129 -0.8481
10437TIP3    H152802   0.783   0.091  15.853  0.4250  0.4606  0.8452
10437TIP3    H252803   0.741  -0.044  15.800  1.2744  1.1484 -1.6801
10438TIP3   OH252804   0.102   2.527  15.427  0.4301 -0.0225 -0.0114
10438TIP3    H152805   0.138   2.511  15.514  0.4277 -0.0374 -0.0131
10438TIP3    H252806   0.137   2.612  15.401  0.1519  0.1454  0.1532
10439TIP3   OH252807   0.990   4.468  14.136 -0.1045  0.0989  0.3728
10439TIP3    H152808   0.953   4.462  14.048 -0.2658 -1.1661  0.5239
10439TIP3    H252809   0.915   4.482  14.194 -0.3109 -1.9654  0.6243
10440TIP3   OH252810   5.189   0.650   5.820  0.4661 -0.0828 -0.8403
10440TIP3    H152811   5.106   0.625   5.780  0.4704  0.0772 -0.9499
10440TIP3    H252812   5.245   0.674   5.746  1.1866 -1.8883 -0.8964
10441TIP3   OH252813   2.245   2.108   5.034 -0.5532 -0.2973  0.5483
10441TIP3    H152814   2.235   2.016   5.010 -0.6353 -0.6748  1.9817
10441TIP3    H252815   2.161   2.149   5.013 -0.5199 -0.5526 -0.0717
10442TIP3   OH252816   5.415   4.687   3.260 -0.4654  0.1068 -0.4100
10442TIP3    H152817   5.337   4.742   3.254  0.0853  0.9193 -0.2539
10442TIP3    H252818   5.484   4.747   3.289 -0.0670 -0.8675  0.6828
10443TIP3   OH252819   4.418   4.910  13.487 -0.3704  0.0158  0.0502
10443TIP3    H152820   4.507   4.939  13.506 -0.6570 -0.6855  2.6622
10443TIP3    H252821   4.425   4.859  13.406  1.1967  1.8991 -1.0162
10444TIP3   OH252822   4.582   0.236   2.099 -0.7097  0.1407 -0.1245
10444TIP3    H152823   4.643   0.254   2.170 -1.0354  1.6080 -0.2118
10444TIP3    H252824   4.541   0.320   2.080 -1.6825 -0.5326 -1.0687
10445TIP3   OH252825   2.158   4.468   5.836 -0.1479  0.0374  0.3184
10445TIP3    H152826   2.172   4.428   5.921 -0.4737 -2.8665 -0.9207
10445TIP3    H252827   2.164   4.562   5.852 -0.4860 -0.4365  3.5662
10446TIP3   OH252828   0.695   0.553   4.854 -0.1698  0.1162  0.0286
10446TIP3    H152829   0.617   0.608   4.861 -1.9478 -2.4448  1.2770
10446TIP3    H252830   0.727   0.545   4.943 -1.7941 -3.3603  0.3841
10447TIP3   OH252831   2.220   3.279   3.945  0.8187  0.7731  0.2063
10447TIP3    H152832   2.242   3.209   3.884 -0.9255  0.0072  0.4280
10447TIP3    H252833   2.214   3.357   3.891  0.7777  0.3701 -0.3719
10448TIP3   OH252834   2.116   0.631  11.245 -0.2039 -0.0286  0.3934
10448TIP3    H152835   2.064   0.560  11.282 -1.6010  0.8676  0.2006
10448TIP3    H252836   2.057   0.674  11.183  0.8233  0.9068  0.0471
10449TIP3   OH252837   0.724   5.314   0.375 -0.3221  0.5929  0.1526
10449TIP3    H152838   0.751   5.285   0.462 -1.2999  0.8322  0.5356
10449TIP3    H252839   0.797   5.289   0.318 -0.4170 -1.1234  0.7500
10450TIP3   OH252840   4.474   1.987  11.402 -0.0228 -0.2180  0.5872
10450TIP3    H152841   4.391   1.967  11.445  0.0613 -1.6135  0.1175
10450TIP3    H252842   4.454   2.060  11.343 -0.7281 -0.0209  1.0747
10451TIP3   OH252843   3.876   4.312  15.520 -0.4688  0.0668  0.3588
10451TIP3    H152844   3.885   4.272  15.606  1.5968 -2.1977 -0.8380
10451TIP3    H252845   3.966   4.323  15.489 -1.1750  0.8884 -1.4909
10452TIP3   OH252846   2.872   4.055   3.712  0.0712 -1.0454  0.5794
10452TIP3    H152847   2.937   3.987   3.695 -0.3413 -1.2664 -0.1261
10452TIP3    H252848   2.909   4.106   3.784  1.6952 -0.2833 -0.7781
10453TIP3   OH252849   0.076   3.417   3.178  0.1441  0.1378 -0.1730
10453TIP3    H152850   0.067   3.495   3.124 -0.9271 -0.1236 -0.3766
10453TIP3    H252851   0.012   3.429   3.248 -1.0259 -1.2096 -0.9913
10454TIP3   OH252852   6.692   5.125   4.436  0.2534  0.2096 -0.6461
10454TIP3    H152853   6.667   5.213   4.464  1.8317  0.1045  1.2008
10454TIP3    H252854   6.787   5.127   4.432  0.3683 -1.7419  0.5333
10455TIP3   OH252855   2.963   3.297  16.982 -0.7991 -0.0447  0.3226
10455TIP3    H152856   3.019   3.315  16.906 -0.8779 -0.9167  0.0454
10455TIP3    H252857   2.910   3.376  16.992  0.5394  0.8241  0.6448
10456TIP3   OH252858   0.840   6.738   4.299  0.0948  0.1411 -0.2150
10456TIP3    H152859   0.814   6.653   4.336 -1.0831  0.4719 -0.2672
10456TIP3    H252860   0.932   6.726   4.275  0.3523 -0.6658  1.1169
10457TIP3   OH252861   1.867   0.012  15.445 -0.5864 -0.1257 -0.3465
10457TIP3    H152862   1.798   0.046  15.388 -1.1512 -0.0815  0.3640
10457TIP3    H252863   1.907  -0.059  15.394 -1.1367 -0.1339 -0.7654
10458TIP3   OH252864   0.444   1.067   5.383  0.1569 -0.0509  0.1339
10458TIP3    H152865   0.493   1.128   5.439 -1.0662  0.4693  0.6714
10458TIP3    H252866   0.363   1.050   5.432 -1.1655  0.8054 -1.6897
10459TIP3   OH252867   1.417   0.472  14.481  0.1012 -0.4178  0.4526
10459TIP3    H152868   1.341   0.528  14.492 -0.3775 -0.9718  0.0419
10459TIP3    H252869   1.442   0.446  14.569 -1.1584 -1.5081  0.4985
10460TIP3   OH252870   1.842   0.799  13.521 -0.1305  0.0756  0.1892
10460TIP3    H152871   1.825   0.853  13.598  0.7106  0.4384  0.1277
10460TIP3    H252872   1.884   0.858  13.459  0.2417 -0.4954 -0.1105
10461TIP3   OH252873   5.327   3.169  11.350 -0.0154  0.5842  0.4115
10461TIP3    H152874   5.391   3.188  11.282  0.5639  0.0947  0.8135
10461TIP3    H252875   5.310   3.254  11.391  3.0220  0.2539  2.5990
10462TIP3   OH252876   3.642   1.600   6.305 -0.8142  0.4879  0.0731
10462TIP3    H152877   3.632   1.677   6.361 -0.9431  0.2095  0.4393
10462TIP3    H252878   3.619   1.526   6.362 -0.9112  0.1981 -0.3400
10463TIP3   OH252879   5.762   5.735   0.586 -0.0710  0.4676 -0.4244
10463TIP3    H152880   5.749   5.818   0.541  0.9972  1.2404  0.6460
10463TIP3    H252881   5.688   5.680   0.558 -0.8331  1.8000 -1.0683
10464TIP3   OH252882   6.724   2.042   1.987 -0.1108  0.5456  0.2168
10464TIP3    H152883   6.633   2.035   1.959 -0.0310 -0.2485  0.1368
10464TIP3    H252884   6.727   1.997   2.071  0.2670  0.2966  0.0722
10465TIP3   OH252885   2.312   4.945   2.127 -0.2315 -0.2840 -0.0333
10465TIP3    H152886   2.352   4.958   2.041  0.4920  0.1868  0.3674
10465TIP3    H252887   2.224   4.912   2.108 -0.1557  0.0295 -0.9580
10466TIP3   OH252888   1.089   6.062  14.753 -0.0925  0.2282 -0.5119
10466TIP3    H152889   1.129   5.986  14.710  1.9824  0.4961  0.8880
10466TIP3    H252890   1.081   6.036  14.844  0.2497  1.5418 -0.1076
10467TIP3   OH252891   6.449   5.731   0.822 -0.4644 -0.1133  0.0122
10467TIP3    H152892   6.407   5.791   0.760 -0.0557  0.3681  0.1967
10467TIP3    H252893   6.517   5.687   0.770 -1.0241 -0.7119 -0.2237
10468TIP3   OH252894   1.998   0.851  12.394 -0.3857 -0.3816  0.4417
10468TIP3    H152895   2.069   0.905  12.430 -1.9281 -0.2130  3.4675
10468TIP3    H252896   2.018   0.843  12.301  1.2889  3.2726  0.3944
10469TIP3   OH252897   1.718   3.488  13.726  0.4823 -0.4900  0.6600
10469TIP3    H152898   1.776   3.413  13.719  1.5395  0.4422 -1.1459
10469TIP3    H252899   1.637   3.460  13.683  0.8109 -0.6715  0.1483
10470TIP3   OH252900   3.559   3.376  11.976  0.4566  0.0715  0.1862
10470TIP3    H152901   3.532   3.286  11.989  2.2270 -0.5591 -0.3439
10470TIP3    H252902   3.645   3.382  12.017  1.0636  1.0686 -1.1716
10471TIP3   OH252903   2.703   3.258  16.476  0.5664  0.2351  0.3960
10471TIP3    H152904   2.633   3.265  16.411  0.3034  0.9504  0.7441
10471TIP3    H252905   2.784   3.264  16.425  0.3679 -0.1495  0.0348
10472TIP3   OH252906   0.138   3.005   6.424  0.1603 -0.6845  0.2857
10472TIP3    H152907   0.114   2.915   6.402  0.8628 -0.6890 -0.4951
10472TIP3    H252908   0.155   3.003   6.518  1.8222 -1.7542 -0.0194
10473TIP3   OH252909   4.496   1.744  12.164 -0.0729  0.0600  0.4851
10473TIP3    H152910   4.445   1.789  12.232  0.9690 -0.7320  1.8219
10473TIP3    H252911   4.587   1.768  12.182  0.4264 -1.9074  0.7323
10474TIP3   OH252912   6.763   1.310   3.716 -0.8477  0.4551 -0.4383
10474TIP3    H152913   6.749   1.221   3.749 -0.1317  0.2518 -0.6654
10474TIP3    H252914   6.730   1.367   3.786  1.3244  0.0406  0.9865
10475TIP3   OH252915   1.220   3.576  14.972  0.3044  0.1985 -0.3192
10475TIP3    H152916   1.164   3.505  15.005 -0.4343  0.6791 -0.5142
10475TIP3    H252917   1.160   3.650  14.963  1.8116  2.1020  3.8493
10476TIP3   OH252918   5.062   3.252   0.770  0.4703  0.0436 -0.2475
10476TIP3    H152919   5.036   3.344   0.772 -0.4390 -0.2083  2.3824
10476TIP3    H252920   5.158   3.254   0.778  0.3461  0.7794  1.3936
10477TIP3   OH252921   0.934   6.493   5.357 -0.1698 -0.2292 -0.2567
10477TIP3    H152922   0.900   6.558   5.296 -2.1633 -1.9711 -1.0599
10477TIP3    H252923   0.858   6.462   5.406  0.9936 -0.7964  1.2504
10478TIP3   OH252924   6.705   6.566  16.200  0.4538  0.5798  0.6925
10478TIP3    H152925   6.667   6.478  16.194  1.4172  0.2032 -0.1208
10478TIP3    H252926   6.748   6.567  16.285 -0.8868  0.8164  1.3802
10479TIP3   OH252927   3.992   5.061  11.223  0.0762 -0.6650  0.1637
10479TIP3    H152928   3.948   5.116  11.159 -0.2702 -0.1038  0.8648
10479TIP3    H252929   4.085   5.084  11.216  0.3563 -2.2304 -1.6915
10480TIP3   OH252930   6.508   2.560   4.672  0.4156 -0.9565  0.3807
10480TIP3    H152931   6.573   2.528   4.610 -0.1303 -1.1064 -0.1202
10480TIP3    H252932   6.483   2.646   4.639  0.8239 -0.6215  0.9286
10481TIP3   OH252933   6.689   1.191  14.647 -0.3882 -0.8139  0.2760
10481TIP3    H152934   6.721   1.281  14.640 -0.6205 -0.8172 -1.0422
10481TIP3    H252935   6.641   1.188  14.730  1.0268 -0.1799  1.1319
10482TIP3   OH252936   0.351   2.599  11.565  0.3771  0.1331 -0.0200
10482TIP3    H152937   0.313   2.648  11.492  0.9914 -1.4183 -1.4179
10482TIP3    H252938   0.440   2.634  11.572  0.4000  0.1050 -0.1722
10483TIP3   OH252939   2.884   6.253   3.467 -0.1531 -0.1529  0.6310
10483TIP3    H152940   2.881   6.339   3.427  0.2745 -0.7812 -0.7845
10483TIP3    H252941   2.875   6.269   3.561 -1.4055  1.3246  0.2773
10484TIP3   OH252942   0.152   2.380   0.523 -0.2660 -0.4326 -0.6420
10484TIP3    H152943   0.213   2.309   0.547 -0.3240 -0.5531 -0.8473
10484TIP3    H252944   0.066   2.348   0.551 -0.6170 -1.4090 -2.7118
10485TIP3   OH252945   3.864   1.174   4.197  0.2801  0.2358 -0.7979
10485TIP3    H152946   3.944   1.127   4.174 -0.5042 -0.9839 -1.1155
10485TIP3    H252947   3.798   1.105   4.206 -0.0158  0.8660  2.7257
10486TIP3   OH252948   4.433   0.569   3.400  0.0826 -0.5122 -0.8830
10486TIP3    H152949   4.430   0.484   3.357 -0.9686 -0.4436 -0.9479
10486TIP3    H252950   4.393   0.555   3.486  0.7654 -0.2971 -0.5271
10487TIP3   OH252951   5.377   2.963   2.833 -0.3136  0.2843 -0.0135
10487TIP3    H152952   5.445   3.014   2.876  0.9373 -2.8615  1.8773
10487TIP3    H252953   5.425   2.900   2.779 -1.6279 -2.4758  1.9205
10488TIP3   OH252954   4.366   6.484   3.721 -0.3766 -0.1429  0.2829
10488TIP3    H152955   4.441   6.520   3.675 -1.3588  1.0832 -0.3848
10488TIP3    H252956   4.302   6.555   3.722 -0.9463 -0.6596  2.2029
10489TIP3   OH252957   2.634   5.049  13.343  0.1620 -0.0708  0.1842
10489TIP3    H152958   2.707   5.102  13.311 -0.5160  0.0239 -1.2489
10489TIP3    H252959   2.624   4.980  13.277 -0.5557 -0.5262  0.7575
10490TIP3   OH252960   4.219   1.039   5.669 -0.6463  0.3623  0.0151
10490TIP3    H152961   4.302   1.027   5.713 -0.7632 -0.1029  0.1124
10490TIP3    H252962   4.236   1.106   5.602  0.0728 -0.4987 -0.6671
10491TIP3   OH252963   1.793   4.059  17.189  0.1805 -0.7344  0.5018
10491TIP3    H152964   1.699   4.060  17.209 -0.2753  1.2332 -1.5824
10491TIP3    H252965   1.798   4.064  17.094  2.4038  1.7056  0.6771
10492TIP3   OH252966   3.155   0.204   5.674 -0.6777 -0.0228 -0.0844
10492TIP3    H152967   3.188   0.189   5.586  1.3942 -3.7882  1.2313
10492TIP3    H252968   3.105   0.125   5.695 -0.7280  0.6065  2.2937
10493TIP3   OH252969   4.456   5.556   4.595 -0.2705  0.1027  0.7889
10493TIP3    H152970   4.530   5.565   4.655 -0.5997  0.3474  1.1633
10493TIP3    H252971   4.453   5.638   4.548  0.4178 -0.3577 -0.0641
10494TIP3   OH252972   4.956   0.817  14.842 -0.2348 -0.5426 -0.4918
10494TIP3    H152973   4.942   0.894  14.898  2.0931  1.4348 -2.4818
10494TIP3    H252974   5.051   0.814  14.828 -0.6980 -0.9831 -4.1998
10495TIP3   OH252975   4.170   6.474  16.307  0.1472 -0.3854  0.0377
10495TIP3    H152976   4.080   6.466  16.276  0.0140 -1.1427  0.5859
10495TIP3    H252977   4.219   6.414  16.251 -0.0076 -1.3661  0.9302
10496TIP3   OH252978   2.275   5.141  13.066 -0.3210 -0.1762  0.8143
10496TIP3    H152979   2.323   5.191  13.132  0.6167 -0.0177  0.0251
10496TIP3    H252980   2.250   5.206  13.000 -0.5797 -0.4692  0.6191
10497TIP3   OH252981   5.220   5.947   6.080  1.3476  0.9597  0.2087
10497TIP3    H152982   5.265   5.877   6.032  0.1424 -1.0394  1.9042
10497TIP3    H252983   5.288   5.985   6.135  2.1499  1.5626 -1.1653
10498TIP3   OH252984   5.959   3.195   3.050  0.3763  0.0641  0.1583
10498TIP3    H152985   5.970   3.180   3.144 -1.9478  1.4146  0.7019
10498TIP3    H252986   5.898   3.269   3.045  0.1266 -0.2714 -2.4183
10499TIP3   OH252987   4.186   2.387  12.103  0.2294 -0.2064 -0.2247
10499TIP3    H152988   4.210   2.361  12.014 -1.0431 -0.0108 -0.6345
10499TIP3    H252989   4.125   2.320  12.133  0.9443 -0.4850  0.6622
10500TIP3   OH252990   2.188   5.495  11.974 -0.0442 -0.2676 -0.1479
10500TIP3    H152991   2.152   5.583  11.990 -0.4148 -0.4556  0.0622
10500TIP3    H252992   2.128   5.436  12.020 -1.0664 -0.8063 -2.1077
10501TIP3   OH252993   0.717   4.555   2.821  0.5582  0.2064 -0.1049
10501TIP3    H152994   0.623   4.544   2.832  0.7428 -1.4109 -0.0331
10501TIP3    H252995   0.727   4.586   2.731  0.0188 -0.8216 -0.5284
10502TIP3   OH252996   1.968   1.142   5.591  0.2292 -0.5172 -0.0329
10502TIP3    H152997   1.876   1.121   5.573  0.1601 -0.4619  0.2560
10502TIP3    H252998   1.993   1.204   5.522 -0.5183  1.0022  1.0438
10503TIP3   OH252999   3.137   5.240   2.064  0.3442  0.3494  0.4823
10503TIP3    H153000   3.119   5.146   2.052 -0.2826  0.5798 -0.3991
10503TIP3    H253001   3.229   5.250   2.040  0.1349  0.1351 -0.4205
10504TIP3   OH253002   4.164   0.458   5.928  0.4152 -0.0937 -0.1532
10504TIP3    H153003   4.169   0.447   5.833  1.9542 -1.1692  0.0389
10504TIP3    H253004   4.165   0.553   5.941  1.1289  0.0518 -1.1674
10505TIP3   OH253005   6.571   4.280  17.072  0.2885 -0.0514 -0.1357
10505TIP3    H153006   6.495   4.325  17.109  1.1907 -0.7325  2.7408
10505TIP3    H253007   6.548   4.264  16.981 -2.4284  0.9769  0.3075
10506TIP3   OH253008   4.076   1.152  12.364  0.2956  0.0700  0.0291
10506TIP3    H153009   4.111   1.092  12.299 -0.1993 -0.4005  0.1861
10506TIP3    H253010   4.149   1.170  12.423  0.3771 -0.5847  0.1266
10507TIP3   OH253011   0.538   4.355   4.220 -0.0895  0.1432 -0.1334
10507TIP3    H153012   0.457   4.376   4.174 -0.2278 -1.2432 -0.5459
10507TIP3    H253013   0.584   4.439   4.227 -1.3213  0.8512 -0.3378
10508TIP3   OH253014   1.122   0.535  13.971 -0.4525  0.0456  0.1445
10508TIP3    H153015   1.195   0.515  14.030  0.2869  0.1510 -0.7277
10508TIP3    H253016   1.139   0.623  13.940 -0.8326 -0.0110 -0.2416
10509TIP3   OH253017   3.013   5.284   4.921 -0.2252 -0.0673 -0.1992
10509TIP3    H153018   2.929   5.281   4.875 -0.6051 -0.0574  0.4830
10509TIP3    H253019   3.020   5.374   4.953  0.1235 -0.0224 -0.4022
10510TIP3   OH253020   4.576   0.218  13.327  0.1413  0.5448  0.1252
10510TIP3    H153021   4.513   0.237  13.258 -0.5404 -0.4773  0.4604
10510TIP3    H253022   4.529   0.236  13.408  0.0166 -0.9466  0.4034
10511TIP3   OH253023   3.664   4.017  16.397  0.4697  0.2370  0.1179
10511TIP3    H153024   3.655   3.941  16.340  0.6809 -0.2069  0.6686
10511TIP3    H253025   3.648   4.092  16.340 -0.2358 -0.2415 -0.3238
10512TIP3   OH253026   1.606   3.261  15.275 -0.3406 -0.3496 -0.1142
10512TIP3    H153027   1.548   3.255  15.351  1.5519 -1.0659  1.3233
10512TIP3    H253028   1.651   3.345  15.287  1.0017 -1.1236  0.3410
10513TIP3   OH253029   5.359   3.589  15.527  0.2992 -0.7210  0.2460
10513TIP3    H153030   5.358   3.684  15.511  1.0355 -1.2867 -3.6253
10513TIP3    H253031   5.398   3.580  15.614 -2.0385  2.6142  1.7564
10514TIP3   OH253032   2.756   4.042  13.774  0.3957  0.1363  0.2117
10514TIP3    H153033   2.739   3.948  13.783  0.4515  0.2189  1.1813
10514TIP3    H253034   2.847   4.047  13.746 -0.1200 -0.1607 -1.6260
10515TIP3   OH253035   1.287   3.849  13.535 -0.1703 -0.0353  0.3331
10515TIP3    H153036   1.351   3.907  13.495 -0.4343 -1.2060 -1.8839
10515TIP3    H253037   1.340   3.781  13.579  0.1113 -0.1810 -0.2322
10516TIP3   OH253038   0.492   0.546  16.363 -0.6459  0.4215  0.7164
10516TIP3    H153039   0.581   0.523  16.392 -0.1263 -1.6588 -2.3358
10516TIP3    H253040   0.499   0.637  16.336  0.6262  0.2242  0.3176
10517TIP3   OH253041   6.781   5.604  13.411  0.0900  0.2540  0.1912
10517TIP3    H153042   6.705   5.605  13.353 -1.7192  2.6881  2.5028
10517TIP3    H253043   6.848   5.655  13.364 -0.4261 -0.0658 -0.9024
10518TIP3   OH253044   2.098   3.840   5.197 -0.4006  0.1416 -0.6084
10518TIP3    H153045   2.092   3.746   5.183  2.0299 -0.3062  1.1287
10518TIP3    H253046   2.065   3.853   5.286  2.4800  0.4514  0.4607
10519TIP3   OH253047   2.379   0.800  15.933  1.2551  0.5297 -0.0472
10519TIP3    H153048   2.386   0.707  15.953  1.4911  0.4373 -0.5367
10519TIP3    H253049   2.328   0.804  15.852 -1.1943  0.9977  1.4888
10520TIP3   OH253050   5.343   6.504  15.406 -0.5894 -0.5622  0.6510
10520TIP3    H153051   5.434   6.487  15.379 -0.6507 -0.2407  0.2331
10520TIP3    H253052   5.336   6.599  15.407 -2.0431 -0.5405 -3.2044
10521TIP3   OH253053   6.369   5.971  16.806 -0.2455  0.5192 -0.3900
10521TIP3    H153054   6.462   5.985  16.825 -0.1547 -0.2122 -0.2879
10521TIP3    H253055   6.329   6.056  16.821  0.2951  0.6645  0.2406
10522TIP3   OH253056   4.609   4.943  15.794 -0.1354  0.0912  0.1204
10522TIP3    H153057   4.656   4.861  15.783 -0.4194  0.1210 -1.4501
10522TIP3    H253058   4.533   4.935  15.736 -0.3954  1.2926  0.2784
10523TIP3   OH253059   2.891   4.540   3.692  0.1343  0.1667 -0.3717
10523TIP3    H153060   2.829   4.592   3.640  2.0463  3.4307  0.4376
10523TIP3    H253061   2.857   4.545   3.781 -1.0408 -2.1601 -0.6672
10524TIP3   OH253062   2.527   2.619   2.086  0.6333 -0.2127  0.7634
10524TIP3    H153063   2.565   2.613   2.173  1.9169  1.0915  0.3082
10524TIP3    H253064   2.433   2.613   2.101  0.7712  1.2495  2.3727
10525TIP3   OH253065   6.277   2.836   2.107  0.1407  0.9283 -0.0357
10525TIP3    H153066   6.271   2.912   2.165  2.1578  1.1611 -0.0943
10525TIP3    H253067   6.233   2.765   2.155 -0.2464  1.7027  0.7604
10526TIP3   OH253068   0.740   0.837  15.028 -0.0065  0.0708 -0.1159
10526TIP3    H153069   0.722   0.886  14.947 -1.8591  0.1161  0.2943
10526TIP3    H253070   0.653   0.820  15.065  0.7586 -1.2108  1.1286
10527TIP3   OH253071   6.003   3.288  15.970  0.2474  0.9408  0.5653
10527TIP3    H153072   5.937   3.221  15.985 -0.6078  1.8466  0.8654
10527TIP3    H253073   6.086   3.242  15.978 -0.3309  0.0007  1.1740
10528TIP3   OH253074   6.081   6.436  15.961 -0.2838 -0.1516  0.3050
10528TIP3    H153075   6.079   6.522  15.918  1.1767  0.5269  1.5306
10528TIP3    H253076   6.013   6.441  16.028 -2.6853 -1.2759 -1.9981
10529TIP3   OH253077   3.839   4.045  11.354 -0.1988  0.1072  0.1071
10529TIP3    H153078   3.858   4.023  11.445 -1.4044 -0.4048  0.2485
10529TIP3    H253079   3.876   3.973  11.303 -2.5845 -1.4156  0.4455
10530TIP3   OH253080   3.629   4.402   1.515  0.3374 -0.3051 -0.0786
10530TIP3    H153081   3.710   4.396   1.464  0.8368  0.2132  0.6404
10530TIP3    H253082   3.655   4.382   1.605 -0.1766  0.6567  0.2972
10531TIP3   OH253083   4.215   3.583   0.145  0.7097 -0.1146 -0.4973
10531TIP3    H153084   4.193   3.672   0.172 -1.5192 -0.6248 -0.5209
10531TIP3    H253085   4.151   3.528   0.190  1.2059 -1.5802 -1.5519
10532TIP3   OH253086   0.983   5.484   3.418  0.0369  0.0276  0.1087
10532TIP3    H153087   0.965   5.498   3.325 -1.0457 -2.2559 -0.0575
10532TIP3    H253088   0.988   5.572   3.456 -0.9292  0.9356 -1.8418
10533TIP3   OH253089   4.173   5.790   6.516 -0.4273  0.3102  0.5653
10533TIP3    H153090   4.169   5.746   6.601 -2.3668 -1.3086 -0.3163
10533TIP3    H253091   4.248   5.849   6.523 -0.6424  0.3142  3.4434
10534TIP3   OH253092   3.452   1.746   5.556  0.3035  0.4658 -0.4149
10534TIP3    H153093   3.390   1.713   5.491  0.5358  1.1442 -0.9961
10534TIP3    H253094   3.472   1.671   5.611  0.3587 -0.2073 -1.3418
10535TIP3   OH253095   0.024   4.162   4.789 -0.0998 -0.3508 -0.3869
10535TIP3    H153096  -0.043   4.208   4.838  0.1606 -1.0873  0.6729
10535TIP3    H253097   0.106   4.188   4.831  0.1629 -0.5945 -0.7485
10536TIP3   OH253098   2.244   1.945  14.388  0.2366  0.2985 -0.0986
10536TIP3    H153099   2.263   1.863  14.433  2.3963  0.3278 -0.9329
10536TIP3    H253100   2.329   1.977  14.359 -0.6795  2.3991 -0.5451
10537TIP3   OH253101   2.185   2.289   3.606  0.1786 -0.6501  0.1591
10537TIP3    H153102   2.222   2.320   3.688 -1.9952 -1.1905  1.3747
10537TIP3    H253103   2.215   2.199   3.598 -0.2947 -0.8621  0.7814
10538TIP3   OH253104   0.784   2.511  16.340  0.1063  0.1524 -0.3294
10538TIP3    H153105   0.749   2.461  16.265  0.0303  0.6297 -0.6140
10538TIP3    H253106   0.766   2.602  16.318  1.2539  0.3859 -0.3353
10539TIP3   OH253107   3.376   0.492  15.956  0.0880  0.0262 -0.0208
10539TIP3    H153108   3.407   0.580  15.937  1.7408 -0.8389 -1.5599
10539TIP3    H253109   3.456   0.440  15.964 -0.8803 -1.6141 -0.6337
10540TIP3   OH253110   0.773   2.625   1.145 -0.2394 -0.1841 -0.6856
10540TIP3    H153111   0.726   2.556   1.191 -0.3564 -0.3157 -1.0053
10540TIP3    H253112   0.711   2.658   1.080 -0.3641  0.5735 -0.1916
10541TIP3   OH253113   4.063   3.793   5.129  0.0951  0.0569  0.0490
10541TIP3    H153114   4.044   3.885   5.113 -1.7304 -0.5997 -1.8144
10541TIP3    H253115   4.152   3.792   5.164  1.3376  2.2940 -2.8423
10542TIP3   OH253116   1.985   0.721   5.082  0.2906 -0.1144  0.2776
10542TIP3    H153117   1.906   0.771   5.100 -0.0998 -0.6494  0.0828
10542TIP3    H253118   2.004   0.675   5.164 -1.8424 -3.0388 -0.7613
10543TIP3   OH253119   5.734   2.206   5.441  0.6971 -0.2002 -0.7524
10543TIP3    H153120   5.748   2.155   5.362 -1.6490 -0.0406 -1.3009
10543TIP3    H253121   5.639   2.218   5.446  0.9830  1.7350  0.8583
10544TIP3   OH253122   5.955   1.887  13.509  0.1029  0.4806  0.0602
10544TIP3    H153123   5.910   1.901  13.592 -0.3129 -4.0373  0.7305
10544TIP3    H253124   6.048   1.894  13.530  0.1111 -2.9206  1.5423
10545TIP3   OH253125   4.545   5.390   1.744 -0.4459 -0.3008  0.3394
10545TIP3    H153126   4.555   5.381   1.839 -1.5094  1.4833  0.6461
10545TIP3    H253127   4.608   5.328   1.707 -0.0589 -1.0466  2.2053
10546TIP3   OH253128   3.188   5.574   3.026 -0.1060 -0.3940  0.1272
10546TIP3    H153129   3.235   5.600   2.947  0.1295 -1.6701 -0.1539
10546TIP3    H253130   3.222   5.633   3.094 -0.7103  1.0851 -0.8187
10547TIP3   OH253131   4.124   3.265   3.013  0.8571 -0.5152 -0.4909
10547TIP3    H153132   4.108   3.341   3.069 -2.4517  1.7456 -4.2533
10547TIP3    H253133   4.212   3.278   2.979 -0.0591  2.2786 -1.9120
10548TIP3   OH253134   0.386   1.576  11.701  0.4071 -0.0861 -0.1433
10548TIP3    H153135   0.371   1.632  11.625  2.1115 -0.1662 -0.5736
10548TIP3    H253136   0.395   1.488  11.664  0.0059 -0.3094  0.2866
10549TIP3   OH253137   2.972   4.061  13.137 -0.0512 -0.1561  0.4047
10549TIP3    H153138   2.933   4.142  13.104 -0.5804 -0.0111  1.3745
10549TIP3    H253139   2.948   3.995  13.071 -2.4959 -0.1907  1.2693
10550TIP3   OH253140   0.208   6.058  12.690 -0.6690  0.4864  0.5114
10550TIP3    H153141   0.139   6.075  12.754 -1.6754 -0.5618 -0.2586
10550TIP3    H253142   0.184   5.974  12.651  1.3629 -0.1670  0.6231
10551TIP3   OH253143   6.236   2.876  13.192 -0.1355  0.3854 -0.0590
10551TIP3    H153144   6.201   2.956  13.153  1.7219  1.8476  1.1792
10551TIP3    H253145   6.204   2.805  13.135 -0.0582  2.1788 -2.4153
10552TIP3   OH253146   5.379   0.043   0.181 -0.0629  0.5932  0.2217
10552TIP3    H153147   5.374  -0.013   0.104 -1.3294  0.2261  0.5597
10552TIP3    H253148   5.353   0.130   0.149 -0.1736  0.5310  0.1423
10553TIP3   OH253149   5.696   4.717  15.366  0.4922 -0.1194 -0.2108
10553TIP3    H153150   5.752   4.662  15.421  0.4921  1.8609  1.8551
10553TIP3    H253151   5.744   4.800  15.359 -1.8976  1.4395  1.1772
10554TIP3   OH253152   3.280   0.119  14.426  0.0107 -0.3939 -0.4971
10554TIP3    H153153   3.268   0.024  14.426 -1.4699 -0.2528  1.3031
10554TIP3    H253154   3.206   0.153  14.374 -0.6128 -0.1481  0.5245
10555TIP3   OH253155   6.308   2.270   3.590 -0.2834  0.4650  0.4103
10555TIP3    H153156   6.375   2.332   3.618  0.1022  0.7563 -1.0698
10555TIP3    H253157   6.227   2.320   3.589  0.1822  1.2578 -1.6942
10556TIP3   OH253158   0.487   1.011  11.629 -0.3348 -0.4110  0.0844
10556TIP3    H153159   0.537   0.954  11.571 -0.5761  0.5816 -1.1262
10556TIP3    H253160   0.395   0.989  11.610 -0.4038 -0.6698  0.7008
10557TIP3   OH253161   5.321   6.267  13.296 -1.5084 -0.6400  0.4871
10557TIP3    H153162   5.286   6.342  13.344  0.6466 -1.2273  3.0693
10557TIP3    H253163   5.411   6.291  13.276 -1.3241 -1.8551 -0.2118
10558TIP3   OH253164   5.122   6.819   1.799  0.1827  0.1720  0.2224
10558TIP3    H153165   5.071   6.899   1.784  0.6822  0.3295 -0.6865
10558TIP3    H253166   5.117   6.804   1.894  1.8980  2.5319  0.7540
10559TIP3   OH253167   2.433   5.171   5.220 -0.1589 -0.7094  0.1823
10559TIP3    H153168   2.529   5.169   5.223 -0.1438 -0.6466 -0.3502
10559TIP3    H253169   2.412   5.208   5.135 -0.6590 -0.7750  0.2774
10560TIP3   OH253170   4.934   6.766   2.883  0.8949 -0.1276  0.2870
10560TIP3    H153171   4.967   6.788   2.796  2.3801 -1.2215  0.5379
10560TIP3    H253172   5.000   6.800   2.943  0.0027  0.4027  0.9796
10561TIP3   OH253173   2.171   0.319   6.212  0.4324 -0.0947 -0.0973
10561TIP3    H153174   2.187   0.231   6.247 -1.1989 -0.2708  0.2407
10561TIP3    H253175   2.198   0.378   6.283 -0.1948 -0.3687  0.3704
10562TIP3   OH253176   6.643   6.282   1.937 -0.5792  0.1784  1.0830
10562TIP3    H153177   6.690   6.365   1.925 -0.4382  0.1298  1.2954
10562TIP3    H253178   6.654   6.261   2.030  1.5217 -1.3418  0.5272
10563TIP3   OH253179   5.069   5.364  16.199  0.0546  0.4097 -1.0343
10563TIP3    H153180   5.111   5.424  16.139  0.0238  0.8930 -0.5747
10563TIP3    H253181   4.976   5.370  16.179 -0.2954  2.8280  1.0573
10564TIP3   OH253182   4.771   5.834   3.844  0.3603  0.3099  0.0061
10564TIP3    H153183   4.721   5.753   3.847  1.0443 -0.0855  0.7211
10564TIP3    H253184   4.806   5.844   3.932  0.6065  1.1774 -0.1870
10565TIP3   OH253185   5.411   0.611   2.458  0.2430  0.4828 -0.1338
10565TIP3    H153186   5.349   0.666   2.410 -2.4353 -0.4527  2.1404
10565TIP3    H253187   5.420   0.654   2.543  0.5765 -0.8816  0.5345
10566TIP3   OH253188   0.274   6.820  14.416 -0.0572  0.3463  0.3161
10566TIP3    H153189   0.322   6.894  14.454 -0.4005  0.9458 -0.4164
10566TIP3    H253190   0.343   6.757  14.393  0.1590 -0.0364  1.9160
10567TIP3   OH253191   2.052   0.408  16.756 -0.4879  0.3029  0.0809
10567TIP3    H153192   2.094   0.397  16.671  0.1173  2.9028  0.0021
10567TIP3    H253193   2.109   0.361  16.817  0.0647 -0.0163 -0.6705
10568TIP3   OH253194   3.727   5.479  10.340 -0.0005  0.4370 -0.1140
10568TIP3    H153195   3.701   5.440  10.423  0.2790  0.6231  0.0649
10568TIP3    H253196   3.808   5.434  10.316 -0.4891 -0.1373 -0.6646
10569TIP3   OH253197   1.018   6.193  11.379 -0.4321 -0.2011  0.0039
10569TIP3    H153198   1.109   6.171  11.355 -0.8162 -0.9041 -0.8371
10569TIP3    H253199   0.985   6.113  11.420  0.0226  0.7877  2.3939
10570TIP3   OH253200   2.051   5.474  14.295  0.1281 -0.4507 -0.1491
10570TIP3    H153201   2.074   5.470  14.388  0.0787  1.5199 -0.0381
10570TIP3    H253202   2.007   5.558  14.285  0.0649 -0.6877 -1.9526
10571TIP3   OH253203   4.691   1.817  12.717  0.6888 -0.1309 -0.4982
10571TIP3    H153204   4.661   1.883  12.654  1.1843  1.0880  0.5219
10571TIP3    H253205   4.782   1.841  12.736  0.9067 -1.1712 -0.2022
10572TIP3   OH253206   0.408   6.262  16.641 -0.6268  0.0572 -0.0414
10572TIP3    H153207   0.347   6.188  16.651 -1.4427  0.4617 -1.8433
10572TIP3    H253208   0.474   6.247  16.709 -1.6800 -1.4373  0.6969
10573TIP3   OH253209   1.168   4.962  12.569  1.0322 -0.0611 -0.3032
10573TIP3    H153210   1.257   4.989  12.591  0.2702  0.9527  1.6546
10573TIP3    H253211   1.137   4.916  12.647  0.0123 -0.8683 -1.1704
10574TIP3   OH253212   0.946   4.763  11.075 -0.4213  0.4006 -0.0305
10574TIP3    H153213   1.040   4.779  11.081 -0.6346  0.7696  4.1677
10574TIP3    H253214   0.916   4.764  11.166 -4.4958  0.2484 -1.2639
10575TIP3   OH253215   2.117   0.499   5.019 -0.1625 -0.0598 -0.1963
10575TIP3    H153216   2.064   0.441   4.965 -0.4234 -0.5923  0.6199
10575TIP3    H253217   2.072   0.583   5.016 -0.7920 -0.3897  0.1229
10576TIP3   OH253218   1.145   5.788   2.447  0.4524  0.2186  0.3022
10576TIP3    H153219   1.235   5.819   2.437  0.3608  0.3935  0.0229
10576TIP3    H253220   1.152   5.693   2.448  0.7023  0.2428  0.8458
10577TIP3   OH253221   3.295   1.988  15.624 -0.1070 -0.1502  0.3170
10577TIP3    H153222   3.218   1.952  15.669 -1.4371 -0.0958 -1.8625
10577TIP3    H253223   3.360   1.918  15.626 -0.3109 -0.3135  1.8782
10578TIP3   OH253224   2.800   2.572   6.132  0.1620  0.4550 -0.2750
10578TIP3    H153225   2.864   2.632   6.094  0.2746  0.1329 -0.5987
10578TIP3    H253226   2.791   2.502   6.067  0.7844 -0.3995  0.5346
10579TIP3   OH253227   3.462   3.328   5.203  0.2159 -0.0530  0.4138
10579TIP3    H153228   3.509   3.329   5.120  1.5324  2.1120  1.1389
10579TIP3    H253229   3.369   3.323   5.179  0.5857  0.4688 -1.1630
10580TIP3   OH253230   3.616   3.008  15.420  0.2239 -0.3723 -0.0983
10580TIP3    H153231   3.563   2.964  15.486 -0.0400  0.3845  0.2043
10580TIP3    H253232   3.594   2.964  15.338 -0.9927  0.0227  0.0014
10581TIP3   OH253233   2.598   2.303   6.618 -0.5920  0.7096 -0.5160
10581TIP3    H153234   2.538   2.375   6.597  1.5618  2.9962  0.8083
10581TIP3    H253235   2.553   2.253   6.685 -2.0617  0.9179 -1.3228
10582TIP3   OH253236   3.613   2.564  15.249 -0.9344 -0.1489 -0.4041
10582TIP3    H153237   3.608   2.566  15.345 -1.8852 -0.2055 -0.4405
10582TIP3    H253238   3.569   2.483  15.225 -2.1353  0.6456 -0.9536
10583TIP3   OH253239   1.993   2.010   3.135 -0.1418  0.1989 -0.0514
10583TIP3    H153240   2.017   1.934   3.189 -1.8023 -0.1434  0.2200
10583TIP3    H253241   1.970   2.078   3.198  0.6455  0.7134 -0.3073
10584TIP3   OH253242   5.997   0.052  12.830 -0.2533 -0.8733  0.1707
10584TIP3    H153243   6.089   0.033  12.846 -0.0609  0.8417  1.1873
10584TIP3    H253244   5.984   0.031  12.737  1.6883  0.8540 -0.5277
10585TIP3   OH253245   0.323   3.587   0.167  0.6573 -0.0836 -0.1666
10585TIP3    H153246   0.348   3.519   0.105 -1.0936 -0.8875 -0.0436
10585TIP3    H253247   0.334   3.546   0.253 -1.6256 -0.6743 -0.1335
10586TIP3   OH253248   5.817   1.036  13.721  0.0756  0.2146 -0.2985
10586TIP3    H153249   5.889   1.069  13.774  0.8461 -0.7330 -0.7437
10586TIP3    H253250   5.857   1.015  13.637 -0.7995  0.0723 -0.6824
10587TIP3   OH253251   0.602   0.591   3.786  0.3415 -0.3284  0.1308
10587TIP3    H153252   0.591   0.524   3.854  0.1664  1.3599  1.8015
10587TIP3    H253253   0.537   0.658   3.808 -0.6692 -0.3979 -2.5322
10588TIP3   OH253254   5.434   5.844  15.477  0.2067 -0.7200  0.0333
10588TIP3    H153255   5.500   5.802  15.532  1.4460  0.2170 -0.6968
10588TIP3    H253256   5.484   5.880  15.404 -1.2602 -0.9362 -1.1095
10589TIP3   OH253257   5.126   2.706  15.009 -0.5677  0.3298 -0.6656
10589TIP3    H153258   5.058   2.639  15.015  0.5477 -0.8214 -0.5032
10589TIP3    H253259   5.094   2.767  14.943 -1.8216 -0.1037 -0.4799
10590TIP3   OH253260   0.324   0.599   1.642  0.5000 -0.2364  0.1474
10590TIP3    H153261   0.270   0.662   1.690  1.0042  0.5924 -0.3673
10590TIP3    H253262   0.292   0.514   1.671  0.0192  0.2533  1.0810
10591TIP3   OH253263   2.472   4.391   5.174 -0.0156 -0.9136 -0.0160
10591TIP3    H153264   2.500   4.320   5.233  0.1973  0.1004  1.1296
10591TIP3    H253265   2.377   4.379   5.166 -0.3326  0.0369  2.0410
10592TIP3   OH253266   5.074   1.965  16.541  0.0167  0.4173  0.1039
10592TIP3    H153267   5.033   1.887  16.579 -0.8693  1.2892  0.9668
10592TIP3    H253268   5.167   1.943  16.535 -0.3569 -1.0595 -0.5642
10593TIP3   OH253269   1.765   4.394  15.023 -0.1047  0.3732  0.1864
10593TIP3    H153270   1.739   4.457  14.956 -0.3883 -0.8343 -0.8682
10593TIP3    H253271   1.802   4.321  14.974  0.1589 -0.3070  1.3803
10594TIP3   OH253272   4.574   3.520  10.405 -0.3267  0.7654  0.2344
10594TIP3    H153273   4.651   3.526  10.347  0.2715 -1.9944  0.6654
10594TIP3    H253274   4.504   3.489  10.348 -0.2011 -0.1603  0.5709
10595TIP3   OH253275   0.256   6.361   0.422 -0.2235  0.4446  0.1992
10595TIP3    H153276   0.320   6.328   0.486  0.4515  0.5689 -0.4134
10595TIP3    H253277   0.226   6.444   0.460 -1.4474 -0.5341  1.4263
10596TIP3   OH253278   2.274   4.221  14.913  0.5882 -0.5064 -0.0697
10596TIP3    H153279   2.254   4.132  14.943  0.1856 -0.4798 -0.2514
10596TIP3    H253280   2.289   4.270  14.994  2.2729 -1.0744 -0.0282
10597TIP3   OH253281   1.386   4.012  10.819  0.0466  0.3767 -0.5275
10597TIP3    H153282   1.377   3.918  10.836 -1.4931  0.1860 -2.1535
10597TIP3    H253283   1.429   4.016  10.733 -0.8184  1.1226 -0.9362
10598TIP3   OH253284   5.257   3.409   5.069 -0.1319  0.1174  0.1387
10598TIP3    H153285   5.316   3.474   5.030 -0.0186  0.6955  1.2618
10598TIP3    H253286   5.299   3.384   5.151 -1.6246  0.8364  1.1567
10599TIP3   OH253287   4.679   3.433   1.772  0.2273 -0.2405 -0.0674
10599TIP3    H153288   4.727   3.501   1.724  0.0493  1.8609  2.6050
10599TIP3    H253289   4.589   3.441   1.740  0.2161  0.7669  0.1924
10600TIP3   OH253290   0.589   2.196   4.762  0.1970 -0.1857 -0.9708
10600TIP3    H153291   0.660   2.188   4.698  0.7997  1.5878 -0.5510
10600TIP3    H253292   0.537   2.116   4.751  1.2821 -0.6972 -2.4663
10601TIP3   OH253293   4.413   6.432   0.429  0.2925 -0.6684 -0.1508
10601TIP3    H153294   4.380   6.360   0.482  1.4453 -0.0602  1.4002
10601TIP3    H253295   4.508   6.429   0.438  0.3529  1.2824  0.2903
10602TIP3   OH253296   3.750   5.948  11.309  0.3720 -0.3481 -0.7190
10602TIP3    H153297   3.681   5.918  11.251 -0.6219  0.6494 -0.0791
10602TIP3    H253298   3.704   5.971  11.391  1.7156 -1.5973  0.4099
10603TIP3   OH253299   3.417   0.552   4.692  0.7620 -0.4270  0.3162
10603TIP3    H153300   3.397   0.644   4.707 -0.9738 -0.4175 -1.7609
10603TIP3    H253301   3.484   0.553   4.624  0.2703 -0.6877 -0.1818
10604TIP3   OH253302   1.006   6.214  16.995 -0.1433 -0.1513 -0.2870
10604TIP3    H153303   0.982   6.166  16.916 -2.2222 -0.9207  0.7770
10604TIP3    H253304   1.064   6.154  17.043 -0.2039 -0.3303 -0.4373
10605TIP3   OH253305   3.486   5.928  12.609 -0.0778 -0.0902  0.0901
10605TIP3    H153306   3.435   5.861  12.564  0.6415 -1.6557  1.5736
10605TIP3    H253307   3.467   5.914  12.702  3.0330 -0.7052  0.6638
10606TIP3   OH253308   4.085   0.572   5.486 -0.0456  0.3749 -0.0415
10606TIP3    H153309   4.044   0.536   5.565  1.0773 -0.9989 -0.0599
10606TIP3    H253310   4.037   0.652   5.468 -0.8200  0.2946  1.6011
10607TIP3   OH253311   6.504   3.593   4.382  0.0581  0.0702  0.5067
10607TIP3    H153312   6.448   3.670   4.373 -0.0873  0.2045  2.5291
10607TIP3    H253313   6.590   3.623   4.352 -0.6938  0.1031 -1.7614
10608TIP3   OH253314   3.404   0.656  14.889  0.0878 -0.1558 -0.1395
10608TIP3    H153315   3.468   0.586  14.897 -0.4190 -0.6123 -0.0517
10608TIP3    H253316   3.393   0.689  14.978  0.9523  0.5984 -0.3088
10609TIP3   OH253317   0.541   2.983   4.868 -0.2111  0.2982 -0.2400
10609TIP3    H153318   0.554   3.000   4.775  0.9991 -0.0842 -0.1556
10609TIP3    H253319   0.620   2.935   4.894 -0.5090  0.4751  0.9981
10610TIP3   OH253320   1.117   5.356  13.483 -0.6151  0.4882  0.4577
10610TIP3    H153321   1.091   5.407  13.560 -1.3504 -0.6749  0.9896
10610TIP3    H253322   1.173   5.415  13.433 -1.9436  2.0517  0.7557
10611TIP3   OH253323   3.983   6.627   3.082  0.3588  0.8292 -0.5427
10611TIP3    H153324   3.951   6.689   3.148  2.1139 -0.2190  1.3596
10611TIP3    H253325   3.934   6.649   3.003 -2.0750  1.9043  1.1890
10612TIP3   OH253326   3.781   0.789   5.068 -0.6803  0.3506 -0.6977
10612TIP3    H153327   3.728   0.812   5.144  0.4183  1.0270 -0.1225
10612TIP3    H253328   3.798   0.872   5.024 -1.1815 -0.0192 -1.6112
10613TIP3   OH253329   6.627   4.393  13.046 -0.3243  0.0495 -0.3564
10613TIP3    H153330   6.603   4.308  13.007 -0.3264  0.6017 -1.5791
10613TIP3    H253331   6.642   4.450  12.971 -0.0216  1.0570  0.4665
10614TIP3   OH253332   6.450   3.568   0.640  0.3313  0.3313 -0.2113
10614TIP3    H153333   6.453   3.590   0.547 -0.1005 -1.4934 -0.6701
10614TIP3    H253334   6.526   3.613   0.678 -0.2592  2.2105 -1.1801
10615TIP3   OH253335   6.062   0.829  12.544  0.0633 -0.2746  0.1536
10615TIP3    H153336   6.068   0.737  12.571  0.0030 -0.0845  0.8336
10615TIP3    H253337   5.970   0.851  12.556  0.3304  0.2536  1.2559
10616TIP3   OH253338   6.671   3.988  15.713 -0.2376 -0.3533 -0.4700
10616TIP3    H153339   6.629   3.908  15.745  0.4279 -1.1278 -1.4868
10616TIP3    H253340   6.737   4.009  15.779  0.5147 -1.4254 -0.8540
10617TIP3   OH253341   5.057   2.460   2.193  0.4332  0.4367  0.7727
10617TIP3    H153342   4.967   2.490   2.178  1.4456  3.4891  0.5072
10617TIP3    H253343   5.065   2.458   2.288 -0.7189 -2.5621  0.8779
10618TIP3   OH253344   4.615   2.867  15.299 -0.5741  0.0413  0.7822
10618TIP3    H153345   4.651   2.860  15.210  1.0525 -1.0451  1.5118
10618TIP3    H253346   4.525   2.835  15.291 -0.1948 -0.7719 -0.3237
10619TIP3   OH253347   5.648   5.261  11.144 -0.7265 -0.7586  0.3106
10619TIP3    H153348   5.689   5.175  11.141  0.0969 -0.3353 -2.2939
10619TIP3    H253349   5.720   5.322  11.129 -1.6461  0.2374 -0.1560
10620TIP3   OH253350   1.468   0.549   0.014  0.3553  0.5229  0.6012
10620TIP3    H153351   1.425   0.621   0.061  1.2786  2.4363 -1.3654
10620TIP3    H253352   1.398   0.508  -0.036 -0.0544  0.5082  1.1800
10621TIP3   OH253353   3.349   6.763   5.646 -0.2680  0.1121 -0.0555
10621TIP3    H153354   3.308   6.764   5.559  0.1193  0.3265 -0.2338
10621TIP3    H253355   3.375   6.671   5.659  0.1869  0.1896 -0.4057
10622TIP3   OH253356   1.707   5.033   1.013  0.0445  0.5012 -0.4167
10622TIP3    H153357   1.783   5.014   1.067 -0.6047  0.5979  0.5346
10622TIP3    H253358   1.673   4.946   0.988  0.6425  0.4578 -1.1095
10623TIP3   OH253359   1.324   0.212   4.272 -0.1910 -0.3749 -0.2270
10623TIP3    H153360   1.325   0.116   4.267 -2.9062 -0.5590  1.6720
10623TIP3    H253361   1.378   0.240   4.198  0.3918 -3.3608 -1.0147
10624TIP3   OH253362   5.302   5.960   1.368  0.0463 -0.6577  0.0752
10624TIP3    H153363   5.326   6.051   1.352 -0.5837 -0.4860  0.0776
10624TIP3    H253364   5.370   5.927   1.427  0.8013 -0.4672 -0.6695
10625TIP3   OH253365   0.379   0.539  17.124 -0.2500  0.0754 -0.2329
10625TIP3    H153366   0.399   0.550  17.031  1.0063 -0.3688 -0.0225
10625TIP3    H253367   0.440   0.471  17.154 -1.7537 -0.9540  0.5421
10626TIP3   OH253368   3.769   2.437   2.515  0.3589  0.4789  0.6159
10626TIP3    H153369   3.679   2.435   2.548  0.7120 -0.7593  1.5515
10626TIP3    H253370   3.801   2.524   2.540 -0.2730  0.5818  1.0985
10627TIP3   OH253371   1.503   3.184   3.121  0.3892 -0.2143  0.7991
10627TIP3    H153372   1.585   3.162   3.165 -0.2154 -1.9008  1.1391
10627TIP3    H253373   1.511   3.144   3.035 -0.2936 -0.8668  1.0334
10628TIP3   OH253374   1.721   5.342   1.416 -0.5330  0.1978  0.5247
10628TIP3    H153375   1.630   5.311   1.411 -0.9570  1.5159 -0.4483
10628TIP3    H253376   1.757   5.323   1.330 -0.0108  0.0658  0.7739
10629TIP3   OH253377   5.688   6.116  15.105 -0.3437  0.1321 -0.2055
10629TIP3    H153378   5.694   6.036  15.054 -0.8717  1.2551 -2.1023
10629TIP3    H253379   5.712   6.185  15.044  2.2901  1.2626  1.9813
10630TIP3   OH253380   0.123   4.950  16.158  0.0272  0.0481  0.0638
10630TIP3    H153381   0.073   4.888  16.105  1.0887  0.2173 -1.1583
10630TIP3    H253382   0.157   4.897  16.230  0.6381 -0.7245 -0.7776
10631TIP3   OH253383   1.183   1.065  16.527 -0.0305  0.0467 -0.0908
10631TIP3    H153384   1.147   1.073  16.615  0.7246  0.8705  0.1520
10631TIP3    H253385   1.217   1.152  16.507  1.4564 -0.6020 -0.4657
10632TIP3   OH253386   5.723   3.311   0.342 -0.2238 -0.2384 -0.5361
10632TIP3    H153387   5.752   3.230   0.299  0.8607 -0.5447  0.7492
10632TIP3    H253388   5.654   3.344   0.284  0.8228 -0.9093 -2.2335
10633TIP3   OH253389   2.890   3.735  16.455 -0.0076  0.2284 -0.1447
10633TIP3    H153390   2.899   3.806  16.392 -1.3773 -0.7781 -1.5366
10633TIP3    H253391   2.956   3.671  16.428  0.5077  0.5086  0.4533
10634TIP3   OH253392   4.715   4.393  10.819  0.0464  0.5359  0.3969
10634TIP3    H153393   4.757   4.478  10.825  1.0075  0.1095 -0.0984
10634TIP3    H253394   4.780   4.337  10.775 -0.3417 -0.5916  1.2317
10635TIP3   OH253395   0.292   3.557   1.832 -0.1620  0.5703  0.0538
10635TIP3    H153396   0.362   3.521   1.779 -1.5498 -0.9379 -0.7810
10635TIP3    H253397   0.300   3.652   1.821  0.9789  0.3648 -0.9754
10636TIP3   OH253398   4.616   3.374  11.927  0.2982  0.1850  0.2763
10636TIP3    H153399   4.635   3.352  11.836 -0.0287  2.3995 -0.3573
10636TIP3    H253400   4.522   3.388  11.929  0.6436  2.6559  0.3701
10637TIP3   OH253401   2.697   0.944  13.612 -0.4738 -0.0132 -0.0133
10637TIP3    H153402   2.787   0.913  13.597 -0.5833 -0.4719  0.2571
10637TIP3    H253403   2.687   0.943  13.707 -0.1995  1.6866  0.0470
10638TIP3   OH253404   0.354   5.050   1.106  0.5575 -0.4709 -0.8883
10638TIP3    H153405   0.311   5.129   1.071 -0.9195 -0.2254  1.3549
10638TIP3    H253406   0.338   4.983   1.039  0.2937  0.6792 -2.0098
10639TIP3   OH253407   6.025   0.270  15.849  0.1247 -0.2139  0.0142
10639TIP3    H153408   5.963   0.298  15.917 -0.1999  1.8322 -1.0674
10639TIP3    H253409   5.990   0.309  15.769  1.0710 -1.7276 -1.1447
10640TIP3   OH253410   1.279   6.089  13.679  0.5529 -0.5316  0.6084
10640TIP3    H153411   1.278   6.026  13.751 -0.3488 -1.3282 -0.0934
10640TIP3    H253412   1.203   6.145  13.697  0.4716 -0.5780  0.4030
10641TIP3   OH253413   5.334   3.658   1.145  0.1903  0.1000 -0.5921
10641TIP3    H153414   5.372   3.730   1.095  0.1537  0.1151 -0.5982
10641TIP3    H253415   5.407   3.623   1.197 -0.1731  1.2127  0.6864
10642TIP3   OH253416   4.965   4.386  11.913  0.2263  0.1826 -0.4966
10642TIP3    H153417   4.941   4.425  11.829 -1.2798 -0.7515 -0.5175
10642TIP3    H253418   5.056   4.360  11.903 -0.0460 -0.2231 -1.9557
10643TIP3   OH253419   0.804   6.132   3.790 -0.1304 -0.3539 -1.1445
10643TIP3    H153420   0.792   6.227   3.790 -0.5889 -0.4120 -0.0434
10643TIP3    H253421   0.759   6.102   3.869 -1.7186 -1.6959 -2.5211
10644TIP3   OH253422   5.047   2.096  11.115 -0.0751 -0.3578  0.4160
10644TIP3    H153423   4.953   2.111  11.125  0.4150  2.7792  1.1289
10644TIP3    H253424   5.058   2.078  11.022 -1.1866  1.4199 -0.1048
10645TIP3   OH253425   2.225   5.437   4.705 -0.4039 -0.2922  0.4953
10645TIP3    H153426   2.205   5.396   4.789 -0.3867 -0.6935  0.3043
10645TIP3    H253427   2.158   5.405   4.645  1.0907 -2.0859 -0.2812
10646TIP3   OH253428   5.702   6.121  12.577  0.4955 -0.0612 -0.3791
10646TIP3    H153429   5.647   6.058  12.624  0.0075  0.1390 -0.6849
10646TIP3    H253430   5.679   6.206  12.615  0.7692 -0.0061 -0.3378
10647TIP3   OH253431   3.467   3.829  12.931 -0.0266 -0.4993 -0.1572
10647TIP3    H153432   3.456   3.851  13.024  1.7049 -0.7387  0.1197
10647TIP3    H253433   3.378   3.807  12.901 -1.1141  2.4554  0.6767
10648TIP3   OH253434   2.748   0.967  14.298 -0.0263 -0.3960 -0.0981
10648TIP3    H153435   2.833   1.011  14.294  0.5606 -1.6533 -3.1901
10648TIP3    H253436   2.758   0.901  14.367  1.2259  0.0482  0.1509
10649TIP3   OH253437   5.952   0.920   6.266  0.8216  0.0336 -0.2545
10649TIP3    H153438   5.872   0.963   6.295 -0.2839 -1.6906 -0.6379
10649TIP3    H253439   5.977   0.862   6.338  0.1831 -1.4345 -1.1696
10650TIP3   OH253440   1.128   2.620  16.981  0.2548 -0.1394 -0.1388
10650TIP3    H153441   1.169   2.705  16.999  0.1046  0.2179 -1.4029
10650TIP3    H253442   1.045   2.642  16.940 -0.6288 -0.8881  1.2151
10651TIP3   OH253443   3.851   5.623   1.256 -0.3784 -0.5137  0.6644
10651TIP3    H153444   3.809   5.613   1.342  0.7840 -0.3884  1.2590
10651TIP3    H253445   3.891   5.537   1.239 -0.1960 -0.3933  0.4735
10652TIP3   OH253446   1.158   0.364  13.514  0.0968  0.4860  0.8397
10652TIP3    H153447   1.131   0.425  13.444 -1.1688 -0.7083  0.2673
10652TIP3    H253448   1.100   0.386  13.588  0.2439  0.5709  0.9299
10653TIP3   OH253449   6.271   3.942  11.592  0.4963  0.6116 -0.4815
10653TIP3    H153450   6.312   3.857  11.580  1.1078  1.0811 -1.8871
10653TIP3    H253451   6.336   3.995  11.639 -0.0305  0.1994  0.7223
10654TIP3   OH253452   4.332   0.392   6.131 -0.1643 -0.4119 -0.0030
10654TIP3    H153453   4.347   0.455   6.201  0.6023 -0.1356 -0.4049
10654TIP3    H253454   4.278   0.439   6.068 -0.7051 -0.6012  0.3193
10655TIP3   OH253455   1.574   5.195   2.214  0.1280 -0.5488 -0.4673
10655TIP3    H153456   1.510   5.231   2.152  1.1509 -0.7125 -1.6481
10655TIP3    H253457   1.526   5.186   2.296 -1.1159  0.1621 -1.1040
10656TIP3   OH253458   6.000   2.432  14.304  0.2534  0.3514  0.1589
10656TIP3    H153459   6.066   2.440  14.373  1.5235  0.1622 -1.0129
10656TIP3    H253460   6.029   2.358  14.251 -0.7969  0.3839 -0.4845
10657TIP3   OH253461   4.068   3.763  14.506  0.2601 -0.2141  0.1043
10657TIP3    H153462   4.023   3.798  14.583 -0.1344  0.3383 -0.3690
10657TIP3    H253463   4.141   3.823  14.491  0.2126 -0.1997 -0.0753
10658TIP3   OH253464   0.776   5.212  16.322  0.1916 -0.4693  0.0190
10658TIP3    H153465   0.707   5.170  16.271  0.1460 -0.7847  0.3456
10658TIP3    H253466   0.730   5.276  16.376  0.2490 -0.0733 -0.3931
10659TIP3   OH253467   4.728   2.195  11.350  0.1580  0.3516 -0.3991
10659TIP3    H153468   4.759   2.166  11.264 -2.2638  0.9046 -1.4929
10659TIP3    H253469   4.635   2.212  11.338  0.3538  3.1715  1.6503
10660TIP3   OH253470   1.672   5.723   0.634  0.0706  0.7426 -0.1849
10660TIP3    H153471   1.697   5.653   0.574 -3.3029  0.3391 -1.2181
10660TIP3    H253472   1.638   5.792   0.577 -0.4788  1.5233  1.0691
10661TIP3   OH253473   2.743   1.884   5.364 -0.4728 -0.5903  0.3793
10661TIP3    H153474   2.759   1.971   5.329 -1.5489 -0.5638 -0.0748
10661TIP3    H253475   2.670   1.896   5.425  0.0798 -0.9882  1.1301
10662TIP3   OH253476   2.567   5.510  13.313  0.0253  0.4799  0.1996
10662TIP3    H153477   2.653   5.471  13.297  0.6981  1.5673  1.0254
10662TIP3    H253478   2.563   5.518  13.409  0.2115  3.0372  0.0238
10663TIP3   OH253479   4.746   1.829   2.768 -0.0007 -0.0906 -0.0757
10663TIP3    H153480   4.736   1.826   2.673  0.7473  2.5881 -0.2824
10663TIP3    H253481   4.677   1.889   2.797  1.0028  0.6458  0.8385
10664TIP3   OH253482   6.341   2.699   5.914 -0.5094  0.4178  0.8715
10664TIP3    H153483   6.332   2.642   5.990 -0.4561 -0.5038  0.1923
10664TIP3    H253484   6.375   2.781   5.950 -0.2573 -0.0862  1.8127
10665TIP3   OH253485   0.452   6.209   3.118  0.1551 -0.4079  0.3250
10665TIP3    H153486   0.443   6.250   3.204 -0.2917 -0.9103  0.5155
10665TIP3    H253487   0.412   6.123   3.127  1.4645 -1.0628  0.0386
10666TIP3   OH253488   6.009   2.794  15.865 -0.2582  0.0327 -0.1768
10666TIP3    H153489   6.068   2.824  15.934 -1.7784  0.3902  0.9755
10666TIP3    H253490   6.062   2.732  15.813  0.7009 -0.7040  1.6495
10667TIP3   OH253491   6.738   3.377   6.503 -0.0752  0.5973 -0.6013
10667TIP3    H153492   6.756   3.292   6.543 -2.1149  0.0235 -0.8114
10667TIP3    H253493   6.740   3.439   6.576 -2.3886 -0.2378  0.2484
10668TIP3   OH253494   4.984   6.573   3.358 -0.7541  0.3994 -0.3211
10668TIP3    H153495   5.026   6.634   3.419 -2.0113 -0.4763  1.4481
10668TIP3    H253496   4.903   6.616   3.333  0.0928  1.0725 -1.9580
10669TIP3   OH253497   6.130   3.536   5.518 -0.0888  0.1312  0.3466
10669TIP3    H153498   6.197   3.604   5.505  0.2000 -0.4797 -1.6024
10669TIP3    H253499   6.138   3.481   5.440  0.2377 -2.6203  2.2777
10670TIP3   OH253500   3.269   3.980  13.515 -0.5424 -0.3722  0.3085
10670TIP3    H153501   3.198   4.018  13.464  1.3760 -0.5683 -2.6158
10670TIP3    H253502   3.225   3.934  13.587 -3.1757  2.1257  0.3628
10671TIP3   OH253503   2.586   2.916  11.384  0.0796 -0.1708  0.0360
10671TIP3    H153504   2.575   2.956  11.470 -2.7189 -1.3120  0.2732
10671TIP3    H253505   2.578   2.988  11.322 -3.4664 -0.0631  0.5139
10672TIP3   OH253506   6.721   3.968   2.124 -0.3181 -0.3552  0.3113
10672TIP3    H153507   6.759   3.921   2.199  1.2920  0.8185  0.2581
10672TIP3    H253508   6.750   3.919   2.047 -1.7718 -1.4217  0.4256
10673TIP3   OH253509   0.685   1.736   1.072  0.3480  0.9029 -0.0787
10673TIP3    H153510   0.781   1.731   1.079  0.3882  2.4198  0.7462
10673TIP3    H253511   0.660   1.799   1.140 -1.5779 -2.0365  2.0239
10674TIP3   OH253512   2.463   5.311   3.189  0.1280 -0.7290  0.0148
10674TIP3    H153513   2.539   5.317   3.132  0.0113 -1.4570 -0.2191
10674TIP3    H253514   2.463   5.393   3.238  1.0679 -0.7344  0.0289
10675TIP3   OH253515   3.084   0.375   2.117 -0.1719  0.2409  0.1987
10675TIP3    H153516   3.114   0.289   2.145 -0.4581  0.1585  0.2555
10675TIP3    H253517   3.031   0.358   2.039  1.9376  0.6185 -1.3746
10676TIP3   OH253518   2.258   3.852   2.777  0.5137 -0.5998  0.0430
10676TIP3    H153519   2.350   3.841   2.755  0.6868  3.3245 -1.5858
10676TIP3    H253520   2.258   3.906   2.856 -0.3489  2.2392 -1.8193
10677TIP3   OH253521   2.310   5.231   4.151 -0.0114 -0.0751  0.0404
10677TIP3    H153522   2.402   5.224   4.176 -0.2499  1.9719  1.6653
10677TIP3    H253523   2.309   5.218   4.057  1.6524 -2.3485  0.2988
10678TIP3   OH253524   2.803   2.747   5.746 -0.2294 -0.5473  0.2057
10678TIP3    H153525   2.783   2.682   5.678 -1.6567 -0.2486  0.3308
10678TIP3    H253526   2.718   2.770   5.784  0.4274  0.1891  1.2803
10679TIP3   OH253527   5.971   3.784   4.653 -0.5678  0.4135  0.6583
10679TIP3    H153528   6.011   3.849   4.595  0.2973 -0.2048  0.5553
10679TIP3    H253529   5.912   3.835   4.708 -1.4282  1.0053 -0.7798
10680TIP3   OH253530   1.088   2.489   5.799 -0.0517 -0.2398  0.8550
10680TIP3    H153531   1.059   2.579   5.786 -2.2919 -0.9848  0.4617
10680TIP3    H253532   1.150   2.494   5.871 -1.3402  1.4122  1.8923
10681TIP3   OH253533   2.044   5.733   3.441  0.0274  0.6330  0.0365
10681TIP3    H153534   2.135   5.711   3.421  0.2142  0.6461  0.8685
10681TIP3    H253535   2.024   5.805   3.381  0.4921  0.4746 -0.3137
10682TIP3   OH253536   1.896   0.813  11.115  0.5012  0.5045  0.5092
10682TIP3    H153537   1.936   0.885  11.165 -0.0660  1.1662  0.0282
10682TIP3    H253538   1.883   0.850  11.027 -0.1463 -0.0618  0.3635
10683TIP3   OH253539   4.208   1.304   0.028 -0.1484 -0.1362 -0.0279
10683TIP3    H153540   4.154   1.379   0.008  1.0868  0.6721 -0.3883
10683TIP3    H253541   4.222   1.309   0.123 -1.2242 -0.7148  0.1705
10684TIP3   OH253542   6.506   0.013   6.456  0.1848 -0.0370  0.5920
10684TIP3    H153543   6.598   0.009   6.430  0.5987 -0.6434  2.0992
10684TIP3    H253544   6.491   0.106   6.475  1.1659 -0.2783  2.6655
10685TIP3   OH253545   0.884   6.606   3.724  0.1543 -0.2963  0.0022
10685TIP3    H153546   0.847   6.607   3.813 -0.1368  0.8784 -0.1188
10685TIP3    H253547   0.850   6.686   3.684  2.9982  0.9369 -0.0644
10686TIP3   OH253548   1.212   3.012   4.866 -0.7280  0.0802  0.1780
10686TIP3    H153549   1.154   3.031   4.792 -0.2753 -3.1986 -1.1034
10686TIP3    H253550   1.297   3.047   4.839 -0.9570  0.4288 -0.1002
10687TIP3   OH253551   5.601   6.658  13.334  0.0399  0.0175 -0.4523
10687TIP3    H153552   5.627   6.742  13.296  0.3175  0.4541  0.6716
10687TIP3    H253553   5.639   6.659  13.422 -0.5858 -0.9707 -0.1638
10688TIP3   OH253554   4.970   2.988   1.225 -0.6478  0.0994 -0.1605
10688TIP3    H153555   5.030   3.036   1.283 -1.5930  0.3153  0.6708
10688TIP3    H253556   4.933   2.920   1.281 -1.8430  0.5345 -0.3979
10689TIP3   OH253557   2.429   5.053  15.740  1.4438 -0.0071 -0.3016
10689TIP3    H153558   2.473   4.968  15.732 -0.1285 -0.8266 -0.4715
10689TIP3    H253559   2.457   5.102  15.662  0.7968 -1.1077 -1.2416
10690TIP3   OH253560   4.524   4.210   5.254 -0.3296 -0.2135  0.1957
10690TIP3    H153561   4.475   4.169   5.325  1.0656  0.2339  1.4547
10690TIP3    H253562   4.612   4.175   5.263  0.1671  0.8503 -0.5102
10691TIP3   OH253563   0.855   3.190   4.329 -0.1202 -0.5635 -0.1637
10691TIP3    H153564   0.860   3.281   4.298  0.5442 -1.4538 -2.7688
10691TIP3    H253565   0.764   3.165   4.313  0.0133 -0.7614 -0.6032
10692TIP3   OH253566   5.236   1.706   1.961  0.0775  0.1172 -0.1758
10692TIP3    H153567   5.252   1.619   1.999 -0.4939 -1.9460 -4.3912
10692TIP3    H253568   5.323   1.738   1.937  0.1263 -0.0538 -0.2270
10693TIP3   OH253569   4.495   4.197   4.483 -0.1880  0.1471  0.3445
10693TIP3    H153570   4.421   4.230   4.534 -0.8561  0.9595 -1.0980
10693TIP3    H253571   4.454   4.153   4.408  0.7656 -1.2456  0.6482
10694TIP3   OH253572   5.167   5.397   5.804  0.1619 -0.9313 -0.5478
10694TIP3    H153573   5.136   5.435   5.886  0.0925 -1.4251 -0.3456
10694TIP3    H253574   5.224   5.465   5.766 -0.9613 -0.1263 -0.8016
10695TIP3   OH253575   0.525   6.626   4.138  0.1178 -0.2732 -0.3223
10695TIP3    H153576   0.506   6.585   4.223 -0.8396  0.8953  0.0323
10695TIP3    H253577   0.534   6.719   4.157 -1.0697  0.1439 -1.6362
10696TIP3   OH253578   3.826   3.124  11.407  0.1096  0.1996  0.2159
10696TIP3    H153579   3.867   3.096  11.489 -0.2213 -2.6204 -0.4998
10696TIP3    H253580   3.769   3.196  11.432  1.3954  0.5911  2.1538
10697TIP3   OH253581   2.959   1.572  12.476 -0.0053 -0.5593 -0.3798
10697TIP3    H153582   2.891   1.588  12.410 -0.7827 -1.2170  0.2461
10697TIP3    H253583   2.916   1.592  12.560  1.5290  2.1203 -0.1587
10698TIP3   OH253584   1.773   6.698  14.758 -0.3797  0.5576  0.5778
10698TIP3    H153585   1.861   6.734  14.772 -1.2777  1.6799  3.7505
10698TIP3    H253586   1.716   6.753  14.812 -2.8985 -0.8595 -0.5543
10699TIP3   OH253587   5.555   1.232  16.652  0.7353 -0.0162  0.4513
10699TIP3    H153588   5.524   1.143  16.636  0.4540 -0.1669  1.7499
10699TIP3    H253589   5.598   1.258  16.571 -1.2879 -0.4418 -0.8049
10700TIP3   OH253590   5.970   6.024  16.275 -0.5153 -0.4086  0.0740
10700TIP3    H153591   5.901   6.032  16.340 -1.5139 -2.1501 -0.7525
10700TIP3    H253592   5.929   6.052  16.193 -0.1811 -1.2708 -0.3926
10701TIP3   OH253593   3.912   5.950  12.222 -0.1584 -0.2029  0.3259
10701TIP3    H153594   3.987   5.970  12.165 -1.0109  1.4235 -0.2497
10701TIP3    H253595   3.940   5.980  12.309 -0.4104  1.0847 -0.0275
10702TIP3   OH253596   5.112   0.540   3.707  0.3468  0.2652  0.3099
10702TIP3    H153597   5.127   0.597   3.631  2.1682 -0.2215  0.2712
10702TIP3    H253598   5.102   0.601   3.780 -1.6906  0.7475 -0.3405
10703TIP3   OH253599   4.241   6.245  16.146  0.3291  0.8522 -0.6159
10703TIP3    H153600   4.263   6.275  16.057 -2.8719  3.1413 -0.7342
10703TIP3    H253601   4.164   6.189  16.134  2.0009 -1.7794  0.4126
10704TIP3   OH253602   6.145   1.297   4.460 -0.4575 -0.1933 -0.5263
10704TIP3    H153603   6.222   1.243   4.477  0.3208  1.4865  1.5239
10704TIP3    H253604   6.113   1.267   4.375  1.9173 -1.5369 -0.9919
10705TIP3   OH253605   4.140   1.686   0.696  0.0018  0.2160 -0.2686
10705TIP3    H153606   4.086   1.701   0.618 -2.2231  1.3037  1.4351
10705TIP3    H253607   4.145   1.771   0.739  0.7217 -0.4970  1.1056
10706TIP3   OH253608   6.755   1.713   2.531 -0.0934  0.8206  0.4085
10706TIP3    H153609   6.688   1.645   2.534  1.2092 -0.4704  1.1306
10706TIP3    H253610   6.755   1.744   2.441  2.3335 -3.2894 -1.1393
10707TIP3   OH253611   5.091   1.071  15.592  0.2853  0.3059 -0.5600
10707TIP3    H153612   5.047   1.087  15.508 -0.5252  0.8659 -0.0426
10707TIP3    H253613   5.047   1.130  15.654 -0.0592 -1.0881  0.5564
10708TIP3   OH253614   2.042   4.232   6.227 -0.2832 -0.0697 -0.4325
10708TIP3    H153615   2.002   4.319   6.220  1.5351  0.8366  0.2086
10708TIP3    H253616   2.084   4.217   6.143 -1.7636 -0.9489 -1.0426
10709TIP3   OH253617   1.972   4.623   5.565 -0.4984  0.3199 -0.1761
10709TIP3    H153618   2.027   4.545   5.574  1.5111  1.7043 -0.0450
10709TIP3    H253619   1.996   4.677   5.640 -2.2243  0.8573 -0.0093
10710TIP3   OH253620   0.551   6.196  15.362  0.3848 -0.2609  0.0529
10710TIP3    H153621   0.572   6.105  15.343  0.0700 -0.4804  0.7443
10710TIP3    H253622   0.565   6.242  15.279  0.1343 -1.0102 -0.4086
10711TIP3   OH253623   2.157   3.751   1.609 -0.2028  0.7741 -0.0965
10711TIP3    H153624   2.134   3.668   1.567 -0.1376  0.8172 -0.2174
10711TIP3    H253625   2.092   3.813   1.577  1.4363  1.4314 -2.2483
10712TIP3   OH253626   3.634   1.977  14.441 -0.1573 -0.5519 -0.4067
10712TIP3    H153627   3.683   2.037  14.385  0.5505 -0.0044  0.7814
10712TIP3    H253628   3.553   2.023  14.461  0.3524 -0.0109  0.4424
10713TIP3   OH253629   1.151   0.790  11.595 -0.4965  0.0355  0.6633
10713TIP3    H153630   1.146   0.708  11.547 -0.1826  0.1745  0.3942
10713TIP3    H253631   1.229   0.834  11.561 -0.5538  0.3586  0.9402
10714TIP3   OH253632   1.082   3.722   6.005 -0.5064 -0.5156 -0.3113
10714TIP3    H153633   1.032   3.776   6.067 -1.5728 -2.0377  0.1937
10714TIP3    H253634   1.049   3.748   5.919 -0.7745 -0.1313 -0.0956
10715TIP3   OH253635   4.524   0.724  16.119  0.1316 -0.5901  0.2270
10715TIP3    H153636   4.561   0.646  16.078 -0.9223 -0.7155 -0.5154
10715TIP3    H253637   4.535   0.793  16.054  0.0245 -0.3885  0.4218
10716TIP3   OH253638   6.815   2.435   1.954  0.6778  0.2707  0.1287
10716TIP3    H153639   6.760   2.449   2.031 -0.6911 -0.0729 -0.7810
10716TIP3    H253640   6.884   2.376   1.985  0.0850  0.0636  1.0753
10717TIP3   OH253641   3.065   2.312  15.739 -0.0650 -0.5318 -0.5833
10717TIP3    H153642   3.098   2.371  15.806 -1.3526  1.8323 -1.9640
10717TIP3    H253643   3.041   2.232  15.787  1.6008  0.0781  1.3177
10718TIP3   OH253644   4.329   5.049   5.799  0.1710  0.3100  0.7308
10718TIP3    H153645   4.424   5.056   5.801  0.3175 -1.0823 -0.1654
10718TIP3    H253646   4.297   5.132   5.835  1.7084  1.3272 -0.1958
10719TIP3   OH253647   3.487   0.890   1.650 -0.1652  0.2968  0.3309
10719TIP3    H153648   3.546   0.963   1.671  0.8046 -0.6453  0.9562
10719TIP3    H253649   3.407   0.909   1.699  0.1149  0.8885  0.5710
10720TIP3   OH253650   6.238   4.054   0.715  0.7454  0.5116  0.1958
10720TIP3    H153651   6.334   4.044   0.714  0.5576 -1.4523 -0.1466
10720TIP3    H253652   6.208   3.998   0.644 -0.6932  0.8774  0.5154
10721TIP3   OH253653   5.063   6.678   1.008  0.2768  0.4533 -0.0305
10721TIP3    H153654   5.009   6.599   1.013  0.5203  0.2582 -0.4946
10721TIP3    H253655   5.153   6.645   1.006  0.4278  0.7807  0.8658
10722TIP3   OH253656   2.777   2.522  14.429  1.2121  0.8142  0.4778
10722TIP3    H153657   2.795   2.614  14.409  1.6812  0.1628 -2.3653
10722TIP3    H253658   2.824   2.474  14.361 -0.8951 -1.4422  0.5634
10723TIP3   OH253659   5.679   5.920  14.895 -0.1161  0.2124 -0.1315
10723TIP3    H153660   5.722   5.946  14.814 -2.3703 -0.6810 -1.6894
10723TIP3    H253661   5.625   5.845  14.870 -0.5893 -0.2932  2.2828
10724TIP3   OH253662   1.279   2.761  12.646  0.3316  0.2762  0.3669
10724TIP3    H153663   1.290   2.761  12.741  0.2504 -0.0622  0.3763
10724TIP3    H253664   1.259   2.670  12.624  1.7887  0.0759 -0.1464
10725TIP3   OH253665   0.287   6.123  15.412 -0.2529 -0.4349 -0.0960
10725TIP3    H153666   0.367   6.174  15.411  0.3737 -1.4169 -0.4144
10725TIP3    H253667   0.301   6.057  15.480 -0.7757 -0.6351 -0.1770
10726TIP3   OH253668   0.986   1.707   0.392  0.8973 -0.5383  0.1765
10726TIP3    H153669   1.034   1.652   0.455  1.7787 -0.6987 -0.6293
10726TIP3    H253670   0.917   1.650   0.358  1.1184 -0.8010  0.1660
10727TIP3   OH253671   5.324   1.425   5.159 -0.0154 -0.6742  0.5628
10727TIP3    H153672   5.397   1.447   5.217 -0.4451  1.5678  0.2937
10727TIP3    H253673   5.276   1.507   5.149 -2.3258 -2.0115  0.3742
10728TIP3   OH253674   3.378   2.219  16.399 -0.1346  0.4425  0.0313
10728TIP3    H153675   3.386   2.305  16.359  0.9666 -0.1666 -1.1013
10728TIP3    H253676   3.387   2.158  16.326 -0.3638 -0.6441  0.8959
10729TIP3   OH253677   4.170   0.987   6.043 -0.4856  0.0399  0.4452
10729TIP3    H153678   4.226   0.995   5.966 -1.4159 -0.1451 -0.2568
10729TIP3    H253679   4.203   0.910   6.089  0.1957  0.2649  0.3325
10730TIP3   OH253680   2.728   3.936  14.242 -0.4577 -0.6852 -0.0816
10730TIP3    H153681   2.786   3.903  14.311  1.1107 -0.1845 -1.1315
10730TIP3    H253682   2.645   3.892  14.257  0.3477 -1.8065  1.1522
10731TIP3   OH253683   0.046   0.834   4.677  0.3427 -0.7864  0.1896
10731TIP3    H153684   0.126   0.783   4.690  0.9899  0.2805  0.4243
10731TIP3    H253685   0.050   0.903   4.743  0.1120  0.3543 -0.9576
10732TIP3   OH253686   0.229   4.272   4.991 -0.4159 -0.0549  0.3110
10732TIP3    H153687   0.160   4.322   5.035 -2.3775  0.6565 -3.4333
10732TIP3    H253688   0.304   4.331   4.989 -1.0891  0.8074  0.4384
10733TIP3   OH253689   5.400   3.032  14.613  0.4158 -0.3158  0.2495
10733TIP3    H153690   5.488   3.040  14.650  0.4873  1.1739 -0.1897
10733TIP3    H253691   5.415   3.022  14.519  0.0872  1.1362  0.0371
10734TIP3   OH253692   4.113   6.584   0.003 -0.4890  0.2062  0.1000
10734TIP3    H153693   4.048   6.518  -0.022 -0.0721 -1.2994  2.8240
10734TIP3    H253694   4.194   6.555  -0.039  0.0319 -1.8733  2.4604
10735TIP3   OH253695   6.004   5.567  16.938 -0.6783  0.2071  0.4081
10735TIP3    H153696   6.016   5.498  17.002 -0.4235  0.2624  0.4193
10735TIP3    H253697   6.082   5.622  16.946 -0.0563 -0.4740 -0.7947
10736TIP3   OH253698   4.299   1.947  12.232  0.0702  0.2904 -0.0087
10736TIP3    H153699   4.267   1.995  12.155 -1.2669  1.0769  1.0053
10736TIP3    H253700   4.226   1.890  12.256  0.9572 -0.8755 -0.0682
10737TIP3   OH253701   0.671   4.139  15.796  0.1032  0.0938 -0.1315
10737TIP3    H153702   0.620   4.138  15.878  1.3472 -1.6815  0.6355
10737TIP3    H253703   0.674   4.048  15.769  1.2325  0.4530 -1.2175
10738TIP3   OH253704   2.255   4.809  15.054  0.0047 -0.0509 -0.6734
10738TIP3    H153705   2.313   4.882  15.035  0.6272 -0.0895  1.0257
10738TIP3    H253706   2.302   4.732  15.021 -0.7610  0.2995 -2.6842
10739TIP3   OH253707   5.848   3.335  12.339  0.2626  0.0711 -0.0553
10739TIP3    H153708   5.789   3.327  12.414 -0.6112 -2.0700 -0.9176
10739TIP3    H253709   5.875   3.427  12.339 -2.0882  0.7984  1.1102
10740TIP3   OH253710   0.217   6.448   4.481 -0.3946  0.0589 -0.2698
10740TIP3    H153711   0.237   6.355   4.483 -1.1253 -0.1309 -1.3910
10740TIP3    H253712   0.171   6.465   4.563  1.0589 -0.2471  0.6290
10741TIP3   OH253713   3.114   5.316  13.314  0.0614  0.0691 -0.2738
10741TIP3    H153714   3.168   5.346  13.240 -0.1917 -0.5092 -0.6970
10741TIP3    H253715   3.175   5.276  13.374 -0.0550 -1.7662 -1.3529
10742TIP3   OH253716   3.137   4.625   5.539 -0.2900  0.1565 -0.2321
10742TIP3    H153717   3.222   4.613   5.496 -0.5897  3.9304 -2.0822
10742TIP3    H253718   3.073   4.609   5.471 -0.8640  2.9048 -0.3902
10743TIP3   OH253719   4.882   4.252  15.705 -0.3248  0.7394  0.6324
10743TIP3    H153720   4.835   4.174  15.679 -1.1185  1.7685 -1.0966
10743TIP3    H253721   4.898   4.241  15.799 -0.8325 -1.2578  0.4936
10744TIP3   OH253722   1.906   5.749  11.743  0.2419  0.0038  0.6926
10744TIP3    H153723   1.884   5.660  11.718 -1.3526  0.6338 -0.1886
10744TIP3    H253724   1.943   5.789  11.664 -0.7078  0.6493  0.5601
10745TIP3   OH253725   5.028   5.906  15.882  0.4553  0.0164  0.7783
10745TIP3    H153726   5.098   5.892  15.818 -0.4918 -1.9543  0.1223
10745TIP3    H253727   4.998   5.995  15.866  1.4336  0.1664 -0.3298
10746TIP3   OH253728   2.229   2.802   3.118  0.1557  0.2809 -0.2743
10746TIP3    H153729   2.215   2.853   3.197 -2.6853  1.8268 -1.7094
10746TIP3    H253730   2.159   2.737   3.118  0.4423 -0.0438 -1.2604
10747TIP3   OH253731   1.155   1.116  16.804 -0.7840 -0.4003 -0.0330
10747TIP3    H153732   1.246   1.135  16.824  0.3617 -3.1816 -2.1658
10747TIP3    H253733   1.109   1.199  16.816  2.5492  1.8244 -1.9249
10748TIP3   OH253734   5.459   2.193   5.391  0.0552  0.1398 -0.4642
10748TIP3    H153735   5.463   2.183   5.486 -1.4312 -0.3139 -0.4478
10748TIP3    H253736   5.368   2.214   5.372  0.2305 -0.2739 -1.8476
10749TIP3   OH253737   1.616   1.371  12.108 -0.2330 -0.7035  0.3450
10749TIP3    H153738   1.690   1.431  12.099  0.6048 -1.6845  0.5681
10749TIP3    H253739   1.548   1.408  12.053 -0.1106  1.0464  1.3293
10750TIP3   OH253740   0.506   3.201  13.347  0.5330  0.0579  0.0441
10750TIP3    H153741   0.488   3.113  13.313  0.6453  0.1737 -0.3226
10750TIP3    H253742   0.530   3.187  13.438 -0.2530 -0.2086  0.2133
10751TIP3   OH253743   4.876   4.954  12.461 -0.3329  0.2361  0.9530
10751TIP3    H153744   4.967   4.938  12.485 -0.0023 -1.1505 -1.0760
10751TIP3    H253745   4.829   4.877  12.495 -0.6362  0.6050  1.3737
10752TIP3   OH253746   0.858   1.232  11.741  0.2502  0.1161  0.4102
10752TIP3    H153747   0.830   1.142  11.730 -0.6301  0.2952  1.1832
10752TIP3    H253748   0.913   1.249  11.664 -1.2981 -0.4117 -0.8434
10753TIP3   OH253749   5.379   5.729  13.281  0.0514  0.2021 -0.4773
10753TIP3    H153750   5.462   5.751  13.240  1.0999 -0.9025  0.9912
10753TIP3    H253751   5.395   5.739  13.375 -0.8489 -2.0413 -0.0488
10754TIP3   OH253752   5.958   4.749  11.780 -0.0298 -0.6992  0.4891
10754TIP3    H153753   5.993   4.838  11.779 -0.7613 -0.3492  2.6305
10754TIP3    H253754   5.865   4.760  11.762 -0.1132 -1.0376  0.7210
10755TIP3   OH253755   1.787   1.571  14.954 -0.3598  0.0010  0.2574
10755TIP3    H153756   1.875   1.598  14.981 -1.3742  5.0120 -0.8435
10755TIP3    H253757   1.742   1.550  15.035  0.6319  1.5381  1.2347
10756TIP3   OH253758   2.566   1.826   0.916 -0.1386 -0.1943  0.0744
10756TIP3    H153759   2.640   1.767   0.931 -0.3076 -0.2771  0.6128
10756TIP3    H253760   2.496   1.768   0.884 -0.4637 -0.3811  1.0840
10757TIP3   OH253761   0.331   5.132  13.066 -0.6222 -0.1514 -0.8189
10757TIP3    H153762   0.252   5.179  13.093  0.0474  0.0648  0.8756
10757TIP3    H253763   0.341   5.063  13.132  0.4818 -0.3020 -1.1343
10758TIP3   OH253764   3.425   2.768  16.497  0.3661 -0.5942 -0.2534
10758TIP3    H153765   3.395   2.716  16.422 -2.0871 -0.6555  0.7152
10758TIP3    H253766   3.486   2.711  16.543  1.7473 -0.6242 -2.0986
10759TIP3   OH253767   2.971   2.688   0.518 -0.0936 -0.3744 -0.6765
10759TIP3    H153768   3.052   2.719   0.476 -0.4419 -0.6498 -1.5545
10759TIP3    H253769   2.931   2.767   0.554 -0.3680  0.0177 -1.8496
10760TIP3   OH253770   1.586   1.342  15.262  0.6318 -0.1468 -0.1828
10760TIP3    H153771   1.607   1.249  15.271  0.8063 -0.1363 -0.4680
10760TIP3    H253772   1.499   1.351  15.300  1.5395 -0.0008  1.9846
10761TIP3   OH253773   2.540   4.794  14.336 -0.2963 -0.0766 -0.0341
10761TIP3    H153774   2.630   4.782  14.306 -0.4682 -1.1170 -0.1716
10761TIP3    H253775   2.488   4.791  14.256 -0.3481  1.7446 -0.0773
10762TIP3   OH253776   5.165   1.068   0.644 -0.5684  0.0702  0.2160
10762TIP3    H153777   5.145   1.135   0.578 -0.9140 -0.7645 -0.5280
10762TIP3    H253778   5.224   1.008   0.600 -0.8349 -0.5201  0.6585
10763TIP3   OH253779   0.102   4.210  12.652 -0.1368  0.2639 -0.2812
10763TIP3    H153780   0.119   4.124  12.613  1.5976  1.4107 -2.0796
10763TIP3    H253781   0.010   4.228  12.630  0.6431  0.6405 -3.3991
10764TIP3   OH253782   6.643   2.549   3.508  0.4108 -0.2039 -0.1440
10764TIP3    H153783   6.682   2.553   3.595 -0.5336  0.0851  0.2811
10764TIP3    H253784   6.699   2.489   3.459  0.6184 -0.8246  0.8406
10765TIP3   OH253785   5.351   6.452   5.212 -0.4001  0.1460 -0.2100
10765TIP3    H153786   5.358   6.420   5.303  0.0155 -0.5112 -0.4644
10765TIP3    H253787   5.321   6.376   5.163 -0.9632  0.6015 -0.5712
10766TIP3   OH253788   0.255   4.269  17.156  0.5597  0.2815 -0.5986
10766TIP3    H153789   0.261   4.300  17.246 -1.9270 -1.4068  0.2333
10766TIP3    H253790   0.226   4.345  17.106 -0.4856  0.6323  0.5055
10767TIP3   OH253791   3.288   2.294   4.516  0.4749 -0.2337  0.7772
10767TIP3    H153792   3.322   2.270   4.430  1.2344 -0.8851  1.2499
10767TIP3    H253793   3.192   2.291   4.506  0.5602 -0.8964  0.1226
10768TIP3   OH253794   1.651   1.292   0.682 -0.2064  0.3942  0.1768
10768TIP3    H153795   1.570   1.306   0.731  0.6685  1.0397  1.4363
10768TIP3    H253796   1.671   1.378   0.644  0.1371  0.3434  0.2432
10769TIP3   OH253797   2.022   0.273   3.995  0.1085  0.2629 -0.0796
10769TIP3    H153798   2.048   0.355   3.953  2.4041 -0.0539  0.6259
10769TIP3    H253799   2.049   0.205   3.933 -2.9455  0.0437 -1.2451
10770TIP3   OH253800   4.294   0.779  17.148 -0.3435  0.1614  0.5651
10770TIP3    H153801   4.286   0.720  17.073  0.9928 -0.8066  1.1514
10770TIP3    H253802   4.367   0.837  17.125 -0.9057  0.8334  0.4791
10771TIP3   OH253803   4.839   1.633   1.976 -0.5708 -0.6067  0.0159
10771TIP3    H153804   4.890   1.630   2.057  1.1123 -2.0855 -1.0439
10771TIP3    H253805   4.859   1.719   1.938 -0.8163 -0.1943  0.8085
10772TIP3   OH253806   0.010   2.947   1.885  0.2362 -0.4388 -0.6673
10772TIP3    H153807   0.032   3.030   1.926 -0.4120 -1.0835  1.0317
10772TIP3    H253808  -0.050   2.971   1.814  0.7923  0.6241 -0.7845
10773TIP3   OH253809   2.064   4.267   2.359 -0.6880 -0.5457  0.3568
10773TIP3    H153810   1.981   4.247   2.315 -2.0560  2.7900  1.2083
10773TIP3    H253811   2.120   4.192   2.341 -3.8791 -2.8828 -0.2832
10774TIP3   OH253812   5.739   6.586  17.087  0.1884  0.0998 -0.1819
10774TIP3    H153813   5.698   6.604  17.172 -0.6854  0.1151 -0.5972
10774TIP3    H253814   5.758   6.673  17.051  3.0628  0.0743  1.1630
10775TIP3   OH253815   5.658   2.348  11.236 -0.6045 -0.2000  0.0664
10775TIP3    H153816   5.748   2.378  11.247 -0.8878  0.1546  1.4504
10775TIP3    H253817   5.610   2.387  11.309 -1.4629 -2.0460  0.5125
10776TIP3   OH253818   3.895   6.730  13.752  0.3508 -0.2570  0.1340
10776TIP3    H153819   3.881   6.667  13.823 -0.9652  0.0686  0.1870
10776TIP3    H253820   3.988   6.753  13.758  0.8489 -2.2284  0.0606
10777TIP3   OH253821   2.595   0.517  16.185 -0.1632 -0.4455  0.0437
10777TIP3    H153822   2.638   0.517  16.100  0.8043 -1.7474  0.5144
10777TIP3    H253823   2.571   0.609  16.200  2.6916  0.3869 -0.1378
10778TIP3   OH253824   2.599   3.199   0.661 -0.0511  0.3814 -0.0580
10778TIP3    H153825   2.623   3.126   0.605  1.3922  1.1381 -0.4325
10778TIP3    H253826   2.591   3.273   0.602  0.1979  0.9060  0.5610
10779TIP3   OH253827   0.269   3.732  16.136 -0.4314 -0.0076 -0.3226
10779TIP3    H153828   0.354   3.731  16.181 -0.6132  0.9407  0.0429
10779TIP3    H253829   0.281   3.793  16.064 -0.6610 -0.2384 -0.5575
10780TIP3   OH253830   0.627   5.603   3.004  0.2304 -0.5017 -0.6407
10780TIP3    H153831   0.582   5.670   3.055 -0.2354  0.2652 -2.0688
10780TIP3    H253832   0.710   5.644   2.978  0.4603 -0.8881 -0.5277
10781TIP3   OH253833   5.874   1.573   0.579  0.0196 -0.1378 -0.0959
10781TIP3    H153834   5.794   1.596   0.626  1.3203  2.7442  0.8667
10781TIP3    H253835   5.897   1.652   0.530  0.9260 -1.7523 -2.3617
10782TIP3   OH253836   0.263   3.741   3.214  0.1309 -0.2211  0.3381
10782TIP3    H153837   0.223   3.726   3.299 -0.8119  1.0085  0.1253
10782TIP3    H253838   0.340   3.795   3.233  1.5773 -2.3464  0.7134
10783TIP3   OH253839   0.632   4.505  16.625 -0.0541  0.3578 -0.3507
10783TIP3    H153840   0.565   4.538  16.683  0.9620  1.2227  0.3452
10783TIP3    H253841   0.588   4.436  16.574 -1.5370  1.1420 -0.1531
10784TIP3   OH253842   4.852   1.636  16.006 -0.0775  1.0266  0.0233
10784TIP3    H153843   4.923   1.684  15.964 -1.7011  3.9839  0.4668
10784TIP3    H253844   4.860   1.658  16.099  0.3750 -1.2593  0.5353
10785TIP3   OH253845   2.969   0.217  12.829 -0.4444 -0.1733  0.3538
10785TIP3    H153846   2.896   0.171  12.787  0.8533 -1.5436 -0.4341
10785TIP3    H253847   3.030   0.148  12.854 -0.4763  0.7477  3.1640
10786TIP3   OH253848   4.981   2.472   5.213 -0.2258  0.3203  0.2535
10786TIP3    H153849   4.988   2.495   5.306 -0.5107  2.9901 -0.3387
10786TIP3    H253850   4.886   2.468   5.196 -0.1858 -1.7751  0.4278
10787TIP3   OH253851   2.921   6.589   5.195 -0.4808  0.5428  0.0239
10787TIP3    H153852   2.970   6.630   5.124 -1.2452 -0.2987 -1.0016
10787TIP3    H253853   2.945   6.640   5.273 -0.7460  2.3873 -1.0678
10788TIP3   OH253854   0.805   6.087  12.753  0.5171 -0.2203  0.0221
10788TIP3    H153855   0.796   6.114  12.661  1.6125  0.1210  0.0087
10788TIP3    H253856   0.740   6.140  12.800  2.1833  2.0136 -0.0928
10789TIP3   OH253857   1.435   0.486  12.388  0.5445 -0.1813  0.2446
10789TIP3    H153858   1.429   0.542  12.310  0.3046  0.8431  0.9888
10789TIP3    H253859   1.529   0.474  12.401  0.6344  0.8868  0.6562
10790TIP3   OH253860   4.112   6.543   5.134 -0.5795  0.7711 -0.0427
10790TIP3    H153861   4.167   6.470   5.107 -0.6929  0.8886 -0.5944
10790TIP3    H253862   4.134   6.614   5.073 -0.8400  1.0357  0.1665
10791TIP3   OH253863   0.331   2.970   5.991 -0.1992 -0.0067 -0.5584
10791TIP3    H153864   0.416   3.005   6.018 -0.3858  0.7326 -0.9337
10791TIP3    H253865   0.269   3.040   6.009 -0.7260 -0.5372 -0.3149
10792TIP3   OH253866   2.249   6.234  12.775  0.5384  0.3130  0.2545
10792TIP3    H153867   2.280   6.165  12.833  0.6457 -0.6831 -0.9569
10792TIP3    H253868   2.162   6.205  12.748 -0.7523  2.1906  2.1877
10793TIP3   OH253869   5.461   2.518   4.773  0.0995  0.3951 -0.1886
10793TIP3    H153870   5.503   2.440   4.738 -0.2088 -0.8360  2.1134
10793TIP3    H253871   5.522   2.590   4.754  1.7790 -0.8707  0.3481
10794TIP3   OH253872   2.224   3.280   1.138 -0.3826 -0.0546 -0.3183
10794TIP3    H153873   2.204   3.227   1.060  0.8311  1.2066 -1.5014
10794TIP3    H253874   2.138   3.307   1.171 -0.8604  1.0107 -2.3638
10795TIP3   OH253875   6.199   0.321   0.988  0.5811  0.2589  0.7669
10795TIP3    H153876   6.264   0.353   0.926  1.5736 -1.0524  1.1050
10795TIP3    H253877   6.116   0.356   0.955  0.7195 -2.4798 -2.8498
10796TIP3   OH253878   2.585   1.166   2.577  1.2892 -0.2754 -0.1428
10796TIP3    H153879   2.550   1.254   2.564 -0.0815 -0.7568  0.2002
10796TIP3    H253880   2.663   1.179   2.632  0.0564  0.5594  1.4440
10797TIP3   OH253881   6.030   3.136   3.307  0.2778 -0.0022 -0.2035
10797TIP3    H153882   6.063   3.211   3.354  1.3756 -0.1326 -0.7581
10797TIP3    H253883   6.106   3.080   3.292  0.0765  0.2791 -2.5563
10798TIP3   OH253884   5.523   4.958   1.690  0.1534 -0.9265  0.3589
10798TIP3    H153885   5.547   4.916   1.607 -0.6157  1.8812 -1.3493
10798TIP3    H253886   5.581   5.034   1.696 -0.5698 -0.4752  1.8339
10799TIP3   OH253887   3.936   5.637  15.910  0.4956 -0.3455 -0.2202
10799TIP3    H153888   3.928   5.546  15.883 -0.7579 -0.6102  0.9778
10799TIP3    H253889   4.028   5.659  15.893  0.6610 -1.6231 -1.0972
10800TIP3   OH253890   4.491   0.262   3.442  0.0617 -0.0057  0.0305
10800TIP3    H153891   4.411   0.230   3.401  0.1909 -1.4312  0.8339
10800TIP3    H253892   4.462   0.333   3.499 -0.3231  0.9390 -1.3214
10801TIP3   OH253893   1.990   5.959   2.678 -0.3176  0.6099  0.2083
10801TIP3    H153894   1.900   5.948   2.649  0.2463  1.3628 -1.9518
10801TIP3    H253895   1.996   6.051   2.704 -0.5892  0.1522  1.9637
10802TIP3   OH253896   2.772   3.998   0.461  0.0968 -0.9141 -0.3363
10802TIP3    H153897   2.684   4.006   0.497 -0.4941 -1.8259 -1.5610
10802TIP3    H253898   2.795   4.087   0.432 -1.5124 -1.1784 -2.5283
10803TIP3   OH253899   3.243   6.384  14.859 -0.2360 -0.1913  0.2077
10803TIP3    H153900   3.309   6.342  14.915 -0.4352  1.1966  1.5071
10803TIP3    H253901   3.292   6.416  14.783  0.6635  1.1111  1.3122
10804TIP3   OH253902   4.686   4.522  15.999  0.2682  0.4143  0.0880
10804TIP3    H153903   4.632   4.575  15.941 -0.0319  0.0291  0.0108
10804TIP3    H253904   4.773   4.524  15.959 -0.0731 -0.3541 -0.7232
10805TIP3   OH253905   1.105   0.734   3.010  1.0294 -0.1914 -0.9314
10805TIP3    H153906   1.023   0.684   3.003 -0.8782  2.4171  1.5682
10805TIP3    H253907   1.097   0.802   2.943 -0.5420  2.2331  1.6199
10806TIP3   OH253908   0.440   4.464   5.014  0.1629 -0.0405  0.0931
10806TIP3    H153909   0.425   4.520   4.938 -0.7602  1.0507  1.0641
10806TIP3    H253910   0.488   4.388   4.979 -0.0732  0.5421 -1.5279
10807TIP3   OH253911   4.304   4.779   5.164  0.4313  0.1689  0.0310
10807TIP3    H153912   4.374   4.797   5.226 -0.9263  1.0632  1.3481
10807TIP3    H253913   4.303   4.683   5.155  1.2770  0.1063  0.6223
10808TIP3   OH253914   2.809   4.122  11.366  0.0535  0.3281  0.1699
10808TIP3    H153915   2.878   4.106  11.302  0.9647  1.8147  0.7682
10808TIP3    H253916   2.854   4.161  11.441 -1.5904  2.4933  0.0847
10809TIP3   OH253917   3.542   6.530  14.435  0.0873  0.0629  0.1325
10809TIP3    H153918   3.541   6.626  14.446 -0.5562  0.0228  0.4544
10809TIP3    H253919   3.539   6.517  14.340 -0.6654  0.3515  0.1181
10810TIP3   OH253920   4.635   6.359   1.813  0.3525 -0.0051  0.1406
10810TIP3    H153921   4.629   6.423   1.884 -2.8173 -1.3901  1.2121
10810TIP3    H253922   4.704   6.299   1.841 -0.3436 -0.0937  1.7046
10811TIP3   OH253923   3.308   6.725   2.258 -0.1268  0.1256  0.0582
10811TIP3    H153924   3.236   6.664   2.276 -0.0280 -0.0764 -0.2209
10811TIP3    H253925   3.349   6.739   2.342 -0.9722  0.8431  0.3577
10812TIP3   OH253926   2.314   1.062  16.042  0.2557 -0.2223 -0.1542
10812TIP3    H153927   2.309   0.969  16.022 -0.5569 -0.7893  2.4750
10812TIP3    H253928   2.406   1.079  16.058  0.1971 -0.9246  0.9266
10813TIP3   OH253929   0.236   2.260  13.837  0.4004  0.5968 -0.0143
10813TIP3    H153930   0.316   2.218  13.805 -0.2417 -0.6901  0.0511
10813TIP3    H253931   0.235   2.242  13.931 -0.8160 -0.8629 -0.2806
10814TIP3   OH253932   6.338   0.542  13.162  0.8759 -0.7843 -0.1899
10814TIP3    H153933   6.353   0.593  13.083 -2.9915  0.9906  0.0976
10814TIP3    H253934   6.349   0.605  13.233  0.3381 -1.3924  0.4379
10815TIP3   OH253935   2.691   3.196  10.694 -0.0481 -0.3071  0.5985
10815TIP3    H153936   2.599   3.186  10.717 -0.4457 -0.4965 -0.9877
10815TIP3    H253937   2.704   3.291  10.689  0.4200 -0.2087  2.9334
10816TIP3   OH253938   0.419   3.898  14.368 -0.8914 -0.5095  0.4085
10816TIP3    H153939   0.343   3.877  14.423 -1.7054 -0.1563 -0.5728
10816TIP3    H253940   0.494   3.869  14.420 -1.7111 -1.1745  1.2506
10817TIP3   OH253941   0.595   0.426   5.676 -0.1139  0.6825  0.3963
10817TIP3    H153942   0.674   0.417   5.623 -0.7717 -0.8952 -0.3436
10817TIP3    H253943   0.570   0.518   5.666  0.1711  0.5680 -1.4366
10818TIP3   OH253944   2.377   6.610   6.316 -0.0247  0.1301  0.1658
10818TIP3    H153945   2.320   6.533   6.303  0.1197 -0.2235  1.5397
10818TIP3    H253946   2.460   6.585   6.276  0.7653 -1.3759  2.6462
10819TIP3   OH253947   1.547   1.723   0.851  0.5142 -0.5749  0.4089
10819TIP3    H153948   1.609   1.654   0.875 -1.1951 -2.1778  0.3450
10819TIP3    H253949   1.514   1.755   0.935  2.1817  0.9920  0.4724
10820TIP3   OH253950   1.890   5.123   3.573 -0.5876 -0.2321 -0.1969
10820TIP3    H153951   1.840   5.067   3.633  0.3666  0.3105  1.1409
10820TIP3    H253952   1.916   5.198   3.627  3.2633 -1.3711 -0.3239
10821TIP3   OH253953   2.186   1.917   4.606 -0.1747 -0.0129 -0.6025
10821TIP3    H153954   2.146   1.994   4.567  1.1517  0.6678 -0.6652
10821TIP3    H253955   2.130   1.844   4.581 -1.6756  0.9918 -0.1859
10822TIP3   OH253956   5.784   2.240   2.054  0.3990 -0.1898  0.4638
10822TIP3    H153957   5.747   2.233   1.966  0.2392  0.1144  0.5078
10822TIP3    H253958   5.807   2.332   2.064 -1.0297  0.0931  1.3228
10823TIP3   OH253959   6.190   2.715   3.244  0.2053  0.0851 -0.1301
10823TIP3    H153960   6.245   2.644   3.212  1.4045  0.3529  1.3124
10823TIP3    H253961   6.249   2.788   3.258 -1.2113  1.8364 -2.8175
10824TIP3   OH253962   3.667   0.185  13.131 -0.3400 -0.8316 -0.1668
10824TIP3    H153963   3.620   0.204  13.212  0.1045 -2.5904  0.5456
10824TIP3    H253964   3.737   0.249  13.127  0.4598 -1.5700  1.5644
10825TIP3   OH253965   1.773   6.207   6.069  0.2169  0.1241  0.1924
10825TIP3    H153966   1.802   6.234   6.157 -0.0110 -1.5386  0.7909
10825TIP3    H253967   1.800   6.279   6.012  0.4171  1.2050  1.6157
10826TIP3   OH253968   5.325   1.485   2.076  0.2384  0.0084 -0.2537
10826TIP3    H153969   5.272   1.423   2.027 -0.1328 -0.2790  0.5028
10826TIP3    H253970   5.293   1.478   2.166  1.0798  0.3453  0.0770
10827TIP3   OH253971   5.449   4.092   3.771  0.3724  0.8106 -0.1452
10827TIP3    H153972   5.379   4.151   3.744 -0.1279  0.7267  0.9435
10827TIP3    H253973   5.511   4.148   3.817  0.0818  0.5633  0.5567
10828TIP3   OH253974   0.394   1.946  15.904  0.2517  0.7255 -0.5133
10828TIP3    H153975   0.453   1.910  15.970 -0.9458  0.1854  0.2813
10828TIP3    H253976   0.406   1.890  15.827  1.1289  0.9224 -0.5220
10829TIP3   OH253977   5.794   6.658  13.571 -0.1704  0.3530  0.3405
10829TIP3    H153978   5.829   6.713  13.501 -0.5559  1.6570  1.1617
10829TIP3    H253979   5.791   6.715  13.648 -1.8326 -0.4317  0.8835
10830TIP3   OH253980   0.624   0.451   0.256 -0.2529 -0.4286 -0.0533
10830TIP3    H153981   0.653   0.469   0.166  1.8965 -0.3953  0.6320
10830TIP3    H253982   0.542   0.500   0.264 -0.0719  0.2110 -1.7385
10831TIP3   OH253983   6.073   5.180  12.995  0.3921 -0.3812 -0.1576
10831TIP3    H153984   5.994   5.207  12.948  0.0114 -0.1881  0.5930
10831TIP3    H253985   6.098   5.098  12.953  0.1238 -0.1539 -0.7820
10832TIP3   OH253986   6.030   6.776   3.803  0.4198 -0.4478  0.6247
10832TIP3    H153987   6.125   6.768   3.795  0.5167 -0.2868  1.5204
10832TIP3    H253988   6.017   6.847   3.866 -0.2820 -0.6970  0.7657
10833TIP3   OH253989   4.153   1.963  14.774 -0.1397  0.2349 -0.2897
10833TIP3    H153990   4.079   2.024  14.771  1.0657  1.8510  1.6498
10833TIP3    H253991   4.221   2.005  14.720 -0.2036 -0.6763 -1.0974
10834TIP3   OH253992   0.761   3.726   0.712  0.2177  0.6492  0.5675
10834TIP3    H153993   0.725   3.640   0.734  0.1934  0.7910  1.0858
10834TIP3    H253994   0.699   3.789   0.750  1.7670  0.9050  2.7795
10835TIP3   OH253995   6.505   3.802   4.753 -0.4904 -0.2348  0.3228
10835TIP3    H153996   6.544   3.838   4.833 -1.7218  0.3215  0.6887
10835TIP3    H253997   6.580   3.786   4.695  0.1196  3.1165  0.0652
10836TIP3   OH253998   4.498   2.231   3.244 -0.3685 -0.5466 -0.1660
10836TIP3    H153999   4.540   2.149   3.219 -0.5211 -0.9022  0.7351
10836TIP3    H254000   4.452   2.211   3.326  0.6811  0.7620  0.7757
10837TIP3   OH254001   4.474   5.929  16.690  0.1167 -0.0887  0.2157
10837TIP3    H154002   4.537   5.953  16.759 -1.3562  1.5728  1.0183
10837TIP3    H254003   4.442   5.843  16.716  0.3540  0.0710  1.0483
10838TIP3   OH254004   3.871   0.278  13.683 -0.6511 -0.5779 -0.1798
10838TIP3    H154005   3.816   0.341  13.636 -1.0678 -0.4296  0.4996
10838TIP3    H254006   3.887   0.319  13.768  0.1363 -0.8212 -0.2109
10839TIP3   OH254007   6.123   0.915   0.373  0.6650 -0.4327 -0.2018
10839TIP3    H154008   6.053   0.974   0.343  0.8274  0.3520  0.9489
10839TIP3    H254009   6.085   0.827   0.366  0.8764 -0.3523 -3.2553
10840TIP3   OH254010   3.029   6.037   4.336 -0.3543  0.2986 -0.1836
10840TIP3    H154011   3.042   6.094   4.261  2.4481 -0.8715 -0.6492
10840TIP3    H254012   3.111   5.988   4.343 -1.3440 -1.0615  2.3977
10841TIP3   OH254013   6.297   4.008   5.687 -0.0718  0.1392 -0.3920
10841TIP3    H154014   6.392   4.013   5.684  0.0309 -1.4173  0.0088
10841TIP3    H254015   6.269   4.025   5.597  0.4903  2.1820 -0.2034
10842TIP3   OH254016   5.909   6.804   1.974  0.3459  0.3222 -0.1971
10842TIP3    H154017   5.827   6.759   1.997  0.8823 -1.3631 -1.4638
10842TIP3    H254018   5.975   6.763   2.029  0.9985 -1.1588 -2.0128
10843TIP3   OH254019   1.089   5.777   6.743 -0.7461 -0.5863 -0.0131
10843TIP3    H154020   1.104   5.803   6.652 -0.1818  0.7796  0.4631
10843TIP3    H254021   1.164   5.723   6.766  0.2169  0.8819  0.3250
10844TIP3   OH254022   2.353   5.339   6.247 -0.5184 -0.0673  0.0721
10844TIP3    H154023   2.281   5.390   6.284  0.0674  0.2881  0.7574
10844TIP3    H254024   2.386   5.288   6.321  0.5599  0.5133  0.0048
10845TIP3   OH254025   4.242   5.336  15.386  0.0111 -0.0746  0.0541
10845TIP3    H154026   4.247   5.299  15.474  1.1913  1.4806  0.6629
10845TIP3    H254027   4.248   5.430  15.399  1.4649  0.1152 -1.7697
10846TIP3   OH254028   3.968   1.103   1.419  0.0522  0.3871 -0.0796
10846TIP3    H154029   3.888   1.144   1.387  0.4026  1.5621  0.5238
10846TIP3    H254030   3.945   1.011   1.428 -0.5561  0.3216 -2.0529
10847TIP3   OH254031   1.263   0.614   1.033  0.2750  0.3043  0.1186
10847TIP3    H154032   1.272   0.567   0.951  1.2515 -0.9321  0.9062
10847TIP3    H254033   1.238   0.703   1.008 -0.9050 -0.4499 -1.4227
10848TIP3   OH254034   6.202   4.297  12.134 -0.2567  0.9149  0.3910
10848TIP3    H154035   6.213   4.212  12.091 -0.7420  0.1427  1.7392
10848TIP3    H254036   6.282   4.345  12.114  0.0505  0.1172 -0.3396
10849TIP3   OH254037   5.245   2.875  14.791 -0.3656  0.1610 -0.1927
10849TIP3    H154038   5.302   2.908  14.722  1.4423 -2.2693  0.0922
10849TIP3    H254039   5.269   2.926  14.868  0.8963 -0.3009 -0.2658
10850TIP3   OH254040   5.326   0.452   5.167  0.0407 -0.0473 -0.2785
10850TIP3    H154041   5.352   0.369   5.126  1.1787  0.2975 -0.2887
10850TIP3    H254042   5.355   0.443   5.258 -1.0818 -0.1992  0.0681
10851TIP3   OH254043   2.102   3.673   0.503 -0.9165  0.2254 -0.2322
10851TIP3    H154044   2.056   3.744   0.547  0.9617  1.2567  0.1074
10851TIP3    H254045   2.037   3.603   0.497 -2.1248  1.1618  1.4055
10852TIP3   OH254046   2.586   6.416   2.733  0.2503  0.0294  0.1126
10852TIP3    H154047   2.612   6.358   2.661  1.4284 -0.4385  0.9056
10852TIP3    H254048   2.667   6.456   2.762 -0.2492  0.3426  1.0823
10853TIP3   OH254049   1.086   1.435  10.917  0.2583 -0.2945 -0.3452
10853TIP3    H154050   1.148   1.454  10.847 -0.1172 -0.3645 -0.6991
10853TIP3    H254051   1.019   1.504  10.909 -1.1245 -1.7633 -1.6539
10854TIP3   OH254052   2.490   5.056   0.583 -0.1635 -0.0845  0.0090
10854TIP3    H154053   2.443   5.023   0.659  1.0624 -0.4992  0.6038
10854TIP3    H254054   2.561   4.994   0.570  0.8817  1.1305 -0.2011
10855TIP3   OH254055   6.777   4.145  11.700  1.0178  0.8470 -0.2205
10855TIP3    H154056   6.716   4.082  11.661  0.6100  0.2628  1.3360
10855TIP3    H254057   6.864   4.108  11.683  0.8212  0.3618 -0.1669
10856TIP3   OH254058   0.178   6.690  13.783  0.3876 -0.7844 -0.1063
10856TIP3    H154059   0.270   6.667  13.799  0.1961 -1.5191 -0.0191
10856TIP3    H254060   0.166   6.775  13.825  1.0363 -0.6715 -0.1424
10857TIP3   OH254061   5.272   4.016  12.440  0.0167 -0.8391  0.2063
10857TIP3    H154062   5.283   4.090  12.382  1.1882 -0.4417  0.9163
10857TIP3    H254063   5.178   3.996  12.437 -0.3287  0.7788  0.1617
10858TIP3   OH254064   2.222   5.111  16.062  0.0689 -0.0192 -0.6489
10858TIP3    H154065   2.167   5.164  16.004 -2.0720  0.9270  2.1000
10858TIP3    H254066   2.164   5.042  16.093  1.0405 -0.2410  0.7017
10859TIP3   OH254067   3.797   3.880   1.203  0.3998 -0.0947  0.7041
10859TIP3    H154068   3.795   3.914   1.114  1.2218 -1.8137  0.0036
10859TIP3    H254069   3.714   3.835   1.213  0.0599  0.5985  1.0142
10860TIP3   OH254070   2.860   3.873   5.842 -0.3066  0.0686 -0.5054
10860TIP3    H154071   2.777   3.857   5.887  0.3503 -0.8188  0.4367
10860TIP3    H254072   2.863   3.807   5.773  0.1903 -0.7832  0.3012
10861TIP3   OH254073   4.393   3.363   2.567 -0.0051  0.4594  0.3380
10861TIP3    H154074   4.463   3.301   2.587  0.8658  1.2146 -0.3498
10861TIP3    H254075   4.382   3.413   2.648  1.9905  2.0147 -0.2961
10862TIP3   OH254076   4.289   5.102   2.139  0.0742  0.3194 -0.4482
10862TIP3    H154077   4.315   5.039   2.072 -1.5191 -2.2360  1.2367
10862TIP3    H254078   4.365   5.111   2.196  1.4084  2.4450 -2.4904
10863TIP3   OH254079   5.998   4.836  11.376 -0.1405  0.0438  0.5878
10863TIP3    H154080   5.960   4.786  11.304  0.6550  0.1907  0.0516
10863TIP3    H254081   5.933   4.902  11.397 -1.5619 -1.6906  1.8309
10864TIP3   OH254082   1.416   4.195  14.513 -0.5852 -0.4863  0.6735
10864TIP3    H154083   1.456   4.161  14.593  1.5697 -0.1526 -0.2114
10864TIP3    H254084   1.369   4.121  14.475  1.0921 -1.5240  0.5894
10865TIP3   OH254085   3.726   3.033  10.855  0.2091  0.8130 -0.6478
10865TIP3    H154086   3.806   3.085  10.846  1.5719 -1.2580 -1.0045
10865TIP3    H254087   3.714   2.992  10.770  0.3404 -1.0390  0.1851
10866TIP3   OH254088   1.951   2.874   1.303  0.1765  0.6004 -0.3247
10866TIP3    H154089   1.866   2.912   1.326 -0.6094 -1.1916 -0.1989
10866TIP3    H254090   2.008   2.899   1.375 -1.5925 -2.6374  2.3786
10867TIP3   OH254091   4.207   5.909  14.287 -0.5708 -0.0924  0.3443
10867TIP3    H154092   4.161   5.853  14.224  1.5785  0.9602 -2.3056
10867TIP3    H254093   4.300   5.895  14.267  0.0438  3.0264  0.8128
10868TIP3   OH254094   6.397   1.987   0.750 -0.1485 -0.3039  0.0564
10868TIP3    H154095   6.359   1.970   0.836  0.0830  0.2890  0.2761
10868TIP3    H254096   6.357   2.069   0.722 -1.3547 -1.2487 -1.0527
10869TIP3   OH254097   3.012   2.927  13.855 -0.3084 -0.1180  0.4009
10869TIP3    H154098   2.967   3.008  13.829 -1.5834 -0.1355  2.4101
10869TIP3    H254099   3.105   2.947  13.844 -0.6877  0.7966 -1.3787
10870TIP3   OH254100   6.175   5.507   2.842 -0.0074 -0.0949  0.2998
10870TIP3    H154101   6.125   5.452   2.782  0.8858 -1.3654  0.7112
10870TIP3    H254102   6.267   5.491   2.819  0.3847 -1.3120  2.6316
10871TIP3   OH254103   5.497   2.163  16.135 -0.0744  0.4654 -1.3790
10871TIP3    H154104   5.544   2.155  16.218 -2.6412  0.1417  0.0746
10871TIP3    H254105   5.481   2.072  16.108 -0.1523  0.5796 -1.7217
10872TIP3   OH254106   1.695   5.802   1.638  0.5004 -0.4720  0.0610
10872TIP3    H154107   1.635   5.853   1.692  1.0346 -0.7747  0.9426
10872TIP3    H254108   1.781   5.842   1.655  0.5545 -0.0224 -1.2094
10873TIP3   OH254109   1.647   1.655   5.915 -0.1844  0.9233  0.1731
10873TIP3    H154110   1.728   1.686   5.955 -0.7033 -0.0158  1.9924
10873TIP3    H254111   1.595   1.622   5.988 -0.8791 -1.4750 -1.3561
10874TIP3   OH254112   5.186   2.673  12.329  0.4133  0.1238 -0.2767
10874TIP3    H154113   5.111   2.678  12.270  2.5761  1.0841 -3.0578
10874TIP3    H254114   5.184   2.755  12.378 -2.0601 -1.1688  1.9475
10875TIP3   OH254115   5.138   0.980   5.241 -0.1820 -0.0745 -0.4053
10875TIP3    H154116   5.150   1.075   5.247 -2.7697  0.2213  0.8225
10875TIP3    H254117   5.172   0.957   5.155  1.6441  1.7616 -0.2139
10876TIP3   OH254118   6.662   2.603   1.802 -0.2356  0.2535 -0.4085
10876TIP3    H154119   6.735   2.551   1.837  0.4058  0.8836 -0.7961
10876TIP3    H254120   6.590   2.540   1.793  0.3439 -0.4356 -0.2742
10877TIP3   OH254121   2.262   2.879  14.882  0.2617  0.4683 -0.1287
10877TIP3    H154122   2.309   2.866  14.964 -0.4277  0.1865  0.2267
10877TIP3    H254123   2.283   2.802  14.830  2.3217  1.5968 -1.0194
10878TIP3   OH254124   6.284   3.044   1.690  0.5105 -0.3780  0.3122
10878TIP3    H154125   6.194   3.027   1.661 -0.9766  1.7758  3.2597
10878TIP3    H254126   6.311   2.963   1.733 -1.2085 -0.1199  1.9963
10879TIP3   OH254127   4.617   0.186  12.313  0.2916 -0.0532  0.3781
10879TIP3    H154128   4.694   0.195  12.369  0.4476  0.9580  0.0033
10879TIP3    H254129   4.607   0.272  12.272  0.3934 -0.8799 -1.4263
10880TIP3   OH254130   2.528   2.499  15.558  0.3066  0.4583  0.0425
10880TIP3    H154131   2.587   2.495  15.633 -0.3842  1.1062  0.6332
10880TIP3    H254132   2.512   2.407  15.535  0.2454  0.2413  0.9183
10881TIP3   OH254133   0.959   2.673  14.525 -0.0384  0.2758 -0.1891
10881TIP3    H154134   1.044   2.707  14.499 -0.0790  0.4627 -0.0758
10881TIP3    H254135   0.979   2.597  14.579  0.0770  1.1088  0.9510
10882TIP3   OH254136   3.642   6.488  11.909 -0.1880 -0.0678 -0.0472
10882TIP3    H154137   3.603   6.560  11.959  1.2062  2.1987 -2.0776
10882TIP3    H254138   3.727   6.523  11.879  1.8871 -3.6237  1.3877
10883TIP3   OH254139   6.502   1.981  10.563 -0.3077 -0.5858 -0.1408
10883TIP3    H154140   6.436   1.915  10.586 -0.2038 -0.3663  0.8305
10883TIP3    H254141   6.451   2.061  10.548 -0.3776 -0.7322 -0.6839
10884TIP3   OH254142   3.396   5.372   6.537  0.1038  0.9139 -0.1483
10884TIP3    H154143   3.424   5.299   6.592 -1.0692  0.0656 -0.6863
10884TIP3    H254144   3.463   5.377   6.468 -0.3304 -0.2483 -0.6524
10885TIP3   OH254145   0.024   3.649   0.335  0.1775 -0.5636  0.0856
10885TIP3    H154146  -0.001   3.711   0.266  4.9266 -0.0666 -1.3670
10885TIP3    H254147   0.047   3.703   0.410  2.6249 -0.6317 -0.5968
10886TIP3   OH254148   1.265   6.730  14.548 -0.3341  0.0272  0.1840
10886TIP3    H154149   1.335   6.667  14.562  0.4318  0.9030  0.3380
10886TIP3    H254150   1.309   6.815  14.543 -1.0862  0.3012 -2.5308
10887TIP3   OH254151   4.264   3.304  15.038 -0.0441 -0.2473  0.4220
10887TIP3    H154152   4.315   3.325  14.960 -1.6682  0.3035 -0.5258
10887TIP3    H254153   4.250   3.210  15.033 -1.6959  0.0535 -0.9451
10888TIP3   OH254154   0.551   4.202  15.557 -0.4113  0.7496 -0.5585
10888TIP3    H154155   0.565   4.295  15.540  0.2535  0.7305 -0.1183
10888TIP3    H254156   0.589   4.187  15.644 -0.6221  0.0938 -0.5765
10889TIP3   OH254157   3.341   1.329  12.248  0.0207 -0.2509  0.3107
10889TIP3    H154158   3.402   1.328  12.322  0.9105 -0.2989 -0.4161
10889TIP3    H254159   3.279   1.399  12.269  2.0889  1.8351 -0.3332
10890TIP3   OH254160   6.655   4.127  12.935 -0.0106  0.4696  0.3364
10890TIP3    H154161   6.674   4.117  12.841 -0.5083  0.2653  0.2597
10890TIP3    H254162   6.737   4.102  12.977  0.7985  2.3069 -0.1014
10891TIP3   OH254163   1.253   5.639   4.938  0.7109  0.5603  0.2053
10891TIP3    H154164   1.213   5.611   4.856  0.7183  1.2463 -0.0328
10891TIP3    H254165   1.309   5.566   4.964  0.2948  0.1242 -0.1221
10892TIP3   OH254166   1.385   5.556  16.788 -0.1744  0.3383 -0.3247
10892TIP3    H154167   1.348   5.524  16.871 -1.0772 -0.7017 -1.1144
10892TIP3    H254168   1.480   5.551  16.800 -0.2829  1.5662  1.1714
10893TIP3   OH254169   4.700   4.981   2.401 -0.2022  0.1681  0.4814
10893TIP3    H154170   4.765   4.913   2.421 -0.6607 -1.0688 -2.0265
10893TIP3    H254171   4.620   4.950   2.443 -0.0769 -0.1956  0.4599
10894TIP3   OH254172   4.007   1.004  11.985  0.2253 -0.0522  0.9123
10894TIP3    H154173   4.074   0.982  12.050 -0.8671 -0.6157  1.8695
10894TIP3    H254174   3.980   1.093  12.008  2.0232  0.9687 -0.6988
10895TIP3   OH254175   6.017   1.762   3.379 -0.0632 -0.2109  0.4428
10895TIP3    H154176   6.052   1.711   3.306 -1.6023 -1.4866  0.5534
10895TIP3    H254177   5.961   1.828   3.337 -0.3712 -0.4827  0.4199
10896TIP3   OH254178   0.923   0.183   0.165  0.7625  0.1211  0.0245
10896TIP3    H154179   1.013   0.209   0.145  0.6983  0.5796  0.3183
10896TIP3    H254180   0.869   0.237   0.107  0.5600  1.6496  1.5881
10897TIP3   OH254181   4.125   2.179  13.829 -0.0516  0.1334 -0.2607
10897TIP3    H154182   4.087   2.138  13.751 -0.7330  1.1664 -0.4858
10897TIP3    H254183   4.165   2.106  13.877  0.7599 -0.4422 -1.7872
10898TIP3   OH254184   1.806   0.195   3.186 -0.6922 -0.3672 -0.6821
10898TIP3    H154185   1.713   0.175   3.173 -0.8875  1.0143 -1.6219
10898TIP3    H254186   1.849   0.161   3.108 -0.3554 -1.3172 -0.0831
10899TIP3   OH254187   3.003   1.053   0.171 -0.0179  0.0324  0.2167
10899TIP3    H154188   3.036   1.141   0.187  2.3064 -1.5041  4.4957
10899TIP3    H254189   2.957   1.029   0.252 -1.3246 -2.4066 -1.1675
10900TIP3   OH254190   6.373   1.897   0.304 -0.1066 -0.2716  0.0037
10900TIP3    H154191   6.327   1.859   0.379 -1.2337  0.6480 -0.2079
10900TIP3    H254192   6.314   1.885   0.230  0.5524 -0.2329 -0.5414
10901TIP3   OH254193   0.459   3.809  11.598 -0.4218 -0.3969 -0.3662
10901TIP3    H154194   0.459   3.900  11.628  1.8245 -0.5628  0.2507
10901TIP3    H254195   0.530   3.805  11.534 -0.7154 -1.6308 -0.6199
10902TIP3   OH254196   4.813   2.476   0.552 -0.1995  0.1934  0.0134
10902TIP3    H154197   4.853   2.562   0.562 -0.4280  0.6594 -2.8408
10902TIP3    H254198   4.749   2.487   0.481 -0.1291 -2.3597 -0.4973
10903TIP3   OH254199   2.416   2.398   6.397  0.2281 -0.6818 -0.8336
10903TIP3    H154200   2.331   2.443   6.400 -0.8964 -2.8413  0.3578
10903TIP3    H254201   2.475   2.458   6.443 -1.5093 -0.8853  1.8133
10904TIP3   OH254202   2.585   3.805   5.551 -0.0339 -0.1756 -0.0341
10904TIP3    H154203   2.669   3.809   5.506 -0.1757 -0.5448 -0.3369
10904TIP3    H254204   2.568   3.711   5.562  0.4815 -0.0895  1.6945
10905TIP3   OH254205   5.356   4.984   0.467 -0.7708 -0.2432 -0.0262
10905TIP3    H154206   5.421   5.004   0.535 -1.4602  0.4232  0.4389
10905TIP3    H254207   5.296   5.058   0.468 -1.7631 -1.0331 -0.2004
10906TIP3   OH254208   3.167   5.929  11.069 -0.2822  0.2127  0.3469
10906TIP3    H154209   3.201   5.869  11.003 -0.4857  1.4174 -0.8699
10906TIP3    H254210   3.214   6.010  11.054  0.0990  0.3319  2.0837
10907TIP3   OH254211   3.049   2.831  13.535 -0.4407 -0.4272 -0.5011
10907TIP3    H154212   2.981   2.872  13.481 -0.3950  0.0684 -0.1910
10907TIP3    H254213   3.010   2.748  13.564  0.2052 -1.5560 -2.7543
10908TIP3   OH254214   0.029   5.729  12.786  0.1151 -0.1082  0.2703
10908TIP3    H154215   0.024   5.783  12.864  0.2817 -1.2614  1.0826
10908TIP3    H254216   0.086   5.656  12.810 -0.8101 -1.1179 -0.5377
10909TIP3   OH254217   5.384   2.527  10.400 -0.2188 -0.7571  0.1247
10909TIP3    H154218   5.403   2.615  10.435  1.2294 -0.7220 -0.7180
10909TIP3    H254219   5.400   2.535  10.306  0.0992 -1.9728  0.0728
10910TIP3   OH254220   6.077   3.965  13.630  0.5295 -0.2062  0.4989
10910TIP3    H154221   5.994   3.976  13.584  1.5063  2.7854 -0.6413
10910TIP3    H254222   6.052   3.946  13.721 -1.3680  0.2299  0.0879
10911TIP3   OH254223   4.237   3.933  16.313 -0.2697 -0.1397 -0.0200
10911TIP3    H154224   4.150   3.895  16.316 -1.0491  1.4827 -1.2121
10911TIP3    H254225   4.288   3.874  16.258 -1.0490 -0.2763 -0.5909
10912TIP3   OH254226   3.397   0.198  12.615  0.4193  0.3983 -0.7241
10912TIP3    H154227   3.355   0.239  12.691  1.9332  0.0239  0.3308
10912TIP3    H254228   3.349   0.232  12.539 -0.7387  1.2127  0.3622
10913TIP3   OH254229   1.198   6.654   5.073 -0.3347  0.1145  0.6915
10913TIP3    H154230   1.247   6.574   5.094 -1.2691 -0.3315  1.2177
10913TIP3    H254231   1.264   6.716   5.043  0.6663 -0.1470  2.3347
10914TIP3   OH254232   5.501   1.426  14.608 -0.2610  0.6105 -0.3581
10914TIP3    H154233   5.466   1.343  14.576  0.9660 -0.4658  1.0067
10914TIP3    H254234   5.456   1.440  14.691  1.9677 -0.4396  1.0742
10915TIP3   OH254235   5.815   1.458  11.908 -0.0539  0.6431  0.4785
10915TIP3    H154236   5.829   1.540  11.861  0.6392  0.8868  1.1148
10915TIP3    H254237   5.901   1.416  11.911 -0.3191  0.0941  0.5434
10916TIP3   OH254238   5.937   3.903  11.199  0.7567 -0.2469  0.7079
10916TIP3    H154239   6.028   3.901  11.171  0.3012  0.9780 -0.9845
10916TIP3    H254240   5.940   3.897  11.294  2.6048 -0.0760  0.6722
10917TIP3   OH254241   1.328   6.287  17.150 -0.3224  0.2699  0.3193
10917TIP3    H154242   1.306   6.232  17.074  1.6844  1.6930 -1.3373
10917TIP3    H254243   1.259   6.353  17.153 -0.5062  0.1038 -0.1690
10918TIP3   OH254244   0.254   1.353   4.355 -0.1374 -0.7242 -0.0564
10918TIP3    H154245   0.174   1.357   4.408 -0.4504 -2.0457 -0.4075
10918TIP3    H254246   0.224   1.368   4.265  0.6681  3.7005  0.3047
10919TIP3   OH254247   3.735   6.601  13.526  0.0243  0.2059 -0.5351
10919TIP3    H154248   3.744   6.507  13.508 -0.4572 -0.0605  0.5854
10919TIP3    H254249   3.776   6.613  13.612 -1.4444  0.7142  0.0980
10920TIP3   OH254250   5.843   1.062  15.488 -0.3147  0.6884 -0.2469
10920TIP3    H154251   5.888   1.140  15.454  3.4777 -1.5495 -0.6351
10920TIP3    H254252   5.803   1.022  15.411 -1.2786  1.5532 -0.2205
10921TIP3   OH254253   6.288   3.334  16.168 -0.2496  0.1116  0.3747
10921TIP3    H154254   6.369   3.384  16.173 -0.8057  1.0638  0.1704
10921TIP3    H254255   6.315   3.244  16.154  0.7460  0.6780 -1.4680
10922TIP3   OH254256   0.769   5.321  12.763  0.1681 -0.2225 -1.1816
10922TIP3    H154257   0.696   5.260  12.749 -0.2726 -0.9588  3.7272
10922TIP3    H254258   0.847   5.267  12.752 -0.1622 -0.9432 -0.0251
10923TIP3   OH254259   2.322   1.650  12.243  0.1346  0.0131  0.1931
10923TIP3    H154260   2.268   1.725  12.271 -1.2238  0.2947 -2.9679
10923TIP3    H254261   2.393   1.690  12.192 -0.4715 -0.7953 -1.3130
10924TIP3   OH254262   1.517   3.598  15.157 -0.1160 -0.0701  0.1999
10924TIP3    H154263   1.445   3.580  15.097 -0.5736  1.8440  0.1471
10924TIP3    H254264   1.484   3.575  15.243 -1.3751  2.2113  0.3756
10925TIP3   OH254265   0.078   1.082  12.745 -0.3447 -0.2267 -0.1362
10925TIP3    H154266   0.152   1.142  12.736 -1.4025  1.0096 -0.7408
10925TIP3    H254267   0.095   1.012  12.682 -0.3520  0.7315 -1.2021
10926TIP3   OH254268   3.018   0.896  13.166 -0.6940  0.1097  0.1377
10926TIP3    H154269   3.016   0.806  13.200  1.3932  0.0675  0.2031
10926TIP3    H254270   3.098   0.933  13.202 -0.9636  1.6523 -0.8112
10927TIP3   OH254271   5.880   6.178  11.983  0.0368  0.0548  0.3708
10927TIP3    H154272   5.851   6.182  12.074  0.1258 -0.8127  0.4391
10927TIP3    H254273   5.949   6.112  11.982  0.3013  0.3288 -0.2590
10928TIP3   OH254274   6.751   1.785   3.170 -0.3605  0.5653  0.6763
10928TIP3    H154275   6.723   1.789   3.262 -1.4611  0.2850  0.3660
10928TIP3    H254276   6.801   1.866   3.157 -0.1672  0.5859  1.5385
10929TIP3   OH254277   1.974   4.972  12.799 -0.3215 -0.2860  0.4688
10929TIP3    H154278   1.920   4.893  12.803  0.9537 -1.1414  1.2169
10929TIP3    H254279   2.022   4.973  12.882  1.2481  0.1334 -0.4220
10930TIP3   OH254280   3.203   3.120   3.159  0.6487  0.0323  0.2987
10930TIP3    H154281   3.297   3.116   3.142  0.4227  0.3367 -1.1157
10930TIP3    H254282   3.173   3.198   3.112  0.0475  1.2313  2.5929
10931TIP3   OH254283   4.392   0.395   3.194 -0.5082  0.2182 -0.9497
10931TIP3    H154284   4.440   0.438   3.122  0.1105  1.0423 -0.0527
10931TIP3    H254285   4.423   0.305   3.193  0.6517  0.6099 -0.7353
10932TIP3   OH254286   0.213   5.470   6.137 -0.4352 -0.1734  0.0910
10932TIP3    H154287   0.229   5.563   6.157 -1.4250  0.2149 -0.8311
10932TIP3    H254288   0.153   5.441   6.205 -0.9577  0.1648 -0.2157
10933TIP3   OH254289   3.135   4.206   4.936 -0.0261 -0.2311  0.0334
10933TIP3    H154290   3.182   4.287   4.955  1.8513 -1.2211 -0.1774
10933TIP3    H254291   3.054   4.213   4.985 -1.5262  3.2677 -2.6974
10934TIP3   OH254292   6.096   6.263  15.087  0.2048 -0.0723 -0.8080
10934TIP3    H154293   6.030   6.273  15.155 -0.7301 -0.5802 -1.6193
10934TIP3    H254294   6.174   6.235  15.133 -0.7311 -1.5432 -0.0607
10935TIP3   OH254295   4.667   5.883   2.690  0.3441  0.2355 -0.3670
10935TIP3    H154296   4.723   5.903   2.764  1.2555 -1.6518 -0.5163
10935TIP3    H254297   4.694   5.795   2.662 -1.7165 -0.1363 -1.3133
10936TIP3   OH254298   1.095   5.883   3.548  0.0512  0.9832  0.5126
10936TIP3    H154299   1.161   5.908   3.484 -1.6474  1.5451 -1.0968
10936TIP3    H254300   1.084   5.960   3.603 -0.0776  1.3061  0.0448
10937TIP3   OH254301   5.656   0.741   5.649  0.0266 -0.1140  0.1309
10937TIP3    H154302   5.715   0.781   5.712 -1.0161 -0.3315  1.2657
10937TIP3    H254303   5.714   0.705   5.582  1.0988  1.0120  0.4200
10938TIP3   OH254304   1.881   3.178   0.716  0.4689 -0.3112  0.0382
10938TIP3    H154305   1.826   3.210   0.645  0.1399  0.1609  0.5030
10938TIP3    H254306   1.905   3.257   0.765 -1.0577 -0.8463  1.7122
10939TIP3   OH254307   2.269   5.267  15.791 -0.1270  0.5007  0.0216
10939TIP3    H154308   2.179   5.236  15.779  0.2506 -0.3123 -0.7718
10939TIP3    H254309   2.323   5.188  15.785  0.6666  1.0150  0.2354
10940TIP3   OH254310   2.927   5.094  12.401  0.0352 -0.2709 -0.7623
10940TIP3    H154311   2.993   5.051  12.348  1.6336  0.1963  0.7983
10940TIP3    H254312   2.861   5.123  12.338  1.6910 -0.0532 -2.4472
10941TIP3   OH254313   3.659   2.086   1.878  0.2302  0.1084  0.2194
10941TIP3    H154314   3.647   2.131   1.795 -0.2344 -1.5671 -0.6337
10941TIP3    H254315   3.607   2.005   1.870  3.5499 -2.1494  0.4678
10942TIP3   OH254316   6.596   0.933  15.763  0.1533  0.4322 -0.3593
10942TIP3    H154317   6.629   1.013  15.804 -0.5507  1.7641 -2.2817
10942TIP3    H254318   6.667   0.906  15.704 -0.6660  1.1975 -1.7260
10943TIP3   OH254319   3.603   2.171  12.776  0.0600  0.8654 -0.0282
10943TIP3    H154320   3.522   2.222  12.786 -0.0770  0.5439  0.5456
10943TIP3    H254321   3.647   2.210  12.701 -0.4852  1.2416 -0.1561
10944TIP3   OH254322   5.949   4.425  15.273  0.0384 -0.5228 -0.2188
10944TIP3    H154323   5.902   4.437  15.191 -0.5052  0.6242  0.2500
10944TIP3    H254324   5.889   4.375  15.329  0.2381 -0.9245 -0.3581
10945TIP3   OH254325   6.676   0.459   5.840  0.2154 -0.0359 -0.2822
10945TIP3    H154326   6.625   0.404   5.898  0.3498  1.4315  1.2515
10945TIP3    H254327   6.614   0.486   5.772  0.3837 -2.8037 -1.5852
10946TIP3   OH254328   6.412   0.876   1.162 -0.3286 -0.4546 -0.4743
10946TIP3    H154329   6.391   0.900   1.072 -0.2988 -0.5021 -0.4948
10946TIP3    H254330   6.388   0.783   1.168 -0.9538 -0.2769 -0.2340
10947TIP3   OH254331   5.080   1.710  15.821 -0.1335 -0.0627  0.3412
10947TIP3    H154332   5.168   1.676  15.807 -0.7234 -1.0402 -1.1124
10947TIP3    H254333   5.092   1.785  15.879  1.7936  0.6003 -0.8937
10948TIP3   OH254334   3.287   3.121   2.104 -0.2080 -0.0659 -0.5984
10948TIP3    H154335   3.322   3.044   2.147 -0.2305  0.4966  0.4265
10948TIP3    H254336   3.195   3.125   2.132 -0.1513  0.4539 -0.4812
10949TIP3   OH254337   4.797   2.487  11.464  0.1382 -0.4476 -0.0850
10949TIP3    H154338   4.771   2.396  11.477  1.1598 -0.6688  0.4299
10949TIP3    H254339   4.739   2.537  11.521 -1.4103 -0.6356 -1.4596
10950TIP3   OH254340   4.341   1.208  13.067 -0.2620  0.4277 -0.1694
10950TIP3    H154341   4.360   1.275  13.002  0.1795 -0.6499 -1.1435
10950TIP3    H254342   4.387   1.130  13.037  0.7923  0.2008  1.9686
10951TIP3   OH254343   2.142   2.668   1.522  0.3897 -0.1412 -0.4624
10951TIP3    H154344   2.050   2.680   1.548  0.6419 -2.5648  1.7259
10951TIP3    H254345   2.137   2.626   1.436 -0.5688 -0.7867 -0.1079
10952TIP3   OH254346   5.316   3.929  11.936  0.7899 -0.0827 -0.3321
10952TIP3    H154347   5.349   4.018  11.927  2.0730 -0.6754 -1.7629
10952TIP3    H254348   5.254   3.919  11.864  0.6912 -0.3708 -0.2067
10953TIP3   OH254349   6.680   0.356   2.115 -0.1511 -0.4397 -0.1250
10953TIP3    H154350   6.637   0.307   2.045 -1.1722  0.5338 -0.1860
10953TIP3    H254351   6.636   0.327   2.195 -0.7157  0.3415 -0.1548
10954TIP3   OH254352   5.093   5.777  11.615  0.2189  0.1064 -0.5652
10954TIP3    H154353   4.999   5.772  11.597  0.1627 -0.5705 -0.1320
10954TIP3    H254354   5.126   5.692  11.586  0.2685 -0.6545  1.6600
10955TIP3   OH254355   2.721   1.380   6.272 -0.3174 -0.2724  0.2043
10955TIP3    H154356   2.743   1.470   6.295 -0.3732 -0.0142 -0.7482
10955TIP3    H254357   2.625   1.377   6.278 -0.2980 -0.3468  0.5043
10956TIP3   OH254358   3.335   0.512   4.129  0.1495  0.0308 -0.0422
10956TIP3    H154359   3.334   0.501   4.034  0.8794  0.0027 -0.0552
10956TIP3    H254360   3.256   0.562   4.149 -1.1546 -1.8456 -0.4200
10957TIP3   OH254361   2.964   5.832  17.201 -0.0479  0.0275 -0.3921
10957TIP3    H154362   2.884   5.804  17.245 -0.7148 -0.3224 -1.8098
10957TIP3    H254363   3.029   5.839  17.271 -0.6947 -2.0362  0.4340
10958TIP3   OH254364   2.442   4.348  13.433 -0.1879 -0.0288  0.1631
10958TIP3    H154365   2.499   4.336  13.509 -0.2713 -1.0461  0.0706
10958TIP3    H254366   2.443   4.442  13.418  1.0736  0.0190  0.4667
10959TIP3   OH254367   2.098   0.219  14.856 -0.1999  0.0536  0.1073
10959TIP3    H154368   2.153   0.259  14.789  0.3862  1.1899  1.2333
10959TIP3    H254369   2.023   0.277  14.864 -2.0905 -1.9903 -2.0889
10960TIP3   OH254370   3.675   0.206   3.701 -0.0525  1.3711 -0.3040
10960TIP3    H154371   3.736   0.168   3.639 -0.9440  1.0660 -1.0005
10960TIP3    H254372   3.709   0.294   3.717  1.6143  0.5697  0.7595
10961TIP3   OH254373   6.520   2.678   2.808  0.2611  0.3243  0.3687
10961TIP3    H154374   6.606   2.690   2.767 -0.1304  1.3182 -0.1666
10961TIP3    H254375   6.502   2.585   2.798 -0.4659  0.7583 -3.0435
10962TIP3   OH254376   5.797   0.963  16.604 -0.2278  0.4058 -0.7497
10962TIP3    H154377   5.846   0.922  16.675 -0.7730 -0.0866 -0.6461
10962TIP3    H254378   5.834   1.051  16.596 -0.2248  0.4943  0.2071
10963TIP3   OH254379   5.306   1.430   1.333  0.0155 -0.0860  0.1941
10963TIP3    H154380   5.236   1.436   1.268 -0.5043  2.0071  0.9337
10963TIP3    H254381   5.262   1.401   1.413  0.0048  1.0571  0.6132
10964TIP3   OH254382   0.414   4.198   6.476 -0.7056  0.6731 -0.1771
10964TIP3    H154383   0.362   4.122   6.503 -0.5933  0.5340 -0.3546
10964TIP3    H254384   0.385   4.268   6.535  0.5501  0.0143  1.2705
10965TIP3   OH254385   0.514   1.749   3.702 -0.4544 -0.3121 -0.3806
10965TIP3    H154386   0.420   1.737   3.718 -0.7741 -0.2279 -2.1378
10965TIP3    H254387   0.519   1.828   3.649  0.7402  0.5011  0.9077
10966TIP3   OH254388   3.727   5.795   5.040  0.1630  0.2982  0.7162
10966TIP3    H154389   3.667   5.766   5.109 -0.4135  0.4497  0.2859
10966TIP3    H254390   3.796   5.730   5.039 -0.4937 -0.4017  0.5761
10967TIP3   OH254391   2.172   0.239   2.497 -0.4655 -0.3498 -0.5543
10967TIP3    H154392   2.174   0.332   2.517 -2.5542 -0.5400  0.6618
10967TIP3    H254393   2.150   0.235   2.404 -1.3514  0.3443 -0.3711
10968TIP3   OH254394   6.614   2.858  16.172 -0.6464  0.0102 -0.4321
10968TIP3    H154395   6.658   2.793  16.116  1.6307  1.1337 -0.0120
10968TIP3    H254396   6.583   2.807  16.247  0.5528 -0.7444 -0.4190
10969TIP3   OH254397   5.621   3.923   5.609  0.4089 -0.2502 -0.1716
10969TIP3    H154398   5.659   3.922   5.521 -0.9231 -1.9500 -0.7547
10969TIP3    H254399   5.686   3.970   5.662  2.3316 -1.2171 -1.5758
10970TIP3   OH254400   4.892   4.175   0.559  0.5555  0.4414 -0.0396
10970TIP3    H154401   4.861   4.250   0.508 -1.4907  1.7509  2.9569
10970TIP3    H254402   4.830   4.105   0.539 -1.6276  1.6179  2.1858
10971TIP3   OH254403   6.360   2.075   2.505 -0.5095  0.6192 -0.2333
10971TIP3    H154404   6.284   2.019   2.487 -1.0114  1.0605  0.4783
10971TIP3    H254405   6.334   2.126   2.582  0.1263  1.4887 -0.5952
10972TIP3   OH254406   2.669   4.436  11.532 -0.2867 -0.4034 -0.7632
10972TIP3    H154407   2.682   4.530  11.547 -3.5172  0.4189 -2.5123
10972TIP3    H254408   2.645   4.401  11.618  1.3194  0.2662 -0.0209
10973TIP3   OH254409   1.622   5.155  16.021  0.5551  0.4028 -0.6217
10973TIP3    H154410   1.694   5.100  16.053 -0.9452 -0.5892  1.1019
10973TIP3    H254411   1.566   5.168  16.097 -1.5521  0.4428 -2.1453
10974TIP3   OH254412   5.879   5.690   4.483  0.1534  0.3603  0.0678
10974TIP3    H154413   5.961   5.710   4.528  0.5777  1.2022 -1.0723
10974TIP3    H254414   5.867   5.596   4.496  3.1311 -0.5008 -2.7327
10975TIP3   OH254415   1.253   1.265   3.561  0.2552  0.0985 -0.2789
10975TIP3    H154416   1.163   1.281   3.534  0.6689  2.2343 -0.4710
10975TIP3    H254417   1.261   1.311   3.645  1.4857  0.8792 -0.8193
10976TIP3   OH254418   5.780   5.165  10.821 -0.3052 -0.4388 -0.0244
10976TIP3    H154419   5.685   5.155  10.830 -0.4510  0.8260 -0.0131
10976TIP3    H254420   5.813   5.076  10.813 -1.5526 -0.8586 -0.5894
10977TIP3   OH254421   1.243   0.599   6.789 -0.8796  0.4531 -0.0090
10977TIP3    H154422   1.179   0.538   6.826 -1.2731  1.1792  0.5332
10977TIP3    H254423   1.326   0.577   6.831 -0.7598 -0.5309 -0.7560
10978TIP3   OH254424   1.092   5.090   1.510 -0.6667  0.6135  0.0986
10978TIP3    H154425   1.058   5.101   1.421  1.7223 -0.1533 -0.9466
10978TIP3    H254426   1.015   5.065   1.562 -1.1700 -4.9654 -2.9427
10979TIP3   OH254427   6.814   2.874   3.274  0.2386 -0.8362 -0.1794
10979TIP3    H154428   6.908   2.853   3.270  0.8236  1.5283  0.5716
10979TIP3    H254429   6.797   2.889   3.367 -0.1912  1.6256 -0.6138
10980TIP3   OH254430   1.921   2.797   3.347 -0.1798 -0.3247  0.3447
10980TIP3    H154431   1.982   2.723   3.347  0.2121 -0.0020  1.6182
10980TIP3    H254432   1.907   2.816   3.254  0.2484 -1.5533  0.0141
10981TIP3   OH254433   6.455   5.557  16.527 -0.7677 -0.4455  0.4814
10981TIP3    H154434   6.525   5.552  16.592 -0.2192  0.1854 -0.0515
10981TIP3    H254435   6.424   5.648  16.532 -0.6820 -0.3767 -0.1732
10982TIP3   OH254436   4.990   2.664   6.701  0.5560  0.0644 -0.0968
10982TIP3    H154437   4.988   2.754   6.671  1.3741  0.3443  0.6717
10982TIP3    H254438   4.915   2.657   6.760 -0.1454 -0.0664 -0.9891
10983TIP3   OH254439   3.059   1.790   1.085  0.2016  0.7206 -0.6808
10983TIP3    H154440   3.052   1.882   1.110 -0.7144  0.2028  1.0038
10983TIP3    H254441   2.970   1.764   1.062  0.1381 -0.2027  0.5506
10984TIP3   OH254442   2.482   2.544   5.661  0.0610  0.1695 -0.3822
10984TIP3    H154443   2.398   2.500   5.661  0.2837 -0.2858  1.4359
10984TIP3    H254444   2.501   2.560   5.754  1.4946  1.1681 -0.8325
10985TIP3   OH254445   0.056   3.939   3.236  0.0352 -0.3405  0.2710
10985TIP3    H154446   0.020   3.908   3.319 -0.5428 -1.4410 -0.3760
10985TIP3    H254447   0.133   3.885   3.222  2.2424  2.2828  1.8509
10986TIP3   OH254448   5.480   4.874  13.557  0.2142  0.2021  0.2860
10986TIP3    H154449   5.519   4.897  13.472 -0.5005  1.5487  0.3031
10986TIP3    H254450   5.553   4.877  13.618  0.6786 -0.4749 -0.2290
10987TIP3   OH254451   5.611   5.252  16.155  0.4351  1.1864  0.2561
10987TIP3    H154452   5.681   5.222  16.097  0.6797 -0.4528  1.3431
10987TIP3    H254453   5.540   5.190  16.142  0.0877  1.4342  0.9157
10988TIP3   OH254454   2.431   3.125   4.951 -0.3869 -0.2501  0.1582
10988TIP3    H154455   2.403   3.038   4.982  2.2798 -0.8383  1.0776
10988TIP3    H254456   2.523   3.113   4.926  0.2511  2.4681  1.0149
10989TIP3   OH254457   1.332   3.954   6.145  0.0103  0.4309 -0.7253
10989TIP3    H154458   1.275   3.898   6.198 -2.0451  1.3096 -1.9733
10989TIP3    H254459   1.396   3.988   6.208 -0.3704 -1.1476  0.5630
10990TIP3   OH254460   0.929   5.949   0.315  0.0076  0.3615 -0.0804
10990TIP3    H154461   0.873   6.026   0.328 -0.2369  0.2163 -0.2827
10990TIP3    H254462   1.017   5.980   0.339  0.2006  1.1851 -1.8194
10991TIP3   OH254463   2.199   2.076   6.787 -0.2073 -0.0063  0.3904
10991TIP3    H154464   2.181   2.157   6.739 -0.7366 -0.5662 -0.3549
10991TIP3    H254465   2.287   2.051   6.761 -0.5139 -0.3377 -0.3288
10992TIP3   OH254466   2.411   1.405  14.391  0.5243  0.2423  0.0532
10992TIP3    H154467   2.448   1.361  14.468 -1.4935  1.1996  1.6185
10992TIP3    H254468   2.338   1.350  14.365  0.6640  0.3910 -0.6682
10993TIP3   OH254469   6.692   1.438   6.676 -0.2531  0.5323 -0.2763
10993TIP3    H154470   6.756   1.375   6.643  0.3918  1.1013 -0.1250
10993TIP3    H254471   6.607   1.401   6.652 -0.0211 -1.7892  2.2151
10994TIP3   OH254472   5.136   5.161  13.309  0.4772  0.0810  0.2470
10994TIP3    H154473   5.149   5.212  13.389  3.9361  0.0113 -0.1875
10994TIP3    H254474   5.105   5.225  13.245  1.8191  1.0222  0.5178
10995TIP3   OH254475   4.075   3.564   1.102  0.0911  0.0994 -0.0950
10995TIP3    H154476   4.093   3.470   1.108  1.4249  0.2259 -1.6818
10995TIP3    H254477   4.138   3.604   1.162 -1.5747 -0.1012  1.8373
10996TIP3   OH254478   2.268   6.715  11.905  0.1319  0.1009  0.1345
10996TIP3    H154479   2.249   6.624  11.928 -1.5748  0.2171 -0.7662
10996TIP3    H254480   2.248   6.764  11.985  2.6360 -0.4677  1.1632
10997TIP3   OH254481   0.154   5.151  15.094  0.6525  0.3657 -0.0575
10997TIP3    H154482   0.089   5.220  15.082  0.1617  0.0284  0.5656
10997TIP3    H254483   0.220   5.167  15.027  0.6593  1.5677  0.2381
10998TIP3   OH254484   0.566   4.606   3.624 -0.1955 -0.6687 -0.3828
10998TIP3    H154485   0.640   4.583   3.680  0.0747  1.2521  0.0851
10998TIP3    H254486   0.548   4.698   3.644 -1.6870 -0.6562 -1.6551
10999TIP3   OH254487   3.871   1.957   2.595  0.2731  0.0960  0.0898
10999TIP3    H154488   3.850   2.027   2.533 -0.8350  1.0859  1.5546
10999TIP3    H254489   3.966   1.948   2.589  0.4019  1.5656 -0.2839
11000TIP3   OH254490   1.147   0.076  16.142 -0.5379 -0.1511 -0.9746
11000TIP3    H154491   1.213   0.100  16.206 -2.2478 -0.6045  1.0106
11000TIP3    H254492   1.109   0.159  16.114 -1.4709 -0.0768  0.4647
11001TIP3   OH254493   6.807   0.841  13.727  0.3679 -0.1868 -0.5469
11001TIP3    H154494   6.729   0.784  13.724 -1.7252  2.4989  0.5114
11001TIP3    H254495   6.841   0.830  13.816  0.3788 -0.3336 -0.5702
11002TIP3   OH254496   4.154   1.607   3.490 -0.6632  0.1997  0.9928
11002TIP3    H154497   4.193   1.592   3.577  1.2290  1.2703  0.3618
11002TIP3    H254498   4.115   1.523   3.467  1.3716 -0.9664  1.6341
11003TIP3   OH254499   2.201   0.850  15.724  0.2349 -0.0877  0.1046
11003TIP3    H154500   2.124   0.800  15.751  0.9923 -1.7402 -0.7418
11003TIP3    H254501   2.178   0.885  15.638 -0.0751  0.5865  0.4509
11004TIP3   OH254502   4.546   2.114   0.519  0.6750 -0.2682 -0.5940
11004TIP3    H154503   4.520   2.201   0.550  0.4517 -0.2694 -0.7740
11004TIP3    H254504   4.542   2.121   0.424 -1.0316 -0.9828 -0.5842
11005TIP3   OH254505   1.356   6.665   4.749  0.1590 -0.4143  0.8191
11005TIP3    H154506   1.429   6.658   4.687 -0.7773  0.3115 -0.3923
11005TIP3    H254507   1.312   6.580   4.744  0.3633 -0.5226  0.8464
11006TIP3   OH254508   4.246   5.461   1.724 -0.0134  0.5641  0.0914
11006TIP3    H154509   4.257   5.535   1.665  0.7416 -1.2804 -2.1670
11006TIP3    H254510   4.334   5.427   1.737 -0.4241 -0.3446  0.5355
11007TIP3   OH254511   1.560   3.087   2.859 -0.3531  0.2001 -0.0410
11007TIP3    H154512   1.614   3.080   2.780 -0.4744 -0.1247 -0.0976
11007TIP3    H254513   1.471   3.094   2.826 -0.5494 -1.4817  0.0901
11008TIP3   OH254514   0.682   5.685  13.931 -0.1344  0.1119 -0.3842
11008TIP3    H154515   0.652   5.635  14.007 -0.5291  0.4132 -0.3361
11008TIP3    H254516   0.678   5.623  13.859 -0.7223  0.0945 -0.3455
11009TIP3   OH254517   5.384   1.794   0.330 -0.1583 -0.7223  0.6724
11009TIP3    H154518   5.412   1.707   0.299  1.5850 -0.4962  1.5779
11009TIP3    H254519   5.401   1.852   0.256 -0.4148 -0.9679  0.4145
11010TIP3   OH254520   2.008   3.561   5.679  0.4356 -0.2005 -0.2217
11010TIP3    H154521   2.011   3.545   5.774 -0.4425 -1.9048 -0.4715
11010TIP3    H254522   2.009   3.656   5.671  2.3787 -0.0504  1.4390
11011TIP3   OH254523   0.699   6.758   2.723 -0.2977  0.3924 -0.0111
11011TIP3    H154524   0.631   6.822   2.744 -1.2151 -0.3070 -0.7754
11011TIP3    H254525   0.673   6.723   2.637  0.1699 -1.0017  0.3946
11012TIP3   OH254526   4.762   3.381   5.872 -0.2938  0.3939  0.2757
11012TIP3    H154527   4.792   3.350   5.957  1.9298  1.1031 -0.2198
11012TIP3    H254528   4.769   3.477   5.878  1.9492  0.3743 -1.3923
11013TIP3   OH254529   5.643   2.349   5.909 -0.5072  0.3971 -0.1490
11013TIP3    H154530   5.733   2.350   5.878 -0.2741 -0.8422  0.4855
11013TIP3    H254531   5.608   2.435   5.884  0.9410  1.0056 -0.1145
11014TIP3   OH254532   1.788   3.745  16.825  0.6842  0.0168  0.4151
11014TIP3    H154533   1.698   3.775  16.842  0.2637 -0.5223 -0.8050
11014TIP3    H254534   1.824   3.812  16.766  0.3859 -0.8481 -0.7600
11015TIP3   OH254535   6.590   3.202  10.278 -0.1320 -0.9758 -0.6550
11015TIP3    H154536   6.537   3.123  10.285 -1.1488 -0.1269  2.2521
11015TIP3    H254537   6.673   3.179  10.320 -1.3332  0.1381  2.5489
11016TIP3   OH254538   0.684   1.593   3.835 -0.1020  0.0189 -0.2324
11016TIP3    H154539   0.638   1.515   3.806 -0.8416  0.9951 -1.7617
11016TIP3    H254540   0.637   1.666   3.793  2.9506  1.0552 -2.0155
11017TIP3   OH254541   6.370   5.131  13.077  0.3020  0.4925  0.2553
11017TIP3    H154542   6.288   5.082  13.076  0.7277 -0.2410 -1.7998
11017TIP3    H254543   6.368   5.179  13.160 -1.8876 -0.0250  0.5452
11018TIP3   OH254544   2.069   1.819   3.336 -0.1380  0.1492  0.4082
11018TIP3    H154545   1.990   1.857   3.373  0.0008  0.9809 -0.1486
11018TIP3    H254546   2.070   1.729   3.368 -1.6458 -0.0539 -0.0966
11019TIP3   OH254547   5.306   4.455  11.985 -0.2066 -0.0315 -0.1536
11019TIP3    H154548   5.377   4.515  11.964  0.7264 -0.5786  1.3164
11019TIP3    H254549   5.272   4.488  12.069  1.3495 -2.3985  1.4923
11020TIP3   OH254550   5.389   1.902   4.143  0.0524  0.4424 -0.0893
11020TIP3    H154551   5.321   1.927   4.081 -0.9309 -0.0587  0.7837
11020TIP3    H254552   5.393   1.976   4.205  0.9190  0.8689 -0.6469
11021TIP3   OH254553   5.562   3.481  10.810  0.8118 -0.6108 -0.3185
11021TIP3    H154554   5.560   3.462  10.716  1.9402  0.9562 -0.6849
11021TIP3    H254555   5.649   3.518  10.825 -0.1211  1.1386  0.9356
11022TIP3   OH254556   3.485   2.201   4.367  0.2018  0.1808 -0.6391
11022TIP3    H154557   3.496   2.116   4.410  0.1639  0.6466  0.3046
11022TIP3    H254558   3.498   2.183   4.274 -2.1789 -1.2981 -0.7187
11023TIP3   OH254559   2.070   6.461  17.145 -0.2331  0.2806  0.1911
11023TIP3    H154560   1.978   6.489  17.138 -0.2888  1.3755  4.1712
11023TIP3    H254561   2.078   6.427  17.234  2.8536 -1.3666 -0.6501
11024TIP3   OH254562   2.360   6.734   5.114 -0.0930 -0.0499  0.0021
11024TIP3    H154563   2.402   6.761   5.196 -0.7657 -1.8649  0.9557
11024TIP3    H254564   2.404   6.653   5.089  1.1474  1.2470 -2.2796
11025TIP3   OH254565   2.999   0.642  16.169 -0.3516  0.4659 -0.0602
11025TIP3    H154566   2.983   0.736  16.179 -1.3349  0.5382 -2.0439
11025TIP3    H254567   2.972   0.622  16.079 -2.2241 -2.1089  0.9818
11026TIP3   OH254568   4.844   2.713   4.637 -0.4090 -0.0530 -0.1426
11026TIP3    H154569   4.867   2.660   4.713 -0.6190 -0.2415 -0.2106
11026TIP3    H254570   4.896   2.676   4.565  2.5262  2.3764  0.6497
11027TIP3   OH254571   5.408   1.180  14.522 -0.0594  0.0762  0.1567
11027TIP3    H154572   5.368   1.096  14.547  0.5757 -0.0668  0.7206
11027TIP3    H254573   5.386   1.190  14.430  0.7529 -1.2408 -0.1984
11028TIP3   OH254574   4.633   6.682   4.213  0.5342 -0.4274  0.1187
11028TIP3    H154575   4.619   6.639   4.297 -1.4045 -3.3266 -1.5798
11028TIP3    H254576   4.727   6.672   4.197  0.5776 -1.6601  1.0356
11029TIP3   OH254577   3.882   2.792  15.771 -0.2222 -0.2717 -0.0746
11029TIP3    H154578   3.872   2.771  15.678  1.5592  2.2253 -0.8960
11029TIP3    H254579   3.976   2.807  15.782 -0.6669  1.3770  1.7112
11030TIP3   OH254580   5.836   3.294   1.758  0.5808 -0.5189 -0.0841
11030TIP3    H154581   5.905   3.347   1.798  1.7831 -1.4781 -0.8697
11030TIP3    H254582   5.758   3.349   1.764  1.3982  0.5645  0.8475
11031TIP3   OH254583   6.434   2.687  15.767  0.7165 -0.3366  0.5492
11031TIP3    H154584   6.361   2.626  15.756  0.0765  0.3373  1.0035
11031TIP3    H254585   6.485   2.678  15.686  0.0770 -0.7388  0.1852
11032TIP3   OH254586   1.636   6.593   1.611  0.0681  0.2663  0.2177
11032TIP3    H154587   1.683   6.549   1.540  1.5826 -0.6421  1.7201
11032TIP3    H254588   1.545   6.564   1.602  0.3688 -0.3314 -0.9812
11033TIP3   OH254589   6.029   4.230  16.510  0.1500 -0.4626 -0.2702
11033TIP3    H154590   6.028   4.325  16.513  0.2782 -0.4907  0.8203
11033TIP3    H254591   5.943   4.204  16.543  0.9473 -0.7676  1.6063
11034TIP3   OH254592   5.748   3.905  13.838  0.0964 -0.2504 -0.4126
11034TIP3    H154593   5.704   3.836  13.888  0.4661 -0.2187 -0.0376
11034TIP3    H254594   5.726   3.985  13.885 -1.5049  0.0774 -1.6458
11035TIP3   OH254595   3.045   3.395  13.395  0.5750 -0.0712  0.6071
11035TIP3    H154596   3.021   3.310  13.431 -0.8167  0.1370  0.1773
11035TIP3    H254597   3.099   3.435  13.463  2.0926 -1.7027  0.3935
11036TIP3   OH254598   3.423   3.031   0.932 -0.4243  0.1763  0.4420
11036TIP3    H154599   3.400   2.941   0.955  0.5115  0.0651  0.9579
11036TIP3    H254600   3.405   3.037   0.838  2.5438 -1.5168 -0.3187
11037TIP3   OH254601   3.136   1.984  16.130 -0.3972 -0.5251 -0.0189
11037TIP3    H154602   3.100   2.069  16.155 -0.0009 -0.7028  1.2107
11037TIP3    H254603   3.191   2.002  16.055  0.5444  0.4938  0.8951
11038TIP3   OH254604   2.867   3.255   3.540  0.0269  0.3648 -0.2826
11038TIP3    H154605   2.937   3.262   3.605 -1.6777 -0.0363  1.6548
11038TIP3    H254606   2.882   3.327   3.479  1.9989  0.3908  0.2245
11039TIP3   OH254607   5.657   3.622  13.247  0.2472 -0.8407 -0.5377
11039TIP3    H154608   5.650   3.703  13.297  0.6721 -0.9953 -0.2313
11039TIP3    H254609   5.566   3.595  13.232  0.1114 -0.4660 -0.3902
11040TIP3   OH254610   2.840   5.127  12.103 -0.4171 -0.2248 -0.4797
11040TIP3    H154611   2.854   5.219  12.123 -1.0199 -0.1850 -0.2215
11040TIP3    H254612   2.928   5.091  12.090 -0.0341 -0.0815  1.5093
11041TIP3   OH254613   5.641   0.770   4.103 -0.3270  0.4579 -0.2520
11041TIP3    H154614   5.551   0.796   4.123 -0.9179  0.4123 -2.6960
11041TIP3    H254615   5.638   0.674   4.104  0.7383  0.3899  3.9623
11042TIP3   OH254616   1.858   6.282  15.929  0.4885 -0.4156  0.5577
11042TIP3    H154617   1.945   6.309  15.899  0.2425  0.0132  0.2195
11042TIP3    H254618   1.820   6.362  15.966 -0.3591 -0.2070 -0.7205
11043TIP3   OH254619   3.376   3.205   5.494 -0.4117 -0.4931 -0.3716
11043TIP3    H154620   3.415   3.199   5.581 -1.7294  0.6195  0.3060
11043TIP3    H254621   3.449   3.231   5.437  0.2990 -0.5303  0.5042
11044TIP3   OH254622   1.404   2.762   4.173 -0.0495  0.1891  0.0257
11044TIP3    H154623   1.456   2.730   4.247 -0.7284  1.0396  0.8770
11044TIP3    H254624   1.454   2.736   4.096  1.4572  0.6877  0.8247
11045TIP3   OH254625   4.718   1.978   4.102  0.3148  0.2213 -0.3506
11045TIP3    H154626   4.690   1.889   4.080 -0.5470 -0.2810  2.4935
11045TIP3    H254627   4.637   2.024   4.125  0.8837  1.3646 -0.6196
11046TIP3   OH254628   3.960   0.078   1.364  0.1684 -0.4396  0.1712
11046TIP3    H154629   4.000   0.005   1.316 -0.2556 -0.0873 -0.7350
11046TIP3    H254630   4.034   0.122   1.406  0.3915 -1.5663  0.9708
11047TIP3   OH254631   5.510   0.542   4.483  0.0238 -0.2891 -0.0060
11047TIP3    H154632   5.605   0.534   4.496 -0.1774 -3.8822 -0.0087
11047TIP3    H254633   5.493   0.487   4.406 -1.8777  1.5032 -0.8878
11048TIP3   OH254634   1.606   6.065   0.626 -0.7570  0.1680  0.0605
11048TIP3    H154635   1.629   6.006   0.554 -3.7601 -1.6909  0.5497
11048TIP3    H254636   1.619   6.153   0.590  2.2227 -0.7262 -1.2075
11049TIP3   OH254637   1.258   3.480   4.903  0.3189 -0.4877 -0.2650
11049TIP3    H154638   1.208   3.562   4.908  2.3625  0.8656 -1.5643
11049TIP3    H254639   1.288   3.465   4.993 -2.2382 -1.2675  0.5285
11050TIP3   OH254640   5.922   4.535  10.865 -0.4345  0.5467  0.0863
11050TIP3    H154641   5.987   4.604  10.882  0.3375 -0.4270  1.2076
11050TIP3    H254642   5.932   4.515  10.772  3.0524 -1.7278  0.8675
11051TIP3   OH254643   5.978   2.840  13.960  0.2594 -0.7213 -0.2026
11051TIP3    H154644   6.067   2.870  13.977 -0.6747  1.1997  1.5440
11051TIP3    H254645   5.956   2.878  13.875  0.1294  1.1675  0.6567
11052TIP3   OH254646   3.042   5.544  16.184 -0.2579 -0.5461  0.0105
11052TIP3    H154647   2.983   5.620  16.182  2.7767  1.9482  0.8213
11052TIP3    H254648   3.049   5.522  16.277 -0.2855 -1.1741 -0.1323
11053TIP3   OH254649   5.647   1.371   5.877 -0.3839 -0.7634  0.1602
11053TIP3    H154650   5.564   1.325   5.893 -1.2653  0.5389 -0.5839
11053TIP3    H254651   5.627   1.463   5.895  1.5207 -0.7183  2.2014
11054TIP3   OH254652   3.321   3.747   0.799 -0.0419 -0.3383  0.0118
11054TIP3    H154653   3.239   3.711   0.765 -1.0395 -1.1737  3.1833
11054TIP3    H254654   3.324   3.836   0.764 -2.3172 -0.2852 -0.1335
11055TIP3   OH254655   6.768   0.485  11.747  0.6076 -0.0213 -0.0250
11055TIP3    H154656   6.772   0.569  11.702 -0.6186 -0.1762 -0.4443
11055TIP3    H254657   6.694   0.439  11.707  0.5817 -0.8625  0.9401
11056TIP3   OH254658   0.047   4.706   0.875 -0.5179  0.3454 -0.2418
11056TIP3    H154659   0.047   4.698   0.780  2.9316  0.9751 -0.3571
11056TIP3    H254660   0.098   4.631   0.906  0.1456  1.2676  0.9690
11057TIP3   OH254661   6.616   2.980   5.299 -0.3718  0.2444 -0.0496
11057TIP3    H154662   6.562   2.916   5.252 -0.4134  0.4845 -0.3277
11057TIP3    H254663   6.679   2.927   5.347 -0.7866 -0.0342  0.1924
11058TIP3   OH254664   1.250   5.730  11.937  0.4748  0.0670  0.0713
11058TIP3    H154665   1.305   5.790  11.887  1.3311 -1.8896 -1.3744
11058TIP3    H254666   1.265   5.755  12.028  1.2774  1.6394 -0.4634
11059TIP3   OH254667   3.589   0.295  15.940 -0.1092  0.1842  0.5507
11059TIP3    H154668   3.656   0.237  15.975 -0.8735 -1.9197 -1.3503
11059TIP3    H254669   3.631   0.339  15.866 -0.4710 -0.2895  0.0597
11060TIP3   OH254670   4.690   2.583   4.369 -0.2713 -0.2744 -0.1756
11060TIP3    H154671   4.629   2.572   4.296  0.4650  0.4620 -0.9054
11060TIP3    H254672   4.641   2.554   4.446 -1.7197  0.8026 -0.6812
11061TIP3   OH254673   2.512   6.213   0.952 -0.2448 -0.3302  0.3547
11061TIP3    H154674   2.478   6.250   1.033  1.0981  2.1940 -0.1885
11061TIP3    H254675   2.446   6.149   0.925 -1.6479  0.2262  2.3800
11062TIP3   OH254676   5.811   2.955   3.646 -0.1847  0.1508 -0.7520
11062TIP3    H154677   5.901   2.964   3.614  0.0952 -1.3047 -0.4273
11062TIP3    H254678   5.756   2.987   3.574  0.5487 -0.2197 -1.4842
11063TIP3   OH254679   6.409   0.590  16.191  0.0826  0.0351  0.3933
11063TIP3    H154680   6.380   0.511  16.145  1.5429 -0.6254  0.5772
11063TIP3    H254681   6.355   0.660  16.154  0.2247 -0.7111 -1.2850
11064TIP3   OH254682   0.713   3.590  13.191 -0.1260 -0.3942 -0.0569
11064TIP3    H154683   0.738   3.682  13.199  0.0629 -0.4999  0.6126
11064TIP3    H254684   0.624   3.586  13.226  0.6840 -0.8512  2.0189
11065TIP3   OH254685   3.110   3.305   4.689 -0.2106  0.0356 -0.0814
11065TIP3    H154686   3.044   3.236   4.689 -0.8617  0.6555 -0.5556
11065TIP3    H254687   3.179   3.272   4.632  0.1704 -0.8657  0.8736
11066TIP3   OH254688   3.709   4.907  12.309 -0.3244 -0.0092 -0.3053
11066TIP3    H154689   3.687   4.937  12.397 -0.3584  0.3919 -0.4498
11066TIP3    H254690   3.639   4.941  12.253  0.3052  0.7177 -0.6642
11067TIP3   OH254691   6.592   3.423   1.169  0.3441  0.3223 -0.0961
11067TIP3    H154692   6.591   3.386   1.081 -0.8900  0.5629 -0.1854
11067TIP3    H254693   6.505   3.403   1.205  1.3691 -1.1777  1.6480
11068TIP3   OH254694   1.550   6.105   0.267 -0.3695 -0.4936 -0.0726
11068TIP3    H154695   1.544   6.197   0.241 -2.2952 -0.0611  1.7227
11068TIP3    H254696   1.508   6.057   0.195  0.5674  0.0110 -0.9750
11069TIP3   OH254697   0.930   5.057   1.283 -0.4656  0.1950  0.3001
11069TIP3    H154698   0.843   5.038   1.247 -0.6934 -1.0236  1.4373
11069TIP3    H254699   0.991   5.034   1.212 -1.0828  1.7050 -0.7478
11070TIP3   OH254700   4.805   1.374  15.995  0.0451 -0.0188 -0.6810
11070TIP3    H154701   4.809   1.469  15.990 -0.2108 -0.0262 -1.0789
11070TIP3    H254702   4.886   1.349  16.040 -0.1857  0.4169 -0.0193
11071TIP3   OH254703   6.423   4.605   4.989  0.0983  0.0665 -0.4487
11071TIP3    H154704   6.501   4.625   4.937  0.7497  0.7018  0.7656
11071TIP3    H254705   6.349   4.627   4.931  0.8113  0.2770 -1.2854
11072TIP3   OH254706   0.186   0.892   6.238 -0.4186 -0.3078  0.0013
11072TIP3    H154707   0.276   0.869   6.263  0.0259  0.3563 -0.9653
11072TIP3    H254708   0.150   0.933   6.316 -0.6145 -2.5363  1.1379
11073TIP3   OH254709   5.133   1.869   4.651 -0.2944 -0.0885  0.6866
11073TIP3    H154710   5.090   1.907   4.728 -0.5041  1.1911 -0.0464
11073TIP3    H254711   5.120   1.934   4.582 -0.9660 -1.6510 -0.7053
11074TIP3   OH254712   3.947   2.248  12.210  0.1374 -0.9122  0.0284
11074TIP3    H154713   3.957   2.154  12.226 -0.5617 -1.0877 -0.5504
11074TIP3    H254714   3.910   2.254  12.122 -0.7962 -0.1317  0.4606
11075TIP3   OH254715   6.606   0.777   5.395 -0.0974 -0.0051  0.0501
11075TIP3    H154716   6.684   0.798   5.344 -0.6289 -0.9543 -1.1823
11075TIP3    H254717   6.632   0.791   5.486  1.4061  0.0099 -0.3750
11076TIP3   OH254718   3.510   2.875   6.717  0.1477  0.0293 -0.0259
11076TIP3    H154719   3.517   2.844   6.807  1.4771 -0.6798 -0.3684
11076TIP3    H254720   3.505   2.970   6.724 -1.1908 -0.0957  0.8735
11077TIP3   OH254721   5.199   4.536  12.233  0.3879 -0.0485 -0.4335
11077TIP3    H154722   5.217   4.625  12.265 -0.3659  0.2850 -0.9371
11077TIP3    H254723   5.105   4.534  12.218  0.7285 -0.1901 -2.7049
11078TIP3   OH254724   5.688   3.423   5.247  0.1162  0.4393  0.4180
11078TIP3    H154725   5.760   3.378   5.291 -0.1718  0.0037  0.4485
11078TIP3    H254726   5.644   3.471   5.317 -1.4705 -1.7349  0.9746
11079TIP3   OH254727   1.436   3.206   2.420 -0.6427  0.0914 -0.2919
11079TIP3    H154728   1.481   3.187   2.337 -0.1265  2.3259 -0.5373
11079TIP3    H254729   1.434   3.121   2.465  1.0531 -0.6929 -1.6185
11080TIP3   OH254730   5.783   6.175  16.924  0.1645  0.0899  0.2125
11080TIP3    H154731   5.736   6.258  16.915 -2.5251 -1.4469 -0.1737
11080TIP3    H254732   5.821   6.179  17.012  0.8246  2.0708 -0.1197
11081TIP3   OH254733   4.624   2.849  13.889 -0.1017  0.5184  0.5578
11081TIP3    H154734   4.597   2.765  13.853 -0.7779 -0.4694  3.2707
11081TIP3    H254735   4.671   2.892  13.817  0.4258 -2.2349 -0.8042
11082TIP3   OH254736   5.676   3.747   5.887  0.0567 -0.3111 -0.5720
11082TIP3    H154737   5.700   3.820   5.829 -1.1102  0.1373 -0.5145
11082TIP3    H254738   5.755   3.693   5.892  1.1901  1.3527  0.0164
11083TIP3   OH254739   5.070   0.977  14.223  0.4538 -0.0064  0.8505
11083TIP3    H154740   5.062   0.921  14.146  1.1113  0.2790  0.5772
11083TIP3    H254741   5.075   0.915  14.296 -3.1925 -0.2578  0.9935
11084TIP3   OH254742   2.187   2.139   1.199  0.0283 -0.3126 -0.1239
11084TIP3    H154743   2.091   2.131   1.195  0.1046 -1.3292  0.0786
11084TIP3    H254744   2.205   2.225   1.160 -0.9200 -0.4123 -0.8142
11085TIP3   OH254745   2.447   0.970   2.053  0.1769 -0.1075  0.1952
11085TIP3    H154746   2.514   0.967   1.984  1.4116 -0.1120  1.3670
11085TIP3    H254747   2.463   0.892   2.105 -0.7573 -0.1099  0.4799
11086TIP3   OH254748   1.143   3.376  11.088  0.1228  0.2943  0.1682
11086TIP3    H154749   1.120   3.288  11.057  0.0378  0.3045  0.2033
11086TIP3    H254750   1.232   3.389  11.057  0.8618 -0.5825  1.8414
11087TIP3   OH254751   3.077   0.319  14.185 -0.0888  0.4481  0.0000
11087TIP3    H154752   3.116   0.355  14.264  0.5853 -0.0724 -0.0835
11087TIP3    H254753   3.042   0.234  14.213  1.4476 -0.4013 -0.5596
11088TIP3   OH254754   5.422   3.632  16.844 -0.1247 -0.3846  0.7331
11088TIP3    H154755   5.355   3.575  16.806  0.4706 -0.3377 -0.4146
11088TIP3    H254756   5.446   3.590  16.926 -0.1050 -1.4896  0.1671
11089TIP3   OH254757   3.904   5.167  10.937  0.1188 -0.1811 -0.2195
11089TIP3    H154758   3.972   5.155  10.870 -0.0600 -2.3282 -0.0636
11089TIP3    H254759   3.822   5.160  10.888 -0.0009  0.6260 -0.1327
11090TIP3   OH254760   0.094   6.360   2.690  0.5196 -0.5520  0.1086
11090TIP3    H154761   0.022   6.342   2.629 -0.5144  0.3776  1.0328
11090TIP3    H254762   0.079   6.300   2.763 -0.8763  1.4675  1.5357
11091TIP3   OH254763   1.636   4.614   3.520  0.8845  0.7230 -0.0615
11091TIP3    H154764   1.546   4.613   3.554  1.0246  1.1278  0.3145
11091TIP3    H254765   1.625   4.622   3.425  0.5032 -0.0839 -0.0984
11092TIP3   OH254766   0.620   0.196   0.410  0.5342  0.3117  0.5805
11092TIP3    H154767   0.592   0.224   0.497 -0.6753  1.5740 -0.1946
11092TIP3    H254768   0.633   0.278   0.361  0.1740 -0.3959 -0.7370
11093TIP3   OH254769   1.892   1.751  15.186 -1.0456 -0.0116  0.0995
11093TIP3    H154770   1.841   1.783  15.260 -0.9275 -0.2509  0.2869
11093TIP3    H254771   1.919   1.663  15.213  0.7992  0.6993  0.6624
11094TIP3   OH254772   2.846   1.710   4.967 -0.8797 -0.6283  0.4601
11094TIP3    H154773   2.856   1.708   5.062  1.0431  1.6438  0.3612
11094TIP3    H254774   2.774   1.771   4.952 -0.0310  0.3695  0.4109
11095TIP3   OH254775   4.716   5.848  16.221 -1.0824 -0.2798  1.4583
11095TIP3    H154776   4.623   5.873  16.221 -1.4694 -1.6873  0.2187
11095TIP3    H254777   4.737   5.835  16.129  0.7809  1.5146  1.5909
11096TIP3   OH254778   4.650   4.935   5.721  0.0927  0.0491  0.2835
11096TIP3    H154779   4.640   4.957   5.628  2.9298 -0.8628 -0.2959
11096TIP3    H254780   4.638   4.840   5.725  0.4746  0.0191  0.7674
11097TIP3   OH254781   6.809   5.288  16.984 -0.1735 -0.4687  0.2763
11097TIP3    H154782   6.891   5.320  16.948  0.0442  0.3371  1.4680
11097TIP3    H254783   6.794   5.341  17.062 -2.7678  0.6509 -0.9174
11098TIP3   OH254784   0.219   0.204  14.214  0.2923  0.2475  0.2416
11098TIP3    H154785   0.213   0.142  14.287 -0.8960 -0.9560 -0.8479
11098TIP3    H254786   0.310   0.197  14.185  1.0669  1.5267  2.2536
11099TIP3   OH254787   5.120   1.880   0.138  0.6293  0.1408 -0.0441
11099TIP3    H154788   5.122   1.853   0.046  2.1412 -3.2260  0.8745
11099TIP3    H254789   5.207   1.918   0.153  0.2901  0.9248 -0.0849
11100TIP3   OH254790   4.551   0.595   6.041  0.4157 -0.0410  0.2970
11100TIP3    H154791   4.560   0.690   6.048 -1.3407  0.1039  0.9090
11100TIP3    H254792   4.503   0.570   6.120  1.0744 -1.4842  0.2678
11101TIP3   OH254793   6.568   1.149   4.950  0.0276 -0.2037 -0.7413
11101TIP3    H154794   6.550   1.103   5.031  0.4768 -1.0057 -1.0929
11101TIP3    H254795   6.492   1.205   4.936  0.0126  0.0479  0.3014
11102TIP3   OH254796   5.537   0.505  12.902 -0.0200  0.8805  0.4061
11102TIP3    H154797   5.498   0.452  12.972 -0.8253  1.7174  0.6065
11102TIP3    H254798   5.628   0.515  12.928 -0.5682  2.1405  1.9365
11103TIP3   OH254799   0.334   0.911  15.393  0.0701  0.4514  0.2118
11103TIP3    H154800   0.357   1.002  15.408 -0.0269  0.1879  2.0131
11103TIP3    H254801   0.371   0.864  15.467 -1.0446 -0.7958 -0.0074
11104TIP3   OH254802   6.417   3.690  12.168  0.0665 -0.2654  0.0845
11104TIP3    H154803   6.429   3.738  12.249  1.3905 -0.7383  0.1761
11104TIP3    H254804   6.478   3.730  12.106 -0.1375 -0.6243 -0.3577
11105TIP3   OH254805   5.923   6.380  12.883 -0.6615  0.9222  0.9890
11105TIP3    H154806   5.855   6.313  12.888 -0.7600  0.7469 -1.7452
11105TIP3    H254807   5.923   6.421  12.970 -3.2546 -0.0404  1.5016
11106TIP3   OH254808   6.790   2.202   0.017  0.9405  0.0319  0.2487
11106TIP3    H154809   6.856   2.260  -0.021  0.7135  0.0854 -0.0711
11106TIP3    H254810   6.823   2.114  -0.001  1.4250  0.0608  0.9816
11107TIP3   OH254811   4.922   0.486  15.503 -0.3329 -0.5356  0.0034
11107TIP3    H154812   4.991   0.425  15.479 -1.2700 -1.1634 -1.1631
11107TIP3    H254813   4.858   0.480  15.431 -0.7528  1.3297  0.1934
11108TIP3   OH254814   0.580   5.143  12.884  0.0960  0.5327 -0.0759
11108TIP3    H154815   0.496   5.183  12.905  0.8706  1.1975  1.8457
11108TIP3    H254816   0.560   5.051  12.869 -1.1385  0.9109 -0.8376
11109TIP3   OH254817   2.503   4.760  11.396 -0.9735  0.5159 -0.0685
11109TIP3    H154818   2.461   4.828  11.344 -1.1734  0.1063 -0.4379
11109TIP3    H254819   2.509   4.685  11.338  0.4261  0.6189 -0.0838
11110TIP3   OH254820   4.302   2.153   2.017  0.0484 -0.3165 -0.2884
11110TIP3    H154821   4.360   2.151   1.941  0.5902 -0.8853  0.1376
11110TIP3    H254822   4.306   2.244   2.046 -1.7339  0.3919 -2.1210
11111TIP3   OH254823   6.154   0.502   2.253  0.5163 -0.1783  0.1589
11111TIP3    H154824   6.215   0.513   2.180  0.0880  3.6050  0.2379
11111TIP3    H254825   6.208   0.507   2.332  0.5140 -0.0357  0.1532
11112TIP3   OH254826   3.872   4.367  16.238  0.7517 -0.0965 -0.3668
11112TIP3    H154827   3.856   4.354  16.331 -1.2808 -0.0858 -0.6874
11112TIP3    H254828   3.872   4.279  16.200 -0.3484  0.0140 -0.6365
11113TIP3   OH254829   5.124   5.767  14.295 -0.1032 -0.3524  0.1598
11113TIP3    H154830   5.117   5.827  14.220 -1.7885 -0.3780  0.2751
11113TIP3    H254831   5.153   5.684  14.256  0.0668 -0.0757 -0.3161
11114TIP3   OH254832   5.185   0.677   3.489 -0.0202 -0.0096 -0.1353
11114TIP3    H154833   5.172   0.771   3.500 -0.7895  0.0918 -1.8791
11114TIP3    H254834   5.253   0.670   3.422  2.5795 -0.6713  2.4635
11115TIP3   OH254835   1.429   2.740   2.795  0.3196 -0.0988 -0.3664
11115TIP3    H154836   1.446   2.656   2.752 -0.1164 -0.5513  0.3279
11115TIP3    H254837   1.347   2.771   2.755 -0.1588 -0.5850  0.2235
11116TIP3   OH254838   5.175   3.773  12.126 -0.4161  0.0929  0.0666
11116TIP3    H154839   5.218   3.846  12.082  0.0186 -0.6510 -0.7569
11116TIP3    H254840   5.102   3.750  12.069 -0.6774  0.0219  0.4296
11117TIP3   OH254841   1.161   3.373   3.963  0.1054 -0.2444 -1.1176
11117TIP3    H154842   1.239   3.320   3.951  0.7306  0.6532 -1.0793
11117TIP3    H254843   1.126   3.384   3.875 -0.9166 -2.0277 -0.9564
11118TIP3   OH254844   0.251   5.636  16.708 -0.1171 -0.4517 -0.0295
11118TIP3    H154845   0.210   5.552  16.726 -0.5965 -0.1460  0.3398
11118TIP3    H254846   0.179   5.693  16.681  0.2136 -0.1856 -0.3541
11119TIP3   OH254847   1.927   1.699  13.278 -0.0050  0.0317 -0.1850
11119TIP3    H154848   1.981   1.746  13.341 -0.4808 -1.5116  1.4282
11119TIP3    H254849   1.907   1.763  13.210  1.2932  1.4684  0.7680
11120TIP3   OH254850   2.877   6.530   2.708  0.0520  0.0175 -0.5476
11120TIP3    H154851   2.898   6.586   2.634 -2.2594  0.5116 -0.8537
11120TIP3    H254852   2.917   6.574   2.783 -2.0972  2.3652 -0.7128
11121TIP3   OH254853   0.599   3.190  16.087  0.4597 -0.4180  0.9858
11121TIP3    H154854   0.668   3.213  16.024  0.4353 -0.4014  0.9641
11121TIP3    H254855   0.552   3.272  16.102  0.3021 -0.4770  0.8265
11122TIP3   OH254856   0.647   0.463   3.065 -0.0607 -0.0866  0.4670
11122TIP3    H154857   0.561   0.466   3.024  0.1131 -0.9908  0.0339
11122TIP3    H254858   0.662   0.371   3.084 -0.2613  0.3513  2.8578
11123TIP3   OH254859   5.211   5.531  13.105  0.0050  0.7261  0.6469
11123TIP3    H154860   5.262   5.598  13.151  1.3410  0.7358 -0.8207
11123TIP3    H254861   5.125   5.572  13.091  0.5636  1.8357  0.4565
11124TIP3   OH254862   4.512   6.268  11.139  0.2980 -0.2050 -0.3713
11124TIP3    H154863   4.591   6.225  11.172 -0.4485 -0.4255  1.1779
11124TIP3    H254864   4.516   6.356  11.177  0.3647  0.1443 -1.1912
11125TIP3   OH254865   6.170   1.705  12.822  0.5987  0.2319  0.0919
11125TIP3    H154866   6.121   1.652  12.759  0.8673 -0.2100  0.2522
11125TIP3    H254867   6.113   1.780  12.839  0.6889  0.5521 -0.9694
11126TIP3   OH254868   4.101   5.967   5.803  0.2289 -0.0407 -0.2889
11126TIP3    H154869   4.091   5.921   5.719 -0.5507 -0.4561  0.0362
11126TIP3    H254870   4.080   5.902   5.869  3.1682 -0.4227  0.3630
11127TIP3   OH254871   3.036   6.429  15.232  0.1978  0.0301  0.3227
11127TIP3    H154872   3.073   6.496  15.290 -1.0744  1.7157 -0.7437
11127TIP3    H254873   3.096   6.355  15.240  0.8018  0.7265  2.7012
11128TIP3   OH254874   1.627   1.055   0.935 -0.2941 -0.0822  0.4212
11128TIP3    H154875   1.619   1.117   1.008  1.0837 -0.5613  0.9964
11128TIP3    H254876   1.674   1.104   0.867 -1.4129  0.3033 -0.0880
11129TIP3   OH254877   2.294   1.411  17.240 -0.0243 -0.4882  1.0775
11129TIP3    H154878   2.308   1.502  17.266  0.7586 -1.1769  3.1379
11129TIP3    H254879   2.358   1.361  17.290  0.8942 -1.9887 -1.5019
11130TIP3   OH254880   3.175   0.092  12.094 -0.4754 -0.0685 -0.6787
11130TIP3    H154881   3.113   0.133  12.034 -0.4811 -0.9103 -1.2521
11130TIP3    H254882   3.231   0.164  12.124  1.3583 -0.1208 -3.8801
11131TIP3   OH254883   3.372   2.663  11.205 -0.7243  0.1658  0.3826
11131TIP3    H154884   3.366   2.601  11.278  1.1284 -0.4028  0.0773
11131TIP3    H254885   3.381   2.608  11.127 -0.7874  0.8051 -0.0797
11132TIP3   OH254886   3.047   1.886  14.175 -0.1852 -0.0334 -0.0357
11132TIP3    H154887   3.078   1.972  14.203  0.9928  0.1397 -1.8050
11132TIP3    H254888   3.118   1.826  14.198 -0.1825 -0.2244 -0.5180
11133TIP3   OH254889   6.532   3.439  12.114  0.2050 -0.3495  0.4524
11133TIP3    H154890   6.516   3.466  12.023 -1.2515 -1.6059  0.3248
11133TIP3    H254891   6.504   3.515  12.166  2.3796  0.9406 -0.1704
11134TIP3   OH254892   3.475   0.635   2.422 -0.2194 -0.4803  0.1496
11134TIP3    H154893   3.526   0.705   2.382 -1.1391 -0.2864 -0.7037
11134TIP3    H254894   3.535   0.592   2.482  0.8913 -0.1454 -0.7174
11135TIP3   OH254895   4.352   6.169  16.682  0.3967 -0.0651  0.3236
11135TIP3    H154896   4.413   6.096  16.676  1.1394  0.5513  0.2402
11135TIP3    H254897   4.335   6.194  16.591  0.1739 -0.1122  0.3502
11136TIP3   OH254898   3.212   4.444   2.692  0.2721 -0.7334  0.6112
11136TIP3    H154899   3.253   4.429   2.606  2.2031 -1.1274  1.5624
11136TIP3    H254900   3.178   4.358   2.717  0.8013 -0.8935  0.7841
11137TIP3   OH254901   5.990   5.107   3.597 -0.0249  0.3155 -0.3561
11137TIP3    H154902   6.063   5.168   3.611 -1.0081  1.3909  0.1758
11137TIP3    H254903   6.000   5.078   3.507  2.0454 -0.8599  0.2197
11138TIP3   OH254904   2.772   1.683   3.131  0.0644  0.4826  0.3265
11138TIP3    H154905   2.756   1.744   3.203  0.3926  0.4360  0.4419
11138TIP3    H254906   2.861   1.703   3.102 -0.2555  0.8481 -0.4072
11139TIP3   OH254907   2.209   6.187   4.152  0.7387  0.0188 -0.3931
11139TIP3    H154908   2.215   6.275   4.189  1.8864  0.2145 -1.0299
11139TIP3    H254909   2.115   6.176   4.133  0.6217  1.2050 -0.5506
11140TIP3   OH254910   2.078   4.346   5.604  0.2789  0.0883  0.5993
11140TIP3    H154911   2.168   4.331   5.573  0.0289  0.7074 -0.4396
11140TIP3    H254912   2.089   4.385   5.691  1.0598  1.5829 -0.1431
11141TIP3   OH254913   3.631   1.417  14.382 -0.1118  0.4356 -0.2620
11141TIP3    H154914   3.638   1.322  14.377 -0.7876  0.3502  0.2990
11141TIP3    H254915   3.706   1.444  14.434 -0.9673  0.0192  1.2279
11142TIP3   OH254916   0.996   0.927   5.228  0.1631  0.1483 -0.3564
11142TIP3    H154917   0.996   0.993   5.158  1.4138 -0.4584 -0.9472
11142TIP3    H254918   0.906   0.893   5.229  0.2485 -0.1733 -1.9917
11143TIP3   OH254919   5.938   1.988  16.110 -0.2093  0.4456 -0.2469
11143TIP3    H154920   5.844   1.983  16.093 -0.0783  0.6251 -1.0617
11143TIP3    H254921   5.971   1.901  16.085 -0.1990  0.2837  0.3216
11144TIP3   OH254922   6.579   3.716  16.817 -0.1253 -0.1743  0.6871
11144TIP3    H154923   6.554   3.655  16.747 -0.8660 -0.4355  1.1652
11144TIP3    H254924   6.532   3.797  16.796  1.4102  0.4723 -0.3332
11145TIP3   OH254925   3.037   0.349  12.171  0.2183 -0.3674  0.0389
11145TIP3    H154926   3.053   0.429  12.220 -0.0923  0.1647 -0.7231
11145TIP3    H254927   2.989   0.292  12.232 -0.3831  0.3772  0.2617
11146TIP3   OH254928   5.626   0.307  11.049  0.3092 -0.2807 -0.3978
11146TIP3    H154929   5.574   0.299  11.129  1.8996  0.0308  0.6827
11146TIP3    H254930   5.573   0.363  10.992 -0.7347 -0.3163  0.5106
11147TIP3   OH254931   0.741   3.248   1.045  0.2080 -0.1039 -0.0156
11147TIP3    H154932   0.772   3.338   1.052 -0.7106  0.2720 -0.6281
11147TIP3    H254933   0.645   3.256   1.048 -0.0234 -0.7282 -3.5246
11148TIP3   OH254934   5.621   5.956  13.992 -0.1129 -0.5192  0.4601
11148TIP3    H154935   5.666   5.888  13.942  0.5204 -0.5742  1.0950
11148TIP3    H254936   5.692   6.005  14.033 -0.5345  0.9015 -0.4677
11149TIP3   OH254937   1.616   4.036   2.590  0.4761  0.6987  0.3381
11149TIP3    H154938   1.705   4.023   2.555 -0.3576 -0.8147 -1.3126
11149TIP3    H254939   1.603   4.131   2.586  1.2843  0.7634 -1.3032
11150TIP3   OH254940   0.676   5.157   3.484 -0.1816  0.3361 -0.1207
11150TIP3    H154941   0.769   5.157   3.507  0.1861  1.1706 -1.5120
11150TIP3    H254942   0.676   5.157   3.388 -1.6133  0.9378 -0.1238
11151TIP3   OH254943   5.377   6.243   5.918  0.4035  0.4858 -0.0589
11151TIP3    H154944   5.403   6.232   6.009 -0.9659 -0.7940  0.2001
11151TIP3    H254945   5.368   6.153   5.884 -2.6470  0.8392 -0.3787
11152TIP3   OH254946   4.940   2.484   5.503  0.7359 -0.1995  0.1371
11152TIP3    H154947   4.899   2.400   5.482  2.7173 -0.5649 -2.5579
11152TIP3    H254948   4.982   2.470   5.588 -1.4268 -0.9832  1.1145
11153TIP3   OH254949   3.164   5.141  15.953  0.5966  0.1209 -0.2925
11153TIP3    H154950   3.126   5.166  16.037 -1.0410 -0.3262 -0.8751
11153TIP3    H254951   3.146   5.215  15.895  1.5589  0.3511 -0.3039
11154TIP3   OH254952   3.143   4.642   3.826  0.4107  0.2870 -0.6259
11154TIP3    H154953   3.120   4.563   3.875  2.1853  0.2347  0.1632
11154TIP3    H254954   3.080   4.644   3.754 -2.3610  0.4491  1.6721
11155TIP3   OH254955   4.755   2.517   2.208  0.0387  0.5458 -0.3938
11155TIP3    H154956   4.730   2.482   2.294  0.5508  0.3857 -0.3100
11155TIP3    H254957   4.679   2.570   2.181 -0.4216  0.0034 -0.1743
11156TIP3   OH254958   6.571   2.141   3.191  0.2250  0.5059  0.3272
11156TIP3    H154959   6.491   2.189   3.210 -0.5798 -1.3282  1.7533
11156TIP3    H254960   6.543   2.073   3.129  0.6102 -0.3376  1.0734
11157TIP3   OH254961   0.421   3.437  16.157  0.3992  0.5867 -0.2176
11157TIP3    H154962   0.354   3.501  16.132  1.7806  1.8082 -0.8863
11157TIP3    H254963   0.384   3.392  16.233 -0.5142  2.3186  0.3935
11158TIP3   OH254964   2.536   2.534  15.293  0.5649 -0.1712  0.4754
11158TIP3    H154965   2.561   2.534  15.385  0.7101 -0.8135  0.4429
11158TIP3    H254966   2.540   2.441  15.268 -3.4763 -0.5349  0.8929
11159TIP3   OH254967   3.858   4.046  13.184 -0.4748 -0.2214 -0.4938
11159TIP3    H154968   3.795   4.016  13.119 -0.6351  2.2362 -1.5130
11159TIP3    H254969   3.805   4.090  13.250 -0.2408 -2.1214  1.0193
11160TIP3   OH254970   3.244   6.143   0.033  0.2113 -0.1187  0.0118
11160TIP3    H154971   3.209   6.124  -0.053  0.8843  0.3735 -0.3809
11160TIP3    H254972   3.188   6.214   0.066 -0.5738 -0.8864  0.3344
11161TIP3   OH254973   2.348   6.032   1.899 -0.5420  0.2307  0.1034
11161TIP3    H154974   2.442   6.011   1.899 -0.1564  1.7260 -1.8198
11161TIP3    H254975   2.307   5.959   1.945  1.4677 -0.9756  0.0614
11162TIP3   OH254976   1.230   0.099   5.903 -0.4087  0.2131  0.1607
11162TIP3    H154977   1.322   0.073   5.898 -0.5058  0.0443 -0.9470
11162TIP3    H254978   1.217   0.126   5.994  0.6144 -0.2069  0.4335
11163TIP3   OH254979   3.803   1.790  17.224 -0.0685 -0.0862  0.2057
11163TIP3    H154980   3.821   1.697  17.215 -0.3853 -0.3189  1.7469
11163TIP3    H254981   3.885   1.827  17.257 -0.3146 -0.0258  0.7552
11164TIP3   OH254982   1.160   5.908   6.052  0.1700 -0.2932  0.4125
11164TIP3    H154983   1.147   5.937   6.142 -0.5647 -1.6441  0.7479
11164TIP3    H254984   1.140   5.815   6.053  2.1577 -0.7503 -0.7459
11165TIP3   OH254985   4.474   1.826  13.216  0.1433  0.1592  0.3783
11165TIP3    H154986   4.495   1.733  13.220 -1.7203 -0.3466 -0.9819
11165TIP3    H254987   4.382   1.832  13.241  0.4768  1.7519  1.3044
11166TIP3   OH254988   6.673   1.830  11.460 -0.2574 -0.0089 -0.6927
11166TIP3    H154989   6.606   1.802  11.523  0.5662 -1.2602 -0.3529
11166TIP3    H254990   6.636   1.908  11.419 -2.0880 -0.8820 -0.7568
11167TIP3   OH254991   5.692   0.937  17.240 -0.9162 -0.0840  0.1162
11167TIP3    H154992   5.665   0.847  17.262 -0.4479 -0.4735 -0.8609
11167TIP3    H254993   5.643   0.992  17.300 -0.3559 -1.0649  1.5144
11168TIP3   OH254994   1.132   5.658  16.355  0.5871 -0.4082 -0.6176
11168TIP3    H154995   1.171   5.636  16.439  2.1886 -1.3973 -1.5761
11168TIP3    H254996   1.108   5.751  16.363  3.8841  0.4883 -0.2087
11169TIP3   OH254997   1.190   4.069  15.098  0.2163  0.2021  0.0205
11169TIP3    H154998   1.204   3.977  15.121  0.6227 -0.2929 -2.0888
11169TIP3    H254999   1.128   4.101  15.164  0.1565 -1.5508  0.8465
11170TIP3   OH255000   6.507   4.576   0.085 -0.1250 -0.2898  0.0875
11170TIP3    H155001   6.570   4.633   0.127  0.3504 -0.4727 -0.3767
11170TIP3    H255002   6.425   4.592   0.132  0.4376 -0.6238  1.2043
11171TIP3   OH255003   3.283   2.188   5.414  0.0642  0.0319  0.7310
11171TIP3    H155004   3.364   2.200   5.363 -2.0806  1.7009 -2.4869
11171TIP3    H255005   3.290   2.251   5.485  0.5623  1.9370 -0.9477
11172TIP3   OH255006   0.588   2.925  11.873 -0.4538  0.4069 -0.0008
11172TIP3    H155007   0.590   3.016  11.900 -1.5590  0.8711 -1.3717
11172TIP3    H255008   0.505   2.916  11.825 -0.5661 -1.4158  0.4620
11173TIP3   OH255009   2.922   5.787   1.250  0.1017  0.6403 -0.3788
11173TIP3    H155010   2.932   5.840   1.171 -0.2817  0.1607 -0.7570
11173TIP3    H255011   2.874   5.843   1.311  0.5762  1.0833 -0.4103
11174TIP3   OH255012   0.581   4.799   3.283  0.6807  0.0166 -0.3956
11174TIP3    H155013   0.553   4.891   3.288  1.2404  0.2327 -0.9591
11174TIP3    H255014   0.667   4.804   3.240  0.0568 -0.8869 -1.7834
11175TIP3   OH255015   6.633   5.901   1.064  0.0529 -0.4367  0.0100
11175TIP3    H155016   6.601   5.984   1.028  1.1288 -0.7459 -1.6709
11175TIP3    H255017   6.589   5.834   1.012  2.4956 -0.8774 -1.5788
11176TIP3   OH255018   6.338   3.700  10.790 -0.9526  0.2272  0.3212
11176TIP3    H155019   6.359   3.635  10.857 -0.2690  0.3912  0.2729
11176TIP3    H255020   6.243   3.698  10.784 -0.8721 -1.9756 -0.8655
11177TIP3   OH255021   5.567   1.801  14.959 -0.1846  0.1092  0.2861
11177TIP3    H155022   5.524   1.850  14.889  0.5161  0.0237 -0.2063
11177TIP3    H255023   5.658   1.793  14.930 -0.3833 -1.8638  0.1690
11178TIP3   OH255024   2.132   1.150   2.858 -0.1536  0.6020  0.3821
11178TIP3    H155025   2.169   1.223   2.808  4.2030  0.3361  2.9278
11178TIP3    H255026   2.114   1.188   2.944  1.4997 -1.0966  1.5132
11179TIP3   OH255027   4.933   5.121  12.740  0.4858 -0.1426 -0.5308
11179TIP3    H155028   4.838   5.131  12.746  0.4037 -0.8795 -0.6201
11179TIP3    H255029   4.950   5.031  12.766  1.3027  0.4230  0.9297
11180TIP3   OH255030   6.564   6.259   1.073  0.1460 -0.0009  0.1810
11180TIP3    H155031   6.529   6.229   1.156  0.3320  1.5966  0.8599
11180TIP3    H255032   6.659   6.265   1.087  0.3004 -0.7679 -0.4884
11181TIP3   OH255033   4.721   4.316  12.299  0.0886  0.0983  0.2520
11181TIP3    H155034   4.679   4.308  12.213  0.7164  2.2148 -0.2665
11181TIP3    H255035   4.768   4.233  12.310 -1.2491 -0.8300 -0.7444
11182TIP3   OH255036   0.615   1.654  16.616  0.1901  0.1133  0.5429
11182TIP3    H155037   0.555   1.595  16.570  1.1709  0.3429 -1.0574
11182TIP3    H255038   0.697   1.605  16.622  0.8744  1.1341 -0.3896
11183TIP3   OH255039   0.643   4.974  14.894 -0.6654  0.1242 -0.1408
11183TIP3    H155040   0.719   4.935  14.850 -0.9614 -0.9390  0.2623
11183TIP3    H255041   0.568   4.933  14.852 -0.9443 -1.3508  1.7266
11184TIP3   OH255042   4.686   3.855  11.709  0.3044 -0.4106  0.0812
11184TIP3    H155043   4.702   3.762  11.726  2.2709 -0.0809  0.0646
11184TIP3    H255044   4.676   3.861  11.614  0.2624 -0.5854  0.0750
11185TIP3   OH255045   3.680   5.265  11.686 -0.6130 -0.2564 -0.0192
11185TIP3    H155046   3.711   5.352  11.707  0.9822 -0.3738 -1.7610
11185TIP3    H255047   3.691   5.214  11.766 -0.6302  0.8846  0.7052
11186TIP3   OH255048   5.910   6.683   6.461  0.4294  0.0611 -0.1704
11186TIP3    H155049   5.865   6.616   6.512  0.1939  1.4243  1.4657
11186TIP3    H255050   5.896   6.658   6.370 -1.9172 -0.6399  0.3610
11187TIP3   OH255051   2.860   1.144   0.429  0.4038 -0.4930  0.6020
11187TIP3    H155052   2.866   1.048   0.432 -2.4460 -0.7133  0.2450
11187TIP3    H255053   2.787   1.165   0.488  0.5585  1.4101  0.1375
11188TIP3   OH255054   1.915   1.378  17.247 -0.2148  0.2745 -0.2201
11188TIP3    H155055   1.869   1.329  17.179 -0.4248  2.1374 -1.4643
11188TIP3    H255056   1.860   1.368  17.325 -0.2439 -1.4444 -0.4457
11189TIP3   OH255057   1.418   2.166  12.445  0.1416  0.4302 -0.2955
11189TIP3    H155058   1.473   2.138  12.372 -0.0538 -1.2404  0.1763
11189TIP3    H255059   1.328   2.146  12.416 -0.1403  2.1021 -0.6093
11190TIP3   OH255060   5.020   6.260   4.635  0.2722 -0.1069 -1.0186
11190TIP3    H155061   5.001   6.168   4.654 -1.2439  0.3435 -0.1881
11190TIP3    H255062   4.961   6.282   4.563 -0.1753  0.4886 -0.4829
11191TIP3   OH255063   3.889   2.374   5.313  0.6147  0.4611 -0.2186
11191TIP3    H155064   3.972   2.338   5.280  0.4259 -0.0619 -0.1124
11191TIP3    H255065   3.848   2.302   5.360  0.0137  0.6734 -0.4184
11192TIP3   OH255066   5.227   4.820  16.644 -0.1180  0.0168  0.1442
11192TIP3    H155067   5.182   4.747  16.687 -0.4252 -0.2728 -0.6642
11192TIP3    H255068   5.181   4.898  16.677 -0.7004 -0.2338 -0.0606
11193TIP3   OH255069   3.837   3.490   4.861  0.4628 -0.4418  0.8281
11193TIP3    H155070   3.873   3.454   4.780  0.8948  0.6587  0.5161
11193TIP3    H255071   3.866   3.581   4.861 -2.4548  0.5604  0.4488
11194TIP3   OH255072   0.346   5.675   4.648  0.2963 -0.2261  0.1524
11194TIP3    H155073   0.407   5.603   4.632  1.0064  0.6244 -1.0726
11194TIP3    H255074   0.340   5.720   4.564 -2.0696 -0.3221  0.2348
11195TIP3   OH255075   0.319   2.397   2.153  0.0926 -0.0278 -0.0218
11195TIP3    H155076   0.268   2.338   2.098  2.0523  0.1879 -2.1501
11195TIP3    H255077   0.395   2.346   2.179  1.2334  1.1501 -0.9469
11196TIP3   OH255078   2.450   4.000  10.938  0.1130 -0.4485 -0.2809
11196TIP3    H155079   2.453   3.910  10.970 -1.3077 -0.1108  0.8790
11196TIP3    H255080   2.440   3.992  10.843  0.6942 -1.5015 -0.2520
11197TIP3   OH255081   5.680   5.895   2.129 -0.1388 -0.0956 -0.5097
11197TIP3    H155082   5.713   5.912   2.217  1.7036 -1.8296 -0.8303
11197TIP3    H255083   5.699   5.976   2.081 -0.1949  0.4712  0.4097
11198TIP3   OH255084   1.386   5.483   1.420  0.0353  0.0827  0.1547
11198TIP3    H155085   1.349   5.468   1.333  1.0586 -0.2618 -0.2376
11198TIP3    H255086   1.410   5.576   1.420  0.4531 -0.0200 -0.1098
11199TIP3   OH255087   2.635   1.067  15.558  0.6333  0.5749  0.6250
11199TIP3    H155088   2.682   1.147  15.581 -1.1662  1.5150  1.1363
11199TIP3    H255089   2.553   1.072  15.607 -0.2111 -0.8021 -0.5966
11200TIP3   OH255090   5.371   2.895   4.913 -0.5428 -0.0048  0.2231
11200TIP3    H155091   5.463   2.873   4.930 -0.4579  0.2892  0.1636
11200TIP3    H255092   5.353   2.858   4.827 -1.2038 -2.1815  1.2543
11201TIP3   OH255093   2.023   3.442  15.998  0.3678  0.4770 -0.0927
11201TIP3    H155094   2.003   3.500  16.071  1.8303  2.3234 -1.1166
11201TIP3    H255095   2.112   3.466  15.971 -0.6712  0.9224 -3.4425
11202TIP3   OH255096   6.795   4.149  14.270  0.3367 -0.7331 -0.2536
11202TIP3    H155097   6.870   4.096  14.296  0.1828  0.1020  1.9473
11202TIP3    H255098   6.826   4.239  14.275 -1.0389 -0.3259  1.5576
11203TIP3   OH255099   2.531   1.187   2.257 -0.6478 -0.4890  0.2822
11203TIP3    H155100   2.458   1.228   2.302  0.5568  0.6986  1.2044
11203TIP3    H255101   2.500   1.099   2.235 -1.2839 -1.0832  3.3814
11204TIP3   OH255102   3.162   5.018  12.998  0.3131 -0.2275  0.3487
11204TIP3    H155103   3.235   4.961  12.971  0.0711 -0.8045  0.8864
11204TIP3    H255104   3.163   5.089  12.935  1.2228 -0.3345  0.2251
11205TIP3   OH255105   6.757   3.620   1.658  0.2325  0.3337  0.3351
11205TIP3    H155106   6.778   3.626   1.565  0.4379 -2.1324  0.2112
11205TIP3    H255107   6.796   3.699   1.697  1.4048  0.6241 -1.4089
11206TIP3   OH255108   5.672   0.666   6.602  0.5417  0.1627 -0.9603
11206TIP3    H155109   5.673   0.758   6.630  1.7107 -0.2927  0.6135
11206TIP3    H255110   5.581   0.638   6.612  0.6661  0.4247  1.1511
11207TIP3   OH255111   5.863   6.477  16.697  0.2024  0.2998 -0.6215
11207TIP3    H155112   5.876   6.570  16.677  2.8387  0.1474  0.2089
11207TIP3    H255113   5.890   6.431  16.617 -0.3787  0.2133 -0.7689
11208TIP3   OH255114   1.842   5.589   1.468 -0.3266 -0.0495 -0.2671
11208TIP3    H155115   1.798   5.657   1.519  1.3200  1.0483 -0.2643
11208TIP3    H255116   1.822   5.507   1.514 -0.7849  0.6560  0.8055
11209TIP3   OH255117   0.207   2.760  15.374  0.1410 -0.0718  0.0018
11209TIP3    H155118   0.162   2.817  15.311  1.0516 -1.2909 -1.8201
11209TIP3    H255119   0.299   2.784  15.366  0.1225  0.6211  1.8061
11210TIP3   OH255120   6.508   3.489  16.685 -0.2096 -0.4963  0.0178
11210TIP3    H155121   6.496   3.536  16.603 -1.4773 -0.4091  0.2422
11210TIP3    H255122   6.569   3.419  16.663  0.3049  0.1808 -0.7398
11211TIP3   OH255123   0.382   0.700  11.678 -0.4190  0.0539 -0.6208
11211TIP3    H155124   0.396   0.616  11.721 -0.5167  0.8779  1.0722
11211TIP3    H255125   0.469   0.741  11.679 -0.4578  0.1475 -1.0659
11212TIP3   OH255126   0.612   6.500  15.189 -0.2842 -0.4954 -0.5225
11212TIP3    H155127   0.643   6.585  15.157 -0.5721 -0.8626 -1.7987
11212TIP3    H255128   0.524   6.491  15.151 -0.5716 -1.0097  0.2532
11213TIP3   OH255129   5.111   0.952   2.759  0.4066 -0.2556 -0.1493
11213TIP3    H155130   5.096   0.940   2.666 -0.1691 -0.1123 -0.0778
11213TIP3    H255131   5.050   1.021   2.785 -0.5150 -1.3355  0.6257
11214TIP3   OH255132   6.224   6.353  13.620  0.4566  0.0153  0.3455
11214TIP3    H155133   6.244   6.282  13.681  0.2371 -0.6573 -0.3601
11214TIP3    H255134   6.294   6.417  13.635 -0.3825  0.5235  2.3041
11215TIP3   OH255135   3.661   6.376   0.426  0.3393  0.5650 -0.6253
11215TIP3    H155136   3.614   6.451   0.463 -0.0989  0.3463 -0.7404
11215TIP3    H255137   3.739   6.414   0.386  0.3602  0.9063 -0.2582
11216TIP3   OH255138   1.387   4.744  14.791  0.2110 -0.0362  0.4512
11216TIP3    H155139   1.337   4.671  14.756  2.2409 -1.1869 -0.1283
11216TIP3    H255140   1.473   4.706  14.812  1.1729  2.0920  0.4837
11217TIP3   OH255141   5.061   5.553  13.424  0.1346 -0.0362 -0.4240
11217TIP3    H155142   5.058   5.634  13.475  0.2671  0.5130 -1.2793
11217TIP3    H255143   5.120   5.496  13.472 -0.3210  0.2034  0.4323
11218TIP3   OH255144   5.070   3.693  17.209 -0.1214 -0.0802 -0.0269
11218TIP3    H155145   5.077   3.772  17.263  0.9871 -0.0520 -0.2113
11218TIP3    H255146   5.114   3.717  17.127 -1.0797 -0.3956 -0.6405
11219TIP3   OH255147   6.683   4.201   1.815 -0.3041 -0.2901  0.8266
11219TIP3    H155148   6.739   4.182   1.740  0.3174  0.7988  0.9971
11219TIP3    H255149   6.738   4.181   1.891 -0.5183 -0.2646  0.9896
11220TIP3   OH255150   2.492   2.862   3.013  0.2750 -0.2809  0.6513
11220TIP3    H155151   2.496   2.956   2.998  0.4763 -0.4843 -0.6003
11220TIP3    H255152   2.415   2.849   3.068 -0.8805  0.4108 -0.7801
11221TIP3   OH255153   4.828   2.599  12.348  0.5274  0.6636  0.3106
11221TIP3    H155154   4.818   2.694  12.343  1.2998  0.8245  1.6646
11221TIP3    H255155   4.846   2.581  12.440 -2.7390 -1.1013  0.6796
11222TIP3   OH255156   2.138   4.733  15.284 -0.1519  0.3330  0.0216
11222TIP3    H155157   2.186   4.762  15.206 -0.2468 -0.8693 -0.4950
11222TIP3    H255158   2.047   4.755  15.264 -0.5556 -2.3355 -1.3762
11223TIP3   OH255159   6.353   5.006  15.815  0.0106 -0.7047  0.7817
11223TIP3    H155160   6.363   5.076  15.879  0.0974  0.5403 -0.5817
11223TIP3    H255161   6.436   5.006  15.767 -0.1524 -1.4716  0.4959
11224TIP3   OH255162   6.407   2.836   3.000 -0.0439  0.6794 -0.3206
11224TIP3    H155163   6.441   2.777   2.933  0.4398 -0.9426  1.3152
11224TIP3    H255164   6.480   2.847   3.061 -1.6517 -0.8920  1.9449
11225TIP3   OH255165   1.259   4.468  17.253  0.1519 -0.1466 -0.3064
11225TIP3    H155166   1.317   4.498  17.322 -0.2747  0.3718 -0.1709
11225TIP3    H255167   1.316   4.422  17.191  0.6063 -0.1654  0.1319
11226TIP3   OH255168   6.559   2.835   3.235 -0.0176  0.0180 -0.0843
11226TIP3    H155169   6.655   2.839   3.243  0.1139 -0.2764 -1.4074
11226TIP3    H255170   6.535   2.755   3.283  0.4977 -0.4348 -0.5660
11227TIP3   OH255171   4.542   1.399  13.509  0.0206 -0.5503 -0.1826
11227TIP3    H155172   4.450   1.424  13.499  0.1905  0.0324 -0.3080
11227TIP3    H255173   4.589   1.482  13.512  0.7946 -0.8793 -2.4308
11228TIP3   OH255174   4.096   0.712   1.530 -0.1849  0.3856 -0.3693
11228TIP3    H155175   4.044   0.771   1.586 -1.0965  0.2230 -1.0361
11228TIP3    H255176   4.098   0.755   1.445  1.5700  0.8403 -0.1186
11229TIP3   OH255177   1.656   0.838   1.672 -0.5745  0.4049  0.1930
11229TIP3    H155178   1.567   0.864   1.696 -0.0278  2.4357  0.1441
11229TIP3    H255179   1.712   0.884   1.736  0.4345 -1.0069  0.3535
11230TIP3   OH255180   5.985   5.488  14.809 -0.5120 -0.2671  0.0868
11230TIP3    H155181   5.908   5.434  14.790 -0.7416 -0.1401  0.6519
11230TIP3    H255182   5.954   5.552  14.873  0.5576 -1.4536  1.8217
11231TIP3   OH255183   3.001   6.334  16.682  0.0313 -0.2812  1.2210
11231TIP3    H155184   2.930   6.319  16.744 -0.7939 -0.8405  0.1417
11231TIP3    H255185   3.015   6.429  16.685 -0.9184 -0.1352  1.2656
11232TIP3   OH255186   2.004   0.858   2.066 -0.2830  0.0551 -0.3085
11232TIP3    H155187   1.923   0.822   2.029 -0.1917  0.2110 -0.6625
11232TIP3    H255188   2.053   0.889   1.990  0.8691 -1.5864 -0.2521
11233TIP3   OH255189   0.078   3.324  15.710 -0.5570  0.3632 -0.5677
11233TIP3    H155190   0.134   3.391  15.673  0.4749 -0.0150  0.2717
11233TIP3    H255191   0.002   3.321  15.652  0.7647  0.1417 -2.3318
11234TIP3   OH255192   4.251   6.088  12.626  0.7229 -0.1439 -0.4003
11234TIP3    H155193   4.267   6.139  12.706  2.2057 -1.1395 -0.0303
11234TIP3    H255194   4.318   6.118  12.565 -0.6980  0.9361 -1.4344
11235TIP3   OH255195   2.753   6.274  15.246 -0.0613 -0.3912 -0.2658
11235TIP3    H155196   2.707   6.191  15.255 -0.0117 -0.3690  0.1658
11235TIP3    H255197   2.838   6.250  15.207 -0.3942 -0.4427 -0.9785
11236TIP3   OH255198   1.353   6.780  17.162 -0.1090 -0.0186  0.0583
11236TIP3    H155199   1.268   6.742  17.186  0.1277 -0.9469 -0.5348
11236TIP3    H255200   1.366   6.753  17.071  0.3986  0.9008 -0.1481
11237TIP3   OH255201   6.023   0.433   5.251 -0.4876 -0.2096 -0.5363
11237TIP3    H155202   6.052   0.525   5.255 -0.4951 -0.2738  2.2982
11237TIP3    H255203   6.021   0.412   5.158  0.3887  2.4042 -1.1824
11238TIP3   OH255204   1.784   3.270  13.343 -0.0358  0.2161 -0.0455
11238TIP3    H155205   1.875   3.274  13.372  0.1733  1.3596 -0.7915
11238TIP3    H255206   1.789   3.284  13.248 -0.9488 -0.1695 -0.1537
11239TIP3   OH255207   4.157   2.077   0.466  0.1022  0.2735 -0.2874
11239TIP3    H155208   4.081   2.036   0.507 -0.6869  0.7141 -1.2867
11239TIP3    H255209   4.146   2.171   0.481  1.1832  0.2462  0.7747
11240TIP3   OH255210   3.776   2.410  16.873  0.2738  0.3196  0.0809
11240TIP3    H155211   3.747   2.498  16.898  2.5496  0.9856  0.4565
11240TIP3    H255212   3.805   2.420  16.782  1.3755  0.1809  0.4080
11241TIP3   OH255213   6.118   2.595  16.132  0.6062 -0.3838  0.5707
11241TIP3    H155214   6.133   2.501  16.121 -0.0252 -0.4786  0.5016
11241TIP3    H255215   6.197   2.636  16.097 -0.3014 -0.7759 -2.0174
11242TIP3   OH255216   0.277   0.961  16.592  0.6078  0.6257  0.8160
11242TIP3    H155217   0.204   0.921  16.639  0.1716 -1.1187 -1.2573
11242TIP3    H255218   0.237   1.034  16.544  0.5711  0.7714  1.0613
11243TIP3   OH255219   6.476   1.297   0.129 -0.0040  0.3192 -0.5320
11243TIP3    H155220   6.417   1.239   0.177 -0.2478 -0.0063 -1.2126
11243TIP3    H255221   6.548   1.240   0.102 -0.0586  0.4137 -0.8812
11244TIP3   OH255222   1.756   0.854   1.314 -0.4106  0.6931  0.0803
11244TIP3    H155223   1.680   0.824   1.263  0.4892  0.5906 -1.2032
11244TIP3    H255224   1.718   0.911   1.381 -1.8586 -1.0673  0.8253
11245TIP3   OH255225   0.348   2.442   4.655  0.0396  0.2428  0.3453
11245TIP3    H155226   0.318   2.353   4.641 -0.2690  0.5686 -1.2170
11245TIP3    H255227   0.415   2.435   4.723  0.0921 -1.1892  0.1622
11246TIP3   OH255228   3.503   3.131   4.876 -0.4289  0.2075 -0.5070
11246TIP3    H155229   3.532   3.214   4.914  1.8029 -0.3553 -0.9284
11246TIP3    H255230   3.555   3.064   4.919 -1.5506 -0.9089 -0.8436
11247TIP3   OH255231   4.891   0.396  16.508  0.0794  0.0292 -0.2652
11247TIP3    H155232   4.927   0.455  16.575 -0.5176 -0.9414  0.9348
11247TIP3    H255233   4.961   0.388  16.443  1.5436 -0.7615  1.3641
11248TIP3   OH255234   6.177   5.441   4.224 -0.2344 -0.1534  0.6946
11248TIP3    H155235   6.264   5.469   4.251 -0.1625 -0.2864  0.6029
11248TIP3    H255236   6.153   5.373   4.287 -1.4877  1.9137  2.4949
11249TIP3   OH255237   2.191   4.775   1.298  0.1803 -0.4016  0.2725
11249TIP3    H155238   2.140   4.695   1.312 -0.7628  0.1834  0.2348
11249TIP3    H255239   2.184   4.823   1.380  1.2628 -0.6361  0.5083
11250TIP3   OH255240   1.498   6.335  10.740  0.1638  0.3357 -0.1235
11250TIP3    H155241   1.449   6.347  10.658  0.6834 -1.7124 -0.7645
11250TIP3    H255242   1.567   6.401  10.736  1.4119 -1.0225 -2.3346
11251TIP3   OH255243   3.536   2.313  15.136  0.0061 -0.3895  0.3222
11251TIP3    H155244   3.458   2.267  15.104 -0.5661  0.9626 -0.2941
11251TIP3    H255245   3.601   2.301  15.067 -0.8233  1.4580 -0.8508
11252TIP3   OH255246   1.960   4.699  14.573 -0.4070 -0.3217 -0.3679
11252TIP3    H155247   1.966   4.729  14.483 -0.5477  0.6043 -0.0781
11252TIP3    H255248   1.934   4.607  14.566  1.1809 -0.7047 -1.2904
11253TIP3   OH255249   5.939   0.119  13.916 -0.1897 -0.4159 -0.3480
11253TIP3    H155250   5.953   0.174  13.993  0.8855  0.4492 -1.1376
11253TIP3    H255251   5.971   0.172  13.843  0.6061 -1.9789 -1.1712
11254TIP3   OH255252   4.034   4.219   2.907 -0.5502 -0.2752  0.0969
11254TIP3    H155253   3.968   4.287   2.923  0.8908  1.2639 -0.2976
11254TIP3    H255254   4.065   4.194   2.994  0.5923  1.3085  0.1738
11255TIP3   OH255255   1.665   1.620  14.714 -0.0903  0.0615 -0.4257
11255TIP3    H155256   1.716   1.615  14.795 -0.2324  1.7583 -0.2169
11255TIP3    H255257   1.588   1.566  14.732  0.0840  0.0804  0.4233
11256TIP3   OH255258   0.795   2.305   5.941 -0.3303  0.7219  0.2398
11256TIP3    H155259   0.818   2.397   5.931 -0.8788  0.7944 -0.4542
11256TIP3    H255260   0.739   2.302   6.019 -2.0994  1.3220 -0.9776
11257TIP3   OH255261   1.655   1.820   4.783 -0.0454 -0.4192 -0.3447
11257TIP3    H155262   1.687   1.731   4.797 -1.6113 -0.5673  2.6317
11257TIP3    H255263   1.560   1.809   4.772 -0.2472  0.8792  0.0803
11258TIP3   OH255264   2.042   5.265   6.155  0.3860  0.1595 -0.5015
11258TIP3    H155265   1.947   5.255   6.152  0.0360  2.6442  1.1473
11258TIP3    H255266   2.073   5.189   6.204 -0.9811  0.5802  1.0431
11259TIP3   OH255267   3.577   5.651  11.346 -0.6326  0.0452 -0.1108
11259TIP3    H155268   3.655   5.644  11.401  0.2936 -0.7413 -1.5082
11259TIP3    H255269   3.590   5.587  11.277 -3.0860 -0.9543  0.2965
11260TIP3   OH255270   3.259   0.763  17.143 -0.4244  0.0705 -0.5528
11260TIP3    H155271   3.192   0.696  17.131  0.7977 -0.7709 -2.8487
11260TIP3    H255272   3.210   0.842  17.168 -1.7762 -2.0234  4.1083
11261TIP3   OH255273   4.796   2.223   2.888  0.1024  0.2574 -0.2496
11261TIP3    H155274   4.872   2.216   2.830  0.6172  0.7785  0.3534
11261TIP3    H255275   4.754   2.137   2.883  0.8108 -0.0819 -0.4810
11262TIP3   OH255276   6.818   5.849   6.011  0.1330 -0.0530 -0.1142
11262TIP3    H155277   6.845   5.856   6.103 -1.5750  0.8943  0.3381
11262TIP3    H255278   6.771   5.765   6.007 -0.3090  0.1866  0.0182
11263TIP3   OH255279   2.703   5.518   3.323  0.0511  0.0959 -0.1882
11263TIP3    H155280   2.759   5.563   3.386 -1.8753  2.2315  0.0557
11263TIP3    H255281   2.757   5.509   3.244  1.5925 -0.2515  0.8857
11264TIP3   OH255282   5.360   2.165   2.844  0.2099 -0.1732 -0.2769
11264TIP3    H155283   5.340   2.083   2.888  1.2789 -0.3599 -0.1287
11264TIP3    H255284   5.306   2.230   2.889 -1.3659 -0.9451 -1.0379
11265TIP3   OH255285   6.420   4.084  13.066 -0.4111 -0.0305 -0.6723
11265TIP3    H155286   6.393   3.993  13.059 -1.8863  0.3942 -0.8483
11265TIP3    H255287   6.505   4.088  13.022  0.8276 -1.7881  1.5040
11266TIP3   OH255288   1.875   0.859   2.524  0.3740 -0.3822 -0.3234
11266TIP3    H155289   1.965   0.882   2.505  0.4748  0.2027  0.8274
11266TIP3    H255290   1.880   0.802   2.601 -0.1877 -0.8109 -0.6027
11267TIP3   OH255291   1.432   1.636   3.984 -0.6046  0.1131 -0.2525
11267TIP3    H155292   1.466   1.717   4.024 -3.0211  0.2979  1.5281
11267TIP3    H255293   1.369   1.666   3.919 -0.1872 -0.3217 -0.8648
11268TIP3   OH255294   4.752   1.720   5.381  0.7471  0.0016  0.0615
11268TIP3    H155295   4.844   1.743   5.370  0.7523  0.1713  0.4684
11268TIP3    H255296   4.729   1.675   5.300  0.4781  2.2366 -1.1282
11269TIP3   OH255297   5.627   1.368   0.037 -0.0971  0.1440 -0.3029
11269TIP3    H155298   5.675   1.414   0.105  0.8983  1.2225 -1.7162
11269TIP3    H255299   5.621   1.277   0.068  0.8460  0.5007  0.9269
11270TIP3   OH255300   4.789   6.332  15.337 -0.1189  0.1092  0.1980
11270TIP3    H155301   4.876   6.372  15.328 -0.2463  0.1972 -0.6591
11270TIP3    H255302   4.770   6.297  15.250 -1.5433  1.2891  0.0195
11271TIP3   OH255303   6.207   2.838   2.752 -0.1590 -0.2955  0.0220
11271TIP3    H155304   6.150   2.870   2.822  1.3525 -0.0061  1.1460
11271TIP3    H255305   6.294   2.838   2.790  0.3954 -2.2548 -1.1594
11272TIP3   OH255306   0.682   0.747  11.938  0.3523 -0.4571 -0.0589
11272TIP3    H155307   0.641   0.826  11.974  2.4728  0.2884  0.8053
11272TIP3    H255308   0.696   0.691  12.014 -0.8205 -1.5333 -0.6226
11273TIP3   OH255309   0.009   2.704  12.462 -0.1864  0.5576 -0.2090
11273TIP3    H155310  -0.076   2.660  12.471  0.4916 -0.3757  1.9108
11273TIP3    H255311   0.073   2.637  12.485  1.1726  1.1245 -2.2390
11274TIP3   OH255312   5.134   0.666   1.531  0.3512 -0.8116 -0.0497
11274TIP3    H155313   5.181   0.749   1.522 -0.2301 -0.4306  0.3603
11274TIP3    H255314   5.044   0.687   1.506 -0.0055 -1.0804  0.9917
11275TIP3   OH255315   4.024   3.378   4.697  0.2452 -0.4430 -0.6371
11275TIP3    H155316   4.046   3.370   4.604 -1.5569 -0.9197 -1.0438
11275TIP3    H255317   4.069   3.305   4.739  1.0630 -0.2271 -1.1248
11276TIP3   OH255318   1.661   2.103  12.984 -0.2827  0.3969  0.1937
11276TIP3    H155319   1.570   2.085  13.004 -0.0499 -1.1593 -0.0968
11276TIP3    H255320   1.674   2.194  13.011 -1.5072  0.1596  1.6652
11277TIP3   OH255321   0.475   6.476   0.964  0.4681  0.2731  0.1058
11277TIP3    H155322   0.460   6.571   0.960 -2.0707 -0.0776  0.2619
11277TIP3    H255323   0.457   6.453   1.055 -0.0858 -0.5187 -0.1982
11278TIP3   OH255324   6.191   2.137   4.837 -0.1422  0.0018  0.0498
11278TIP3    H155325   6.156   2.081   4.768  1.0893 -0.5691 -0.1382
11278TIP3    H255326   6.250   2.197   4.792  0.3228 -0.0837  0.5332
11279TIP3   OH255327   1.517   4.461  13.224 -0.8373  0.3242  0.1959
11279TIP3    H155328   1.540   4.485  13.134  1.1336 -1.2903  0.2268
11279TIP3    H255329   1.442   4.516  13.245 -0.8532  1.2771 -2.1700
11280TIP3   OH255330   6.683   1.502  13.599 -0.2948  0.6034 -0.9348
11280TIP3    H155331   6.777   1.490  13.594 -0.3433  0.3016 -1.1750
11280TIP3    H255332   6.648   1.414  13.616 -0.2755  1.2770  2.9724
11281TIP3   OH255333   6.659   2.257   6.101 -0.3895  0.0882  0.0412
11281TIP3    H155334   6.688   2.192   6.165 -1.3025 -0.2865  0.0785
11281TIP3    H255335   6.730   2.261   6.037  1.0067  1.1991  1.6052
11282TIP3   OH255336   6.156   3.913  12.782  0.1990 -0.0337  0.2085
11282TIP3    H155337   6.075   3.939  12.737  1.2399  1.8689 -0.6491
11282TIP3    H255338   6.163   3.973  12.856  0.5043 -0.5861  0.6267
11283TIP3   OH255339   5.792   4.239   1.429  0.4405  0.4717  0.4303
11283TIP3    H155340   5.852   4.250   1.503  1.0359 -1.7293  0.3103
11283TIP3    H255341   5.816   4.154   1.392 -1.4826  0.4523 -0.8014
11284TIP3   OH255342   3.555   6.449  13.174  0.0961  0.2247 -0.1230
11284TIP3    H155343   3.473   6.435  13.127  0.5932 -2.0647 -0.3488
11284TIP3    H255344   3.570   6.544  13.167 -2.4506  0.6726 -0.1689
11285TIP3   OH255345   4.118   2.462   0.284 -0.4007  0.2312 -0.1008
11285TIP3    H155346   4.096   2.553   0.264  1.2976  0.6682 -0.0390
11285TIP3    H255347   4.110   2.456   0.379  0.8939  0.7141  0.0476
11286TIP3   OH255348   0.594   3.058   6.092  0.5227  0.0307 -0.4065
11286TIP3    H155349   0.652   3.133   6.095 -0.3192  0.6355  2.2936
11286TIP3    H255350   0.636   2.993   6.148 -1.3490  0.4987  1.6338
11287TIP3   OH255351   2.387   5.318  13.257 -0.1054  0.1049 -0.6034
11287TIP3    H155352   2.448   5.392  13.253 -1.7148  1.5056  0.1730
11287TIP3    H255353   2.336   5.333  13.336  0.0579 -2.2698 -0.0346
11288TIP3   OH255354   3.208   4.019  12.837 -0.0991  0.1360 -0.2051
11288TIP3    H155355   3.248   3.953  12.781  1.4800 -0.1795  1.2579
11288TIP3    H255356   3.116   3.993  12.843  0.1428 -0.9380 -1.0419
11289TIP3   OH255357   6.387   0.755  15.818 -0.0691 -0.2727 -0.2552
11289TIP3    H155358   6.348   0.760  15.905 -2.8621 -0.2806 -1.4719
11289TIP3    H255359   6.454   0.824  15.818 -1.9455  1.6117  0.9485
11290TIP3   OH255360   3.304   2.626  10.862 -0.4506 -0.2942  0.5331
11290TIP3    H155361   3.342   2.702  10.817  0.4095 -0.5826  0.7555
11290TIP3    H255362   3.377   2.589  10.912 -1.2328 -0.3596  1.6536
11291TIP3   OH255363   6.747   1.833  17.284  0.2208  0.1965  0.1094
11291TIP3    H155364   6.701   1.828  17.368 -1.8639 -0.5280 -1.0299
11291TIP3    H255365   6.835   1.801  17.304 -0.4151 -0.5658  1.9078
11292TIP3   OH255366   0.472   3.113   3.220  0.5960  0.5114 -0.7749
11292TIP3    H155367   0.522   3.191   3.195  0.6991  0.8836  0.5565
11292TIP3    H255368   0.390   3.147   3.255  0.9462  0.0688  0.5044
11293TIP3   OH255369   4.363   5.234   4.412 -0.2513 -0.1376  0.1046
11293TIP3    H155370   4.382   5.213   4.321 -1.1236  2.8310 -0.8407
11293TIP3    H255371   4.447   5.266   4.447  0.3083 -2.1360  0.6425
11294TIP3   OH255372   1.236   2.637  13.605  0.1656 -0.6990 -0.3134
11294TIP3    H155373   1.141   2.639  13.617  0.4094  0.1629  1.6074
11294TIP3    H255374   1.250   2.675  13.518 -1.1645  0.3171 -0.0966
11295TIP3   OH255375   2.440   0.031  14.501  0.2820 -0.1477  0.2777
11295TIP3    H155376   2.501   0.046  14.573  1.4653  1.6593 -1.0419
11295TIP3    H255377   2.404   0.117  14.481 -0.3813 -0.6932 -0.9816
11296TIP3   OH255378   5.078   1.814  17.169  0.2615 -0.1235  0.2640
11296TIP3    H155379   5.000   1.758  17.162 -0.2137  0.6602 -0.7817
11296TIP3    H255380   5.140   1.778  17.106 -0.6880  1.5335 -1.6830
11297TIP3   OH255381   0.224   2.107   5.387  0.3175  0.2754 -0.2519
11297TIP3    H155382   0.242   2.162   5.463 -0.4883  1.0724 -0.6289
11297TIP3    H255383   0.293   2.129   5.324  0.6243  0.0607  0.0057
11298TIP3   OH255384   2.498   1.331   5.593 -0.6303 -0.2186  0.0627
11298TIP3    H155385   2.522   1.415   5.555 -1.3554 -0.4956 -1.0258
11298TIP3    H255386   2.558   1.320   5.667  0.2152  0.7300 -0.4741
11299TIP3   OH255387   3.773   2.733  16.454 -0.0599  0.8499 -0.1381
11299TIP3    H155388   3.691   2.774  16.482  0.0471  0.8834  0.1300
11299TIP3    H255389   3.841   2.790  16.489  0.1317 -0.3650  1.5760
11300TIP3   OH255390   2.214   3.193   4.206  0.1959 -0.0828 -0.3869
11300TIP3    H155391   2.201   3.110   4.160  2.8020 -0.2796 -0.8316
11300TIP3    H255392   2.204   3.259   4.138 -0.2813 -0.1181 -0.3532
11301TIP3   OH255393   5.242   5.292   2.050 -0.5907 -0.4999  0.2754
11301TIP3    H155394   5.259   5.204   2.082 -0.3222 -0.0708  1.3133
11301TIP3    H255395   5.261   5.350   2.124 -0.4684  0.4549 -0.4825
11302TIP3   OH255396   1.139   3.679   6.557 -0.4309 -0.1145  0.0928
11302TIP3    H155397   1.097   3.700   6.640  0.0333 -0.3462  0.3841
11302TIP3    H255398   1.098   3.739   6.494 -0.4583  0.3742  0.5687
11303TIP3   OH255399   4.709   1.143   0.125 -0.0502 -0.9304 -0.0689
11303TIP3    H155400   4.718   1.067   0.068  0.8738 -1.3275  0.5860
11303TIP3    H255401   4.656   1.112   0.199  1.4496 -1.3331  0.8591
11304TIP3   OH255402   4.112   1.725   1.315  0.0196  0.2058  0.4278
11304TIP3    H155403   4.023   1.697   1.338  0.2163  0.3404  1.4139
11304TIP3    H255404   4.142   1.773   1.393  0.5342  1.1459 -0.3452
11305TIP3   OH255405   4.262   0.395   0.996  0.5281  0.1131  0.1059
11305TIP3    H155406   4.190   0.388   0.934 -0.4941  1.2479  1.1491
11305TIP3    H255407   4.339   0.367   0.946 -0.7689 -2.1707 -0.7264
11306TIP3   OH255408   4.441   3.753  17.255  0.0514 -0.4396 -0.3308
11306TIP3    H155409   4.355   3.728  17.288 -0.0190 -1.9248 -1.5721
11306TIP3    H255410   4.431   3.753  17.159  0.9145  1.2884 -0.4297
11307TIP3   OH255411   0.839   5.277  12.412  0.2990  0.5215  0.1284
11307TIP3    H155412   0.875   5.191  12.388  0.0740  0.8753 -1.5838
11307TIP3    H255413   0.915   5.330  12.435  0.5518  0.1981  0.0335
11308TIP3   OH255414   4.013   4.943  12.329  0.6823 -1.1879 -0.9267
11308TIP3    H155415   3.930   4.991  12.318  1.7535  0.9126 -0.1708
11308TIP3    H255416   4.043   4.927  12.240 -0.1760 -1.2876 -1.2020
11309TIP3   OH255417   2.251   1.323  16.255  0.4949 -0.3198 -0.0582
11309TIP3    H155418   2.330   1.296  16.300  0.0948  0.5952  1.2301
11309TIP3    H255419   2.181   1.271  16.295  0.3107 -0.4396 -0.5254
11310TIP3   OH255420   3.189   5.701   1.272  0.0244 -0.3608 -0.2244
11310TIP3    H155421   3.095   5.716   1.270  0.4810  2.7485 -0.8166
11310TIP3    H255422   3.207   5.644   1.198 -1.4066 -1.0523 -0.0386
11311TIP3   OH255423   1.069   4.857  11.974  0.2860  0.2479  0.3966
11311TIP3    H155424   1.158   4.880  12.001  0.4575 -0.6776  0.6267
11311TIP3    H255425   1.063   4.763  11.989 -0.6575  0.2675  0.1612
11312TIP3   OH255426   4.442   1.219  11.613  0.1987  0.3393  0.0323
11312TIP3    H155427   4.434   1.310  11.585  0.6943  0.4671  0.2968
11312TIP3    H255428   4.390   1.214  11.693 -0.7056  0.1271 -0.5732
11313TIP3   OH255429   5.199   3.995   1.604  0.1932  0.1204  0.4235
11313TIP3    H155430   5.197   4.091   1.610 -1.0171  0.0826  0.8573
11313TIP3    H255431   5.231   3.966   1.689  1.7475  0.1747 -0.1391
11314TIP3   OH255432   5.886   2.019   5.200 -0.1881  0.3027 -0.1930
11314TIP3    H155433   5.963   1.975   5.164  0.2917  1.2124 -0.2901
11314TIP3    H255434   5.812   1.967   5.169  0.2472  0.8556 -2.1695
11315TIP3   OH255435   2.425   1.202  13.788  0.0859 -0.4184 -0.0215
11315TIP3    H155436   2.421   1.283  13.839  0.0364 -0.6560  0.3494
11315TIP3    H255437   2.514   1.199  13.755 -0.1654  0.2491 -0.7841
11316TIP3   OH255438   6.353   0.462   3.771  0.0126 -0.5154 -0.2017
11316TIP3    H155439   6.273   0.433   3.727  0.4688  1.1811 -2.2227
11316TIP3    H255440   6.354   0.557   3.757  0.8389 -0.1137  2.4203
11317TIP3   OH255441   4.394   0.497  13.630  0.0387  0.2597 -0.0058
11317TIP3    H155442   4.354   0.496  13.543  0.9265 -1.5807 -0.4243
11317TIP3    H255443   4.355   0.423  13.676  3.3798 -2.0344 -0.6735
11318TIP3   OH255444   4.826   3.140   0.230  0.0736 -0.3246  0.2056
11318TIP3    H155445   4.913   3.157   0.264 -0.5745  0.4878  1.4991
11318TIP3    H255446   4.774   3.216   0.257 -0.6818 -0.0785 -1.8262
11319TIP3   OH255447   1.295   4.826   5.341 -0.0766  0.3110 -0.3799
11319TIP3    H155448   1.383   4.790   5.357 -0.8508 -1.3057  0.3173
11319TIP3    H255449   1.245   4.752   5.308 -1.9037  0.5237  1.7890
11320TIP3   OH255450   5.817   6.207   3.722  0.7925 -0.6594  0.5543
11320TIP3    H155451   5.848   6.129   3.768 -1.5862 -1.5204  0.7649
11320TIP3    H255452   5.732   6.226   3.761  1.3736  2.1287  0.5664
11321TIP3   OH255453   4.934   6.722  12.618 -1.1680  0.1741 -0.7502
11321TIP3    H155454   4.983   6.771  12.685 -1.1505 -0.1839 -0.5036
11321TIP3    H255455   5.001   6.672  12.571 -1.0523  1.1762 -1.6812
11322TIP3   OH255456   6.349   6.756  11.192  0.3179  0.3686  0.1311
11322TIP3    H155457   6.302   6.706  11.126  1.5561 -0.5393 -0.0623
11322TIP3    H255458   6.389   6.829  11.144  1.0831 -0.1997 -0.0949
11323TIP3   OH255459   5.114   5.317  14.077  0.3102 -0.0676  0.3050
11323TIP3    H155460   5.075   5.242  14.123  1.6241 -0.4607  0.7843
11323TIP3    H255461   5.142   5.282  13.993  1.7105 -0.3276  0.8695
11324TIP3   OH255462   0.491   0.884  15.747 -0.0343  0.0257 -0.6767
11324TIP3    H155463   0.526   0.970  15.769  1.0426 -0.5111 -0.2231
11324TIP3    H255464   0.397   0.892  15.759  0.2817  0.3995  2.0134
11325TIP3   OH255465   4.432   4.234   5.598  0.2370  0.0718  0.3605
11325TIP3    H155466   4.385   4.153   5.615  0.6427 -0.0610  0.8633
11325TIP3    H255467   4.519   4.220   5.637 -0.2048  1.3494  1.8698
11326TIP3   OH255468   0.246   6.815  14.796  0.1228  0.4035 -0.0157
11326TIP3    H155469   0.322   6.782  14.748 -1.5527 -1.0791 -1.7274
11326TIP3    H255470   0.230   6.902  14.759  0.8169  0.5961  0.1436
11327TIP3   OH255471   1.147   1.982  12.524 -0.8098  0.3519  0.4663
11327TIP3    H155472   1.133   2.050  12.459 -1.4355  0.3010  0.5420
11327TIP3    H255473   1.078   1.918  12.507 -1.6494  0.8689  1.8664
11328TIP3   OH255474   4.814   4.029  14.602  0.1415 -0.6360 -0.2837
11328TIP3    H155475   4.882   4.055  14.540  0.0371 -0.6979 -0.4239
11328TIP3    H255476   4.781   3.946  14.570 -2.2406  0.9061 -2.0400
11329TIP3   OH255477   5.126   0.325  12.193  0.2295 -0.3719  0.1794
11329TIP3    H155478   5.207   0.289  12.230 -1.0741 -1.6276  1.9530
11329TIP3    H255479   5.082   0.249  12.155 -1.2173 -0.1434  1.3770
11330TIP3   OH255480   4.868   6.689  15.446 -0.1678 -0.0489 -0.4110
11330TIP3    H155481   4.864   6.629  15.372 -0.3700  0.4162 -0.7834
11330TIP3    H255482   4.822   6.768  15.415  0.0440  0.2711  0.0881
11331TIP3   OH255483   3.095   0.971  16.482 -0.4064  0.6032  0.1222
11331TIP3    H155484   3.064   0.941  16.397 -0.1318 -0.1414  0.2801
11331TIP3    H255485   3.178   0.925  16.495 -0.5694  0.5159  0.8993
11332TIP3   OH255486   6.024   2.585   5.801 -1.1626  0.0664  0.2761
11332TIP3    H155487   5.998   2.566   5.892  2.1212 -1.0760  1.0332
11332TIP3    H255488   6.042   2.679   5.801 -2.1116  0.2521  0.5643
11333TIP3   OH255489   0.337   5.834  16.416 -0.0359  0.2059 -0.0896
11333TIP3    H155490   0.422   5.806  16.450 -0.6310 -1.2473  0.2759
11333TIP3    H255491   0.307   5.759  16.365 -0.2111  1.4713 -1.8987
11334TIP3   OH255492   5.138   1.544   4.901  0.2427  0.0591  0.4534
11334TIP3    H155493   5.115   1.608   4.968  0.4752 -1.0772  1.6486
11334TIP3    H255494   5.179   1.595   4.831  0.3825  1.2027  1.3588
11335TIP3   OH255495   1.694   1.796   1.849 -0.2760 -0.5248  0.4125
11335TIP3    H155496   1.763   1.732   1.835 -0.9537 -0.8560 -1.5354
11335TIP3    H255497   1.739   1.881   1.844 -0.0514 -0.7307 -1.1192
11336TIP3   OH255498   5.261   0.064  14.557  0.2698 -0.2115 -0.2462
11336TIP3    H155499   5.250  -0.030  14.541  0.5585 -0.2027 -0.4891
11336TIP3    H255500   5.178   0.102  14.531  0.4232 -0.3047 -0.8752
11337TIP3   OH255501   2.391   3.768  16.543  0.5912 -0.0717  0.4165
11337TIP3    H155502   2.455   3.699  16.528  0.4042 -0.1075 -0.2404
11337TIP3    H255503   2.332   3.764  16.467  0.6376  0.8638  0.3149
11338TIP3   OH255504   5.405   0.588   6.515 -0.3787 -0.3774 -0.1088
11338TIP3    H155505   5.453   0.506   6.503 -2.0200 -1.3021 -0.4668
11338TIP3    H255506   5.373   0.610   6.427 -0.8028  0.1134  0.1665
11339TIP3   OH255507   1.588   3.397   2.722  0.4420 -0.0427  0.1095
11339TIP3    H155508   1.531   3.420   2.649  1.8066  2.2764 -0.2605
11339TIP3    H255509   1.529   3.390   2.797 -0.7445 -0.8277 -0.8862
11340TIP3   OH255510   5.206   2.394  13.644 -0.3063  0.2022 -0.4233
11340TIP3    H155511   5.169   2.312  13.675 -0.6067  0.7535  0.6807
11340TIP3    H255512   5.281   2.368  13.590 -0.7887 -0.8102 -0.6128
11341TIP3   OH255513   4.439   4.706   2.674  0.2257  0.2367 -0.5572
11341TIP3    H155514   4.396   4.790   2.692  1.9914  1.1135 -0.3805
11341TIP3    H255515   4.518   4.708   2.728  1.3890 -0.6129 -2.2102
11342TIP3   OH255516   4.445   0.096  15.162  0.3310 -0.4242 -0.7829
11342TIP3    H155517   4.467   0.043  15.238  0.3163  1.4670  0.5926
11342TIP3    H255518   4.520   0.155  15.151 -2.1873  3.5203  1.6363
11343TIP3   OH255519   0.546   2.163   2.538  0.4546 -0.5321  1.0025
11343TIP3    H155520   0.567   2.070   2.526 -0.1981 -0.4148 -1.2028
11343TIP3    H255521   0.451   2.164   2.547  0.2556  0.1001 -0.9871
11344TIP3   OH255522   1.414   5.956   4.769  0.2830 -0.8928  0.0785
11344TIP3    H155523   1.457   5.871   4.764  0.4955 -0.8140  0.5047
11344TIP3    H255524   1.340   5.942   4.828 -1.4359 -1.5046 -2.1676
11345TIP3   OH255525   2.264   2.569  12.401 -0.3309 -0.4706 -0.1383
11345TIP3    H155526   2.276   2.491  12.347 -1.2559 -0.3398 -0.5297
11345TIP3    H255527   2.173   2.564  12.431 -0.3766  0.4200 -0.1146
11346TIP3   OH255528   3.216   3.766   3.046 -0.1244 -0.1546 -0.4044
11346TIP3    H155529   3.132   3.804   3.021  0.2351  0.6103 -0.4544
11346TIP3    H255530   3.279   3.805   2.986  0.2491 -0.8242 -0.4508
11347TIP3   OH255531   3.418   0.707   5.284 -0.3710  0.1199  0.4128
11347TIP3    H155532   3.501   0.676   5.322 -0.7667 -0.4841  0.7926
11347TIP3    H255533   3.350   0.659   5.332 -1.0397  2.0992  1.5130
11348TIP3   OH255534   2.448   0.993  11.542  0.0819  0.6886  0.1287
11348TIP3    H155535   2.456   1.057  11.471 -1.0893  0.7930  0.0827
11348TIP3    H255536   2.521   0.932  11.527  1.3941  2.1682  0.3516
11349TIP3   OH255537   5.352   3.981  14.793 -0.4085 -0.5455 -0.2624
11349TIP3    H155538   5.346   3.928  14.872 -1.4029  0.7897  0.5854
11349TIP3    H255539   5.261   3.994  14.766 -0.2635  1.6997  0.2294
11350TIP3   OH255540   4.643   4.048  14.299  0.1631 -0.3220  0.1740
11350TIP3    H155541   4.573   4.095  14.254 -0.9162 -1.2312  0.8800
11350TIP3    H255542   4.712   4.113  14.310 -0.0928  0.2673 -1.5789
11351TIP3   OH255543   6.460   0.343  11.385 -0.0103  0.1457 -0.1316
11351TIP3    H155544   6.545   0.371  11.350 -0.4972  0.5380 -1.0181
11351TIP3    H255545   6.431   0.274  11.326 -1.3722  1.6066 -1.2186
11352TIP3   OH255546   2.389   6.469   5.086 -0.1366  0.1566  0.2434
11352TIP3    H155547   2.307   6.443   5.129 -0.3709  0.4362 -0.0274
11352TIP3    H255548   2.458   6.428   5.138 -0.4363  0.2141  0.6882
11353TIP3   OH255549   0.702   1.211   0.963  0.4175  0.2275  0.3056
11353TIP3    H155550   0.730   1.120   0.949  2.8298  0.9160  0.2998
11353TIP3    H255551   0.706   1.222   1.058  0.3621  0.3861  0.2889
11354TIP3   OH255552   2.729   0.757   3.380 -0.4815  0.2738  0.1952
11354TIP3    H155553   2.677   0.697   3.328 -2.7146  1.0364  1.4917
11354TIP3    H255554   2.774   0.811   3.315 -1.3450 -0.3616 -0.9548
11355TIP3   OH255555   4.561   0.535   5.749  0.0976 -0.1975 -0.2177
11355TIP3    H155556   4.560   0.562   5.841  0.9407 -0.5066 -0.1168
11355TIP3    H255557   4.492   0.588   5.709  1.1301  1.5037  0.1531
11356TIP3   OH255558   0.573   1.290   4.942 -0.1804  0.1455 -0.4484
11356TIP3    H155559   0.511   1.358   4.968 -1.9143 -1.8209  0.8166
11356TIP3    H255560   0.650   1.305   4.995 -0.6273  1.0045 -0.0350
11357TIP3   OH255561   1.332   0.552  11.503  0.2395 -0.2871  0.2692
11357TIP3    H155562   1.402   0.618  11.508 -0.7726  0.7825  0.8329
11357TIP3    H255563   1.347   0.507  11.421  1.6459 -0.1311  0.4212
11358TIP3   OH255564   6.684   6.790   1.151 -0.5618  0.0784 -0.4248
11358TIP3    H155565   6.684   6.721   1.217  0.0319  1.2515  0.8327
11358TIP3    H255566   6.644   6.865   1.195 -1.7961  0.3630 -1.9735
11359TIP3   OH255567   1.905   3.736  13.393 -0.4074  0.3188  0.5120
11359TIP3    H155568   1.994   3.709  13.416 -0.1012  1.0598  0.2181
11359TIP3    H255569   1.906   3.831  13.402 -0.1608  0.6803 -2.8785
11360TIP3   OH255570   3.078   0.003  16.094  0.6323  0.2892  0.0504
11360TIP3    H155571   3.115   0.017  16.007  0.5118 -2.4034 -0.4897
11360TIP3    H255572   3.133   0.055  16.152  2.2334  0.2086 -1.3585
11361TIP3   OH255573   6.318   5.936   1.014 -0.5249  0.7209  0.5186
11361TIP3    H155574   6.312   5.921   0.920  0.8444 -2.1114  0.8276
11361TIP3    H255575   6.228   5.956   1.041 -1.1825  0.0968 -1.1643
11362TIP3   OH255576   0.057   2.287  13.366 -0.5919  0.3794  0.0667
11362TIP3    H155577   0.148   2.270  13.341 -0.1578  1.4132  0.9260
11362TIP3    H255578   0.046   2.239  13.447 -0.5054  1.0760  0.4935
11363TIP3   OH255579   0.418   3.561   2.717  0.6184  0.2380  0.4487
11363TIP3    H155580   0.336   3.511   2.714 -0.4489  1.8262  1.6583
11363TIP3    H255581   0.465   3.535   2.638 -0.6644 -1.3740  0.1814
11364TIP3   OH255582   4.151   5.065   2.607  0.3380  0.1207  0.1138
11364TIP3    H155583   4.119   5.138   2.554 -1.4588 -0.2913  0.5948
11364TIP3    H255584   4.115   4.987   2.564 -0.0414 -0.3031  1.1864
11365TIP3   OH255585   2.996   1.894   2.383 -0.2592  0.1416  0.2264
11365TIP3    H155586   3.026   1.931   2.300  1.0402  1.0474  1.0877
11365TIP3    H255587   3.023   1.802   2.380  1.8437  0.7181  0.5991
11366TIP3   OH255588   2.671   4.429  13.658  0.1990 -0.3525 -0.2575
11366TIP3    H155589   2.709   4.477  13.731 -2.6851 -0.5252  1.4341
11366TIP3    H255590   2.598   4.483  13.628 -0.9882 -2.0468 -0.5376
11367TIP3   OH255591   6.582   0.872   3.560 -0.0289 -0.0429 -0.0110
11367TIP3    H155592   6.608   0.782   3.539 -1.1573 -0.7837  1.6449
11367TIP3    H255593   6.630   0.893   3.640 -0.2906  0.5743 -0.0148
11368TIP3   OH255594   2.535   0.729  10.965 -0.5440  0.4286  0.1697
11368TIP3    H155595   2.608   0.679  11.001 -0.5670 -0.0538 -0.4416
11368TIP3    H255596   2.533   0.810  11.016 -0.0584  0.1125  0.6872
11369TIP3   OH255597   3.928   3.081  13.410 -0.0077  0.3135 -0.0220
11369TIP3    H155598   3.940   3.172  13.383 -0.8636 -0.0818 -1.8092
11369TIP3    H255599   3.837   3.075  13.437 -0.1119 -0.1374 -0.4526
11370TIP3   OH255600   3.318   3.841   3.761 -0.5580  0.7336  0.2876
11370TIP3    H155601   3.392   3.782   3.742 -0.1849  1.4362 -0.4620
11370TIP3    H255602   3.358   3.914   3.807 -0.7984  1.0762 -0.0463
11371TIP3   OH255603   6.038   5.099  15.972  0.1325 -0.1248  0.6404
11371TIP3    H155604   6.109   5.093  16.037 -0.6895  0.7851  1.6577
11371TIP3    H255605   6.083   5.108  15.888  1.2525  1.6385  1.3926
11372TIP3   OH255606   3.841   6.003   0.920 -0.0552 -0.1007 -0.0628
11372TIP3    H155607   3.843   5.908   0.922 -0.7082 -0.1623 -1.5004
11372TIP3    H255608   3.848   6.025   0.827 -1.5458  1.2047  0.1217
11373TIP3   OH255609   1.376   1.905  12.654 -0.2866 -0.7041  0.3274
11373TIP3    H155610   1.304   1.953  12.613  0.4720 -0.1493 -0.3661
11373TIP3    H255611   1.340   1.876  12.738 -0.6826  1.3255  0.9018
11374TIP3   OH255612   6.695   4.253   2.686 -0.0013 -0.4688  0.1582
11374TIP3    H155613   6.610   4.218   2.713  0.4784 -2.3567 -0.7078
11374TIP3    H255614   6.721   4.198   2.612  1.7702  0.3848  0.1235
11375TIP3   OH255615   0.048   4.328   1.019 -0.3020  0.0957  0.6346
11375TIP3    H155616   0.111   4.399   1.006  0.2987 -0.0938  2.3529
11375TIP3    H255617   0.040   4.287   0.933  2.7644 -0.5682  0.6058
11376TIP3   OH255618   1.055   4.589  15.163  0.4344  0.4360  0.2077
11376TIP3    H155619   1.047   4.588  15.259  1.4386  1.3964  0.3155
11376TIP3    H255620   0.972   4.554  15.132 -0.8815  2.3607  1.4080
11377TIP3   OH255621   1.252   2.654   4.997  0.7043  0.1804 -0.7161
11377TIP3    H155622   1.317   2.594   4.960 -0.2065 -1.3780  0.1490
11377TIP3    H255623   1.217   2.607   5.073 -1.2874  1.0862 -1.0412
11378TIP3   OH255624   3.719   0.012   4.529 -0.0938  0.2036  0.0366
11378TIP3    H155625   3.626   0.033   4.526 -0.1765 -0.4668 -2.3804
11378TIP3    H255626   3.737  -0.003   4.622 -2.4609 -0.0498  0.4727
11379TIP3   OH255627   5.833   6.645  11.459  0.1723 -0.1549 -0.5439
11379TIP3    H155628   5.791   6.710  11.516  3.3129  0.9412  0.6201
11379TIP3    H255629   5.896   6.696  11.408  0.3036 -1.7938 -2.0492
11380TIP3   OH255630   1.964   0.336   6.029 -0.6309 -0.2940 -0.1827
11380TIP3    H155631   2.030   0.321   6.096 -0.7053  0.9867  0.1971
11380TIP3    H255632   1.936   0.248   6.003 -0.8672 -0.8188  1.7334
11381TIP3   OH255633   1.639   2.519   2.769 -0.2437 -0.5361 -0.0303
11381TIP3    H155634   1.698   2.448   2.743 -0.0297 -0.7124  0.9267
11381TIP3    H255635   1.674   2.597   2.725  0.1682 -0.8124 -0.1938
11382TIP3   OH255636   0.509   1.724  13.297 -0.1592  0.7455  0.8209
11382TIP3    H155637   0.479   1.634  13.284 -2.2842  1.0193  3.2351
11382TIP3    H255638   0.602   1.715  13.319 -0.6949 -1.0225  2.5448
11383TIP3   OH255639   0.647   4.732   0.224 -0.3130  0.1276 -0.1753
11383TIP3    H155640   0.634   4.674   0.149 -0.0201  0.2785 -0.3435
11383TIP3    H255641   0.558   4.747   0.258 -0.2690 -1.3626  0.6061
11384TIP3   OH255642   2.082   1.008  11.229  0.0827 -0.0161  0.0372
11384TIP3    H155643   2.074   1.040  11.318  1.2308 -0.0606  0.1627
11384TIP3    H255644   2.176   0.998  11.215  0.0376  1.7679 -1.7904
11385TIP3   OH255645   1.919   5.988   1.605  0.1004 -1.2979  0.5131
11385TIP3    H155646   1.986   6.055   1.592 -1.4967  0.4381  1.0324
11385TIP3    H255647   1.872   5.984   1.521 -1.9375  0.6702  1.5046
11386TIP3   OH255648   0.283   4.867  12.034 -0.1497 -0.4576 -0.1638
11386TIP3    H155649   0.278   4.777  12.067 -0.7532  0.1317  1.4120
11386TIP3    H255650   0.211   4.875  11.972 -0.3851 -0.9155  0.0525
11387TIP3   OH255651   6.664   5.341  12.643  0.4673  0.4407  0.0689
11387TIP3    H155652   6.684   5.261  12.595 -0.0495  1.0693 -1.2182
11387TIP3    H255653   6.736   5.351  12.706  1.3461 -0.1951 -0.8328
11388TIP3   OH255654   6.375   5.879  17.168 -0.4093  0.3358  0.5943
11388TIP3    H155655   6.306   5.935  17.131  0.1227 -0.3036 -1.4519
11388TIP3    H255656   6.450   5.937  17.178 -0.0658  0.1861 -0.8940
11389TIP3   OH255657   4.073   5.402  11.183  0.5214  0.1238 -0.3363
11389TIP3    H155658   3.982   5.374  11.187  0.3681  0.6771  0.0524
11389TIP3    H255659   4.121   5.335  11.232  0.0914  0.7891  1.0207
11390TIP3   OH255660   3.975   3.454  14.222  0.3089  0.6474 -0.3047
11390TIP3    H155661   3.988   3.416  14.309  0.3078 -1.3846 -1.1718
11390TIP3    H255662   4.063   3.461  14.185  0.2015  0.3250 -0.6247
11391TIP3   OH255663   2.827   2.098   5.091 -0.5525 -0.4946  0.0151
11391TIP3    H155664   2.761   2.163   5.114 -2.0493 -2.8508  2.7003
11391TIP3    H255665   2.902   2.121   5.146 -0.9167 -0.7311  0.6235
11392TIP3   OH255666   0.022   3.288   4.878  0.0275 -0.5300  0.0363
11392TIP3    H155667   0.094   3.234   4.845 -0.4810 -1.0234 -0.2697
11392TIP3    H255668  -0.017   3.236   4.948  0.6053  0.1774  0.8995
11393TIP3   OH255669   4.833   1.234   4.057  0.2808  0.0243 -0.0156
11393TIP3    H155670   4.916   1.242   4.103  0.9626 -1.9549 -0.8827
11393TIP3    H255671   4.834   1.147   4.017 -1.5169  0.5702 -1.3811
11394TIP3   OH255672   5.969   0.735   3.464  0.2585 -0.1520 -0.8600
11394TIP3    H155673   6.000   0.725   3.554 -0.4747 -0.7231 -0.6662
11394TIP3    H255674   5.996   0.823   3.439 -1.9298  1.0701  0.8671
11395TIP3   OH255675   3.763   0.727   3.079  0.0550  0.3989  0.0235
11395TIP3    H155676   3.716   0.803   3.113 -1.1450  0.1147 -0.9581
11395TIP3    H255677   3.855   0.754   3.077 -0.3110  1.6629  0.0848
11396TIP3   OH255678   5.672   3.627  16.098  0.5357  0.5478  0.1530
11396TIP3    H155679   5.767   3.623  16.106  0.6332  0.7161 -0.8518
11396TIP3    H255680   5.645   3.537  16.082  0.5379  0.5106  0.3654
11397TIP3   OH255681   0.035   6.450  13.977 -0.0581  0.5496  0.0117
11397TIP3    H155682   0.051   6.376  13.919 -1.0846 -0.0137  0.4270
11397TIP3    H255683  -0.009   6.515  13.922 -0.3507  0.3139 -0.0375
11398TIP3   OH255684   1.386   5.175   5.644 -0.6362 -0.1659  0.2988
11398TIP3    H155685   1.343   5.211   5.721  1.4719 -0.6827  1.7454
11398TIP3    H255686   1.420   5.090   5.673  0.6907 -0.1017 -1.0207
11399TIP3   OH255687   5.214   5.684  13.941  0.6859  0.7750 -0.4130
11399TIP3    H155688   5.121   5.676  13.923  0.5463  1.8065 -0.2122
11399TIP3    H255689   5.228   5.634  14.022  0.6510 -0.8666 -1.4176
11400TIP3   OH255690   2.177   1.607  16.379 -0.2441 -0.6099 -0.2016
11400TIP3    H155691   2.257   1.617  16.430 -0.6805 -1.7459  0.7248
11400TIP3    H255692   2.166   1.512  16.369 -1.0380 -0.4444 -1.0199
11401TIP3   OH255693   2.622   2.256  12.493  0.0947 -0.2756 -0.1295
11401TIP3    H155694   2.641   2.163  12.480  0.3211 -0.6134  2.3843
11401TIP3    H255695   2.706   2.296  12.512 -0.2365  0.1397  0.4775
11402TIP3   OH255696   0.776   1.948  12.680 -0.3635  0.1110 -0.1277
11402TIP3    H155697   0.838   1.876  12.670 -1.1608 -0.7186  0.7269
11402TIP3    H255698   0.729   1.928  12.762  0.5434  2.4563  1.0177
11403TIP3   OH255699   1.104   4.362   5.052 -0.3684  0.4971 -0.3937
11403TIP3    H155700   1.163   4.309   5.106  0.5528  1.0523 -0.8455
11403TIP3    H255701   1.120   4.333   4.962 -3.2138 -1.7304 -0.2993
11404TIP3   OH255702   1.590   1.115  10.740 -0.5304  0.4017 -0.1525
11404TIP3    H155703   1.623   1.156  10.660 -0.1441 -1.5513 -1.0247
11404TIP3    H255704   1.510   1.163  10.760  0.6559  2.5396 -0.2830
11405TIP3   OH255705   5.889   3.938   0.646 -0.8417  0.3333 -0.3087
11405TIP3    H155706   5.888   3.847   0.678  0.6982  0.1231 -0.8305
11405TIP3    H255707   5.797   3.957   0.627 -1.3267 -0.7402  0.8515
11406TIP3   OH255708   3.173   3.661   4.173  0.1801  0.1019  0.0633
11406TIP3    H155709   3.160   3.699   4.086  0.0114 -0.7347 -0.2791
11406TIP3    H255710   3.215   3.577   4.157 -0.8074 -0.5298  0.7271
11407TIP3   OH255711   0.162   4.019   3.622  0.2877  0.0606  0.3545
11407TIP3    H155712   0.164   4.111   3.646 -1.2791 -0.3082  2.0905
11407TIP3    H255713   0.088   4.012   3.562  0.5303 -0.0304  0.0660
11408TIP3   OH255714   5.017   6.007  15.134  0.3203  0.0445 -0.4058
11408TIP3    H155715   5.029   5.919  15.099  0.0037  0.3594 -1.3245
11408TIP3    H255716   5.036   5.999  15.228  0.5421 -0.9434 -0.5329
11409TIP3   OH255717   1.448   3.100  11.520 -0.3622 -0.2560  0.0332
11409TIP3    H155718   1.478   3.181  11.479 -0.0014  0.0223  0.8335
11409TIP3    H255719   1.528   3.046  11.526 -0.5455 -0.5599 -0.2394
11410TIP3   OH255720   6.775   2.757  10.661 -0.3081  0.3617  0.5767
11410TIP3    H155721   6.807   2.688  10.602 -1.7878  0.7298 -0.6618
11410TIP3    H255722   6.759   2.832  10.605  1.6438  1.9054  1.9673
11411TIP3   OH255723   2.228   1.893  11.951  0.7803  0.2084 -0.1277
11411TIP3    H155724   2.188   1.964  12.001  2.1205  1.5037 -0.8478
11411TIP3    H255725   2.209   1.915  11.860  1.2646 -0.3119 -0.3539
11412TIP3   OH255726   2.730   1.528   0.797 -0.7338 -0.2941  0.4999
11412TIP3    H155727   2.801   1.534   0.734 -0.1254  1.8965  1.3566
11412TIP3    H255728   2.652   1.509   0.744 -0.0597  0.4991 -0.7963
11413TIP3   OH255729   0.673   5.391  11.222  0.2603  0.7624  0.1976
11413TIP3    H155730   0.627   5.421  11.300  1.7175  0.0392  1.3606
11413TIP3    H255731   0.739   5.459  11.205 -0.8755  1.5536 -1.1734
11414TIP3   OH255732   0.518   3.794  16.259 -0.1029 -0.0765  0.0417
11414TIP3    H155733   0.607   3.831  16.256  0.2947 -1.0552 -0.5677
11414TIP3    H255734   0.519   3.736  16.335 -0.0417 -0.5317 -0.3068
11415TIP3   OH255735   5.901   5.407   4.134 -0.5875 -0.2862  0.5111
11415TIP3    H155736   5.890   5.405   4.039 -2.4402 -0.3435  0.7153
11415TIP3    H255737   5.996   5.414   4.147 -0.1155 -2.6291 -1.3176
11416TIP3   OH255738   6.404   5.206   1.617  0.5604  0.0340 -0.3069
11416TIP3    H155739   6.485   5.170   1.581 -0.1715 -1.0178 -0.9158
11416TIP3    H255740   6.355   5.235   1.541 -1.0578 -2.3185 -0.1871
11417TIP3   OH255741   0.193   5.559  12.413  0.1705 -0.9633 -0.2014
11417TIP3    H155742   0.271   5.614  12.406 -0.2669 -0.5902 -2.6067
11417TIP3    H255743   0.227   5.470  12.412  0.7601 -0.8205  2.0782
11418TIP3   OH255744   5.887   0.882  13.422  0.7823  0.0368  0.1712
11418TIP3    H155745   5.880   0.975  13.400 -1.2534  0.1932  1.3453
11418TIP3    H255746   5.894   0.838  13.337  0.9646  1.1923 -0.4219
11419TIP3   OH255747   4.963   2.726   1.032 -0.5520 -0.1115  0.2259
11419TIP3    H155748   5.022   2.677   1.089 -0.7518  0.2104  0.7084
11419TIP3    H255749   5.015   2.801   1.003 -0.7556  0.2242  0.7285
11420TIP3   OH255750   1.245   2.199   3.628 -0.2802 -0.5395 -0.2219
11420TIP3    H155751   1.218   2.109   3.608 -0.7610 -0.3404 -0.4669
11420TIP3    H255752   1.171   2.253   3.601  0.4014  0.0164 -0.9979
11421TIP3   OH255753   5.145   5.874   4.475 -0.4896 -0.2471 -0.9906
11421TIP3    H155754   5.068   5.924   4.504  0.3722 -0.0319  1.0682
11421TIP3    H255755   5.190   5.933   4.415  0.3321  1.3898  1.1581
11422TIP3   OH255756   4.240   5.072   0.139 -0.5980  0.8481  0.3048
11422TIP3    H155757   4.323   5.048   0.180 -1.1248  1.4601  1.7807
11422TIP3    H255758   4.174   5.030   0.194 -1.3066  1.2875 -0.2095
11423TIP3   OH255759   0.445   2.839   4.140  0.0472 -0.3998  0.2782
11423TIP3    H155760   0.500   2.912   4.170  0.8169 -1.2333  0.9329
11423TIP3    H255761   0.465   2.768   4.201 -0.9742 -1.0473 -0.1330
11424TIP3   OH255762   2.742   1.882  10.919 -0.1237  0.5482  0.0262
11424TIP3    H155763   2.732   1.966  10.876  0.0345 -0.1977 -1.4937
11424TIP3    H255764   2.792   1.902  10.999 -1.1394  2.0546  0.3087
11425TIP3   OH255765   2.860   3.217  11.525  0.4571  0.4668  0.4286
11425TIP3    H155766   2.854   3.279  11.452  2.7527  1.8838  1.4035
11425TIP3    H255767   2.814   3.261  11.597  0.2853  0.1154  0.5363
11426TIP3   OH255768   4.048   1.147  16.244 -0.4715  0.1349 -0.3565
11426TIP3    H155769   4.028   1.071  16.298 -1.3312  1.2059  0.8434
11426TIP3    H255770   4.040   1.115  16.154  0.5945 -1.5534  0.1246
11427TIP3   OH255771   2.600   4.986  14.652 -0.0960  0.1916  0.0407
11427TIP3    H155772   2.597   5.023  14.564  0.7987  0.8372  0.2711
11427TIP3    H255773   2.673   4.925  14.650  0.3603  0.7086  0.5153
11428TIP3   OH255774   1.325   0.422   4.563  0.2343  0.2381  0.1786
11428TIP3    H155775   1.334   0.415   4.658 -1.4212 -2.4939  0.2196
11428TIP3    H255776   1.298   0.334   4.535 -1.7889  1.6232 -2.5076
11429TIP3   OH255777   1.703   3.624  11.495  0.1602  0.4020  0.2919
11429TIP3    H155778   1.703   3.539  11.451  1.2807 -0.1383  1.3146
11429TIP3    H255779   1.708   3.603  11.588 -0.3618  1.5707  0.5863
11430TIP3   OH255780   1.143   6.442  12.619  0.4324 -0.8238  0.2557
11430TIP3    H155781   1.208   6.501  12.581 -0.8080  0.4872  0.1287
11430TIP3    H255782   1.062   6.462  12.572  0.2156 -3.3271 -0.4550
11431TIP3   OH255783   5.597   3.631   5.610  0.2001  0.2438 -0.1553
11431TIP3    H155784   5.503   3.625   5.629 -0.0590 -0.9532 -1.6589
11431TIP3    H255785   5.617   3.724   5.619 -1.8308  1.0211 -2.7896
11432TIP3   OH255786   4.908   2.024   1.292  0.3853  0.3414  0.0461
11432TIP3    H155787   4.981   1.965   1.272  0.0963  0.6477 -2.0300
11432TIP3    H255788   4.947   2.092   1.348  1.7912  0.7063 -1.3363
11433TIP3   OH255789   3.733   5.519  12.590  0.8456 -0.1720 -1.0407
11433TIP3    H155790   3.826   5.522  12.614  0.2640 -0.7424  1.4726
11433TIP3    H255791   3.690   5.572  12.657 -0.6209  0.3442 -2.3651
11434TIP3   OH255792   6.419   5.192   0.682  0.0565 -0.6534 -0.4337
11434TIP3    H155793   6.476   5.269   0.681  0.1752 -0.6461  2.6309
11434TIP3    H255794   6.476   5.119   0.656  0.9926 -0.3565  0.7759
11435TIP3   OH255795   0.741   4.525  10.876 -0.0028  0.0264  0.0701
11435TIP3    H155796   0.677   4.588  10.844  0.3506  0.0705 -0.5447
11435TIP3    H255797   0.825   4.556  10.842  0.1939 -0.6815 -0.0919
11436TIP3   OH255798   5.631   3.005   1.944  0.0189 -0.0332 -0.4952
11436TIP3    H155799   5.637   3.101   1.942 -1.5964  0.1004  0.1577
11436TIP3    H255800   5.683   2.979   2.020 -1.9749  0.5709  1.1283
11437TIP3   OH255801   3.684   0.068  15.676 -0.5228 -0.3780  0.0808
11437TIP3    H155802   3.728   0.147  15.709  2.5522 -2.2373  0.6738
11437TIP3    H255803   3.717   0.058  15.587 -0.5304 -1.2396  0.1729
11438TIP3   OH255804   6.527   0.117   5.775 -0.1491 -0.3614  0.6686
11438TIP3    H155805   6.475   0.165   5.711  1.5251 -1.0064 -1.2150
11438TIP3    H255806   6.521   0.025   5.748  0.6041 -0.6412  1.4067
11439TIP3   OH255807   4.234   3.525  14.084  0.3889  0.1669 -0.3064
11439TIP3    H155808   4.210   3.563  13.999  2.4371 -1.6550 -1.7512
11439TIP3    H255809   4.325   3.553  14.098  0.4376 -0.4956  0.7424
11440TIP3   OH255810   5.525   2.111  12.199 -0.2246  0.1713 -0.2354
11440TIP3    H155811   5.548   2.132  12.289 -0.6815  0.4733 -0.1886
11440TIP3    H255812   5.525   2.015  12.196  2.2909  0.1412 -0.5739
11441TIP3   OH255813   2.748   1.661  15.900  0.1326  0.1911 -0.6682
11441TIP3    H155814   2.692   1.584  15.888  0.3645 -0.0179 -0.4283
11441TIP3    H255815   2.693   1.735  15.875 -0.4500  0.0403  0.1250
11442TIP3   OH255816   2.548   6.362  16.975 -0.0123  0.7107  0.1812
11442TIP3    H155817   2.481   6.314  16.926 -1.0512  3.4289 -1.1676
11442TIP3    H255818   2.517   6.360  17.065 -1.4482  1.1057 -0.2792
11443TIP3   OH255819   1.306   2.507  11.205  0.0699  0.0600 -0.4065
11443TIP3    H155820   1.253   2.577  11.244  1.1866  0.7662 -0.1215
11443TIP3    H255821   1.366   2.482  11.275  1.3827  0.6045 -1.3261
11444TIP3   OH255822   4.017   2.892   1.293  0.2426  0.6026  0.2793
11444TIP3    H155823   4.014   2.798   1.307 -0.3414  0.9108  2.3455
11444TIP3    H255824   4.021   2.902   1.198  2.4617 -1.5405  0.1013
11445TIP3   OH255825   6.210   3.159   6.581 -0.0191 -0.1012  0.0258
11445TIP3    H155826   6.126   3.203   6.570  0.1065  0.5556  1.4788
11445TIP3    H255827   6.197   3.103   6.657  0.6354 -0.5360 -0.1840
11446TIP3   OH255828   1.455   0.543  15.610  0.4093 -0.2206  0.2386
11446TIP3    H155829   1.412   0.623  15.638 -0.1655 -0.0807 -0.9753
11446TIP3    H255830   1.424   0.476  15.671 -0.4051  0.1683  0.2577
11447TIP3   OH255831   5.964   1.937  16.890  0.1021 -0.8790 -0.4907
11447TIP3    H155832   5.962   1.916  16.796  2.2024  1.3346 -1.0989
11447TIP3    H255833   6.045   1.896  16.921  0.3886 -0.0166 -0.0828
11448TIP3   OH255834   1.646   2.234  10.826  0.6751 -0.6240 -0.3911
11448TIP3    H155835   1.660   2.300  10.759 -1.2696  1.0934  0.8373
11448TIP3    H255836   1.559   2.198  10.807  0.1360 -0.1795  1.1406
11449TIP3   OH255837   1.124   0.485   1.727 -0.2863  0.2488  0.0268
11449TIP3    H155838   1.196   0.422   1.719 -0.2903  0.4862 -2.2531
11449TIP3    H255839   1.167   0.567   1.751  0.3303  0.5318 -1.9073
11450TIP3   OH255840   6.229   4.877  11.504 -0.1242  0.5577 -0.6210
11450TIP3    H155841   6.219   4.827  11.585  2.3550  1.4409  0.2662
11450TIP3    H255842   6.156   4.848  11.449 -0.2298 -2.1253  0.8537
11451TIP3   OH255843   3.959   5.951   3.627 -0.3930 -0.3746 -0.5466
11451TIP3    H155844   4.003   5.913   3.702  2.5242  1.6752 -1.1366
11451TIP3    H255845   3.929   6.037   3.657 -0.2569 -0.0336 -1.3680
11452TIP3   OH255846   3.279   2.340   4.804 -0.0961 -0.4112 -0.0597
11452TIP3    H155847   3.233   2.424   4.796 -0.3048 -0.4068  1.1056
11452TIP3    H255848   3.302   2.317   4.714 -0.1005  0.8563 -0.3988
11453TIP3   OH255849   0.174   2.526  16.493  0.3249 -0.0269 -0.3826
11453TIP3    H155850   0.183   2.434  16.470  0.5881  0.2503 -1.4358
11453TIP3    H255851   0.224   2.536  16.574  2.2558 -0.3379 -1.5040
11454TIP3   OH255852   0.133   5.080  14.769 -0.5840  0.2879  0.1421
11454TIP3    H155853   0.081   5.027  14.709  0.3404 -1.9001  1.2169
11454TIP3    H255854   0.219   5.038  14.768  0.2622  1.9640  0.8114
11455TIP3   OH255855   5.342   2.024   4.417  0.1594 -0.0687 -0.2937
11455TIP3    H155856   5.389   2.032   4.500  0.6343  0.2793 -0.5925
11455TIP3    H255857   5.258   2.069   4.432 -0.5507 -1.6557  0.5852
11456TIP3   OH255858   0.094   4.540  15.084 -0.0235  0.1482 -0.2560
11456TIP3    H155859   0.049   4.541  15.168 -0.1035 -0.7819 -0.2838
11456TIP3    H255860   0.101   4.632  15.060  0.4597  0.4568  1.0144
11457TIP3   OH255861   5.975   1.463  15.253 -0.7389 -0.4640  0.9617
11457TIP3    H155862   6.013   1.386  15.212 -0.3305 -0.2447  0.9217
11457TIP3    H255863   5.929   1.508  15.182 -2.4873 -1.5971  1.3606
11458TIP3   OH255864   0.238   2.811   2.579  0.2518  0.3825 -0.6969
11458TIP3    H155865   0.325   2.832   2.546  0.3865  0.1751 -0.4756
11458TIP3    H255866   0.209   2.738   2.524  1.0218 -0.8512  0.4987
11459TIP3   OH255867   1.231   6.653  16.060  0.3000  0.5796 -0.1074
11459TIP3    H155868   1.181   6.731  16.083 -0.6586 -0.3832  1.1253
11459TIP3    H255869   1.312   6.661  16.110 -0.9236 -0.5082  2.1000
11460TIP3   OH255870   6.796   6.339   0.550 -0.1377 -0.5198  0.0918
11460TIP3    H155871   6.776   6.386   0.470  2.2719 -1.7261 -1.2844
11460TIP3    H255872   6.790   6.405   0.619  1.3151  1.4001 -1.5429
11461TIP3   OH255873   0.618   0.396  13.507  0.1020  0.0307  0.5525
11461TIP3    H155874   0.598   0.314  13.553  0.5790 -0.4032 -0.0013
11461TIP3    H255875   0.713   0.406  13.516 -0.0491  0.9224  1.2614
11462TIP3   OH255876   5.420   6.810  10.348 -0.6595  0.4086  0.3784
11462TIP3    H155877   5.358   6.759  10.294  1.5345  1.1798 -3.0460
11462TIP3    H255878   5.365   6.874  10.393 -2.5101  0.5392 -1.9246
11463TIP3   OH255879   4.694   1.505  12.721 -0.3659  0.7004  0.5170
11463TIP3    H155880   4.782   1.494  12.758  0.6039  2.6343 -1.1225
11463TIP3    H255881   4.670   1.595  12.742 -2.3474 -0.0724  1.6923
11464TIP3   OH255882   5.330   4.531   5.550  0.4446  0.2664 -0.3562
11464TIP3    H155883   5.410   4.487   5.521  1.2295  1.0762  0.5512
11464TIP3    H255884   5.357   4.583   5.625 -0.8247  0.9802 -0.3803
11465TIP3   OH255885   0.472   2.151   4.124  0.1746 -0.0053  0.4206
11465TIP3    H155886   0.513   2.201   4.053  0.2072  0.5854  0.8470
11465TIP3    H255887   0.526   2.073   4.133  1.3424  0.8662  1.1217
11466TIP3   OH255888   6.010   3.464   3.340  0.0967  0.0723  0.1641
11466TIP3    H155889   5.979   3.549   3.309 -0.6724 -0.0862  0.4904
11466TIP3    H255890   6.098   3.481   3.373  0.1333  0.6444 -0.2171
11467TIP3   OH255891   5.342   3.497  15.841  0.7829 -0.2429 -0.4475
11467TIP3    H155892   5.324   3.412  15.802 -0.1908  0.2400 -1.0940
11467TIP3    H255893   5.435   3.511  15.827  0.9982 -1.3064 -0.1117
11468TIP3   OH255894   4.362   0.912   1.142  0.6860  0.0651 -0.8096
11468TIP3    H155895   4.449   0.941   1.169  0.2386 -0.2553  1.0063
11468TIP3    H255896   4.348   0.831   1.190 -1.1804  0.8326 -0.0479
11469TIP3   OH255897   2.998   1.529  11.711 -0.1381 -0.2493 -0.1870
11469TIP3    H155898   2.969   1.488  11.629 -0.3888 -0.9659  0.2518
11469TIP3    H255899   2.918   1.554  11.756  0.0074  0.4469 -0.3109
11470TIP3   OH255900   5.344   2.214  15.039  0.1158  0.1275  0.2896
11470TIP3    H155901   5.263   2.230  14.990  0.0290 -0.0480  0.3734
11470TIP3    H255902   5.413   2.244  14.981 -0.1711  3.3136  1.4809
11471TIP3   OH255903   3.508   5.329  12.239  0.0173 -0.1920 -0.1686
11471TIP3    H155904   3.413   5.341  12.232  0.1859  0.6616 -1.0307
11471TIP3    H255905   3.542   5.418  12.251  0.6803 -0.5335  0.5130
11472TIP3   OH255906   0.763   3.777   3.840 -0.4132 -0.2508  0.1990
11472TIP3    H155907   0.765   3.808   3.750 -0.0932  1.5103  0.7925
11472TIP3    H255908   0.675   3.799   3.871  0.6425  2.5549  1.4284
11473TIP3   OH255909   5.149   3.177  16.151 -0.4620 -0.2463  0.0116
11473TIP3    H155910   5.100   3.215  16.224  0.8095 -0.0824  0.7992
11473TIP3    H255911   5.233   3.153  16.189  0.4032  0.3076 -1.5150
11474TIP3   OH255912   3.260   6.103   0.632  0.5287 -0.3318 -0.3346
11474TIP3    H155913   3.340   6.073   0.676  0.9424  1.5571  0.2601
11474TIP3    H255914   3.216   6.023   0.605  0.8444 -1.5109  2.4981
11475TIP3   OH255915   0.234   4.275  12.947 -0.0881 -0.1084 -0.3032
11475TIP3    H155916   0.189   4.231  12.875  0.0233 -0.8304  0.0759
11475TIP3    H255917   0.281   4.206  12.993 -0.1768  0.3423  0.4862
11476TIP3   OH255918   1.050   0.803   3.416  0.3924  0.2864 -0.0479
11476TIP3    H155919   1.052   0.722   3.366 -3.5627 -0.7986  1.3855
11476TIP3    H255920   1.137   0.842   3.401  1.8731 -3.4296 -1.9193
11477TIP3   OH255921   1.226   3.735   0.661  0.0237 -0.1481  0.0306
11477TIP3    H155922   1.294   3.717   0.597  0.6437  0.0446  0.6281
11477TIP3    H255923   1.156   3.777   0.611  0.9359  0.9426 -0.3263
11478TIP3   OH255924   5.335   1.519  15.102  0.2261  0.4744  0.7338
11478TIP3    H155925   5.243   1.544  15.106 -0.0545 -0.0813 -1.5017
11478TIP3    H255926   5.379   1.577  15.164 -1.5131  1.2312  1.2829
11479TIP3   OH255927   6.204   2.217   0.788 -0.2318  0.4968 -0.0840
11479TIP3    H155928   6.244   2.196   0.872 -0.3485 -0.8708 -0.3495
11479TIP3    H255929   6.166   2.304   0.801  1.5580  1.1982  0.6066
11480TIP3   OH255930   3.520   4.113   1.913 -0.2535  0.1505  0.4081
11480TIP3    H155931   3.478   4.184   1.866  1.0399  0.7404  0.1005
11480TIP3    H255932   3.467   4.036   1.895 -0.3636  0.5785 -1.1511
11481TIP3   OH255933   3.500   3.534  11.722 -0.0007 -0.0866  0.1004
11481TIP3    H155934   3.524   3.468  11.788 -0.5009 -0.4419 -0.0759
11481TIP3    H255935   3.420   3.501  11.683  1.0353 -0.5650 -1.6443
11482TIP3   OH255936   0.682   0.261  11.855  0.5486 -0.2358 -0.3415
11482TIP3    H155937   0.700   0.187  11.797  0.6712  0.3445 -1.0438
11482TIP3    H255938   0.724   0.336  11.813 -0.8949  0.5382 -0.4291
11483TIP3   OH255939   6.238   3.518   3.498  0.0850 -0.5561 -0.4353
11483TIP3    H155940   6.308   3.459   3.526  0.6138  0.3759  0.2230
11483TIP3    H255941   6.281   3.602   3.484 -0.8806 -0.0057 -0.1467
11484TIP3   OH255942   6.149   0.448   4.561 -0.0693  0.1243  0.6296
11484TIP3    H155943   6.191   0.389   4.499  0.2157  2.6368 -1.6523
11484TIP3    H255944   6.222   0.485   4.612  0.0258  0.7097  0.0698
11485TIP3   OH255945   3.214   3.121   3.425 -0.3199 -0.5010 -0.4426
11485TIP3    H155946   3.272   3.196   3.418  0.9557 -1.5264 -1.0715
11485TIP3    H255947   3.191   3.100   3.334 -0.9439 -0.6585 -0.2502
11486TIP3   OH255948   0.657   5.941   4.396 -0.0297  0.0491  0.3571
11486TIP3    H155949   0.666   6.035   4.380  0.2602  0.0260  0.3654
11486TIP3    H255950   0.698   5.927   4.481 -0.0262 -0.0911  0.3334
11487TIP3   OH255951   6.320   3.122  14.102  0.6899 -0.5120  0.3045
11487TIP3    H155952   6.274   3.102  14.020 -0.6071 -0.0274  0.9166
11487TIP3    H255953   6.399   3.169  14.074  0.7852 -1.2700 -0.7367
11488TIP3   OH255954   4.385   1.474   5.445  0.4676  0.0735 -0.2860
11488TIP3    H155955   4.452   1.534   5.480  0.0235  0.6963 -0.4858
11488TIP3    H255956   4.304   1.526   5.446  0.2820 -0.1771 -1.4497
11489TIP3   OH255957   3.079   5.506   3.718  0.5072 -0.2139  0.0752
11489TIP3    H155958   3.084   5.411   3.722 -2.8438 -0.5078 -1.3245
11489TIP3    H255959   3.080   5.526   3.624  0.3217  1.0534  0.3328
11490TIP3   OH255960   0.667   3.805  12.706  0.0085 -0.4692  0.0359
11490TIP3    H155961   0.715   3.779  12.785  0.3328  0.0637  0.0103
11490TIP3    H255962   0.708   3.754  12.636  0.4249 -0.1447  0.0407
11491TIP3   OH255963   5.990   5.685   1.836  0.0986 -0.2720 -0.3139
11491TIP3    H155964   5.944   5.672   1.753  0.1472 -0.3890 -0.3216
11491TIP3    H255965   6.035   5.769   1.825  1.0280 -0.8396 -0.8182
11492TIP3   OH255966   6.114   0.637  12.110  0.4719  0.1932 -0.0530
11492TIP3    H155967   6.099   0.552  12.153  3.2153 -0.1633  0.3068
11492TIP3    H255968   6.185   0.620  12.049 -0.1026  1.8802 -1.2200
11493TIP3   OH255969   1.648   6.565  12.918 -0.4990 -0.0011 -0.3772
11493TIP3    H155970   1.574   6.517  12.880 -0.4116  0.6235 -1.3554
11493TIP3    H255971   1.630   6.657  12.898 -1.3182  0.5326  2.6449
11494TIP3   OH255972   4.786   3.577  17.198  0.0731 -0.1821  0.2713
11494TIP3    H155973   4.845   3.644  17.162  0.4633 -0.3071  0.6736
11494TIP3    H255974   4.844   3.515  17.241 -0.3062 -0.7005  0.0328
11495TIP3   OH255975   4.708   2.831  14.573 -0.0115  0.8135 -0.5346
11495TIP3    H155976   4.660   2.876  14.503  0.8529  1.2434 -0.8600
11495TIP3    H255977   4.753   2.760  14.529  0.5126  1.0674 -0.4057
11496TIP3   OH255978   6.145   3.800   4.183  0.1939 -0.1170 -0.4768
11496TIP3    H155979   6.056   3.812   4.216  1.5475  2.2310  2.5573
11496TIP3    H255980   6.151   3.706   4.165 -3.0018 -0.2601 -1.1414
11497TIP3   OH255981   5.550   3.454  12.647 -0.0584  0.1727 -0.6203
11497TIP3    H155982   5.495   3.401  12.705  0.4425 -0.0116 -0.3119
11497TIP3    H255983   5.494   3.529  12.623 -1.0860 -0.9533 -1.7906
11498TIP3   OH255984   1.116   6.216  11.911 -0.2069  0.0837 -0.5817
11498TIP3    H155985   1.124   6.134  11.959 -0.7168 -0.6474 -1.7173
11498TIP3    H255986   1.027   6.246  11.930 -0.2993 -0.0454 -0.8008
11499TIP3   OH255987   5.079   1.936   1.571 -0.1829  0.1701  1.0719
11499TIP3    H155988   5.021   1.872   1.529  0.8203 -0.6293  0.8675
11499TIP3    H255989   5.075   1.914   1.664  1.0170 -0.9512  0.8906
11500TIP3   OH255990   3.808   0.894   3.469 -0.8814 -0.1549  0.3699
11500TIP3    H155991   3.728   0.939   3.498 -0.3949  0.8869  0.1189
11500TIP3    H255992   3.876   0.926   3.528 -0.3754  0.0302 -0.3098
11501TIP3   OH255993   2.108   6.675   3.713  0.4756 -0.6170  0.1377
11501TIP3    H155994   2.069   6.588   3.701 -0.9321  0.0927 -0.5764
11501TIP3    H255995   2.202   6.661   3.702  0.2636 -2.0776  0.1537
11502TIP3   OH255996   1.517   1.304  14.988 -0.0848  0.1288  0.1256
11502TIP3    H155997   1.511   1.211  14.966 -3.1938 -0.3093  2.4660
11502TIP3    H255998   1.462   1.314  15.066 -0.0710  3.9958 -0.2522
11503TIP3   OH255999   1.077   5.792   3.902 -0.1490 -0.3320  0.4207
11503TIP3    H156000   1.106   5.739   3.975  1.7759  0.8053  0.5100
11503TIP3    H256001   1.066   5.730   3.829  2.1446 -0.8452  0.4907
11504TIP3   OH256002   0.837   5.951  14.231 -0.3055 -0.6213  0.3051
11504TIP3    H156003   0.751   5.921  14.202 -0.4004 -0.3739  0.3323
11504TIP3    H256004   0.893   5.874  14.223 -0.0435 -0.2494 -1.7150
11505TIP3   OH256005   0.160   0.827  13.143 -0.2224  0.4638  0.1461
11505TIP3    H156006   0.071   0.797  13.126  0.2233 -0.5795 -0.4219
11505TIP3    H256007   0.213   0.747  13.140  0.8697  1.1971 -0.5641
11506TIP3   OH256008   2.630   5.999  13.484 -0.1682 -0.3451 -0.4581
11506TIP3    H156009   2.611   6.092  13.472 -1.0398 -0.5567 -0.8097
11506TIP3    H256010   2.628   5.963  13.395  0.6203 -0.6198 -0.3677
11507TIP3   OH256011   0.487   4.214   1.590 -0.0942  0.2025  0.0471
11507TIP3    H156012   0.487   4.120   1.609 -2.4376  0.0524 -0.4447
11507TIP3    H256013   0.522   4.255   1.669 -0.6605 -0.9860  0.9370
11508TIP3   OH256014   4.004   6.528   3.871 -0.4835 -0.1226 -0.0194
11508TIP3    H156015   3.964   6.597   3.818 -0.2754  0.8092  1.0095
11508TIP3    H256016   3.979   6.550   3.961  1.2459 -0.2567  0.5095
11509TIP3   OH256017   4.240   2.271  16.017 -0.0905  0.0617  0.2973
11509TIP3    H156018   4.263   2.360  15.991 -0.1089  0.4986  1.7310
11509TIP3    H256019   4.170   2.246  15.957 -1.5594  1.8031  1.2590
11510TIP3   OH256020   6.007   4.060   3.905 -0.9231 -0.0167  0.1294
11510TIP3    H156021   5.942   4.033   3.970 -0.2779  0.2790  0.9135
11510TIP3    H256022   6.046   3.977   3.875 -0.8535 -0.1264  0.5162
11511TIP3   OH256023   5.793   2.100   4.739 -0.1740  0.0261 -0.0488
11511TIP3    H156024   5.738   2.030   4.774  1.7201 -1.0523  0.8540
11511TIP3    H256025   5.758   2.180   4.779  0.0977 -0.8583  2.0188
11512TIP3   OH256026   0.356   0.604  14.581  0.1707  0.2484  0.3919
11512TIP3    H156027   0.348   0.653  14.499 -1.7979  0.1451  0.4821
11512TIP3    H256028   0.430   0.546  14.567  0.6259  1.0933 -0.8589
11513TIP3   OH256029   5.323   3.595   5.548  0.2736  0.4408 -0.7974
11513TIP3    H156030   5.247   3.538   5.553 -0.0647  0.9215 -0.3605
11513TIP3    H256031   5.387   3.547   5.495 -0.6148  0.3533 -1.8075
11514TIP3   OH256032   1.660   4.386   1.985  0.0240 -0.2401  0.3098
11514TIP3    H156033   1.708   4.350   2.059  3.0798  1.9063 -0.5331
11514TIP3    H256034   1.647   4.478   2.007  0.9800  0.4302 -1.7665
11515TIP3   OH256035   0.694   4.105   2.098 -0.0740 -0.5748  0.3048
11515TIP3    H156036   0.730   4.082   2.013 -0.0508  1.6445 -0.3043
11515TIP3    H256037   0.758   4.071   2.161  0.3009 -1.5154 -0.5596
11516TIP3   OH256038   4.418   0.454   1.425  0.4174 -0.1601  0.8045
11516TIP3    H156039   4.401   0.546   1.446  0.5248 -0.4795  2.3919
11516TIP3    H256040   4.513   0.446   1.424  0.4112 -0.4893  1.8418
11517TIP3   OH256041   1.784   5.701  13.323 -0.4025  0.7288 -0.1207
11517TIP3    H156042   1.763   5.698  13.229 -1.2249 -1.1575  0.1093
11517TIP3    H256043   1.705   5.736  13.364 -1.8382 -2.8420  0.3369
11518TIP3   OH256044   5.533   5.744  11.664 -0.3435  0.2463 -0.1212
11518TIP3    H156045   5.614   5.733  11.613 -0.6633 -1.8567 -0.1966
11518TIP3    H256046   5.491   5.658  11.662 -1.3942  0.6786  1.9669
11519TIP3   OH256047   2.105   6.453   3.977 -0.4867  0.3826  0.0440
11519TIP3    H156048   2.015   6.479   3.994 -0.6853 -0.2218 -0.0995
11519TIP3    H256049   2.100   6.389   3.907  0.0808  0.5642 -0.1672
11520TIP3   OH256050   5.206   5.067   4.517 -0.3801  0.0806  0.0929
11520TIP3    H156051   5.179   4.978   4.497  1.0494 -0.7010  1.5413
11520TIP3    H256052   5.246   5.099   4.436 -1.9682 -0.1525 -0.8032
11521TIP3   OH256053   2.424   3.502  16.861  0.5261  0.5034 -0.8087
11521TIP3    H156054   2.425   3.464  16.773  0.3206  0.8954 -0.9797
11521TIP3    H256055   2.333   3.492  16.890  0.4255  1.0632 -0.9371
11522TIP3   OH256056   5.346   5.691   4.477  0.3131  0.2049 -0.3964
11522TIP3    H156057   5.290   5.730   4.544 -0.3162  0.6885 -1.2042
11522TIP3    H256058   5.431   5.680   4.521  0.8444  3.4801 -0.4929
11523TIP3   OH256059   4.184   4.241   3.820 -0.1409  0.3056  0.0178
11523TIP3    H156060   4.159   4.204   3.735 -1.7370  0.2030  0.5198
11523TIP3    H256061   4.279   4.255   3.813 -0.2728  0.4069 -1.8189
11524TIP3   OH256062   6.776   6.499  16.465  0.1070  0.1846 -0.0129
11524TIP3    H156063   6.826   6.427  16.426 -0.4679  0.8099 -1.9502
11524TIP3    H256064   6.753   6.467  16.553  1.0314 -1.4337 -0.3318
11525TIP3   OH256065   0.064   2.984   2.984 -0.2915 -0.1474 -0.6061
11525TIP3    H156066   0.061   2.897   2.945 -0.3635 -0.1688 -0.5507
11525TIP3    H256067   0.023   2.974   3.070 -1.6739  0.2695 -1.2050
11526TIP3   OH256068   4.247   3.596  12.422 -0.2311 -0.0738  0.8207
11526TIP3    H156069   4.152   3.607  12.434 -0.1999 -0.6921  1.6485
11526TIP3    H256070   4.275   3.679  12.384 -1.0896  0.1621  0.6755
11527TIP3   OH256071   5.119   6.132   0.387  0.7388  0.2861 -0.0558
11527TIP3    H156072   5.078   6.205   0.340  0.5920 -0.8128 -1.6533
11527TIP3    H256073   5.084   6.053   0.345 -0.4481 -0.7551  2.7815
11528TIP3   OH256074   3.708   6.593   5.875 -0.1447  0.5439 -0.0877
11528TIP3    H156075   3.791   6.617   5.833  0.2623 -0.8381 -0.0985
11528TIP3    H256076   3.719   6.500   5.897 -0.9103  0.8804  1.7498
11529TIP3   OH256077   0.417   2.769   4.693  0.1306  0.4059  0.2214
11529TIP3    H156078   0.337   2.718   4.685  0.5032  0.1385 -2.4984
11529TIP3    H256079   0.389   2.860   4.686 -0.0857  0.3807  0.7603
11530TIP3   OH256080   3.124   4.576  13.473 -0.4629  0.1683 -0.3054
11530TIP3    H156081   3.104   4.636  13.401 -1.6330 -0.6062 -0.6395
11530TIP3    H256082   3.141   4.492  13.430  0.2498  0.0293  0.2311
11531TIP3   OH256083   6.731   5.900  13.033  0.6468  0.5739  0.7061
11531TIP3    H156084   6.645   5.935  13.054  0.8857  1.2039  0.6298
11531TIP3    H256085   6.719   5.805  13.034 -1.1541  0.6364 -3.9179
11532TIP3   OH256086   1.587   6.403   3.078  0.1873 -0.7439 -0.2681
11532TIP3    H156087   1.611   6.395   2.985 -1.9763 -1.9842 -0.7796
11532TIP3    H256088   1.576   6.312   3.107  1.8047 -0.3919  1.4894
11533TIP3   OH256089   3.726   5.675  17.080 -0.2958  0.7079 -0.1408
11533TIP3    H156090   3.798   5.612  17.076 -0.0431  1.1024 -2.6310
11533TIP3    H256091   3.656   5.634  17.030 -0.5399  1.9070 -0.7923
11534TIP3   OH256092   5.336   5.305   2.627  0.0715  0.3075  0.2955
11534TIP3    H156093   5.418   5.268   2.661  0.8279  1.0330 -0.6853
11534TIP3    H256094   5.297   5.350   2.702  1.7233  1.9055  0.2185
11535TIP3   OH256095   4.714   3.424  11.134  0.3281 -0.0975  0.1256
11535TIP3    H156096   4.792   3.467  11.170 -1.1539  2.2804  0.6541
11535TIP3    H256097   4.694   3.472  11.054 -1.2906  0.1747  0.6540
11536TIP3   OH256098   3.877   1.930   5.953  0.7277 -0.4533  0.1324
11536TIP3    H156099   3.930   1.927   5.873  0.9565 -1.9504  0.3215
11536TIP3    H256100   3.863   1.838   5.976 -0.0519 -0.0474  1.3499
11537TIP3   OH256101   6.123   2.977   5.516 -0.6028  0.1459  0.3731
11537TIP3    H156102   6.035   3.012   5.531 -1.7252 -2.5326  0.3282
11537TIP3    H256103   6.125   2.956   5.423  0.2108  0.5044  0.3034
11538TIP3   OH256104   6.573   2.917  11.096 -0.0897 -0.6701 -0.4650
11538TIP3    H156105   6.638   2.869  11.045  2.4000 -1.1243  2.9181
11538TIP3    H256106   6.613   3.003  11.111 -1.6497  0.1611 -0.9103
11539TIP3   OH256107   1.726   1.863   6.161  0.3738  0.5514 -0.0148
11539TIP3    H156108   1.632   1.870   6.149  0.0350 -2.5466  0.2879
11539TIP3    H256109   1.739   1.858   6.256  0.9036  1.7122 -0.0235
11540TIP3   OH256110   4.920   5.451   2.736  0.2911  0.1261  0.0557
11540TIP3    H156111   4.864   5.528   2.740  0.3419  0.4260 -3.3911
11540TIP3    H256112   4.866   5.383   2.696  1.8403 -0.0274 -1.8856
11541TIP3   OH256113   2.308   6.163   2.263 -0.5459  0.5828 -0.2187
11541TIP3    H156114   2.238   6.107   2.231 -1.9741 -0.3476  4.2189
11541TIP3    H256115   2.264   6.236   2.306  1.3104  3.2457 -2.5359
11542TIP3   OH256116   3.017   0.347   3.802  0.1236 -0.0710  0.5795
11542TIP3    H156117   3.036   0.306   3.717 -2.1354  0.6333 -0.2961
11542TIP3    H256118   3.078   0.305   3.863  1.2524 -1.1370 -1.2410
11543TIP3   OH256119   6.749   5.353   0.659 -0.4075  0.0786  0.2077
11543TIP3    H156120   6.753   5.435   0.709  1.7865  0.8825 -1.2402
11543TIP3    H256121   6.766   5.378   0.569 -0.4654 -1.8900 -0.3854
11544TIP3   OH256122   4.548   6.525  16.295  0.3208  0.5293  0.6042
11544TIP3    H156123   4.619   6.514  16.231  0.5988  0.0263  0.9906
11544TIP3    H256124   4.579   6.479  16.373  0.0112  1.2004  1.1284
11545TIP3   OH256125   4.346   3.545   2.861 -0.0764  0.1924  0.0497
11545TIP3    H156126   4.309   3.571   2.945 -1.1436  0.0627 -0.3797
11545TIP3    H256127   4.367   3.453   2.871 -1.8635 -0.2787 -0.4046
11546TIP3   OH256128   4.838   1.376  14.598  0.2353 -0.4998  0.3412
11546TIP3    H156129   4.824   1.282  14.606 -0.5149 -0.5794 -1.4941
11546TIP3    H256130   4.931   1.388  14.615  0.0212 -1.3502  2.2365
11547TIP3   OH256131   0.571   4.126  14.211  0.7507  0.7653  0.0118
11547TIP3    H156132   0.542   4.182  14.139 -0.1641 -0.7708 -0.8276
11547TIP3    H256133   0.493   4.077  14.236  1.8185 -0.9976 -0.0504
11548TIP3   OH256134   2.838   4.601   5.454  0.3330  0.4807  0.2600
11548TIP3    H156135   2.811   4.691   5.437 -1.3720 -0.3018 -1.3768
11548TIP3    H256136   2.783   4.572   5.527  0.4251  0.5613  0.3615
11549TIP3   OH256137   2.177   0.081   0.786  0.1132 -0.2911  0.3602
11549TIP3    H156138   2.097   0.124   0.816  0.4561  0.8336 -0.2996
11549TIP3    H256139   2.147  -0.001   0.747 -0.5031 -0.9594  2.1547
11550TIP3   OH256140   5.810   4.331  16.738  0.0110  0.3813  0.2288
11550TIP3    H156141   5.873   4.381  16.687  1.0139 -0.4177  0.6640
11550TIP3    H256142   5.770   4.270  16.675  0.4071  0.1965  0.1556
11551TIP3   OH256143   4.877   4.935   4.619  0.0291  0.2476 -0.3555
11551TIP3    H156144   4.934   4.988   4.676 -0.7647 -0.2413  0.9089
11551TIP3    H256145   4.788   4.963   4.642 -0.4493 -2.2209  0.9683
11552TIP3   OH256146   6.452   2.976  10.434  0.3339  0.5259 -0.1959
11552TIP3    H156147   6.426   3.024  10.512  1.1317  0.2861  0.2193
11552TIP3    H256148   6.542   2.949  10.451 -0.4103 -1.9435 -0.0289
11553TIP3   OH256149   4.099   3.006  10.410  0.5515  0.8546 -0.1465
11553TIP3    H156150   4.024   3.051  10.450  2.6036  1.6036  3.0398
11553TIP3    H256151   4.110   2.926  10.461  2.0781  0.8981 -0.3734
11554TIP3   OH256152   6.435   5.417   2.835  0.3232  0.5903  0.2056
11554TIP3    H156153   6.469   5.356   2.900 -0.3598  1.6926  1.6210
11554TIP3    H256154   6.510   5.435   2.778  1.0498 -0.0199  0.9585
11555TIP3   OH256155   0.708   3.430  17.242  0.0330 -0.4354 -0.0867
11555TIP3    H156156   0.698   3.486  17.319  0.2523 -1.2004  0.5035
11555TIP3    H256157   0.645   3.465  17.179 -1.3780 -0.8417  1.0664
11556TIP3   OH256158   2.278   4.538  11.015  0.2706  0.0492 -0.0858
11556TIP3    H156159   2.271   4.465  10.953 -0.7099 -0.6002  0.7835
11556TIP3    H256160   2.258   4.616  10.962 -0.0618 -0.4446 -0.6955
11557TIP3   OH256161   5.269   4.690  11.761  0.1292 -0.4855 -0.2623
11557TIP3    H156162   5.270   4.603  11.802 -1.8115 -0.8924 -0.9940
11557TIP3    H256163   5.350   4.731  11.790  0.6359 -2.1954  0.8596
11558TIP3   OH256164   4.549   0.495   1.959  0.9080 -0.4957  0.4132
11558TIP3    H156165   4.554   0.524   1.867  1.4095  1.9026  1.1638
11558TIP3    H256166   4.629   0.527   1.999  0.6453 -1.4429  1.7351
11559TIP3   OH256167   0.740   4.444   1.674 -0.0259 -0.3522  0.5896
11559TIP3    H156168   0.718   4.469   1.763  0.2214  0.5233  0.4110
11559TIP3    H256169   0.826   4.483   1.658 -0.5291  0.3850 -0.3923
11560TIP3   OH256170   2.159   5.476  17.142 -0.3547  0.4810  1.2293
11560TIP3    H156171   2.168   5.404  17.204 -0.8659  1.2461  2.2084
11560TIP3    H256172   2.249   5.505  17.125 -0.1211 -0.6334  0.5230
11561TIP3   OH256173   3.200   5.875  11.581 -0.1952 -0.2351  0.2920
11561TIP3    H156174   3.215   5.841  11.493 -0.1340 -1.9245  0.9276
11561TIP3    H256175   3.287   5.893  11.615 -0.1612 -0.4705  0.3341
11562TIP3   OH256176   0.833   2.366  17.277 -0.1442  0.3226  0.3546
11562TIP3    H156177   0.848   2.366  17.371  0.2424  2.2958  0.2942
11562TIP3    H256178   0.900   2.307  17.242 -1.0140 -1.3300  1.3991
11563TIP3   OH256179   4.162   0.143  15.177 -0.2431  0.4957  0.2763
11563TIP3    H156180   4.134   0.077  15.114 -0.5652  0.1759  0.7525
11563TIP3    H256181   4.257   0.132  15.182 -0.5626 -1.7439  2.3474
11564TIP3   OH256182   5.769   5.118   1.753  0.1084  0.3285  0.0742
11564TIP3    H156183   5.719   5.187   1.796  0.1782 -0.3167  1.2007
11564TIP3    H256184   5.814   5.163   1.681  0.5911  1.5751  1.1354
11565TIP3   OH256185   4.952   5.739   2.151  0.1686 -0.3015  0.9142
11565TIP3    H156186   5.003   5.683   2.093  1.9941  0.3256  1.8760
11565TIP3    H256187   4.900   5.677   2.204  0.4367 -0.9743  0.4019
11566TIP3   OH256188   6.066   5.949   2.344  0.3255 -0.4109 -0.1352
11566TIP3    H156189   6.089   5.978   2.256  0.2042 -1.3065 -0.4739
11566TIP3    H256190   6.118   5.869   2.356  0.8293  0.0591  0.8530
11567TIP3   OH256191   0.256   3.242  13.151  0.2873 -0.1735  0.0447
11567TIP3    H156192   0.236   3.187  13.227 -1.0517  0.4050  0.1175
11567TIP3    H256193   0.223   3.329  13.174  0.1193  0.0756 -1.0796
11568TIP3   OH256194   6.652   3.037   5.787 -0.1498 -0.3281 -0.3586
11568TIP3    H156195   6.642   2.995   5.872  0.2017 -0.1490 -0.2312
11568TIP3    H256196   6.581   3.000   5.734  0.1498 -1.0733 -0.2441
11569TIP3   OH256197   5.130   2.283   0.478  0.1541  0.2994  0.0344
11569TIP3    H156198   5.150   2.340   0.553  0.8928  0.1231 -0.0175
11569TIP3    H256199   5.136   2.194   0.512 -0.5839  0.2416  0.0162
11570TIP3   OH256200   6.458   6.150  11.876 -0.4237  0.4398  0.8378
11570TIP3    H156201   6.449   6.130  11.969  0.3061 -2.3651  0.3697
11570TIP3    H256202   6.416   6.235  11.865  0.7108  1.4565  3.9665
11571TIP3   OH256203   4.517   1.697  13.791  0.2895 -0.4769  0.1948
11571TIP3    H156204   4.473   1.661  13.868  0.2347  2.0756  1.3953
11571TIP3    H256205   4.610   1.676  13.804  0.4318  0.9677  1.5409
11572TIP3   OH256206   6.743   5.222   4.768 -0.1623 -0.2940 -0.1652
11572TIP3    H156207   6.707   5.277   4.838  0.9623  0.1893  0.0427
11572TIP3    H256208   6.670   5.212   4.707 -0.4669  1.2108 -0.0746
11573TIP3   OH256209   3.391   4.982   0.745  0.0533  0.2777 -0.9141
11573TIP3    H156210   3.443   4.996   0.666  0.1942  1.9965 -0.5542
11573TIP3    H256211   3.307   5.023   0.727  0.2138  1.0136 -0.0535
11574TIP3   OH256212   4.599   3.598   2.786 -0.6679 -0.3651  0.3982
11574TIP3    H156213   4.619   3.685   2.821 -1.0671 -0.6023  1.2206
11574TIP3    H256214   4.515   3.575   2.826 -0.3036 -1.3489  0.6007
11575TIP3   OH256215   6.449   2.363  11.574  0.3394 -0.5784 -0.3967
11575TIP3    H156216   6.412   2.409  11.499  1.3958 -0.4991 -0.8678
11575TIP3    H256217   6.496   2.430  11.623 -0.1899 -0.6670  0.2484
11576TIP3   OH256218   0.493   1.716   3.309  0.0974  0.0305 -0.3593
11576TIP3    H156219   0.583   1.685   3.298 -0.1776 -0.2739 -1.8851
11576TIP3    H256220   0.501   1.793   3.366  1.2990 -0.1128 -0.3192
11577TIP3   OH256221   1.824   6.602   4.881  0.4658  0.4450 -0.6782
11577TIP3    H156222   1.918   6.594   4.865  0.8298 -2.1559  2.1376
11577TIP3    H256223   1.812   6.693   4.907  2.2067  0.8230 -1.1346
11578TIP3   OH256224   5.365   3.198   1.375  0.1824  0.4159  0.1278
11578TIP3    H156225   5.420   3.121   1.388 -0.3855 -0.1022 -0.5081
11578TIP3    H256226   5.408   3.248   1.306 -0.0516  0.0820 -0.2680
11579TIP3   OH256227   0.294   3.674  12.292  0.4104  0.1320  0.4911
11579TIP3    H156228   0.381   3.639  12.270 -0.5787 -1.5984 -0.6809
11579TIP3    H256229   0.274   3.733  12.220 -0.4398 -1.3453 -0.4991
11580TIP3   OH256230   4.388   0.862  15.426  0.2096  0.1993  0.0771
11580TIP3    H156231   4.463   0.861  15.367 -0.7554 -0.1323 -1.1514
11580TIP3    H256232   4.318   0.820  15.377 -0.6937  0.1927  1.3460
11581TIP3   OH256233   4.359   4.887   3.809  0.1250  0.2062  0.1976
11581TIP3    H156234   4.306   4.808   3.820  2.7385 -1.6950 -0.5180
11581TIP3    H256235   4.341   4.939   3.888 -0.0171 -2.0798  1.6969
11582TIP3   OH256236   4.069   4.192  13.347 -0.3346  0.0362 -0.2383
11582TIP3    H156237   4.012   4.262  13.315  0.2494  1.8414  2.4936
11582TIP3    H256238   4.013   4.114  13.349 -2.2302  1.3866  0.7764
11583TIP3   OH256239   1.887   4.074  15.174 -0.0187  0.2243  0.5712
11583TIP3    H156240   1.963   4.017  15.182 -0.9878 -1.0737  0.6995
11583TIP3    H256241   1.815   4.023  15.211 -1.3174  0.6719 -1.2964
11584TIP3   OH256242   0.296   4.643  12.188  1.0603  0.1479 -0.0562
11584TIP3    H156243   0.344   4.701  12.247  1.1034  0.5921 -0.5319
11584TIP3    H256244   0.259   4.575  12.246 -1.1321  2.0464  0.8515
11585TIP3   OH256245   0.033   2.806   5.388  0.1910 -0.0311 -0.3209
11585TIP3    H156246   0.084   2.827   5.465 -0.4458  1.0009 -0.1699
11585TIP3    H256247   0.092   2.823   5.314  0.0735  1.1629 -0.1502
11586TIP3   OH256248   2.069   5.470  15.919 -0.0262 -0.3364  0.0981
11586TIP3    H156249   2.097   5.388  15.879 -1.9363 -0.2565 -1.4867
11586TIP3    H256250   2.011   5.510  15.854 -2.1718  0.4244  2.3790
11587TIP3   OH256251   4.713   2.724  14.840 -0.2318 -0.3195 -0.2186
11587TIP3    H156252   4.739   2.721  14.748  0.0008 -0.6895 -0.1401
11587TIP3    H256253   4.748   2.643  14.878 -1.4878 -0.8175 -0.1126
11588TIP3   OH256254   5.379   1.661   4.040  0.5938 -0.5366  0.6479
11588TIP3    H156255   5.405   1.747   4.071  0.8680 -0.7230  0.9398
11588TIP3    H256256   5.425   1.650   3.957 -0.1650 -0.0255  0.1528
11589TIP3   OH256257   0.632   5.600  12.256 -0.1607 -0.2778 -0.0023
11589TIP3    H156258   0.607   5.509  12.273  0.6699 -0.5260 -0.0989
11589TIP3    H256259   0.706   5.593  12.196  1.0295  0.4137  1.3745
11590TIP3   OH256260   4.854   3.823  11.376 -0.1105  0.0326  0.7943
11590TIP3    H156261   4.846   3.917  11.390 -1.5226 -0.0282  0.5361
11590TIP3    H256262   4.784   3.784  11.430  0.2919 -0.8410  0.7003
11591TIP3   OH256263   3.131   3.079   3.676  0.4627 -0.8533 -0.0556
11591TIP3    H156264   3.084   3.160   3.695 -0.2848 -1.4280  0.5978
11591TIP3    H256265   3.157   3.087   3.584  0.8605  0.3531  0.1536
11592TIP3   OH256266   4.486   5.317  14.235 -0.3766  0.7487 -0.2720
11592TIP3    H156267   4.574   5.316  14.272 -0.7615  0.9989  0.6607
11592TIP3    H256268   4.500   5.323  14.140  0.6295 -1.0372 -0.2476
11593TIP3   OH256269   4.779   5.429   3.990 -0.2625  0.2657  0.7105
11593TIP3    H156270   4.811   5.360   3.932  0.4635  1.1396  0.0478
11593TIP3    H256271   4.856   5.454   4.042  0.3716  2.8348 -1.3443
11594TIP3   OH256272   2.288   5.616  13.495  0.2900  0.1463 -0.3490
11594TIP3    H156273   2.260   5.617  13.403 -0.9368  0.1649  0.0068
11594TIP3    H256274   2.295   5.709  13.518 -0.3388  0.1523 -0.1620
11595TIP3   OH256275   0.995   2.313   0.424 -0.5769  0.0869  0.2082
11595TIP3    H156276   0.934   2.269   0.482 -0.3526  0.7822  0.9979
11595TIP3    H256277   0.943   2.337   0.347 -0.6010 -1.8812 -0.4157
11596TIP3   OH256278   0.751   1.039  11.328 -0.3306  0.2277 -0.2104
11596TIP3    H156279   0.838   1.003  11.345 -0.2175  0.8797  0.6003
11596TIP3    H256280   0.723   0.997  11.246 -0.7452 -2.7050  1.3630
11597TIP3   OH256281   3.814   1.385  12.512  0.0677 -0.7240 -0.0601
11597TIP3    H156282   3.858   1.335  12.580 -0.9171 -0.9915  0.3988
11597TIP3    H256283   3.733   1.416  12.554 -1.5415 -2.5818 -1.6936
11598TIP3   OH256284   5.528   4.886  11.020  0.0094  1.0795 -0.2619
11598TIP3    H156285   5.466   4.852  10.956 -0.7535 -1.4453  1.7421
11598TIP3    H256286   5.484   4.878  11.104  2.9401 -0.6703  1.2030
11599TIP3   OH256287   1.297   6.254   5.534  0.3876  0.0018 -0.1405
11599TIP3    H156288   1.334   6.220   5.616 -0.4566 -1.3895 -0.3309
11599TIP3    H256289   1.329   6.344   5.529  2.2453 -0.5949  0.6262
11600TIP3   OH256290   3.232   4.113   3.793 -0.4985 -0.1862 -1.7185
11600TIP3    H156291   3.141   4.114   3.823 -0.2736  0.1409 -1.0257
11600TIP3    H256292   3.234   4.046   3.725 -0.6534 -2.1516  0.1645
11601TIP3   OH256293   2.785   1.993   4.767 -0.1798 -0.3374  0.8689
11601TIP3    H156294   2.730   1.914   4.766 -1.5980  0.6191  0.4822
11601TIP3    H256295   2.858   1.971   4.825  0.1519 -2.3795 -0.2743
11602TIP3   OH256296   2.588   4.867   3.120 -0.3874 -0.1190  0.3768
11602TIP3    H156297   2.577   4.796   3.183 -0.3749  0.7294  1.3448
11602TIP3    H256298   2.503   4.872   3.075 -0.6888 -0.1557  0.9337
11603TIP3   OH256299   5.135   5.960  14.067  0.0163 -0.1478 -0.6989
11603TIP3    H156300   5.124   6.031  14.003 -0.9502 -1.5022 -2.0797
11603TIP3    H256301   5.189   5.895  14.022 -0.6256 -1.0957 -0.1207
11604TIP3   OH256302   0.432   3.836   5.099  0.3317  0.2698 -0.0793
11604TIP3    H156303   0.416   3.822   5.192  1.4450 -0.1551  0.0548
11604TIP3    H256304   0.384   3.766   5.055 -0.2457  0.5108  0.1732
11605TIP3   OH256305   5.170   0.082   6.160 -0.0810  0.1261 -0.3247
11605TIP3    H156306   5.081   0.085   6.194 -0.1205  0.2695 -0.4414
11605TIP3    H256307   5.182  -0.009   6.133 -0.4488  0.2820 -1.0029
11606TIP3   OH256308   5.870   2.657  16.927 -0.0944  0.3875 -0.7154
11606TIP3    H156309   5.819   2.720  16.875 -0.4351  1.4894  0.9122
11606TIP3    H256310   5.935   2.711  16.972  0.1186 -0.5399  0.1026
11607TIP3   OH256311   6.236   2.074  15.245 -0.5794  0.0651  0.8650
11607TIP3    H156312   6.164   2.089  15.306 -0.9793 -2.3021  1.0122
11607TIP3    H256313   6.193   2.060  15.161 -0.1401  1.1604  0.4480
11608TIP3   OH256314   5.832   3.643   0.949  0.0041 -0.3651 -0.6552
11608TIP3    H156315   5.875   3.593   0.879  0.3592  0.0358 -0.7288
11608TIP3    H256316   5.793   3.718   0.904  1.3521  0.5995 -0.2627
11609TIP3   OH256317   6.039   3.853   0.033 -0.0097 -0.2630  0.0739
11609TIP3    H156318   6.104   3.901   0.084 -0.4879  0.5864 -0.0921
11609TIP3    H256319   6.082   3.772   0.007  2.0612  1.6429 -2.6742
11610TIP3   OH256320   5.834   0.724  17.014  0.2622 -0.3831  0.1917
11610TIP3    H156321   5.869   0.634  17.015  1.0789 -0.0840 -0.2416
11610TIP3    H256322   5.906   0.777  17.048 -0.4327  0.0438  0.9938
11611TIP3   OH256323   4.990   2.018   4.083 -0.2617 -0.5021  0.0763
11611TIP3    H156324   4.993   2.100   4.133 -1.5593  0.5230 -1.4694
11611TIP3    H256325   4.897   1.997   4.075 -0.0477 -1.0430 -1.2227
11612TIP3   OH256326   0.965   4.215   3.282 -0.3783 -0.0773 -0.1284
11612TIP3    H156327   0.870   4.207   3.272 -0.2845  0.7349 -1.7488
11612TIP3    H256328   1.000   4.133   3.248 -0.5447 -0.7891  1.3852
11613TIP3   OH256329   0.043   5.215  13.095  0.0188  0.3501  0.7091
11613TIP3    H156330   0.034   5.140  13.154 -0.7162 -1.4524 -1.6147
11613TIP3    H256331  -0.046   5.229  13.062  0.8063 -0.1359 -1.6889
11614TIP3   OH256332   3.957   6.331  13.448 -0.2690  0.3714 -0.6955
11614TIP3    H156333   3.862   6.318  13.445 -0.1166 -1.2475  0.6508
11614TIP3    H256334   3.985   6.329  13.357 -1.1533 -2.2436 -0.9362
11615TIP3   OH256335   3.654   2.930  13.425  0.0453 -0.6260 -0.0834
11615TIP3    H156336   3.690   2.855  13.376  1.2294 -1.1174  1.4886
11615TIP3    H256337   3.686   2.917  13.515  0.0341  1.6265  0.2676
11616TIP3   OH256338   0.856   5.123  11.875  0.2257  0.3758  0.2684
11616TIP3    H156339   0.810   5.067  11.813 -0.1754  0.0406  0.8660
11616TIP3    H256340   0.926   5.164  11.823 -0.7564  0.9137 -0.6502
11617TIP3   OH256341   4.649   2.031   0.828 -0.4336  0.4345  0.0383
11617TIP3    H156342   4.671   2.103   0.770  0.1706 -0.8549 -1.3762
11617TIP3    H256343   4.664   2.064   0.916 -1.8363  2.5955 -0.4923
11618TIP3   OH256344   0.379   4.953   4.288 -0.2288 -0.7179  0.2556
11618TIP3    H156345   0.304   4.914   4.243 -0.5284  0.8623 -0.6743
11618TIP3    H256346   0.439   4.977   4.217  1.4787 -2.5731  1.0210
11619TIP3   OH256347   6.327   1.838  11.555 -0.2683  1.0479  0.6139
11619TIP3    H156348   6.389   1.833  11.628 -0.2064  0.0750  0.5004
11619TIP3    H256349   6.378   1.873  11.482  0.2102  0.0603  0.4628
11620TIP3   OH256350   4.640   1.424  16.735 -0.9136 -0.2716  0.0354
11620TIP3    H156351   4.557   1.440  16.779 -0.4595 -1.0006  1.1822
11620TIP3    H256352   4.618   1.420  16.642 -2.1850 -0.6440  0.3508
11621TIP3   OH256353   2.867   5.616   1.982  0.1364 -0.1697 -0.6365
11621TIP3    H156354   2.893   5.704   1.955  2.2484 -0.1275  1.3554
11621TIP3    H256355   2.815   5.630   2.061  1.9783 -0.7807  0.7043
11622TIP3   OH256356   2.393   3.554   1.417 -0.1164 -0.0140 -0.5522
11622TIP3    H156357   2.436   3.478   1.456  0.9196  0.2546 -1.1467
11622TIP3    H256358   2.327   3.517   1.358 -0.2302 -0.4319 -0.1680
11623TIP3   OH256359   2.181   6.680  16.965  0.6485 -0.0662  0.3536
11623TIP3    H156360   2.257   6.695  16.909 -0.4035 -1.2043 -1.4131
11623TIP3    H256361   2.209   6.613  17.027  0.9503 -0.8352 -0.5979
11624TIP3   OH256362   1.169   0.185  12.555  0.8344 -0.6239  0.4145
11624TIP3    H156363   1.201   0.248  12.490  0.2948 -0.4844  0.2834
11624TIP3    H256364   1.240   0.179  12.619  1.1748 -0.4070  0.0592
11625TIP3   OH256365   0.026   0.729  14.709 -0.4045  0.8342  0.1274
11625TIP3    H156366  -0.041   0.783  14.666  0.3441  2.4521  0.9261
11625TIP3    H256367   0.036   0.769  14.795  0.1622 -0.6302  0.7458
11626TIP3   OH256368   1.700   3.842   2.104  0.0629 -0.1681  0.1200
11626TIP3    H156369   1.743   3.757   2.097 -1.3946 -0.8087 -1.7721
11626TIP3    H256370   1.638   3.832   2.176 -0.2894 -0.8030 -0.2680
11627TIP3   OH256371   2.272   5.601   2.129 -0.0621  0.5741  0.3378
11627TIP3    H156372   2.362   5.586   2.157  0.3374  0.9956 -0.6961
11627TIP3    H256373   2.274   5.686   2.085 -0.5791 -0.2214 -1.2900
11628TIP3   OH256374   2.169   3.479   0.184  0.6395  0.3170 -0.2765
11628TIP3    H156375   2.193   3.511   0.271 -0.5171  1.4372 -0.3423
11628TIP3    H256376   2.174   3.384   0.191  0.1907  0.3794  1.1417
11629TIP3   OH256377   6.362   1.695  10.926 -0.4450 -0.8522 -0.5017
11629TIP3    H156378   6.300   1.668  10.858  0.7460  0.8686 -2.3497
11629TIP3    H256379   6.321   1.772  10.966 -0.1277 -0.4974 -0.8453
11630TIP3   OH256380   6.681   4.752   0.205 -0.1165 -0.1671 -0.0478
11630TIP3    H156381   6.648   4.842   0.205 -0.7944 -0.3111 -3.6805
11630TIP3    H256382   6.771   4.759   0.173  0.6019 -0.6039  1.7970
11631TIP3   OH256383   5.585   4.716  16.726 -0.1568 -0.6651  0.2527
11631TIP3    H156384   5.578   4.716  16.821  2.3238 -1.2811  0.4909
11631TIP3    H256385   5.544   4.798  16.698 -1.5862 -0.8485  1.7820
11632TIP3   OH256386   4.287   2.032   3.139  0.3014 -1.2379  0.2632
11632TIP3    H156387   4.355   2.005   3.201  0.9313 -0.4401 -0.0614
11632TIP3    H256388   4.252   2.114   3.176  0.8098 -0.6560 -0.5216
11633TIP3   OH256389   3.045   4.614   0.803  0.3516 -0.0055 -0.1623
11633TIP3    H156390   3.086   4.687   0.850  0.4627  0.9234 -1.6549
11633TIP3    H256391   3.074   4.536   0.850  0.0731  0.9135  1.5837
11634TIP3   OH256392   5.890   4.483  17.259  0.1884  0.2249  0.2347
11634TIP3    H156393   5.876   4.566  17.303 -0.4747  0.8831 -1.1692
11634TIP3    H256394   5.959   4.501  17.196 -1.1254  0.1863 -1.2544
11635TIP3   OH256395   3.133   4.858   3.003  0.3300 -0.1056 -0.3581
11635TIP3    H156396   3.154   4.782   3.058 -0.5280  0.1709  0.3722
11635TIP3    H256397   3.037   4.857   2.997  0.4374 -0.3123 -2.1162
11636TIP3   OH256398   6.116   1.973  11.664  0.3906 -0.0329 -0.1554
11636TIP3    H156399   6.147   2.056  11.629 -1.9877  1.6738  1.6004
11636TIP3    H256400   6.171   1.907  11.622  2.6891  2.4424 -1.1919
11637TIP3   OH256401   5.099   6.772  12.856  0.5482 -0.4369  0.3717
11637TIP3    H156402   5.017   6.729  12.878  0.1157  0.5786  0.7741
11637TIP3    H256403   5.167   6.712  12.889 -0.0646 -0.0334  2.4818
11638TIP3   OH256404   0.062   6.690   3.568 -0.1513  0.0166  0.0974
11638TIP3    H156405   0.037   6.755   3.634  0.1427 -0.3024  0.5270
11638TIP3    H256406   0.074   6.741   3.488  1.4739  0.7162  0.7602
11639TIP3   OH256407   6.327   3.548  15.163  0.0294  0.0211  0.0542
11639TIP3    H156408   6.262   3.542  15.234 -1.0757  1.6280 -0.7818
11639TIP3    H256409   6.392   3.481  15.184 -0.9033 -0.3232  1.9534
11640TIP3   OH256410   2.976   4.267   1.492  0.1349 -0.4351 -0.0923
11640TIP3    H156411   2.901   4.229   1.445  1.0176 -2.6519  0.1959
11640TIP3    H256412   3.027   4.191   1.519  0.8590  0.9186  2.4450
11641TIP3   OH256413   0.221   0.111   3.185  0.1455 -0.1891 -0.2709
11641TIP3    H156414   0.287   0.051   3.149 -1.9512 -2.5635 -0.3290
11641TIP3    H256415   0.232   0.191   3.135  1.6371 -1.2329 -1.6772
11642TIP3   OH256416   0.586   2.708  13.140  0.0540  0.3549 -0.4940
11642TIP3    H156417   0.497   2.678  13.154 -0.4738  1.9217 -0.3838
11642TIP3    H256418   0.623   2.647  13.076 -1.6322  0.6495 -1.7681
11643TIP3   OH256419   0.987   4.110   3.552  0.1463 -0.1346  0.1663
11643TIP3    H156420   0.983   4.162   3.471  1.6422 -1.5971 -0.8926
11643TIP3    H256421   0.997   4.174   3.621 -0.6214  1.1250 -0.8685
11644TIP3   OH256422   3.817   5.683   5.948 -0.5082 -0.5701  0.3901
11644TIP3    H156423   3.763   5.675   5.869 -1.2561  0.0577  0.8234
11644TIP3    H256424   3.901   5.643   5.924 -1.4895 -2.4714  0.0160
11645TIP3   OH256425   6.554   3.813  13.244 -0.2279 -0.4276  0.3412
11645TIP3    H156426   6.587   3.740  13.192 -0.5966 -0.3037 -0.0599
11645TIP3    H256427   6.598   3.890  13.208  2.0244 -0.7199  2.3132
11646TIP3   OH256428   3.309   1.934  16.335  0.3489 -0.2476  0.0560
11646TIP3    H156429   3.234   1.988  16.311  0.8107  0.0922 -0.6535
11646TIP3    H256430   3.372   1.948  16.264  1.7692  0.8300  1.5057
11647TIP3   OH256431   5.580   1.753  12.410 -0.3209 -0.0786 -0.0622
11647TIP3    H156432   5.639   1.686  12.445  0.5876  1.6498  1.8152
11647TIP3    H256433   5.500   1.743  12.460  0.3908  1.2764  1.4058
11648TIP3   OH256434   5.131   5.700   1.676  0.5575 -0.6788  0.1022
11648TIP3    H156435   5.062   5.642   1.642 -0.3808  0.6454 -0.2914
11648TIP3    H256436   5.212   5.649   1.667 -0.2996 -2.0550  0.0926
11649TIP3   OH256437   5.772   5.471  16.284  0.3595 -0.1743  0.7224
11649TIP3    H156438   5.813   5.396  16.241  1.0004  0.8612 -0.5022
11649TIP3    H256439   5.704   5.432  16.340  1.3233 -1.7245  0.8536
11650TIP3   OH256440   6.571   2.200   0.937 -0.7151  0.3790  0.2461
11650TIP3    H156441   6.528   2.214   1.022 -0.4284 -2.3457  0.8832
11650TIP3    H256442   6.501   2.168   0.880 -0.0884 -1.8354  0.6542
11651TIP3   OH256443   1.587   0.413  13.454 -0.2859  0.0598  0.6233
11651TIP3    H156444   1.511   0.378  13.407 -0.3380  2.0613 -0.8756
11651TIP3    H256445   1.605   0.348  13.522 -3.4587 -0.3806  1.1487
11652TIP3   OH256446   4.807   5.727   6.309 -0.7215  1.0449 -1.0022
11652TIP3    H156447   4.774   5.746   6.222 -0.1697  1.6875 -1.0759
11652TIP3    H256448   4.881   5.787   6.321 -0.4581  0.5980 -0.3030
11653TIP3   OH256449   5.690   5.772   3.370 -0.1080 -0.2235  0.3486
11653TIP3    H156450   5.779   5.776   3.405  0.2443  0.5469 -0.6020
11653TIP3    H256451   5.663   5.682   3.384  0.9880 -0.5770  0.2769
11654TIP3   OH256452   6.799   3.154  12.402  0.1518 -0.5648 -0.8116
11654TIP3    H156453   6.735   3.224  12.411 -0.2099 -1.0067  0.2045
11654TIP3    H256454   6.879   3.189  12.441 -0.0390 -0.7297 -0.2701
11655TIP3   OH256455   4.860   1.836   5.650 -0.4421 -0.1936  0.5200
11655TIP3    H156456   4.923   1.894   5.607 -0.7444  0.6860  1.2544
11655TIP3    H256457   4.787   1.831   5.589  0.8284 -2.1812 -0.8841
11656TIP3   OH256458   3.557   4.553  15.494 -0.5106  0.5911  0.4804
11656TIP3    H156459   3.462   4.564  15.495 -0.7510 -1.3298  1.2610
11656TIP3    H256460   3.572   4.471  15.541  1.5107  0.6874  0.0473
11657TIP3   OH256461   4.451   6.750  17.154  0.0665 -0.5192  0.1210
11657TIP3    H156462   4.480   6.841  17.151  0.2352 -0.4200  3.0284
11657TIP3    H256463   4.356   6.755  17.145  0.1776 -0.1762 -0.9745
11658TIP3   OH256464   0.703   6.354  13.170 -0.0474 -0.0405  0.0670
11658TIP3    H156465   0.713   6.449  13.183 -1.7104 -0.1288  2.3153
11658TIP3    H256466   0.609   6.338  13.178 -0.0322 -1.6220 -2.4174
11659TIP3   OH256467   0.966   1.874   5.400 -0.3559  0.4237  0.0819
11659TIP3    H156468   0.973   1.963   5.436  1.8918 -0.6226  2.4190
11659TIP3    H256469   1.036   1.870   5.334 -0.2193  0.2823  0.2354
11660TIP3   OH256470   6.320   3.917   3.596  0.4274 -0.1063  0.1598
11660TIP3    H156471   6.384   3.868   3.545  1.2515  1.0721  0.0447
11660TIP3    H256472   6.358   4.004   3.605 -1.5088  0.8310 -0.5277
11661TIP3   OH256473   4.085   2.492  15.589  0.0433  0.1419 -0.3266
11661TIP3    H156474   4.162   2.520  15.539 -0.0420 -0.2544 -0.6788
11661TIP3    H256475   4.019   2.559  15.570 -0.5327 -0.8834 -2.0836
11662TIP3   OH256476   0.192   5.358  16.672 -0.3447 -1.0450 -0.0680
11662TIP3    H156477   0.252   5.356  16.597  1.1504 -0.1292  1.0613
11662TIP3    H256478   0.107   5.379  16.635  0.1464 -1.8407 -1.6544
11663TIP3   OH256479   5.204   2.816  16.627  0.1750 -0.7561 -0.4044
11663TIP3    H156480   5.212   2.781  16.716  0.1051 -0.2997 -0.2189
11663TIP3    H256481   5.257   2.757  16.574  1.5123 -0.1056  0.1872
11664TIP3   OH256482   1.184   2.185  15.409  0.3958  0.2529  0.0163
11664TIP3    H156483   1.175   2.136  15.327 -0.1004  1.1077 -0.4520
11664TIP3    H256484   1.112   2.154  15.464 -1.7776  2.5417 -1.3820
11665TIP3   OH256485   0.704   5.475   2.403 -0.5590  0.2665 -0.3943
11665TIP3    H156486   0.609   5.483   2.415 -0.4882 -0.4552  0.6665
11665TIP3    H256487   0.742   5.521   2.478 -0.0858 -0.7531 -0.0085
11666TIP3   OH256488   3.103   4.983   0.840  0.2340 -0.4085 -0.1716
11666TIP3    H156489   3.124   4.905   0.893 -1.1830 -0.9781 -0.4223
11666TIP3    H256490   3.038   5.030   0.892 -2.0594 -1.5929 -1.9325
11667TIP3   OH256491   2.207   0.460   2.934 -0.6420 -0.6602 -0.6294
11667TIP3    H156492   2.155   0.527   2.978  1.1248  0.9716 -0.9699
11667TIP3    H256493   2.153   0.432   2.860 -0.6670  1.7225 -1.5621
11668TIP3   OH256494   2.897   6.327  15.489  0.3387 -0.3251  0.0365
11668TIP3    H156495   2.897   6.362  15.400 -0.8890  1.0838  0.5668
11668TIP3    H256496   2.851   6.393  15.540  2.2793 -0.4355  1.9899
11669TIP3   OH256497   5.941   0.482  13.619 -0.2803 -0.1218 -0.2411
11669TIP3    H156498   5.868   0.541  13.638  0.5763  0.4554  1.2734
11669TIP3    H256499   6.003   0.535  13.570  0.2174  0.0776  0.5970
11670TIP3   OH256500   3.848   5.680   4.550 -0.1250  0.0429 -0.2536
11670TIP3    H156501   3.908   5.696   4.623  2.4845  1.8423 -2.7063
11670TIP3    H256502   3.890   5.612   4.498 -1.6071 -0.6986 -0.5354
11671TIP3   OH256503   0.853   2.353   0.858  0.2388 -0.7405  0.0248
11671TIP3    H156504   0.817   2.267   0.837  0.9366 -1.4514  1.6093
11671TIP3    H256505   0.825   2.410   0.786 -2.1828 -1.7491  0.1334
11672TIP3   OH256506   4.958   2.722   2.031 -0.0908  0.6144  0.0138
11672TIP3    H156507   5.009   2.692   1.955 -0.1759 -0.9182  0.5289
11672TIP3    H256508   4.879   2.668   2.028  0.2460 -0.0015  1.6048
11673TIP3   OH256509   5.899   2.662  16.619  0.2035 -0.1949 -0.2942
11673TIP3    H156510   5.902   2.584  16.564  0.5029  1.1203 -2.1927
11673TIP3    H256511   5.983   2.662  16.665  1.0505  0.0769 -1.8158
11674TIP3   OH256512   1.391   6.678   1.779  0.4186 -0.6432  0.0962
11674TIP3    H156513   1.342   6.758   1.762 -0.6358 -1.3347 -0.1639
11674TIP3    H256514   1.481   6.707   1.794 -0.1284  0.6693  0.8910
11675TIP3   OH256515   1.704   2.541   5.480 -0.6494  0.2879  0.0835
11675TIP3    H156516   1.699   2.535   5.575  2.1458 -0.3102  0.2481
11675TIP3    H256517   1.748   2.624   5.463  0.4418 -0.4062 -0.5908
11676TIP3   OH256518   5.266   2.306   2.095  0.4881  0.2018  0.2800
11676TIP3    H156519   5.348   2.349   2.121 -0.3666  1.9749  0.1013
11676TIP3    H256520   5.198   2.370   2.116 -0.7094 -0.6193 -1.0530
11677TIP3   OH256521   0.659   1.267  11.481 -0.0329  0.5186 -0.1874
11677TIP3    H156522   0.722   1.337  11.497  1.4696 -1.0652  1.0437
11677TIP3    H256523   0.711   1.195  11.446 -1.6195  0.1211 -1.8052
11678TIP3   OH256524   5.047   2.760  12.660  0.4983 -0.1980  0.1732
11678TIP3    H156525   4.998   2.776  12.741  1.5594  0.2961  0.7149
11678TIP3    H256526   5.001   2.811  12.594 -1.2879 -1.7861  0.1356
11679TIP3   OH256527   5.660   5.795  13.553  0.4480  0.0847 -0.2203
11679TIP3    H156528   5.580   5.745  13.570  0.8752 -1.2123 -1.8570
11679TIP3    H256529   5.630   5.881  13.525 -0.3584 -0.0525  0.2191
11680TIP3   OH256530   0.371   5.419   4.851 -0.1589  0.0753 -0.3418
11680TIP3    H156531   0.398   5.375   4.771 -0.1310  0.5045 -0.5728
11680TIP3    H256532   0.325   5.352   4.902  1.4500 -0.6908  0.1195
11681TIP3   OH256533   3.324   4.584   2.352 -0.0201 -0.2546 -0.3000
11681TIP3    H156534   3.229   4.571   2.354  0.3057 -2.9142 -0.4800
11681TIP3    H256535   3.339   4.631   2.270 -1.1563  0.0746 -0.3407
11682TIP3   OH256536   3.546   1.472   1.156  0.3005  0.7243 -0.2720
11682TIP3    H156537   3.513   1.528   1.085  1.1421  1.5268 -0.0410
11682TIP3    H256538   3.477   1.407   1.169 -0.4781  1.4065 -0.8842
11683TIP3   OH256539   2.665   1.406  16.472 -0.2327 -0.0101  0.0351
11683TIP3    H156540   2.750   1.409  16.428  0.2148  3.3715  0.9802
11683TIP3    H256541   2.686   1.389  16.563 -0.6153 -0.0339  0.1203
11684TIP3   OH256542   3.186   3.913  11.744 -0.1128  0.8115 -0.3332
11684TIP3    H156543   3.179   3.819  11.761  0.9953  1.1989  2.4938
11684TIP3    H256544   3.137   3.926  11.662 -0.8369 -2.0974 -0.4224
11685TIP3   OH256545   0.107   5.285   2.029 -0.3019 -0.6940  0.2088
11685TIP3    H156546   0.121   5.282   1.934 -0.0502  1.3758  0.1378
11685TIP3    H256547   0.195   5.297   2.066 -0.7853  3.5404  0.3227
11686TIP3   OH256548   0.632   2.530  16.642 -0.4173  0.1670  0.1394
11686TIP3    H156549   0.555   2.588  16.641 -0.9035 -0.4465  0.9576
11686TIP3    H256550   0.674   2.545  16.557 -1.0572  1.0193 -0.0401
11687TIP3   OH256551   3.490   2.463   2.299 -0.7966 -0.1899 -0.0818
11687TIP3    H156552   3.423   2.511   2.347 -0.3828 -1.0451  1.4252
11687TIP3    H256553   3.451   2.377   2.283 -0.9698  0.1300 -1.3937
11688TIP3   OH256554   4.508   1.356  12.841  0.1987  0.4260 -1.0821
11688TIP3    H156555   4.567   1.395  12.777 -1.6568  1.3903 -2.2802
11688TIP3    H256556   4.463   1.431  12.881  0.2356 -0.2504  0.2608
11689TIP3   OH256557   5.975   4.013   6.387 -0.2695 -0.6382 -0.5525
11689TIP3    H156558   6.059   4.044   6.355  0.6597  0.1335  2.5012
11689TIP3    H256559   5.972   3.921   6.363  0.9847 -0.4081 -1.6003
11690TIP3   OH256560   5.973   6.607  14.213 -0.0359 -0.9911 -0.3417
11690TIP3    H156561   5.890   6.579  14.174 -0.4526  0.5355 -0.6054
11690TIP3    H256562   5.947   6.653  14.293  0.5364 -0.2830 -0.5585
11691TIP3   OH256563   5.045   1.895   1.847  0.1260  0.6325 -0.4521
11691TIP3    H156564   5.086   1.831   1.904  0.6464 -0.3993 -1.9396
11691TIP3    H256565   5.065   1.979   1.886  0.8880 -0.0299  0.6036
11692TIP3   OH256566   1.790   2.777  14.267 -0.0819  0.5267 -0.7639
11692TIP3    H156567   1.863   2.719  14.292  0.0162  0.1086 -1.9612
11692TIP3    H256568   1.832   2.861  14.248 -0.0121  0.5192 -0.6440
11693TIP3   OH256569   6.768   1.424  16.407  0.1455 -0.2805 -0.0602
11693TIP3    H156570   6.754   1.338  16.369 -0.2171 -1.1348  1.9201
11693TIP3    H256571   6.747   1.413  16.500 -1.8553  2.4037 -0.1218
11694TIP3   OH256572   0.160   1.482  13.372 -0.1839 -0.1441 -0.8110
11694TIP3    H156573   0.100   1.550  13.342 -0.9843 -0.3532  0.2967
11694TIP3    H256574   0.199   1.447  13.292 -1.8157 -0.2638 -1.5644
11695TIP3   OH256575   1.192   1.481  11.731  0.1641  0.4913 -0.0090
11695TIP3    H156576   1.177   1.508  11.640  2.0825  1.4249 -0.0681
11695TIP3    H256577   1.146   1.546  11.783 -0.8640  0.0076 -0.2922
11696TIP3   OH256578   0.273   2.466   4.242  0.0169  0.2319  0.0583
11696TIP3    H156579   0.299   2.378   4.268 -1.9181 -0.7089 -1.1110
11696TIP3    H256580   0.260   2.513   4.324  1.4280 -0.4325  0.6817
11697TIP3   OH256581   1.473   1.316  14.504  0.1106  0.0665 -0.1376
11697TIP3    H156582   1.395   1.270  14.474 -0.4136  1.1118 -0.3917
11697TIP3    H256583   1.460   1.407  14.477  0.5284  0.6397  1.4865
11698TIP3   OH256584   1.386   0.494   2.793 -0.2240 -0.4190  0.1243
11698TIP3    H156585   1.309   0.439   2.803 -0.0851 -0.6748 -0.1999
11698TIP3    H256586   1.432   0.457   2.718  0.2586 -0.3220  0.3721
11699TIP3   OH256587   1.249   1.263   0.229  0.1271 -0.0001 -0.1617
11699TIP3    H156588   1.254   1.339   0.170 -0.0986  0.0491 -0.1164
11699TIP3    H256589   1.315   1.203   0.195  2.5885  1.5504  1.7167
11700TIP3   OH256590   0.283   3.356  15.479  0.2259 -0.7579  0.6459
11700TIP3    H156591   0.239   3.275  15.453  0.1041 -0.0870 -1.3275
11700TIP3    H256592   0.373   3.345  15.448 -0.3576  0.7727 -1.7743
11701TIP3   OH256593   0.787   0.804   2.857  0.2786 -0.8094 -0.0212
11701TIP3    H156594   0.793   0.829   2.950 -0.0564  0.4751 -0.3298
11701TIP3    H256595   0.770   0.710   2.858  0.9924 -0.9310  1.2123
11702TIP3   OH256596   2.634   2.777   4.438 -0.0426  0.1561 -0.1050
11702TIP3    H156597   2.667   2.742   4.521 -0.6009 -0.9881 -0.3459
11702TIP3    H256598   2.591   2.702   4.396  0.2392  0.7185 -1.4332
11703TIP3   OH256599   3.865   2.471   4.342 -0.1029 -0.3282 -0.1919
11703TIP3    H156600   3.849   2.488   4.435 -1.2909 -0.8102 -0.3018
11703TIP3    H256601   3.944   2.521   4.322 -1.6800  2.4477  0.2884
11704TIP3   OH256602   6.490   6.350   0.283  0.0421  0.2420  0.5730
11704TIP3    H156603   6.447   6.340   0.198  1.0571  0.5236  0.0198
11704TIP3    H256604   6.457   6.277   0.335 -0.2997 -0.1535 -0.1866
11705TIP3   OH256605   4.419   0.760  16.859 -0.2243  0.1805 -0.5047
11705TIP3    H156606   4.418   0.856  16.869  1.3317  0.2639 -0.8894
11705TIP3    H256607   4.511   0.740  16.841 -0.8449 -1.2145 -2.2272
11706TIP3   OH256608   4.974   4.229  11.058 -0.4707  0.1236 -0.0063
11706TIP3    H156609   4.926   4.306  11.088  2.6313  1.2621  2.2406
11706TIP3    H256610   5.011   4.256  10.973 -2.9916 -0.4680 -1.3364
11707TIP3   OH256611   1.824   0.660   0.234 -0.0640  0.1692  0.2341
11707TIP3    H156612   1.733   0.687   0.242 -0.1780 -0.4733  1.2868
11707TIP3    H256613   1.847   0.629   0.322  1.1001  0.1201 -0.0775
11708TIP3   OH256614   4.416   2.621   0.725 -0.0674 -0.1102  0.6938
11708TIP3    H156615   4.439   2.714   0.725  1.7271 -0.5176  0.1484
11708TIP3    H256616   4.447   2.588   0.810  0.6165 -0.4826  0.3132
11709TIP3   OH256617   0.919   6.165  14.391 -0.3329 -0.4992 -0.6173
11709TIP3    H156618   0.828   6.170  14.421 -0.7597 -1.1220 -1.7817
11709TIP3    H256619   0.919   6.095  14.326  1.2326 -1.3521  0.2599
11710TIP3   OH256620   4.583   0.957   4.964 -0.0691 -0.3179  0.1877
11710TIP3    H156621   4.507   0.901   4.948 -1.9641  2.6760 -2.0282
11710TIP3    H256622   4.628   0.960   4.880  0.6966  0.4702  0.6266
11711TIP3   OH256623   1.022   1.444   1.604 -0.2013  0.0412 -0.4031
11711TIP3    H156624   0.969   1.388   1.548 -2.1360  2.0472 -0.6523
11711TIP3    H256625   1.060   1.385   1.669 -0.3965 -1.8508 -1.9777
11712TIP3   OH256626   5.509   0.321   6.139  0.0931  0.0563 -0.4510
11712TIP3    H156627   5.559   0.387   6.092  2.0306 -0.5433  0.7418
11712TIP3    H256628   5.569   0.248   6.150 -1.6127 -1.4187 -0.5951
11713TIP3   OH256629   3.210   3.164  14.875  0.5456  0.0050  0.2420
11713TIP3    H156630   3.211   3.127  14.963  2.0178 -0.3630  0.0801
11713TIP3    H256631   3.143   3.114  14.829 -0.1580  0.1298  1.1266
11714TIP3   OH256632   4.471   3.273  12.848 -0.1884  0.4120 -0.1665
11714TIP3    H156633   4.554   3.226  12.844 -1.1642 -1.4982  1.2368
11714TIP3    H256634   4.445   3.284  12.757  1.0442  0.0204 -0.5771
11715TIP3   OH256635   1.789   6.565  15.855 -0.3410 -0.0382 -0.1104
11715TIP3    H156636   1.880   6.584  15.834 -0.3281  0.0015 -0.0138
11715TIP3    H256637   1.770   6.617  15.933  0.2154 -1.7612  1.1993
11716TIP3   OH256638   5.322   2.351   5.749 -0.4212 -0.2802 -0.0405
11716TIP3    H156639   5.402   2.299   5.757 -1.3996 -1.7229  0.5140
11716TIP3    H256640   5.345   2.437   5.786  0.9450 -0.5839 -0.1654
11717TIP3   OH256641   1.612   6.175   2.338 -0.1788  0.0201 -0.4866
11717TIP3    H156642   1.673   6.218   2.399  0.0090 -0.6098 -0.2298
11717TIP3    H256643   1.669   6.131   2.275 -0.3672 -0.5623 -0.2526
11718TIP3   OH256644   1.184   2.724  11.337  0.3103 -0.3384 -0.0157
11718TIP3    H156645   1.143   2.682  11.412  2.2824 -1.2428  0.5746
11718TIP3    H256646   1.174   2.818  11.354 -2.2440 -0.5232 -0.3157
11719TIP3   OH256647   1.203   0.817  12.749  0.1122 -0.2498 -0.2002
11719TIP3    H156648   1.200   0.888  12.685 -2.2216 -1.5957 -1.6404
11719TIP3    H256649   1.278   0.764  12.722 -0.8587 -0.8081 -1.8334
11720TIP3   OH256650   6.035   5.974   4.546  0.1992  0.2554 -0.6593
11720TIP3    H156651   6.067   6.053   4.590 -1.3119 -0.0553  1.0611
11720TIP3    H256652   6.090   5.904   4.580 -1.3214 -0.0718  1.2698
11721TIP3   OH256653   0.149   1.597  12.547  0.0992  0.1002 -0.3180
11721TIP3    H156654   0.088   1.669  12.562 -1.5471 -1.3183  0.0113
11721TIP3    H256655   0.157   1.592  12.452 -2.7762 -1.6308 -0.5534
11722TIP3   OH256656   0.364   4.301  11.566 -0.3515  0.4176 -0.1215
11722TIP3    H156657   0.275   4.320  11.598 -0.9153 -0.7810 -0.9205
11722TIP3    H256658   0.364   4.331  11.475  0.0354  0.3427 -0.1466
11723TIP3   OH256659   2.807   4.449  10.806 -0.0393  0.0089  0.2497
11723TIP3    H156660   2.805   4.359  10.774 -0.0742  0.5963 -1.4360
11723TIP3    H256661   2.716   4.469  10.827 -0.5774  0.7599 -2.5992
11724TIP3   OH256662   2.591   4.780   5.669  0.0616 -0.4709 -1.1627
11724TIP3    H156663   2.620   4.690   5.653 -0.9705 -0.8325 -1.0028
11724TIP3    H256664   2.498   4.779   5.647 -0.4270  0.0651  0.7958
11725TIP3   OH256665   4.845   0.614   3.174 -0.6156  0.2733 -0.1421
11725TIP3    H156666   4.817   0.699   3.138  1.4113  0.9388 -0.2169
11725TIP3    H256667   4.889   0.571   3.101 -0.3641 -0.2442  0.3162
11726TIP3   OH256668   1.246   1.364   1.773 -0.2503  0.2529 -0.1139
11726TIP3    H156669   1.333   1.342   1.739 -1.0356 -1.2441 -1.2095
11726TIP3    H256670   1.263   1.427   1.844  1.8201 -1.0597  0.6095
11727TIP3   OH256671   2.601   3.825   6.468  0.2024 -0.2670  0.0989
11727TIP3    H156672   2.689   3.857   6.447  0.5622 -0.8208  0.7451
11727TIP3    H256673   2.596   3.739   6.426  0.4938 -0.8591  1.2607
11728TIP3   OH256674   2.587   3.385  13.918  0.7867  0.0067  0.4010
11728TIP3    H156675   2.554   3.421  14.001 -0.9489  0.2523 -0.3686
11728TIP3    H256676   2.517   3.327  13.889  1.3133  0.0639 -0.9922
11729TIP3   OH256677   5.659   2.529  13.392 -0.1760 -0.3649  0.0168
11729TIP3    H156678   5.621   2.540  13.304 -1.9019 -2.8945  0.3918
11729TIP3    H256679   5.749   2.501  13.376 -0.4817 -0.8200 -0.9455
11730TIP3   OH256680   3.967   0.843  16.796  0.8288 -0.7952 -0.6549
11730TIP3    H156681   4.051   0.858  16.753  2.2074 -0.9295  1.8738
11730TIP3    H256682   3.959   0.916  16.858 -0.4001 -1.3638 -0.1310
11731TIP3   OH256683   4.286   2.271  11.870  0.2840  0.2028 -0.3638
11731TIP3    H156684   4.256   2.315  11.790  0.1157  2.3244  0.8175
11731TIP3    H256685   4.380   2.285  11.871  0.5484 -1.4658 -1.1407
11732TIP3   OH256686   2.900   0.625  13.255  0.0143 -0.8921  0.3623
11732TIP3    H156687   2.977   0.586  13.297 -1.2094 -2.6638  1.0367
11732TIP3    H256688   2.836   0.634  13.326 -0.6618 -0.1356 -0.3268
11733TIP3   OH256689   1.023   6.216  16.513  0.0527 -0.2664  0.0454
11733TIP3    H156690   1.106   6.255  16.485  0.2214 -1.6872 -1.4748
11733TIP3    H256691   0.963   6.234  16.441 -0.1875 -1.7469 -0.1392
11734TIP3   OH256692   5.428   6.622  15.687 -0.2685 -0.3885 -0.1116
11734TIP3    H156693   5.366   6.653  15.622  0.2065  0.3091 -0.2391
11734TIP3    H256694   5.412   6.528  15.694  0.0387 -0.5552 -1.6259
11735TIP3   OH256695   6.658   2.191  15.710  0.3713 -0.1927  0.0508
11735TIP3    H156696   6.687   2.208  15.620 -1.1579 -0.6709 -0.5472
11735TIP3    H256697   6.681   2.270  15.758  5.7316 -1.7727  0.4287
11736TIP3   OH256698   5.547   0.290   0.708  0.1104 -0.4628 -0.6364
11736TIP3    H156699   5.601   0.251   0.777 -1.9560 -0.0034  1.3061
11736TIP3    H256700   5.481   0.223   0.689  0.7952 -0.6698 -2.3439
11737TIP3   OH256701   5.381   0.859  16.364  0.0406 -0.1492 -0.4136
11737TIP3    H156702   5.316   0.835  16.299 -1.1958  0.8963  0.4177
11737TIP3    H256703   5.419   0.941  16.331 -0.0837  0.0068 -0.1673
11738TIP3   OH256704   0.086   0.033   1.693 -0.4168  0.2966  0.0887
11738TIP3    H156705   0.153  -0.002   1.752 -0.2866 -1.0998 -0.8650
11738TIP3    H256706   0.004   0.022   1.740 -0.7970 -4.3044 -1.4061
11739TIP3   OH256707   5.442   2.801  11.392 -0.0416  0.1928  0.0978
11739TIP3    H156708   5.422   2.859  11.466  0.7098 -0.6321  0.9635
11739TIP3    H256709   5.519   2.840  11.351 -0.1648  0.3758  0.0355
11740TIP3   OH256710   4.428   1.214  16.239 -0.0518  0.4781  0.5298
11740TIP3    H156711   4.396   1.182  16.324 -2.2751 -0.3679 -0.5899
11740TIP3    H256712   4.506   1.161  16.222 -0.7713 -0.8016  1.0946
11741TIP3   OH256713   3.804   4.361  14.741  0.2577  0.1785 -0.5284
11741TIP3    H156714   3.753   4.305  14.683  2.1199  1.1862 -3.2850
11741TIP3    H256715   3.745   4.432  14.765 -1.2575 -1.4815  0.7299
11742TIP3   OH256716   3.393   1.448   3.672 -0.2837 -0.5405  0.6637
11742TIP3    H156717   3.465   1.397   3.635 -0.6639 -0.4322 -0.2400
11742TIP3    H256718   3.436   1.514   3.727  0.5030  1.3259 -2.0628
11743TIP3   OH256719   5.232   5.998  12.508 -0.6572  0.1517 -0.1280
11743TIP3    H156720   5.326   6.003  12.488 -0.6733  1.1882  0.0129
11743TIP3    H256721   5.223   5.920  12.562  0.2333  0.4401  0.4516
11744TIP3   OH256722   4.089   1.885  13.260  0.5745 -0.0311 -0.1478
11744TIP3    H156723   4.032   1.814  13.291  1.6282 -0.6232  0.4294
11744TIP3    H256724   4.136   1.914  13.338 -1.6639  3.0451  0.1713
11745TIP3   OH256725   4.828   4.022   4.984 -0.4512 -0.3324  0.0552
11745TIP3    H156726   4.897   3.959   4.961 -1.2154 -1.4933  0.8724
11745TIP3    H256727   4.853   4.054   5.071 -0.0012  0.5933 -0.4116
11746TIP3   OH256728   0.383   0.089  15.274  0.5649 -0.5189  0.2950
11746TIP3    H156729   0.446   0.160  15.278  0.5393 -0.4662 -0.1385
11746TIP3    H256730   0.341   0.099  15.188 -0.3888 -0.2442  0.7809
11747TIP3   OH256731   1.755   3.023  11.526  0.4174  0.0008 -0.1370
11747TIP3    H156732   1.823   3.028  11.460 -0.2618 -0.6444 -0.8970
11747TIP3    H256733   1.786   3.079  11.597  0.2291  2.2967 -1.8315
11748TIP3   OH256734   4.403   3.837   1.513 -0.8469  0.3895  0.1630
11748TIP3    H156735   4.359   3.807   1.433  2.1624  0.8610 -1.7344
11748TIP3    H256736   4.475   3.891   1.482  0.7123  0.1305  3.1896
11749TIP3   OH256737   2.429   2.409   4.130 -0.0417 -0.0625 -0.3603
11749TIP3    H156738   2.453   2.325   4.170 -0.7355  0.5983  1.4626
11749TIP3    H256739   2.337   2.422   4.154 -0.1084  0.9622 -1.1217
11750TIP3   OH256740   0.644   2.941   3.405  0.4934 -0.5249  0.3778
11750TIP3    H156741   0.582   2.905   3.469  0.6859  0.8594  1.3810
11750TIP3    H256742   0.589   2.991   3.345  0.3929 -1.2083 -0.1016
11751TIP3   OH256743   4.809   4.728  14.120 -0.0807  0.0220  0.5847
11751TIP3    H156744   4.831   4.680  14.041 -0.1404 -0.1962  0.7020
11751TIP3    H256745   4.741   4.676  14.163 -0.6847  0.5900  0.3278
11752TIP3   OH256746   0.597   0.957   0.205  0.3031  0.2305 -0.0451
11752TIP3    H156747   0.664   1.015   0.171  0.2098 -0.9391 -2.2646
11752TIP3    H256748   0.534   1.016   0.247  1.4525  1.5157 -0.0830
11753TIP3   OH256749   3.091   5.622  13.948  0.2592  0.7204  0.3890
11753TIP3    H156750   3.153   5.557  13.914 -0.1811 -1.0082  2.7854
11753TIP3    H256751   3.009   5.604  13.901  0.7791  1.1868 -0.7320
11754TIP3   OH256752   2.633   6.701  14.667 -0.4121 -0.3894 -0.1361
11754TIP3    H156753   2.683   6.650  14.731 -0.4511 -1.3434 -0.8588
11754TIP3    H256754   2.556   6.649  14.649  0.0219 -0.5434 -1.6160
11755TIP3   OH256755   1.346   2.128  14.673  0.0468 -0.9449 -0.0464
11755TIP3    H156756   1.319   2.219  14.687  0.6079 -0.9458  1.1530
11755TIP3    H256757   1.438   2.134  14.648 -0.2030 -1.1240 -1.0114
11756TIP3   OH256758   5.627   4.237  15.217  0.6864 -0.0187 -0.2017
11756TIP3    H156759   5.551   4.295  15.219  1.2304  0.6494  1.5388
11756TIP3    H256760   5.619   4.191  15.133 -0.6190  1.3875 -0.8770
11757TIP3   OH256761   3.650   2.508  14.630  0.3411  0.1082  0.0676
11757TIP3    H156762   3.571   2.455  14.637  0.4329 -0.0621 -0.2122
11757TIP3    H256763   3.688   2.485  14.545 -0.4448  1.7573 -0.7537
11758TIP3   OH256764   1.321   3.614  10.645 -0.5482  0.4808 -0.3040
11758TIP3    H156765   1.233   3.578  10.636 -0.4421  0.6766 -2.1387
11758TIP3    H256766   1.371   3.543  10.686 -1.0965 -0.3315 -1.0105
11759TIP3   OH256767   4.157   5.233  15.134  0.3413  0.0491 -0.5000
11759TIP3    H156768   4.159   5.260  15.226  0.5531 -1.5345 -0.0274
11759TIP3    H256769   4.124   5.310  15.087 -0.4134  0.6414  0.9729
11760TIP3   OH256770   5.218   4.425   0.236  0.9820 -0.2031  0.0718
11760TIP3    H156771   5.275   4.405   0.162  1.2149  0.3765  0.0973
11760TIP3    H256772   5.219   4.345   0.289 -1.9609 -1.9849 -2.3381
11761TIP3   OH256773   3.835   3.684   5.258 -0.1183 -0.1300  0.0291
11761TIP3    H156774   3.802   3.769   5.231 -0.0050  0.6799  2.3215
11761TIP3    H256775   3.924   3.702   5.290  1.0882 -1.6271 -2.3801
11762TIP3   OH256776   4.887   6.136  12.186 -0.2822  0.4038 -0.5881
11762TIP3    H156777   4.979   6.121  12.206 -0.6474 -0.2489  0.6678
11762TIP3    H256778   4.840   6.074  12.242 -1.5683  2.3399  0.5400
11763TIP3   OH256779   1.908   4.933   1.211  0.2176  0.1598 -0.2645
11763TIP3    H156780   1.891   5.027   1.206  0.5206  0.1718 -1.1785
11763TIP3    H256781   1.988   4.926   1.263 -0.4293  0.3331  0.7736
11764TIP3   OH256782   1.944   5.706   4.470 -0.7941 -0.0778 -0.0285
11764TIP3    H156783   2.022   5.724   4.418 -0.2228 -2.4676 -0.0877
11764TIP3    H256784   1.875   5.689   4.405 -1.1397  1.0795  0.0238
11765TIP3   OH256785   4.039   3.772   3.477 -0.1226  0.1878  0.6335
11765TIP3    H156786   3.952   3.776   3.517 -0.4025  0.3603  0.0108
11765TIP3    H256787   4.024   3.736   3.390  0.0325  2.8987 -0.5882
11766TIP3   OH256788   4.599   4.276   3.474 -0.6048  0.0070  0.1686
11766TIP3    H156789   4.645   4.277   3.390 -2.3427  0.4203 -0.8056
11766TIP3    H256790   4.663   4.309   3.537  0.0285  1.8235 -1.3680
11767TIP3   OH256791   4.937   4.652   4.847  0.2754  0.2568 -0.0465
11767TIP3    H156792   4.861   4.708   4.863  1.0477  1.5638 -0.9115
11767TIP3    H256793   4.985   4.652   4.930 -0.4508 -0.2455  0.3762
11768TIP3   OH256794   3.962   3.471   0.612 -0.5659 -0.4438 -0.2388
11768TIP3    H156795   3.883   3.422   0.635 -1.2937  0.9852  0.4103
11768TIP3    H256796   4.023   3.455   0.684 -1.1929  0.4510  0.4962
11769TIP3   OH256797   6.432   2.310   5.688  0.1970 -0.3342  0.1253
11769TIP3    H156798   6.454   2.338   5.777  0.2130  1.1634 -0.3333
11769TIP3    H256799   6.366   2.373   5.659 -0.9122 -1.7113 -0.3952
11770TIP3   OH256800   1.421   3.756  10.850  0.3298 -0.0731  0.7616
11770TIP3    H156801   1.507   3.732  10.884 -0.1517 -2.4760  0.3854
11770TIP3    H256802   1.392   3.678  10.802 -0.7554  1.7730 -1.6576
11771TIP3   OH256803   5.954   3.688  14.182  0.1603  0.6735 -0.4851
11771TIP3    H156804   6.011   3.764  14.190  3.0952 -1.5976  1.1235
11771TIP3    H256805   5.894   3.696  14.257  2.4322 -0.1463  1.4756
11772TIP3   OH256806   0.247   2.717   3.253 -0.1646 -0.1680  0.9030
11772TIP3    H156807   0.215   2.676   3.173 -0.3421  1.1108  0.3126
11772TIP3    H256808   0.332   2.755   3.228  0.3307 -0.7663  1.6296
11773TIP3   OH256809   0.529   2.457  13.937  0.0433 -0.0381 -0.1289
11773TIP3    H156810   0.475   2.437  14.013 -2.1375 -0.8102 -1.8254
11773TIP3    H256811   0.581   2.378  13.923  2.1522  0.9400  1.8943
11774TIP3   OH256812   4.544   0.320  16.958 -0.1576 -0.0842 -0.6039
11774TIP3    H156813   4.574   0.385  17.022 -2.9252  1.4102 -0.7448
11774TIP3    H256814   4.578   0.237  16.990  1.3710  1.1138  0.9402
11775TIP3   OH256815   2.558   6.726   4.852 -0.3633 -0.0957 -0.4052
11775TIP3    H156816   2.632   6.720   4.913 -0.1230 -0.2965 -0.7135
11775TIP3    H256817   2.501   6.792   4.891 -0.0501  0.0216 -0.1339
11776TIP3   OH256818   5.200   0.545  10.653  0.0192  0.3935 -0.1917
11776TIP3    H156819   5.122   0.574  10.605 -0.9066  0.5644  1.3818
11776TIP3    H256820   5.270   0.546  10.588 -1.3446  0.0071 -1.6858
11777TIP3   OH256821   6.664   2.640   5.781 -0.2733 -0.4374  0.0666
11777TIP3    H156822   6.577   2.664   5.813  0.5201  0.9043  1.2977
11777TIP3    H256823   6.716   2.630   5.861  1.0710  0.2763 -0.7092
11778TIP3   OH256824   2.801   6.771   3.118  0.2099  0.1264 -0.3732
11778TIP3    H156825   2.753   6.721   3.184 -0.6420  1.2899 -0.0966
11778TIP3    H256826   2.847   6.705   3.067 -1.8178 -1.0534 -0.7418
11779TIP3   OH256827   6.276   0.472   1.660  0.1788  0.3189  0.3440
11779TIP3    H156828   6.335   0.530   1.708 -0.0111  2.3988 -1.8691
11779TIP3    H256829   6.262   0.516   1.576 -2.0624 -1.6672 -0.3599
11780TIP3   OH256830   4.779   0.393   5.853  0.1990  0.6419  0.2139
11780TIP3    H156831   4.841   0.352   5.793 -2.2504 -0.3670 -1.7086
11780TIP3    H256832   4.727   0.452   5.798 -1.8964 -0.0755  1.3578
11781TIP3   OH256833   3.495   2.130   5.230  0.1588  0.0831 -0.1578
11781TIP3    H156834   3.504   2.176   5.146  0.5676  1.7077  0.7495
11781TIP3    H256835   3.537   2.045   5.216 -1.0645 -0.2259 -2.0264
11782TIP3   OH256836   3.332   0.303   3.596  0.3987 -0.0921  0.2544
11782TIP3    H156837   3.298   0.390   3.577  3.5888  1.3815  1.0292
11782TIP3    H256838   3.344   0.263   3.509 -0.4308  0.4619 -0.1238
11783TIP3   OH256839   4.711   1.693   4.239 -0.2168 -0.2506  0.1536
11783TIP3    H156840   4.660   1.650   4.308 -0.2599 -2.5083 -1.2370
11783TIP3    H256841   4.774   1.747   4.286 -1.7251  0.0273  1.9333
11784TIP3   OH256842   4.593   2.919  15.775  0.2963  0.6472 -0.0824
11784TIP3    H156843   4.657   2.973  15.821 -1.3617  0.7518  2.1928
11784TIP3    H256844   4.640   2.886  15.698  2.8219  1.3485  1.1119
11785TIP3   OH256845   0.214   6.617   4.241  0.3389  0.0338 -0.3843
11785TIP3    H156846   0.301   6.582   4.222 -0.9539 -2.2451 -2.4643
11785TIP3    H256847   0.194   6.584   4.329  1.8577  1.2518  0.4455
11786TIP3   OH256848   3.861   4.518   5.732  0.7260 -0.4736 -0.2474
11786TIP3    H156849   3.795   4.587   5.728  0.0433 -1.1434 -0.6309
11786TIP3    H256850   3.832   4.461   5.804  1.6447 -0.0111  0.5105
11787TIP3   OH256851   2.294   2.788  17.242 -0.6480 -0.2719 -0.6991
11787TIP3    H156852   2.381   2.788  17.282  0.6798 -0.3227 -3.4592
11787TIP3    H256853   2.234   2.769  17.314  1.1835  4.0236  2.1252
11788TIP3   OH256854   5.186   1.356  12.900  0.3551 -0.4869  0.3307
11788TIP3    H156855   5.127   1.303  12.953 -1.3809 -1.4964 -2.5054
11788TIP3    H256856   5.220   1.422  12.960 -0.9624 -2.0332  2.8404
11789TIP3   OH256857   2.969   6.389  14.954 -0.0075  0.0131  0.0326
11789TIP3    H156858   3.049   6.397  14.902  0.9074 -0.9239  1.2562
11789TIP3    H256859   2.995   6.414  15.042 -1.5141  1.4528  0.1038
11790TIP3   OH256860   1.465   5.332   5.267 -0.2371 -0.5531  0.0851
11790TIP3    H156861   1.551   5.298   5.290  0.4564  0.1841 -1.3074
11790TIP3    H256862   1.454   5.409   5.323  0.5638  0.0761 -0.6011
11791TIP3   OH256863   1.174   4.272  13.775  0.5468  0.3522  0.4939
11791TIP3    H156864   1.162   4.211  13.702  1.1494 -0.2316  0.8716
11791TIP3    H256865   1.177   4.358  13.735 -0.5989  0.1562 -0.0228
11792TIP3   OH256866   6.679   2.449  13.496 -0.2968 -0.0719  0.2843
11792TIP3    H156867   6.721   2.381  13.444 -0.6409 -1.9251  2.3069
11792TIP3    H256868   6.656   2.404  13.578 -0.9442  2.3879  1.4809
11793TIP3   OH256869   6.488   0.508   6.278  0.2467  0.0748  0.0479
11793TIP3    H156870   6.563   0.450   6.289 -0.2544 -0.7430 -0.7237
11793TIP3    H256871   6.412   0.450   6.284 -0.2860  0.7672  0.0425
11794TIP3   OH256872   4.797   6.390  12.247  0.1168 -0.1993  0.2141
11794TIP3    H156873   4.816   6.297  12.260 -1.4481 -0.4535  0.6999
11794TIP3    H256874   4.879   6.434  12.271  0.4925 -1.3605  1.1349
11795TIP3   OH256875   6.399   0.819  11.822 -0.4418  0.0934  0.2652
11795TIP3    H156876   6.308   0.811  11.796  0.7306 -1.3258 -3.8922
11795TIP3    H256877   6.423   0.733  11.855 -0.1896  0.0015 -0.1547
11796TIP3   OH256878   6.790   3.950  10.491  0.6759 -0.6615  0.4717
11796TIP3    H156879   6.715   3.892  10.481  0.2473 -0.0494  0.0839
11796TIP3    H256880   6.783   3.983  10.581 -0.5113  0.7270 -0.0977
11797TIP3   OH256881   1.546   2.682   3.592  0.3844 -0.3791  0.0616
11797TIP3    H156882   1.589   2.761   3.559 -0.3641  0.7797  1.7451
11797TIP3    H256883   1.615   2.617   3.597  0.9810  0.1321 -1.5004
11798TIP3   OH256884   2.728   1.252   2.811 -1.0519 -0.4924  0.2371
11798TIP3    H156885   2.643   1.289   2.833  0.2282  2.0516  1.0846
11798TIP3    H256886   2.791   1.322   2.828  1.4712 -2.9550  1.6153
11799TIP3   OH256887   2.599   3.979   1.855  0.1878  0.0269 -0.7001
11799TIP3    H156888   2.505   3.964   1.859  0.3821 -0.9584  0.4268
11799TIP3    H256889   2.630   3.919   1.788  0.2013 -0.6605 -0.0830
11800TIP3   OH256890   4.228   6.419  12.255  0.1089  0.1132 -0.3481
11800TIP3    H156891   4.312   6.400  12.212  0.6799  0.3974  0.6345
11800TIP3    H256892   4.165   6.364  12.208  0.7970  0.0785 -1.2568
11801TIP3   OH256893   0.318   0.867   3.606 -0.4138 -0.2390 -0.5022
11801TIP3    H156894   0.291   0.875   3.515 -0.4843  1.5491 -0.3301
11801TIP3    H256895   0.352   0.777   3.613 -0.9657 -0.5843 -2.1257
11802TIP3   OH256896   4.749   2.913   2.019 -0.1435 -0.2023 -0.4009
11802TIP3    H156897   4.680   2.886   2.079 -0.3438 -1.4315 -1.1720
11802TIP3    H256898   4.826   2.863   2.046  0.1069  0.2182 -0.3375
11803TIP3   OH256899   1.897   6.495   0.950  0.0993 -0.0373  0.8645
11803TIP3    H156900   1.920   6.432   0.883  1.0005  1.5774 -0.3880
11803TIP3    H256901   1.801   6.494   0.952  0.0780 -0.4430 -0.1037
11804TIP3   OH256902   6.472   6.222   3.566  0.3876  0.3519 -0.3434
11804TIP3    H156903   6.520   6.290   3.612 -1.1809  1.5548 -0.4346
11804TIP3    H256904   6.385   6.223   3.606  0.2686 -1.4550 -0.4939
11805TIP3   OH256905   2.318   3.383   3.575  0.0705  0.4504 -0.0846
11805TIP3    H156906   2.363   3.298   3.576  0.5950  0.6953 -1.3483
11805TIP3    H256907   2.387   3.446   3.553 -0.5328  1.0558 -0.2424
11806TIP3   OH256908   6.325   3.001  17.286  0.0478 -0.3357 -0.0114
11806TIP3    H156909   6.322   2.967  17.197  0.7305 -0.2561 -0.0632
11806TIP3    H256910   6.397   3.064  17.286  0.4450 -0.7760  0.7433
11807TIP3   OH256911   2.348   2.635  15.728 -0.3059  0.4676 -0.1186
11807TIP3    H156912   2.309   2.562  15.776  0.7827  0.1631  0.3136
11807TIP3    H256913   2.371   2.598  15.643  1.0386  0.0807  0.4109
11808TIP3   OH256914   6.252   2.361  16.880 -0.0451  0.0083 -0.2548
11808TIP3    H156915   6.171   2.387  16.837  0.8583 -0.9862 -2.6856
11808TIP3    H256916   6.312   2.434  16.864 -0.6194  1.0270  2.0948
11809TIP3   OH256917   3.722   3.165   5.541  0.2295 -0.4871  0.1297
11809TIP3    H156918   3.759   3.198   5.623 -3.4318  0.9579  1.3082
11809TIP3    H256919   3.740   3.234   5.477 -0.2950  0.1445  0.6572
11810TIP3   OH256920   0.302   5.149   4.077  0.3498  0.1619 -0.5594
11810TIP3    H156921   0.324   5.242   4.075  0.0564  0.2068 -2.9933
11810TIP3    H256922   0.337   5.114   3.995 -0.7176 -1.5860 -0.2936
11811TIP3   OH256923   6.252   3.127   6.272  0.8894  0.5055  0.7208
11811TIP3    H156924   6.345   3.108   6.257  0.6815 -0.5729  0.8186
11811TIP3    H256925   6.245   3.139   6.367  0.9837  0.8821  0.6798
11812TIP3   OH256926   6.685   2.402  12.957 -0.7967  0.0215  0.7280
11812TIP3    H156927   6.744   2.339  12.916 -0.9920  0.3337 -0.0419
11812TIP3    H256928   6.650   2.356  13.033 -1.4686 -1.0417 -0.2230
11813TIP3   OH256929   5.875   5.016  15.761  0.8390  0.3507  0.3536
11813TIP3    H156930   5.836   4.929  15.776  0.6079  0.3954  0.0029
11813TIP3    H256931   5.955   4.998  15.711 -0.3362  0.5130 -1.6403
11814TIP3   OH256932   5.531   3.723  10.325 -0.5807 -0.2677  0.1002
11814TIP3    H156933   5.568   3.801  10.367 -1.1664 -0.1124  0.3412
11814TIP3    H256934   5.453   3.756  10.279 -0.0755 -0.4770 -0.9180
11815TIP3   OH256935   6.750   3.145   6.282  0.4007 -0.1180 -0.2424
11815TIP3    H156936   6.693   3.069   6.270  1.8998 -1.2439 -0.4123
11815TIP3    H256937   6.823   3.112   6.335 -0.1202  1.8003  1.7324
11816TIP3   OH256938   1.751   4.042  11.653 -0.2333 -0.5390  0.2160
11816TIP3    H156939   1.711   4.000  11.577 -0.0315 -1.3317  0.5491
11816TIP3    H256940   1.843   4.051  11.631  0.1041 -2.1200  0.9668
11817TIP3   OH256941   5.810   4.493   2.575 -0.0585  0.3892 -0.3982
11817TIP3    H156942   5.760   4.510   2.655  1.4773  0.8804  0.4796
11817TIP3    H256943   5.816   4.578   2.532 -0.8974  0.1212 -1.0404
11818TIP3   OH256944   3.667   5.338   3.839  0.1483  0.3236  0.5922
11818TIP3    H156945   3.591   5.397   3.844 -1.1723 -1.3021  0.0747
11818TIP3    H256946   3.652   5.285   3.761  1.1576 -0.9202  1.2228
11819TIP3   OH256947   2.244   0.264  13.721 -0.5519  0.1720 -0.0767
11819TIP3    H156948   2.228   0.171  13.739  1.7336 -0.1244  0.5350
11819TIP3    H256949   2.192   0.283  13.643  0.2525 -2.0473 -1.1806
11820TIP3   OH256950   2.093   4.723   2.320  0.3888  0.3972  0.1336
11820TIP3    H156951   2.024   4.729   2.387  0.1053  1.3530 -0.2274
11820TIP3    H256952   2.055   4.767   2.244  1.1762  0.3902 -0.2584
11821TIP3   OH256953   5.641   2.609   4.982 -0.2465  0.0245 -0.2308
11821TIP3    H156954   5.581   2.555   5.034 -1.1113  0.7759 -0.4311
11821TIP3    H256955   5.605   2.697   4.988  0.6288  0.4127 -0.6794
11822TIP3   OH256956   6.047   2.373   2.277 -0.4871 -0.2937  0.3480
11822TIP3    H156957   5.960   2.337   2.293 -0.2762 -1.6527 -1.4627
11822TIP3    H256958   6.105   2.297   2.275  0.6935  0.5650  1.1137
11823TIP3   OH256959   5.281   6.765  16.955 -0.1113  0.2551 -0.6142
11823TIP3    H156960   5.285   6.670  16.946  1.1702 -0.0032  2.1940
11823TIP3    H256961   5.196   6.781  16.996 -0.1859  0.2813 -0.7796
11824TIP3   OH256962   3.533   5.559  13.001 -0.9669 -0.0180 -0.6006
11824TIP3    H156963   3.561   5.568  13.092  1.7445 -2.5873 -1.1104
11824TIP3    H256964   3.582   5.627  12.954  0.9321 -1.4599 -0.7594
11825TIP3   OH256965   6.073   2.922  16.926  0.0634 -0.4769 -0.0529
11825TIP3    H156966   6.019   2.995  16.955  0.3479 -0.3994  0.2763
11825TIP3    H256967   6.113   2.888  17.005  0.1717 -0.8006 -0.2450
11826TIP3   OH256968   0.849   4.886  15.713  0.3681  0.3967  0.2298
11826TIP3    H156969   0.810   4.825  15.775  1.2011 -0.3345  0.0470
11826TIP3    H256970   0.939   4.856  15.703  1.3513  2.7634  1.5414
11827TIP3   OH256971   3.043   5.832  16.760 -0.2802  0.5564 -0.7060
11827TIP3    H156972   2.955   5.836  16.721 -0.9306  2.2653  0.8170
11827TIP3    H256973   3.102   5.849  16.687 -1.1218 -1.6709 -1.9691
11828TIP3   OH256974   3.478   0.660   5.032  0.1626  0.0534 -0.1147
11828TIP3    H156975   3.556   0.607   5.052  0.9967  1.9112  1.6885
11828TIP3    H256976   3.443   0.685   5.118 -0.9703  1.3452 -0.9296
11829TIP3   OH256977   5.977   1.399   0.329 -0.0155 -0.1180  0.6705
11829TIP3    H156978   5.905   1.443   0.284  0.9186  1.3533  0.5783
11829TIP3    H256979   6.054   1.451   0.307  1.3062 -2.4267 -0.3163
11830TIP3   OH256980   3.642   3.992  11.917  0.2101 -0.4425 -0.2963
11830TIP3    H156981   3.727   3.985  11.961  0.1765 -0.1130 -0.1846
11830TIP3    H256982   3.648   3.927  11.846  0.1825 -1.1189  0.3136
11831TIP3   OH256983   1.270   2.388   6.002  0.2419  0.1297  0.6593
11831TIP3    H156984   1.291   2.295   6.012 -1.2256 -0.2643  0.1915
11831TIP3    H256985   1.214   2.407   6.077  0.7380  0.7029  0.8853
11832TIP3   OH256986   3.978   2.434  17.098  0.2565  0.2547 -0.1490
11832TIP3    H156987   4.032   2.489  17.041  2.5247 -2.9317 -1.2469
11832TIP3    H256988   3.892   2.431  17.056  1.3965 -0.5827 -2.4897
11833TIP3   OH256989   2.621   4.987  11.639 -0.4018 -0.6577  0.1414
11833TIP3    H156990   2.684   5.014  11.572 -1.6359  0.6793 -0.5267
11833TIP3    H256991   2.621   5.059  11.702 -1.1229 -0.7067  0.2084
11834TIP3   OH256992   4.190   4.125  11.346  0.3802 -0.2756 -0.5319
11834TIP3    H156993   4.127   4.138  11.275  1.2255 -2.0104 -1.6141
11834TIP3    H256994   4.151   4.171  11.421 -1.2853  0.2123 -1.6711
11835TIP3   OH256995   2.467   4.382  12.476  0.0196  0.3370  0.3369
11835TIP3    H156996   2.379   4.408  12.501  1.1704  2.4764  2.3838
11835TIP3    H256997   2.510   4.357  12.558  0.7946 -2.4337 -0.8613
11836TIP3   OH256998   1.795   2.897   0.921 -0.2129  0.3676  0.1734
11836TIP3    H156999   1.764   2.807   0.909 -0.7693  0.6857 -0.8632
11836TIP3    H257000   1.810   2.928   0.832  0.6107  1.0837  0.5645
11837TIP3   OH257001   1.951   3.862  16.252 -0.0667 -0.1806  0.1415
11837TIP3    H157002   1.933   3.802  16.325 -0.0319 -0.8203 -0.3805
11837TIP3    H257003   2.037   3.836  16.220 -0.8822 -1.1112 -1.3284
11838TIP3   OH257004   6.663   0.848   0.806  0.5645 -0.1107 -0.2319
11838TIP3    H157005   6.706   0.781   0.859  0.8057  0.7097  0.6205
11838TIP3    H257006   6.722   0.860   0.731 -0.5175 -2.3419 -1.5030
11839TIP3   OH257007   5.385   3.860   2.096 -0.2460  0.5753 -0.3677
11839TIP3    H157008   5.413   3.938   2.049  3.2397  0.0435  0.7093
11839TIP3    H257009   5.361   3.797   2.028  0.9095  1.1750 -1.3289
11840TIP3   OH257010   5.332   1.853   6.382 -0.3253 -0.3209  0.0521
11840TIP3    H157011   5.274   1.800   6.436 -0.5597  0.1848  0.3021
11840TIP3    H257012   5.411   1.800   6.372 -0.3347 -0.4775  0.7789
11841TIP3   OH257013   0.307   5.265  12.696 -0.0496 -0.4324 -0.4826
11841TIP3    H157014   0.399   5.284  12.678 -0.3472  2.0388  0.3652
11841TIP3    H257015   0.274   5.227  12.615  1.7116 -1.4399 -0.7681
11842TIP3   OH257016   4.179   2.363   5.649 -0.4109 -0.1699  0.9248
11842TIP3    H157017   4.179   2.282   5.597  1.3261  1.1455 -1.1852
11842TIP3    H257018   4.102   2.411   5.619 -0.6146 -0.3710  1.1228
11843TIP3   OH257019   2.361   0.769  13.788 -0.2378  0.0438  0.0015
11843TIP3    H157020   2.416   0.780  13.710 -0.0329 -0.7244  0.0331
11843TIP3    H257021   2.277   0.740  13.753  0.2293 -1.5306  0.1398
11844TIP3   OH257022   5.971   0.090   5.151 -0.5712  0.4449 -0.6488
11844TIP3    H157023   6.038   0.152   5.178 -0.8524  1.0091 -1.2230
11844TIP3    H257024   5.921   0.136   5.083 -0.2773 -0.6936 -1.6626
11845TIP3   OH257025   6.721   6.304   5.999 -0.3396  0.3944  0.1951
11845TIP3    H157026   6.758   6.392   5.995 -1.8827  1.1089  1.0746
11845TIP3    H257027   6.796   6.246   6.011  0.5618  1.7252  1.0526
11846TIP3   OH257028   1.566   5.489   5.687  0.1219 -0.3762  0.4080
11846TIP3    H157029   1.552   5.464   5.596  1.5565  0.0853  0.0308
11846TIP3    H257030   1.633   5.558   5.682 -0.8169  0.6683  1.7035
11847TIP3   OH257031   2.808   3.499   5.768 -0.7047 -0.2556  0.3452
11847TIP3    H157032   2.871   3.438   5.729  0.7143 -0.1377  2.4112
11847TIP3    H257033   2.817   3.579   5.717 -0.7294 -0.9208 -0.7270
11848TIP3   OH257034   1.517   0.102  16.128  0.1444 -0.1010  0.2333
11848TIP3    H157035   1.544   0.101  16.036 -2.3479  0.5440 -0.5320
11848TIP3    H257036   1.591   0.063  16.175  0.6159 -2.3227 -2.2600
11849TIP3   OH257037   1.890   0.020   2.364  0.1868 -0.1994  0.4276
11849TIP3    H157038   1.853   0.066   2.289 -0.0992  1.0515  1.3389
11849TIP3    H257039   1.985   0.026   2.351  0.1587  0.8670  0.6665
11850TIP3   OH257040   4.703   1.879  16.252  0.4501 -0.1138 -0.4748
11850TIP3    H157041   4.630   1.939  16.240 -0.0347 -0.6465 -0.1955
11850TIP3    H257042   4.678   1.824  16.327  1.5602  0.3480  0.2548
11851TIP3   OH257043   6.233   5.296   4.656  0.1773 -0.3684  0.1897
11851TIP3    H157044   6.147   5.304   4.697  0.2782  0.1269  0.3087
11851TIP3    H257045   6.278   5.229   4.708 -0.5841 -1.5491 -0.6517
11852TIP3   OH257046   2.417   5.906   4.381  0.5239  0.1588 -0.4702
11852TIP3    H157047   2.494   5.867   4.422  0.1420 -0.1404 -0.0329
11852TIP3    H257048   2.451   5.949   4.302  1.1470  0.0972 -0.2394
11853TIP3   OH257049   2.759   4.914   1.077 -0.1601  0.0371 -0.7145
11853TIP3    H157050   2.686   4.949   1.026 -0.4557  3.4445  1.9366
11853TIP3    H257051   2.828   4.979   1.068 -0.0854  0.5185  2.9230
11854TIP3   OH257052   4.296   5.164   6.065 -0.2012 -0.7321 -0.6295
11854TIP3    H157053   4.224   5.167   6.129 -0.2674  1.4207 -0.7573
11854TIP3    H257054   4.374   5.186   6.116  0.0366 -0.9091 -0.9163
11855TIP3   OH257055   6.479   4.874  16.580 -0.1328  0.0373  0.1540
11855TIP3    H157056   6.433   4.790  16.583 -3.4891  1.6745 -2.1177
11855TIP3    H257057   6.446   4.922  16.656 -1.1254  0.6734 -0.6664
11856TIP3   OH257058   3.549   3.076  16.503  0.2946  0.0703  0.1419
11856TIP3    H157059   3.509   3.133  16.569 -0.2475 -1.4002  1.1025
11856TIP3    H257060   3.628   3.043  16.544 -0.7337 -1.9014  0.5900
11857TIP3   OH257061   5.331   2.167   0.287  0.1127 -0.2297 -0.3185
11857TIP3    H157062   5.300   2.099   0.227  0.2392  0.9627 -1.7798
11857TIP3    H257063   5.252   2.204   0.325 -0.2506  1.8243 -2.9384
11858TIP3   OH257064   0.427   0.465  11.817  0.3446  0.7658  0.4202
11858TIP3    H157065   0.511   0.421  11.811  0.6039  1.3029  0.0769
11858TIP3    H257066   0.368   0.399  11.853  1.2380  0.8386  2.0434
11859TIP3   OH257067   1.452   1.775   2.026 -0.0257 -0.0035  0.3104
11859TIP3    H157068   1.463   1.831   2.103  1.1602 -0.0648  0.1829
11859TIP3    H257069   1.522   1.801   1.966 -0.3640 -0.6093 -0.3603
11860TIP3   OH257070   0.494   3.271  12.060  0.2587 -0.1119  0.1487
11860TIP3    H157071   0.436   3.218  12.114  2.2357  0.1033  2.5729
11860TIP3    H257072   0.438   3.341  12.025 -1.6317 -1.8588 -0.3793
11861TIP3   OH257073   1.204   1.959   3.535 -0.2574  0.0938 -1.1751
11861TIP3    H157074   1.112   1.945   3.515 -0.8976  0.6711  1.1755
11861TIP3    H257075   1.243   1.872   3.529 -0.7670 -0.0267 -2.9790
11862TIP3   OH257076   4.776   4.600   0.236 -0.4744 -0.1526 -0.4624
11862TIP3    H157077   4.838   4.673   0.226  0.5383 -1.0519 -0.8058
11862TIP3    H257078   4.802   4.537   0.168 -1.9357 -0.4255 -0.7804
11863TIP3   OH257079   3.964   5.371   1.251 -0.0134 -0.2901  0.4259
11863TIP3    H157080   3.909   5.323   1.189  1.2807 -2.4381  0.8894
11863TIP3    H257081   3.945   5.331   1.336  0.4150  0.6355  0.9670
11864TIP3   OH257082   6.052   1.166   1.621 -0.1755  0.3668  0.3360
11864TIP3    H157083   5.959   1.143   1.630  0.2250 -0.1481  4.1554
11864TIP3    H257084   6.080   1.120   1.542 -3.0976  0.3596 -0.7890
11865TIP3   OH257085   5.709   1.073  12.509  0.4762  0.6274 -0.1293
11865TIP3    H157086   5.720   0.978  12.516  0.9199  0.7284  0.5503
11865TIP3    H257087   5.615   1.085  12.499  0.4104  0.1169 -0.1336
11866TIP3   OH257088   5.493   1.821   0.881  0.6549 -0.0612  0.5455
11866TIP3    H157089   5.520   1.738   0.841  1.9756  0.0850  1.0980
11866TIP3    H257090   5.410   1.801   0.924  0.1266 -0.6765 -0.7254
11867TIP3   OH257091   1.310   3.176  12.829  0.2973 -0.3050  0.3624
11867TIP3    H157092   1.292   3.138  12.743 -2.4701  0.4555  0.5562
11867TIP3    H257093   1.404   3.196  12.828  0.4551 -1.0551 -2.1637
11868TIP3   OH257094   2.418   6.791  13.779  0.1658 -0.8306 -0.1180
11868TIP3    H157095   2.323   6.778  13.783  0.4605 -2.9596  0.7056
11868TIP3    H257096   2.444   6.803  13.870  0.6091  0.5462 -0.4103
11869TIP3   OH257097   3.053   4.501  15.809 -0.0891 -0.5856 -0.1485
11869TIP3    H157098   3.028   4.408  15.809 -2.0113 -0.0899 -0.8880
11869TIP3    H257099   2.999   4.541  15.877  0.0528  0.1738 -0.4747
11870TIP3   OH257100   5.359   5.027  12.758 -0.0338  0.2171  0.1856
11870TIP3    H157101   5.452   5.047  12.763  0.0690 -0.3788  0.6516
11870TIP3    H257102   5.338   4.989  12.843 -0.9784  1.5224  0.5565
11871TIP3   OH257103   6.308   1.447   3.403  0.0227 -0.2716  0.4664
11871TIP3    H157104   6.322   1.358   3.371  2.6925 -0.4380  1.9712
11871TIP3    H257105   6.256   1.489   3.334  0.3135 -2.4283 -1.1331
11872TIP3   OH257106   5.537   4.516  15.745  0.0201 -0.0483 -0.1326
11872TIP3    H157107   5.597   4.447  15.772  0.0705  0.1263  0.1983
11872TIP3    H257108   5.467   4.513  15.810 -0.1251  0.0180 -0.2857
11873TIP3   OH257109   1.688   3.261   0.068  0.0110  0.3102 -0.7363
11873TIP3    H157110   1.772   3.215   0.061 -0.6667 -0.7956 -1.7255
11873TIP3    H257111   1.625   3.192   0.086 -0.4858  1.3188  1.5550
11874TIP3   OH257112   0.068   3.625  11.557 -0.0179 -0.0723 -0.2323
11874TIP3    H157113   0.098   3.548  11.508  1.2480  0.2255  0.0391
11874TIP3    H257114   0.099   3.700  11.505 -1.8923  0.2618 -0.8804
11875TIP3   OH257115   3.135   1.548   5.120  0.3583  0.0532 -0.1223
11875TIP3    H157116   3.149   1.458   5.092  0.7803  0.0445  0.1021
11875TIP3    H257117   3.067   1.581   5.062 -0.2539 -0.6060  0.2137
11876TIP3   OH257118   1.337   4.307  12.204  0.1394 -0.1773 -0.8222
11876TIP3    H157119   1.272   4.262  12.258 -0.5097  1.2752 -0.3500
11876TIP3    H257120   1.305   4.397  12.200  2.9124  0.9126  0.6468
11877TIP3   OH257121   1.277   0.643  10.888  0.6189 -0.1703  0.3458
11877TIP3    H157122   1.211   0.694  10.842  0.3750  0.0670  0.9554
11877TIP3    H257123   1.232   0.563  10.915  0.3930  0.2920  1.3533
11878TIP3   OH257124   3.868   3.194  10.484 -0.0917  0.6973 -0.3738
11878TIP3    H157125   3.910   3.273  10.520 -0.4991 -0.2522  2.2948
11878TIP3    H257126   3.774   3.212  10.489 -0.2416 -0.4762  1.5941
11879TIP3   OH257127   2.215   2.629   2.878  0.0229  0.0599  0.0697
11879TIP3    H157128   2.247   2.701   2.932  0.2671  0.6395 -0.8491
11879TIP3    H257129   2.141   2.664   2.830  0.1003 -0.3194 -0.3343
11880TIP3   OH257130   1.522   5.714   4.725  0.5808  0.0381 -0.3050
11880TIP3    H157131   1.482   5.633   4.693  0.5564  0.0873 -0.4011
11880TIP3    H257132   1.611   5.713   4.689  0.1621  0.6753 -1.3596
11881TIP3   OH257133   1.235   2.265  14.385 -0.7376  0.1554  0.2425
11881TIP3    H157134   1.142   2.284  14.396 -1.3285 -2.4320 -0.0647
11881TIP3    H257135   1.256   2.298  14.297 -1.9034 -1.1811 -0.5540
11882TIP3   OH257136   4.639   2.827   5.637  0.8335 -0.9885 -0.3173
11882TIP3    H157137   4.638   2.793   5.727  0.9999 -1.8729 -0.6544
11882TIP3    H257138   4.581   2.904   5.641  2.2123  0.0078  0.9399
11883TIP3   OH257139   5.031   5.762  15.012 -0.9212 -0.2883 -0.4303
11883TIP3    H157140   5.028   5.672  15.042 -1.5155  0.3185  1.4181
11883TIP3    H257141   4.974   5.764  14.935 -1.4989 -1.3302 -0.0336
11884TIP3   OH257142   1.598   5.014  12.200 -0.4327 -0.4382 -0.5826
11884TIP3    H157143   1.566   5.091  12.155  2.1229  1.4839  0.7329
11884TIP3    H257144   1.664   4.977  12.141  0.6050  0.2266  0.1419
11885TIP3   OH257145   6.394   2.372  15.651  0.4949 -0.1754 -0.6631
11885TIP3    H157146   6.425   2.347  15.738 -0.2176 -2.2479 -0.9794
11885TIP3    H257147   6.442   2.452  15.630  0.8018  0.2424  1.5540
11886TIP3   OH257148   0.155   1.788  16.922  0.3392  0.2467 -0.2406
11886TIP3    H157149   0.075   1.741  16.898 -0.2100  0.3576  1.2904
11886TIP3    H257150   0.220   1.760  16.858 -0.2151 -1.8906  0.0918
11887TIP3   OH257151   2.140   1.615   4.196  0.3822 -0.7996  0.4108
11887TIP3    H157152   2.156   1.524   4.221 -0.1865 -1.1967 -0.6265
11887TIP3    H257153   2.055   1.613   4.153  0.3908  0.2213  0.3380
11888TIP3   OH257154   3.860   2.048   4.740 -0.3053  0.3177 -0.4083
11888TIP3    H157155   3.835   2.041   4.648 -1.0963 -0.6036 -0.1410
11888TIP3    H257156   3.811   1.978   4.783  1.2652 -0.2731  0.4615
11889TIP3   OH257157   1.892   3.276   6.145 -0.0709  0.1814 -0.1117
11889TIP3    H157158   1.889   3.183   6.168  3.0820  0.0480 -0.0372
11889TIP3    H257159   1.978   3.305   6.175 -0.7987  3.0042 -0.6381
11890TIP3   OH257160   5.168   2.515   0.699 -0.0011  0.5805  0.0683
11890TIP3    H157161   5.244   2.512   0.641  1.4538  0.5852  1.9009
11890TIP3    H257162   5.125   2.598   0.678  1.0422  1.0258 -0.3464
11891TIP3   OH257163   2.653   4.804  16.483 -0.3817 -0.0847 -0.2527
11891TIP3    H157164   2.628   4.741  16.415  0.0256  1.9924 -2.3598
11891TIP3    H257165   2.748   4.811  16.475 -0.6022  2.1486 -1.2785
11892TIP3   OH257166   1.703   1.780  12.146 -0.7760  0.0503 -0.1421
11892TIP3    H157167   1.737   1.691  12.136  0.0188  0.4966 -1.5760
11892TIP3    H257168   1.780   1.833  12.169 -0.8552  0.7217 -1.4054
11893TIP3   OH257169   2.771   0.557  11.846 -0.1597  0.0636 -0.5188
11893TIP3    H157170   2.842   0.527  11.903 -1.0091  1.3008  1.2176
11893TIP3    H257171   2.698   0.500  11.867 -0.3385  0.2180 -0.7214
11894TIP3   OH257172   3.975   3.267   3.557 -0.2148  0.4879 -0.0564
11894TIP3    H157173   4.031   3.345   3.553 -0.9273  0.9585 -0.8833
11894TIP3    H257174   4.034   3.194   3.535  0.6573  0.6798  1.5943
11895TIP3   OH257175   0.969   5.434  16.904 -0.0911  0.2328  0.0757
11895TIP3    H157176   0.934   5.375  16.837 -0.6775  0.3320  0.2905
11895TIP3    H257177   0.963   5.385  16.986  0.7326  0.0703  0.0442
11896TIP3   OH257178   0.564   3.664  10.694  0.1801 -0.0629  0.2545
11896TIP3    H157179   0.595   3.669  10.785  1.2804  2.8731 -0.2090
11896TIP3    H257180   0.632   3.615  10.648  1.2969  1.3304  0.3896
11897TIP3   OH257181   2.883   3.007   6.093 -0.3002  0.4000  0.2799
11897TIP3    H157182   2.944   3.024   6.164  1.7027  0.3328 -1.3853
11897TIP3    H257183   2.932   3.026   6.013 -2.3228 -0.0452 -1.1274
11898TIP3   OH257184   3.267   6.071  14.163 -0.0178 -0.1548  0.0250
11898TIP3    H157185   3.354   6.072  14.124 -1.0419  0.6788 -2.3021
11898TIP3    H257186   3.245   5.978  14.171  1.5350 -0.4032  1.7588
11899TIP3   OH257187   6.430   6.459  14.999  0.4901  0.7179 -1.0950
11899TIP3    H157188   6.382   6.524  14.947  0.0056  0.4282 -1.0119
11899TIP3    H257189   6.371   6.437  15.070  0.3152 -0.4354 -1.5830
11900TIP3   OH257190   6.604   2.555   0.630  0.0603 -0.5056  0.5928
11900TIP3    H157191   6.549   2.487   0.591  0.1223 -1.1151  1.5485
11900TIP3    H257192   6.691   2.516   0.637  0.3555  0.0600  0.1294
11901TIP3   OH257193   4.439   3.700  14.153 -0.3192 -0.3338 -0.2984
11901TIP3    H157194   4.512   3.726  14.208 -1.4648  2.0729  0.1755
11901TIP3    H257195   4.474   3.704  14.064  0.4849 -0.5042  0.0077
11902TIP3   OH257196   6.447   5.830  15.608 -0.4761 -0.3040  0.2539
11902TIP3    H157197   6.473   5.846  15.699  2.4483 -1.8077 -0.2760
11902TIP3    H257198   6.486   5.902  15.559 -0.0487 -0.7971 -0.1266
11903TIP3   OH257199   6.781   3.692   2.228  0.2665  0.4688  0.6507
11903TIP3    H157200   6.705   3.727   2.275  1.0447  1.1658  1.3902
11903TIP3    H257201   6.743   3.634   2.162 -0.9019  0.5916  1.2000
11904TIP3   OH257202   1.168   4.317   1.529 -0.7788  0.2313 -0.0023
11904TIP3    H157203   1.198   4.237   1.486 -0.3072  0.7143 -0.5751
11904TIP3    H257204   1.248   4.365   1.549 -1.0876  0.7568 -0.0393
11905TIP3   OH257205   1.567   4.883   3.842 -0.0122 -0.1764 -0.4090
11905TIP3    H157206   1.631   4.850   3.779  2.0928  1.3628  0.8846
11905TIP3    H257207   1.528   4.959   3.798  1.5280  0.9598  0.1586
11906TIP3   OH257208   4.394   4.327   1.253  0.2898 -0.0799  0.2012
11906TIP3    H157209   4.479   4.333   1.299  0.8111  2.0289 -0.9613
11906TIP3    H257210   4.418   4.320   1.160 -0.7980  1.9672 -0.2591
11907TIP3   OH257211   2.366   4.026  16.619 -0.1712  0.3230 -0.3783
11907TIP3    H157212   2.396   3.935  16.619 -1.1698 -0.0152 -0.4519
11907TIP3    H257213   2.414   4.068  16.690 -0.3952 -0.5057  0.2725
11908TIP3   OH257214   0.736   3.404  12.124 -0.4042 -0.1768 -0.2146
11908TIP3    H157215   0.778   3.390  12.209  0.3530  0.2230 -0.5192
11908TIP3    H257216   0.667   3.337  12.120 -1.4518  0.7773  1.3552
11909TIP3   OH257217   0.053   0.844  11.211  0.3884 -0.2830 -0.3005
11909TIP3    H157218  -0.018   0.893  11.253 -0.5522 -1.2603 -0.7236
11909TIP3    H257219   0.131   0.895  11.229 -0.5924  1.4588 -0.8317
11910TIP3   OH257220   0.792   6.073  15.000  0.3778  0.2793 -0.1071
11910TIP3    H157221   0.843   6.125  15.062 -0.7080  0.1894  0.8693
11910TIP3    H257222   0.762   6.136  14.934 -0.3609  0.7819  0.7023
11911TIP3   OH257223   6.628   3.531  10.695 -0.0927 -0.6131 -0.4391
11911TIP3    H157224   6.587   3.608  10.656 -1.3434 -1.2899 -0.4980
11911TIP3    H257225   6.599   3.530  10.786  2.4100  0.6754  0.4295
11912TIP3   OH257226   4.759   5.233  12.942 -0.0507 -0.6253  0.7284
11912TIP3    H157227   4.680   5.274  12.906 -0.0643 -0.2478  1.1977
11912TIP3    H257228   4.727   5.153  12.984 -0.3800  0.2924  2.2389
11913TIP3   OH257229   4.627   3.141  13.132  0.0356  0.2263 -0.8517
11913TIP3    H157230   4.679   3.164  13.055  1.1710 -1.2985 -0.5726
11913TIP3    H257231   4.690   3.136  13.203 -1.1418  2.4877  0.3927
11914TIP3   OH257232   2.899   0.860  15.326 -0.1640  0.1992 -0.4317
11914TIP3    H157233   2.941   0.898  15.403 -1.7279 -1.1544  1.1345
11914TIP3    H257234   2.941   0.775  15.315 -0.8378 -0.1551 -0.2876
11915TIP3   OH257235   6.739   3.696  15.043 -0.0275 -0.4611  0.1760
11915TIP3    H157236   6.751   3.639  14.967 -0.9536 -0.3546 -0.0614
11915TIP3    H257237   6.779   3.779  15.017  1.5838 -1.0719  0.6316
11916TIP3   OH257238   5.048   5.937   1.307  0.4244 -0.0879 -0.1531
11916TIP3    H157239   5.023   5.953   1.398 -1.2958 -4.5569  0.3237
11916TIP3    H257240   5.139   5.907   1.312  0.8416  1.1737 -0.1017
11917TIP3   OH257241   2.560   0.623   0.218  0.3778  0.7708  0.0759
11917TIP3    H157242   2.626   0.644   0.151  0.0781  1.6752  0.0602
11917TIP3    H257243   2.611   0.587   0.291  0.9906  2.2074  0.3791
11918TIP3   OH257244   1.378   4.590  16.016 -0.0676  0.8840  0.3704
11918TIP3    H157245   1.422   4.540  16.084 -0.2405 -1.6109 -1.2912
11918TIP3    H257246   1.406   4.680  16.031  2.6877 -0.1240  1.5786
11919TIP3   OH257247   6.340   4.110  16.424 -0.1048 -0.8828  0.1277
11919TIP3    H157248   6.301   4.167  16.490  2.3808 -0.0093  0.8917
11919TIP3    H257249   6.292   4.131  16.344  0.3585  1.9076  0.5082
11920TIP3   OH257250   5.622   6.627   2.760  0.1458 -0.5908  0.4889
11920TIP3    H157251   5.631   6.554   2.699 -0.7440 -1.0885  0.9461
11920TIP3    H257252   5.705   6.674   2.753  0.4422 -1.2260 -0.3483
11921TIP3   OH257253   4.405   4.086   4.250 -0.2065  0.0155  0.0377
11921TIP3    H157254   4.363   4.010   4.291  0.9169 -0.5898  0.0778
11921TIP3    H257255   4.356   4.100   4.169  0.8258 -1.9861 -0.9537
11922TIP3   OH257256   2.405   3.958   4.918  0.5411  0.2313 -0.4972
11922TIP3    H157257   2.378   3.913   4.838 -1.0293 -1.0422  0.7141
11922TIP3    H257258   2.323   3.991   4.954  1.1726  0.2580  0.9108
11923TIP3   OH257259   4.047   5.757   0.913 -0.1348 -0.2722 -0.1372
11923TIP3    H157260   4.035   5.662   0.917  2.7414 -0.6407  0.3219
11923TIP3    H257261   4.073   5.775   0.823 -1.7624  0.2398 -0.5217
11924TIP3   OH257262   3.616   0.674  11.112  0.5845 -0.1884  0.1875
11924TIP3    H157263   3.532   0.666  11.067 -0.6007 -0.3073  2.3930
11924TIP3    H257264   3.632   0.768  11.116  2.0335 -0.2389 -2.8398
11925TIP3   OH257265   1.729   5.632   2.455  0.5265 -0.3241 -0.0105
11925TIP3    H157266   1.820   5.608   2.441  0.2049 -1.2226 -0.6166
11925TIP3    H257267   1.718   5.714   2.409  0.7820 -0.7051 -0.7577
11926TIP3   OH257268   2.645   4.715   5.196  0.2047  0.2720  0.1085
11926TIP3    H157269   2.675   4.638   5.147 -0.0779  0.7707 -0.8658
11926TIP3    H257270   2.724   4.750   5.236  0.0961 -1.4439  1.8882
11927TIP3   OH257271   6.378   1.845  15.320 -0.1843  0.4045  0.3022
11927TIP3    H157272   6.325   1.925  15.315  0.5600  0.8957  0.2697
11927TIP3    H257273   6.363   1.801  15.236 -2.5708 -0.7601  1.2663
11928TIP3   OH257274   0.176   0.162  16.711  0.2481  0.2345  0.1702
11928TIP3    H157275   0.193   0.082  16.761 -0.6702  0.6598  1.1902
11928TIP3    H257276   0.218   0.147  16.626  0.0830 -1.3318  0.3504
11929TIP3   OH257277   2.475   6.314   1.741 -0.3476 -0.0139  0.0572
11929TIP3    H157278   2.523   6.397   1.749  0.8310 -0.6121 -0.5686
11929TIP3    H257279   2.521   6.268   1.670 -2.8248  0.0418 -1.6355
11930TIP3   OH257280   5.195   2.823   0.163 -0.1117 -0.1501  0.1954
11930TIP3    H157281   5.130   2.769   0.209 -0.8176 -0.8749 -1.6065
11930TIP3    H257282   5.217   2.892   0.226 -0.1344 -1.7921  2.0707
11931TIP3   OH257283   0.873   5.780   4.572  0.1864  0.2891 -1.0451
11931TIP3    H157284   0.789   5.770   4.617  0.2904 -1.2000 -1.1580
11931TIP3    H257285   0.922   5.840   4.628  0.6853 -2.2884  1.4215
11932TIP3   OH257286   1.225   5.455   1.826 -0.1826  0.4943 -0.1437
11932TIP3    H157287   1.226   5.549   1.843 -2.6996  0.6850 -0.8513
11932TIP3    H257288   1.177   5.446   1.743 -0.4605 -1.4537  0.2029
11933TIP3   OH257289   5.588   2.609  12.309  0.1157 -0.6577 -0.2191
11933TIP3    H157290   5.649   2.579  12.376  2.6217  1.0668 -1.6536
11933TIP3    H257291   5.557   2.528  12.268  1.6284 -1.5694  0.3772
11934TIP3   OH257292   1.624   1.833   4.102  0.2924 -0.0829 -0.2349
11934TIP3    H157293   1.689   1.838   4.032 -0.3566  0.8151 -0.7771
11934TIP3    H257294   1.588   1.921   4.108 -1.2954 -0.7031 -0.3340
11935TIP3   OH257295   4.461   2.884   4.897 -0.0596 -0.4021  0.7414
11935TIP3    H157296   4.368   2.899   4.879  0.3141  1.7304  0.3637
11935TIP3    H257297   4.500   2.869   4.811  0.1136 -0.1981  0.7836
11936TIP3   OH257298   1.416   2.249   5.082  0.0049  0.1378 -0.1465
11936TIP3    H157299   1.430   2.343   5.090  1.8480  0.0187 -1.6532
11936TIP3    H257300   1.500   2.210   5.102 -0.4798 -1.1387 -0.5394
11937TIP3   OH257301   5.108   5.803  13.553 -0.3420  0.3815 -0.8907
11937TIP3    H157302   5.018   5.780  13.577 -0.0259 -1.0000 -1.0143
11937TIP3    H257303   5.105   5.898  13.538 -1.0742  0.8867  2.2108
11938TIP3   OH257304   4.271   2.053   1.599 -0.6212 -0.1186 -0.2357
11938TIP3    H157305   4.273   2.093   1.511  0.1472  2.3400  0.8544
11938TIP3    H257306   4.358   2.071   1.635 -0.7760 -1.5407  0.8647
11939TIP3   OH257307   0.538   4.189  12.277 -0.1715 -0.3359  0.5336
11939TIP3    H157308   0.627   4.163  12.303  0.4104  1.6330  0.5835
11939TIP3    H257309   0.543   4.200  12.182  0.0906  1.4314  0.7413
11940TIP3   OH257310   4.169   1.256  15.454  0.1020 -0.4954 -0.1584
11940TIP3    H157311   4.241   1.196  15.471 -0.4170 -1.1741 -0.3127
11940TIP3    H257312   4.207   1.343  15.462  1.0753 -0.8559 -0.8698
11941TIP3   OH257313   1.403   3.947  16.662 -0.1466 -0.4645 -0.1818
11941TIP3    H157314   1.312   3.931  16.690  0.3930  0.5858  2.3236
11941TIP3    H257315   1.455   3.929  16.740  1.7281 -0.1417 -1.3420
11942TIP3   OH257316   6.717   2.676  14.803  0.1306  0.1520  0.4066
11942TIP3    H157317   6.789   2.710  14.749 -0.4478  1.0524  0.1886
11942TIP3    H257318   6.663   2.753  14.821 -0.6771 -0.4906  0.7330
11943TIP3   OH257319   0.635   5.837  11.357  0.3244 -0.2131 -0.1529
11943TIP3    H157320   0.579   5.761  11.338  1.1018 -1.0033  0.6138
11943TIP3    H257321   0.587   5.912  11.322  0.1488 -1.2058 -2.1075
11944TIP3   OH257322   5.987   6.514   3.084  0.1066 -0.2493 -0.5976
11944TIP3    H157323   6.022   6.446   3.142  0.0989  2.8511  3.2253
11944TIP3    H257324   6.064   6.545   3.036  0.6424 -0.8245 -0.1345
11945TIP3   OH257325   0.765   6.357   3.121 -0.4424  0.2385  0.0604
11945TIP3    H157326   0.754   6.420   3.050  0.8126 -0.0050 -0.3690
11945TIP3    H257327   0.685   6.365   3.173 -0.8811  1.2222 -0.7430
11946TIP3   OH257328   6.171   4.088   4.232 -0.0700  0.1389  0.5122
11946TIP3    H157329   6.169   3.993   4.228  0.2140  0.1475  0.1557
11946TIP3    H257330   6.263   4.109   4.250  0.1365  0.3962 -0.7923
11947TIP3   OH257331   4.655   1.654  13.458 -0.8682 -0.1972 -0.2627
11947TIP3    H157332   4.619   1.740  13.475  0.9391  0.5712 -0.2296
11947TIP3    H257333   4.687   1.658  13.368  2.4887  0.3940  0.8696
11948TIP3   OH257334   0.789   0.149  16.622  0.2681  0.5479  0.2933
11948TIP3    H157335   0.883   0.152  16.601  0.1538  2.1870 -0.0757
11948TIP3    H257336   0.761   0.062  16.594  1.5839  0.2156 -0.0297
11949TIP3   OH257337   6.187   4.220  15.319  0.0799 -0.2454 -0.0091
11949TIP3    H157338   6.110   4.264  15.356 -0.0112 -0.9483  0.6541
11949TIP3    H257339   6.186   4.133  15.358  3.1360  0.8458  2.8163
11950TIP3   OH257340   0.640   5.960  12.366 -0.1138 -0.3903  0.5194
11950TIP3    H157341   0.664   6.028  12.429  4.6756 -0.7456 -0.7091
11950TIP3    H257342   0.620   5.884  12.420 -1.2456  0.7532  1.7452
11951TIP3   OH257343   5.797   3.346   4.984  0.4172  0.1573 -0.0126
11951TIP3    H157344   5.759   3.336   5.072  3.4567 -2.1460  1.1402
11951TIP3    H257345   5.728   3.317   4.925 -1.3799  0.9059  1.6661
11952TIP3   OH257346   5.220   5.812   2.191 -0.0587 -0.3611 -0.6277
11952TIP3    H157347   5.132   5.794   2.224 -1.0772  0.5433 -2.8094
11952TIP3    H257348   5.257   5.725   2.176 -0.4682 -0.7532  0.5442
11953TIP3   OH257349   1.623   1.789  17.150  0.1224 -0.5927 -0.4768
11953TIP3    H157350   1.712   1.755  17.157 -0.0950 -1.8141 -3.0733
11953TIP3    H257351   1.569   1.711  17.136 -1.2759  0.2109  0.3250
11954TIP3   OH257352   1.586   4.214  12.080 -0.7647  0.0794 -0.2882
11954TIP3    H157353   1.635   4.290  12.049 -0.3395  0.6574  1.7928
11954TIP3    H257354   1.510   4.251  12.125  0.2341 -0.6650  2.0680
11955TIP3   OH257355   0.183   3.510   0.992  0.5034  0.3889 -0.8784
11955TIP3    H157356   0.144   3.545   0.912 -0.7290  1.3236  0.0905
11955TIP3    H257357   0.165   3.578   1.058  2.4166  0.1169 -0.0464
11956TIP3   OH257358   1.993   6.082  12.740  0.1057  0.4485 -0.0081
11956TIP3    H157359   1.999   6.044  12.828 -0.4865  0.3199 -0.0184
11956TIP3    H257360   2.042   6.021  12.684  0.2798  0.4010  0.1934
11957TIP3   OH257361   1.456   3.312  13.601  0.1560  0.1429 -0.1480
11957TIP3    H157362   1.529   3.250  13.599 -1.1346 -1.4390  0.3663
11957TIP3    H257363   1.378   3.257  13.613 -0.9970  1.8850  0.6076
11958TIP3   OH257364   5.504   6.792  16.200 -0.0597 -0.3958  0.4285
11958TIP3    H157365   5.498   6.821  16.109  2.0868 -1.4882 -0.1111
11958TIP3    H257366   5.416   6.762  16.222 -0.5148 -0.4942 -1.4166
11959TIP3   OH257367   3.569   4.480  16.266  0.1132  0.6230  0.5463
11959TIP3    H157368   3.476   4.479  16.290 -0.1236 -1.0177 -0.3260
11959TIP3    H257369   3.569   4.499  16.172  0.5401 -1.0409  0.1929
11960TIP3   OH257370   1.312   3.998  17.090 -0.3792 -0.9442  0.8300
11960TIP3    H157371   1.242   4.001  17.156 -1.1413  1.1916 -0.0154
11960TIP3    H257372   1.392   4.013  17.139 -0.7719 -1.0400  1.5020
11961TIP3   OH257373   0.693   3.873   5.457 -0.3682 -0.0656  0.1396
11961TIP3    H157374   0.673   3.877   5.551 -1.3530  0.2923 -0.0882
11961TIP3    H257375   0.640   3.801   5.424 -1.9283  1.4139 -0.6151
11962TIP3   OH257376   0.971   3.991  16.611  0.6810  0.6443  0.4613
11962TIP3    H157377   0.901   3.925  16.609  1.6174 -0.3716  0.3990
11962TIP3    H257378   1.027   3.964  16.684  2.7514 -0.4122 -1.4576
11963TIP3   OH257379   3.891   5.172   5.476  0.5023  0.1377 -0.2307
11963TIP3    H157380   3.854   5.089   5.508  0.1241  0.6728  0.7214
11963TIP3    H257381   3.907   5.156   5.383 -1.1309 -0.4702 -0.4307
11964TIP3   OH257382   4.338   0.373  12.611  0.1824  0.2013 -0.1186
11964TIP3    H157383   4.329   0.467  12.625 -3.3338 -0.4998  2.8586
11964TIP3    H257384   4.343   0.363  12.515  3.3409  3.5401 -0.3945
11965TIP3   OH257385   4.187   1.795   1.564  0.0362  0.2339 -0.3769
11965TIP3    H157386   4.228   1.878   1.585 -1.1970  0.8216 -0.2578
11965TIP3    H257387   4.247   1.729   1.599  0.2950  1.0980  0.8423
11966TIP3   OH257388   3.368   3.587  12.705  0.0371 -0.5031  0.3708
11966TIP3    H157389   3.380   3.509  12.651 -1.1697 -0.1238 -0.4622
11966TIP3    H257390   3.282   3.575  12.746 -0.1778  0.4114  0.1917
11967TIP3   OH257391   6.123   6.537   0.870  0.7299  0.6319 -0.1832
11967TIP3    H157392   6.125   6.633   0.875  1.1142  0.7598 -2.3132
11967TIP3    H257393   6.175   6.516   0.793 -0.6460 -1.2134 -0.6420
11968TIP3   OH257394   1.713   1.092   5.456  0.2593 -0.4144  0.5105
11968TIP3    H157395   1.664   1.153   5.401  0.5756 -1.1421 -0.5693
11968TIP3    H257396   1.788   1.065   5.403  0.0414 -1.8662  0.9276
11969TIP3   OH257397   3.422   4.410   0.895 -0.6245  0.3353 -0.0429
11969TIP3    H157398   3.477   4.369   0.962  1.6249 -0.8367 -2.5266
11969TIP3    H257399   3.341   4.431   0.941  1.1211  0.2910  3.2439
11970TIP3   OH257400   5.157   4.270   1.686  0.4941 -0.9072 -0.1181
11970TIP3    H157401   5.231   4.325   1.713  0.7501 -1.6490  0.7108
11970TIP3    H257402   5.103   4.328   1.632  0.1524  0.5049  1.6858
11971TIP3   OH257403   3.385   4.137   3.201 -0.2569 -0.7056 -0.2257
11971TIP3    H157404   3.435   4.070   3.247 -0.2513 -1.1358 -0.8546
11971TIP3    H257405   3.420   4.137   3.112  0.1123  0.5131 -0.0882
11972TIP3   OH257406   5.352   5.655   1.317 -0.3239 -0.2105  0.3496
11972TIP3    H157407   5.371   5.613   1.234  1.6761 -0.5354  0.9511
11972TIP3    H257408   5.357   5.749   1.299  2.3417 -0.2749  0.5581
11973TIP3   OH257409   1.938   2.138   1.914 -0.2273 -0.6529  0.2032
11973TIP3    H157410   1.845   2.155   1.895  0.2007 -0.0324 -1.4192
11973TIP3    H257411   1.947   2.158   2.007 -1.5311  0.1950  0.1741
11974TIP3   OH257412   6.025   2.512  13.221  0.3650  0.1405 -0.1297
11974TIP3    H157413   5.997   2.598  13.189  0.0474 -0.5608 -1.7828
11974TIP3    H257414   6.119   2.511  13.204  0.2905 -0.0096 -0.5510
11975TIP3   OH257415   2.170   6.332  12.210  0.2668 -0.6356  0.3841
11975TIP3    H157416   2.194   6.373  12.127  0.0163 -0.2549  0.5010
11975TIP3    H257417   2.254   6.309  12.251  0.4035 -0.2847  0.2989
11976TIP3   OH257418   3.182   1.169  17.068 -0.4078 -1.2934  0.2503
11976TIP3    H157419   3.245   1.212  17.126 -0.9497 -1.2169  0.7828
11976TIP3    H257420   3.152   1.092  17.117 -1.7645 -0.5696  0.5617
11977TIP3   OH257421   6.733   0.781  15.346  0.5811  0.5185  0.0001
11977TIP3    H157422   6.663   0.717  15.337  0.4705  0.2096  2.7118
11977TIP3    H257423   6.811   0.736  15.314  0.2924 -0.5959  0.8528
11978TIP3   OH257424   4.856   4.960  11.084 -0.2063 -0.1413 -0.3066
11978TIP3    H157425   4.913   4.924  11.152  1.5957  0.2378 -1.5802
11978TIP3    H257426   4.827   4.883  11.035  0.5883 -0.2046 -0.6924
11979TIP3   OH257427   4.799   4.022  13.546  0.3348 -0.2442  0.1255
11979TIP3    H157428   4.820   3.943  13.596  0.9731 -0.2386 -0.1236
11979TIP3    H257429   4.879   4.073  13.548  1.0182 -1.1298 -2.5206
11980TIP3   OH257430   4.429   3.732   5.705 -0.6402  0.1533 -0.2863
11980TIP3    H157431   4.524   3.720   5.716 -0.8419 -1.2682  0.0172
11980TIP3    H257432   4.403   3.662   5.645 -1.9136 -1.1999  1.7429
11981TIP3   OH257433   5.543   6.330  14.033  0.4288 -0.2304  0.7215
11981TIP3    H157434   5.568   6.274  14.107  0.7292  0.9998  1.5690
11981TIP3    H257435   5.588   6.413  14.050 -2.3480  1.2836  1.0575
11982TIP3   OH257436   6.441   0.468   4.044 -0.9307 -0.1736 -0.3658
11982TIP3    H157437   6.354   0.432   4.062 -1.9744  2.1079 -0.7622
11982TIP3    H257438   6.449   0.466   3.949 -0.8504  0.3096 -0.3701
11983TIP3   OH257439   3.312   0.375  11.857 -0.1704  0.5940 -0.7960
11983TIP3    H157440   3.363   0.452  11.884  0.9129  0.0770 -1.3408
11983TIP3    H257441   3.373   0.302  11.867 -0.9281 -0.0872 -1.1222
11984TIP3   OH257442   2.767   0.456   5.337  0.1086  0.0173 -0.0652
11984TIP3    H157443   2.793   0.540   5.374  0.4200 -0.1624  0.1264
11984TIP3    H257444   2.769   0.395   5.412 -0.0595 -0.1738 -0.2132
11985TIP3   OH257445   6.118   1.611  14.440  1.3814  0.4775 -0.4299
11985TIP3    H157446   6.140   1.673  14.370  0.5645  0.0724 -1.0590
11985TIP3    H257447   6.094   1.667  14.514  2.5331  0.9109 -0.3624
11986TIP3   OH257448   6.316   0.370  16.537 -0.1188 -0.1836 -0.8065
11986TIP3    H157449   6.291   0.447  16.485  0.0234  1.0040  0.8687
11986TIP3    H257450   6.237   0.348  16.586  0.1907 -0.4179 -0.4155
11987TIP3   OH257451   2.909   0.248   0.047  0.1485  0.0451 -0.7759
11987TIP3    H157452   2.822   0.250   0.087  1.0561  0.6393  1.2698
11987TIP3    H257453   2.932   0.155   0.045  0.1396  0.0083  0.2798
11988TIP3   OH257454   6.367   3.390   1.834 -0.1409  0.1119 -0.0526
11988TIP3    H157455   6.373   3.340   1.915 -2.1039 -1.8746 -1.0760
11988TIP3    H257456   6.379   3.481   1.861  0.5262 -0.6369  2.2679
11989TIP3   OH257457   0.549   0.982   3.397 -0.3656  0.1643  0.0698
11989TIP3    H157458   0.567   0.928   3.320 -0.4922  0.8292 -0.4220
11989TIP3    H257459   0.632   0.982   3.446 -0.4185 -0.6312  0.1770
11990TIP3   OH257460   4.828   1.800  12.336 -0.5356 -0.4241  0.1400
11990TIP3    H157461   4.919   1.808  12.307 -0.2305 -0.4818  1.0610
11990TIP3    H257462   4.795   1.890  12.338 -0.7861 -0.4829 -1.0835
11991TIP3   OH257463   5.444   6.085  17.083 -0.4264 -0.4408 -0.0611
11991TIP3    H157464   5.468   6.109  16.993  0.0427 -1.6489 -0.2677
11991TIP3    H257465   5.521   6.107  17.136  0.1459 -1.7714 -0.3071
11992TIP3   OH257466   6.229   5.942  13.990  0.6743  0.1095 -0.1733
11992TIP3    H157467   6.276   5.859  13.989 -0.6869 -0.6863  0.8351
11992TIP3    H257468   6.216   5.961  14.083  0.1140  0.9656 -0.4192
11993TIP3   OH257469   3.308   1.700   3.093 -0.1643  0.1988  0.6071
11993TIP3    H157470   3.360   1.777   3.117 -0.3241  0.8661 -1.1011
11993TIP3    H257471   3.373   1.633   3.073  0.1691  1.3430 -2.5659
11994TIP3   OH257472   2.028   4.310  11.376  0.3619  0.6926  0.1234
11994TIP3    H157473   2.124   4.304  11.373  0.3065 -2.2896  1.8250
11994TIP3    H257474   2.010   4.388  11.427  1.8631  1.8083 -1.0101
11995TIP3   OH257475   0.855   2.134   0.552 -0.0024  0.8328  0.2887
11995TIP3    H157476   0.844   2.075   0.477  0.0988  0.0552  0.8728
11995TIP3    H257477   0.776   2.121   0.605  0.6354  0.2134  1.1032
11996TIP3   OH257478   3.539   3.856   4.184 -0.8372  0.1517 -0.2330
11996TIP3    H157479   3.515   3.800   4.110 -0.0649 -1.8467  0.9808
11996TIP3    H257480   3.634   3.866   4.177 -0.6884 -0.4826  0.7759
11997TIP3   OH257481   0.133   2.660  15.872 -0.2091  0.1700  0.2483
11997TIP3    H157482   0.179   2.718  15.811 -0.3296  0.8954  0.8371
11997TIP3    H257483   0.194   2.648  15.944 -0.9607  1.2128  1.0769
11998TIP3   OH257484   4.315   4.637  13.969 -0.1350 -0.3838  0.0887
11998TIP3    H157485   4.389   4.696  13.984 -0.3608 -0.3031  0.8804
11998TIP3    H257486   4.268   4.635  14.052 -1.3315 -0.0227 -0.5678
11999TIP3   OH257487   2.701   3.365  12.763  0.5486 -0.1309 -0.1629
11999TIP3    H157488   2.787   3.351  12.724  1.5462  1.0529  1.5402
11999TIP3    H257489   2.670   3.448  12.725  0.6058 -0.0239  0.0287
12000TIP3   OH257490   3.892   1.457   6.081 -0.3349 -0.2466 -0.5406
12000TIP3    H157491   3.902   1.547   6.112 -1.5890 -1.2723  3.1016
12000TIP3    H257492   3.982   1.424   6.073  0.0923  0.5402  0.7419
12001TIP3   OH257493   2.965   3.452   3.370  0.0097  0.0220 -0.2446
12001TIP3    H157494   3.048   3.479   3.410 -0.2035  0.9712 -0.4547
12001TIP3    H257495   2.914   3.532   3.362 -0.7373 -0.4799 -0.5917
12002TIP3   OH257496   5.731   6.543  12.758 -0.3250 -0.1492  0.1269
12002TIP3    H157497   5.717   6.629  12.717 -0.4371  0.5744  1.6286
12002TIP3    H257498   5.822   6.545  12.787 -0.1314 -0.8046 -0.4450
12003TIP3   OH257499   4.396   2.397   2.189 -0.6256  0.0659 -0.2118
12003TIP3    H157500   4.463   2.459   2.159  1.9355 -2.3134  0.3681
12003TIP3    H257501   4.349   2.445   2.257  1.5474  1.2739  0.5181
12004TIP3   OH257502   2.652   3.964  14.890 -0.5935 -0.2061 -0.1935
12004TIP3    H157503   2.648   3.899  14.960 -0.5996  0.1134  0.1050
12004TIP3    H257504   2.581   3.940  14.830  0.5397 -1.5353 -1.0179
12005TIP3   OH257505   2.563   3.158   5.270 -0.6086 -0.3182 -0.2959
12005TIP3    H157506   2.564   3.135   5.177 -3.1141  0.7113 -0.6166
12005TIP3    H257507   2.478   3.200   5.284  0.6545  1.6309  1.9676
12006TIP3   OH257508   3.436   1.951  12.377 -0.0419 -0.0925  0.2140
12006TIP3    H157509   3.468   1.976  12.290 -0.1039  2.2220  0.8133
12006TIP3    H257510   3.513   1.918  12.423  0.3084  0.1316 -0.2057
12007TIP3   OH257511   6.331   5.203   5.134 -0.0708  0.1117 -0.2399
12007TIP3    H157512   6.299   5.113   5.131  0.3901 -0.0304 -1.1000
12007TIP3    H257513   6.424   5.194   5.154  0.1300  0.3624 -1.0581
12008TIP3   OH257514   6.286   0.255   2.458 -0.1464 -0.3271  0.0381
12008TIP3    H157515   6.312   0.343   2.485  0.4415 -0.6369  0.4721
12008TIP3    H257516   6.329   0.242   2.373 -1.3494  0.3330 -0.6970
12009TIP3   OH257517   5.748   6.403   4.436 -0.2008 -0.5123 -0.6296
12009TIP3    H157518   5.834   6.441   4.452 -1.1269  1.1869  0.4239
12009TIP3    H257519   5.754   6.314   4.470  0.6599  0.1098  0.8665
12010TIP3   OH257520   0.817   5.879   3.934  0.6721 -0.6167  0.9503
12010TIP3    H157521   0.900   5.833   3.943 -0.2702 -2.4934  0.3513
12010TIP3    H257522   0.816   5.911   3.843  1.3057  0.6003  1.3527
12011TIP3   OH257523   0.508   4.527   3.976  0.1552 -0.1137 -0.8293
12011TIP3    H157524   0.593   4.507   3.937 -0.0947 -0.3488 -1.2666
12011TIP3    H257525   0.445   4.484   3.918 -0.2288 -0.3860 -0.2086
12012TIP3   OH257526   4.906   6.674  11.544  0.2297  0.1049  0.0381
12012TIP3    H157527   4.914   6.580  11.529 -1.6154 -0.0663 -0.0608
12012TIP3    H257528   4.924   6.685  11.638 -1.9930 -0.7128  0.6031
12013TIP3   OH257529   5.636   5.235  14.299 -0.6589 -0.2080  0.4453
12013TIP3    H157530   5.647   5.316  14.249 -1.9684 -0.8317 -0.8842
12013TIP3    H257531   5.691   5.247  14.376 -0.6454  1.8477  0.1447
12014TIP3   OH257532   2.865   2.789   5.397 -0.5172  0.3314  0.0408
12014TIP3    H157533   2.859   2.720   5.332  1.6661 -0.1302  0.2942
12014TIP3    H257534   2.819   2.755   5.473 -2.0277  0.3890 -0.8238
12015TIP3   OH257535   1.947   0.071  17.233  0.0109  0.0301 -0.4553
12015TIP3    H157536   1.977   0.030  17.314  0.7243  0.2160 -0.6169
12015TIP3    H257537   1.994   0.154  17.229  0.1601 -0.0779 -1.1645
12016TIP3   OH257538   4.459   6.708  12.008 -0.2281 -0.2249  0.1176
12016TIP3    H157539   4.512   6.630  11.995  0.4439  0.2687 -0.1690
12016TIP3    H257540   4.473   6.732  12.100 -0.0019 -0.1311  0.0587
12017TIP3   OH257541   2.285   2.820  13.977 -0.1060 -0.0202  0.2781
12017TIP3    H157542   2.332   2.873  14.042  2.2548  0.0863 -1.4422
12017TIP3    H257543   2.290   2.730  14.011  2.3341 -0.1717 -0.3992
12018TIP3   OH257544   3.592   3.135   3.429 -0.6188  0.3609 -0.2278
12018TIP3    H157545   3.512   3.188   3.434 -0.7086  0.2921 -0.8205
12018TIP3    H257546   3.613   3.114   3.519 -2.0030 -0.7170 -0.1451
12019TIP3   OH257547   2.571   2.535   2.351  0.5928 -0.7455  0.4636
12019TIP3    H157548   2.554   2.602   2.417 -1.4861 -0.8234  0.0492
12019TIP3    H257549   2.516   2.461   2.377  1.4251 -1.5934 -0.1373
12020TIP3   OH257550   4.537   3.150  17.020  0.2456 -0.5202 -0.3861
12020TIP3    H157551   4.490   3.216  17.070 -0.4635 -1.4035  0.1286
12020TIP3    H257552   4.601   3.114  17.083  0.7458 -0.2095 -0.7115
12021TIP3   OH257553   2.747   5.320  12.340 -0.1494  0.6258  0.3978
12021TIP3    H157554   2.807   5.360  12.277 -0.1508 -0.5575 -0.3699
12021TIP3    H257555   2.703   5.394  12.382  1.8650  1.5154  0.9979
12022TIP3   OH257556   1.151   1.503  17.086 -0.2123  0.0861 -0.3114
12022TIP3    H157557   1.125   1.593  17.066  0.2099  0.0791 -0.9203
12022TIP3    H257558   1.086   1.449  17.039  0.1900  0.0744 -0.8652
12023TIP3   OH257559   4.740   5.574   0.787  0.8828  0.4730  0.1927
12023TIP3    H157560   4.833   5.572   0.808  1.4504 -1.3745 -2.2839
12023TIP3    H257561   4.720   5.485   0.758 -0.3589  2.0758 -4.3852
12024TIP3   OH257562   0.061   2.537  13.226 -0.0552  0.4657  0.3396
12024TIP3    H157563   0.098   2.506  13.143 -1.1697 -0.5712  0.2059
12024TIP3    H257564   0.066   2.460  13.283 -1.5516  0.4447  0.4570
12025TIP3   OH257565   4.160   3.518  16.788 -0.1805 -0.0379  0.7207
12025TIP3    H157566   4.253   3.502  16.805 -0.2457  0.1271  1.2351
12025TIP3    H257567   4.153   3.613  16.780 -0.4965  0.0380  1.8276
12026TIP3   OH257568   2.021   6.291  11.935  0.2468  0.2731  0.2780
12026TIP3    H157569   2.007   6.261  12.025  0.4095  0.7847  0.4756
12026TIP3    H257570   1.934   6.294  11.896  0.1123  0.6153  0.5988
12027TIP3   OH257571   2.374   0.511  16.516  0.1900 -0.4578 -0.1932
12027TIP3    H157572   2.362   0.589  16.462  1.4745  0.7511  1.2273
12027TIP3    H257573   2.395   0.545  16.603  0.0574 -2.3924  0.6071
12028TIP3   OH257574   4.978   5.647  13.867  0.2458 -0.0614  0.0285
12028TIP3    H157575   4.911   5.681  13.807  0.1440 -1.2371 -0.5450
12028TIP3    H257576   5.009   5.567  13.824  2.0590  0.5007  0.2783
12029TIP3   OH257577   4.842   6.489   1.050  0.4587 -0.0231 -0.3391
12029TIP3    H157578   4.784   6.417   1.072  0.6970 -0.3254 -0.6877
12029TIP3    H257579   4.790   6.568   1.066 -0.2628 -0.3000 -1.2656
12030TIP3   OH257580   5.265   0.513   4.524 -0.2265  0.4796  0.4556
12030TIP3    H157581   5.262   0.441   4.587 -0.5420 -1.1191 -1.3486
12030TIP3    H257582   5.358   0.538   4.521 -0.2823  0.9511  1.9236
12031TIP3   OH257583   5.530   6.783  12.193 -0.2662  0.2971  0.4003
12031TIP3    H157584   5.559   6.742  12.112  1.2050  0.3335  0.8756
12031TIP3    H257585   5.601   6.844  12.215 -2.1911  2.7399 -0.0360
12032TIP3   OH257586   5.841   3.055   5.583  0.0976  0.4261  0.1340
12032TIP3    H157587   5.781   2.994   5.540 -0.8543  1.6418 -0.3154
12032TIP3    H257588   5.799   3.075   5.667 -0.9962  2.5390 -0.8682
12033TIP3   OH257589   1.821   5.244   2.872  0.0660  0.7514  0.1311
12033TIP3    H157590   1.785   5.198   2.947  0.1894  0.6408  0.1219
12033TIP3    H257591   1.915   5.246   2.888  0.3182 -1.1148 -1.0489
12034TIP3   OH257592   5.377   5.465   1.889 -0.9060  0.3798 -0.3682
12034TIP3    H157593   5.344   5.381   1.920  0.9258 -0.1820  0.1380
12034TIP3    H257594   5.363   5.463   1.794  1.5934 -1.6824 -0.7423
12035TIP3   OH257595   5.898   4.432   4.467  0.0412 -0.1369 -0.3857
12035TIP3    H157596   5.857   4.510   4.430 -0.1166 -0.7643 -1.5692
12035TIP3    H257597   5.969   4.412   4.406  0.9553 -0.1033  0.6759
12036TIP3   OH257598   0.349   2.013   1.423 -0.1409  0.4751 -0.4175
12036TIP3    H157599   0.329   1.922   1.448 -0.9741  1.4639  2.7092
12036TIP3    H257600   0.434   2.030   1.462  0.4621  0.7673 -1.8226
12037TIP3   OH257601   6.381   1.428   2.863  0.1843 -0.3768  0.6744
12037TIP3    H157602   6.395   1.492   2.794  0.7876 -1.0538  0.1597
12037TIP3    H257603   6.367   1.480   2.942  3.0296  0.3689  0.7210
12038TIP3   OH257604   4.221   4.041   4.042 -0.0644  0.0533 -1.0286
12038TIP3    H157605   4.223   3.952   4.006  1.7051 -0.4941  0.3016
12038TIP3    H257606   4.227   4.098   3.965 -0.5307 -0.9876 -1.8542
12039TIP3   OH257607   6.343   0.971  13.028  0.1063  0.5865  0.1508
12039TIP3    H157608   6.332   1.063  13.052  2.3092  0.7629  0.5910
12039TIP3    H257609   6.403   0.937  13.093  1.0194 -0.6079 -1.2848
12040TIP3   OH257610   4.970   1.951   4.852 -0.1394  0.1086  0.0441
12040TIP3    H157611   4.908   1.999   4.798 -0.0903 -0.0419 -0.1466
12040TIP3    H257612   4.921   1.927   4.931 -0.6195 -0.8959 -0.5549
12041TIP3   OH257613   6.132   0.818  14.019  0.2973  0.3310 -0.1257
12041TIP3    H157614   6.059   0.807  13.959  0.1845 -0.2111  0.1157
12041TIP3    H257615   6.190   0.881  13.974  1.6498 -2.2415 -2.1644
12042TIP3   OH257616   6.003   1.839   1.446 -0.0637  0.5336  0.0040
12042TIP3    H157617   6.007   1.752   1.407  0.7721  1.3218 -1.7467
12042TIP3    H257618   6.084   1.846   1.496  1.0757  1.2039 -1.8860
12043TIP3   OH257619   2.368   6.219  17.184 -0.0005  0.2132  0.1347
12043TIP3    H157620   2.367   6.275  17.262  0.6670  0.4762 -0.0462
12043TIP3    H257621   2.311   6.145  17.207  0.7494 -0.0590  1.1315
12044TIP3   OH257622   2.451   4.124  16.881 -0.1432  0.5461  0.4103
12044TIP3    H157623   2.405   4.081  16.953  0.3480 -0.8665 -0.0997
12044TIP3    H257624   2.532   4.074  16.872 -0.7408 -0.0495 -1.9192
12045TIP3   OH257625   0.181   2.317  15.953  0.4048 -0.2228  0.1350
12045TIP3    H157626   0.116   2.341  15.887 -0.3571 -2.1537  0.1471
12045TIP3    H257627   0.168   2.223  15.967  4.1056 -1.0045 -0.9009
12046TIP3   OH257628   1.655   3.437   1.703  0.4565 -0.4230  0.0736
12046TIP3    H157629   1.724   3.408   1.763  0.9268 -1.8041 -1.0933
12046TIP3    H257630   1.584   3.466   1.760  1.8985  0.7625  1.2859
12047TIP3   OH257631   5.719   5.994   5.708  0.4406 -0.5804 -0.0983
12047TIP3    H157632   5.750   5.905   5.724 -1.9362 -1.7573 -1.7150
12047TIP3    H257633   5.708   5.999   5.613 -2.7109  0.2828  0.2581
12048TIP3   OH257634   0.982   1.914  16.496  0.4603  0.0559 -0.2760
12048TIP3    H157635   0.932   1.992  16.470  0.6070  0.5310  0.8295
12048TIP3    H257636   1.061   1.950  16.537 -1.0320 -0.6086  3.3680
12049TIP3   OH257637   5.538   3.130  12.306 -0.1539  0.1424  0.5590
12049TIP3    H157638   5.603   3.118  12.236  1.9825 -1.0728  2.7052
12049TIP3    H257639   5.506   3.042  12.325 -1.8799  0.6416  0.0990
12050TIP3   OH257640   3.988   6.767  11.713 -0.3002  0.2029 -0.0259
12050TIP3    H157641   4.024   6.729  11.633 -0.9911 -0.4317 -0.0384
12050TIP3    H257642   4.041   6.730  11.783  0.4088  0.8826 -0.1984
12051TIP3   OH257643   2.756   0.635  12.580  0.2712 -0.5175 -0.2175
12051TIP3    H157644   2.748   0.730  12.575  1.4880 -0.3016  1.5517
12051TIP3    H257645   2.709   0.603  12.504  0.1552  1.5259 -1.0308
12052TIP3   OH257646   3.653   1.139  14.433 -0.0152 -0.1921  0.1725
12052TIP3    H157647   3.649   1.056  14.480  3.3588 -0.1305  0.7036
12052TIP3    H257648   3.652   1.113  14.340  0.3080 -0.7770  0.3294
12053TIP3   OH257649   2.982   3.316   5.678  0.4437  0.6850  0.4904
12053TIP3    H157650   3.034   3.390   5.710 -0.4336  1.5373 -0.0449
12053TIP3    H257651   3.020   3.240   5.723  1.6757  1.3819  0.6764
12054TIP3   OH257652   6.773   2.308  13.880  0.3986 -0.0287 -0.4567
12054TIP3    H157653   6.783   2.376  13.947  1.0761  1.0497 -1.6351
12054TIP3    H257654   6.862   2.274  13.867 -0.1716 -2.3079  1.3024
12055TIP3   OH257655   0.776   6.699  12.717  0.0218 -0.0139 -0.3109
12055TIP3    H157656   0.735   6.634  12.660  0.6705 -0.0286 -0.7680
12055TIP3    H257657   0.759   6.783  12.674 -0.1043  0.0437 -0.1499
12056TIP3   OH257658   3.775   5.620   5.683  0.2534 -0.3758  0.2281
12056TIP3    H157659   3.850   5.633   5.625  0.1088 -0.2098  0.0764
12056TIP3    H257660   3.731   5.543   5.648 -0.0426 -0.0592 -0.1097
12057TIP3   OH257661   1.842   0.985  12.667  0.4335  0.0212 -0.3043
12057TIP3    H157662   1.856   1.066  12.717 -0.9120 -0.1848  0.4214
12057TIP3    H257663   1.926   0.939  12.673  1.8683  2.2438 -2.3958
12058TIP3   OH257664   0.387   1.589   4.558  0.1644 -0.1655 -0.4573
12058TIP3    H157665   0.449   1.517   4.574  0.7017  0.2039 -0.8459
12058TIP3    H257666   0.340   1.563   4.479  0.5819  0.0585 -0.7800
12059TIP3   OH257667   2.803   6.552  11.998 -0.3913  0.4346 -0.1067
12059TIP3    H157668   2.795   6.585  11.909 -0.7059  0.8983  0.0882
12059TIP3    H257669   2.735   6.598  12.047 -1.1485 -0.8643  0.0791
12060TIP3   OH257670   4.817   2.300  15.601 -0.4594  0.2127 -0.1827
12060TIP3    H157671   4.752   2.242  15.640  0.4447 -1.7460 -1.4828
12060TIP3    H257672   4.767   2.358  15.544 -1.1614 -0.7454 -0.5531
12061TIP3   OH257673   4.987   3.615  12.570  0.6149  0.2989 -0.5736
12061TIP3    H157674   5.027   3.571  12.495 -2.2763 -1.0940 -1.3988
12061TIP3    H257675   5.010   3.559  12.645 -0.8749 -1.2783 -1.2470
12062TIP3   OH257676   5.873   5.776  11.864  1.0004  0.5178  0.2104
12062TIP3    H157677   5.842   5.863  11.838  0.5265  0.3886  0.3445
12062TIP3    H257678   5.933   5.750  11.794 -0.5176  0.0315 -0.9337
12063TIP3   OH257679   2.858   5.880   3.028  0.4349 -0.3491  0.4028
12063TIP3    H157680   2.812   5.821   2.968  0.2853  0.4610 -0.2717
12063TIP3    H257681   2.945   5.890   2.990 -0.1675  1.4300 -0.5326
12064TIP3   OH257682   5.191   5.856   2.937  0.6154  0.2657 -0.2068
12064TIP3    H157683   5.131   5.795   2.978  0.4266  0.0164 -0.8455
12064TIP3    H257684   5.264   5.863   2.999  0.8647 -0.9801 -0.3325
12065TIP3   OH257685   2.972   0.914  16.222  0.3285  0.3970 -0.0378
12065TIP3    H157686   2.992   0.961  16.141  1.8342  1.2112  0.7869
12065TIP3    H257687   2.883   0.942  16.245  0.0585  0.4891 -1.1639
12066TIP3   OH257688   1.963   0.601  11.994  0.7586  0.1288  0.6071
12066TIP3    H157689   2.033   0.535  11.997  0.3113 -0.3353  0.9665
12066TIP3    H257690   1.882   0.550  12.006  0.3113  0.5717 -0.4361
12067TIP3   OH257691   1.972   0.132   2.937  0.2733  0.7617 -0.1726
12067TIP3    H157692   2.049   0.177   2.905 -0.7068  1.3824 -1.6919
12067TIP3    H257693   1.938   0.084   2.862 -0.5160  0.0452  0.6172
12068TIP3   OH257694   6.396   4.374  14.998 -0.2946  0.2318 -0.0081
12068TIP3    H157695   6.458   4.301  15.004  0.3770  0.7867 -0.1590
12068TIP3    H257696   6.377   4.380  14.904  0.4706  0.9212 -0.1286
12069TIP3   OH257697   2.502   4.463   4.329  0.0557  0.4395  0.6745
12069TIP3    H157698   2.490   4.393   4.264  0.2295  1.7113 -0.7415
12069TIP3    H257699   2.567   4.521   4.290  0.3493  1.0894  2.1101
12070TIP3   OH257700   6.805   5.562  14.665  0.0537 -0.6822  0.0164
12070TIP3    H157701   6.807   5.481  14.715 -1.4584 -0.8073 -0.0879
12070TIP3    H257702   6.712   5.587  14.664  0.2467  0.0177 -1.5982
12071TIP3   OH257703   6.513   3.632  11.159  0.0694  0.5895 -0.1232
12071TIP3    H157704   6.431   3.647  11.206  0.7436  1.8032  0.6659
12071TIP3    H257705   6.582   3.658  11.220  1.0681 -0.6994 -0.6709
12072TIP3   OH257706   4.016   3.498   2.664 -0.2332  0.5895 -0.1606
12072TIP3    H157707   3.958   3.426   2.690  1.1451  0.2220  2.0342
12072TIP3    H257708   3.997   3.512   2.572 -0.9997 -2.1811 -0.4781
12073TIP3   OH257709   6.457   3.707   6.155 -0.2619 -0.2266 -0.1109
12073TIP3    H157710   6.513   3.779   6.185 -0.2711 -0.5699  0.7514
12073TIP3    H257711   6.417   3.740   6.075  2.2506 -0.4840 -1.5364
12074TIP3   OH257712   5.538   2.703   3.682 -0.2481 -0.2981  0.3596
12074TIP3    H157713   5.588   2.622   3.679 -2.8989 -1.9648  0.2966
12074TIP3    H257714   5.549   2.741   3.595 -1.0386 -1.8733 -0.4428
12075TIP3   OH257715   1.441   4.102   2.120 -0.0414  0.1941  0.0843
12075TIP3    H157716   1.360   4.059   2.150 -0.6189  0.5604 -0.9353
12075TIP3    H257717   1.459   4.168   2.187 -0.0186 -0.5740  0.8452
12076TIP3   OH257718   1.593   3.768   1.841 -0.8896 -0.1517 -0.2922
12076TIP3    H157719   1.655   3.724   1.899  1.6388  1.5873 -1.5661
12076TIP3    H257720   1.525   3.801   1.899 -0.1893 -1.3713  1.2637
12077TIP3   OH257721   4.510   6.308   5.138  0.0799  0.0202 -0.2037
12077TIP3    H157722   4.575   6.241   5.120  1.2521  1.5266 -1.7051
12077TIP3    H257723   4.434   6.283   5.085  1.0481  0.6822 -1.9221
12078TIP3   OH257724   5.019   5.722   5.997 -0.0049  0.8283 -0.1676
12078TIP3    H157725   5.044   5.795   6.054  0.8206 -0.5799  1.3127
12078TIP3    H257726   4.960   5.669   6.051  1.4723 -0.9946 -0.3061
12079TIP3   OH257727   0.001   6.341  12.824 -0.4874 -0.1336 -0.1127
12079TIP3    H157728  -0.014   6.345  12.729 -1.4581 -0.0693  0.0326
12079TIP3    H257729   0.017   6.249  12.842  0.1676 -0.0814 -0.4005
12080TIP3   OH257730   5.252   0.571   2.813  0.1258  0.5903  0.2496
12080TIP3    H157731   5.295   0.656   2.809  0.1719  0.7329  3.0198
12080TIP3    H257732   5.318   0.512   2.850 -0.6125 -0.1889  0.3436
12081TIP3   OH257733   0.564   4.912  16.427 -0.2335 -0.0374  1.1285
12081TIP3    H157734   0.530   5.002  16.418  0.1031 -0.1121 -1.3728
12081TIP3    H257735   0.637   4.920  16.488  0.4076  1.6004  0.2014
12082TIP3   OH257736   3.146   3.580   0.050 -0.8743  0.4294  0.0346
12082TIP3    H157737   3.078   3.619  -0.005 -1.8904 -0.2529  0.7778
12082TIP3    H257738   3.144   3.487   0.027  2.6615  0.9914 -2.9348
12083TIP3   OH257739   2.538   4.225   2.758  0.6306  0.4544 -0.2083
12083TIP3    H157740   2.472   4.241   2.690 -2.2051 -1.4048  1.9678
12083TIP3    H257741   2.522   4.293   2.823 -0.9610 -1.5395  1.5598
12084TIP3   OH257742   0.639   5.184  16.833  0.5936 -0.3937  0.9058
12084TIP3    H157743   0.721   5.223  16.802  0.2560 -1.5748 -1.6011
12084TIP3    H257744   0.622   5.227  16.917  0.9766  3.8287 -1.0419
12085TIP3   OH257745   5.792   6.520   2.093 -0.6350  0.2819  0.3268
12085TIP3    H157746   5.718   6.557   2.141 -1.5061 -0.3445 -0.5146
12085TIP3    H257747   5.752   6.467   2.024  0.6011 -0.6456  0.3047
12086TIP3   OH257748   4.060   2.040  16.096  0.3602  0.2013  0.4059
12086TIP3    H157749   4.109   1.960  16.080  0.9431  0.5215  0.5771
12086TIP3    H257750   4.109   2.086  16.164 -1.2748 -0.4330  2.0489
12087TIP3   OH257751   3.807   2.659  11.840  0.0253 -0.0298 -0.4182
12087TIP3    H157752   3.725   2.664  11.790  0.3728 -1.5036 -1.2031
12087TIP3    H257753   3.869   2.622  11.777  0.8748 -0.4148  0.6472
12088TIP3   OH257754   1.566   5.254   0.671 -0.3900  0.3271  0.1756
12088TIP3    H157755   1.605   5.180   0.717  0.5594  0.5710 -0.2127
12088TIP3    H257756   1.628   5.326   0.684 -0.7522  0.7499 -0.3784
12089TIP3   OH257757   6.184   3.426   0.162  0.4100  0.0691 -0.2418
12089TIP3    H157758   6.264   3.473   0.185 -0.0345  0.4662  0.4810
12089TIP3    H257759   6.215   3.347   0.117  1.3340 -1.1472  2.3985
12090TIP3   OH257760   1.772   6.244  13.457 -0.2241  0.1514  0.7880
12090TIP3    H157761   1.852   6.295  13.444 -1.2081  2.0593  2.0381
12090TIP3    H257762   1.731   6.241  13.371  0.4306  0.4763  0.4648
12091TIP3   OH257763   0.229   6.243   5.295 -0.0397 -0.3451 -0.2576
12091TIP3    H157764   0.144   6.272   5.260 -0.1696 -1.3302 -0.7602
12091TIP3    H257765   0.207   6.168   5.350  0.3924  0.0388  0.4416
12092TIP3   OH257766   3.486   5.000   3.297 -0.6426  0.3364  0.1016
12092TIP3    H157767   3.465   5.030   3.208  1.2216  1.0118 -0.1161
12092TIP3    H257768   3.581   4.993   3.298 -0.5568  1.7027  2.5163
12093TIP3   OH257769   3.210   0.946  11.791 -0.4051 -0.4029 -0.2434
12093TIP3    H157770   3.279   0.888  11.757  1.2899  1.3424  0.1239
12093TIP3    H257771   3.255   1.000  11.856 -1.8757  1.6038 -0.8672
12094TIP3   OH257772   3.818   4.432  12.268 -0.3245 -0.5348  0.3317
12094TIP3    H157773   3.813   4.344  12.305 -2.7748 -0.1973  0.9498
12094TIP3    H257774   3.758   4.429  12.193  0.7068  0.2092 -0.5368
12095TIP3   OH257775   0.691   5.583  16.876  0.0006 -0.1749 -0.4023
12095TIP3    H157776   0.762   5.524  16.851  0.4171  0.7721 -1.4832
12095TIP3    H257777   0.635   5.530  16.934  2.7044 -0.2830  2.2075
12096TIP3   OH257778   0.250   3.049  14.895 -0.0880 -0.2726 -0.0852
12096TIP3    H157779   0.244   3.109  14.969 -1.7302  0.9948 -1.2071
12096TIP3    H257780   0.307   3.092  14.832 -0.8284 -0.1307 -0.6658
12097TIP3   OH257781   1.971   4.611   4.534 -0.1122  0.3678 -0.8486
12097TIP3    H157782   2.028   4.671   4.582 -0.4869  1.0093 -1.2057
12097TIP3    H257783   1.892   4.606   4.588  0.0339 -0.0317 -0.6714
12098TIP3   OH257784   4.217   3.122   2.130  0.4820 -0.0838 -0.4070
12098TIP3    H157785   4.270   3.201   2.137 -0.2903  0.5888 -1.8951
12098TIP3    H257786   4.141   3.149   2.077 -0.6053 -1.3946  0.4453
12099TIP3   OH257787   5.694   1.270  16.392  0.2010  0.3168  0.0098
12099TIP3    H157788   5.660   1.357  16.370  0.0232  0.6420  1.5108
12099TIP3    H257789   5.776   1.263  16.343  0.5242  1.5733  0.3575
12100TIP3   OH257790   5.918   3.390   1.396 -0.5287  0.7060 -0.3178
12100TIP3    H157791   5.881   3.459   1.341 -0.7208  0.0560 -1.0096
12100TIP3    H257792   5.980   3.435   1.454  1.1115  1.1365 -2.3568
12101TIP3   OH257793   2.509   4.384   3.271 -0.4406 -0.5285  0.0653
12101TIP3    H157794   2.444   4.340   3.216 -0.9831  0.8911 -0.4635
12101TIP3    H257795   2.592   4.372   3.225 -0.9023  0.7430 -1.1734
12102TIP3   OH257796   5.552   2.296  14.827  0.2493 -0.3381 -0.3293
12102TIP3    H157797   5.628   2.249  14.860  0.5993 -0.0109 -0.6743
12102TIP3    H257798   5.574   2.318  14.737  0.3275  1.0273  0.0267
12103TIP3   OH257799   6.016   1.302   5.188  0.1050  0.4481  0.0017
12103TIP3    H157800   5.992   1.242   5.117 -1.0992  1.3963 -0.4342
12103TIP3    H257801   5.955   1.282   5.259 -1.8603  2.6482 -0.9864
12104TIP3   OH257802   2.879   0.481   4.633 -0.3304 -0.3289 -0.6522
12104TIP3    H157803   2.784   0.474   4.641 -0.2320 -2.5791 -1.0850
12104TIP3    H257804   2.913   0.457   4.719 -0.1749  1.4146 -0.2157
12105TIP3   OH257805   5.113   6.087  10.788  0.3281 -0.0774 -0.7089
12105TIP3    H157806   5.035   6.073  10.735 -1.0638 -1.7015  1.6756
12105TIP3    H257807   5.092   6.161  10.845 -0.7975 -2.5108  2.1906
12106TIP3   OH257808   6.386   6.796   2.942 -0.4554  0.3239  0.2760
12106TIP3    H157809   6.368   6.801   3.036  0.4054 -0.5961  0.4948
12106TIP3    H257810   6.382   6.887   2.912 -2.7950  0.4283  0.8008
12107TIP3   OH257811   0.893   2.466  13.856 -0.2198  0.6885  0.5993
12107TIP3    H157812   0.806   2.469  13.896 -0.5123  1.8704 -0.1186
12107TIP3    H257813   0.899   2.545  13.803  0.7594 -0.0732 -0.4785
12108TIP3   OH257814   2.086   4.479   0.217 -0.5076  0.2949  0.4125
12108TIP3    H157815   2.052   4.390   0.223 -0.0788  0.1941  1.6356
12108TIP3    H257816   2.112   4.500   0.307 -1.0792  1.8392  0.2225
12109TIP3   OH257817   1.878   1.689  16.058  0.6494 -0.4933  0.2762
12109TIP3    H157818   1.907   1.624  15.994  0.9875 -0.7853  0.7185
12109TIP3    H257819   1.959   1.717  16.101  0.6452  1.1394 -0.7668
12110TIP3   OH257820   5.385   0.385  10.844  0.0798 -0.0758 -0.1613
12110TIP3    H157821   5.300   0.421  10.818  0.0140 -0.5608 -0.6264
12110TIP3    H257822   5.363   0.301  10.886  0.2884  0.0556  0.2112
12111TIP3   OH257823   2.927   1.187  16.916 -0.4418  0.4693  0.1463
12111TIP3    H157824   3.018   1.182  16.946 -0.5781 -0.6574  0.3804
12111TIP3    H257825   2.888   1.104  16.942 -1.9616  1.5419  1.3719
12112TIP3   OH257826   5.895   5.236  15.586  0.0987  0.5393  0.2601
12112TIP3    H157827   5.906   5.179  15.662  0.3210  1.0281  0.5993
12112TIP3    H257828   5.853   5.315  15.620  0.5790  0.9337 -0.0418
12113TIP3   OH257829   0.349   6.176  14.525  0.4751  0.1819  0.5981
12113TIP3    H157830   0.265   6.140  14.499 -0.2100 -0.0094  2.9744
12113TIP3    H257831   0.366   6.246  14.461 -1.5003  0.2723  0.1446
12114TIP3   OH257832   1.427   3.702  10.412  0.3117  0.6882  0.1583
12114TIP3    H157833   1.347   3.752  10.400  1.2768  2.0448 -0.6975
12114TIP3    H257834   1.411   3.650  10.490 -2.3565 -0.9449 -1.3954
12115TIP3   OH257835   6.235   0.149   3.600  0.0287  0.1061 -0.2402
12115TIP3    H157836   6.178   0.193   3.664  1.5955  3.0508 -0.7789
12115TIP3    H257837   6.203   0.180   3.515  0.8989 -0.1277 -0.6537
12116TIP3   OH257838   3.505   0.801  17.042  0.1289  0.4510  0.5301
12116TIP3    H157839   3.536   0.710  17.043  0.2403  0.4847  0.0362
12116TIP3    H257840   3.416   0.796  17.078  0.5592  0.3051  1.5776
12117TIP3   OH257841   5.084   4.481  16.709 -0.1183 -0.5882 -0.1857
12117TIP3    H157842   5.149   4.416  16.684  0.3587 -0.3544  0.4126
12117TIP3    H257843   5.005   4.456  16.662  0.4056 -0.8741 -0.9243
12118TIP3   OH257844   5.159   2.863   1.411  0.2378 -0.1440  0.2729
12118TIP3    H157845   5.138   2.923   1.482  3.2574 -1.3753  2.2869
12118TIP3    H257846   5.221   2.801   1.449  2.1871 -0.6718 -3.5241
12119TIP3   OH257847   2.942   6.463   1.631  0.2960  0.0929  0.0551
12119TIP3    H157848   2.885   6.540   1.625  0.5059  0.1091 -2.1396
12119TIP3    H257849   2.909   6.403   1.564  1.8491 -0.5753 -0.1256
12120TIP3   OH257850   0.560   1.311   4.656 -0.0710 -0.7227  0.3141
12120TIP3    H157851   0.610   1.322   4.738  1.0282 -3.3898  0.0599
12120TIP3    H257852   0.542   1.217   4.652 -0.6675 -0.5265 -2.2155
12121TIP3   OH257853   4.022   3.753   4.147  0.4290  0.1879 -0.0352
12121TIP3    H157854   3.999   3.667   4.112  0.1574 -0.5806  1.9738
12121TIP3    H257855   4.113   3.767   4.118  0.1485 -0.3171 -1.1968
12122TIP3   OH257856   4.268   0.578  16.499  0.1080  0.2607 -0.0684
12122TIP3    H157857   4.201   0.578  16.430 -0.0455 -0.2244  0.0765
12122TIP3    H257858   4.349   0.604  16.454  0.0168 -0.0845 -0.4396
12123TIP3   OH257859   5.842   3.309   4.407  0.9678 -0.4388 -0.1511
12123TIP3    H157860   5.763   3.329   4.357  0.5742  0.0964  0.6838
12123TIP3    H257861   5.876   3.395   4.434  0.4037 -0.7864  1.7060
12124TIP3   OH257862   3.565   4.959   5.949 -0.1042  0.0960 -0.2663
12124TIP3    H157863   3.514   4.976   5.870  0.6973  0.0805 -0.7839
12124TIP3    H257864   3.627   4.890   5.925  0.3736  0.3274  0.2714
12125TIP3   OH257865   2.379   2.155   0.601  0.8655  0.4957  0.4228
12125TIP3    H157866   2.288   2.183   0.597  1.0384  1.2489  1.5458
12125TIP3    H257867   2.401   2.155   0.694  1.4175 -1.6619  0.3141
12126TIP3   OH257868   0.238   2.715  13.890 -0.2170 -0.0873 -1.2705
12126TIP3    H157869   0.261   2.740  13.979 -0.1635 -1.0422 -1.0117
12126TIP3    H257870   0.271   2.787  13.835 -0.6793  0.7282 -0.4832
12127TIP3   OH257871   3.996   0.916   0.248  0.3499  0.1798 -0.1319
12127TIP3    H157872   3.910   0.881   0.225  0.3847  0.2810 -0.4271
12127TIP3    H257873   4.042   0.922   0.164  1.4880 -2.0806  0.3025
12128TIP3   OH257874   1.695   6.599  15.539  0.6722 -0.1201 -0.4355
12128TIP3    H157875   1.783   6.634  15.553  0.1296  1.2682 -0.4678
12128TIP3    H257876   1.703   6.506  15.559  1.5730  0.4557  2.0701
12129TIP3   OH257877   4.376   1.207  12.148 -0.3256  0.1630  0.0175
12129TIP3    H157878   4.470   1.219  12.162 -0.6104 -0.8984  3.3371
12129TIP3    H257879   4.346   1.291  12.114  1.7392  0.6621 -0.6683
12130TIP3   OH257880   3.851   2.454   1.450 -0.3084  0.3234 -0.0522
12130TIP3    H157881   3.761   2.473   1.477 -0.8434 -2.6573  0.4749
12130TIP3    H257882   3.900   2.449   1.532 -0.0994 -0.0442 -0.1978
12131TIP3   OH257883   2.153   4.896  14.629  0.3579 -0.0299  0.2814
12131TIP3    H157884   2.085   4.840  14.667  0.8989 -0.6134  0.4077
12131TIP3    H257885   2.228   4.838  14.617  0.6038  0.4477 -0.5184
12132TIP3   OH257886   1.191   0.609  13.365  0.1237 -0.4703 -0.2606
12132TIP3    H157887   1.282   0.613  13.334  0.5454  1.4447  1.1111
12132TIP3    H257888   1.145   0.674  13.312  0.0330  0.0979  0.5063
12133TIP3   OH257889   3.838   5.631  12.179  0.4264  0.2299  0.3355
12133TIP3    H157890   3.817   5.724  12.172 -2.4366 -0.4675 -1.6756
12133TIP3    H257891   3.923   5.622  12.137  0.4402  1.8728 -0.0182
12134TIP3   OH257892   5.311   5.283   5.594 -0.2895  0.4794 -0.5595
12134TIP3    H157893   5.304   5.365   5.544 -1.4674  0.3473 -0.6236
12134TIP3    H257894   5.279   5.306   5.681  2.1519  0.8092  0.2649
12135TIP3   OH257895   3.453   0.762   0.158 -0.4241  0.3118  0.5138
12135TIP3    H157896   3.408   0.841   0.185 -0.9503  0.0570  0.3828
12135TIP3    H257897   3.422   0.694   0.218 -2.0575 -0.3922 -1.0877
12136TIP3   OH257898   4.312   4.475  14.489  0.5670  0.9764 -0.0476
12136TIP3    H157899   4.334   4.392  14.531  1.3648  1.1568 -0.1028
12136TIP3    H257900   4.359   4.541  14.541  0.4170  1.3341 -0.3690
12137TIP3   OH257901   6.218   3.765  14.577 -0.0893 -0.4869  0.4839
12137TIP3    H157902   6.143   3.825  14.575 -0.4139 -0.9207 -1.6851
12137TIP3    H257903   6.183   3.683  14.611 -0.1016 -0.0426  1.5462
12138TIP3   OH257904   2.582   1.041  16.064 -0.5473 -0.5327 -0.0524
12138TIP3    H157905   2.644   1.026  16.135 -0.1536 -0.3649 -0.3555
12138TIP3    H257906   2.608   0.978  15.996  0.7663  1.0933 -1.1070
12139TIP3   OH257907   6.485   5.364  15.107  0.5965 -0.3224  0.2583
12139TIP3    H157908   6.527   5.405  15.182 -0.3142 -1.5527  1.4458
12139TIP3    H257909   6.422   5.430  15.076  2.1865  0.8820 -0.5464
12140TIP3   OH257910   1.053   5.113  12.944  0.1759 -0.0524  0.3706
12140TIP3    H157911   1.064   5.029  12.988  2.0209  0.4146  0.8484
12140TIP3    H257912   0.975   5.102  12.889 -1.1182 -1.2328  2.3747
12141TIP3   OH257913   2.926   3.886  15.906 -0.3043  0.1265  0.2866
12141TIP3    H157914   2.946   3.826  15.835 -1.0396 -1.2324  1.2088
12141TIP3    H257915   3.009   3.932  15.922 -0.2767  0.8153 -1.7699
12142TIP3   OH257916   1.668   1.026   4.379  1.2437  1.2925  0.1577
12142TIP3    H157917   1.632   1.076   4.306  0.2997 -0.4519 -0.6144
12142TIP3    H257918   1.592   0.979   4.415  2.3277 -0.6922 -0.0751
12143TIP3   OH257919   5.662   4.823   4.702 -0.4767  0.5175 -0.2834
12143TIP3    H157920   5.634   4.905   4.661  0.9215  1.1640  0.0056
12143TIP3    H257921   5.747   4.804   4.661 -0.4829 -0.4344  0.1309
12144TIP3   OH257922   3.009   0.549   2.300 -0.7867 -0.2943  0.1169
12144TIP3    H157923   3.045   0.496   2.229  0.1663 -1.1281  1.1927
12144TIP3    H257924   3.081   0.555   2.364 -1.7845  0.0370  1.2299
12145TIP3   OH257925   5.498   3.944  16.910 -0.2785 -0.2266 -0.0069
12145TIP3    H157926   5.589   3.942  16.936  0.0295 -0.5231 -1.0746
12145TIP3    H257927   5.497   3.907  16.822 -0.7679  3.9184 -1.8692
12146TIP3   OH257928   0.096   4.108   0.755  0.6065 -0.1687  0.0032
12146TIP3    H157929   0.178   4.124   0.707  0.6610 -0.7115 -0.0864
12146TIP3    H257930   0.088   4.012   0.758  0.2505 -0.1244  0.4840
12147TIP3   OH257931   1.138   1.864  16.235  0.0897  0.1879  0.1394
12147TIP3    H157932   1.089   1.783  16.252 -1.3836  1.0558  0.1325
12147TIP3    H257933   1.128   1.878  16.141 -1.9415  1.7910  0.5645
12148TIP3   OH257934   3.791   5.225   1.112  0.1075  1.0080  0.0690
12148TIP3    H157935   3.830   5.139   1.100  0.2795  0.9714  0.8552
12148TIP3    H257936   3.728   5.234   1.040 -0.0279  0.1587  0.0829
12149TIP3   OH257937   0.648   1.599   5.360  0.7260  0.5908  0.3792
12149TIP3    H157938   0.578   1.555   5.408  0.3403  1.6373  0.7943
12149TIP3    H257939   0.621   1.691   5.357  1.0803  0.6634 -1.2533
12150TIP3   OH257940   4.253   3.240  14.593  0.0769 -0.1593  0.6053
12150TIP3    H157941   4.330   3.183  14.585  0.9523  1.2180 -1.5172
12150TIP3    H257942   4.277   3.302  14.662  1.2883  0.8299 -0.6689
12151TIP3   OH257943   0.292   1.265   1.806  0.0314 -0.2594  0.3797
12151TIP3    H157944   0.325   1.322   1.736 -0.1369 -0.9836 -0.2879
12151TIP3    H257945   0.281   1.324   1.881  1.9946  0.1854  0.3632
12152TIP3   OH257946   2.346   2.562   3.434  0.3460 -0.4745 -0.2422
12152TIP3    H157947   2.396   2.622   3.490 -2.1919  1.9797 -0.5025
12152TIP3    H257948   2.308   2.498   3.495  1.5973 -0.7895  0.2380
12153TIP3   OH257949   5.867   4.863   4.497 -0.1576  0.5600 -0.4287
12153TIP3    H157950   5.938   4.887   4.557  1.2925 -0.7221 -1.5926
12153TIP3    H257951   5.835   4.946   4.462 -0.3398  1.2537  1.3365
12154TIP3   OH257952   1.992   3.898  14.897  0.3651  0.3035 -0.2099
12154TIP3    H157953   2.006   3.843  14.974 -3.3226  0.8135  0.9169
12154TIP3    H257954   1.904   3.877  14.868  0.0450  3.3541 -1.6361
12155TIP3   OH257955   4.605   5.868   0.112 -0.4105 -0.6702  0.0608
12155TIP3    H157956   4.561   5.935   0.059 -1.0317  0.6070  2.1323
12155TIP3    H257957   4.673   5.917   0.159  0.6431 -1.9308 -0.1403
12156TIP3   OH257958   2.318   0.785   1.644  0.1605  0.7143  0.1305
12156TIP3    H157959   2.306   0.765   1.551 -0.0596 -2.0732  0.7066
12156TIP3    H257960   2.411   0.810   1.650 -0.0933  2.0182 -0.9914
12157TIP3   OH257961   2.439   0.641  17.256  0.2724  0.7940 -0.4957
12157TIP3    H157962   2.458   0.632  17.350  0.9022  0.9675 -0.6039
12157TIP3    H257963   2.361   0.696  17.252 -0.8067 -0.6492 -0.0036
12158TIP3   OH257964   1.720   0.854  12.221 -0.2619 -0.8427  0.0978
12158TIP3    H157965   1.815   0.842  12.228 -0.0070  0.1488 -1.4735
12158TIP3    H257966   1.703   0.856  12.127 -1.5019  1.7364  0.3511
12159TIP3   OH257967   4.387   1.002   1.475  0.1205 -0.0003  0.1451
12159TIP3    H157968   4.349   1.084   1.444  0.0695 -0.5711 -1.3161
12159TIP3    H257969   4.314   0.940   1.473  0.8076 -0.7679 -1.3934
12160TIP3   OH257970   4.221   0.495  13.393 -0.0488  0.4014 -0.2830
12160TIP3    H157971   4.172   0.419  13.362 -1.0104  0.0177  2.1254
12160TIP3    H257972   4.267   0.526  13.315 -1.1571 -1.4771 -1.7406
12161TIP3   OH257973   0.188   2.477  12.962  0.2333  0.1501  0.4679
12161TIP3    H157974   0.158   2.539  12.896 -0.9976 -0.1691  0.7201
12161TIP3    H257975   0.283   2.472  12.948 -0.1673 -1.0944 -2.3079
12162TIP3   OH257976   2.470   5.293  16.630  0.1078  0.0662 -0.3954
12162TIP3    H157977   2.394   5.349  16.612  0.4338  0.4200 -0.6895
12162TIP3    H257978   2.525   5.346  16.688  0.2344 -0.1003 -0.3684
12163TIP3   OH257979   1.637   2.967   4.114 -0.4708  0.0670 -0.0648
12163TIP3    H157980   1.571   2.965   4.044  0.2657 -0.5240 -0.7542
12163TIP3    H257981   1.608   3.037   4.172 -0.4501  1.4053 -1.6218
12164TIP3   OH257982   2.008   1.732  14.947  0.2332  1.0402  0.2393
12164TIP3    H157983   1.968   1.808  14.905  1.1208  0.5258 -1.5954
12164TIP3    H257984   2.002   1.750  15.041 -1.3253  2.4640 -0.1153
12165TIP3   OH257985   0.635   6.667  12.945 -0.4431 -0.4191 -0.0092
12165TIP3    H157986   0.690   6.693  12.871  1.5897  2.8794  2.5289
12165TIP3    H257987   0.691   6.612  12.999 -1.2012 -0.9878  0.2051
12166TIP3   OH257988   3.200   6.597  12.878 -0.2446  0.6462 -0.8671
12166TIP3    H157989   3.216   6.691  12.886 -0.2089  0.7677 -2.1673
12166TIP3    H257990   3.145   6.576  12.953  0.6062  1.4991  0.0206
12167TIP3   OH257991   3.351   0.617   0.358 -0.1783 -0.2022 -0.0391
12167TIP3    H157992   3.429   0.584   0.402 -0.4173  1.2272  1.4864
12167TIP3    H257993   3.281   0.607   0.423 -0.1333  3.9378  0.7799
12168TIP3   OH257994   1.387   5.868   2.421 -0.1823 -0.0701 -0.0544
12168TIP3    H157995   1.399   5.953   2.464 -1.9396 -0.2138  0.7301
12168TIP3    H257996   1.430   5.805   2.479  1.1483  0.2718 -0.6519
12169TIP3   OH257997   4.877   1.739   1.495  0.5910  0.1630  0.0025
12169TIP3    H157998   4.862   1.797   1.421  1.7078  0.0535 -0.3276
12169TIP3    H257999   4.790   1.707   1.520 -0.0655  2.1420  0.3383
12170TIP3   OH258000   3.199   2.200   3.445 -0.1614 -0.4554 -0.6475
12170TIP3    H158001   3.127   2.244   3.400 -0.1100  1.2586  0.9071
12170TIP3    H258002   3.211   2.119   3.396 -0.9366  0.7678 -2.9588
12171TIP3   OH258003   2.348   2.716  13.606  0.4953  0.5697  0.0637
12171TIP3    H158004   2.362   2.645  13.543 -2.4001  1.0626 -1.1772
12171TIP3    H258005   2.353   2.672  13.692 -1.3090 -1.1611 -0.6783
12172TIP3   OH258006   3.540   0.201  13.360 -0.0092 -0.4341 -0.0150
12172TIP3    H158007   3.558   0.161  13.445  1.4685  0.5612  0.1661
12172TIP3    H258008   3.475   0.269  13.380 -0.1787 -0.6626  0.2146
12173TIP3   OH258009   2.763   0.495   2.088 -0.4810  0.2973 -0.1387
12173TIP3    H158010   2.834   0.475   2.149 -0.0668  0.0522 -0.6867
12173TIP3    H258011   2.723   0.410   2.069 -0.1463  0.2747 -0.7584
12174TIP3   OH258012   6.214   4.567   4.520  0.4235  0.1831 -0.0762
12174TIP3    H158013   6.174   4.620   4.589  1.2470 -0.6468  1.0280
12174TIP3    H258014   6.173   4.600   4.439  0.8038  2.3999  0.6052
12175TIP3   OH258015   2.947   5.166  16.366  0.0563 -0.1135  0.2010
12175TIP3    H158016   2.861   5.201  16.390  0.5883  0.9421  0.6051
12175TIP3    H258017   2.948   5.168  16.270 -0.5557 -0.6044  0.1812
12176TIP3   OH258018   0.985   6.220   0.950 -0.1240 -0.5691 -0.1427
12176TIP3    H158019   0.955   6.135   0.918  1.4197 -0.3712 -2.1786
12176TIP3    H258020   0.907   6.275   0.948 -0.7396 -1.4339 -0.5017
12177TIP3   OH258021   0.676   1.643  11.325 -0.5949  0.1940  0.5952
12177TIP3    H158022   0.647   1.709  11.262  0.6330 -1.2343 -1.5217
12177TIP3    H258023   0.617   1.569  11.313  2.0259 -1.6036 -1.7106
12178TIP3   OH258024   1.581   3.701   2.944 -0.0300 -0.2144 -0.7762
12178TIP3    H158025   1.525   3.772   2.913 -0.7352 -0.9334 -1.1645
12178TIP3    H258026   1.521   3.637   2.981  0.6555 -0.2925  0.2348
12179TIP3   OH258027   4.027   2.831  15.001 -0.2238  0.2578 -0.2333
12179TIP3    H158028   3.987   2.820  14.915 -1.4386 -0.2863  0.3963
12179TIP3    H258029   3.984   2.767  15.057  0.3738  0.7732  0.8514
12180TIP3   OH258030   0.120   5.106  15.357  0.0461  0.1504  0.0942
12180TIP3    H158031   0.146   5.127  15.267  1.5260  0.8961  0.6903
12180TIP3    H258032   0.193   5.054  15.391 -0.8104 -0.6872  0.6590
12181TIP3   OH258033   6.760   4.667  13.137 -0.0223 -0.1604  0.1923
12181TIP3    H158034   6.753   4.752  13.093  1.2275 -0.5512 -0.7991
12181TIP3    H258035   6.701   4.610  13.088  1.6170 -0.6797 -1.2300
12182TIP3   OH258036   6.203   2.734  13.726  0.8090  0.2518  0.2615
12182TIP3    H158037   6.265   2.805  13.746  0.3467  0.9359 -0.6882
12182TIP3    H258038   6.214   2.718  13.632 -0.0373 -0.0099  0.2000
12183TIP3   OH258039   4.221   3.625   3.102  1.0365 -0.3754 -0.1807
12183TIP3    H158040   4.167   3.701   3.121  1.2632 -0.1517 -0.4103
12183TIP3    H258041   4.172   3.550   3.137  0.7050 -0.1494 -0.1604
12184TIP3   OH258042   3.175   3.389  12.912 -0.1680  0.1431  0.3597
12184TIP3    H158043   3.145   3.469  12.867  1.3279  1.9051  2.4248
12184TIP3    H258044   3.098   3.359  12.960 -0.4771  0.9100  0.3532
12185TIP3   OH258045   3.390   4.406  14.265 -0.0069 -0.1163  0.2772
12185TIP3    H158046   3.464   4.453  14.225  0.7496  0.4755  2.3306
12185TIP3    H258047   3.420   4.315  14.271 -0.8562 -0.6065 -2.2047
12186TIP3   OH258048   3.208   6.769   6.772 -0.2589 -0.0194 -0.1114
12186TIP3    H158049   3.152   6.779   6.848  1.3186 -1.1358  1.2324
12186TIP3    H258050   3.164   6.818   6.702 -0.9526  2.3020  1.8967
12187TIP3   OH258051   2.899   6.561   3.816  0.3733 -0.1136 -0.3623
12187TIP3    H158052   2.966   6.534   3.755  0.5248  2.0935 -1.2186
12187TIP3    H258053   2.820   6.570   3.763 -0.5655 -2.3116  0.5642
12188TIP3   OH258054   5.812   2.616  13.857  0.7995 -0.0092 -0.3334
12188TIP3    H158055   5.810   2.666  13.776  0.4800 -1.7841 -1.4434
12188TIP3    H258056   5.864   2.670  13.917  0.6780  1.5159 -1.5663
12189TIP3   OH258057   5.286   2.462   5.500 -0.0658 -0.6614  0.5328
12189TIP3    H158058   5.245   2.408   5.568 -1.8935 -0.5390 -0.4172
12189TIP3    H258059   5.282   2.407   5.421 -2.6918  1.0749 -0.6349
12190TIP3   OH258060   3.337   1.086  15.807 -0.2854 -0.0769 -0.0319
12190TIP3    H158061   3.334   0.993  15.828  2.8364 -0.6750 -2.0220
12190TIP3    H258062   3.324   1.130  15.892 -0.6348 -2.2782  1.0986
12191TIP3   OH258063   5.603   4.745   0.444  1.1228 -0.2036 -0.0105
12191TIP3    H158064   5.610   4.650   0.444 -2.4494 -0.5404  0.7455
12191TIP3    H258065   5.569   4.767   0.531 -1.7692  1.3715 -1.4569
12192TIP3   OH258066   0.954   4.994   4.276 -0.1613  0.1320  0.5318
12192TIP3    H158067   0.928   5.083   4.250 -0.1735 -0.2337 -0.7041
12192TIP3    H258068   1.047   4.989   4.253  0.3739  0.5213  2.5057
12193TIP3   OH258069   2.101   1.497  12.587 -0.2477  0.5381  0.5451
12193TIP3    H158070   2.060   1.450  12.514  0.3586 -0.1380  0.6242
12193TIP3    H258071   2.031   1.551  12.624 -0.1778  2.0756 -1.4972
12194TIP3   OH258072   3.884   4.709  14.674  0.2510  0.5850 -0.3778
12194TIP3    H158073   3.909   4.694  14.583 -0.0886 -0.2300 -0.3410
12194TIP3    H258074   3.819   4.642  14.692  1.1901 -0.0114  0.8371
12195TIP3   OH258075   6.087   2.420  13.711 -0.1392  0.4460 -0.4684
12195TIP3    H158076   6.036   2.476  13.652 -1.5552  0.1359  0.4373
12195TIP3    H258077   6.112   2.477  13.783  1.5495  0.8115 -1.3186
12196TIP3   OH258078   5.965   1.716   3.640  0.5081 -0.5473  0.7233
12196TIP3    H158079   5.980   1.740   3.548  1.0382  0.1571  0.9913
12196TIP3    H258080   5.932   1.796   3.680  1.1838 -0.5909  1.3655
12197TIP3   OH258081   2.033   5.105  13.372 -0.1631 -0.3843  0.7930
12197TIP3    H158082   2.060   5.194  13.350 -0.0680 -0.3933  0.8759
12197TIP3    H258083   1.947   5.095  13.330 -0.1637 -0.2612  0.7659
12198TIP3   OH258084   3.070   6.030   3.329  0.0154  0.1587 -0.1318
12198TIP3    H158085   3.016   6.102   3.298 -0.0541 -0.2215 -0.9159
12198TIP3    H258086   3.043   6.017   3.420 -0.9297  0.2424 -0.3905
12199TIP3   OH258087   4.823   5.441   1.809 -0.7412 -0.6144  0.4212
12199TIP3    H158088   4.847   5.385   1.883  0.0717 -1.4772 -0.4773
12199TIP3    H258089   4.792   5.522   1.850  0.6073 -0.7109  1.6881
12200TIP3   OH258090   0.836   5.795  15.238 -0.6397 -0.6255  0.0587
12200TIP3    H158091   0.865   5.722  15.183  1.5887  0.4372 -0.2305
12200TIP3    H258092   0.907   5.807  15.300 -0.8467  1.4999 -0.0884
12201TIP3   OH258093   3.137   5.387   1.035  0.2152  0.0468  0.0515
12201TIP3    H158094   3.201   5.457   1.020  1.6400 -0.6272  2.7017
12201TIP3    H258095   3.150   5.326   0.962  0.6634  1.2855 -0.9273
12202TIP3   OH258096   1.985   6.398  13.705  0.3022  0.1042  0.1713
12202TIP3    H158097   1.955   6.481  13.668  1.8292  1.1218  1.1645
12202TIP3    H258098   2.079   6.396  13.687 -0.0298 -2.2657 -1.4528
12203TIP3   OH258099   4.884   1.514  12.328  0.6415 -0.2682 -0.1489
12203TIP3    H158100   4.794   1.488  12.346  0.2603  0.3799 -1.0519
12203TIP3    H258101   4.900   1.588  12.385  0.3910 -0.0003 -0.4234
12204TIP3   OH258102   4.724   5.341   4.981  0.4068 -0.4469  0.3283
12204TIP3    H158103   4.779   5.413   4.949 -0.2593 -0.1444 -0.1648
12204TIP3    H258104   4.685   5.304   4.901 -1.0028  0.0845  0.7529
12205TIP3   OH258105   5.024   5.741  12.797  0.1673 -0.2211 -0.0856
12205TIP3    H158106   5.048   5.720  12.888  0.2896 -0.4503 -0.1686
12205TIP3    H258107   4.932   5.766  12.802  0.3619  0.4464  0.2067
12206TIP3   OH258108   1.372   3.788   4.716 -0.0815  0.4208 -0.6588
12206TIP3    H158109   1.380   3.693   4.706  0.5242  0.3957  0.0196
12206TIP3    H258110   1.430   3.809   4.789  0.6798  1.4779 -1.5626
12207TIP3   OH258111   3.559   5.327   3.109 -0.5482  0.2946  0.2575
12207TIP3    H158112   3.578   5.414   3.074  2.3036  0.8149  2.9584
12207TIP3    H258113   3.644   5.288   3.125 -1.7630 -1.3458  3.0958
12208TIP3   OH258114   1.880   5.336  15.701 -0.0180 -0.2411  0.0447
12208TIP3    H158115   1.820   5.354  15.628 -0.3737 -0.2169  0.3403
12208TIP3    H258116   1.956   5.295  15.660  0.3197  0.9197 -0.4993
12209TIP3   OH258117   1.668   2.102   3.167  0.3669 -0.4941 -0.3706
12209TIP3    H158118   1.613   2.138   3.098  0.8977 -0.9090 -1.0173
12209TIP3    H258119   1.608   2.053   3.223  0.2674 -2.1169 -1.8581
12210TIP3   OH258120   4.766   2.363   4.219  0.5450  0.3960  0.6900
12210TIP3    H158121   4.687   2.311   4.205  0.3091  0.5872  1.2954
12210TIP3    H258122   4.734   2.453   4.229  0.9425  0.6507 -0.2579
12211TIP3   OH258123   0.681   4.291  11.199  0.2282  0.1591 -0.2356
12211TIP3    H158124   0.740   4.251  11.136 -1.0513 -1.4763 -0.4210
12211TIP3    H258125   0.728   4.288  11.282  0.9519  0.1239 -0.6418
12212TIP3   OH258126   0.627   0.376   4.657 -0.3262 -0.5807  0.2266
12212TIP3    H158127   0.660   0.434   4.726 -1.1102 -0.5249  0.5508
12212TIP3    H258128   0.609   0.293   4.701 -1.0796 -0.4629  0.1457
12213TIP3   OH258129   1.372   1.363  13.681 -0.5963 -0.4763 -0.5369
12213TIP3    H158130   1.461   1.367  13.716 -0.3527  0.5071 -1.2710
12213TIP3    H258131   1.317   1.394  13.753 -0.3298 -0.8789 -0.1581
12214TIP3   OH258132   5.815   0.149   2.619 -0.3081 -0.2463 -0.3300
12214TIP3    H158133   5.865   0.220   2.579 -1.5619 -0.6151 -2.6641
12214TIP3    H258134   5.783   0.186   2.701  1.3925  0.9393 -0.1849
12215TIP3   OH258135   2.024   4.377  15.866  0.2302  0.2101  0.4290
12215TIP3    H158136   1.931   4.367  15.884  0.1763  0.6334  0.4027
12215TIP3    H258137   2.042   4.312  15.797 -0.4670  1.4251 -0.9413
12216TIP3   OH258138   2.903   2.646  15.905 -0.0073 -0.3514  0.1941
12216TIP3    H158139   2.863   2.714  15.851 -0.9695 -1.3764 -0.3918
12216TIP3    H258140   2.984   2.686  15.937  1.4436 -0.2885 -3.3404
12217TIP3   OH258141   2.586   2.682  12.996  0.9630  0.4549 -0.1330
12217TIP3    H158142   2.611   2.694  12.905  0.0686  1.9066 -0.1971
12217TIP3    H258143   2.619   2.760  13.041  1.2797 -0.1833  0.7631
12218TIP3   OH258144   3.751   5.042   2.378 -0.2092 -0.1180 -0.9918
12218TIP3    H158145   3.660   5.067   2.365 -0.8156 -1.5416  0.2691
12218TIP3    H258146   3.766   4.974   2.312  0.0100  0.2524 -1.3274
12219TIP3   OH258147   4.179   4.504   4.990 -0.0547 -0.2488  0.5454
12219TIP3    H158148   4.181   4.551   4.907 -0.7559 -1.8801 -0.4104
12219TIP3    H258149   4.231   4.426   4.975  2.1820  0.7777  2.5181
12220TIP3   OH258150   0.829   6.159  13.320  0.3210  0.0347  0.0871
12220TIP3    H158151   0.777   6.137  13.397  0.4537  3.0027  1.0811
12220TIP3    H258152   0.767   6.202  13.261  0.1242 -2.5770 -1.7038
12221TIP3   OH258153   1.958   1.517  13.480 -1.0227  0.7737 -0.0333
12221TIP3    H158154   2.013   1.590  13.508 -1.1594  0.9881 -0.3271
12221TIP3    H258155   1.909   1.550  13.405 -2.0778  0.8129  0.6595
12222TIP3   OH258156   1.068   5.294   2.903  0.0534 -0.0384 -0.3481
12222TIP3    H158157   1.140   5.297   2.966  1.3622  1.1750 -1.8684
12222TIP3    H258158   0.991   5.271   2.956  1.4221 -0.6628  1.4026
12223TIP3   OH258159   1.382   0.470  11.207 -0.1374 -0.6183  0.7363
12223TIP3    H158160   1.453   0.475  11.143  1.2827  1.8363  2.4429
12223TIP3    H258161   1.303   0.461  11.154  1.2353 -1.4368 -1.2599
12224TIP3   OH258162   2.350   2.615  11.772  0.0270  0.0557  0.0255
12224TIP3    H158163   2.268   2.626  11.820  1.1145  0.7146  1.7803
12224TIP3    H258164   2.388   2.703  11.767  1.3842 -0.4776  0.6363
12225TIP3   OH258165   0.458   4.256   1.864 -0.3594  0.6678 -0.1662
12225TIP3    H158166   0.496   4.306   1.937 -1.4932  0.9996  0.2018
12225TIP3    H258167   0.405   4.189   1.906 -0.2776  0.2703 -0.6880
12226TIP3   OH258168   1.859   5.594  10.742  0.2884 -0.0798 -0.3110
12226TIP3    H158169   1.885   5.686  10.750 -0.6847  0.3188 -1.5466
12226TIP3    H258170   1.941   5.548  10.720  0.5589  0.6708 -0.8868
12227TIP3   OH258171   5.154   6.588   4.349 -0.4439 -0.1884  0.0273
12227TIP3    H158172   5.190   6.665   4.393 -0.3224  0.7048 -1.5585
12227TIP3    H258173   5.216   6.518   4.367 -0.6481  0.0297  1.6422
12228TIP3   OH258174   5.492   0.874  15.339  0.2723  0.1580  0.0369
12228TIP3    H158175   5.409   0.860  15.293 -0.4330 -0.2543  1.4209
12228TIP3    H258176   5.542   0.931  15.280 -0.3428 -0.9039 -1.5498
12229TIP3   OH258177   1.073   2.163  16.256 -0.0530  0.6626  0.1943
12229TIP3    H158178   1.112   2.079  16.278  1.4938  1.3613  0.1591
12229TIP3    H258179   1.021   2.145  16.178  0.3656 -0.2346  0.1137
12230TIP3   OH258180   1.449   5.114   0.432  0.7512  0.0353 -0.0488
12230TIP3    H158181   1.507   5.146   0.501 -0.5371 -0.4454  1.3051
12230TIP3    H258182   1.501   5.118   0.352  2.5515 -0.1553  1.0878
12231TIP3   OH258183   3.235   0.610   3.615  0.0362 -0.1583 -0.2987
12231TIP3    H158184   3.139   0.609   3.609  0.0650 -0.8486 -0.6950
12231TIP3    H258185   3.264   0.633   3.527  0.2688 -1.8165 -0.6757
12232TIP3   OH258186   5.625   6.518  14.936  0.3123 -0.4983 -0.3157
12232TIP3    H158187   5.660   6.564  15.012  0.9520 -0.1883 -0.7897
12232TIP3    H258188   5.534   6.500  14.959  0.1032  0.8237 -0.0266
12233TIP3   OH258189   1.687   2.439   3.808 -0.3051  0.7391 -0.0462
12233TIP3    H158190   1.757   2.475   3.862  0.4929  0.3856 -0.8292
12233TIP3    H258191   1.719   2.448   3.718 -0.3388 -1.3610 -0.3005
12234TIP3   OH258192   0.129   4.153  13.340 -0.1442  0.1046 -0.0735
12234TIP3    H158193   0.222   4.164  13.361 -0.5583  0.1397  1.7650
12234TIP3    H258194   0.112   4.219  13.273  0.8342  0.9982  0.5514
12235TIP3   OH258195   2.962   1.774   1.802  0.2881  0.4340 -1.0327
12235TIP3    H158196   3.032   1.833   1.775  0.1110  0.2336 -1.9332
12235TIP3    H258197   2.898   1.778   1.731 -0.2379 -0.0013 -0.5894
12236TIP3   OH258198   0.058   1.398  15.460 -0.1352  0.0217  0.1845
12236TIP3    H158199   0.106   1.318  15.483 -0.1818 -0.0694 -0.0305
12236TIP3    H258200   0.120   1.469  15.475 -1.1066  0.2287  3.4622
12237TIP3   OH258201   5.160   1.361   1.889  0.6294 -0.8775 -0.2611
12237TIP3    H158202   5.065   1.374   1.894  0.8454  0.5622  0.2637
12237TIP3    H258203   5.171   1.266   1.880 -0.9004 -0.9725 -1.3869
12238TIP3   OH258204   1.144   3.305  14.361  0.3518  0.2208 -0.3843
12238TIP3    H158205   1.110   3.276  14.446  5.3288 -0.0080  1.6885
12238TIP3    H258206   1.164   3.223  14.314 -0.6702  0.3556 -1.0714
12239TIP3   OH258207   0.095   3.354  15.974  0.3737 -0.2510 -0.2352
12239TIP3    H158208   0.076   3.282  16.035 -0.5935 -1.4266 -1.9109
12239TIP3    H258209   0.084   3.316  15.887  1.6588  1.4414 -1.1755
12240TIP3   OH258210   4.129   5.727   4.710 -0.0793  0.4706  0.3786
12240TIP3    H158211   4.101   5.810   4.672 -2.9553 -0.8523 -0.5859
12240TIP3    H258212   4.113   5.662   4.641  0.7417 -1.0740  1.5981
12241TIP3   OH258213   2.295   1.526   5.918  0.1746 -0.0774 -0.1156
12241TIP3    H158214   2.247   1.575   5.851  0.3090 -0.4194 -0.4623
12241TIP3    H258215   2.387   1.541   5.897  0.2755  2.3215  1.7955
12242TIP3   OH258216   4.506   2.790   3.998 -0.4018 -0.2788  0.2357
12242TIP3    H158217   4.430   2.844   3.974  0.2127  0.5400  0.1047
12242TIP3    H258218   4.581   2.841   3.968  0.2560 -0.4887  1.5320
12243TIP3   OH258219   1.980   4.896   0.921 -0.2640  0.4161  0.3071
12243TIP3    H158220   1.954   4.826   0.862  0.7043  0.5228 -0.2453
12243TIP3    H258221   1.988   4.854   1.006 -0.9400  0.1178  0.2281
12244TIP3   OH258222   1.239   2.269  13.005 -0.2362  0.3531  0.2846
12244TIP3    H158223   1.223   2.224  12.922 -0.5753  1.2131 -0.1284
12244TIP3    H258224   1.162   2.326  13.015  0.5888  1.4590  0.3689
12245TIP3   OH258225   0.264   4.956  12.876 -0.2656 -0.4972  0.2266
12245TIP3    H158226   0.354   4.925  12.864 -0.0639  0.3990 -0.6328
12245TIP3    H258227   0.269   5.021  12.946 -0.0143  0.5328 -0.7378
12246TIP3   OH258228   0.904   3.689  11.405  0.5554 -0.8970  0.3100
12246TIP3    H158229   0.994   3.691  11.437 -0.0829  1.3739  2.1702
12246TIP3    H258230   0.866   3.611  11.444  1.1325 -0.7217  1.2319
12247TIP3   OH258231   6.477   3.639   6.483 -0.2498  0.2123  0.1276
12247TIP3    H158232   6.499   3.695   6.408 -0.9554  2.3603  1.4743
12247TIP3    H258233   6.549   3.653   6.544 -0.8522  0.2865  0.8187
12248TIP3   OH258234   4.201   6.651  11.238 -0.4130 -0.3360  0.1095
12248TIP3    H158235   4.239   6.735  11.211  0.8177 -1.2041 -0.9494
12248TIP3    H258236   4.112   6.652  11.203  0.9637 -1.2042 -3.6681
12249TIP3   OH258237   1.262   3.752   3.569  0.8786 -0.4124 -0.6909
12249TIP3    H158238   1.247   3.825   3.628 -2.5355 -0.5143 -1.3236
12249TIP3    H258239   1.256   3.674   3.624  0.5161 -0.3641 -0.6555
12250TIP3   OH258240   0.957   3.238  14.570 -0.2509 -0.6027 -0.3066
12250TIP3    H158241   0.869   3.263  14.541 -0.2872 -1.3404 -0.8414
12250TIP3    H258242   0.942   3.173  14.638 -0.1213 -0.9032 -0.5616
12251TIP3   OH258243   6.708   4.229  16.803 -0.3980 -0.4536 -0.4916
12251TIP3    H158244   6.706   4.164  16.732  0.2031 -2.4424  1.2458
12251TIP3    H258245   6.795   4.219  16.841 -0.1375  1.7493 -0.4983
12252TIP3   OH258246   6.675   2.231  15.420  0.2131 -0.0288  0.7316
12252TIP3    H158247   6.654   2.138  15.410  1.6995 -0.3785  0.6974
12252TIP3    H258248   6.667   2.267  15.331 -1.3005  0.0878  0.9109
12253TIP3   OH258249   0.228   4.812   2.564  0.3201 -0.4909 -0.0227
12253TIP3    H158250   0.261   4.834   2.651  1.6110  2.0807 -1.0854
12253TIP3    H258251   0.301   4.834   2.505 -1.3399 -0.0077 -1.9502
12254TIP3   OH258252   4.490   2.090   5.143  0.2016  0.3985 -0.0678
12254TIP3    H158253   4.545   2.016   5.117  0.3830  0.5036  0.0167
12254TIP3    H258254   4.549   2.149   5.190  0.3370  1.1739 -1.1857
12255TIP3   OH258255   1.337   3.071  16.712 -0.4082  0.1008 -0.2553
12255TIP3    H158256   1.275   3.115  16.770  1.8877 -1.0247  3.1399
12255TIP3    H258257   1.401   3.138  16.689 -0.7342  0.2712 -0.6834
12256TIP3   OH258258   3.962   3.289  13.216  1.0050  0.7027 -0.3018
12256TIP3    H158259   3.945   3.298  13.122  0.9834  1.4559 -0.2300
12256TIP3    H258260   3.961   3.379  13.249  3.0248  0.6030  0.0818
12257TIP3   OH258261   5.952   4.180   5.509 -0.3249  0.0393  0.0841
12257TIP3    H158262   5.899   4.145   5.580 -2.5586 -0.2035 -1.6598
12257TIP3    H258263   5.952   4.111   5.443  0.7792  0.7160 -0.6437
12258TIP3   OH258264   0.923   0.185  15.773  0.7345 -0.1008 -0.1517
12258TIP3    H158265   0.994   0.188  15.709  0.7584  0.9560 -0.0851
12258TIP3    H258266   0.958   0.231  15.849 -0.1112  0.6171 -0.1993
12259TIP3   OH258267   1.501   0.506  11.775  0.0471  0.2666  0.8134
12259TIP3    H158268   1.554   0.516  11.695  0.6786 -1.4963  0.9896
12259TIP3    H258269   1.417   0.545  11.753  0.1606 -0.3475 -0.7948
12260TIP3   OH258270   0.599   2.316  14.269  0.9326 -0.6509 -0.1368
12260TIP3    H158271   0.591   2.252  14.198  0.4779 -0.7427 -0.0043
12260TIP3    H258272   0.692   2.315  14.292  1.2749  0.1070 -1.4008
12261TIP3   OH258273   1.491   5.188   1.322 -0.4693 -0.6173  0.2231
12261TIP3    H158274   1.525   5.188   1.233  0.0230 -1.6124  0.4023
12261TIP3    H258275   1.467   5.097   1.339 -0.4662 -0.4576  1.1452
12262TIP3   OH258276   3.088   1.792   0.806  0.2226  0.3474  0.0939
12262TIP3    H158277   3.084   1.803   0.901 -0.6964  0.5603  0.0310
12262TIP3    H258278   3.070   1.699   0.792 -0.5383  0.4973  0.0712
12263TIP3   OH258279   5.684   1.885  16.057 -0.1333 -0.3070 -0.3406
12263TIP3    H158280   5.589   1.877  16.065 -0.1668  0.5674  0.3250
12263TIP3    H258281   5.713   1.801  16.023 -1.1290 -0.6474 -0.3647
12264TIP3   OH258282   2.583   1.918   5.599 -0.5924  0.6208 -0.0635
12264TIP3    H158283   2.501   1.966   5.593 -0.4352  0.7745 -0.9616
12264TIP3    H258284   2.651   1.986   5.601 -0.3108  0.4151 -2.3322
12265TIP3   OH258285   2.481   2.249  15.283  0.0359  0.5939 -0.1193
12265TIP3    H158286   2.442   2.241  15.370  2.0415 -1.9835  0.6206
12265TIP3    H258287   2.435   2.183  15.231  0.8763  0.0616 -0.1980
12266TIP3   OH258288   5.832   2.428   4.320  0.0142 -0.4512 -0.1604
12266TIP3    H158289   5.786   2.367   4.378 -0.6514 -0.1983 -0.4162
12266TIP3    H258290   5.915   2.446   4.365 -0.9794  0.6487  1.2735
12267TIP3   OH258291   5.364   4.091  11.047  0.0244  0.3832 -1.0204
12267TIP3    H158292   5.444   4.080  11.099 -0.8437  1.2985  0.5596
12267TIP3    H258293   5.368   4.182  11.018 -1.5496  1.1699  1.0462
12268TIP3   OH258294   2.322   4.651   4.217 -0.1729 -0.7823  0.1762
12268TIP3    H158295   2.389   4.610   4.273  0.4272 -0.0366  0.0178
12268TIP3    H258296   2.316   4.593   4.141 -0.1771 -1.1977  0.4886
12269TIP3   OH258297   5.022   6.343   2.612 -0.3878 -0.9464 -0.0538
12269TIP3    H158298   5.074   6.340   2.692 -0.5972 -0.7301  0.0908
12269TIP3    H258299   4.950   6.282   2.628 -1.1546  0.0785  0.4335
12270TIP3   OH258300   3.658   5.378   2.466 -0.2858  0.1134  0.2646
12270TIP3    H158301   3.722   5.318   2.502  1.7558  1.3510 -1.1938
12270TIP3    H258302   3.591   5.322   2.426  0.1631 -1.1741  1.3027
12271TIP3   OH258303   6.650   5.648  12.260 -0.1262 -0.8435 -0.1311
12271TIP3    H158304   6.683   5.641  12.349  4.4764 -1.8994 -1.7499
12271TIP3    H258305   6.706   5.715  12.219 -0.2043 -2.4446 -2.9714
12272TIP3   OH258306   1.931   4.242   0.190 -0.4756 -0.1280 -0.2989
12272TIP3    H158307   1.969   4.253   0.103 -0.1493 -0.0022 -0.1432
12272TIP3    H258308   1.988   4.178   0.233  0.9201  1.7664  0.7323
12273TIP3   OH258309   5.157   4.117   5.549 -0.2595  0.2240  0.0410
12273TIP3    H158310   5.245   4.081   5.558 -0.8464 -1.8205 -1.8463
12273TIP3    H258311   5.102   4.057   5.600 -0.6365  1.1888  0.7785
12274TIP3   OH258312   6.779   3.030  17.046  0.1931  0.3970 -0.6118
12274TIP3    H158313   6.865   3.022  17.006  0.5530  2.3244 -0.2679
12274TIP3    H258314   6.781   3.114  17.091 -1.4337 -0.1210  0.4794
12275TIP3   OH258315   6.598   4.545   2.253  0.3943  0.3579  0.0860
12275TIP3    H158316   6.594   4.538   2.349 -0.4107  1.1124  0.1057
12275TIP3    H258317   6.623   4.457   2.224 -0.4008 -0.1509  0.9279
12276TIP3   OH258318   0.022   1.681  15.773  0.0999 -0.0102 -0.1788
12276TIP3    H158319   0.016   1.597  15.819  0.8709  0.4997  0.9099
12276TIP3    H258320  -0.038   1.738  15.820 -0.5821 -0.0124 -1.0509
12277TIP3   OH258321   4.564   3.906   4.632  0.0471  0.2083  0.2117
12277TIP3    H158322   4.569   3.815   4.604  1.4099  1.0750 -2.4892
12277TIP3    H258323   4.598   3.956   4.558 -2.5753  3.0853  0.8485
12278TIP3   OH258324   1.499   5.494  15.200 -0.3563 -0.3486 -0.4711
12278TIP3    H158325   1.425   5.461  15.149 -0.8399 -0.2000  0.1158
12278TIP3    H258326   1.471   5.582  15.227 -0.3531 -0.6480  0.5276
12279TIP3   OH258327   1.548   2.403   0.569  0.4181  1.2139 -0.1686
12279TIP3    H158328   1.610   2.443   0.508  0.8032 -0.3659 -0.8429
12279TIP3    H258329   1.463   2.413   0.526  0.2999  2.5691  0.3394
12280TIP3   OH258330   3.989   1.455   5.747 -0.3928 -0.0946  0.1403
12280TIP3    H158331   4.071   1.481   5.789  0.3767 -1.3639 -0.5305
12280TIP3    H258332   3.932   1.531   5.757  1.0980  1.0740 -0.0058
12281TIP3   OH258333   3.446   0.467  12.218 -0.6866 -0.2393 -0.5316
12281TIP3    H158334   3.407   0.553  12.227 -1.5353 -0.3760 -2.6900
12281TIP3    H258335   3.535   0.477  12.252 -1.3972  0.9777  1.0134
12282TIP3   OH258336   5.762   2.358  16.402 -0.2278 -0.1411 -0.4084
12282TIP3    H158337   5.805   2.349  16.487  0.0165 -1.7396 -0.6848
12282TIP3    H258338   5.823   2.410  16.349 -0.2220  0.5556  0.2722
12283TIP3   OH258339   0.743   5.653  14.317  0.5007  0.7031  0.2293
12283TIP3    H158340   0.809   5.692  14.260 -0.0899  0.0146 -0.9436
12283TIP3    H258341   0.717   5.573  14.272 -2.8673  2.1390 -0.5427
12284TIP3   OH258342   2.157   4.494  13.436  0.6767 -0.3265  0.2556
12284TIP3    H158343   2.218   4.567  13.428  0.2735 -0.0733 -0.5614
12284TIP3    H258344   2.164   4.447  13.353 -0.4276 -0.1440  0.0559
12285TIP3   OH258345   3.436   3.874  11.573  0.0826  0.1683 -0.5401
12285TIP3    H158346   3.417   3.847  11.483  1.4510 -1.4082 -0.3955
12285TIP3    H258347   3.350   3.887  11.614 -0.7894 -4.9936 -0.3857
12286TIP3   OH258348   2.917   0.660  13.767  0.0340 -0.4921  0.7362
12286TIP3    H158349   2.982   0.695  13.828 -0.1732  1.2284 -0.0096
12286TIP3    H258350   2.833   0.674  13.811 -0.0053 -0.6252  0.7046
12287TIP3   OH258351   4.908   4.886   4.012  0.1317  0.5093  0.7439
12287TIP3    H158352   4.819   4.911   4.037  0.6800  0.8038  2.5032
12287TIP3    H258353   4.925   4.808   4.064  0.8056  0.2905  0.1937
12288TIP3   OH258354   5.667   1.336   4.668  0.0333  0.5132 -0.4666
12288TIP3    H158355   5.657   1.420   4.624  0.2427  0.8281  0.0780
12288TIP3    H258356   5.578   1.311   4.694  0.2848  1.9918  1.9615
12289TIP3   OH258357   4.408   4.788  12.994  0.5029 -0.2686 -0.1204
12289TIP3    H158358   4.312   4.788  13.004  0.3601  0.2419 -1.3465
12289TIP3    H258359   4.427   4.710  12.943  0.6182  0.1836 -0.7859
12290TIP3   OH258360   4.896   4.259   5.674 -0.0608  0.2457 -0.8458
12290TIP3    H158361   4.986   4.226   5.668 -1.2579 -3.4802  0.5404
12290TIP3    H258362   4.882   4.273   5.768 -0.8106  1.1880 -1.0901
12291TIP3   OH258363   1.586   3.198  12.732  0.0461 -0.1294  0.0571
12291TIP3    H158364   1.604   3.104  12.721 -1.3875 -0.5044  0.8124
12291TIP3    H258365   1.617   3.217  12.821 -1.5129 -0.3636  0.6723
12292TIP3   OH258366   0.485   0.356  16.021  0.2859 -0.3318 -0.0172
12292TIP3    H158367   0.476   0.295  15.948  1.3942  0.2437 -0.6454
12292TIP3    H258368   0.477   0.443  15.982 -0.6139 -0.0363  0.7779
12293TIP3   OH258369   6.333   0.545   5.884 -0.0239 -0.2192  0.5960
12293TIP3    H158370   6.281   0.522   5.808 -0.2930  0.2165  0.6422
12293TIP3    H258371   6.330   0.468   5.940 -0.1501 -0.3995  0.3389
12294TIP3   OH258372   0.489   1.828  17.052 -0.4858 -0.4005 -0.0071
12294TIP3    H158373   0.496   1.902  17.112 -0.3217  1.5954 -2.4124
12294TIP3    H258374   0.503   1.751  17.108  1.2491  1.4378  2.2199
12295TIP3   OH258375   4.095   4.532   2.838  0.2277  0.7422  0.2764
12295TIP3    H158376   4.004   4.557   2.823 -0.0423 -1.2985 -1.8426
12295TIP3    H258377   4.135   4.532   2.751  2.0830  0.9830  1.0990
12296TIP3   OH258378   4.470   3.367  13.942  0.6358  0.2912 -0.9238
12296TIP3    H158379   4.375   3.358  13.933  0.4291  1.1001  0.3367
12296TIP3    H258380   4.495   3.424  13.869  0.0466  0.6368 -0.8680
12297TIP3   OH258381   4.575   6.692  11.128  0.2925  0.0263  0.1489
12297TIP3    H158382   4.526   6.774  11.123 -0.0644 -0.2268 -0.7041
12297TIP3    H258383   4.621   6.688  11.044 -0.3909 -1.0751 -0.1854
12298TIP3   OH258384   5.844   1.321   3.832 -0.4297  0.1063  0.2581
12298TIP3    H158385   5.902   1.273   3.773 -0.8615 -1.0471  0.7709
12298TIP3    H258386   5.894   1.398   3.857  1.0555 -1.0962  1.0458
12299TIP3   OH258387   3.239   1.671  15.486  0.5217  0.3071  0.0683
12299TIP3    H158388   3.154   1.690  15.447  0.3249  1.0809  0.8659
12299TIP3    H258389   3.299   1.669  15.412 -0.3697 -1.3691 -0.6421
12300TIP3   OH258390   1.640   0.811  11.964 -0.7115  0.5922  0.0522
12300TIP3    H158391   1.548   0.831  11.951 -0.2017  2.6384 -0.4840
12300TIP3    H258392   1.676   0.804  11.876 -0.8928 -3.0573  0.1647
12301TIP3   OH258393   1.025   2.002   1.065 -0.3429  0.0970 -0.0854
12301TIP3    H158394   0.945   2.052   1.049 -1.0568 -0.7938  0.7291
12301TIP3    H258395   0.996   1.920   1.103  1.0298  0.2434  1.3312
12302TIP3   OH258396   0.214   6.051  15.100  0.2298  0.3375 -0.4395
12302TIP3    H158397   0.194   6.045  15.194 -0.1621  0.9895 -0.4802
12302TIP3    H258398   0.276   6.124  15.094  0.4605  0.1256 -0.6621
12303TIP3   OH258399   4.530   3.252  12.584  0.5461  0.2577  0.1164
12303TIP3    H158400   4.513   3.303  12.504  0.4184 -0.1692 -0.1289
12303TIP3    H258401   4.622   3.269  12.604  0.2436  1.3643  0.5917
12304TIP3   OH258402   1.801   5.172   2.059  0.2905  0.0217  0.6310
12304TIP3    H158403   1.716   5.169   2.103  0.1280 -0.2510  0.3001
12304TIP3    H258404   1.843   5.090   2.083 -0.4919 -0.9117 -1.1045
12305TIP3   OH258405   0.179   3.427  11.223  0.1406 -0.6283 -0.0782
12305TIP3    H158406   0.209   3.517  11.206 -0.3715 -0.5438 -0.5329
12305TIP3    H258407   0.218   3.375  11.153 -2.3098 -0.2144 -1.8084
12306TIP3   OH258408   3.089   0.009  14.791 -0.2801 -0.0178  0.1929
12306TIP3    H158409   3.020   0.000  14.857  1.5969 -0.8588  2.0992
12306TIP3    H258410   3.044  -0.005  14.707 -2.5770  0.3788  1.3246
12307TIP3   OH258411   2.593   1.910  11.288 -0.1188 -0.1924 -0.4296
12307TIP3    H158412   2.575   1.935  11.197  0.6372  0.8502 -0.3007
12307TIP3    H258413   2.531   1.840  11.306 -1.8228  1.1022 -1.0401
12308TIP3   OH258414   2.559   4.852   4.382  0.3114 -0.5113  0.2243
12308TIP3    H158415   2.619   4.926   4.397  1.8167 -1.1777 -2.1344
12308TIP3    H258416   2.599   4.804   4.309 -3.0365 -1.0732 -1.3263
12309TIP3   OH258417   6.494   1.074   4.627  0.1863 -0.0049  0.3402
12309TIP3    H158418   6.578   1.111   4.655  0.3598 -0.7643  0.8416
12309TIP3    H258419   6.429   1.140   4.652  0.6329  0.6196 -0.1192
12310TIP3   OH258420   6.401   6.253   5.683 -0.4317 -0.0772  0.0787
12310TIP3    H158421   6.382   6.245   5.777  2.4164  0.7260  0.7710
12310TIP3    H258422   6.497   6.250   5.678 -0.5447  0.2610 -2.7820
12311TIP3   OH258423   2.548   1.683   5.923 -0.3190  0.5305  0.0249
12311TIP3    H158424   2.552   1.674   6.018 -1.0418 -0.7364 -0.0576
12311TIP3    H258425   2.543   1.778   5.908  0.9695  0.8073  1.1886
12312TIP3   OH258426   5.742   5.971  14.417 -0.1693  0.0889  0.2047
12312TIP3    H158427   5.803   6.002  14.350 -1.2810  0.1936 -0.7798
12312TIP3    H258428   5.724   5.880  14.394  2.8592 -1.2599  2.9305
12313TIP3   OH258429   3.772   0.433   5.470 -0.1524 -0.2296 -0.4575
12313TIP3    H158430   3.821   0.394   5.398  0.9500 -0.4664  0.3996
12313TIP3    H258431   3.817   0.402   5.549 -1.4826 -0.1711  0.3393
12314TIP3   OH258432   1.986   4.172  11.098  0.0031 -0.6270 -0.4334
12314TIP3    H158433   2.063   4.119  11.118  0.6519  0.6364  0.4968
12314TIP3    H258434   1.986   4.240  11.166 -2.0546 -0.7488 -0.3012
12315TIP3   OH258435   5.836   1.355   0.989  0.4079 -0.2642  0.8078
12315TIP3    H158436   5.864   1.275   0.945  0.4441  0.4732 -0.5318
12315TIP3    H258437   5.742   1.360   0.974  0.1453 -0.8579  2.2196
12316TIP3   OH258438   2.978   1.125   0.807 -0.1421  1.0372 -0.3050
12316TIP3    H158439   2.891   1.161   0.789 -0.6516  0.9679  1.8694
12316TIP3    H258440   3.038   1.178   0.754 -1.3436  2.0536 -0.6680
12317TIP3   OH258441   5.281   1.542  16.721  0.1817  0.2277  0.7505
12317TIP3    H158442   5.373   1.539  16.695  0.0733  0.3634  0.3424
12317TIP3    H258443   5.262   1.455  16.756  0.1235 -0.1916 -0.3342
12318TIP3   OH258444   0.001   6.220   3.313 -0.4995  0.1275 -0.1662
12318TIP3    H158445  -0.091   6.243   3.321 -0.1608  0.7702  2.0625
12318TIP3    H258446   0.025   6.249   3.224 -1.6762  2.7648  0.3245
12319TIP3   OH258447   5.575   0.497   4.792 -0.5399 -0.1223  0.4172
12319TIP3    H158448   5.588   0.554   4.716  1.2097 -1.5402 -0.3940
12319TIP3    H258449   5.562   0.409   4.754 -0.5888 -0.6866  1.7223
12320TIP3   OH258450   2.167   1.892  15.925 -0.4439 -0.2682 -0.1909
12320TIP3    H158451   2.162   1.858  16.015 -0.0223 -1.9143 -0.7685
12320TIP3    H258452   2.076   1.908  15.900 -0.5698  0.1016  0.4836
12321TIP3   OH258453   2.068   3.811   4.816  0.4068  0.4509 -0.0824
12321TIP3    H158454   2.054   3.880   4.752 -1.8200  1.7504  1.7487
12321TIP3    H258455   2.108   3.855   4.891  0.7400 -0.6124  0.3823
12322TIP3   OH258456   1.553   0.686  16.552  0.1157 -0.3371 -0.3033
12322TIP3    H158457   1.502   0.619  16.596  0.1357  0.6826  1.2898
12322TIP3    H258458   1.504   0.767  16.565  1.0424  0.2836 -0.5955
12323TIP3   OH258459   5.637   4.910   1.438 -0.7332  0.2622  0.1894
12323TIP3    H158460   5.730   4.899   1.417 -0.6389  2.2348 -0.6071
12323TIP3    H258461   5.593   4.843   1.386 -0.0435  1.7505 -2.4078
12324TIP3   OH258462   5.203   6.526  10.679  0.4479  0.1204 -0.7607
12324TIP3    H158463   5.116   6.489  10.661 -0.7162 -0.0855  4.4719
12324TIP3    H258464   5.188   6.621  10.681 -0.0225  0.0299  1.4429
12325TIP3   OH258465   3.468   2.864  10.946  0.1446 -0.3729  0.6469
12325TIP3    H158466   3.525   2.787  10.946  0.1820 -0.3482  1.6568
12325TIP3    H258467   3.528   2.938  10.954 -0.0149 -0.3455  1.6923
12326TIP3   OH258468   6.188   5.953   3.310 -0.2992  0.3043 -0.0689
12326TIP3    H158469   6.199   5.901   3.231 -0.6110  0.0859  0.0293
12326TIP3    H258470   6.227   6.038   3.288  3.2223 -0.9783  0.8820
12327TIP3   OH258471   5.217   0.137   3.288 -0.3984 -0.4176 -0.2543
12327TIP3    H158472   5.242   0.052   3.251  1.4092  0.3082 -0.7333
12327TIP3    H258473   5.241   0.201   3.221  0.2748  0.6541  0.9793
12328TIP3   OH258474   1.971   4.956  10.512 -0.5274  0.0177 -0.2301
12328TIP3    H158475   2.024   4.995  10.443 -0.1730  1.2793  0.7430
12328TIP3    H258476   1.904   5.022  10.532  0.7574  0.6312  2.2131
12329TIP3   OH258477   0.561   3.288   2.080 -0.2909  0.3030 -0.9154
12329TIP3    H158478   0.558   3.371   2.127  1.0642 -0.2421  0.1205
12329TIP3    H258479   0.469   3.269   2.061 -1.0010 -0.2351  2.8242
12330TIP3   OH258480   3.774   4.118   1.434  0.5368  0.3521 -0.0285
12330TIP3    H158481   3.775   4.051   1.365  0.9334 -0.2769  0.5747
12330TIP3    H258482   3.864   4.119   1.467  0.1918  0.1558  0.9439
12331TIP3   OH258483   4.050   3.205  12.604  0.3898  0.3296 -0.2074
12331TIP3    H158484   4.125   3.263  12.593  0.4042  0.0903 -1.3987
12331TIP3    H258485   4.064   3.163  12.689 -0.5104  3.3490  1.4717
12332TIP3   OH258486   4.816   4.979  14.980  0.0297  0.1267 -0.0708
12332TIP3    H158487   4.836   4.910  14.916 -0.3843  0.1242 -0.1934
12332TIP3    H258488   4.755   4.939  15.041  0.2243  0.2120  0.1833
12333TIP3   OH258489   6.102   0.151  12.368 -0.2801 -0.6130  0.3169
12333TIP3    H158490   6.191   0.146  12.403 -0.9677 -0.0859  2.1897
12333TIP3    H258491   6.113   0.140  12.274  1.5856 -2.6237  0.7171
12334TIP3   OH258492   2.051   1.760  11.552  0.3656  0.6133 -0.1807
12334TIP3    H158493   2.078   1.848  11.580  1.1036  0.2925  0.1099
12334TIP3    H258494   2.125   1.704  11.573 -0.9816 -0.5039  1.7746
12335TIP3   OH258495   1.893   3.502  16.712 -0.1910 -0.1286 -0.9411
12335TIP3    H158496   1.954   3.468  16.778  0.0459 -1.1995 -1.6867
12335TIP3    H258497   1.858   3.582  16.751 -0.1919 -0.8303  0.5629
12336TIP3   OH258498   2.716   5.900   3.707  0.2576  0.4754 -0.4768
12336TIP3    H158499   2.738   5.813   3.740 -0.8562  1.2694  2.5043
12336TIP3    H258500   2.641   5.885   3.649  0.4321 -0.6212 -0.4334
12337TIP3   OH258501   2.203   3.683  16.374 -0.1473  0.6445 -0.1942
12337TIP3    H158502   2.116   3.656  16.404 -0.0034  0.6100  0.2044
12337TIP3    H258503   2.191   3.707  16.283 -0.8184  1.7682  0.1831
12338TIP3   OH258504   1.382   1.833  11.812  0.0094  0.6551  0.1974
12338TIP3    H158505   1.471   1.801  11.825  0.1322  1.0988  0.4802
12338TIP3    H258506   1.355   1.797  11.728 -1.2449 -3.3052  2.1891
12339TIP3   OH258507   4.145   6.204   0.391  0.8206  0.3151 -0.4619
12339TIP3    H158508   4.137   6.254   0.473  0.1699  0.3429 -0.5389
12339TIP3    H258509   4.191   6.124   0.416 -0.5678 -0.2869  0.1903
12340TIP3   OH258510   4.542   5.968  14.463  0.0484 -0.1921 -0.0658
12340TIP3    H158511   4.525   5.904  14.394  2.3452 -1.6029  0.5959
12340TIP3    H258512   4.494   5.934  14.539  0.9079 -0.9191  0.1629
12341TIP3   OH258513   1.469   2.702   1.276  0.1142  0.1383 -0.0502
12341TIP3    H158514   1.441   2.683   1.187  0.1461 -0.4842  0.0665
12341TIP3    H258515   1.392   2.740   1.318 -0.1576 -0.3573 -0.1008
12342TIP3   OH258516   1.983   0.034   1.114  0.2643 -0.3961  0.5758
12342TIP3    H158517   1.952   0.083   1.038  2.6468  0.9999  0.4635
12342TIP3    H258518   1.943   0.080   1.189  0.3741  0.1134  0.3256
12343TIP3   OH258519   4.844   4.427  15.006 -0.0554  0.1833  0.5951
12343TIP3    H158520   4.832   4.387  14.920  1.1554  0.6063  0.2114
12343TIP3    H258521   4.911   4.373  15.048  0.1894  0.6603  0.8222
12344TIP3   OH258522   4.467   0.460   2.560 -0.3720  0.3814  0.0616
12344TIP3    H158523   4.425   0.385   2.518 -1.7308  1.4941 -0.6134
12344TIP3    H258524   4.492   0.517   2.487  2.3568 -0.2557  0.4496
12345TIP3   OH258525   2.472   5.267  16.105 -0.2256 -0.6017 -0.3456
12345TIP3    H158526   2.410   5.198  16.083 -0.4055  0.1368 -2.2383
12345TIP3    H258527   2.539   5.223  16.158 -0.8180 -2.0169 -0.7551
12346TIP3   OH258528   0.564   3.108   4.277 -0.7641 -0.4633  1.0884
12346TIP3    H158529   0.547   3.195   4.241  0.2222 -0.4208  0.6993
12346TIP3    H258530   0.564   3.121   4.372  2.4042  0.5878  1.0052
12347TIP3   OH258531   3.698   1.541   0.511 -0.5162 -0.1073 -0.3354
12347TIP3    H158532   3.703   1.574   0.601 -0.6934 -0.8586 -0.0456
12347TIP3    H258533   3.774   1.484   0.502  0.2481  1.0146 -1.1014
12348TIP3   OH258534   1.462   3.576   3.276 -0.4660 -0.2522  0.1544
12348TIP3    H158535   1.533   3.588   3.338 -1.4692 -0.0001  1.2581
12348TIP3    H258536   1.402   3.516   3.320 -0.1566 -1.7737 -1.4288
12349TIP3   OH258537   1.092   2.557  15.684 -0.1190 -0.1697  0.1034
12349TIP3    H158538   1.100   2.640  15.730 -0.1623  0.0863 -0.3554
12349TIP3    H258539   1.166   2.505  15.716 -0.3724 -0.1344  0.7596
12350TIP3   OH258540   2.561   5.753   3.981 -0.3792  0.5774 -0.4732
12350TIP3    H158541   2.548   5.687   4.049  0.1183 -2.2020 -2.9614
12350TIP3    H258542   2.642   5.798   4.006  0.3078 -1.0354  0.3021
12351TIP3   OH258543   4.025   4.972  14.159 -0.6940  0.8688 -0.3141
12351TIP3    H158544   4.053   4.884  14.137 -1.0611  0.2394  1.5956
12351TIP3    H258545   4.084   5.030  14.111 -0.9706 -0.4101 -2.2184
12352TIP3   OH258546   5.962   1.911  12.788 -0.3670  0.6373  0.6322
12352TIP3    H158547   5.890   1.847  12.783  0.8338 -0.6976 -0.0173
12352TIP3    H258548   5.931   1.977  12.849 -1.2809 -1.0630  2.0685
12353TIP3   OH258549   3.000   3.076   4.479  0.7200 -0.0792  0.1492
12353TIP3    H158550   3.075   3.055   4.535  1.4951  3.5190  0.5706
12353TIP3    H258551   2.935   3.112   4.539 -0.7077 -1.5825 -0.4673
12354TIP3   OH258552   4.239   5.449  13.788  0.8313 -0.2112 -0.2715
12354TIP3    H158553   4.217   5.541  13.775  1.3186  0.1050  0.9793
12354TIP3    H258554   4.179   5.400  13.732  0.5615  0.8745 -0.9222
12355TIP3   OH258555   5.042   1.690   5.776 -0.3605 -0.7755 -0.5328
12355TIP3    H158556   4.979   1.761   5.763 -1.5074 -1.8774 -1.0926
12355TIP3    H258557   5.095   1.719   5.850 -0.9583  0.5672 -0.6133
12356TIP3   OH258558   4.093   4.498   5.383  0.2189  0.1072 -0.4012
12356TIP3    H158559   4.151   4.441   5.433  0.7309  1.2218  0.2912
12356TIP3    H258560   4.052   4.440   5.318  3.2071 -0.4163 -1.8826
12357TIP3   OH258561   1.283   6.274   4.463  0.3834 -0.3823  0.0183
12357TIP3    H158562   1.222   6.238   4.399  1.1340 -0.8960 -0.4112
12357TIP3    H258563   1.269   6.223   4.542 -1.1930  0.8516  0.5616
12358TIP3   OH258564   4.085   3.103  15.914 -0.1222 -0.3293  0.4578
12358TIP3    H158565   4.124   3.038  15.854  1.9398 -0.0478  1.4616
12358TIP3    H258566   4.106   3.070  16.001  1.9317  2.2687  0.9725
12359TIP3   OH258567   6.523   4.700  10.851  0.3080 -0.4245  0.4815
12359TIP3    H158568   6.536   4.723  10.759  2.9791 -0.0438  0.9088
12359TIP3    H258569   6.611   4.679  10.883 -0.5845 -0.5598  2.9375
12360TIP3   OH258570   4.097   1.744  12.252 -0.0808 -0.3036  0.0929
12360TIP3    H158571   4.021   1.780  12.207 -0.9194 -1.6551  0.4202
12360TIP3    H258572   4.163   1.733  12.184  0.2135  1.8595 -0.0146
12361TIP3   OH258573   4.149   6.485  13.570 -0.3397 -0.4656  0.2002
12361TIP3    H158574   4.223   6.430  13.598 -0.4315 -0.1322  1.1340
12361TIP3    H258575   4.078   6.423  13.553 -0.9308 -0.5707  2.7789
12362TIP3   OH258576   3.753   5.922   6.332 -0.1866  0.1816 -0.4166
12362TIP3    H158577   3.779   6.002   6.377 -0.2023  0.0259 -0.1293
12362TIP3    H258578   3.794   5.852   6.382  0.7460  0.0792 -1.3286
12363TIP3   OH258579   2.837   4.701   4.562 -0.5124  0.0451  0.2924
12363TIP3    H158580   2.773   4.708   4.633  0.7046  0.1471  1.3896
12363TIP3    H258581   2.922   4.717   4.604  0.3353 -1.0851 -0.9569
12364TIP3   OH258582   4.678   6.571  12.784 -0.1708  0.1120  0.3589
12364TIP3    H158583   4.688   6.564  12.689 -0.6630  1.5344  0.1841
12364TIP3    H258584   4.759   6.613  12.813  0.8321 -2.0675  0.8326
12365TIP3   OH258585   6.299   1.654   6.127 -0.2026 -0.3101 -0.4277
12365TIP3    H158586   6.391   1.626   6.121  0.2104  0.6219  1.1453
12365TIP3    H258587   6.253   1.576   6.158 -0.0363 -0.9290 -1.6904
12366TIP3   OH258588   3.184   5.371   5.368 -0.0338 -0.1688 -0.2332
12366TIP3    H158589   3.205   5.278   5.359  0.2401 -0.0618 -0.7194
12366TIP3    H258590   3.097   5.380   5.328 -0.8460 -0.5375  1.4209
12367TIP3   OH258591   3.377   0.423   1.111 -0.8732 -0.2470 -0.8297
12367TIP3    H158592   3.426   0.465   1.040 -0.4856 -0.6156 -0.7790
12367TIP3    H258593   3.404   0.331   1.108 -0.4080 -0.1520  0.1762
12368TIP3   OH258594   6.277   6.667   3.727 -0.0427 -0.4027 -0.0055
12368TIP3    H158595   6.343   6.646   3.661  0.6046  0.2740  0.4292
12368TIP3    H258596   6.234   6.583   3.745 -0.7709 -0.4575 -1.8691
12369TIP3   OH258597   3.484   5.385  13.259  0.2598 -0.2049 -0.0804
12369TIP3    H158598   3.471   5.290  13.254  1.5339 -0.5489  2.2525
12369TIP3    H258599   3.578   5.395  13.273 -0.1950  1.2723  2.1258
12370TIP3   OH258600   5.251   3.804  10.244 -0.4335 -0.3502  0.1352
12370TIP3    H158601   5.266   3.740  10.174  0.5738  0.0074  0.0033
12370TIP3    H258602   5.195   3.871  10.204  0.2809 -0.0578 -0.3981
12371TIP3   OH258603   6.741   4.372   6.253  0.1314 -0.0635 -0.6637
12371TIP3    H158604   6.827   4.337   6.277  0.0335 -0.3711 -0.7632
12371TIP3    H258605   6.749   4.467   6.269  0.5003 -0.0828 -0.7150
12372TIP3   OH258606   1.724   4.263   6.205 -0.0598 -0.3483 -0.4198
12372TIP3    H158607   1.754   4.352   6.227  1.4622 -0.5965 -1.4015
12372TIP3    H258608   1.771   4.207   6.267 -1.7156 -0.4253  0.8131
12373TIP3   OH258609   6.494   3.418   2.520 -0.8045  0.2882 -0.7736
12373TIP3    H158610   6.547   3.425   2.441 -1.2656  0.8575 -1.0371
12373TIP3    H258611   6.435   3.494   2.516 -1.3601 -0.1119 -0.2846
12374TIP3   OH258612   5.540   0.334   1.927  0.5407 -0.1611  0.3422
12374TIP3    H158613   5.444   0.336   1.930  0.4995 -2.4449  1.6018
12374TIP3    H258614   5.566   0.424   1.948 -1.2985  0.2527  0.9710
12375TIP3   OH258615   0.645   4.229   4.897  0.0724  0.3864  0.0811
12375TIP3    H158616   0.670   4.199   4.984  0.8983 -1.3732 -0.7431
12375TIP3    H258617   0.728   4.247   4.853 -0.2276 -1.3263 -1.2273
12376TIP3   OH258618   1.214   3.764  15.772  0.0870  0.5179  0.1719
12376TIP3    H158619   1.165   3.704  15.716  1.5749 -0.8497  0.3138
12376TIP3    H258620   1.254   3.826  15.711 -0.5413  0.6971 -0.0596
12377TIP3   OH258621   1.969   4.589   1.368  0.1957 -0.2126 -0.0614
12377TIP3    H158622   1.967   4.497   1.342 -0.4109  0.2015 -1.5630
12377TIP3    H258623   1.889   4.626   1.330  0.9296  1.1443 -0.3262
12378TIP3   OH258624   6.180   2.905  10.362 -0.0521 -0.1047 -0.0015
12378TIP3    H158625   6.146   2.993  10.346 -0.7757 -1.0175 -4.0598
12378TIP3    H258626   6.275   2.915  10.358 -0.1641  0.1750 -2.8304
12379TIP3   OH258627   2.710   6.585   0.721 -0.6478 -0.3646  0.6170
12379TIP3    H158628   2.674   6.562   0.806 -1.2623 -1.3559  0.0853
12379TIP3    H258629   2.644   6.557   0.657 -1.2180  2.3649 -0.0871
12380TIP3   OH258630   0.932   1.577   3.424 -0.6168 -0.4605  0.0239
12380TIP3    H158631   0.967   1.638   3.359 -0.6887 -1.1131 -0.6413
12380TIP3    H258632   0.977   1.600   3.505  0.2582 -0.3184 -0.4945
12381TIP3   OH258633   0.373   4.344   5.485  0.0749 -0.6684  0.1241
12381TIP3    H158634   0.309   4.318   5.418  0.3083  0.7947 -0.6954
12381TIP3    H258635   0.388   4.437   5.468  0.7245 -0.4698  1.7441
12382TIP3   OH258636   2.534   0.365   1.631 -0.0185 -0.1170  0.0286
12382TIP3    H158637   2.604   0.431   1.627 -0.3406  0.2565  0.5589
12382TIP3    H258638   2.473   0.391   1.561 -0.4015  0.4430  0.5667
12383TIP3   OH258639   2.313   4.314   1.293 -0.2634  0.5868 -0.2959
12383TIP3    H158640   2.346   4.224   1.292 -0.4623  0.5211 -0.7841
12383TIP3    H258641   2.359   4.355   1.367  3.0673  1.2986 -2.6289
12384TIP3   OH258642   1.540   6.686   0.316 -0.7094 -0.1691  0.2755
12384TIP3    H158643   1.589   6.608   0.341 -2.0120 -1.4744 -1.1072
12384TIP3    H258644   1.453   6.675   0.355 -1.0871  0.2983 -0.4049
12385TIP3   OH258645   6.064   6.189  13.177 -0.2422 -0.0094  0.2954
12385TIP3    H158646   6.159   6.186  13.182 -0.2837  0.2150  1.3624
12385TIP3    H258647   6.040   6.268  13.227 -0.9874 -0.1053  0.0936
12386TIP3   OH258648   2.888   6.338   4.988 -0.0437 -0.2641  0.0035
12386TIP3    H158649   2.936   6.320   5.070  0.8696  0.1077 -0.4456
12386TIP3    H258650   2.953   6.378   4.931 -0.9770  0.5248 -0.5124
12387TIP3   OH258651   1.215   4.954  16.749  0.7789 -0.4181  0.0147
12387TIP3    H158652   1.278   4.966  16.679  1.9562 -4.5433  0.2821
12387TIP3    H258653   1.143   4.905  16.710 -0.8466  1.4887  0.5179
12388TIP3   OH258654   2.387   4.534   2.331 -0.7936  0.5071 -0.0339
12388TIP3    H158655   2.404   4.620   2.292 -0.6466 -0.0704 -1.2795
12388TIP3    H258656   2.322   4.495   2.273 -0.1030 -0.6236 -0.0479
12389TIP3   OH258657   6.597   0.187  11.900 -0.4166 -0.5341  0.3051
12389TIP3    H158658   6.570   0.226  11.817  0.9690  1.3295  0.6920
12389TIP3    H258659   6.529   0.212  11.962 -1.4321 -1.8921 -0.2361
12390TIP3   OH258660   5.892   5.817   4.898  0.1924 -0.0498 -0.3362
12390TIP3    H158661   5.881   5.908   4.871 -1.6654 -0.1917 -0.0729
12390TIP3    H258662   5.959   5.821   4.967  1.3198  0.9033 -1.4635
12391TIP3   OH258663   5.360   0.883  13.323 -0.0006  0.2222  0.3857
12391TIP3    H158664   5.452   0.873  13.300 -0.0927 -0.6374  0.3400
12391TIP3    H258665   5.312   0.865  13.242 -0.2275 -0.1277  0.5899
12392TIP3   OH258666   0.469   6.805  11.436  0.2616  0.3112 -0.5416
12392TIP3    H158667   0.405   6.736  11.457  1.2622 -0.7072 -0.7991
12392TIP3    H258668   0.435   6.846  11.357  0.7030 -1.2526 -1.5632
12393TIP3   OH258669   5.572   1.039  13.568  0.1299  0.3489 -0.2426
12393TIP3    H158670   5.644   1.021  13.628  0.4161 -3.9916 -1.6954
12393TIP3    H258671   5.611   1.034  13.481 -1.4068  0.4174 -0.9607
12394TIP3   OH258672   6.276   1.211   4.712 -0.0610 -0.1874  0.6112
12394TIP3    H158673   6.202   1.150   4.719 -1.1717  1.3637  2.8933
12394TIP3    H258674   6.284   1.249   4.799  2.0537  1.3121 -0.1943
12395TIP3   OH258675   1.214   3.726  11.247 -0.1709 -0.2416  0.4411
12395TIP3    H158676   1.198   3.717  11.341  0.3993  0.1949  0.5856
12395TIP3    H258677   1.301   3.688  11.234 -0.4830 -0.8160 -0.0050
12396TIP3   OH258678   0.632   5.379  13.077 -0.1783  0.1851 -0.0276
12396TIP3    H158679   0.614   5.454  13.020 -1.1271 -0.7614 -0.9853
12396TIP3    H258680   0.655   5.308  13.017  3.6056  0.4428  0.9904
12397TIP3   OH258681   1.153   3.355  16.414 -0.1544  0.1642 -0.1764
12397TIP3    H158682   1.082   3.335  16.354 -0.3907  0.2775  0.0645
12397TIP3    H258683   1.109   3.374  16.497  0.2915 -2.5408  0.7316
12398TIP3   OH258684   6.107   3.350   5.265 -0.2925  0.1577  0.0289
12398TIP3    H158685   6.080   3.296   5.191 -0.8335 -1.3328  1.2887
12398TIP3    H258686   6.039   3.337   5.331 -0.1218  1.9162  0.5798
12399TIP3   OH258687   2.565   6.189   4.631  0.3901 -0.1204 -0.4986
12399TIP3    H158688   2.485   6.139   4.613  0.0053  0.1348  0.4731
12399TIP3    H258689   2.612   6.135   4.694  0.2742  0.4506  0.0708
12400TIP3   OH258690   1.594   2.670  14.865 -0.2337  0.1207 -0.9129
12400TIP3    H158691   1.659   2.713  14.921 -0.8046  1.4737 -1.2694
12400TIP3    H258692   1.522   2.649  14.924  0.0546 -0.3618 -0.7322
12401TIP3   OH258693   3.813   4.099   0.775 -0.2494  0.4506 -0.4228
12401TIP3    H158694   3.907   4.087   0.784  0.1967  3.3046 -0.7182
12401TIP3    H258695   3.800   4.118   0.682 -0.9825  1.2047 -0.1710
12402TIP3   OH258696   2.867   4.365  11.780  0.3711 -0.2429 -0.0032
12402TIP3    H158697   2.781   4.366  11.822  0.7524 -1.0035  0.8184
12402TIP3    H258698   2.897   4.456  11.784 -0.7539  0.1959 -1.0790
12403TIP3   OH258699   2.390   5.341  15.472  0.6309  0.0221  0.1314
12403TIP3    H158700   2.314   5.368  15.421  0.0308 -0.7383  0.6246
12403TIP3    H258701   2.363   5.352  15.563 -0.1489 -3.6390  0.3869
12404TIP3   OH258702   6.658   6.682   1.411  0.2088 -0.0923 -0.2206
12404TIP3    H158703   6.722   6.740   1.452 -0.3498  0.3083  0.0966
12404TIP3    H258704   6.705   6.600   1.398  1.0564  0.4685 -0.8128
12405TIP3   OH258705   6.537   2.709   4.953 -0.0702  0.0071 -0.5458
12405TIP3    H158706   6.490   2.684   4.874 -0.9964 -1.6038  0.4897
12405TIP3    H258707   6.619   2.749   4.921 -0.8519  0.2491 -2.3009
12406TIP3   OH258708   4.622   4.546  14.269  0.1019 -0.0272 -0.0266
12406TIP3    H158709   4.549   4.586  14.316 -0.5235 -0.0933 -0.9413
12406TIP3    H258710   4.694   4.547  14.332  0.0407  2.3043  0.0556
12407TIP3   OH258711   2.587   1.610  11.976 -0.1420 -0.2054 -0.2933
12407TIP3    H158712   2.579   1.694  12.020  2.0727 -0.5476  0.8515
12407TIP3    H258713   2.607   1.631  11.885 -1.3269  0.5020 -0.3889
12408TIP3   OH258714   0.112   4.174  13.646 -0.2564  1.1711 -0.1478
12408TIP3    H158715   0.103   4.167  13.551 -0.8998 -1.0530  0.0532
12408TIP3    H258716   0.189   4.229  13.659  1.6297 -0.9180 -1.9897
12409TIP3   OH258717   5.562   6.730  12.448  0.3199 -0.1568  0.2055
12409TIP3    H158718   5.522   6.749  12.364  0.4653 -0.1272  0.1433
12409TIP3    H258719   5.611   6.649  12.434  1.1696  0.3807 -0.0136
12410TIP3   OH258720   2.563   4.584  12.857  0.1782 -0.1223  0.7570
12410TIP3    H158721   2.482   4.634  12.843  0.2041 -0.9624 -3.1051
12410TIP3    H258722   2.633   4.646  12.836  0.3546 -0.6488 -0.2287
12411TIP3   OH258723   5.897   1.294   0.584 -0.2116  0.3761  0.6114
12411TIP3    H158724   5.917   1.292   0.490 -0.1678 -0.9029  0.6421
12411TIP3    H258725   5.907   1.386   0.608  0.1329  0.6595 -0.5635
12412TIP3   OH258726   2.748   5.390  11.589  0.6228  0.0645  0.3389
12412TIP3    H158727   2.756   5.383  11.494 -2.6042 -1.6037  0.1435
12412TIP3    H258728   2.815   5.331  11.624  0.4013 -0.9116 -0.8995
12413TIP3   OH258729   3.203   5.580  16.771 -0.3560  0.6783 -0.1069
12413TIP3    H158730   3.165   5.513  16.714 -0.6911  0.1163  0.7731
12413TIP3    H258731   3.159   5.661  16.746  1.4284  0.9583 -2.5216
12414TIP3   OH258732   4.000   6.406  12.650  0.2860 -0.4837  0.0441
12414TIP3    H158733   4.068   6.444  12.595 -1.0517  0.4236 -1.0233
12414TIP3    H258734   4.041   6.399  12.737  1.7278  0.0483 -0.5691
12415TIP3   OH258735   3.071   1.054  16.012 -0.0740 -0.2546  0.2523
12415TIP3    H158736   3.133   0.981  16.008 -1.4425 -1.5357  1.6930
12415TIP3    H258737   3.124   1.130  16.034  0.9709 -1.3573  1.5884
12416TIP3   OH258738   0.441   1.198  13.267  0.3272  0.4761  0.2649
12416TIP3    H158739   0.482   1.149  13.195  0.1453 -0.6973  0.9522
12416TIP3    H258740   0.472   1.155  13.346 -3.7480 -1.6778  0.7993
12417TIP3   OH258741   6.706   0.841  12.679  0.6024  0.0939 -0.2255
12417TIP3    H158742   6.744   0.861  12.764  1.0268  0.8056 -0.5791
12417TIP3    H258743   6.620   0.884  12.680  1.8014  2.6511 -1.2564
12418TIP3   OH258744   4.707   5.386   3.230  0.3345 -0.5782  0.3979
12418TIP3    H158745   4.757   5.421   3.304 -0.2794  0.3020  0.4084
12418TIP3    H258746   4.767   5.393   3.156  0.5441 -0.3658  0.5833
12419TIP3   OH258747   4.061   2.909  13.980 -0.0512 -0.1437  0.1041
12419TIP3    H158748   4.119   2.956  14.040  0.4106 -0.8047  0.1794
12419TIP3    H258749   4.022   2.977  13.925 -0.3845  0.4631  1.0723
12420TIP3   OH258750   1.112   3.559  17.272  0.2006 -0.1175 -0.8580
12420TIP3    H158751   1.101   3.466  17.291 -0.0948  0.0158 -0.3976
12420TIP3    H258752   1.206   3.568  17.255  0.4706 -0.2332  0.5131
12421TIP3   OH258753   6.725   4.655   4.139 -0.4455  0.1769 -0.0293
12421TIP3    H158754   6.684   4.650   4.226  1.3929  1.7628  0.9799
12421TIP3    H258755   6.714   4.567   4.103 -2.0007 -0.2712  1.4639
12422TIP3   OH258756   5.587   3.672   4.370  0.1923  0.0354  0.5491
12422TIP3    H158757   5.547   3.591   4.399 -2.2217  1.0410  0.1176
12422TIP3    H258758   5.576   3.732   4.444 -1.3294  1.0444 -0.4702
12423TIP3   OH258759   5.039   3.563   4.724  0.4906 -0.6577  0.0481
12423TIP3    H158760   5.066   3.504   4.795  0.0510 -1.7345 -0.6711
12423TIP3    H258761   5.015   3.505   4.652 -1.0771  0.3509 -0.2722
12424TIP3   OH258762   1.859   4.404  13.433 -0.6011  0.1339  0.0675
12424TIP3    H158763   1.859   4.363  13.520 -2.1515  2.8897  1.4654
12424TIP3    H258764   1.943   4.451  13.429  0.1102 -1.1680 -0.5448
12425TIP3   OH258765   4.264   5.587  16.468  0.4040 -0.3971  0.7011
12425TIP3    H158766   4.303   5.556  16.549 -2.5039  1.3341  2.8757
12425TIP3    H258767   4.286   5.680  16.464 -0.6117 -0.1603  0.2452
12426TIP3   OH258768   2.652   1.288   0.924  0.6752 -0.4803 -0.1601
12426TIP3    H158769   2.595   1.362   0.943 -0.4403 -1.3213 -0.2422
12426TIP3    H258770   2.738   1.316   0.956  0.3076  0.9174 -0.3494
12427TIP3   OH258771   2.951   1.087  10.837  0.1225  0.3685 -0.0864
12427TIP3    H158772   3.019   1.115  10.777  1.2966 -0.8198  0.6610
12427TIP3    H258773   2.872   1.132  10.807  0.6507 -0.3549 -2.6205
12428TIP3   OH258774   4.926   0.480   3.961 -0.3465  0.0247  0.0154
12428TIP3    H158775   4.958   0.570   3.955 -3.1744  0.9819 -2.0904
12428TIP3    H258776   4.915   0.452   3.870 -1.6165 -1.6362  0.6477
12429TIP3   OH258777   4.430   3.458  16.856  0.3787 -0.2268  0.0089
12429TIP3    H158778   4.498   3.492  16.914  0.2924  0.9362 -0.5613
12429TIP3    H258779   4.462   3.476  16.767 -1.7765  2.7284 -0.2747
12430TIP3   OH258780   6.038   5.643  14.178  0.1028  0.3576 -0.0373
12430TIP3    H158781   6.124   5.616  14.208 -0.5576 -0.6479  0.9899
12430TIP3    H258782   6.021   5.589  14.100 -1.5090 -2.8012  2.4113
12431TIP3   OH258783   0.790   3.474   4.235 -0.4315  0.3820 -0.4327
12431TIP3    H158784   0.763   3.549   4.182  2.4657  2.0296  0.3076
12431TIP3    H258785   0.762   3.497   4.324  0.1381  0.4296 -0.2636
12432TIP3   OH258786   3.041   4.910  13.347  0.1398 -0.2160 -0.1977
12432TIP3    H158787   3.122   4.923  13.396 -1.8527 -2.7875  4.1202
12432TIP3    H258788   3.053   4.826  13.303 -0.5096 -1.0995  1.2765
12433TIP3   OH258789   5.321   3.210  15.817 -0.0735  1.1273 -0.6870
12433TIP3    H158790   5.293   3.198  15.726  0.4197 -0.2274 -0.6740
12433TIP3    H258791   5.286   3.134  15.863  1.7557  0.5310 -0.2386
12434TIP3   OH258792   2.178   0.099   5.887  0.1011 -0.3822  0.7741
12434TIP3    H158793   2.218   0.113   5.973 -0.3211  0.4172  0.8423
12434TIP3    H258794   2.094   0.144   5.891 -0.6154 -1.6578  0.4699
12435TIP3   OH258795   1.369   3.543  12.791  0.1902  0.6185  0.5169
12435TIP3    H158796   1.343   3.632  12.766 -1.8669  0.3292  1.4871
12435TIP3    H258797   1.454   3.553  12.832 -0.9207  2.4375  2.4566
12436TIP3   OH258798   6.213   5.680   2.375  0.1527  0.1155 -0.2253
12436TIP3    H158799   6.272   5.678   2.450 -1.3358 -0.3049  0.9618
12436TIP3    H258800   6.270   5.672   2.299  1.6683  0.3644  0.8737
12437TIP3   OH258801   0.601   4.167  12.571  0.0404 -0.6700 -0.0189
12437TIP3    H158802   0.582   4.148  12.662 -0.8207 -2.6565 -0.5770
12437TIP3    H258803   0.583   4.260  12.561 -0.0653 -0.4860  1.7802
12438TIP3   OH258804   6.372   4.142   5.343 -0.7573  0.1840 -0.0439
12438TIP3    H158805   6.427   4.207   5.386 -1.0385 -0.3652  1.1990
12438TIP3    H258806   6.432   4.094   5.286 -0.4649  1.2336 -0.6328
12439TIP3   OH258807   4.964   0.812   4.192 -0.4427  0.0069 -0.3472
12439TIP3    H158808   5.037   0.751   4.190  0.4928  1.0877 -0.0818
12439TIP3    H258809   4.978   0.862   4.273 -2.5561 -1.0699  0.7138
12440TIP3   OH258810   4.721   3.615   3.737  0.2116  0.1052 -0.6624
12440TIP3    H158811   4.710   3.547   3.671 -0.0913  1.7946 -2.3981
12440TIP3    H258812   4.809   3.650   3.720  0.0408  0.7044 -0.3120
12441TIP3   OH258813   3.763   0.210   5.814  0.6526  0.0904 -0.2486
12441TIP3    H158814   3.680   0.249   5.787 -0.1741 -1.4817 -0.0777
12441TIP3    H258815   3.740   0.153   5.887  1.8801 -0.4117 -0.2332
12442TIP3   OH258816   3.431   1.743  15.260  0.4318 -0.1372  0.1613
12442TIP3    H158817   3.515   1.743  15.215  0.0784 -2.7478 -0.5383
12442TIP3    H258818   3.403   1.652  15.260 -2.6562  0.7574 -0.0616
12443TIP3   OH258819   0.494   1.547  15.319 -0.7325  0.2941 -0.1517
12443TIP3    H158820   0.472   1.588  15.235  0.7186 -0.1889 -0.7948
12443TIP3    H258821   0.522   1.620  15.375 -3.8780  0.9127  0.6901
12444TIP3   OH258822   1.194   4.205   6.622  0.0650  0.1843  0.5223
12444TIP3    H158823   1.233   4.131   6.575  1.1391  1.1001 -0.0866
12444TIP3    H258824   1.100   4.192   6.615  0.2471 -0.9728  0.1789
12445TIP3   OH258825   4.488   0.918  11.260  0.3599 -0.6275  0.2378
12445TIP3    H158826   4.499   0.880  11.347  1.5168 -1.6240 -0.3240
12445TIP3    H258827   4.452   1.005  11.277  0.4094 -0.8704  1.7028
12446TIP3   OH258828   2.002   0.443   2.711 -0.2140 -0.2613  0.3293
12446TIP3    H158829   2.047   0.364   2.681  1.7489  0.3940  1.5085
12446TIP3    H258830   2.030   0.511   2.650 -1.4188 -0.3206 -0.3081
12447TIP3   OH258831   0.389   3.836   4.702 -1.0353  0.2328  0.2572
12447TIP3    H158832   0.366   3.904   4.766  1.0853 -0.7749  2.1520
12447TIP3    H258833   0.483   3.848   4.687 -0.9416 -1.3731 -0.5297
12448TIP3   OH258834   1.554   5.437   3.762  0.3974  0.1164 -0.2441
12448TIP3    H158835   1.476   5.481   3.795 -0.2724 -1.9324  0.9734
12448TIP3    H258836   1.560   5.465   3.670 -1.3667  0.8153 -0.1699
12449TIP3   OH258837   5.656   0.538  12.066  0.4205  0.0081  0.4377
12449TIP3    H158838   5.708   0.614  12.037  0.6571 -0.1736  0.3822
12449TIP3    H258839   5.721   0.476  12.099  0.1958 -0.0260  0.8151
12450TIP3   OH258840   0.600   1.049  16.975  0.0268 -0.0843 -0.5717
12450TIP3    H158841   0.693   1.030  16.987 -0.1959 -0.7365  0.1655
12450TIP3    H258842   0.598   1.112  16.902  1.1471  1.0545  0.3500
12451TIP3   OH258843   6.662   1.240  12.306 -0.8060  0.6093  0.3419
12451TIP3    H158844   6.703   1.188  12.237 -1.3332  0.1107  0.3996
12451TIP3    H258845   6.644   1.177  12.376  1.7744  1.4777  1.8904
12452TIP3   OH258846   3.777   4.340   5.925 -0.5521 -0.3299  0.3510
12452TIP3    H158847   3.797   4.246   5.928  0.8625  0.0331  4.6613
12452TIP3    H258848   3.697   4.349   5.975  0.4600  1.0112  1.7458
12453TIP3   OH258849   6.657   6.719   1.878 -0.0476 -0.1908 -0.5354
12453TIP3    H158850   6.703   6.766   1.948 -0.1806 -0.1548 -0.4721
12453TIP3    H258851   6.700   6.633   1.875 -1.5636 -1.0531  1.1771
12454TIP3   OH258852   0.012   2.659  11.798 -0.5097  0.1090  0.3294
12454TIP3    H158853   0.088   2.711  11.770  0.9771 -1.6114  1.0197
12454TIP3    H258854  -0.023   2.622  11.718 -0.9323  1.3227 -0.0496
12455TIP3   OH258855   3.923   5.603   3.405  0.0880 -0.1755  0.0298
12455TIP3    H158856   3.974   5.630   3.329  1.3341 -0.2756  0.8280
12455TIP3    H258857   3.881   5.683   3.436  0.7646  0.1508  0.1209
12456TIP3   OH258858   3.839   1.177  15.743 -0.6752  0.2167  0.3493
12456TIP3    H158859   3.819   1.145  15.656 -0.7864  0.0631  0.4309
12456TIP3    H258860   3.781   1.252  15.756 -0.8199  0.0967  0.3821
12457TIP3   OH258861   1.241   4.403  11.623 -0.5869 -0.1213  0.8311
12457TIP3    H158862   1.219   4.315  11.593  0.3962 -0.3134  0.6456
12457TIP3    H258863   1.204   4.409  11.711 -1.0629 -0.5511  0.6589
12458TIP3   OH258864   1.462   5.942   0.056  1.0090  0.2835  0.5239
12458TIP3    H158865   1.485   5.866   0.109  2.5072 -1.0774 -1.9685
12458TIP3    H258866   1.393   5.910  -0.003  0.2169  1.4372  0.8045
12459TIP3   OH258867   1.982   0.404   4.796 -0.2568  0.0536  0.0649
12459TIP3    H158868   1.950   0.390   4.707  0.7599 -0.8204 -0.1750
12459TIP3    H258869   1.903   0.401   4.850 -0.7213 -0.9044 -0.6412
12460TIP3   OH258870   4.892   4.902   1.283 -0.1833  0.0953  0.6176
12460TIP3    H158871   4.909   4.964   1.213  1.0459 -0.6543  0.2291
12460TIP3    H258872   4.804   4.870   1.266 -0.5180  1.1434  0.3690
12461TIP3   OH258873   2.551   5.624   6.093  0.2961 -0.3651  0.1379
12461TIP3    H158874   2.477   5.593   6.145  0.1742 -0.3021  0.0027
12461TIP3    H258875   2.573   5.710   6.131  0.0048 -0.1784 -0.1167
12462TIP3   OH258876   3.598   1.256   2.799 -0.4231  0.4420 -0.1821
12462TIP3    H158877   3.629   1.196   2.732 -2.6699  0.2954 -1.1081
12462TIP3    H258878   3.675   1.309   2.821  1.0975 -1.5297 -0.6601
12463TIP3   OH258879   1.705   3.283   0.538  0.0060  0.0284 -0.3608
12463TIP3    H158880   1.701   3.354   0.601  0.7239  0.6523 -1.0055
12463TIP3    H258881   1.615   3.271   0.509 -0.3823 -0.5090  1.0457
12464TIP3   OH258882   1.817   4.115  12.200 -0.1354 -0.4304 -0.5655
12464TIP3    H158883   1.887   4.113  12.135 -1.3614  1.0660 -1.9506
12464TIP3    H258884   1.738   4.135  12.151 -1.0529  0.9609  1.3978
12465TIP3   OH258885   2.550   2.236   0.216 -0.0848  0.1835 -0.0824
12465TIP3    H158886   2.503   2.313   0.246  0.3070  0.2710  0.2998
12465TIP3    H258887   2.634   2.239   0.261  0.2587 -0.0154 -0.7052
12466TIP3   OH258888   3.832   5.831  14.790  0.0258 -0.5662  0.2246
12466TIP3    H158889   3.850   5.746  14.751  0.4720  0.1917 -1.2597
12466TIP3    H258890   3.882   5.893  14.737 -2.1251  0.8796 -0.1637
12467TIP3   OH258891   6.566   3.187   0.133  0.1363 -0.1259  0.1711
12467TIP3    H158892   6.584   3.275   0.101 -1.6645  0.4819  0.7766
12467TIP3    H258893   6.530   3.200   0.221 -2.1070 -1.3086 -0.5263
12468TIP3   OH258894   2.946   1.348   1.072  0.1113 -0.0981 -0.0591
12468TIP3    H158895   2.994   1.271   1.042 -1.9605 -1.5127  0.1438
12468TIP3    H258896   3.014   1.411   1.096  1.8383 -1.8518 -0.2392
12469TIP3   OH258897   2.549   5.497   2.211  0.3852  0.0918 -0.0405
12469TIP3    H158898   2.556   5.402   2.218  3.8099  0.3649  1.1975
12469TIP3    H258899   2.551   5.515   2.117  2.7430 -0.9213 -0.2109
12470TIP3   OH258900   2.604   4.229   2.085  0.4352 -0.3951  0.5063
12470TIP3    H158901   2.686   4.191   2.054  1.0988  0.3080  1.3855
12470TIP3    H258902   2.627   4.273   2.166 -0.3588  1.7606 -0.4101
12471TIP3   OH258903   4.796   4.971   2.745  0.2325  0.1563 -0.3329
12471TIP3    H158904   4.858   4.936   2.682  1.2466  0.8995  0.2224
12471TIP3    H258905   4.825   4.937   2.830 -0.5067 -0.0166 -0.1413
12472TIP3   OH258906   6.151   1.909   2.792 -0.3012 -0.1437 -0.6905
12472TIP3    H158907   6.087   1.977   2.773  1.6855  2.0191  0.1714
12472TIP3    H258908   6.129   1.880   2.881  0.1209  0.8088 -0.2781
12473TIP3   OH258909   1.247   0.732   5.214  0.2444  0.3321 -0.5965
12473TIP3    H158910   1.175   0.787   5.246  0.7998  0.1746  1.0119
12473TIP3    H258911   1.291   0.785   5.149 -0.0330  1.2780 -0.0244
12474TIP3   OH258912   2.134   0.031  13.820  0.1901 -0.2912 -0.4350
12474TIP3    H158913   2.114   0.099  13.885  1.3796  1.7157 -2.0730
12474TIP3    H258914   2.056  -0.024  13.817 -0.3831  0.3732  1.7152
12475TIP3   OH258915   3.860   2.581  15.123  0.5878  0.1706  0.4771
12475TIP3    H158916   3.833   2.553  15.035 -0.6349  1.3381  0.4686
12475TIP3    H258917   3.779   2.593  15.171  1.1949  0.8712  1.3549
12476TIP3   OH258918   2.503   4.533  11.222  0.5555  0.3324 -0.3407
12476TIP3    H158919   2.431   4.554  11.164  0.0684 -1.2686 -0.3335
12476TIP3    H258920   2.547   4.459  11.180  0.2990 -0.7290  1.2261
12477TIP3   OH258921   5.859   0.666   5.470  0.2436  0.4762 -0.5213
12477TIP3    H158922   5.828   0.621   5.390 -2.0085 -0.4255  0.7973
12477TIP3    H258923   5.911   0.600   5.515  0.3966  0.5506 -0.5885
12478TIP3   OH258924   3.667   4.973  14.746 -0.6417 -0.6410  0.5770
12478TIP3    H158925   3.631   5.035  14.810 -3.1776 -1.7051  0.2332
12478TIP3    H258926   3.643   4.887  14.781  1.6220 -1.3982  0.3193
12479TIP3   OH258927   1.220   3.853   5.429 -0.3471  0.1675  0.7067
12479TIP3    H158928   1.178   3.939   5.421  0.5712  0.5754  0.1369
12479TIP3    H258929   1.240   3.844   5.522 -1.0911  0.2491  0.8832
12480TIP3   OH258930   1.897   6.476   5.423  0.5000 -0.1607 -0.4796
12480TIP3    H158931   1.934   6.480   5.335 -0.2180 -1.9095 -0.8745
12480TIP3    H258932   1.826   6.412   5.417  1.5078 -1.5512  1.7638
12481TIP3   OH258933   0.036   3.427   3.872 -0.3719 -0.3518  0.4310
12481TIP3    H158934   0.085   3.396   3.948  0.4537 -0.7305 -0.2390
12481TIP3    H258935  -0.051   3.449   3.906  0.4452  0.8942  1.7561
12482TIP3   OH258936   6.160   3.920  10.470 -0.1560  0.4396  0.2170
12482TIP3    H158937   6.230   3.866  10.433 -0.0975  0.8268 -0.2440
12482TIP3    H258938   6.158   3.998  10.414 -0.2222  0.9286  0.8835
12483TIP3   OH258939   5.866   6.082  14.154 -0.5624 -0.3329 -0.0093
12483TIP3    H158940   5.915   6.006  14.184  0.0617 -0.7231 -1.9657
12483TIP3    H258941   5.930   6.134  14.105 -1.1105  1.1849  0.8433
12484TIP3   OH258942   2.208   5.636  15.575  0.7202 -0.4229 -0.7324
12484TIP3    H158943   2.196   5.585  15.495 -0.0583  0.7790 -1.3918
12484TIP3    H258944   2.269   5.584  15.627  0.0879 -1.9460 -1.4647
12485TIP3   OH258945   3.990   3.923  10.801  0.0419 -0.5906  0.0369
12485TIP3    H158946   3.989   3.827  10.805 -2.1070 -0.6470 -1.0930
12485TIP3    H258947   3.919   3.950  10.858 -1.5984  0.1686 -2.3090
12486TIP3   OH258948   4.505   3.442  15.473  0.4654  0.0997 -0.1717
12486TIP3    H158949   4.545   3.454  15.386  0.1988  2.5881  0.0332
12486TIP3    H258950   4.577   3.413  15.528  1.2044  1.0426 -0.6336
12487TIP3   OH258951   2.874   3.690  16.755 -0.2214  0.0072 -0.2688
12487TIP3    H158952   2.905   3.619  16.700  1.5720 -0.2491  1.0337
12487TIP3    H258953   2.782   3.703  16.729 -0.0465 -1.5782 -1.7239
12488TIP3   OH258954   5.651   3.500  11.357 -0.1953  0.1663 -0.1111
12488TIP3    H158955   5.635   3.585  11.318 -1.8031 -0.3861 -0.7173
12488TIP3    H258956   5.739   3.505  11.392 -0.7413  2.5032  0.9951
12489TIP3   OH258957   2.700   6.544   1.163  0.2522 -0.2890 -0.1179
12489TIP3    H158958   2.753   6.473   1.126  1.8693 -0.3955  2.2744
12489TIP3    H258959   2.663   6.506   1.243 -0.5508  0.9266  0.0930
12490TIP3   OH258960   4.319   6.290  14.545  0.3315  1.2917  0.2457
12490TIP3    H158961   4.282   6.354  14.483 -1.0373 -1.1345 -1.4998
12490TIP3    H258962   4.398   6.257  14.501 -0.0781  0.3190  0.2297
12491TIP3   OH258963   4.919   4.062   3.361  0.9033 -0.1756  0.5265
12491TIP3    H158964   4.827   4.040   3.349  0.6814  0.0553  1.6987
12491TIP3    H258965   4.963   4.027   3.283 -0.3338  0.7538 -0.6037
12492TIP3   OH258966   6.001   5.582  17.286 -0.5799 -0.1399 -0.3966
12492TIP3    H158967   6.088   5.574  17.245 -0.1639  0.8918  0.2618
12492TIP3    H258968   5.997   5.510  17.348 -0.3154 -0.3815 -0.6597
12493TIP3   OH258969   0.157   1.138   1.116  0.0614  0.1823 -0.2679
12493TIP3    H158970   0.086   1.199   1.139 -1.6607 -2.1363  0.7422
12493TIP3    H258971   0.201   1.121   1.199  0.0180 -0.5596 -0.3941
12494TIP3   OH258972   2.598   2.768   2.544  0.3232  1.1509  0.1644
12494TIP3    H158973   2.585   2.853   2.587 -2.3977  0.3099  1.1329
12494TIP3    H258974   2.669   2.727   2.593 -1.0442  1.2459  2.2751
12495TIP3   OH258975   1.860   4.550   5.061 -0.0060  0.2395  0.0954
12495TIP3    H158976   1.903   4.609   5.123 -0.0998  0.2912  0.1094
12495TIP3    H258977   1.933   4.505   5.017  0.0500 -0.1880  0.6220
12496TIP3   OH258978   0.214   1.588  12.284  0.2693  0.2946 -0.7728
12496TIP3    H158979   0.309   1.587  12.274  0.7309 -0.2750  2.8820
12496TIP3    H258980   0.186   1.499  12.260  1.0731 -0.4728  1.0161
12497TIP3   OH258981   5.539   5.430  15.905  0.6170 -0.0510 -0.9765
12497TIP3    H158982   5.601   5.501  15.921  0.5123 -0.3269  0.8189
12497TIP3    H258983   5.592   5.350  15.913 -0.0983 -0.3285  1.5087
12498TIP3   OH258984   6.649   6.526  15.129 -0.9589  0.4665 -0.3983
12498TIP3    H158985   6.710   6.455  15.149  0.1607  1.4955 -0.1201
12498TIP3    H258986   6.568   6.482  15.104 -1.6529 -0.8934  3.9944
12499TIP3   OH258987   5.706   4.228   3.810 -0.1793  0.3740 -0.0620
12499TIP3    H158988   5.753   4.226   3.893  0.1012 -0.9827 -0.2378
12499TIP3    H258989   5.722   4.316   3.775  2.0432  0.0247 -0.0056
12500TIP3   OH258990   4.030   3.817   3.194 -0.2242  0.3208  0.0210
12500TIP3    H158991   4.083   3.889   3.160 -0.3580  0.9486  1.0963
12500TIP3    H258992   3.940   3.838   3.170 -0.3049  0.7033  0.6471
12501TIP3   OH258993   3.401   3.298  16.615 -0.2168 -0.6541 -0.2244
12501TIP3    H158994   3.446   3.264  16.693  1.9930 -0.8974 -1.5680
12501TIP3    H258995   3.388   3.391  16.634  0.3459 -0.6974  0.4313
12502TIP3   OH258996   4.938   1.142  12.434 -0.2385  0.1532 -0.0920
12502TIP3    H158997   5.020   1.103  12.465  0.0770  0.3216 -0.7042
12502TIP3    H258998   4.890   1.069  12.395  1.7998  0.9273 -4.2794
12503TIP3   OH258999   0.974   4.174  11.368  0.3221  0.3017 -0.4549
12503TIP3    H159000   1.063   4.143  11.357  0.2057 -0.7637  1.4209
12503TIP3    H259001   0.932   4.108  11.424 -1.0598  1.7885  0.3010
12504TIP3   OH259002   3.810   3.770  12.151 -0.5573 -0.0000  0.1895
12504TIP3    H159003   3.742   3.708  12.178 -0.9686  0.2481 -0.2809
12504TIP3    H259004   3.825   3.823  12.229 -0.5025 -0.4109  0.4653
12505TIP3   OH259005   4.524   4.747   6.494  0.3363  0.3538 -0.2167
12505TIP3    H159006   4.450   4.693   6.524  0.9124  0.5125  1.5213
12505TIP3    H259007   4.558   4.699   6.419 -0.2522 -0.8176  0.2383
12506TIP3   OH259008   0.462   5.076   4.977  0.2877  0.0478 -0.1876
12506TIP3    H159009   0.555   5.055   4.987 -0.3273 -2.1366  1.1613
12506TIP3    H259010   0.431   5.017   4.907 -0.6837 -1.1851  1.2576
12507TIP3   OH259011   0.637   4.454   6.165  0.1395 -0.2336 -0.2865
12507TIP3    H159012   0.656   4.456   6.071 -0.7886  1.5335 -0.4568
12507TIP3    H259013   0.671   4.537   6.198  0.9263 -1.0666  1.0582
12508TIP3   OH259014   5.927   6.447   2.408  0.1171 -0.0404 -0.0909
12508TIP3    H159015   5.856   6.512   2.408 -0.8080 -1.0366 -1.0088
12508TIP3    H259016   5.905   6.387   2.478 -0.2949 -0.7234 -0.8020
12509TIP3   OH259017   3.056   5.826  12.407 -0.0754 -0.4501  0.2379
12509TIP3    H159018   3.021   5.744  12.375 -0.2279 -0.3580  0.1656
12509TIP3    H259019   3.133   5.843  12.352  0.2681 -0.8095  0.6016
12510TIP3   OH259020   1.199   5.055   6.040 -0.0806  0.5342 -0.0365
12510TIP3    H159021   1.243   5.079   6.122  1.7651  0.2594 -0.9140
12510TIP3    H259022   1.124   5.003   6.068  1.0088 -0.2839  1.4603
12511TIP3   OH259023   0.216   4.523   0.993  0.2822  1.0874  0.3130
12511TIP3    H159024   0.266   4.521   1.075  1.9879  0.8459 -0.7023
12511TIP3    H259025   0.283   4.516   0.925 -1.3626 -1.9682 -1.0644
12512TIP3   OH259026   4.625   1.099  13.473  0.6507 -0.6009  0.4805
12512TIP3    H159027   4.599   1.188  13.447 -0.1267 -1.2285 -0.9330
12512TIP3    H259028   4.705   1.112  13.525 -0.1171  1.0138  1.3120
12513TIP3   OH259029   1.063   4.083  11.046  0.6787 -0.4150  0.0046
12513TIP3    H159030   1.104   4.077  11.132 -1.0685  1.5424  1.0231
12513TIP3    H259031   1.136   4.083  10.984  2.0284 -0.1155  1.5901
12514TIP3   OH259032   1.558   6.601   3.810  0.1149  0.4444 -0.4983
12514TIP3    H159033   1.602   6.686   3.804 -1.3056  1.1356 -1.3224
12514TIP3    H259034   1.510   6.593   3.728 -1.6180 -0.1299  0.5540
12515TIP3   OH259035   5.670   2.290   4.879  0.1833  0.3897 -0.5060
12515TIP3    H159036   5.731   2.287   4.954 -0.6769  1.3358  0.2422
12515TIP3    H259037   5.584   2.271   4.917 -0.5598  2.7909 -0.9121
12516TIP3   OH259038   4.874   2.539  16.586 -0.3505 -0.7062 -0.1436
12516TIP3    H159039   4.926   2.516  16.663 -0.5220 -1.0668 -0.1337
12516TIP3    H259040   4.933   2.524  16.512 -0.0894 -0.0774 -0.0623
12517TIP3   OH259041   0.841   4.576   4.862  0.6928  0.2932 -0.0524
12517TIP3    H159042   0.751   4.544   4.866  0.6364  0.4491 -0.0824
12517TIP3    H259043   0.865   4.571   4.770  0.9284 -0.3398  0.0384
12518TIP3   OH259044   6.015   3.059  14.237  0.1375 -0.8009  0.3046
12518TIP3    H159045   5.975   3.094  14.157  1.0472 -0.1245  0.1426
12518TIP3    H259046   6.102   3.098  14.239  0.7446 -2.1855  0.7242
12519TIP3   OH259047   1.519   0.073   2.705 -0.2714  0.0499  0.1588
12519TIP3    H159048   1.446   0.116   2.661 -1.1340 -0.1006  1.4131
12519TIP3    H259049   1.544   0.003   2.646 -0.4811  0.7351 -0.7505
12520TIP3   OH259050   1.741   6.444  16.644  0.0945 -0.7187 -0.2417
12520TIP3    H159051   1.763   6.524  16.693  0.5251 -1.0476  0.1033
12520TIP3    H259052   1.730   6.377  16.712  0.0362 -1.0251 -0.5558
12521TIP3   OH259053   4.593   4.146  10.890  0.2619  0.2805 -0.6722
12521TIP3    H159054   4.645   4.212  10.845  0.9701  0.3063  0.1614
12521TIP3    H259055   4.502   4.175  10.878  0.5853  1.7070  0.1042
12522TIP3   OH259056   3.524   1.537  14.936  0.3457  0.1749 -0.2110
12522TIP3    H159057   3.579   1.552  14.858 -0.3310  0.5473 -0.6146
12522TIP3    H259058   3.569   1.584  15.006  1.0949 -0.3647 -0.3146
12523TIP3   OH259059   6.631   3.767   3.969 -0.0021 -0.2896 -0.1133
12523TIP3    H159060   6.710   3.794   3.923  0.3745  0.1361  0.7741
12523TIP3    H259061   6.659   3.753   4.060 -0.6733 -1.4061 -0.0648
12524TIP3   OH259062   5.129   1.314   3.843  0.0740  0.0678  0.3214
12524TIP3    H159063   5.160   1.348   3.928  1.0316 -1.3039  0.5401
12524TIP3    H259064   5.194   1.346   3.780 -0.2069  0.4274  0.2112
12525TIP3   OH259065   3.729   6.350  17.076  0.2083 -0.4865  0.4433
12525TIP3    H159066   3.715   6.256  17.092 -2.8130 -0.0694  0.5042
12525TIP3    H259067   3.703   6.362  16.985  0.0162  0.4263  0.6248
12526TIP3   OH259068   5.428   0.349  14.199 -0.1401 -0.0729 -0.0810
12526TIP3    H159069   5.522   0.361  14.187  0.2436 -1.6515  1.1867
12526TIP3    H259070   5.409   0.394  14.282 -0.1198 -1.4775  0.6965
12527TIP3   OH259071   6.085   4.650   2.378  0.0538 -0.6941  0.1140
12527TIP3    H159072   6.170   4.659   2.336  0.0956  1.2123  0.5496
12527TIP3    H259073   6.052   4.566   2.348  1.9412 -1.2958 -0.3218
12528TIP3   OH259074   6.452   4.092  11.794  0.2696  0.5202  0.7544
12528TIP3    H159075   6.509   4.117  11.866  1.7802  1.5740 -0.7859
12528TIP3    H259076   6.477   4.150  11.722 -0.4419 -1.2611 -0.9689
12529TIP3   OH259077   2.697   4.515   0.080 -0.3141  0.1268 -0.1146
12529TIP3    H159078   2.713   4.603   0.045  2.6752 -0.5302 -0.5756
12529TIP3    H259079   2.680   4.462   0.002  0.0609 -0.1130 -0.0339
12530TIP3   OH259080   1.779   5.805   6.659  0.2951  0.2279 -0.2037
12530TIP3    H159081   1.716   5.844   6.599 -0.5451 -1.5149 -0.4692
12530TIP3    H259082   1.785   5.714   6.632 -0.8040 -0.8349  2.9237
12531TIP3   OH259083   0.394   5.165  13.691  0.3407 -0.3536 -0.0451
12531TIP3    H159084   0.339   5.192  13.617 -1.3552 -0.4786  1.1356
12531TIP3    H259085   0.390   5.238  13.752 -1.8180 -1.9374  1.8202
12532TIP3   OH259086   3.401   6.212  15.958  0.2698  0.1373 -0.1962
12532TIP3    H159087   3.327   6.245  15.907  1.5413 -0.6548 -2.5752
12532TIP3    H259088   3.382   6.119  15.972  0.2713  0.1914  0.1816
12533TIP3   OH259089   4.456   0.865   2.153  0.1910  0.4535  0.8004
12533TIP3    H159090   4.373   0.900   2.187  0.1515  0.9275  0.2309
12533TIP3    H259091   4.460   0.776   2.187 -1.6958 -0.3985 -1.1340
12534TIP3   OH259092   5.647   0.449  16.937 -0.1556  0.5486  0.4969
12534TIP3    H159093   5.594   0.370  16.942 -1.5651  1.3625 -1.0002
12534TIP3    H259094   5.737   0.418  16.937 -0.5907 -0.8495  3.2669
12535TIP3   OH259095   6.526   6.645  13.389  0.1812 -0.3612  0.4269
12535TIP3    H159096   6.454   6.630  13.450  0.7898 -2.3010  0.7253
12535TIP3    H259097   6.521   6.738  13.367 -0.1884  0.3127  3.2347
12536TIP3   OH259098   2.142   3.477  12.717  0.2975  0.5788 -0.2490
12536TIP3    H159099   2.109   3.480  12.807 -0.4545  1.1030 -0.5324
12536TIP3    H259100   2.236   3.466  12.726  0.1333 -0.1587  0.5975
12537TIP3   OH259101   3.664   2.854  12.096 -0.1333  0.0191 -0.1822
12537TIP3    H159102   3.745   2.816  12.128 -0.2894 -0.3549 -0.2298
12537TIP3    H259103   3.605   2.779  12.086 -0.3488  0.2373 -0.5463
12538TIP3   OH259104   6.214   2.174   1.071  0.3891 -0.0764 -0.0816
12538TIP3    H159105   6.158   2.096   1.080  0.4394 -0.4037 -2.2760
12538TIP3    H259106   6.177   2.237   1.133 -1.2645 -0.9485 -0.1332
12539TIP3   OH259107   6.035   5.746  11.644  0.2823  0.9013 -0.1275
12539TIP3    H159108   6.039   5.695  11.563  0.3226  2.6639 -1.2544
12539TIP3    H259109   6.102   5.707  11.700 -2.2784 -2.7614  0.5381
12540TIP3   OH259110   1.883   0.615   4.427 -0.6673 -0.0742  0.2379
12540TIP3    H159111   1.859   0.685   4.487 -0.0582 -1.7393  2.4968
12540TIP3    H259112   1.799   0.573   4.404 -0.8460  0.2331  0.3344
12541TIP3   OH259113   3.949   5.095   5.224 -0.5478 -0.6660  0.5234
12541TIP3    H159114   3.970   5.002   5.215  1.2223 -0.0904 -2.0031
12541TIP3    H259115   4.034   5.138   5.234 -1.2340  0.8123  0.2027
12542TIP3   OH259116   4.563   4.820  12.042  0.1167  0.0849 -0.5760
12542TIP3    H159117   4.490   4.758  12.044 -0.8172  1.1477 -0.8525
12542TIP3    H259118   4.603   4.806  11.956 -1.5310  1.4482 -1.6063
12543TIP3   OH259119   4.936   4.648   2.812 -0.3331 -0.2105  0.2306
12543TIP3    H159120   4.874   4.687   2.751  0.7094 -0.4627 -1.0116
12543TIP3    H259121   5.022   4.677   2.782  0.2533 -0.9964  1.0899
12544TIP3   OH259122   1.474   0.729  11.324 -0.8206 -0.8248  0.4492
12544TIP3    H159123   1.523   0.652  11.296  0.0012  0.0116 -0.4725
12544TIP3    H259124   1.494   0.796  11.258 -0.6812  0.4972  1.7922
12545TIP3   OH259125   4.915   5.465  12.809  0.3058  0.8873 -0.2346
12545TIP3    H159126   4.881   5.435  12.725  0.5320  0.7342 -0.2711
12545TIP3    H259127   4.961   5.547  12.789  0.3139  0.8786 -0.2520
12546TIP3   OH259128   5.123   4.381  14.462 -0.1240 -0.2082  0.0993
12546TIP3    H159129   5.161   4.395  14.375  0.3194 -2.2104 -0.0378
12546TIP3    H259130   5.199   4.360  14.518 -0.4839  0.4077  0.8317
12547TIP3   OH259131   0.957   2.092  13.543  0.4120  0.1399 -0.3500
12547TIP3    H159132   0.951   2.132  13.630 -0.8811  0.5365 -0.6114
12547TIP3    H259133   0.874   2.045  13.532  0.9400 -0.6541 -1.0076
12548TIP3   OH259134   1.899   5.176  17.125 -0.0008 -0.1426 -0.2929
12548TIP3    H159135   1.839   5.110  17.159  1.4230  0.1158  2.8064
12548TIP3    H259136   1.901   5.244  17.192  2.3958  0.6889 -1.1648
12549TIP3   OH259137   5.802   4.039  15.869 -0.0977 -0.0526  0.1230
12549TIP3    H159138   5.890   4.020  15.901 -0.2370  0.5912  0.8928
12549TIP3    H259139   5.762   3.953  15.859 -0.0504 -0.2738  1.6877
12550TIP3   OH259140   2.131   0.641   0.949  0.2623 -0.4615 -0.3048
12550TIP3    H159141   2.091   0.708   1.005  1.4735  0.6755 -0.7674
12550TIP3    H259142   2.057   0.593   0.913 -0.6368  0.6510  0.0299
12551TIP3   OH259143   1.095   1.493  14.656  0.4001  0.2274 -0.3389
12551TIP3    H159144   1.022   1.543  14.693  0.6265  0.6714 -0.4874
12551TIP3    H259145   1.127   1.548  14.584  1.0960  0.1922 -0.0624
12552TIP3   OH259146   5.206   1.175  16.215 -0.0797 -0.0750 -0.5255
12552TIP3    H159147   5.155   1.251  16.243  1.5483  1.3882 -1.3713
12552TIP3    H259148   5.289   1.183  16.263  0.1616 -1.2074 -0.7546
12553TIP3   OH259149   4.648   2.565   0.055 -0.3852  0.2995 -0.5425
12553TIP3    H159150   4.595   2.579  -0.024 -1.1574 -0.8499 -0.2499
12553TIP3    H259151   4.723   2.624   0.045 -1.3511  1.4203 -1.3157
12554TIP3   OH259152   6.194   4.030   0.215 -0.2990  0.6529 -0.3059
12554TIP3    H159153   6.229   4.053   0.301 -0.4841 -0.5829  0.1076
12554TIP3    H259154   6.158   4.112   0.181  3.0623  2.0171 -0.8011
12555TIP3   OH259155   2.943   6.312   2.560 -0.4528 -0.6990  0.0040
12555TIP3    H159156   3.004   6.272   2.623 -0.3846 -0.1657  0.2783
12555TIP3    H259157   2.913   6.392   2.603 -0.4768 -0.3779 -0.6071
12556TIP3   OH259158   6.087   3.652   1.808 -0.4258 -0.2135 -0.2310
12556TIP3    H159159   6.048   3.571   1.839 -1.6688  0.2921 -0.4548
12556TIP3    H259160   6.094   3.708   1.886  2.7107 -1.4089  0.4100
12557TIP3   OH259161   6.721   1.266   0.868 -0.1092  0.3813 -0.0329
12557TIP3    H159162   6.724   1.218   0.785  1.2168  0.9502 -0.3162
12557TIP3    H259163   6.635   1.245   0.904  0.3054 -1.9604 -0.3152
12558TIP3   OH259164   1.724   6.100  11.818  0.0110  0.3433  0.2158
12558TIP3    H159165   1.745   6.027  11.876 -1.2537 -0.6511 -0.5421
12558TIP3    H259166   1.750   6.070  11.731  0.1341  1.0742 -0.0012
12559TIP3   OH259167   0.394   6.368  14.303  0.1226  0.0828  0.3581
12559TIP3    H159168   0.328   6.429  14.269  0.4265 -0.1501 -0.6660
12559TIP3    H259169   0.478   6.409  14.280  0.3431  0.4149  1.7202
12560TIP3   OH259170   6.545   6.052   2.267  0.5593  0.1138 -0.2221
12560TIP3    H159171   6.467   6.107   2.257 -0.0555 -0.9746 -1.4986
12560TIP3    H259172   6.525   5.995   2.341  0.5493  0.4855  0.0682
12561TIP3   OH259173   5.598   4.205   2.264 -0.1757 -0.2818  0.7568
12561TIP3    H159174   5.579   4.264   2.191 -1.1244 -1.4217  0.0706
12561TIP3    H259175   5.538   4.232   2.333 -1.1472 -0.9207  0.1770
12562TIP3   OH259176   3.503   4.593  12.783  0.3749  0.3335 -0.1450
12562TIP3    H159177   3.562   4.618  12.712  1.5596  0.7238  0.9559
12562TIP3    H259178   3.416   4.620  12.753  0.7665 -0.0724 -1.7017
12563TIP3   OH259179   4.658   4.576  14.661 -0.4419  0.2482  0.4542
12563TIP3    H159180   4.567   4.560  14.685  0.0595 -0.6058  1.8360
12563TIP3    H259181   4.669   4.670  14.669 -1.6244  0.5558 -1.2645
12564TIP3   OH259182   3.080   0.447  16.740  0.7026  0.1330 -0.0632
12564TIP3    H159183   3.029   0.475  16.664 -0.6264  1.2537  1.2149
12564TIP3    H259184   3.093   0.527  16.791  0.6597 -0.7916  1.4276
12565TIP3   OH259185   4.120   1.042  12.861  0.2205  0.1753 -0.1336
12565TIP3    H159186   4.075   0.965  12.827  0.8596  0.4820 -1.7496
12565TIP3    H259187   4.212   1.028  12.840  0.6432  0.3862  1.5164
12566TIP3   OH259188   0.733   0.159   6.492  0.5324  0.1334 -0.2135
12566TIP3    H159189   0.661   0.183   6.550  1.7334  1.1260  0.8975
12566TIP3    H259190   0.795   0.114   6.549  0.3528 -1.6106 -1.3708
12567TIP3   OH259191   5.965   4.837  12.221  0.3721 -0.0155 -0.0539
12567TIP3    H159192   6.049   4.805  12.188  0.5777  0.0425  0.4089
12567TIP3    H259193   5.980   4.850  12.315  0.1733  1.0717 -0.1674
12568TIP3   OH259194   2.037   6.078  14.083  0.0298  0.0827 -0.6882
12568TIP3    H159195   2.104   6.040  14.027 -0.7812 -0.3560 -1.3674
12568TIP3    H259196   2.060   6.048  14.171  0.6042 -0.2284 -0.9413
12569TIP3   OH259197   2.418   4.230  15.283  0.4238  0.3522 -0.3499
12569TIP3    H159198   2.323   4.239  15.282  0.2940 -0.4909  1.4481
12569TIP3    H259199   2.450   4.319  15.271 -0.6305  0.9821  1.2962
12570TIP3   OH259200   3.684   3.099   2.978  0.0874 -0.0610 -0.2414
12570TIP3    H159201   3.642   3.050   2.907 -0.9249  0.6786 -0.1716
12570TIP3    H259202   3.767   3.054   2.992 -0.3714 -1.1474 -0.8593
12571TIP3   OH259203   5.287   6.436  14.088  0.3688  0.4829 -0.2956
12571TIP3    H159204   5.368   6.392  14.061  0.8847  2.2144 -1.6238
12571TIP3    H259205   5.282   6.514  14.033 -1.6118  1.0133  0.5900
12572TIP3   OH259206   0.906   5.881  12.596 -0.3565 -0.4807 -0.0316
12572TIP3    H159207   0.928   5.964  12.638 -1.0156  1.5233 -3.4768
12572TIP3    H259208   0.823   5.855  12.638 -0.3264  0.7575  0.8325
12573TIP3   OH259209   6.275   2.409  11.290  0.6921 -0.0591 -0.1992
12573TIP3    H159210   6.350   2.441  11.240  1.0882 -0.3802  0.1961
12573TIP3    H259211   6.286   2.314  11.292  0.3398 -0.0983 -0.0276
12574TIP3   OH259212   3.435   3.738  14.860 -0.3672  0.5019  0.1124
12574TIP3    H159213   3.489   3.796  14.805 -0.3058  0.1733 -0.1751
12574TIP3    H259214   3.498   3.680  14.902 -0.4638  0.4039  0.1198
12575TIP3   OH259215   5.374   0.134  10.941  0.3928  0.6614 -0.3593
12575TIP3    H159216   5.287   0.165  10.965  0.6369  1.3221 -0.3317
12575TIP3    H259217   5.413   0.105  11.024  0.2402  0.4631 -0.3566
12576TIP3   OH259218   5.663   1.670  15.841 -0.0717  0.5606 -0.1982
12576TIP3    H159219   5.703   1.742  15.791 -0.3920  0.3261 -0.7964
12576TIP3    H259220   5.664   1.596  15.781  1.4026 -0.2890  0.8402
12577TIP3   OH259221   0.550   5.090   4.464 -0.5379  0.1132 -1.3535
12577TIP3    H159222   0.489   5.031   4.419 -1.4723 -1.0897  1.3530
12577TIP3    H259223   0.495   5.143   4.521  0.7746  0.1262 -0.0620
12578TIP3   OH259224   1.178   4.810   5.642  0.1369  0.0326  0.1026
12578TIP3    H159225   1.141   4.794   5.555 -0.9620 -0.2326  0.6082
12578TIP3    H259226   1.271   4.788   5.633  0.3738  1.6192 -1.4240
12579TIP3   OH259227   2.402   4.583   0.924 -0.1116  0.7519  0.3227
12579TIP3    H159228   2.460   4.531   0.980 -1.7047  0.8486  2.1339
12579TIP3    H259229   2.327   4.525   0.907  0.0914  0.9354 -1.2720
12580TIP3   OH259230   2.471   1.694   0.561  0.5894  0.2757 -0.9595
12580TIP3    H159231   2.557   1.712   0.522  0.8741  0.7458 -0.1301
12580TIP3    H259232   2.488   1.625   0.626  0.7578  1.9074  0.7797
12581TIP3   OH259233   4.686   1.761   3.427 -0.2474 -0.2323  0.3483
12581TIP3    H159234   4.752   1.829   3.416  0.6385 -1.0288  0.7346
12581TIP3    H259235   4.735   1.679   3.425 -1.0896 -0.7728  1.7363
12582TIP3   OH259236   2.535   2.630  14.201  0.3577 -0.1695 -0.0551
12582TIP3    H159237   2.522   2.591  14.288  1.4582  2.1321  1.1869
12582TIP3    H259238   2.599   2.699  14.215  0.7523  0.0804 -2.7827
12583TIP3   OH259239   3.809   4.028  10.978  0.0865 -0.1558  0.1531
12583TIP3    H159240   3.816   4.122  10.962 -0.9170 -0.2625 -1.0359
12583TIP3    H259241   3.715   4.013  10.993  0.0071 -1.1862 -1.2318
12584TIP3   OH259242   1.922   0.071  16.481 -0.0724  0.4612 -0.5118
12584TIP3    H159243   1.931   0.158  16.442 -0.9958  1.6668  1.8671
12584TIP3    H259244   1.829   0.052  16.477 -0.0538  0.1918  0.1908
12585TIP3   OH259245   1.846   5.014   2.718 -0.1089 -0.3148  0.4712
12585TIP3    H159246   1.894   5.068   2.781  0.2318  0.4236 -0.4041
12585TIP3    H259247   1.759   5.003   2.757  1.1717 -2.8879  2.7654
12586TIP3   OH259248   5.607   6.161  16.204 -0.2895  0.2248 -0.2190
12586TIP3    H159249   5.530   6.104  16.210  0.4643 -0.7853  0.0472
12586TIP3    H259250   5.623   6.189  16.294 -0.4180  0.5473 -0.2948
12587TIP3   OH259251   1.977   0.438   5.757 -0.2116 -0.2010 -0.1621
12587TIP3    H159252   1.898   0.384   5.753 -1.4697  1.4433  1.4140
12587TIP3    H259253   2.011   0.424   5.845  0.0587  0.7148 -0.1166
12588TIP3   OH259254   1.286   3.113   1.008 -0.6941 -0.6186 -0.3176
12588TIP3    H159255   1.380   3.128   0.994 -1.0660  2.1653 -0.0916
12588TIP3    H259256   1.281   3.075   1.096  0.1632 -0.1091 -0.0435
12589TIP3   OH259257   6.788   3.011  11.502 -0.6326  0.5230  0.3905
12589TIP3    H159258   6.716   3.072  11.486  0.4424  1.1976 -2.0201
12589TIP3    H259259   6.809   2.975  11.416  0.5828 -1.2038  1.3762
12590TIP3   OH259260   5.769   0.626   4.592 -0.3331  0.5663  0.1532
12590TIP3    H159261   5.763   0.714   4.553 -1.4456  1.0168  1.2806
12590TIP3    H259262   5.829   0.637   4.666 -0.5238  0.3876  0.3336
12591TIP3   OH259263   5.649   2.895   4.516 -0.3399 -0.0212 -0.2238
12591TIP3    H159264   5.669   2.830   4.448  1.1788 -0.4860  0.6614
12591TIP3    H259265   5.730   2.943   4.528 -1.2651  1.6172 -0.3826
12592TIP3   OH259266   3.916   4.200  15.769  0.3738  0.2719  0.2433
12592TIP3    H159267   3.903   4.265  15.837 -1.0341  0.3452 -0.0865
12592TIP3    H259268   4.011   4.191  15.762  0.5617  1.8207  0.7173
12593TIP3   OH259269   5.858   3.160  15.259  0.3717  0.1230 -0.1322
12593TIP3    H159270   5.951   3.178  15.248  0.6310  0.5536  2.5655
12593TIP3    H259271   5.821   3.172  15.171  3.0098 -1.1613 -1.4794
12594TIP3   OH259272   4.670   1.554  13.179  0.2016  0.5085  0.6646
12594TIP3    H159273   4.602   1.487  13.170 -1.2750  2.2801 -2.3952
12594TIP3    H259274   4.737   1.527  13.115 -0.5091  2.0121 -0.7458
12595TIP3   OH259275   0.648   0.425   5.957 -0.4520 -0.3095  0.3069
12595TIP3    H159276   0.641   0.338   5.998 -0.9665 -0.5017 -0.1834
12595TIP3    H259277   0.594   0.418   5.878  2.0177 -0.5522 -1.4228
12596TIP3   OH259278   4.600   5.099  16.927 -0.3967  0.0623  0.9373
12596TIP3    H159279   4.665   5.107  16.997 -0.1275  2.7486  0.4699
12596TIP3    H259280   4.622   5.171  16.867 -2.7911 -0.0042 -0.0592
12597TIP3   OH259281   1.977   3.632   2.431  0.0923  0.0343  0.1167
12597TIP3    H159282   1.951   3.567   2.366 -2.2072  0.3447  0.6878
12597TIP3    H259283   2.050   3.592   2.478 -0.9713 -1.9201  0.1389
12598TIP3   OH259284   0.195   1.647  10.852 -0.3573  0.3709 -0.6644
12598TIP3    H159285   0.282   1.623  10.819 -0.4067 -0.2369 -0.3624
12598TIP3    H259286   0.134   1.608  10.789 -0.4164  0.4522 -0.6573
12599TIP3   OH259287   4.946   0.622  13.578  0.2714  0.1501  0.1647
12599TIP3    H159288   5.015   0.556  13.564 -1.1930 -1.6011  0.9987
12599TIP3    H259289   4.875   0.594  13.520  0.2061  1.8961 -0.6221
12600TIP3   OH259290   6.119   4.647   4.265 -0.6137 -0.6826  0.4867
12600TIP3    H159291   6.051   4.689   4.212 -0.0234 -0.5555 -0.1712
12600TIP3    H259292   6.110   4.554   4.245 -0.3785 -0.6335  0.1434
12601TIP3   OH259293   0.125   0.855   0.083  0.4008 -0.7771 -0.3431
12601TIP3    H159294   0.074   0.899   0.015 -1.1871 -0.9371  0.7260
12601TIP3    H259295   0.084   0.769   0.092  1.9690 -1.5931 -0.6971
12602TIP3   OH259296   1.103   0.452  15.703  0.2635 -0.1166 -0.3476
12602TIP3    H159297   1.028   0.492  15.748 -1.1758 -1.7968 -1.1802
12602TIP3    H259298   1.176   0.462  15.764 -0.8714  0.6675  0.9163
12603TIP3   OH259299   3.794   4.432   1.741 -0.1575 -0.2802 -0.1883
12603TIP3    H159300   3.835   4.504   1.693  0.3100 -1.6911 -1.9885
12603TIP3    H259301   3.715   4.470   1.778  1.6905  1.9564  1.6156
12604TIP3   OH259302   1.157   6.299   4.209 -0.0003 -0.0993  1.0022
12604TIP3    H159303   1.093   6.369   4.199 -0.2552 -0.2217  1.7268
12604TIP3    H259304   1.121   6.225   4.161  0.0464  0.1250  0.6252
12605TIP3   OH259305   3.746   5.892  13.427 -0.0415 -0.0506 -0.1152
12605TIP3    H159306   3.831   5.858  13.455 -0.6840 -0.3849  1.4786
12605TIP3    H259307   3.767   5.952  13.355  1.2347 -2.8581 -2.2127
12606TIP3   OH259308   5.141   3.182   0.219  0.4710  0.2392  0.0782
12606TIP3    H159309   5.227   3.142   0.233  0.6474  0.8134  0.6505
12606TIP3    H259310   5.136   3.252   0.284 -1.0644 -0.7830  1.0989
12607TIP3   OH259311   3.241   2.049   6.163 -0.1658  0.3738 -0.3394
12607TIP3    H159312   3.282   2.106   6.227 -0.7885  0.9462 -0.4467
12607TIP3    H259313   3.312   1.992   6.132 -0.0555 -0.6061  1.5972
12608TIP3   OH259314   2.674   2.177   4.267  0.1400  0.6353 -0.2702
12608TIP3    H159315   2.651   2.134   4.350 -1.6951  0.0662 -1.0595
12608TIP3    H259316   2.720   2.257   4.294 -0.3273  0.4047  1.2931
12609TIP3   OH259317   3.217   2.634  13.356 -0.5068 -0.5750 -0.1369
12609TIP3    H159318   3.280   2.706  13.364 -0.1946 -0.6852 -1.4588
12609TIP3    H259319   3.133   2.672  13.380 -0.0907 -0.1827  0.7207
12610TIP3   OH259320   4.448   5.439   3.270  0.4477  0.1326  0.1250
12610TIP3    H159321   4.524   5.396   3.230  1.3844  0.7959  1.1908
12610TIP3    H259322   4.479   5.471   3.354 -1.4578 -1.0174  1.2934
12611TIP3   OH259323   4.513   6.785   0.285  0.3002 -0.3488 -0.4740
12611TIP3    H159324   4.527   6.859   0.226 -0.5782 -0.2554 -0.5609
12611TIP3    H259325   4.466   6.822   0.359  0.4583 -0.6860 -0.2059
12612TIP3   OH259326   5.560   3.999   1.262 -0.5426  0.0713 -0.1685
12612TIP3    H159327   5.649   3.965   1.249 -0.7508  0.2472 -2.0767
12612TIP3    H259328   5.525   3.946   1.334  0.6629 -0.8415 -0.2396
12613TIP3   OH259329   0.719   3.300  15.393 -0.1154  0.2665  0.5009
12613TIP3    H159330   0.806   3.323  15.359 -0.3296  1.9541  1.0103
12613TIP3    H259331   0.736   3.231  15.457  0.4063 -2.1545 -2.1720
12614TIP3   OH259332   0.984   4.815  17.137  0.4510 -0.0271  0.1779
12614TIP3    H159333   0.947   4.842  17.053  0.5335 -1.1262 -0.2235
12614TIP3    H259334   0.958   4.884  17.198 -1.9477 -0.5632 -0.1611
12615TIP3   OH259335   4.377   1.257  17.080 -0.0368 -0.3414  0.6663
12615TIP3    H159336   4.322   1.252  17.158  0.8539 -0.0500  1.3348
12615TIP3    H259337   4.467   1.258  17.114  0.4911 -3.0428 -0.4897
12616TIP3   OH259338   6.027   4.329  13.643 -0.1335 -0.0122 -0.2876
12616TIP3    H159339   6.061   4.355  13.557 -0.0500  0.2065 -0.1911
12616TIP3    H259340   6.091   4.266  13.676  0.0171  0.1661 -0.2383
12617TIP3   OH259341   3.933   2.050   3.182 -0.5875 -0.3721 -0.0334
12617TIP3    H159342   4.007   2.096   3.222  0.9892 -2.2065 -0.7624
12617TIP3    H259343   3.942   1.959   3.211 -1.8542 -0.8661 -1.1313
12618TIP3   OH259344   3.690   2.997  15.816 -0.1990 -0.2318  0.5019
12618TIP3    H159345   3.766   2.941  15.797 -0.3401 -1.2502  2.8173
12618TIP3    H259346   3.728   3.077  15.854 -0.2573 -0.7205  1.6122
12619TIP3   OH259347   6.727   0.977  16.071 -0.0698 -0.1647 -0.3964
12619TIP3    H159348   6.701   0.889  16.045 -0.6729 -0.1097  0.0051
12619TIP3    H259349   6.754   1.020  15.989 -1.1080 -0.2706 -0.7924
12620TIP3   OH259350   6.667   4.905   3.524 -0.2112 -0.1705 -0.1340
12620TIP3    H159351   6.743   4.939   3.476 -0.2169 -0.3673 -0.2828
12620TIP3    H259352   6.641   4.978   3.581 -1.4590  0.8163 -1.8915
12621TIP3   OH259353   3.097   3.916   5.374 -0.3796  0.2265  0.2177
12621TIP3    H159354   3.192   3.922   5.375 -0.2826 -0.9047 -0.8867
12621TIP3    H259355   3.078   3.844   5.314 -1.9228  0.2852  0.6127
12622TIP3   OH259356   0.339   6.563   3.717  0.6323 -0.1334  0.3225
12622TIP3    H159357   0.413   6.612   3.753 -0.0917  0.7584  0.6240
12622TIP3    H259358   0.273   6.567   3.785 -0.2069  0.2897 -0.5045
12623TIP3   OH259359   3.999   2.175   1.477  0.1060 -0.7026  0.0381
12623TIP3    H159360   4.003   2.254   1.530 -0.0867 -0.9387  0.4063
12623TIP3    H259361   4.076   2.179   1.421 -0.6575  0.4558 -0.9384
12624TIP3   OH259362   6.502   0.706   2.297 -0.4081  0.2227 -0.3339
12624TIP3    H159363   6.485   0.732   2.207 -0.2691 -1.2022 -0.7783
12624TIP3    H259364   6.597   0.712   2.307 -0.5521  1.8543  0.1858
12625TIP3   OH259365   6.181   4.672   5.659  0.3004 -0.0228 -0.2572
12625TIP3    H159366   6.182   4.591   5.708  0.5561  0.9614  1.3915
12625TIP3    H259367   6.260   4.669   5.604  0.9783 -0.3225  0.7301
12626TIP3   OH259368   5.475   0.525   2.985  0.0185 -0.2475  0.1512
12626TIP3    H159369   5.529   0.556   3.057 -0.7914  0.2076  0.5614
12626TIP3    H259370   5.477   0.430   2.993  2.2745 -0.3289 -0.9428
12627TIP3   OH259371   0.956   3.348   4.928  0.0431  0.5438 -0.5195
12627TIP3    H159372   1.046   3.366   4.901  0.4538 -0.8780 -0.1451
12627TIP3    H259373   0.964   3.314   5.018 -1.0066  1.9977  0.1526
12628TIP3   OH259374   2.443   0.378  13.957  0.4120 -0.2208 -0.2607
12628TIP3    H159375   2.418   0.286  13.953  1.9442 -0.7066  0.5848
12628TIP3    H259376   2.512   0.386  13.891  2.3297 -0.3971  1.6661
12629TIP3   OH259377   1.895   5.233   1.222  0.2010  0.3325 -0.4557
12629TIP3    H159378   1.912   5.287   1.144  1.5700  0.1676 -0.2816
12629TIP3    H259379   1.961   5.261   1.285  0.4274 -1.0107 -0.0893
12630TIP3   OH259380   3.968   5.204   3.413  0.1030 -0.3069  0.1739
12630TIP3    H159381   4.053   5.238   3.386 -0.6310  2.2101  0.9114
12630TIP3    H259382   3.941   5.261   3.485 -2.1027 -1.2077  0.1060
12631TIP3   OH259383   0.618   1.585   6.164 -0.3333  0.6210  0.4476
12631TIP3    H159384   0.697   1.573   6.216  1.6738  2.3617 -2.0507
12631TIP3    H259385   0.614   1.679   6.149 -1.0353  0.1982 -2.1906
12632TIP3   OH259386   6.782   0.271   0.834 -0.5210 -0.6029  0.0738
12632TIP3    H159387   6.877   0.266   0.831 -0.5701 -1.2043 -0.9068
12632TIP3    H259388   6.756   0.283   0.742 -1.2694  1.8805  0.5742
12633TIP3   OH259389   6.232   2.897   4.857  0.5770 -0.0753  0.1886
12633TIP3    H159390   6.284   2.960   4.907  0.6785 -0.6217  0.7851
12633TIP3    H259391   6.174   2.951   4.803  1.9831  0.5475 -0.7279
12634TIP3   OH259392   6.714   5.120   1.940 -0.3017  0.1369  0.0173
12634TIP3    H159393   6.671   5.063   2.005 -2.6932  0.5714 -1.1323
12634TIP3    H259394   6.786   5.161   1.988 -1.1803 -0.6135  2.0292
12635TIP3   OH259395   0.637   2.043   5.083  0.0614  0.2934 -0.0831
12635TIP3    H159396   0.604   1.980   5.148  0.6029  0.9119  0.8044
12635TIP3    H259397   0.623   2.000   4.999 -3.2699  0.6540  0.2258
12636TIP3   OH259398   2.845   2.860   2.160  0.1665 -0.6893  0.1517
12636TIP3    H159399   2.907   2.795   2.193  1.5906  0.5910  0.0801
12636TIP3    H259400   2.762   2.839   2.203  1.1364 -1.2104  1.8106
12637TIP3   OH259401   0.221   1.191   6.261  0.1564 -0.2194  0.2753
12637TIP3    H159402   0.208   1.140   6.341 -0.9133  0.9872  0.8995
12637TIP3    H259403   0.220   1.282   6.291 -0.1907  0.2427 -1.0988
12638TIP3   OH259404   3.532   0.890  15.401  0.1505 -0.0177 -0.0857
12638TIP3    H159405   3.518   0.833  15.325  0.3042  0.6427 -0.6234
12638TIP3    H259406   3.593   0.957  15.369 -2.2834  2.1637 -0.3991
12639TIP3   OH259407   4.942   3.181  11.476 -0.0513 -0.1727  0.8445
12639TIP3    H159408   5.003   3.254  11.490 -0.7673  0.5038  0.5142
12639TIP3    H259409   4.948   3.163  11.383  1.7527 -2.0201  1.2818
12640TIP3   OH259410   0.307   5.864  13.878  0.1206 -0.0626 -0.3406
12640TIP3    H159411   0.383   5.912  13.910 -0.8311  0.6282  0.9429
12640TIP3    H259412   0.243   5.869  13.949 -1.0738 -0.7715 -1.3244
12641TIP3   OH259413   1.264   1.462   0.024 -0.0729 -0.0947 -0.5226
12641TIP3    H159414   1.347   1.504  -0.000  0.5077 -1.0264 -0.1571
12641TIP3    H259415   1.213   1.461  -0.058 -1.2730  3.9295  0.0759
12642TIP3   OH259416   2.444   5.535  15.202  0.0649  0.0870 -0.0059
12642TIP3    H159417   2.412   5.474  15.136 -1.7550  0.5857  0.3688
12642TIP3    H259418   2.518   5.491  15.243  0.4680 -0.7066 -1.5823
12643TIP3   OH259419   5.187   5.980   0.895  0.6715 -0.2033  0.4111
12643TIP3    H159420   5.107   5.972   0.946 -0.7166  1.1171 -1.4363
12643TIP3    H259421   5.177   6.065   0.850  2.2001 -0.9249 -1.3411
12644TIP3   OH259422   1.315   2.234  11.479 -0.7100 -0.0706  0.8479
12644TIP3    H159423   1.362   2.156  11.507 -1.6501 -0.1777  2.1470
12644TIP3    H259424   1.383   2.292  11.444  0.0138 -1.3612  0.1177
12645TIP3   OH259425   0.812   2.752  13.312 -0.5138  0.0596 -0.4610
12645TIP3    H159426   0.754   2.741  13.387 -0.5644  1.2883 -0.3100
12645TIP3    H259427   0.759   2.723  13.237 -1.8199  2.3975 -0.4982
12646TIP3   OH259428   6.494   4.847  10.618  0.6712  0.0044  0.1435
12646TIP3    H159429   6.412   4.873  10.577  0.6255 -0.2038  0.1010
12646TIP3    H259430   6.554   4.919  10.599  0.7667 -0.2706 -0.6388
12647TIP3   OH259431   3.155   1.354   3.598 -0.0597 -0.2245 -0.3796
12647TIP3    H159432   3.247   1.381   3.600  0.1567 -0.8412 -1.4683
12647TIP3    H259433   3.115   1.398   3.673  1.3478 -0.7241  0.7011
12648TIP3   OH259434   1.318   2.111  15.787 -0.2264 -0.2598 -0.4795
12648TIP3    H159435   1.311   2.129  15.881  2.4226  0.7837 -0.4307
12648TIP3    H259436   1.401   2.064  15.778  0.2917  0.9560 -2.4424
12649TIP3   OH259437   4.221   2.984  13.047 -0.3855  0.2857 -0.2315
12649TIP3    H159438   4.312   2.967  13.068 -0.5652 -0.0810  0.2565
12649TIP3    H259439   4.183   3.019  13.128 -0.5471  0.9300 -0.5867
12650TIP3   OH259440   6.690   0.255   4.157  0.2721 -0.0910  0.0112
12650TIP3    H159441   6.767   0.215   4.197  0.1742  1.2350  1.5857
12650TIP3    H259442   6.721   0.338   4.121 -0.6912  1.1813  2.0159
12651TIP3   OH259443   4.299   2.478   3.861 -0.0002 -0.0199 -1.1461
12651TIP3    H159444   4.210   2.442   3.862  0.4126 -1.0310 -0.1017
12651TIP3    H259445   4.286   2.573   3.865 -1.0150 -0.2055  0.3163
12652TIP3   OH259446   6.452   0.601  17.111  0.5755  0.0235  0.0378
12652TIP3    H159447   6.544   0.573  17.115  1.1967  2.0356  0.2951
12652TIP3    H259448   6.419   0.562  17.030  1.3429 -1.5770  0.4640
12653TIP3   OH259449   4.433   3.777  13.007  0.3327  0.0751  0.1657
12653TIP3    H159450   4.348   3.806  12.976  0.1133 -0.3689  0.3508
12653TIP3    H259451   4.419   3.688  13.037  0.4518  0.6131  1.8919
12654TIP3   OH259452   0.073   6.270  16.877  0.0664 -0.5967 -0.0033
12654TIP3    H159453   0.038   6.359  16.884  1.7268  0.0568  0.2277
12654TIP3    H259454   0.034   6.235  16.797 -0.8102  0.2444  0.0529
12655TIP3   OH259455   2.453   0.547   0.988  0.2737  0.2413 -0.0179
12655TIP3    H159456   2.509   0.622   0.968 -1.6496  1.1701 -2.0995
12655TIP3    H259457   2.416   0.565   1.074 -0.1950  1.6815 -0.5211
12656TIP3   OH259458   2.265   3.957   4.304 -0.0058  0.2875  0.1547
12656TIP3    H159459   2.182   3.962   4.258 -0.4478 -0.0982  0.9136
12656TIP3    H259460   2.242   3.957   4.397  0.8538  0.5559  0.3780
12657TIP3   OH259461   5.569   2.202  13.683 -0.5429 -0.8653 -0.4311
12657TIP3    H159462   5.510   2.266  13.643  0.5748 -1.5287 -3.3114
12657TIP3    H259463   5.622   2.253  13.743 -0.0574  0.8538 -2.2589
12658TIP3   OH259464   4.720   4.235   2.733  0.0673  0.0943 -0.5800
12658TIP3    H159465   4.728   4.145   2.704 -3.8131 -0.1540 -1.1268
12658TIP3    H259466   4.712   4.286   2.653  2.0123  0.9492 -0.2669
12659TIP3   OH259467   2.441   2.053   6.696 -0.6444 -0.0030 -0.6195
12659TIP3    H159468   2.507   2.060   6.766  0.6771  2.0077 -2.0227
12659TIP3    H259469   2.475   1.984   6.639 -1.1794 -0.8912  0.1139
12660TIP3   OH259470   4.660   4.499   2.579  0.0541 -0.0932  0.1176
12660TIP3    H159471   4.732   4.558   2.555 -0.5384  0.4938 -0.2017
12660TIP3    H259472   4.581   4.549   2.564 -0.3709  0.1179  2.8116
12661TIP3   OH259473   4.362   4.309   2.735  0.3419 -0.1965  0.4559
12661TIP3    H159474   4.438   4.332   2.682 -0.2252 -0.4675 -0.4943
12661TIP3    H259475   4.293   4.367   2.702 -0.0942 -0.5915  0.6738
12662TIP3   OH259476   4.184   0.239  15.992 -0.4082 -0.3560 -0.5237
12662TIP3    H159477   4.271   0.211  15.964 -0.8570 -2.4579  0.0669
12662TIP3    H259478   4.130   0.160  15.984 -2.1051  0.7508 -0.2595
12663TIP3   OH259479   0.314   2.958   5.525 -1.0405 -0.2610 -0.0544
12663TIP3    H159480   0.371   3.023   5.566  0.2126 -0.6445 -1.1589
12663TIP3    H259481   0.234   2.959   5.579  0.6055 -0.8532  2.4761
12664TIP3   OH259482   4.294   6.598   5.741 -0.4206  0.1949 -0.3749
12664TIP3    H159483   4.216   6.628   5.787 -0.2203  0.5805 -0.2855
12664TIP3    H259484   4.315   6.514   5.781 -0.5750  0.2650 -0.1449
12665TIP3   OH259485   4.014   5.358   4.735 -0.4868 -0.1525  0.0463
12665TIP3    H159486   3.950   5.300   4.694  0.2319 -1.2132  0.3970
12665TIP3    H259487   4.051   5.306   4.806 -0.7899  1.2126  1.2226
12666TIP3   OH259488   4.086   3.296   1.111 -0.1921  0.8208 -0.2677
12666TIP3    H159489   4.163   3.241   1.122  0.4759  1.5123 -1.3233
12666TIP3    H259490   4.011   3.237   1.122  0.4750  0.2962  1.5074
12667TIP3   OH259491   0.564   3.685   2.917 -0.7277  0.0686  0.3327
12667TIP3    H159492   0.588   3.756   2.857 -1.5581  0.3742  0.3582
12667TIP3    H259493   0.497   3.636   2.869 -2.9687  1.5606  1.8551
12668TIP3   OH259494   3.216   3.796   4.723  0.3395 -0.2009 -0.1601
12668TIP3    H159495   3.261   3.713   4.705  1.3078  0.1589  0.5598
12668TIP3    H259496   3.236   3.851   4.648 -0.6035 -0.7298 -0.8132
12669TIP3   OH259497   5.173   4.898  11.052  0.3098 -0.3277  0.5768
12669TIP3    H159498   5.230   4.881  10.977 -0.9918 -0.8008 -0.3107
12669TIP3    H259499   5.099   4.838  11.041 -0.5538  0.5393  1.5184
12670TIP3   OH259500   3.150   2.471   3.654  0.0721  0.2687  0.5066
12670TIP3    H159501   3.066   2.506   3.624 -0.4973 -0.7303  0.8984
12670TIP3    H259502   3.190   2.542   3.703 -0.0160  1.1462 -0.6640
12671TIP3   OH259503   0.883   2.056  13.243  0.5456 -0.1471  0.3939
12671TIP3    H159504   0.915   2.069  13.332 -1.2303 -1.6395  1.2864
12671TIP3    H259505   0.804   2.110  13.238  0.1097 -0.7989  0.0571
12672TIP3   OH259506   5.720   6.021  11.748 -0.0919 -0.3390  0.0233
12672TIP3    H159507   5.759   6.108  11.755  0.2554 -0.5293  0.4909
12672TIP3    H259508   5.664   6.013  11.825  0.2872 -0.7294  0.2624
12673TIP3   OH259509   0.433   4.767  16.607 -0.4574  0.1512  0.0764
12673TIP3    H159510   0.371   4.837  16.591 -0.4167  0.2076  0.1622
12673TIP3    H259511   0.459   4.737  16.520 -0.0591  0.6129  0.0312
12674TIP3   OH259512   0.218   5.150   2.295  0.2558  0.5228  0.7836
12674TIP3    H159513   0.289   5.212   2.276  0.7584  0.6812  2.9769
12674TIP3    H259514   0.261   5.079   2.343 -0.8418 -0.0312  0.9545
12675TIP3   OH259515   1.308   2.806  12.927 -0.0185 -0.1609  0.4900
12675TIP3    H159516   1.262   2.859  12.992  1.6818 -0.2589  1.8013
12675TIP3    H259517   1.398   2.802  12.958  0.8899 -0.0327 -1.9932
12676TIP3   OH259518   4.380   2.593   6.576  0.3232 -0.4820 -0.0504
12676TIP3    H159519   4.337   2.567   6.657  0.8597  0.1525  0.4392
12676TIP3    H259520   4.311   2.590   6.510 -0.3665  0.0992  0.6430
12677TIP3   OH259521   1.876   3.378   3.482  0.3982  0.0529 -0.2528
12677TIP3    H159522   1.809   3.312   3.498  2.3856 -1.4787  2.3078
12677TIP3    H259523   1.929   3.343   3.411  1.4236 -1.1332  1.0760
12678TIP3   OH259524   2.817   0.984  17.108 -0.5211 -0.3162 -0.4678
12678TIP3    H159525   2.757   0.925  17.062 -1.0228 -1.7619  1.9795
12678TIP3    H259526   2.761   1.047  17.151 -0.2469 -0.9011  0.7728
12679TIP3   OH259527   3.509   6.095   0.113  0.0472  0.0489 -0.0901
12679TIP3    H159528   3.416   6.103   0.090 -0.0033  0.3110  0.1969
12679TIP3    H259529   3.529   6.002   0.102 -0.4862 -0.1681  0.7217
12680TIP3   OH259530   2.723   1.898   4.104 -0.0408  0.3607  0.4642
12680TIP3    H159531   2.669   1.833   4.150  2.1668 -0.8339  1.4431
12680TIP3    H259532   2.733   1.969   4.167 -1.0280  0.8992  0.0242
12681TIP3   OH259533   2.136   5.938  16.479  0.4485 -0.2204 -0.5884
12681TIP3    H159534   2.043   5.941  16.501  0.2323  1.6110 -1.6475
12681TIP3    H259535   2.180   5.963  16.560  0.0477 -1.2582 -0.0371
12682TIP3   OH259536   5.151   6.811  10.643 -0.0850 -0.2792 -0.2893
12682TIP3    H159537   5.070   6.824  10.692 -0.5983 -1.5188 -0.7778
12682TIP3    H259538   5.149   6.878  10.574 -0.3953  0.0931  0.0807
12683TIP3   OH259539   1.582   5.724  14.340  0.2534  0.3347  0.5138
12683TIP3    H159540   1.570   5.755  14.250 -0.7878 -0.1029  0.4999
12683TIP3    H259541   1.647   5.655  14.333 -0.2436 -0.0838  0.0207
12684TIP3   OH259542   3.214   1.422  11.856  0.9064  0.0619 -0.0846
12684TIP3    H159543   3.145   1.479  11.822  1.1460 -0.9050 -2.2998
12684TIP3    H259544   3.222   1.353  11.790  1.6064 -1.7450  1.8446
12685TIP3   OH259545   0.353   2.187  15.456  0.2217  0.2408 -0.2077
12685TIP3    H159546   0.273   2.234  15.433  1.6294  2.7870 -0.1374
12685TIP3    H259547   0.366   2.125  15.384 -0.9921  0.8626 -0.9812
12686TIP3   OH259548   3.371   1.922  12.635 -0.4676 -0.0169 -0.6098
12686TIP3    H159549   3.465   1.902  12.643 -0.2756  0.3994 -1.6961
12686TIP3    H259550   3.361   1.953  12.545 -1.5684  0.4151 -0.3452
12687TIP3   OH259551   4.893   3.422  12.963 -0.4876  0.6739 -0.0814
12687TIP3    H159552   4.960   3.391  13.023 -0.0172 -0.5900 -1.2274
12687TIP3    H259553   4.843   3.486  13.013  0.4575  0.3093  1.3468
12688TIP3   OH259554   5.846   4.564  11.984  0.1265 -0.0834  0.3176
12688TIP3    H159555   5.804   4.574  12.070 -0.8290 -1.3041  0.0050
12688TIP3    H259556   5.895   4.646  11.972 -1.9873  1.2952  0.7712
12689TIP3   OH259557   2.170   0.167   1.699 -0.0071  0.4314  0.2737
12689TIP3    H159558   2.218   0.224   1.759 -1.7008  1.7881  0.4130
12689TIP3    H259559   2.083   0.208   1.692 -0.2634 -0.4344 -2.0677
12690TIP3   OH259560   6.420   5.835   3.913  0.2491 -0.1984  1.1997
12690TIP3    H159561   6.461   5.754   3.941 -0.4862 -1.5136 -1.4005
12690TIP3    H259562   6.470   5.863   3.837 -0.1684  1.2378  1.4264
12691TIP3   OH259563   2.301   3.087   0.771 -0.0584 -0.3925  0.5394
12691TIP3    H159564   2.353   3.039   0.835 -0.6939 -1.0250  0.5807
12691TIP3    H259565   2.367   3.131   0.716  0.5254 -1.1928  0.5867
12692TIP3   OH259566   4.825   1.081  15.787 -0.4098 -0.4952 -0.7091
12692TIP3    H159567   4.769   1.127  15.850  0.0217  1.3138 -1.6242
12692TIP3    H259568   4.914   1.110  15.808  0.0471 -2.1583 -0.2652
12693TIP3   OH259569   3.743   1.118  16.151 -0.0455 -0.0050  0.0609
12693TIP3    H159570   3.808   1.050  16.130  0.6433  1.1738 -1.7250
12693TIP3    H259571   3.683   1.117  16.077 -0.6129  0.6684  0.5103
12694TIP3   OH259572   6.629   4.089  16.358 -0.4650 -0.3993 -0.0518
12694TIP3    H159573   6.609   4.078  16.265  0.8190  0.1920 -0.4051
12694TIP3    H259574   6.557   4.141  16.392 -1.7309 -1.9109 -0.3919
12695TIP3   OH259575   1.733   2.251   1.405 -0.1098 -0.2064 -0.2539
12695TIP3    H159576   1.720   2.217   1.494 -0.1792 -0.7356 -0.4663
12695TIP3    H259577   1.691   2.337   1.406  2.4754  1.1270  1.1071
12696TIP3   OH259578   0.359   5.519  13.646  0.3570 -0.5356  0.4011
12696TIP3    H159579   0.292   5.478  13.701 -1.7451  0.6201 -1.1927
12696TIP3    H259580   0.329   5.609  13.635  2.5918  0.2154  0.2315
12697TIP3   OH259581   0.586   5.844  14.453 -0.0719  0.1851 -0.0160
12697TIP3    H159582   0.655   5.805  14.399 -1.3777  0.5261 -1.9685
12697TIP3    H259583   0.575   5.783  14.526  0.5156 -1.1631 -1.0438
12698TIP3   OH259584   2.703   6.393   5.476 -0.0356  0.0470  0.6402
12698TIP3    H159585   2.699   6.387   5.380  1.5455 -3.2199  0.7013
12698TIP3    H259586   2.612   6.400   5.503 -0.5373  0.5679 -1.0774
12699TIP3   OH259587   3.585   5.033  12.105 -0.6203 -0.0522  0.1907
12699TIP3    H159588   3.655   5.094  12.130 -1.1431  0.9121 -0.6946
12699TIP3    H259589   3.605   5.010  12.014  0.1906 -2.0653  0.8455
12700TIP3   OH259590   4.438   3.250  11.579  0.0593  0.7039  0.5632
12700TIP3    H159591   4.369   3.204  11.627 -0.8569  1.3732 -0.0911
12700TIP3    H259592   4.497   3.181  11.550 -0.4474  0.0989  0.9596
12701TIP3   OH259593   3.802   6.084  13.231  0.7844 -0.6135 -0.0064
12701TIP3    H159594   3.891   6.116  13.243  1.6289 -1.7985 -2.7284
12701TIP3    H259595   3.774   6.121  13.147 -2.0701  1.3985  1.7612
12702TIP3   OH259596   6.485   4.002   0.118  0.4844 -0.6622  0.1118
12702TIP3    H159597   6.462   3.936   0.183  1.7108 -1.1074  0.1173
12702TIP3    H259598   6.507   3.952   0.040  0.3929 -0.2068 -0.2071
12703TIP3   OH259599   5.951   3.112  15.526 -0.8238  0.4552 -0.8759
12703TIP3    H159600   5.904   3.044  15.574 -0.1505 -0.2896 -1.2515
12703TIP3    H259601   5.920   3.102  15.435 -1.1036  0.9916 -0.8438
12704TIP3   OH259602   3.638   6.544   2.041 -0.4310  0.3341  0.1869
12704TIP3    H159603   3.634   6.505   2.128 -1.0409  1.5779  0.7285
12704TIP3    H259604   3.679   6.630   2.055  1.1594 -0.1800 -1.0175
12705TIP3   OH259605   2.341   1.342  12.652  0.3211 -0.1813 -0.5145
12705TIP3    H159606   2.264   1.391  12.624 -0.1273 -1.2479 -1.1774
12705TIP3    H259607   2.343   1.352  12.747 -1.3728 -1.2140 -0.3652
12706TIP3   OH259608   1.750   4.418  15.954 -0.1069 -0.5987 -0.6225
12706TIP3    H159609   1.700   4.421  16.036 -0.1732 -0.6627 -0.6598
12706TIP3    H259610   1.717   4.340  15.909 -2.1491  0.9959 -2.0257
12707TIP3   OH259611   4.755   6.085   1.346  0.3007 -0.3812  0.0698
12707TIP3    H159612   4.833   6.127   1.309 -0.7507  1.9012  0.3632
12707TIP3    H259613   4.757   6.109   1.439 -0.4762 -0.7436  0.1818
12708TIP3   OH259614   4.001   1.323   3.863  0.1502  0.2306 -0.2218
12708TIP3    H159615   4.042   1.260   3.804 -0.5435 -0.2228 -0.2299
12708TIP3    H259616   4.074   1.364   3.909  0.5308 -2.6182  1.8843
12709TIP3   OH259617   6.695   6.407   1.435  0.6306  0.3137  0.3605
12709TIP3    H159618   6.738   6.370   1.513 -0.9557  1.5033  1.8276
12709TIP3    H259619   6.663   6.330   1.387  2.6635 -0.4943  0.2322
12710TIP3   OH259620   5.742   4.401  10.557  0.1210 -0.2919  0.1613
12710TIP3    H159621   5.743   4.308  10.537  0.1592 -0.3176  0.2812
12710TIP3    H259622   5.734   4.444  10.472 -0.5558 -0.4195  0.1572
12711TIP3   OH259623   1.147   5.952   6.322 -0.0758  0.0276 -0.0448
12711TIP3    H159624   1.170   5.862   6.346  2.8447  0.3561 -1.3518
12711TIP3    H259625   1.214   6.005   6.366 -2.1513  1.6628  1.2520
12712TIP3   OH259626   5.200   4.786  13.485  0.8431  0.4021  0.3308
12712TIP3    H159627   5.296   4.795  13.489  0.7896  0.6208  1.1067
12712TIP3    H259628   5.186   4.695  13.462  1.2264  0.1499  1.0873
12713TIP3   OH259629   2.630   3.637  12.706 -0.0721 -0.4524 -0.0828
12713TIP3    H159630   2.604   3.722  12.742 -0.0634 -1.4435  2.3577
12713TIP3    H259631   2.548   3.591  12.690 -0.0699 -0.0833 -1.2425
12714TIP3   OH259632   6.766   0.939   1.995  0.2958 -0.4804 -0.2509
12714TIP3    H159633   6.734   0.930   2.085 -1.1346  0.8167 -0.6179
12714TIP3    H259634   6.770   1.033   1.980 -0.2772 -0.6843 -1.8084
12715TIP3   OH259635   1.671   6.673  13.803 -0.8925  0.2926  0.0718
12715TIP3    H159636   1.675   6.609  13.875 -1.1034 -0.6067 -0.6972
12715TIP3    H259637   1.673   6.758  13.846  1.2881 -0.2124  1.0405
12716TIP3   OH259638   4.990   5.190  11.153 -0.0343 -0.1320 -0.4041
12716TIP3    H159639   4.980   5.098  11.131  1.7051 -0.4737  0.1501
12716TIP3    H259640   5.074   5.215  11.113  0.4428  0.6961  1.0698
12717TIP3   OH259641   5.286   6.259   5.040  0.1755  0.7705  0.3029
12717TIP3    H159642   5.278   6.166   5.060  0.7423  0.6157 -0.2053
12717TIP3    H259643   5.331   6.263   4.956  0.6372  1.5194  0.5810
12718TIP3   OH259644   4.544   2.632   2.115  0.1703 -0.3138 -0.0292
12718TIP3    H159645   4.506   2.715   2.144  2.0725  0.1150  1.3240
12718TIP3    H259646   4.555   2.642   2.021  0.0434  0.8372  0.0712
12719TIP3   OH259647   0.657   6.155  12.054 -0.3930 -0.1789 -0.4864
12719TIP3    H159648   0.634   6.087  11.990 -0.1953 -0.9363  0.2435
12719TIP3    H259649   0.601   6.230  12.030  0.1229 -0.2411 -1.9202
12720TIP3   OH259650   1.531   1.868  14.092 -0.2325 -0.1293  0.0400
12720TIP3    H159651   1.457   1.925  14.109 -0.4816 -0.1439 -0.9791
12720TIP3    H259652   1.520   1.795  14.153  0.1448  0.9560  1.4097
12721TIP3   OH259653   2.045   0.884   3.135  0.3959  0.8190  0.8274
12721TIP3    H159654   2.064   0.791   3.147 -0.7414  0.1190 -2.2873
12721TIP3    H259655   2.131   0.925   3.126  0.8505 -0.2770  0.0344
12722TIP3   OH259656   1.317   4.117  13.166 -0.0146  0.6974  0.2453
12722TIP3    H159657   1.331   4.193  13.109  1.1334  1.5506  1.6393
12722TIP3    H259658   1.353   4.143  13.250 -0.1663 -1.1869  0.9156
12723TIP3   OH259659   0.944   2.780  15.474  0.3553  0.6334  0.3000
12723TIP3    H159660   0.966   2.864  15.435 -0.1866 -0.0374 -1.4972
12723TIP3    H259661   1.022   2.726  15.459 -0.2958  0.0137 -0.9419
12724TIP3   OH259662   3.693   0.070   0.139  0.2846 -0.2177 -0.3733
12724TIP3    H159663   3.774   0.056   0.188  0.7032 -1.0349 -1.2832
12724TIP3    H259664   3.649  -0.015   0.141  0.0187 -0.0924 -0.9083
12725TIP3   OH259665   2.443   6.457   5.550 -0.4741  0.2697 -0.1120
12725TIP3    H159666   2.390   6.515   5.495  0.0864  0.2383 -0.6904
12725TIP3    H259667   2.399   6.373   5.544  0.6247 -0.2029 -2.0403
12726TIP3   OH259668   6.149   1.562   3.172 -0.1810  0.0858 -0.0869
12726TIP3    H159669   6.122   1.610   3.093  0.4568 -0.9223 -0.9240
12726TIP3    H259670   6.133   1.470   3.151  1.2480 -0.2937  0.4594
12727TIP3   OH259671   5.302   0.375  15.030  0.6689  0.3603 -0.2924
12727TIP3    H159672   5.280   0.284  15.050 -0.8320  0.9127  0.6181
12727TIP3    H259673   5.362   0.369  14.956  0.1883 -1.3472 -0.5683
12728TIP3   OH259674   3.525   5.086  14.148 -0.0469  0.2212 -0.0438
12728TIP3    H159675   3.605   5.063  14.196 -1.3065 -1.8770  1.0968
12728TIP3    H259676   3.464   5.116  14.215 -0.8986 -0.1131 -0.6572
12729TIP3   OH259677   2.224   3.901  12.868 -1.0108 -0.7085 -0.0498
12729TIP3    H159678   2.166   3.876  12.940 -2.2852  0.5620 -0.6269
12729TIP3    H259679   2.183   3.978  12.830 -0.9394 -1.9796 -2.8300
12730TIP3   OH259680   5.191   5.983  11.776 -0.0100  0.2597  0.5775
12730TIP3    H159681   5.114   6.017  11.821 -0.7992 -1.0492  0.2528
12730TIP3    H259682   5.158   5.908  11.726  1.6748 -1.0223  1.3584
12731TIP3   OH259683   1.788   5.900   5.733 -0.4634 -0.0209  0.2300
12731TIP3    H159684   1.789   5.825   5.673 -1.3177 -0.1413  0.3672
12731TIP3    H259685   1.722   5.878   5.798  0.0429  0.3821  0.8786
12732TIP3   OH259686   3.687   4.778   2.060 -0.1754 -0.1229  0.0919
12732TIP3    H159687   3.664   4.853   2.005 -3.7816 -0.2496  1.2726
12732TIP3    H259688   3.656   4.702   2.011  2.2718 -0.7763 -0.5016
12733TIP3   OH259689   2.446   6.272   0.371 -0.5673  0.0774  0.3725
12733TIP3    H159690   2.366   6.222   0.385 -0.1081 -0.7810 -0.0349
12733TIP3    H259691   2.511   6.207   0.343  0.0152  0.9058 -0.2375
12734TIP3   OH259692   0.010   1.438  15.857 -0.0730 -0.3189 -0.0536
12734TIP3    H159693   0.100   1.438  15.889 -0.1785  1.6074  0.2972
12734TIP3    H259694  -0.001   1.352  15.817  1.7750 -0.7451  0.3048
12735TIP3   OH259695   6.700   3.371   2.275 -0.0312 -0.0891  0.0279
12735TIP3    H159696   6.644   3.416   2.211 -0.7535 -1.0445 -0.0376
12735TIP3    H259697   6.658   3.285   2.286  0.3430 -0.0933  1.4512
12736TIP3   OH259698   3.928   5.920  11.839  0.0794  0.2163  0.3140
12736TIP3    H159699   4.014   5.928  11.880 -0.3267 -0.0824  1.2455
12736TIP3    H259700   3.927   5.989  11.773  0.5620  1.0381  1.1475
12737TIP3   OH259701   0.621   0.775   2.479 -1.1201  0.6165 -0.5804
12737TIP3    H159702   0.665   0.789   2.396  1.4529 -1.4267  0.3478
12737TIP3    H259703   0.651   0.847   2.535  1.2575 -0.8733  0.1042
12738TIP3   OH259704   4.345   3.963  15.166 -0.2685 -0.4443  0.5305
12738TIP3    H159705   4.340   3.989  15.258  1.6258 -0.0613  0.5473
12738TIP3    H259706   4.349   4.045  15.118  2.3930 -0.6243  0.3658
12739TIP3   OH259707   5.672   3.902   1.811  0.4552  0.1202 -0.2374
12739TIP3    H159708   5.627   3.931   1.731  1.1894  2.0580  0.0147
12739TIP3    H259709   5.622   3.943   1.882  1.6900  1.0298  0.1183
12740TIP3   OH259710   3.455   5.324  14.831  0.3114 -0.0412 -0.2682
12740TIP3    H159711   3.466   5.238  14.872 -0.3210 -0.0359 -0.0823
12740TIP3    H259712   3.535   5.372  14.854  0.8329 -0.7126 -0.7029
12741TIP3   OH259713   3.265   6.678   0.055 -0.0479 -0.1038  0.4671
12741TIP3    H159714   3.357   6.653   0.063 -0.4766 -3.1719 -2.7688
12741TIP3    H259715   3.228   6.661   0.142  1.7513 -2.1164  0.8866
12742TIP3   OH259716   3.455   3.230   3.103  0.1709  0.2008 -0.4434
12742TIP3    H159717   3.472   3.246   3.196  1.4712 -0.7694 -0.5050
12742TIP3    H259718   3.538   3.195   3.069 -0.1749  0.8996 -2.0501
12743TIP3   OH259719   2.865   2.423   6.631 -0.7380 -0.3074  0.2153
12743TIP3    H159720   2.775   2.393   6.646 -0.5255 -0.4600  1.2399
12743TIP3    H259721   2.896   2.450   6.717  0.2122 -0.2881 -0.1245
12744TIP3   OH259722   1.649   2.172   5.123 -0.4766 -0.2454  0.0572
12744TIP3    H159723   1.672   2.079   5.123 -1.4779 -0.4896 -0.4648
12744TIP3    H259724   1.682   2.204   5.039 -2.1511 -0.6278 -0.7576
12745TIP3   OH259725   0.662   1.476  16.234 -0.8847  0.3095 -0.1212
12745TIP3    H159726   0.696   1.549  16.286 -0.9937 -0.2491  0.7534
12745TIP3    H259727   0.582   1.510  16.195  0.9663  1.8577 -2.7466
12746TIP3   OH259728   4.768   2.129  16.754  0.2451 -0.2921 -0.2205
12746TIP3    H159729   4.808   2.162  16.673  0.5647 -0.9052 -0.3198
12746TIP3    H259730   4.816   2.049  16.773  0.7721  0.3142  1.0719
12747TIP3   OH259731   4.037   4.066   1.384  0.0484  0.6898  0.4048
12747TIP3    H159732   4.065   4.018   1.306 -0.8963  1.9474 -0.7526
12747TIP3    H259733   4.069   4.155   1.369  0.8033  0.6913  1.9836
12748TIP3   OH259734   0.260   5.621  16.999 -0.3729 -0.1108 -0.1830
12748TIP3    H159735   0.274   5.530  16.974  0.6513  0.0535 -0.2240
12748TIP3    H259736   0.303   5.672  16.930 -0.6164  0.3985  0.0379
12749TIP3   OH259737   5.461   1.601   0.133  0.0185  0.2389  0.0101
12749TIP3    H159738   5.414   1.526   0.094  1.0175 -0.1656 -0.4382
12749TIP3    H259739   5.527   1.623   0.068 -0.0435  1.2961  0.3056
12750TIP3   OH259740   4.895   6.375  11.148  0.1338 -0.4040 -0.6199
12750TIP3    H159741   4.832   6.323  11.198 -1.4687  1.4515 -0.6261
12750TIP3    H259742   4.937   6.432  11.213 -0.7189  0.7973 -1.0845
12751TIP3   OH259743   6.418   0.934  11.280  0.2641  0.4852  0.0795
12751TIP3    H159744   6.398   0.846  11.247 -1.1727  0.0864  1.9297
12751TIP3    H259745   6.352   0.950  11.347  1.2084  2.5334  0.5569
12752TIP3   OH259746   1.267   5.808   1.226 -1.0511 -0.7736  0.7059
12752TIP3    H159747   1.224   5.891   1.206 -1.9300 -1.1531  1.0043
12752TIP3    H259748   1.348   5.833   1.271 -1.0523 -0.0654  0.3235
12753TIP3   OH259749   1.735   6.463  13.994  0.0446  0.2392  0.3739
12753TIP3    H159750   1.782   6.399  13.941  1.6547  0.0134  2.0326
12753TIP3    H259751   1.656   6.417  14.024  1.2253 -1.0094  1.6200
12754TIP3   OH259752   3.898   3.128  12.258  0.1121  0.3147  0.7519
12754TIP3    H159753   3.921   3.092  12.344 -1.0102 -0.9557  0.5479
12754TIP3    H259754   3.961   3.089  12.197  0.1320  0.2453  0.8177
12755TIP3   OH259755   3.929   3.203  10.822 -0.4495  0.3248  0.3933
12755TIP3    H159756   3.959   3.213  10.731 -1.6453 -1.9512 -0.2900
12755TIP3    H259757   3.938   3.291  10.859 -0.7091  1.5061 -2.1686
12756TIP3   OH259758   4.570   3.644   4.080  0.1788 -0.0602  0.3795
12756TIP3    H159759   4.652   3.692   4.093  0.3679 -0.2248 -0.1917
12756TIP3    H259760   4.539   3.672   3.994  0.3425 -1.0328 -0.0052
12757TIP3   OH259761   6.762   0.805  10.738 -0.9726 -0.3696 -0.4390
12757TIP3    H159762   6.708   0.731  10.710 -0.2829 -0.6219 -1.1128
12757TIP3    H259763   6.731   0.824  10.827  0.5228 -3.0922  0.7471
12758TIP3   OH259764   4.270   1.887  11.839 -0.5711  0.3292  0.7088
12758TIP3    H159765   4.226   1.953  11.893 -0.5966  1.0166 -0.1594
12758TIP3    H259766   4.255   1.805  11.886 -2.9504  0.5056  0.3325
12759TIP3   OH259767   4.184   3.831  10.604  0.1156 -0.0287  0.2235
12759TIP3    H159768   4.141   3.768  10.547 -0.1276  0.2494  0.0936
12759TIP3    H259769   4.111   3.882  10.642  0.2685 -0.2561  0.8293
12760TIP3   OH259770   5.404   2.742   6.036 -0.5942  0.2439 -0.8473
12760TIP3    H159771   5.405   2.710   6.127  0.4571  0.6068 -0.7269
12760TIP3    H259772   5.312   2.753   6.016 -0.8004  1.4840  0.6489
12761TIP3   OH259773   0.600   4.556   0.019  0.4099  0.0133  0.4971
12761TIP3    H159774   0.642   4.477   0.053 -0.3679  0.1512  1.8257
12761TIP3    H259775   0.643   4.572  -0.065  2.4837 -0.2812  1.4568
12762TIP3   OH259776   5.696   0.703  15.244 -0.3671  0.0027  0.3409
12762TIP3    H159777   5.628   0.761  15.277 -1.7472 -1.4300  0.0842
12762TIP3    H259778   5.685   0.704  15.149  1.1093  1.1192  0.1698
12763TIP3   OH259779   4.169   6.286   3.588 -0.0790 -0.4433 -0.2591
12763TIP3    H159780   4.258   6.322   3.598 -1.1875  2.0785  1.2951
12763TIP3    H259781   4.147   6.254   3.676 -0.6356 -1.2299 -0.6867
12764TIP3   OH259782   5.930   3.223  12.707  0.1313  0.2891 -0.7041
12764TIP3    H159783   5.948   3.158  12.639 -1.3937 -0.5930 -0.2796
12764TIP3    H259784   5.954   3.180  12.789 -0.8151  0.2844 -0.4273
12765TIP3   OH259785   0.932   3.726  14.952  0.4071  0.1881 -0.0853
12765TIP3    H159786   0.947   3.793  14.886 -0.8001 -0.5353 -1.1211
12765TIP3    H259787   0.946   3.771  15.036 -0.1905  1.6762 -0.7628
12766TIP3   OH259788   0.108   1.150  11.809 -0.4261 -0.1457  0.2581
12766TIP3    H159789   0.061   1.146  11.893 -1.2565  0.4150 -0.1760
12766TIP3    H259790   0.140   1.061  11.795  2.4574  0.4097  2.7153
12767TIP3   OH259791   1.172   0.555   3.871  0.5827 -0.0616  0.0064
12767TIP3    H159792   1.256   0.512   3.886  0.4067 -0.7270 -0.8546
12767TIP3    H259793   1.192   0.627   3.812  0.6815  0.2822  0.4613
12768TIP3   OH259794   1.509   2.258  14.438  0.1486 -0.2718 -0.3272
12768TIP3    H159795   1.424   2.250  14.394  0.7098 -0.2878 -1.4398
12768TIP3    H259796   1.569   2.208  14.382  0.6052 -1.5435  1.2540
12769TIP3   OH259797   0.136   1.927  14.900  0.0757  0.2313 -0.1795
12769TIP3    H159798   0.190   1.994  14.857 -0.1434  1.2440  1.0905
12769TIP3    H259799   0.046   1.953  14.882 -0.0245  0.8261  1.0948
12770TIP3   OH259800   5.583   1.922  13.030  0.1386  0.0398  0.3334
12770TIP3    H159801   5.629   1.842  13.054 -1.2152 -0.6722  0.5807
12770TIP3    H259802   5.547   1.903  12.943 -0.3414  0.3226  0.4717
12771TIP3   OH259803   0.662   0.201   3.108 -0.1617  0.2110 -0.1017
12771TIP3    H159804   0.721   0.127   3.090 -1.5578 -1.1948  0.9372
12771TIP3    H259805   0.580   0.177   3.065 -0.6536  1.1210  0.3169
12772TIP3   OH259806   0.969   5.093   6.775 -0.0477  0.3541 -0.1698
12772TIP3    H159807   0.891   5.144   6.793 -0.7461 -0.7190 -0.1328
12772TIP3    H259808   0.968   5.079   6.680  0.3986  0.8112 -0.2469
12773TIP3   OH259809   4.101   6.266  16.880 -0.3803  0.1882  0.2465
12773TIP3    H159810   4.182   6.218  16.897 -0.2493 -0.3546 -1.7521
12773TIP3    H259811   4.091   6.262  16.785 -3.1738 -0.4433  0.5334
12774TIP3   OH259812   4.094   5.958   1.894  0.1466  0.6255 -0.2300
12774TIP3    H159813   4.105   5.920   1.807 -1.9682  0.7917 -0.6092
12774TIP3    H259814   4.136   6.044   1.888 -0.3963  0.8296 -1.2354
12775TIP3   OH259815   3.685   2.524  12.847 -0.1982  0.0976  0.2674
12775TIP3    H159816   3.655   2.492  12.762 -1.4535 -0.3582  0.8692
12775TIP3    H259817   3.722   2.610  12.829  0.2298 -0.3145 -0.8551
12776TIP3   OH259818   1.751   4.199   3.759 -0.4872 -0.0594 -0.1376
12776TIP3    H159819   1.762   4.104   3.751  0.2519  0.0384 -0.3833
12776TIP3    H259820   1.769   4.218   3.850 -1.2374 -0.2259  0.0509
12777TIP3   OH259821   0.929   5.490  17.232  0.5173  0.0894  0.2814
12777TIP3    H159822   0.997   5.522  17.291  3.3045  0.3105 -2.8786
12777TIP3    H259823   0.933   5.395  17.241 -0.4047  0.1857  1.8332
12778TIP3   OH259824   5.564   1.140  11.695  0.0907 -0.8842  0.1679
12778TIP3    H159825   5.474   1.127  11.725 -0.3639 -0.3214 -0.9321
12778TIP3    H259826   5.615   1.078  11.747 -0.9206 -1.1664  0.8498
12779TIP3   OH259827   5.875   3.469  13.310 -0.5170 -0.8478 -0.0420
12779TIP3    H159828   5.848   3.379  13.329  0.6961 -0.5567  3.3862
12779TIP3    H259829   5.794   3.518  13.306 -1.2109 -2.0807 -2.1733
12780TIP3   OH259830   3.580   0.534   6.214 -0.1275  0.0454  0.4629
12780TIP3    H159831   3.514   0.467   6.232  0.5571 -0.3731  1.4638
12780TIP3    H259832   3.653   0.486   6.175 -0.0285  0.3581  0.2605
12781TIP3   OH259833   4.265   4.798  15.697 -0.3673 -0.3541  0.0816
12781TIP3    H159834   4.216   4.852  15.759 -1.7968 -0.3710 -0.9798
12781TIP3    H259835   4.313   4.860  15.643 -0.6694 -0.2268 -0.0434
12782TIP3   OH259836   2.128   3.736  11.947 -0.0554  0.3468  0.4402
12782TIP3    H159837   2.194   3.746  12.015 -0.5815  0.4537  0.9304
12782TIP3    H259838   2.153   3.655  11.902 -0.3822 -0.3574  1.5060
12783TIP3   OH259839   1.112   3.480   5.609 -0.2163  0.3112 -0.0851
12783TIP3    H159840   1.044   3.546   5.595 -1.2906 -0.8463 -0.4314
12783TIP3    H259841   1.088   3.408   5.550  0.5859 -0.6403  0.7247
12784TIP3   OH259842   0.802   6.008  15.935  0.5297 -0.4902  0.1597
12784TIP3    H159843   0.800   6.099  15.966  1.3908 -0.9348  1.5452
12784TIP3    H259844   0.717   5.972  15.960  0.6483 -0.4144  0.6705
12785TIP3   OH259845   3.150   5.614   5.198  0.4111  0.2534  0.1878
12785TIP3    H159846   3.182   5.577   5.115 -0.8834  0.1960 -0.2975
12785TIP3    H259847   3.170   5.547   5.263  3.0687  1.0324  0.2636
12786TIP3   OH259848   3.329   3.963   1.528 -0.2533 -0.6934  0.7404
12786TIP3    H159849   3.413   4.001   1.555 -1.8663  0.5560  4.2957
12786TIP3    H259850   3.298   4.020   1.458  1.1833 -0.3301  0.3748
12787TIP3   OH259851   3.087   5.907   3.858 -0.2092  0.2937  0.1277
12787TIP3    H159852   3.047   5.823   3.884 -1.4591  0.4176 -1.3339
12787TIP3    H259853   3.176   5.903   3.895 -0.5320 -1.3091  0.8037
12788TIP3   OH259854   4.379   5.351   5.617 -0.0720  0.2625  0.3072
12788TIP3    H159855   4.465   5.383   5.644  0.2498  1.6698 -2.2766
12788TIP3    H259856   4.330   5.343   5.699  2.4577 -0.4988  1.8197
12789TIP3   OH259857   1.088   1.243   4.503  0.1527 -0.0575  0.2554
12789TIP3    H159858   1.023   1.296   4.549 -0.7774 -0.1111 -0.9743
12789TIP3    H259859   1.169   1.256   4.553 -0.5687  0.7913  1.2265
12790TIP3   OH259860   4.885   0.825  13.755  0.5948 -0.8607  0.1704
12790TIP3    H159861   4.936   0.753  13.717  0.5422 -0.2152 -1.1715
12790TIP3    H259862   4.948   0.896  13.766  0.3461 -0.6307  0.1132
12791TIP3   OH259863   1.622   5.835   1.922 -0.6269 -0.1557  0.2893
12791TIP3    H159864   1.566   5.913   1.920  0.7437  0.8163 -1.3913
12791TIP3    H259865   1.693   5.858   1.983  1.1413  0.9144 -2.1059
12792TIP3   OH259866   5.802   2.620   6.235 -0.7886  0.3507 -0.1694
12792TIP3    H159867   5.889   2.580   6.244 -1.5908 -1.6870 -1.1828
12792TIP3    H259868   5.810   2.705   6.279  1.1021 -0.7045  1.6119
12793TIP3   OH259869   4.750   2.299   1.569  0.0274 -0.8396 -0.1752
12793TIP3    H159870   4.689   2.246   1.619 -0.2847  0.4588  0.8518
12793TIP3    H259871   4.695   2.360   1.520  0.3579 -1.7680 -1.7452
12794TIP3   OH259872   0.283   2.401   2.828  0.6439 -0.2842  0.8152
12794TIP3    H159873   0.188   2.397   2.844  0.4102 -1.5122 -0.7751
12794TIP3    H259874   0.305   2.494   2.837 -1.2769  0.4990 -1.8108
12795TIP3   OH259875   6.671   2.322  15.169 -0.3053 -0.1628 -0.1701
12795TIP3    H159876   6.607   2.277  15.113 -0.0989 -0.6999  0.0283
12795TIP3    H259877   6.702   2.395  15.115 -1.6159  0.5307  0.0002
12796TIP3   OH259878   0.828   6.473  13.841 -0.7072  0.4448 -0.4565
12796TIP3    H159879   0.779   6.419  13.779  0.5431 -0.6567 -0.5205
12796TIP3    H259880   0.909   6.494  13.795 -0.5334  1.1176  0.1499
12797TIP3   OH259881   2.478   3.873  14.706  0.4603  0.1331 -0.0527
12797TIP3    H159882   2.384   3.859  14.702  0.4821  0.1000 -0.5561
12797TIP3    H259883   2.515   3.801  14.655  0.7478  0.2196  0.0350
12798TIP3   OH259884   4.860   3.461  16.851 -0.6662  0.2835 -1.1118
12798TIP3    H159885   4.939   3.433  16.897  0.0176  1.5691 -1.4681
12798TIP3    H259886   4.805   3.384  16.849 -1.0159  0.3342  2.4594
12799TIP3   OH259887   4.062   2.223   5.900  0.0007 -0.2916 -0.0484
12799TIP3    H159888   3.992   2.286   5.918  0.0222 -0.4973  0.7990
12799TIP3    H259889   4.098   2.250   5.815 -0.3147  0.5364  0.0735
12800TIP3   OH259890   0.076   4.815   1.320  0.0238 -0.2289 -0.4988
12800TIP3    H159891   0.010   4.878   1.290 -0.4571 -0.5086 -0.0433
12800TIP3    H259892   0.033   4.730   1.312 -0.6461 -0.2114  2.3310
12801TIP3   OH259893   2.559   4.475  14.714 -0.1108  0.0713  0.5218
12801TIP3    H159894   2.463   4.470  14.708 -0.1417 -2.8714  2.3777
12801TIP3    H259895   2.578   4.568  14.727 -2.7480  0.6355  0.5606
12802TIP3   OH259896   0.415   4.324  16.547 -0.5222 -0.0590  0.7689
12802TIP3    H159897   0.398   4.247  16.492 -1.3854 -0.8698  2.1303
12802TIP3    H259898   0.365   4.307  16.627  0.5043  1.2211  1.6984
12803TIP3   OH259899   0.674   0.584  16.923 -0.6273  0.1642  0.0522
12803TIP3    H159900   0.610   0.619  16.860  0.9891  0.5046 -1.4431
12803TIP3    H259901   0.706   0.503  16.882 -0.3076 -0.1560  0.9270
12804TIP3   OH259902   2.075   0.129   3.320 -0.2838  0.8033 -0.1629
12804TIP3    H159903   2.064   0.053   3.263 -1.7463  0.6618  0.2820
12804TIP3    H259904   2.159   0.167   3.294  0.4069 -0.8951 -0.4545
12805TIP3   OH259905   4.427   5.737   0.260 -0.1595 -0.2046 -0.0658
12805TIP3    H159906   4.497   5.791   0.225  1.1347 -0.6660  1.7097
12805TIP3    H259907   4.347   5.773   0.222  0.8734  1.5164 -0.6585
12806TIP3   OH259908   5.949   6.613   1.457 -0.1462 -0.3562 -0.1050
12806TIP3    H159909   5.891   6.689   1.449 -1.8000 -1.5489  0.3918
12806TIP3    H259910   6.036   6.647   1.435 -0.7941  1.7842  0.5440
12807TIP3   OH259911   1.209   0.131   5.547  0.2054  0.0300 -0.3101
12807TIP3    H159912   1.200   0.077   5.469  0.2695 -0.8488  0.2837
12807TIP3    H259913   1.298   0.113   5.579 -0.3488 -0.7801  0.8174
12808TIP3   OH259914   4.754   6.630  15.978 -0.6337  0.2319  0.1855
12808TIP3    H159915   4.771   6.701  16.041  0.6344 -1.5690  1.9336
12808TIP3    H259916   4.761   6.672  15.892 -0.0870  2.2571  1.1751
12809TIP3   OH259917   1.098   0.554   1.250  0.4615  0.1415 -0.3084
12809TIP3    H159918   1.153   0.583   1.178 -0.3734  0.9832 -0.6234
12809TIP3    H259919   1.026   0.507   1.208  0.4000 -0.0675  0.0291
12810TIP3   OH259920   6.394   5.603   2.579  0.4762 -0.1537  0.5144
12810TIP3    H159921   6.463   5.575   2.639  0.1347  0.0967  1.0255
12810TIP3    H259922   6.329   5.646   2.635 -0.8937 -1.8380  0.2612
12811TIP3   OH259923   3.021   3.084   2.933 -0.3481 -0.7857  0.0170
12811TIP3    H159924   3.045   3.028   3.007 -0.2938 -0.3750  0.3113
12811TIP3    H259925   2.927   3.070   2.922 -0.7614  0.6725  1.4610
12812TIP3   OH259926   5.965   3.428   2.558 -0.2597 -0.4732 -0.6067
12812TIP3    H159927   5.983   3.384   2.641 -1.0029 -0.2648 -0.3266
12812TIP3    H259928   5.888   3.382   2.524 -0.3411 -0.1407 -0.8703
12813TIP3   OH259929   4.290   0.730   4.505 -0.1448  0.1179  0.0578
12813TIP3    H159930   4.299   0.639   4.532 -2.6347 -0.2623 -0.2449
12813TIP3    H259931   4.373   0.771   4.528  1.1319 -2.3101 -0.1421
12814TIP3   OH259932   3.383   4.736   2.126 -0.0647 -0.7035  0.1678
12814TIP3    H159933   3.467   4.719   2.083  0.7003  0.5565  1.1262
12814TIP3    H259934   3.335   4.791   2.065  1.0168  1.0763  0.8778
12815TIP3   OH259935   0.283   1.968  13.013 -0.0141 -0.1316  0.2857
12815TIP3    H159936   0.283   1.895  12.951  0.1032  0.5667 -0.5321
12815TIP3    H259937   0.325   1.932  13.091 -0.4070 -1.0912  0.0650
12816TIP3   OH259938   6.552   0.926  12.185 -1.0956 -0.3564  0.4391
12816TIP3    H159939   6.527   0.859  12.121 -0.9654 -1.8393  1.8903
12816TIP3    H259940   6.487   0.995  12.174 -1.5812 -0.9838 -0.7070
12817TIP3   OH259941   4.656   3.498  13.425 -0.9409  0.4050 -0.4747
12817TIP3    H159942   4.698   3.504  13.339 -0.6723 -2.4030 -0.6021
12817TIP3    H259943   4.717   3.542  13.485  1.7641 -2.6775 -0.8338
12818TIP3   OH259944   3.338   1.503  15.256 -0.0490 -0.0255  0.3395
12818TIP3    H159945   3.248   1.499  15.224 -0.6479 -2.8620  2.2024
12818TIP3    H259946   3.376   1.419  15.231  1.1506 -0.0577  2.1680
12819TIP3   OH259947   5.660   4.839  16.271 -0.3841  0.0205  0.1368
12819TIP3    H159948   5.581   4.788  16.288  0.2598 -0.8828  0.4726
12819TIP3    H259949   5.656   4.860  16.178 -0.4963 -0.9378 -0.0790
12820TIP3   OH259950   4.666   5.248   4.290 -0.0477 -0.2799 -0.2192
12820TIP3    H159951   4.632   5.229   4.378 -1.3588 -0.2547 -0.7145
12820TIP3    H259952   4.616   5.325   4.262  1.7645  0.9421 -0.2029
12821TIP3   OH259953   1.851   2.190  14.128 -0.0503  0.2632  0.1601
12821TIP3    H159954   1.917   2.259  14.137  0.3871  0.0451 -1.2295
12821TIP3    H259955   1.894   2.110  14.158 -1.1598  0.8753  3.5833
12822TIP3   OH259956   6.564   0.550   5.554  0.4089 -0.3146  0.2097
12822TIP3    H159957   6.567   0.625   5.494 -1.2188 -0.8648 -0.5763
12822TIP3    H259958   6.635   0.494   5.525 -0.7541 -0.8620 -1.6010
12823TIP3   OH259959   6.055   1.341  12.052  0.6475  0.4894  0.5154
12823TIP3    H159960   6.099   1.422  12.027  0.1603 -0.0185 -2.1395
12823TIP3    H259961   6.057   1.341  12.148  2.3728  2.6716  0.5144
12824TIP3   OH259962   3.040   3.397   5.236 -0.2022  0.0047 -0.4975
12824TIP3    H159963   2.947   3.416   5.236 -0.3217 -0.5659 -0.1116
12824TIP3    H259964   3.069   3.418   5.325 -0.2252 -1.0840 -0.2336
12825TIP3   OH259965   0.382   5.563   0.099  0.1254  0.5972  0.6701
12825TIP3    H159966   0.316   5.627   0.073  1.0560  1.4826  0.4070
12825TIP3    H259967   0.407   5.588   0.188 -0.2551 -0.0430  0.9600
12826TIP3   OH259968   4.551   0.813   4.026 -0.3174  0.1074 -1.3401
12826TIP3    H159969   4.558   0.718   4.031  4.2152  0.4158  1.1078
12826TIP3    H259970   4.492   0.837   4.097  1.4733 -0.7282  0.4917
12827TIP3   OH259971   5.576   1.638  11.647 -0.8964  1.2057  0.4907
12827TIP3    H159972   5.651   1.582  11.626 -1.8738  0.0702 -0.0583
12827TIP3    H259973   5.614   1.716  11.687  0.5011  0.1950  1.1618
12828TIP3   OH259974   3.802   6.807  12.966  0.0531  0.3143  0.0639
12828TIP3    H159975   3.893   6.831  12.985  0.0209 -1.0985  2.1510
12828TIP3    H259976   3.750   6.873  13.011  0.0254  0.7858 -0.6490
12829TIP3   OH259977   3.183   6.040  12.757 -0.4638  0.3026  0.3453
12829TIP3    H159978   3.169   5.963  12.812 -0.4114  0.2442  0.2790
12829TIP3    H259979   3.113   6.100  12.781 -0.3905  0.3122  0.5364
12830TIP3   OH259980   3.916   2.600   4.009  0.7214  0.3753 -0.2463
12830TIP3    H159981   3.829   2.590   4.050  1.2992 -0.8928  0.7210
12830TIP3    H259982   3.904   2.669   3.944 -1.5729 -1.2550 -1.6350
12831TIP3   OH259983   5.830   4.071  12.898  0.6733  0.0611 -0.3882
12831TIP3    H159984   5.904   4.079  12.958  1.7661 -0.9927 -1.5986
12831TIP3    H259985   5.868   4.079  12.811 -0.4392 -1.9123 -1.0770
12832TIP3   OH259986   3.504   5.955  11.992  0.0854 -0.3580 -0.4480
12832TIP3    H159987   3.543   5.911  12.068  0.7500  0.1607 -0.4852
12832TIP3    H259988   3.435   6.011  12.029  0.5019  0.0002 -0.2076
12833TIP3   OH259989   1.415   6.083  12.729  0.0515 -0.4978  0.1133
12833TIP3    H159990   1.457   6.112  12.647 -0.6214  2.3170  0.6895
12833TIP3    H259991   1.473   6.115  12.798 -0.9436 -0.1220  0.7922
12834TIP3   OH259992   5.943   2.439  12.696 -0.3740  0.6050 -0.5653
12834TIP3    H159993   5.974   2.350  12.676  1.7814  1.5181 -1.4401
12834TIP3    H259994   6.009   2.474  12.755 -0.8505  1.8765 -0.7837
12835TIP3   OH259995   5.126   1.080   1.777  0.5358 -0.0270  0.6824
12835TIP3    H159996   5.031   1.081   1.767  0.3382  1.1027  2.4548
12835TIP3    H259997   5.148   0.987   1.781 -0.1941 -0.3609 -2.1046
12836TIP3   OH259998   4.125   5.391  14.534  0.1301 -0.0653  0.0286
12836TIP3    H159999   4.133   5.352  14.621  2.0118 -1.5043 -0.7428
12836TIP3    H260000   4.197   5.453  14.528  0.0713 -0.0418 -0.5357
12837TIP3   OH260001   5.657   6.440  16.865  0.2601 -0.0200 -0.4533
12837TIP3    H160002   5.725   6.448  16.799 -0.1150  0.0531 -0.8387
12837TIP3    H260003   5.667   6.518  16.919 -0.3637  0.6866 -1.3232
12838TIP3   OH260004   2.834   5.849  11.972  0.4374 -0.5785 -0.7903
12838TIP3    H160005   2.806   5.921  11.916 -0.5316 -0.0773  0.3353
12838TIP3    H260006   2.882   5.891  12.044 -0.0133 -1.0541 -0.2012
12839TIP3   OH260007   5.192   6.639  16.654  0.1917 -0.1566 -0.2467
12839TIP3    H160008   5.287   6.645  16.653  0.1729  1.3510  2.4894
12839TIP3    H260009   5.173   6.556  16.697  0.2879 -0.0707 -0.0354
12840TIP3   OH260010   4.561   3.417  16.274 -0.5222 -0.1381 -1.0203
12840TIP3    H160011   4.582   3.498  16.228  0.7079  0.9894  1.4226
12840TIP3    H260012   4.637   3.399  16.329 -1.5015 -1.9922 -0.1770
12841TIP3   OH260013   1.574   5.549  15.626 -0.4581 -0.2575 -0.8900
12841TIP3    H160014   1.639   5.608  15.587 -0.4128 -0.2030 -0.7335
12841TIP3    H260015   1.562   5.583  15.714 -0.9103 -0.0986 -1.0141
12842TIP3   OH260016   4.055   2.167   6.262 -0.5244 -0.5684 -0.4650
12842TIP3    H160017   3.978   2.113   6.280  0.3832 -1.0314  2.1972
12842TIP3    H260018   4.129   2.109   6.278  0.4360  0.7148 -0.1767
12843TIP3   OH260019   0.152   6.589  14.924 -0.2054  0.2358  0.2192
12843TIP3    H160020   0.056   6.589  14.927 -0.4060 -1.1679 -3.6137
12843TIP3    H260021   0.174   6.666  14.871  0.7883  0.4804  0.9826
12844TIP3   OH260022   0.816   6.604   2.081 -0.3399 -0.0212 -0.3205
12844TIP3    H160023   0.829   6.693   2.114  0.8673 -0.0968 -0.5709
12844TIP3    H260024   0.760   6.614   2.005  0.8510  0.6671 -1.1177
12845TIP3   OH260025   4.585   2.921   6.004 -0.0742  0.4018  0.3801
12845TIP3    H160026   4.648   2.849   5.999 -0.7183 -0.2088  0.9538
12845TIP3    H260027   4.639   3.000   5.997  0.7048 -0.1194  0.3811
12846TIP3   OH260028   3.752   6.721   0.864  0.0368  0.1916 -0.2261
12846TIP3    H160029   3.844   6.696   0.852  0.3355  1.4303 -0.6101
12846TIP3    H260030   3.751   6.766   0.949 -0.3443 -0.4024  0.0879
12847TIP3   OH260031   0.592   5.963   5.185 -0.3293  0.7515  0.2704
12847TIP3    H160032   0.500   5.963   5.160 -0.4054  1.7703  0.5259
12847TIP3    H260033   0.615   5.870   5.194 -1.5101  0.5152  0.8729
12848TIP3   OH260034   5.334   1.461   0.958  0.0526  0.8262  0.6205
12848TIP3    H160035   5.260   1.404   0.979  0.6553 -1.0723 -2.1317
12848TIP3    H260036   5.301   1.550   0.971 -2.0260 -0.0613  1.5508
12849TIP3   OH260037   4.226   0.162  14.332  0.1555  0.7775 -0.4375
12849TIP3    H160038   4.293   0.230  14.338  0.0117  0.9401 -0.7058
12849TIP3    H260039   4.165   0.182  14.403  0.5467  0.4576 -0.0046
12850TIP3   OH260040   0.726   5.930   2.392  0.0641  0.3909  0.1754
12850TIP3    H160041   0.725   5.902   2.484  0.6641 -0.4084 -0.0609
12850TIP3    H260042   0.635   5.927   2.365 -0.2947  1.8328  1.1046
12851TIP3   OH260043   1.424   5.807   3.615 -0.4454  0.4674 -0.0924
12851TIP3    H160044   1.369   5.734   3.586 -0.7460  0.3537  0.7429
12851TIP3    H260045   1.403   5.879   3.555 -1.4338  0.3986  0.1612
12852TIP3   OH260046   3.796   5.796   2.699 -0.4226  0.3334 -0.2505
12852TIP3    H160047   3.713   5.761   2.732  0.3513  0.6446  2.0837
12852TIP3    H260048   3.803   5.761   2.610 -0.7676 -3.6416  1.1789
12853TIP3   OH260049   6.313   0.216  13.514  0.1471  0.4538 -0.7324
12853TIP3    H160050   6.324   0.203  13.420  1.9954  0.5712 -0.5500
12853TIP3    H260051   6.339   0.307  13.529  1.6139 -0.0809  0.1302
12854TIP3   OH260052   3.476   3.551   2.451  0.0924  0.2522  0.5552
12854TIP3    H160053   3.416   3.597   2.510 -0.4762 -0.8168  0.8238
12854TIP3    H260054   3.424   3.533   2.372  0.4146  0.3934  0.3092
12855TIP3   OH260055   3.622   1.710  11.345 -0.1746 -0.4515  0.2707
12855TIP3    H160056   3.586   1.657  11.415 -1.5733  0.6778  0.4188
12855TIP3    H260057   3.601   1.662  11.265 -0.8178 -0.4710  0.4512
12856TIP3   OH260058   2.449   6.002  13.201 -0.0579  0.0898  0.3552
12856TIP3    H160059   2.466   6.088  13.240  2.1371 -0.8075  1.4756
12856TIP3    H260060   2.372   5.969  13.247  1.1514  0.0233  2.3817
12857TIP3   OH260061   2.108   2.147  14.524 -0.1858 -0.4913  0.1534
12857TIP3    H160062   2.144   2.062  14.503  0.0198 -0.3525 -0.0502
12857TIP3    H260063   2.150   2.171  14.607 -0.5606 -0.7760  0.4259
12858TIP3   OH260064   2.709   6.062   3.418  0.5982 -0.2585 -0.1975
12858TIP3    H160065   2.768   6.129   3.453  0.9718 -1.4118  1.4101
12858TIP3    H260066   2.633   6.063   3.476  0.8450 -1.5882  0.1731
12859TIP3   OH260067   0.184   5.135  15.812 -0.2913  0.6835 -0.4526
12859TIP3    H160068   0.230   5.090  15.741 -0.1119  0.2375 -0.0561
12859TIP3    H260069   0.092   5.108  15.801 -0.3374  0.9598 -0.7719
12860TIP3   OH260070   0.111   4.195  11.175 -0.2677 -0.2902  0.1169
12860TIP3    H160071   0.144   4.153  11.095 -2.3763  1.3001 -1.6605
12860TIP3    H260072   0.025   4.156  11.188 -0.2199 -0.0313  1.2320
12861TIP3   OH260073   6.366   3.250   5.405  0.7243 -0.5842  0.3573
12861TIP3    H160074   6.299   3.265   5.338 -0.0085  0.6947  1.3408
12861TIP3    H260075   6.442   3.218   5.357  1.0397  2.6271 -1.4483
12862TIP3   OH260076   4.761   3.666   2.272  0.1254 -0.5165 -0.1393
12862TIP3    H160077   4.853   3.669   2.297  0.3350  2.4482 -1.1113
12862TIP3    H260078   4.713   3.687   2.352  0.4328  1.0284 -0.3603
12863TIP3   OH260079   5.350   6.300  12.496  0.2733 -0.0456 -0.0307
12863TIP3    H160080   5.274   6.249  12.465  0.2795 -0.1652  0.1468
12863TIP3    H260081   5.366   6.363  12.426  0.0079 -0.0194 -0.0730
12864TIP3   OH260082   0.031   4.857   4.820  0.0502  0.3797 -0.5423
12864TIP3    H160083  -0.057   4.821   4.816 -0.1035  0.6114  0.5921
12864TIP3    H260084   0.077   4.801   4.883  0.2508  1.2254  0.0661
12865TIP3   OH260085   5.754   5.243  13.185 -0.5577  0.5560  0.3713
12865TIP3    H160086   5.666   5.279  13.197  0.3292  3.5663 -1.4474
12865TIP3    H260087   5.812   5.308  13.225  0.8985 -1.0515  0.9370
12866TIP3   OH260088   5.372   1.175  17.138  0.1547 -0.2568 -0.2122
12866TIP3    H160089   5.418   1.135  17.212 -0.2597 -1.5009 -0.6174
12866TIP3    H260090   5.420   1.257  17.122  2.2253 -1.5096 -0.6270
12867TIP3   OH260091   4.397   1.850  14.103 -0.0310  0.1197 -0.0197
12867TIP3    H160092   4.385   1.835  14.197 -0.4443 -1.2900 -0.2840
12867TIP3    H260093   4.455   1.780  14.074  0.1294  0.5712 -0.8094
12868TIP3   OH260094   0.045   1.431   4.180 -0.0020  0.5278  0.4050
12868TIP3    H160095   0.050   1.498   4.112  0.8920  0.3328  0.2685
12868TIP3    H260096  -0.031   1.455   4.233 -0.7214  0.6581 -0.6912
12869TIP3   OH260097   0.521   1.321  11.722 -0.1745 -0.7019 -0.1067
12869TIP3    H160098   0.565   1.286  11.645 -1.4193 -0.9261 -0.7290
12869TIP3    H260099   0.588   1.374  11.766  0.4501 -0.2847 -1.5235
12870TIP3   OH260100   2.909   3.437   4.173 -0.1249 -0.0822  0.6663
12870TIP3    H160101   2.824   3.398   4.190  0.1941 -0.9998  0.1714
12870TIP3    H260102   2.961   3.366   4.136  1.2503  0.1438  2.1437
12871TIP3   OH260103   1.872   5.356   0.973 -0.3408 -0.1817  0.1137
12871TIP3    H160104   1.840   5.436   0.931  1.1239  1.0934  1.3411
12871TIP3    H260105   1.904   5.302   0.901 -0.5248  0.7189 -0.6544
12872TIP3   OH260106   3.673   6.129   5.718 -0.0718  0.0610  0.0581
12872TIP3    H160107   3.769   6.133   5.714 -0.0287  3.6946  2.3743
12872TIP3    H260108   3.644   6.164   5.634  0.6275  0.9019  0.1587
12873TIP3   OH260109   3.176   1.220   4.223 -0.3409  0.3380  0.3302
12873TIP3    H160110   3.103   1.159   4.215 -0.7282  0.9747 -1.0461
12873TIP3    H260111   3.135   1.307   4.225  0.5028  0.8845 -3.3253
12874TIP3   OH260112   1.057   5.596   4.149  0.0943  0.2907  0.0716
12874TIP3    H160113   1.025   5.671   4.199  3.0647  1.3484  0.4769
12874TIP3    H260114   1.151   5.612   4.139  0.4476 -2.4465 -1.4762
12875TIP3   OH260115   1.689   5.858   3.567  0.0915  0.3567  0.2298
12875TIP3    H160116   1.596   5.835   3.567  0.2358 -0.2578  1.3433
12875TIP3    H260117   1.709   5.874   3.475 -1.4543  1.8865  0.1357
12876TIP3   OH260118   6.511   4.015   2.541  0.0696 -0.4738  0.2215
12876TIP3    H160119   6.424   3.975   2.551 -0.7912  1.0253 -1.0960
12876TIP3    H260120   6.494   4.108   2.534  1.6544 -0.2829 -1.6082
12877TIP3   OH260121   4.388   0.236  16.603 -0.3242  0.3912  0.0111
12877TIP3    H160122   4.385   0.304  16.536  0.0288  1.8827  1.4684
12877TIP3    H260123   4.480   0.212  16.609 -0.4941 -0.5268 -0.7652
12878TIP3   OH260124   3.617   0.805  13.556 -0.6829 -0.0103 -0.7587
12878TIP3    H160125   3.658   0.728  13.515 -1.9887 -1.5645  0.7738
12878TIP3    H260126   3.558   0.768  13.622 -1.9194  2.3120 -0.5356
12879TIP3   OH260127   6.375   3.250  16.481  0.2218 -0.1757  0.4483
12879TIP3    H160128   6.452   3.307  16.489  0.3677 -0.1540 -0.9957
12879TIP3    H260129   6.396   3.192  16.408 -0.6664 -0.9082  0.7741
12880TIP3   OH260130   2.460   2.845   3.294  0.1109 -0.7145 -0.6290
12880TIP3    H160131   2.392   2.812   3.353  0.1582 -1.2751 -0.8945
12880TIP3    H260132   2.535   2.788   3.310  0.2437 -0.6313 -0.9650
12881TIP3   OH260133   2.841   5.865   4.156 -0.3446  0.0530 -0.2429
12881TIP3    H160134   2.786   5.935   4.120  0.3603  0.3709 -0.7343
12881TIP3    H260135   2.883   5.904   4.232 -0.3394  0.0029 -0.2195
12882TIP3   OH260136   4.403   1.730  16.592  0.0870 -0.1673  0.2926
12882TIP3    H160137   4.411   1.821  16.619 -0.6069  0.2055 -0.7193
12882TIP3    H260138   4.327   1.697  16.639 -1.3030  0.5681 -1.4078
12883TIP3   OH260139   5.425   3.974   2.484  0.5529  0.2379 -0.3373
12883TIP3    H160140   5.387   4.006   2.566  1.0175  0.7143 -0.3012
12883TIP3    H260141   5.510   3.939   2.509  0.2915 -0.5046 -0.4719
12884TIP3   OH260142   3.963   1.164   2.265  0.1779 -0.1867 -0.8538
12884TIP3    H160143   3.959   1.125   2.352 -1.0644  0.2249 -0.7195
12884TIP3    H260144   3.872   1.171   2.238  0.4894  0.9169 -1.6397
12885TIP3   OH260145   2.251   6.556   4.447  0.0990  0.0538 -0.0419
12885TIP3    H160146   2.344   6.580   4.451  0.2277 -0.5253  0.5972
12885TIP3    H260147   2.235   6.535   4.355  0.0551  2.3057 -0.5741
12886TIP3   OH260148   3.794   5.001   3.319  0.6133  0.0435  0.0296
12886TIP3    H160149   3.840   5.080   3.348 -1.4524  1.3565 -0.1743
12886TIP3    H260150   3.783   5.013   3.225 -2.0817  0.8023  0.4218
12887TIP3   OH260151   6.250   6.729   1.965  0.0083  0.1983  0.3889
12887TIP3    H160152   6.215   6.742   2.053  0.7892 -2.8453  1.2275
12887TIP3    H260153   6.219   6.642   1.940  0.3434  0.7589 -2.0921
12888TIP3   OH260154   4.835   1.068  14.538 -0.5495  0.8218 -0.4815
12888TIP3    H160155   4.815   0.975  14.526 -1.9020  0.7852  1.7246
12888TIP3    H260156   4.927   1.069  14.563  0.2256  0.3269 -3.2120
12889TIP3   OH260157   1.580   6.474   5.064  0.0577  0.5477  0.3565
12889TIP3    H160158   1.592   6.557   5.018  0.0198  0.5913  0.4255
12889TIP3    H260159   1.487   6.455   5.057  0.1189  0.3522  0.0687
12890TIP3   OH260160   0.571   4.749   2.647  0.2103 -0.3379 -0.0505
12890TIP3    H160161   0.576   4.747   2.551 -0.8830 -0.2997 -0.1141
12890TIP3    H260162   0.569   4.842   2.669  0.2998 -0.3479 -0.0006
12891TIP3   OH260163   3.443   5.474  11.951  0.0969  0.4194 -0.1619
12891TIP3    H160164   3.526   5.459  11.996  0.3727  1.3537 -0.3564
12891TIP3    H260165   3.398   5.539  12.005  1.1966  2.9258 -2.1456
12892TIP3   OH260166   5.007   3.349   6.421 -0.0159 -0.0010  0.0641
12892TIP3    H160167   4.984   3.271   6.472 -2.6383  0.4519 -0.3290
12892TIP3    H260168   4.986   3.422   6.479  1.4778  0.4373  0.0602
12893TIP3   OH260169   2.044   1.556  10.305 -0.2430  0.0672 -0.2509
12893TIP3    H160170   2.104   1.494  10.262  0.0108  0.0321  0.1509
12893TIP3    H260171   2.101   1.622  10.343 -0.2376 -1.6264  2.8092
12894TIP3   OH260172   0.883   2.680   5.141 -1.4063  0.1183 -0.7586
12894TIP3    H160173   0.842   2.704   5.225  2.3623  1.2446  0.8455
12894TIP3    H260174   0.877   2.585   5.137 -0.9673  0.0008  1.1529
12895TIP3   OH260175   5.609   1.756   3.534  0.6401  0.2646  0.1523
12895TIP3    H160176   5.641   1.682   3.587  0.4334 -0.8623 -1.2804
12895TIP3    H260177   5.672   1.826   3.552  1.5498 -0.6426  0.5887
12896TIP3   OH260178   5.582   1.420   2.214 -0.2926 -0.0401 -0.1388
12896TIP3    H160179   5.574   1.381   2.126 -1.1121  0.1758 -0.1599
12896TIP3    H260180   5.576   1.514   2.199  0.2211  0.0293  0.0819
12897TIP3   OH260181   0.071   4.239  11.446  0.1173 -0.2020  0.0283
12897TIP3    H160182   0.108   4.231  11.358  0.7152 -0.1636  0.2752
12897TIP3    H260183  -0.024   4.229  11.433 -0.0361  2.2055 -0.9266
12898TIP3   OH260184   1.791   3.591  15.056 -0.1369  0.5117  0.3924
12898TIP3    H160185   1.699   3.569  15.040 -0.0656 -0.1820  0.9090
12898TIP3    H260186   1.832   3.590  14.969 -0.2466 -0.9360  0.3448
12899TIP3   OH260187   2.810   1.622  14.108  1.0121 -0.0209 -0.4223
12899TIP3    H160188   2.755   1.567  14.164  1.1676  0.3883  0.1307
12899TIP3    H260189   2.874   1.661  14.167 -0.5599  2.6377 -0.4051
12900TIP3   OH260190   3.050   0.787  14.301 -0.0159  0.1805 -0.2056
12900TIP3    H160191   3.046   0.882  14.311 -0.9813  0.2805 -1.4630
12900TIP3    H260192   2.967   0.763  14.262  0.7830 -1.0227 -1.2141
12901TIP3   OH260193   2.144   5.992  15.066 -0.3697 -0.2424 -0.0762
12901TIP3    H160194   2.201   5.961  14.995 -0.0397 -0.1279  0.1414
12901TIP3    H260195   2.056   5.962  15.041 -0.2600 -0.1615 -0.5584
12902TIP3   OH260196   2.465   4.955   4.683 -0.9573 -0.9793 -0.0691
12902TIP3    H160197   2.374   4.983   4.682 -0.8275 -0.5523 -0.3195
12902TIP3    H260198   2.465   4.872   4.636 -1.3173 -1.3029  0.5021
12903TIP3   OH260199   0.717   2.312  13.625 -0.2181  0.3014  0.3912
12903TIP3    H160200   0.674   2.397  13.633 -0.9398  0.1877 -1.7957
12903TIP3    H260201   0.802   2.332  13.588 -1.1669 -0.0606 -2.0840
12904TIP3   OH260202   4.980   0.991   3.035 -0.6672  0.6076 -0.1029
12904TIP3    H160203   5.007   0.998   3.127  1.1978  0.7628 -0.6364
12904TIP3    H260204   4.895   0.946   3.038 -0.2229 -0.1738  1.6393
12905TIP3   OH260205   5.925   3.674  13.661 -0.0580 -0.5406 -0.9453
12905TIP3    H160206   5.870   3.716  13.595  1.1862 -0.4930 -1.9885
12905TIP3    H260207   6.014   3.680  13.625  0.7823  0.3639  1.2047
12906TIP3   OH260208   2.158   3.075  11.959 -0.4866 -0.4884 -0.2646
12906TIP3    H160209   2.153   2.997  11.903 -0.6418 -0.7623  0.1289
12906TIP3    H260210   2.142   3.148  11.899  1.6404 -0.6043 -1.0082
12907TIP3   OH260211   4.209   3.492  16.465  0.1095  0.2111  0.1181
12907TIP3    H160212   4.214   3.559  16.533  2.4270  0.0670  0.1406
12907TIP3    H260213   4.190   3.411  16.512 -1.0683  0.5870  0.2802
12908TIP3   OH260214   4.251   2.749  14.381 -0.5827  0.5635  0.1214
12908TIP3    H160215   4.298   2.666  14.381 -0.5423  0.5815  1.1284
12908TIP3    H260216   4.296   2.802  14.315  0.9293  0.6425  1.1929
12909TIP3   OH260217   2.214   2.869  15.202  0.1496 -0.3281 -0.1462
12909TIP3    H160218   2.179   2.824  15.278  2.5351 -0.8968  0.6672
12909TIP3    H260219   2.309   2.869  15.216  0.4456  1.6795 -1.9443
12910TIP3   OH260220   1.897   5.086   6.385  0.2801  0.3440 -0.2491
12910TIP3    H160221   1.923   5.037   6.307  1.0197 -1.0840  0.8705
12910TIP3    H260222   1.860   5.020   6.443  0.5277  1.2483  0.9515
12911TIP3   OH260223   0.078   1.556   2.693 -0.0845 -0.1147 -0.2234
12911TIP3    H160224   0.154   1.553   2.636  0.5652  0.8519  0.5848
12911TIP3    H260225   0.014   1.610   2.647  0.9311  1.7702  0.5398
12912TIP3   OH260226   6.409   1.806   2.810 -0.4826 -0.0920 -0.4972
12912TIP3    H160227   6.320   1.833   2.788 -0.9180 -1.8067 -0.9144
12912TIP3    H260228   6.449   1.782   2.726  0.6793  1.5217 -0.4288
12913TIP3   OH260229   0.700   5.118  15.116  0.0184  0.8083  0.2262
12913TIP3    H160230   0.674   5.087  15.029  2.6343  0.6647 -0.5462
12913TIP3    H260231   0.730   5.039  15.161 -2.1532  0.7410  1.5899
12914TIP3   OH260232   2.068   2.937   5.748 -0.4266 -0.2268 -0.1628
12914TIP3    H160233   2.065   2.983   5.832 -0.8495  1.3120 -1.0129
12914TIP3    H260234   1.988   2.884   5.748  0.7077 -2.0055  1.3750
12915TIP3   OH260235   3.924   6.319  17.276 -0.7441 -0.7518  0.4434
12915TIP3    H160236   3.848   6.335  17.220 -0.6101 -3.0164 -0.4259
12915TIP3    H260237   3.887   6.283  17.357 -0.7598  0.2806  0.9008
12916TIP3   OH260238   1.946   6.689  13.923 -0.2799 -0.7643  0.0320
12916TIP3    H160239   1.900   6.734  13.994  0.0824 -0.8852  0.3438
12916TIP3    H260240   1.877   6.666  13.860 -0.3066  1.2661 -0.6956
12917TIP3   OH260241   6.645   4.693  17.127  0.4958 -0.8290  0.5232
12917TIP3    H160242   6.590   4.755  17.175 -1.5419 -1.2565 -1.1457
12917TIP3    H260243   6.622   4.607  17.165  0.7806 -0.9013  0.5323
12918TIP3   OH260244   1.775   2.958  13.328 -0.3436  0.2762 -0.2052
12918TIP3    H160245   1.740   2.925  13.411 -0.1456 -0.1202 -0.2769
12918TIP3    H260246   1.786   2.879  13.274 -0.3586  0.5195 -0.5634
12919TIP3   OH260247   1.398   1.803  15.960  0.1056  0.0408 -0.0892
12919TIP3    H160248   1.460   1.749  16.009 -0.1536 -1.4812 -1.3877
12919TIP3    H260249   1.452   1.865  15.912  0.5373 -0.3811 -0.1464
12920TIP3   OH260250   2.322   4.836  13.171 -0.6506 -0.0397  0.0491
12920TIP3    H160251   2.321   4.780  13.094  0.6288  1.4674 -1.0798
12920TIP3    H260252   2.358   4.919  13.141 -0.6527  0.7595  2.1403
12921TIP3   OH260253   6.580   1.376   5.272  0.2053 -0.3108 -0.0056
12921TIP3    H160254   6.492   1.391   5.238 -0.6408 -1.3434  1.6763
12921TIP3    H260255   6.633   1.357   5.194 -0.5164  2.6418 -1.2646
12922TIP3   OH260256   1.324   2.352   0.904  0.1585 -0.5014  0.2601
12922TIP3    H160257   1.282   2.413   0.843 -1.8495  1.1737  3.2024
12922TIP3    H260258   1.401   2.320   0.856 -0.4445  1.9669 -2.5367
12923TIP3   OH260259   2.002   3.559   2.743 -0.0659 -0.1222  0.1409
12923TIP3    H160260   2.094   3.567   2.719  0.3896 -1.9503  1.2048
12923TIP3    H260261   1.958   3.628   2.692  1.8958  0.9234 -0.1888
12924TIP3   OH260262   2.446   4.222   4.175 -0.3586 -0.2486 -0.1362
12924TIP3    H160263   2.357   4.197   4.152  0.1333 -1.4087 -0.8239
12924TIP3    H260264   2.491   4.139   4.193  0.7934  0.2546 -0.6249
12925TIP3   OH260265   3.876   0.472  14.348  0.1328  0.5750  0.1279
12925TIP3    H160266   3.809   0.492  14.413  0.6011 -1.2521  1.2063
12925TIP3    H260267   3.827   0.452  14.268 -0.6776 -1.3999  1.0837
12926TIP3   OH260268   0.984   3.141  12.789  0.5875  0.4140 -0.2425
12926TIP3    H160269   0.924   3.085  12.839 -0.9695  1.2034 -1.1696
12926TIP3    H260270   1.064   3.142  12.840  0.3682 -2.0000  0.2193
12927TIP3   OH260271   0.876   6.195   0.538 -0.8785 -0.2117 -0.3982
12927TIP3    H160272   0.797   6.219   0.585 -0.4302 -0.0681  0.2843
12927TIP3    H260273   0.848   6.185   0.447 -1.6918 -0.2373 -0.1447
12928TIP3   OH260274   5.064   2.554   1.328 -0.1398  0.6752 -0.4707
12928TIP3    H160275   5.134   2.496   1.359  0.4469  0.8399 -1.4637
12928TIP3    H260276   5.084   2.639   1.367 -0.8250  0.2949  0.7327
12929TIP3   OH260277   3.091   4.299  15.101  0.0370  0.2826  0.2634
12929TIP3    H160278   3.042   4.242  15.161 -0.5066  1.8259  1.3112
12929TIP3    H260279   3.058   4.387  15.119 -0.3301  0.7526 -2.5201
12930TIP3   OH260280   0.544   5.763   2.732  0.2162 -0.2909  0.1912
12930TIP3    H160281   0.483   5.813   2.679  2.1685  1.6478 -0.2946
12930TIP3    H260282   0.536   5.800   2.820  1.6386  0.9019 -0.1621
12931TIP3   OH260283   2.460   4.903  15.470 -0.2196  0.8711  0.0656
12931TIP3    H160284   2.538   4.955  15.489 -0.4353  0.7247  1.3903
12931TIP3    H260285   2.400   4.964  15.426  0.4789  1.0839 -0.6049
12932TIP3   OH260286   4.490   3.460   5.421 -0.0995  0.2710  0.2396
12932TIP3    H160287   4.501   3.368   5.397  1.0353  0.1014  1.3579
12932TIP3    H260288   4.408   3.464   5.469 -0.4726 -0.0315 -0.3602
12933TIP3   OH260289   2.893   1.053   2.857 -0.1030  0.0672 -0.1502
12933TIP3    H160290   2.833   1.118   2.820  0.8043 -0.2894 -2.3671
12933TIP3    H260291   2.963   1.105   2.896 -1.1040  0.4592  1.1652
12934TIP3   OH260292   5.868   2.472   0.005 -0.0597 -0.7526 -0.0259
12934TIP3    H160293   5.883   2.567   0.012 -0.1894 -0.6361 -1.3514
12934TIP3    H260294   5.950   2.437  -0.027 -0.7434 -0.8098 -1.7356
12935TIP3   OH260295   0.145   6.795   2.353 -0.1855  0.2809  0.3429
12935TIP3    H160296   0.066   6.812   2.301 -1.6827  0.3913  2.5768
12935TIP3    H260297   0.157   6.701   2.349 -2.3086 -0.1374  2.5332
12936TIP3   OH260298   4.768   4.550   4.260 -0.0994  0.3315 -0.0419
12936TIP3    H160299   4.856   4.572   4.291 -0.9869  1.2544  1.8908
12936TIP3    H260300   4.724   4.514   4.337 -1.7304  0.8122 -0.7370
12937TIP3   OH260301   0.162   5.047  12.193  0.4732  0.6371  0.3885
12937TIP3    H160302   0.230   4.985  12.166  0.6355  0.7240  0.5995
12937TIP3    H260303   0.080   5.003  12.173  0.5916  0.6433 -0.1286
12938TIP3   OH260304   1.860   3.126   4.005 -0.4555 -0.2052 -0.2814
12938TIP3    H160305   1.785   3.067   4.016  0.6270 -1.1929  2.3706
12938TIP3    H260306   1.831   3.209   4.045  0.1197 -0.8548  1.5464
12939TIP3   OH260307   2.944   6.439   0.720 -0.0871  0.3794  0.1687
12939TIP3    H160308   2.860   6.411   0.756 -0.2617 -0.1031 -0.6188
12939TIP3    H260309   2.923   6.513   0.664  0.2332  1.3657  1.3238
12940TIP3   OH260310   2.421   6.571   1.918 -0.3085  0.4841  0.2392
12940TIP3    H160311   2.504   6.527   1.934 -0.0562  0.9369  0.1877
12940TIP3    H260312   2.444   6.663   1.909 -0.4176  0.2784 -2.6352
12941TIP3   OH260313   1.337   4.302   4.530  0.1126  0.7741  0.2169
12941TIP3    H160314   1.365   4.241   4.462  1.4085  1.2552  0.3093
12941TIP3    H260315   1.243   4.314   4.514  0.5615  1.5452 -2.0080
12942TIP3   OH260316   4.205   4.112  15.788  0.5857 -0.4873  0.2452
12942TIP3    H160317   4.249   4.197  15.782 -0.3018 -0.2004 -3.0659
12942TIP3    H260318   4.276   4.048  15.784  1.0874  0.0428  0.5309
12943TIP3   OH260319   0.143   6.462  15.414 -0.6254  0.3617  0.2702
12943TIP3    H160320   0.229   6.444  15.451  0.6162 -0.0311 -2.6805
12943TIP3    H260321   0.083   6.406  15.465  1.4736 -2.6505 -0.4118
12944TIP3   OH260322   3.713   1.417  16.183 -0.0195  0.3400 -0.5721
12944TIP3    H160323   3.733   1.323  16.186 -1.9736 -0.1236 -1.0505
12944TIP3    H260324   3.650   1.425  16.111  1.1949  2.2457 -1.4459
12945TIP3   OH260325   3.408   1.751   4.716 -0.5748  0.1866  0.2145
12945TIP3    H160326   3.376   1.676   4.767 -0.0532 -0.7014 -0.7436
12945TIP3    H260327   3.360   1.826   4.751 -2.8667 -0.9432 -0.4244
12946TIP3   OH260328   6.217   3.590   4.866 -0.4968  0.3669 -0.1007
12946TIP3    H160329   6.207   3.503   4.903  1.8731 -0.2061 -0.6919
12946TIP3    H260330   6.269   3.638   4.931  0.4656  0.5068 -0.9542
12947TIP3   OH260331   2.514   5.526  16.038 -0.4161 -0.1092 -0.2847
12947TIP3    H160332   2.439   5.581  16.061 -0.1557  0.3867 -0.6277
12947TIP3    H260333   2.491   5.439  16.071 -2.2757 -0.5559 -2.6782
12948TIP3   OH260334   4.703   5.286   0.691  0.0318  0.1363  0.4455
12948TIP3    H160335   4.790   5.260   0.719 -0.7077 -0.8758  1.8600
12948TIP3    H260336   4.696   5.254   0.601  1.4856  1.1538 -0.0479
12949TIP3   OH260337   5.708   5.508  14.165 -0.7491 -0.1088  0.0348
12949TIP3    H160338   5.791   5.555  14.177 -0.7693  0.6268 -2.4525
12949TIP3    H260339   5.641   5.573  14.188 -0.6767 -0.2637  0.6938
12950TIP3   OH260340   4.179   2.734  13.374 -0.1437  0.3285  0.2563
12950TIP3    H160341   4.117   2.660  13.374 -0.9314  0.9261 -1.9866
12950TIP3    H260342   4.259   2.698  13.413 -1.0978 -1.1801  0.8971
12951TIP3   OH260343   6.015   1.222  16.982  0.0571 -0.2575  0.1778
12951TIP3    H160344   5.950   1.155  17.002  0.7938 -1.5028 -1.5138
12951TIP3    H260345   5.986   1.259  16.899  2.2649 -1.8273 -1.3511
12952TIP3   OH260346   6.662   5.502  11.200 -0.5236  0.0815  0.0964
12952TIP3    H160347   6.726   5.533  11.136  0.6955 -2.6744 -0.0546
12952TIP3    H260348   6.643   5.580  11.253 -0.8332  2.1636 -2.9626
12953TIP3   OH260349   4.095   4.207  11.896  0.0251  0.6709  0.1177
12953TIP3    H160350   4.132   4.194  11.983  1.5513  0.3112 -0.5695
12953TIP3    H260351   4.138   4.286  11.863  0.3361  0.1536 -0.7524
12954TIP3   OH260352   5.388   3.354  10.157 -0.1139  0.3474 -0.1472
12954TIP3    H160353   5.354   3.332  10.071  0.7617  0.2268 -0.4681
12954TIP3    H260354   5.455   3.289  10.175 -0.2295  0.4185  0.5943
12955TIP3   OH260355   3.754   4.737  14.226  0.3120  0.1856 -0.6601
12955TIP3    H160356   3.777   4.791  14.301  3.3792  1.0656 -2.1513
12955TIP3    H260357   3.761   4.795  14.151 -1.8529 -0.8958 -1.7332
12956TIP3   OH260358   4.822   2.197  16.499  0.6831 -0.0555  0.4639
12956TIP3    H160359   4.754   2.220  16.436  0.3529 -3.6479 -0.6077
12956TIP3    H260360   4.904   2.212  16.453  0.4753 -1.0271 -0.2354
12957TIP3   OH260361   2.629   2.474  11.403  0.3805 -0.3594  0.0659
12957TIP3    H160362   2.620   2.456  11.310  0.8675  1.8542 -0.4399
12957TIP3    H260363   2.723   2.491  11.415  0.2721 -0.3042  0.8922
12958TIP3   OH260364   2.390   3.419  14.782 -0.3405 -0.0688 -0.4491
12958TIP3    H160365   2.380   3.345  14.842  0.3310 -0.1944 -0.4936
12958TIP3    H260366   2.301   3.437  14.752 -0.9019  0.9840  1.7448
12959TIP3   OH260367   2.584   3.209  14.641 -0.2211 -0.4598 -0.6557
12959TIP3    H160368   2.648   3.176  14.704  1.1092  0.1492 -1.6419
12959TIP3    H260369   2.524   3.262  14.692  1.0703  0.3460  0.0615
12960TIP3   OH260370   4.465   0.127  11.159 -0.1858  0.9433  0.5617
12960TIP3    H160371   4.506   0.195  11.105  1.6514 -0.5840 -0.0084
12960TIP3    H260372   4.372   0.151  11.160  0.1811  2.5620 -0.9656
12961TIP3   OH260373   5.631   4.472  16.167 -0.0169  0.1675  0.4817
12961TIP3    H160374   5.576   4.488  16.091  0.8377 -0.1259 -0.2077
12961TIP3    H260375   5.578   4.417  16.225 -1.1662  1.4958  0.7067
12962TIP3   OH260376   3.749   6.291  13.039 -0.2478 -0.3278  0.2320
12962TIP3    H160377   3.661   6.322  13.019 -0.0135 -0.4576 -1.0359
12962TIP3    H260378   3.787   6.359  13.095 -0.3300  0.8503 -1.1250
12963TIP3   OH260379   2.647   5.005   5.488 -0.1310  0.1535 -0.3163
12963TIP3    H160380   2.583   5.050   5.543 -0.6711  0.5780 -1.2738
12963TIP3    H260381   2.602   4.924   5.462  0.4367 -0.4407  0.5390
12964TIP3   OH260382   1.496   3.573  16.767 -0.5367  0.2809  0.1010
12964TIP3    H160383   1.485   3.553  16.674 -0.2842  1.8549 -0.2904
12964TIP3    H260384   1.413   3.611  16.794 -0.0505  1.3677  0.0937
12965TIP3   OH260385   1.021   1.000  16.307  0.2142  0.1163  1.0673
12965TIP3    H160386   0.942   1.034  16.349  0.2155  0.9946  0.3690
12965TIP3    H260387   1.084   0.989  16.379 -0.2270  0.3381  1.4874
12966TIP3   OH260388   5.441   1.776  17.180 -0.6191  0.4718  0.4445
12966TIP3    H160389   5.436   1.844  17.114 -0.9801  0.1749  0.1630
12966TIP3    H260390   5.378   1.710  17.151 -0.0169 -0.1418  0.5268
12967TIP3   OH260391   1.154   2.087   5.577 -0.1382 -0.2552 -0.6322
12967TIP3    H160392   1.216   2.160   5.585 -0.8898  0.1944  1.1807
12967TIP3    H260393   1.071   2.123   5.608 -1.0948 -1.1688 -2.0571
12968TIP3   OH260394   0.133   3.855  16.635 -0.2603  0.0357  1.1558
12968TIP3    H160395   0.182   3.778  16.606 -0.3047  0.1141  0.8738
12968TIP3    H260396   0.125   3.844  16.730  1.1382  0.4961  1.3361
12969TIP3   OH260397   5.845   3.774   4.290  0.0444 -0.2487  0.3767
12969TIP3    H160398   5.844   3.869   4.303 -0.3146 -0.0508 -1.0750
12969TIP3    H260399   5.753   3.748   4.298  0.2043 -0.5767  1.3513
12970TIP3   OH260400   3.815   0.204  11.142  0.0865  0.4318  0.2650
12970TIP3    H160401   3.797   0.276  11.082 -1.5776  0.4661  0.8013
12970TIP3    H260402   3.898   0.228  11.183 -0.0584  1.6559 -0.1467
12971TIP3   OH260403   2.867   3.506   2.461 -0.0488  0.2471 -0.1026
12971TIP3    H160404   2.891   3.596   2.483 -0.9255  0.4542  0.0223
12971TIP3    H260405   2.890   3.456   2.539  1.8532  0.1010 -0.7253
12972TIP3   OH260406   4.750   3.772   0.635 -0.3375 -0.5667  0.2327
12972TIP3    H160407   4.710   3.694   0.673 -0.0819 -0.1866  1.3092
12972TIP3    H260408   4.745   3.758   0.540 -2.8287 -0.6105  0.3556
12973TIP3   OH260409   5.807   5.216   1.240  0.1257  0.3093 -0.3130
12973TIP3    H160410   5.797   5.297   1.190  1.8451  1.3839  0.9959
12973TIP3    H260411   5.731   5.213   1.297 -0.6238  0.3121 -1.3120
12974TIP3   OH260412   3.619   1.602   4.931  0.4741  0.0032 -0.1438
12974TIP3    H160413   3.528   1.575   4.938  0.7675 -1.0327 -0.2956
12974TIP3    H260414   3.653   1.597   5.020 -0.0616  2.0516  0.2198
12975TIP3   OH260415   6.394   2.131   5.474 -0.6370  0.4994  0.9116
12975TIP3    H160416   6.395   2.169   5.562 -5.5486  1.6393  0.6357
12975TIP3    H260417   6.375   2.205   5.417 -0.6024 -0.7804 -0.7994
12976TIP3   OH260418   2.879   0.803  14.886  0.8629  0.0597 -0.4391
12976TIP3    H160419   2.824   0.784  14.962  2.4818  0.0500  0.7736
12976TIP3    H260420   2.938   0.728  14.880  2.0985  0.9979 -0.4233
12977TIP3   OH260421   5.402   1.316   2.400 -0.2654 -0.4733  0.2760
12977TIP3    H160422   5.455   1.380   2.352 -0.8657 -1.4199 -1.6827
12977TIP3    H260423   5.451   1.234   2.392 -0.6395 -0.7541  0.8434
12978TIP3   OH260424   6.672   3.072   0.707 -0.4659 -0.3702  0.1180
12978TIP3    H160425   6.736   3.001   0.694 -0.4013 -0.1317 -0.9040
12978TIP3    H260426   6.587   3.029   0.702 -0.4401 -0.3006 -1.0413
12979TIP3   OH260427   5.013   0.872   2.113  0.0295  0.3397 -0.0666
12979TIP3    H160428   5.032   0.966   2.103 -2.8754  0.6622 -3.3880
12979TIP3    H260429   4.920   0.869   2.137  0.3487 -1.7083  1.0467
12980TIP3   OH260430   6.284   3.313  14.321 -0.2456  0.6020 -0.5996
12980TIP3    H160431   6.208   3.368  14.302  1.2881  2.5720 -1.2072
12980TIP3    H260432   6.274   3.238  14.261 -0.9907  1.5152 -1.6490
12981TIP3   OH260433   5.354   3.451   0.632 -0.4676 -0.1898 -0.4938
12981TIP3    H160434   5.389   3.536   0.660 -0.2905 -0.2306 -0.5929
12981TIP3    H260435   5.318   3.468   0.545 -0.1915 -0.2786 -0.6264
12982TIP3   OH260436   3.294   0.470   1.718  0.1369  0.1692 -0.0335
12982TIP3    H160437   3.387   0.468   1.696  0.0373 -0.6084 -0.3999
12982TIP3    H260438   3.292   0.483   1.813  0.6109  0.3574 -0.0477
12983TIP3   OH260439   2.375   3.072  11.091  0.2493 -0.1307  0.1994
12983TIP3    H160440   2.428   3.003  11.051 -2.8269 -0.2749 -3.9467
12983TIP3    H260441   2.339   3.032  11.170  0.5911 -2.4042 -0.7601
12984TIP3   OH260442   5.917   5.022   5.274 -0.2518 -0.4377 -0.5071
12984TIP3    H160443   5.981   5.014   5.344 -0.9475  0.0998  0.2010
12984TIP3    H260444   5.848   4.959   5.297 -1.0697  0.6108 -0.0471
12985TIP3   OH260445   1.993   5.333  15.248  0.1116 -0.8527  0.3166
12985TIP3    H160446   1.934   5.296  15.313  0.0744 -0.8002  0.3136
12985TIP3    H260447   1.943   5.405  15.208  0.4625 -0.2949  0.8660
12986TIP3   OH260448   5.597   1.005   4.755  0.0461 -0.5180  0.0690
12986TIP3    H160449   5.619   0.947   4.828 -1.1397 -0.6527  0.3331
12986TIP3    H260450   5.680   1.047   4.732  0.4146 -0.3659  1.5959
12987TIP3   OH260451   0.984   0.768   4.469  0.5581 -0.7150 -0.2245
12987TIP3    H160452   0.994   0.673   4.458 -2.4200 -0.8800 -2.1239
12987TIP3    H260453   0.948   0.797   4.385 -0.0476  1.8696  0.8989
12988TIP3   OH260454   5.568   1.398  13.378 -0.4495  0.3883  0.0055
12988TIP3    H160455   5.502   1.371  13.442  0.6521 -1.9728  0.2039
12988TIP3    H260456   5.626   1.457  13.426 -0.3489 -0.3874  0.8369
12989TIP3   OH260457   6.011   0.232   0.594  0.0965  0.0582 -0.8392
12989TIP3    H160458   6.005   0.277   0.678  0.4499  0.1569 -0.8673
12989TIP3    H260459   6.080   0.278   0.546  0.6742 -0.7080 -0.7515
12990TIP3   OH260460   6.161   1.817   2.348  0.4931 -0.4462 -0.6389
12990TIP3    H160461   6.241   1.855   2.311  0.5854  0.2928  0.3121
12990TIP3    H260462   6.116   1.778   2.272  0.3973  1.5545 -1.6435
12991TIP3   OH260463   3.330   5.890   1.422  0.2889  0.7463  0.2451
12991TIP3    H160464   3.293   5.810   1.385 -0.7636  0.9910  0.7416
12991TIP3    H260465   3.293   5.894   1.510  1.3573  1.1048  0.6853
12992TIP3   OH260466   4.185   5.392   5.035  0.8476 -0.2130  0.1853
12992TIP3    H160467   4.234   5.472   5.016  1.9292 -1.3795 -2.0967
12992TIP3    H260468   4.218   5.328   4.972 -3.3346 -1.1679 -1.1973
12993TIP3   OH260469   1.756   4.707   1.185 -0.0983 -0.1715 -0.0474
12993TIP3    H160470   1.814   4.781   1.201 -0.9584  0.3775  0.5743
12993TIP3    H260471   1.777   4.679   1.096  0.4052  0.6677 -0.2003
12994TIP3   OH260472   5.259   3.701   3.694  0.2127  0.3200 -0.2419
12994TIP3    H160473   5.265   3.633   3.627  0.9196 -1.1223  1.2372
12994TIP3    H260474   5.194   3.668   3.756  2.5389 -0.3867  1.9557
12995TIP3   OH260475   3.282   3.539  13.188  0.3416 -0.0043  0.2317
12995TIP3    H160476   3.241   3.609  13.239 -0.0996 -0.1266  0.0529
12995TIP3    H260477   3.250   3.458  13.228 -0.0811 -0.1009 -0.2893
12996TIP3   OH260478   2.175   1.714   1.695 -0.0909  0.1833 -0.0778
12996TIP3    H160479   2.247   1.745   1.750  0.0720  1.1185 -0.8004
12996TIP3    H260480   2.212   1.639   1.648  0.0777  0.0036  0.3373
12997TIP3   OH260481   4.127   2.849  16.413  0.2144  0.3595  0.4674
12997TIP3    H160482   4.068   2.924  16.409  0.8164  0.7677 -1.5754
12997TIP3    H260483   4.200   2.878  16.468  0.0712  1.0194  0.3164
12998TIP3   OH260484   3.864   6.717   3.690 -0.1661  0.1128 -0.2186
12998TIP3    H160485   3.783   6.768   3.693 -0.9744 -1.1716 -0.0015
12998TIP3    H260486   3.843   6.641   3.636  1.0341  0.0028 -0.5542
12999TIP3   OH260487   5.929   6.263   1.174 -0.0817  0.2672 -0.0332
12999TIP3    H160488   5.975   6.293   1.253  1.3608  0.5678 -0.9770
12999TIP3    H260489   5.850   6.317   1.170 -0.3722 -0.0257  1.4169
13000TIP3   OH260490   6.546   4.725   0.623  0.0994  0.2616 -0.5310
13000TIP3    H160491   6.533   4.682   0.707  0.3212  0.7764 -0.2332
13000TIP3    H260492   6.465   4.709   0.575 -0.2467  0.4509 -0.0075
13001TIP3   OH260493   5.418   3.723   4.107  0.2908  0.2032  0.5148
13001TIP3    H160494   5.394   3.680   4.024  0.2310  0.6029  0.3211
13001TIP3    H260495   5.344   3.706   4.164  1.0467 -1.4982  1.0387
13002TIP3   OH260496   0.441   5.922   6.447 -0.9091 -0.2707  0.0683
13002TIP3    H160497   0.361   5.972   6.429 -0.4567  1.2102  2.0784
13002TIP3    H260498   0.508   5.988   6.462  0.2426 -1.4945  0.3894
13003TIP3   OH260499   4.583   5.642  14.960  0.3536 -0.2030 -0.4341
13003TIP3    H160500   4.509   5.606  14.910  0.5178  1.0632 -1.6207
13003TIP3    H260501   4.653   5.651  14.895  1.0415  0.0733  0.3467
13004TIP3   OH260502   1.563   5.940  10.946  0.0676 -0.0322  0.0133
13004TIP3    H160503   1.538   5.869  10.887 -0.3974  1.3960 -1.5461
13004TIP3    H260504   1.653   5.961  10.920  0.2972 -0.1922  0.6513
13005TIP3   OH260505   2.408   1.018  15.700  0.1725  0.7626  0.5623
13005TIP3    H160506   2.357   1.098  15.696  0.9642  1.2135 -0.6533
13005TIP3    H260507   2.344   0.949  15.717 -0.8367  1.3147 -0.9817
13006TIP3   OH260508   4.994   6.314   5.144 -0.1380  0.7699 -0.0462
13006TIP3    H160509   4.964   6.224   5.128  1.4494 -0.1826  2.1705
13006TIP3    H260510   5.085   6.315   5.114 -0.4390  1.9413 -0.9780
13007TIP3   OH260511   0.741   4.769   1.226 -0.1583 -0.1232  0.0529
13007TIP3    H160512   0.675   4.838   1.221  0.4036  0.5731  1.6461
13007TIP3    H260513   0.691   4.687   1.230 -0.9625  0.4218  1.7677
13008TIP3   OH260514   5.299   5.544   5.089  0.4203  0.1147  0.3826
13008TIP3    H160515   5.298   5.625   5.037 -1.0553  0.9907  1.7610
13008TIP3    H260516   5.271   5.477   5.028 -0.9586  1.0784 -0.0659
13009TIP3   OH260517   1.143   1.231  14.620 -0.2409  0.0591 -0.2763
13009TIP3    H160518   1.098   1.213  14.703 -0.8090 -1.8439 -0.9812
13009TIP3    H260519   1.137   1.326  14.610  1.1549  0.4984  2.5876
13010TIP3   OH260520   6.312   1.881   3.503  0.2226 -0.1981  0.3137
13010TIP3    H160521   6.300   1.927   3.586 -0.5057  0.1307  0.0352
13010TIP3    H260522   6.314   1.788   3.527  0.0482 -0.1021  0.7083
13011TIP3   OH260523   5.395   1.201   0.496  0.0008 -0.4499  0.1825
13011TIP3    H160524   5.462   1.190   0.563  1.6448 -0.3496 -1.4126
13011TIP3    H260525   5.391   1.117   0.451  0.4740  0.1596 -1.0103
13012TIP3   OH260526   2.889   2.026  13.695  0.3609 -0.3189  0.2478
13012TIP3    H160527   2.924   2.083  13.626 -0.3525 -0.3905 -0.1799
13012TIP3    H260528   2.963   2.010  13.753  0.9705 -0.2752 -0.5176
13013TIP3   OH260529   2.336   2.679   6.276 -0.3678 -0.0017  0.2116
13013TIP3    H160530   2.432   2.677   6.273 -0.3490  1.3174 -3.7798
13013TIP3    H260531   2.316   2.759   6.326  0.6360  0.4447 -0.0795
13014TIP3   OH260532   5.481   0.928   0.359  1.3928  0.9582  0.5103
13014TIP3    H160533   5.521   0.898   0.278  0.1642  2.1793 -0.5922
13014TIP3    H260534   5.517   0.872   0.427  0.0685 -2.1607 -1.2879
13015TIP3   OH260535   0.356   5.600   4.301 -0.0807 -0.1133 -0.0031
13015TIP3    H160536   0.382   5.557   4.382  3.7551  0.7232 -0.6952
13015TIP3    H260537   0.351   5.692   4.323 -2.1757 -0.2058 -0.0011
13016TIP3   OH260538   3.865   2.055   5.160 -0.3286  0.0113 -0.1102
13016TIP3    H160539   3.832   2.098   5.239 -1.5175 -0.1342 -0.5161
13016TIP3    H260540   3.801   1.986   5.141  0.1313 -0.1884 -0.9927
13017TIP3   OH260541   1.652   1.151   4.612  0.2504  0.0940  0.2636
13017TIP3    H160542   1.667   1.127   4.521 -0.9504 -0.0223  0.0989
13017TIP3    H260543   1.724   1.109   4.660  0.4469 -0.4784 -0.5278
13018TIP3   OH260544   5.288   2.412   1.461  0.2048  0.1483 -0.2806
13018TIP3    H160545   5.302   2.387   1.552 -0.5136 -0.3399 -0.3019
13018TIP3    H260546   5.294   2.330   1.412 -2.0910  0.0030 -0.3572
13019TIP3   OH260547   0.617   5.061   6.461  1.1590  0.1326  0.5025
13019TIP3    H160548   0.556   5.059   6.387 -0.5144  1.0325  1.8264
13019TIP3    H260549   0.634   4.968   6.480 -1.5375 -0.2233  1.4719
13020TIP3   OH260550   6.661   1.325   5.585 -0.1077 -0.4341 -0.1957
13020TIP3    H160551   6.722   1.275   5.531  0.0554 -0.1376 -0.2851
13020TIP3    H260552   6.667   1.284   5.671 -0.8679 -1.3425 -0.5649
13021TIP3   OH260553   1.865   5.706  12.148 -0.4299  0.7390  0.4608
13021TIP3    H160554   1.774   5.676  12.156  0.1105 -0.5712  1.9063
13021TIP3    H260555   1.914   5.648  12.205  1.1184  2.3996  0.8499
13022TIP3   OH260556   5.021   4.129  12.079  0.3589 -0.3510 -0.0796
13022TIP3    H160557   5.014   4.058  12.015  0.8250 -0.2471 -0.2420
13022TIP3    H260558   4.945   4.185  12.060 -1.0121 -1.7154  1.1824
13023TIP3   OH260559   0.689   1.690   2.187  0.1661 -0.4692  0.3910
13023TIP3    H160560   0.635   1.625   2.232 -0.0684 -0.8827 -0.4699
13023TIP3    H260561   0.777   1.675   2.219  0.4286 -2.4434 -1.1599
13024TIP3   OH260562   1.236   2.045  12.031 -0.0835  0.2105  0.3862
13024TIP3    H160563   1.307   2.093  11.989 -0.1443 -0.5076 -0.5432
13024TIP3    H260564   1.276   1.963  12.059 -0.4390  0.0046  0.2841
13025TIP3   OH260565   6.333   0.329   6.057 -0.1959 -0.0230  0.2226
13025TIP3    H160566   6.297   0.272   6.125  1.2046  0.1031  1.1016
13025TIP3    H260567   6.423   0.298   6.046  0.3346  1.5214  0.1525
13026TIP3   OH260568   4.973   1.777  15.195 -0.6849  0.1753 -0.5908
13026TIP3    H160569   4.959   1.686  15.223 -3.0008 -0.3839 -3.4351
13026TIP3    H260570   5.035   1.770  15.122  0.6019  1.0856  0.3953
13027TIP3   OH260571   3.841   2.005  12.851  0.1320  0.0926 -0.0678
13027TIP3    H160572   3.833   1.923  12.802  1.0511 -0.5482  0.8315
13027TIP3    H260573   3.764   2.055  12.826 -0.6815 -1.2338 -0.2745
13028TIP3   OH260574   4.613   1.094  15.049 -0.7888  0.5406  0.5047
13028TIP3    H160575   4.530   1.067  15.011 -0.2426  0.4121 -0.6214
13028TIP3    H260576   4.621   1.041  15.129 -0.4323 -1.5941 -0.9018
13029TIP3   OH260577   3.421   2.335  14.614  0.0089  0.1557 -0.0523
13029TIP3    H160578   3.342   2.310  14.566 -0.8088  1.5755  0.5010
13029TIP3    H260579   3.463   2.252  14.636 -1.6347 -0.6636  0.1169
13030TIP3   OH260580   5.183   5.408   2.832 -0.5618 -0.1953 -0.5168
13030TIP3    H160581   5.219   5.496   2.819 -0.5901  0.0249  0.8846
13030TIP3    H260582   5.090   5.417   2.813 -0.8380  0.4146  1.0617
13031TIP3   OH260583   4.138   4.599   0.847  0.1937  0.2899  0.0384
13031TIP3    H160584   4.212   4.653   0.877 -0.6187  0.0750  2.5709
13031TIP3    H260585   4.061   4.649   0.873 -0.5620 -1.0233  0.3520
13032TIP3   OH260586   0.386   4.044  10.867  0.7875 -0.1479  0.0492
13032TIP3    H160587   0.455   3.978  10.875  0.2872 -0.6067  0.5148
13032TIP3    H260588   0.424   4.109  10.807  1.1964 -0.9595 -0.5993
13033TIP3   OH260589   1.340   0.265  16.440 -0.2725  0.5160  0.1476
13033TIP3    H160590   1.431   0.273  16.411  0.0600 -2.1290  0.3635
13033TIP3    H260591   1.346   0.267  16.536 -0.1266 -2.1650  0.2374
13034TIP3   OH260592   3.289   1.957  16.728  0.1658  0.2166  0.6179
13034TIP3    H160593   3.316   1.906  16.805  3.3316 -2.0495 -1.8493
13034TIP3    H260594   3.277   1.892  16.659 -1.8120  2.2855 -1.0545
13035TIP3   OH260595   6.555   3.744  15.717 -0.2951  0.3940  0.6952
13035TIP3    H160596   6.500   3.754  15.795  1.8795 -3.5023  2.8777
13035TIP3    H260597   6.503   3.690  15.658 -1.1028  1.5610  0.3338
13036TIP3   OH260598   2.130   4.103   5.368  0.1338  0.1535 -0.0133
13036TIP3    H160599   2.094   4.183   5.329 -2.4716 -1.2836 -0.6742
13036TIP3    H260600   2.216   4.094   5.329  0.0315  2.0710 -0.7434
13037TIP3   OH260601   3.944   3.153  13.867 -0.3660  0.0504 -0.0755
13037TIP3    H160602   3.912   3.241  13.853  1.2962  0.6459 -0.2396
13037TIP3    H260603   3.953   3.115  13.779 -0.6847 -0.1363 -0.0273
13038TIP3   OH260604   6.219   2.212  11.616  0.1181 -0.4848 -0.1701
13038TIP3    H160605   6.205   2.233  11.709 -1.4014 -0.5976 -0.3589
13038TIP3    H260606   6.278   2.281  11.585  0.3047 -0.2023  0.7764
13039TIP3   OH260607   5.002   1.027   4.899 -0.2856 -0.4339  0.3460
13039TIP3    H160608   4.986   1.118   4.924  0.8718 -0.1531  0.0758
13039TIP3    H260609   5.081   1.030   4.844 -0.2100 -1.6033  0.3713
13040TIP3   OH260610   5.364   2.876   0.880  0.3799  0.0281 -0.0513
13040TIP3    H160611   5.406   2.934   0.816  0.0373  1.2909  0.8399
13040TIP3    H260612   5.270   2.887   0.863  0.3407 -1.9148 -1.2847
13041TIP3   OH260613   5.777   6.442  15.746  0.4514  0.0041  0.3444
13041TIP3    H160614   5.709   6.399  15.797 -0.7846  1.7886  0.2441
13041TIP3    H260615   5.731   6.511  15.698  2.1829  0.6608 -0.4189
13042TIP3   OH260616   0.718   4.843  15.954 -0.2908  0.3400 -0.5629
13042TIP3    H160617   0.777   4.811  16.022  1.4228 -1.6430 -2.8923
13042TIP3    H260618   0.640   4.788  15.962  0.2784 -0.5005 -0.8001
13043TIP3   OH260619   1.457   2.183  12.728  0.0351  0.0472 -0.3001
13043TIP3    H160620   1.404   2.124  12.781  0.0115  0.7141  0.4225
13043TIP3    H260621   1.422   2.174  12.639  1.1052 -2.2700 -0.5315
13044TIP3   OH260622   0.057   5.116  16.466 -0.4567  0.1503  0.2116
13044TIP3    H160623   0.063   5.195  16.413  1.9388 -0.5823 -0.7014
13044TIP3    H260624   0.024   5.049  16.406 -0.7849  0.0444  0.5073
13045TIP3   OH260625   2.028   5.563   2.486  0.1322 -0.2731 -0.3725
13045TIP3    H160626   2.046   5.484   2.436 -1.2878 -1.3749  0.8114
13045TIP3    H260627   2.078   5.552   2.566  1.5149  0.9705 -1.0510
13046TIP3   OH260628   2.933   2.356  15.494  0.8593  0.0350  0.1004
13046TIP3    H160629   2.884   2.423  15.543  0.3007 -0.9474  0.9258
13046TIP3    H260630   2.996   2.322  15.558  0.0703 -1.3172  0.1780
13047TIP3   OH260631   0.446   4.716   2.037 -0.1797 -0.5584  0.0744
13047TIP3    H160632   0.388   4.792   2.044  0.1558 -0.3859  0.9953
13047TIP3    H260633   0.390   4.646   2.002 -0.2368  0.3985 -1.8304
13048TIP3   OH260634   5.488   2.953  13.755  0.1131 -0.2109 -0.6323
13048TIP3    H160635   5.578   2.927  13.777  0.2302 -2.0259 -3.0508
13048TIP3    H260636   5.455   2.993  13.835  1.9658 -2.5233  1.4000
13049TIP3   OH260637   0.361   5.565  15.038 -0.3943  0.5095 -0.4276
13049TIP3    H160638   0.385   5.657  15.046  0.7333  0.1899 -0.1116
13049TIP3    H260639   0.366   5.530  15.127 -1.0988  0.2051 -0.5008
13050TIP3   OH260640   6.052   5.611  15.275 -0.0747 -0.1697 -0.1838
13050TIP3    H160641   6.036   5.526  15.316  2.0216 -0.7129 -0.4190
13050TIP3    H260642   6.063   5.672  15.348 -0.7139 -0.2809  0.0008
13051TIP3   OH260643   1.973   0.879  15.196 -0.3528  0.1374  0.2855
13051TIP3    H160644   2.053   0.850  15.151  0.6656  0.0154  2.1468
13051TIP3    H260645   1.953   0.964  15.157 -0.7826 -0.9721 -1.9941
13052TIP3   OH260646   3.205   0.641   2.518 -0.3274 -0.2226 -0.0501
13052TIP3    H160647   3.289   0.653   2.475 -0.2139  1.0099  0.5072
13052TIP3    H260648   3.206   0.704   2.590 -1.3735 -0.7990  0.4754
13053TIP3   OH260649   4.018   4.535   4.688 -0.2942  0.3508 -0.0243
13053TIP3    H160650   4.070   4.616   4.679  0.2809 -0.0316 -0.1665
13053TIP3    H260651   3.978   4.522   4.603 -0.2823  0.4098 -0.0391
13054TIP3   OH260652   3.015   4.989   1.749  0.0570 -0.2664 -0.0536
13054TIP3    H160653   3.089   4.986   1.689 -0.5065  1.6979 -0.8599
13054TIP3    H260654   2.967   5.068   1.726 -1.4770 -0.7130  1.4447
13055TIP3   OH260655   4.156   4.647   1.983 -0.1165 -0.6029  0.6086
13055TIP3    H160656   4.114   4.562   2.000 -1.2528 -0.1771 -0.0003
13055TIP3    H260657   4.086   4.711   1.995  0.0742  0.0474 -1.4476
13056TIP3   OH260658   1.155   1.861  14.232  0.2494  0.4213  0.1412
13056TIP3    H160659   1.216   1.922  14.191  1.8039 -0.8372  0.5477
13056TIP3    H260660   1.200   1.777  14.230 -1.8296 -0.7208 -0.3362
13057TIP3   OH260661   3.887   2.787  14.153 -0.0088  0.0867 -0.5827
13057TIP3    H160662   3.943   2.750  14.221 -2.1820 -0.9932  0.6776
13057TIP3    H260663   3.946   2.803  14.079  2.1487  0.0517  1.0727
13058TIP3   OH260664   1.463   6.504   6.297 -0.2144  0.2117 -0.1911
13058TIP3    H160665   1.450   6.593   6.264  0.9889  0.6650  0.5181
13058TIP3    H260666   1.375   6.467   6.303 -0.8162  1.6956  0.4243
13059TIP3   OH260667   0.976   3.364   2.180 -0.3503 -0.5542  0.7218
13059TIP3    H160668   0.901   3.308   2.201 -0.9248 -0.2324 -0.4487
13059TIP3    H260669   1.051   3.319   2.219 -1.0831 -1.1094  1.5062
13060TIP3   OH260670   2.599   5.172   4.145  0.1750 -0.2752 -0.4026
13060TIP3    H160671   2.625   5.132   4.228  1.0019  2.6379  0.7998
13060TIP3    H260672   2.682   5.187   4.099 -0.1302  0.0036 -0.8625
13061TIP3   OH260673   4.061   3.091  11.835 -0.2423 -0.9938 -0.1047
13061TIP3    H160674   4.043   3.155  11.767  0.8237  2.0706  2.3881
13061TIP3    H260675   3.979   3.043  11.846 -1.0552 -0.0759 -2.0145
13062TIP3   OH260676   4.493   4.856   3.516 -0.0779  0.7721 -0.2178
13062TIP3    H160677   4.504   4.761   3.518  3.2583  1.0839 -0.8985
13062TIP3    H260678   4.520   4.885   3.603  0.1500  1.2209 -0.4379
13063TIP3   OH260679   3.914   1.456   2.484 -0.2275  0.1268 -0.3778
13063TIP3    H160680   3.898   1.502   2.402  1.1188  1.3196  0.0134
13063TIP3    H260681   3.845   1.486   2.543  0.3432  1.2581 -0.2829
13064TIP3   OH260682   1.984   1.248   1.971  0.0597 -0.2346 -0.0815
13064TIP3    H160683   2.060   1.196   1.997 -0.0161 -0.1149  0.3853
13064TIP3    H260684   1.959   1.295   2.050 -0.4058 -0.1537 -0.2731
13065TIP3   OH260685   1.710   5.394  15.912  0.2899 -0.0671 -0.0173
13065TIP3    H160686   1.662   5.316  15.941 -0.5508  0.7926  0.9391
13065TIP3    H260687   1.774   5.361  15.849 -2.4844 -1.0428 -2.3920
13066TIP3   OH260688   5.914   3.041   2.377  0.2156 -0.1412 -0.1879
13066TIP3    H160689   5.910   3.088   2.461  0.0931 -2.2517  1.0424
13066TIP3    H260690   6.003   3.005   2.374  0.9101  1.6728 -1.9810
13067TIP3   OH260691   4.851   6.289  14.464  0.4543  0.2292 -0.2273
13067TIP3    H160692   4.924   6.288  14.525 -0.3608 -0.8197  0.7613
13067TIP3    H260693   4.806   6.206  14.478 -1.4514  1.2219 -0.1505
13068TIP3   OH260694   3.884   4.341  11.317 -0.6491 -0.5885  0.1237
13068TIP3    H160695   3.890   4.246  11.309 -2.3343 -0.7847  1.0859
13068TIP3    H260696   3.823   4.367  11.248 -0.5624 -0.2436  0.1748
13069TIP3   OH260697   6.402   4.894   5.638 -0.1474 -0.3090 -0.0433
13069TIP3    H160698   6.328   4.935   5.592 -0.2591 -0.6848 -0.1959
13069TIP3    H260699   6.427   4.820   5.583  1.4785  0.8409 -0.8990
13070TIP3   OH260700   1.538   2.499   3.311 -0.3641  0.2414 -0.4174
13070TIP3    H160701   1.511   2.589   3.291 -0.5998 -0.0071 -1.2645
13070TIP3    H260702   1.569   2.464   3.227  1.8971  0.2641  0.3578
13071TIP3   OH260703   0.964   2.260   3.975  0.4317 -0.3228  0.0386
13071TIP3    H160704   1.013   2.301   3.904  2.2796 -1.2382  0.7325
13071TIP3    H260705   0.907   2.329   4.008  1.9666  1.0936 -0.1737
13072TIP3   OH260706   4.611   6.283  13.743 -0.2874 -0.1355 -0.1181
13072TIP3    H160707   4.622   6.314  13.833 -2.0356 -0.0705  0.0997
13072TIP3    H260708   4.638   6.192  13.745 -0.3505 -0.1434  0.4848
13073TIP3   OH260709   5.837   5.899   2.834 -0.5810 -0.0962  0.0675
13073TIP3    H160710   5.892   5.977   2.839 -1.8562  0.9223 -1.1129
13073TIP3    H260711   5.888   5.836   2.783  0.1702  0.2345  0.4075
13074TIP3   OH260712   4.164   1.464   1.174 -0.0624 -0.1365 -0.5787
13074TIP3    H160713   4.118   1.541   1.207  0.7607  0.4593 -0.8108
13074TIP3    H260714   4.256   1.480   1.195  0.0424 -1.3084 -0.1409
13075TIP3   OH260715   4.035   0.984   3.627 -0.0440 -0.0947 -0.1274
13075TIP3    H160716   4.102   0.945   3.571  0.8958 -0.1153  0.9959
13075TIP3    H260717   4.075   1.064   3.660 -0.2642 -0.5254  1.2079
13076TIP3   OH260718   0.480   1.437   3.208  0.5280  0.4213 -0.3202
13076TIP3    H160719   0.495   1.523   3.247  0.7929  0.4159 -0.4171
13076TIP3    H260720   0.431   1.389   3.276  0.4690  0.6124 -0.2280
13077TIP3   OH260721   5.285   4.377  13.063 -0.6296  0.6477 -0.0391
13077TIP3    H160722   5.223   4.418  13.003  1.1732  2.9488 -0.4114
13077TIP3    H260723   5.350   4.336  13.005  0.3282  1.6401  0.3147
13078TIP3   OH260724   0.414   3.919  13.844 -0.0810 -0.1430  0.0035
13078TIP3    H160725   0.373   3.837  13.817  0.6918 -0.7505  0.6309
13078TIP3    H260726   0.403   3.921  13.939  0.3238  0.2464  0.0439
13079TIP3   OH260727   1.415   1.786   2.373 -0.0957  0.2621 -0.3880
13079TIP3    H160728   1.356   1.723   2.415  1.5703 -0.7842  0.4415
13079TIP3    H260729   1.431   1.853   2.439  1.6249 -0.7907  0.3084
13080TIP3   OH260730   6.630   4.362  12.140  0.1131  0.0900  0.4231
13080TIP3    H160731   6.547   4.373  12.094  0.4909 -0.4826 -0.3993
13080TIP3    H260732   6.614   4.398  12.227 -0.8540  0.4150  0.1150
13081TIP3   OH260733   4.302   5.942   3.771  0.3369 -0.3955  0.2337
13081TIP3    H160734   4.229   5.997   3.799  0.8059  0.3989 -0.0826
13081TIP3    H260735   4.375   5.968   3.827  0.1268 -1.8777  1.2087
13082TIP3   OH260736   2.319   2.509  13.852  0.2177 -0.0863  0.4242
13082TIP3    H160737   2.395   2.451  13.850  1.1161  1.0299  1.3391
13082TIP3    H260738   2.281   2.496  13.939 -1.5658 -1.7689 -0.5596
13083TIP3   OH260739   3.491   1.217   4.368  0.1069  0.3509  0.5084
13083TIP3    H160740   3.479   1.122   4.358  0.3519  0.4094 -0.3340
13083TIP3    H260741   3.498   1.229   4.463 -0.5211 -0.4005  0.6623
13084TIP3   OH260742   6.112   6.756   4.343 -0.2203  0.1508 -0.1049
13084TIP3    H160743   6.133   6.757   4.249  1.0823 -1.3437  0.1608
13084TIP3    H260744   6.167   6.823   4.381  1.0317 -0.8963 -0.0508
13085TIP3   OH260745   4.380   1.730   4.240  0.4577  0.0154 -0.3209
13085TIP3    H160746   4.366   1.655   4.299 -0.8581 -0.1490 -0.8244
13085TIP3    H260747   4.359   1.696   4.153 -0.0894  0.9529 -0.5571
13086TIP3   OH260748   6.481   1.981  13.648  0.2235 -0.0074 -0.6082
13086TIP3    H160749   6.524   2.067  13.652  0.8944 -0.2862 -1.7819
13086TIP3    H260750   6.481   1.958  13.555 -0.8705 -0.8271 -0.4197
13087TIP3   OH260751   4.180   0.824   4.281 -0.0084  0.2252 -0.0187
13087TIP3    H160752   4.197   0.736   4.249 -1.6623  0.1339 -0.6881
13087TIP3    H260753   4.238   0.834   4.357 -2.2474 -2.6838  2.1687
13088TIP3   OH260754   3.431   5.862  13.926 -0.1160 -0.0087 -0.0653
13088TIP3    H160755   3.362   5.853  13.992  1.1413  0.3137  1.2993
13088TIP3    H260756   3.447   5.956  13.921  0.1271 -0.0718 -0.4839
13089TIP3   OH260757   6.004   1.516  12.682 -0.1638 -0.1423 -0.2241
13089TIP3    H160758   5.928   1.571  12.704 -0.5502 -1.4778  1.9534
13089TIP3    H260759   5.965   1.435  12.648  0.3617 -0.0153 -1.1580
13090TIP3   OH260760   2.042   6.675   1.473  0.0508 -0.2573 -0.0259
13090TIP3    H160761   2.049   6.768   1.454 -0.4088 -0.4501 -1.2074
13090TIP3    H260762   1.949   6.655   1.462  0.0159 -0.6910  1.0077
13091TIP3   OH260763   6.528   4.734   6.358 -0.0188 -0.0336  0.5395
13091TIP3    H160764   6.462   4.666   6.346  1.7680 -1.5672 -0.8560
13091TIP3    H260765   6.479   4.810   6.389 -1.8965 -2.2936  3.3231
13092TIP3   OH260766   2.356   0.086  14.031  0.1034 -0.5770  0.0494
13092TIP3    H160767   2.337   0.012  14.089 -0.4814 -2.1919 -2.1465
13092TIP3    H260768   2.270   0.126  14.015  0.3478  0.2709  0.7732
13093TIP3   OH260769   1.349   3.530   0.236  0.1395 -0.0864  0.2217
13093TIP3    H160770   1.287   3.519   0.308 -0.0559 -0.7226 -0.0346
13093TIP3    H260771   1.351   3.444   0.194  1.8393 -0.3207  0.7477
13094TIP3   OH260772   4.341   4.390  15.240 -0.3225 -0.1353  0.1922
13094TIP3    H160773   4.300   4.428  15.162  0.6099 -2.3906 -1.4390
13094TIP3    H260774   4.397   4.321  15.206  0.1928 -1.0810  2.8852
13095TIP3   OH260775   0.955   4.755   2.153  0.1626 -0.0324  0.2571
13095TIP3    H160776   0.998   4.836   2.179  1.8750 -1.0282  0.6370
13095TIP3    H260777   0.939   4.765   2.059 -1.1207  1.3820  0.6130
13096TIP3   OH260778   1.597   2.251  13.605  0.2763  0.1128 -0.8155
13096TIP3    H160779   1.536   2.310  13.650  0.1356  0.1816 -1.0975
13096TIP3    H260780   1.683   2.280  13.635  0.1008 -0.9536  0.7592
13097TIP3   OH260781   2.973   1.289   4.502  0.2191  0.1754  0.2189
13097TIP3    H160782   3.015   1.203   4.504  0.0312  0.0791  0.0550
13097TIP3    H260783   2.921   1.292   4.582 -0.3360 -0.1486 -0.1250
13098TIP3   OH260784   3.692   3.279  17.003 -0.3081  0.3619 -0.6542
13098TIP3    H160785   3.757   3.349  16.997 -0.5525  0.7063  0.5119
13098TIP3    H260786   3.707   3.240  17.089 -2.0739  0.8985 -0.0597
13099TIP3   OH260787   0.210   1.379   5.450 -0.5927  0.3828 -0.0125
13099TIP3    H160788   0.157   1.451   5.416 -0.9210  0.0271 -0.2578
13099TIP3    H260789   0.300   1.410   5.441 -0.7327  0.7594 -0.1333
13100TIP3   OH260790   6.144   4.379  13.413  0.4622  0.2597 -0.5226
13100TIP3    H160791   6.153   4.468  13.379  0.9304  0.3330 -0.2090
13100TIP3    H260792   6.219   4.332  13.377  1.0673  0.3849  0.5481
13101TIP3   OH260793   4.471   0.836   2.479  0.6053  0.6054 -0.1791
13101TIP3    H160794   4.383   0.810   2.451  0.0436  1.0432  1.1657
13101TIP3    H260795   4.528   0.765   2.448 -0.4521 -0.5221  0.4272
13102TIP3   OH260796   0.715   4.936  11.699 -0.5429 -0.4294  0.2822
13102TIP3    H160797   0.747   4.846  11.706  1.6312  0.4150  1.9873
13102TIP3    H260798   0.631   4.936  11.745 -0.5027 -1.5766  0.3580
13103TIP3   OH260799   2.536   2.428  13.552 -0.0412  0.4774  0.3746
13103TIP3    H160800   2.608   2.415  13.490 -2.1713 -3.0681 -1.5165
13103TIP3    H260801   2.471   2.478  13.502  0.2372  1.8873  1.4032
13104TIP3   OH260802   2.166   2.288  15.128  0.1630 -0.4812 -0.4754
13104TIP3    H160803   2.101   2.220  15.111  0.5015 -0.3124 -2.5855
13104TIP3    H260804   2.116   2.369  15.130  0.1528 -0.4778 -0.8864
13105TIP3   OH260805   6.637   0.876  11.060 -0.0868  0.0846 -0.8590
13105TIP3    H160806   6.608   0.793  11.097 -2.4841  1.7879  1.2878
13105TIP3    H260807   6.567   0.902  11.000 -0.8682  1.9617  0.7810
13106TIP3   OH260808   1.473   5.250  15.724  0.0438 -0.4757 -0.1931
13106TIP3    H160809   1.537   5.182  15.704  0.9410  0.4046 -0.3787
13106TIP3    H260810   1.492   5.320  15.661 -1.8278 -0.6567 -1.0005
13107TIP3   OH260811   0.281   3.367   2.260  0.6481  0.1319 -0.1495
13107TIP3    H160812   0.272   3.452   2.216  0.7877  0.7273  0.9716
13107TIP3    H260813   0.313   3.308   2.191  0.4101  0.9497 -0.9680
13108TIP3   OH260814   4.020   3.747   0.642 -0.9170  0.4549 -0.3015
13108TIP3    H160815   3.971   3.808   0.587 -2.3670 -1.0621 -0.7477
13108TIP3    H260816   3.982   3.661   0.622  0.4890 -0.4881  0.9441
13109TIP3   OH260817   1.429   3.373   5.945  0.1275  0.1051 -0.4823
13109TIP3    H160818   1.363   3.423   5.992  1.3740  1.5965 -0.2698
13109TIP3    H260819   1.389   3.357   5.859 -0.2539  1.5797 -0.5986
13110TIP3   OH260820   5.569   6.633   4.580  0.0217  0.2299  0.7122
13110TIP3    H160821   5.633   6.590   4.637  1.4558  2.8480  1.1466
13110TIP3    H260822   5.600   6.615   4.491 -0.2148 -0.8568  0.8448
13111TIP3   OH260823   0.983   3.621   3.555  0.3327 -0.6366  0.6869
13111TIP3    H160824   0.912   3.568   3.591 -0.6460  0.6086  0.6335
13111TIP3    H260825   1.031   3.652   3.632 -1.9261  2.2555  1.0294
13112TIP3   OH260826   3.340   3.147   1.269 -0.3193  0.4669 -0.7018
13112TIP3    H160827   3.271   3.107   1.215 -1.3425  2.2095 -0.7257
13112TIP3    H260828   3.378   3.073   1.317 -1.5758 -0.6563 -1.3756
13113TIP3   OH260829   5.960   1.642   5.328  0.3311  0.0935 -0.6051
13113TIP3    H160830   5.919   1.727   5.319  1.5249  0.8196  0.5927
13113TIP3    H260831   5.965   1.608   5.238 -2.0442  0.3459 -0.8501
13114TIP3   OH260832   5.950   5.736   6.129  0.2931  0.0610 -0.3793
13114TIP3    H160833   5.980   5.746   6.039 -1.5814 -0.2539 -1.0552
13114TIP3    H260834   5.875   5.678   6.123  0.5035 -0.4467  1.4701
13115TIP3   OH260835   4.639   6.494  12.008 -0.3578  0.0458 -0.0473
13115TIP3    H160836   4.667   6.504  12.099 -1.8217 -0.6104  0.4916
13115TIP3    H260837   4.600   6.407  12.005 -0.1869  0.0088 -1.3469
13116TIP3   OH260838   3.570   4.130   4.574 -0.1749 -0.1719  0.0448
13116TIP3    H160839   3.614   4.147   4.491  0.4865  2.0865  0.8289
13116TIP3    H260840   3.479   4.154   4.559  0.3793  2.3926  0.5832
13117TIP3   OH260841   6.424   3.635  16.465  0.1085  0.4218 -0.4063
13117TIP3    H160842   6.454   3.706  16.407  0.0107  1.7947  1.1701
13117TIP3    H260843   6.328   3.643  16.464  0.1751  2.1826  1.9687
13118TIP3   OH260844   4.827   4.777  17.183 -0.5070  0.0408  0.2002
13118TIP3    H160845   4.883   4.761  17.107 -2.2379  1.6594 -1.4790
13118TIP3    H260846   4.738   4.757  17.152 -1.0189 -1.2682  2.4328
13119TIP3   OH260847   3.426   5.836  10.899 -0.6458  0.2571 -0.2898
13119TIP3    H160848   3.490   5.799  10.837 -0.8035  1.6563 -1.3057
13119TIP3    H260849   3.437   5.931  10.891 -1.4022  0.4661  1.0752
13120TIP3   OH260850   6.062   0.629  14.239  0.1159 -0.4933 -0.0847
13120TIP3    H160851   5.969   0.610  14.228  0.6521 -2.9303 -0.7697
13120TIP3    H260852   6.080   0.697  14.174 -1.3656  0.6606  0.6822
13121TIP3   OH260853   0.982   2.426   4.913 -0.3060 -0.4762 -0.2423
13121TIP3    H160854   1.035   2.348   4.926 -0.9080 -0.7256  0.7713
13121TIP3    H260855   0.892   2.397   4.925 -0.4657  0.5754  1.2027
13122TIP3   OH260856   4.766   3.175   5.665  0.0712  0.1264  0.3457
13122TIP3    H160857   4.694   3.118   5.640  1.3847 -1.3205 -0.2187
13122TIP3    H260858   4.731   3.229   5.736 -1.7980  0.0219 -0.4749
13123TIP3   OH260859   3.608   4.168   2.285  0.1842 -0.7840  0.1826
13123TIP3    H160860   3.652   4.121   2.355 -1.4261 -0.1121  1.7113
13123TIP3    H260861   3.605   4.259   2.315 -0.7029 -0.5202 -0.6522
13124TIP3   OH260862   3.935   2.083   5.610 -0.2136  0.1296 -0.1369
13124TIP3    H160863   3.938   2.153   5.676 -0.3904 -0.4206  0.4621
13124TIP3    H260864   4.024   2.082   5.573  0.2386 -0.3678  0.9509
13125TIP3   OH260865   4.682   0.210  15.131  0.4647  0.0297  0.6593
13125TIP3    H160866   4.715   0.289  15.086 -0.3869  0.8056  1.3744
13125TIP3    H260867   4.711   0.138  15.076  1.2461  0.8435 -0.0302
13126TIP3   OH260868   6.786   5.144   0.453 -0.3199 -0.0079 -0.1414
13126TIP3    H160869   6.771   5.206   0.525 -0.9115 -0.9812  0.5971
13126TIP3    H260870   6.879   5.153   0.432 -0.1846  0.4170  0.6211
13127TIP3   OH260871   1.308   5.311   0.753 -0.3948 -0.3739  0.2430
13127TIP3    H160872   1.357   5.256   0.691 -0.3129 -1.1955  1.0189
13127TIP3    H260873   1.329   5.274   0.839 -1.6804 -0.1669  0.6538
13128TIP3   OH260874   1.815   5.685  15.513 -0.5775  0.0564 -0.2572
13128TIP3    H160875   1.869   5.735  15.574  0.9072  0.1781 -1.6573
13128TIP3    H260876   1.835   5.722  15.427 -0.7299 -1.8327 -1.1185
13129TIP3   OH260877   3.892   3.625  12.709  0.5396  0.0841  0.2471
13129TIP3    H160878   3.817   3.650  12.762  2.4609  1.4382  2.4477
13129TIP3    H260879   3.891   3.529  12.709  0.3011  0.0490  2.5321
13130TIP3   OH260880   5.042   4.779   3.189 -0.4863  0.4699 -0.1661
13130TIP3    H160881   5.093   4.860   3.187  1.6353 -0.8547 -1.7382
13130TIP3    H260882   5.049   4.749   3.280  2.8435 -0.4644 -0.6753
13131TIP3   OH260883   0.694   4.111   5.140 -0.1377 -0.1887  0.0370
13131TIP3    H160884   0.655   4.073   5.219 -0.7522  0.8803  0.2472
13131TIP3    H260885   0.783   4.076   5.139 -0.1231 -0.2175  1.1944
13132TIP3   OH260886   1.041   5.101  15.335 -0.0176 -0.6440 -0.4108
13132TIP3    H160887   1.036   5.147  15.252 -1.0498 -1.0682 -0.5983
13132TIP3    H260888   1.095   5.024  15.318 -0.3477 -0.8053 -0.7249
13133TIP3   OH260889   6.571   4.745   4.399  0.1065 -0.2612  0.3932
13133TIP3    H160890   6.662   4.745   4.427  0.9902  1.4750 -2.2681
13133TIP3    H260891   6.548   4.652   4.391  1.4686 -0.7138  1.5733
13134TIP3   OH260892   2.293   4.773  16.357  0.0928  0.2245  0.0688
13134TIP3    H160893   2.234   4.707  16.320 -0.9838  0.1406  1.8838
13134TIP3    H260894   2.239   4.852  16.364  0.8230  0.7599 -0.2615
13135TIP3   OH260895   1.279   4.970  16.006 -0.0910  0.1943 -0.0291
13135TIP3    H160896   1.354   4.911  15.998  0.0874  0.2244  1.3465
13135TIP3    H260897   1.316   5.058  15.993 -0.0987  0.1222 -0.5522
13136TIP3   OH260898   0.939   3.539   0.628  0.1321  0.1135  0.6385
13136TIP3    H160899   0.878   3.612   0.639  1.4255  1.3174 -0.0633
13136TIP3    H260900   0.981   3.530   0.713  0.0522  0.2430  0.6922
13137TIP3   OH260901   0.853   6.730  13.953 -0.2346  0.2748  0.2485
13137TIP3    H160902   0.806   6.653  13.922  3.0388 -1.3071 -1.0254
13137TIP3    H260903   0.872   6.781  13.874  0.2941  0.7941  0.7016
13138TIP3   OH260904   6.592   1.803  16.025  0.5302 -0.2097  0.6010
13138TIP3    H160905   6.661   1.748  16.061  0.7392 -0.4753 -0.2055
13138TIP3    H260906   6.635   1.857  15.959  0.0460 -0.1190  0.3526
13139TIP3   OH260907   1.265   5.440  11.620  0.1552 -0.0651  0.0723
13139TIP3    H160908   1.174   5.437  11.590  0.5846  0.1855 -1.2880
13139TIP3    H260909   1.286   5.349  11.640  0.1198 -0.3621 -1.2021
13140TIP3   OH260910   5.638   4.932   2.790  0.1863  0.0670  0.2042
13140TIP3    H160911   5.606   4.985   2.862  1.5927 -0.0822  0.9654
13140TIP3    H260912   5.610   4.978   2.711  0.1547  1.1618  0.8527
13141TIP3   OH260913   5.099   6.511  13.725  0.6033  0.4126 -0.7184
13141TIP3    H160914   5.172   6.555  13.769  1.3012  0.2824 -1.7187
13141TIP3    H260915   5.071   6.443  13.787  1.6801  0.1141 -0.5373
13142TIP3   OH260916   1.547   6.287  15.985  0.0552  0.3426  0.4709
13142TIP3    H160917   1.578   6.338  16.060  0.8602 -0.6179  0.7986
13142TIP3    H260918   1.511   6.353  15.925  1.6546  1.3657  0.6007
13143TIP3   OH260919   3.115   4.215   1.816 -0.0243 -0.2022 -0.3861
13143TIP3    H160920   3.087   4.139   1.765 -1.8799 -0.5159  1.0621
13143TIP3    H260921   3.211   4.206   1.821 -0.2125 -2.4213 -0.2264
13144TIP3   OH260922   0.179   1.886  14.440  0.5505  0.2632 -0.2617
13144TIP3    H160923   0.233   1.846  14.371  0.4281 -1.1877  0.4664
13144TIP3    H260924   0.232   1.878  14.519  1.9406  4.4916 -0.6162
13145TIP3   OH260925   6.054   4.722   5.423  0.4511 -0.0707  0.4350
13145TIP3    H160926   6.011   4.693   5.503  0.7877  0.4986  0.8259
13145TIP3    H260927   6.088   4.809   5.444 -0.7963  0.7492 -0.8137
13146TIP3   OH260928   4.865   5.030  16.356  0.2433 -0.3024  0.6092
13146TIP3    H160929   4.858   4.941  16.390  0.5922 -0.4463  0.3053
13146TIP3    H260930   4.931   5.025  16.287 -1.0128 -0.1620 -0.6287
13147TIP3   OH260931   0.426   1.493  10.823 -0.4654  0.2631  0.1671
13147TIP3    H160932   0.409   1.470  10.914 -1.2833 -0.5834 -0.1876
13147TIP3    H260933   0.406   1.414  10.774  1.5807  0.1791 -0.6043
13148TIP3   OH260934   5.980   2.354  11.745  0.3429  0.4248 -0.0735
13148TIP3    H160935   5.908   2.299  11.713  1.3514 -0.7287 -0.4034
13148TIP3    H260936   5.995   2.324  11.834  1.8317 -0.8326 -0.7249
13149TIP3   OH260937   0.640   1.364   3.545 -0.1368 -0.3193  0.1558
13149TIP3    H160938   0.568   1.424   3.566 -2.1103 -2.6831  0.4317
13149TIP3    H260939   0.672   1.392   3.460 -1.4933  0.6983 -0.0269
13150TIP3   OH260940   0.347   3.477  11.973  0.4846 -0.0559 -0.3392
13150TIP3    H160941   0.267   3.519  12.004  1.4510  1.8980 -0.3772
13150TIP3    H260942   0.349   3.496  11.879  1.3060  0.4895 -0.2192
13151TIP3   OH260943   3.839   4.716  12.847  0.2716 -0.6835 -0.7802
13151TIP3    H160944   3.796   4.695  12.763 -1.3134 -1.5586  0.2220
13151TIP3    H260945   3.793   4.662  12.911 -0.2556  1.8360  1.0561
13152TIP3   OH260946   6.067   3.737  10.658  0.6545 -0.7464 -0.2585
13152TIP3    H160947   6.035   3.687  10.583 -1.0547 -2.3683  1.4884
13152TIP3    H260948   6.123   3.805  10.620  1.0590 -2.4721 -2.8756
13153TIP3   OH260949   1.650   6.509  14.920  0.0027  0.4124  0.1450
13153TIP3    H160950   1.680   6.593  14.886  0.0349  0.9211  1.3959
13153TIP3    H260951   1.712   6.445  14.884 -0.3921  0.8277 -1.3152
13154TIP3   OH260952   6.399   3.898   4.032  0.0054  0.1278 -0.2811
13154TIP3    H160953   6.468   3.850   3.986 -0.1060  0.9137 -1.2711
13154TIP3    H260954   6.321   3.844   4.021  0.2574 -0.3230  0.0916
13155TIP3   OH260955   0.273   0.996   5.573  0.2280 -0.5072  0.0289
13155TIP3    H160956   0.200   0.946   5.610  0.8720 -0.4300  1.4468
13155TIP3    H260957   0.346   0.978   5.632  0.5654  1.8211  0.3523
13156TIP3   OH260958   6.631   2.656  16.658  0.3642  0.1403 -0.0169
13156TIP3    H160959   6.695   2.629  16.724 -0.2753 -0.4453  0.3628
13156TIP3    H260960   6.667   2.620  16.576  1.6875  1.7450 -0.1703
13157TIP3   OH260961   6.350   2.283   3.076 -0.1648 -0.7069 -0.1709
13157TIP3    H160962   6.369   2.374   3.098  1.9667 -0.9239 -1.0454
13157TIP3    H260963   6.280   2.259   3.137  1.8127  0.3774  2.6784
13158TIP3   OH260964   1.645   2.401  17.240 -0.2876  0.5496 -0.1310
13158TIP3    H160965   1.676   2.311  17.248 -0.4331  0.6003  1.2393
13158TIP3    H260966   1.585   2.400  17.166  0.0314 -0.3880 -0.3795
13159TIP3   OH260967   2.431   3.216  13.319  0.1163 -0.1208  0.0819
13159TIP3    H160968   2.363   3.204  13.386  1.1372 -0.1065  1.1465
13159TIP3    H260969   2.511   3.233  13.369  0.7116  0.8715 -1.1743
13160TIP3   OH260970   3.241   5.393  12.203  0.3587 -0.2484 -0.2600
13160TIP3    H160971   3.210   5.349  12.124 -0.1997  1.2732 -0.9147
13160TIP3    H260972   3.202   5.344  12.275 -4.1653  1.9747 -1.0487
13161TIP3   OH260973   4.541   2.991  16.776  0.3061 -0.2821 -0.0976
13161TIP3    H160974   4.534   2.990  16.872  1.2226 -0.0671 -0.0202
13161TIP3    H260975   4.576   2.905  16.754 -1.4818 -0.9575 -0.3885
13162TIP3   OH260976   1.124   5.986  14.457 -0.0710 -0.4665 -0.0870
13162TIP3    H160977   1.071   5.906  14.456 -1.1727  0.2833 -2.1378
13162TIP3    H260978   1.063   6.056  14.437  1.5433  0.5086 -1.6816
13163TIP3   OH260979   0.827   6.676   2.462 -0.2943 -0.3201  0.4496
13163TIP3    H160980   0.756   6.731   2.429  0.6544  0.2520 -0.6623
13163TIP3    H260981   0.808   6.589   2.429 -0.0621 -0.0092 -0.5214
13164TIP3   OH260982   1.286   2.739  15.889 -1.0933 -0.2473  0.1009
13164TIP3    H160983   1.260   2.818  15.840 -1.1611  0.1240  0.7320
13164TIP3    H260984   1.376   2.756  15.914 -1.7910  0.5911  2.1302
13165TIP3   OH260985   1.278   1.250   5.944  0.6526 -0.7230 -0.2793
13165TIP3    H160986   1.346   1.184   5.956 -0.0234 -1.5249 -0.8082
13165TIP3    H260987   1.235   1.254   6.029  0.7751 -0.8739 -0.2076
13166TIP3   OH260988   2.447   0.067   3.806  0.2524 -0.0494 -0.5121
13166TIP3    H160989   2.541   0.083   3.798  0.3281 -0.1660  0.1785
13166TIP3    H260990   2.437  -0.027   3.794  0.5228 -0.4394  2.2353
13167TIP3   OH260991   3.401   5.429  11.414 -0.6952  0.5708 -0.1973
13167TIP3    H160992   3.450   5.507  11.392 -0.3708 -0.0020 -1.5389
13167TIP3    H260993   3.313   5.460  11.437 -0.3337  1.3902  0.0573
13168TIP3   OH260994   2.722   3.416   6.441 -0.5356 -0.5080 -0.5297
13168TIP3    H160995   2.792   3.441   6.500 -0.9941  1.3062 -0.7293
13168TIP3    H260996   2.728   3.320   6.435  1.0411 -0.4822  0.5141
13169TIP3   OH260997   6.814   5.380   5.625 -0.0044  0.0214 -0.4538
13169TIP3    H160998   6.900   5.374   5.666  0.0606  2.0249 -0.2154
13169TIP3    H260999   6.753   5.347   5.691  0.3785  0.5759  0.1814
13170TIP3   OH261000   1.806   2.308   6.005 -0.3048 -0.9101 -0.1572
13170TIP3    H161001   1.842   2.219   6.005  2.3970  0.1466  0.3253
13170TIP3    H261002   1.737   2.306   6.071 -0.1824 -2.6030 -0.0639
13171TIP3   OH261003   6.263   0.397  11.726  0.3989  0.1468 -0.6522
13171TIP3    H161004   6.187   0.455  11.737 -0.4158 -1.2492  1.3743
13171TIP3    H261005   6.225   0.313  11.700  1.1946 -0.6985  0.8443
13172TIP3   OH261006   1.876   6.546  16.442 -0.9863  0.6800 -0.0619
13172TIP3    H161007   1.941   6.483  16.411 -1.7229 -0.1628  0.0763
13172TIP3    H261008   1.841   6.506  16.522 -1.1999  1.4442  0.2268
13173TIP3   OH261009   4.485   5.419  15.162 -0.4205  0.2087 -0.2971
13173TIP3    H161010   4.502   5.497  15.109  1.1157 -0.4188 -0.7773
13173TIP3    H261011   4.433   5.450  15.235 -0.0222  1.6498 -0.6133
13174TIP3   OH261012   4.121   0.864  14.335  0.1974 -0.1232 -0.4532
13174TIP3    H161013   4.185   0.863  14.263  0.1348  0.4706 -0.5222
13174TIP3    H261014   4.118   0.956  14.362 -1.9795  0.1687 -1.6439
13175TIP3   OH261015   0.283   2.347  11.631 -0.2770 -0.0647 -0.4200
13175TIP3    H161016   0.236   2.363  11.712  1.1868 -0.3484  0.4964
13175TIP3    H261017   0.325   2.430  11.611  1.6507 -0.7523  0.6331
13176TIP3   OH261018   1.732   4.664  15.846 -0.0594 -0.0604 -0.3141
13176TIP3    H161019   1.651   4.680  15.797  0.5492  0.8316 -1.0421
13176TIP3    H261020   1.737   4.569  15.853 -2.6044 -0.1005  2.1874
13177TIP3   OH261021   1.453   5.251   1.597  0.7534 -0.0754  0.1304
13177TIP3    H161022   1.476   5.203   1.518  0.0994 -0.1900  0.0017
13177TIP3    H261023   1.436   5.340   1.568 -0.6160 -0.3772 -0.0534
13178TIP3   OH261024   3.448   2.793   1.702 -0.3037  0.0697  0.1296
13178TIP3    H161025   3.417   2.778   1.791  1.0508  1.2073  0.8211
13178TIP3    H261026   3.477   2.707   1.671  1.1633  0.0327  1.5627
13179TIP3   OH261027   5.207   1.606   1.711 -0.1183  0.3241 -0.0541
13179TIP3    H161028   5.201   1.522   1.756  1.1586 -0.3932 -1.1915
13179TIP3    H261029   5.235   1.668   1.779 -0.8385 -0.1970  0.7318
13180TIP3   OH261030   1.584   4.210   3.358  0.0570  0.1198 -0.0344
13180TIP3    H161031   1.588   4.249   3.445 -0.3575 -3.5065  1.7206
13180TIP3    H261032   1.508   4.251   3.316 -1.1117  0.2660  2.1910
13181TIP3   OH261033   3.132   5.701  15.582 -0.2749  0.5324 -0.1987
13181TIP3    H161034   3.216   5.737  15.553  0.5986 -0.3698  1.1432
13181TIP3    H261035   3.066   5.751  15.533  0.9796  2.2439 -0.1980
13182TIP3   OH261036   3.578   0.504   0.083  0.6256 -0.3633  0.3861
13182TIP3    H161037   3.546   0.425   0.127  0.2163  0.1505  1.0031
13182TIP3    H261038   3.523   0.574   0.116  2.6167  0.6030  1.7297
13183TIP3   OH261039   3.387   0.679  15.191  0.1640 -0.2149  0.3442
13183TIP3    H161040   3.473   0.691  15.150 -0.5329  0.5418 -0.9205
13183TIP3    H261041   3.394   0.595  15.236  1.0250 -0.9762 -1.1642
13184TIP3   OH261042   6.632   0.639  13.262  0.2561 -0.2032 -0.5153
13184TIP3    H161043   6.561   0.689  13.223  0.2287  0.3455  0.2326
13184TIP3    H261044   6.604   0.548  13.254 -0.5423  0.0094 -0.2071
13185TIP3   OH261045   0.446   2.532  12.769  0.5016 -0.2127  0.3156
13185TIP3    H161046   0.391   2.487  12.705  0.9765  0.8233 -0.8396
13185TIP3    H261047   0.482   2.607  12.722  2.6131 -0.6661  1.1537
13186TIP3   OH261048   4.333   0.614   0.771 -0.2538 -0.0731  0.2110
13186TIP3    H161049   4.382   0.574   0.699  1.3799  1.2965  0.5213
13186TIP3    H261050   4.241   0.593   0.753  0.4789 -3.6821  0.2191
13187TIP3   OH261051   6.745   1.473  17.231  0.7003 -0.9769 -0.0704
13187TIP3    H161052   6.831   1.469  17.272  0.6079 -1.0319  0.1198
13187TIP3    H261053   6.755   1.424  17.150  0.9854 -0.5354 -0.2988
13188TIP3   OH261054   0.847   5.995  12.161 -0.9809 -0.1031  0.2984
13188TIP3    H161055   0.779   6.047  12.118 -1.1642 -0.4939  0.1196
13188TIP3    H261056   0.803   5.954  12.235 -1.2047 -1.2337 -0.4577
13189TIP3   OH261057   6.264   3.566   3.884  0.3277 -0.8045  0.3592
13189TIP3    H161058   6.277   3.472   3.888 -1.0017 -1.0503 -0.6448
13189TIP3    H261059   6.344   3.600   3.843 -0.0915 -1.7343 -1.2743
13190TIP3   OH261060   1.687   0.041  12.786 -0.0927  0.2999 -0.6452
13190TIP3    H161061   1.687   0.101  12.860  0.8781  0.7332 -0.9975
13190TIP3    H261062   1.764   0.065  12.734  0.0859 -0.9669 -1.0050
13191TIP3   OH261063   1.094   4.025  13.318 -0.2667 -0.9500 -0.4319
13191TIP3    H161064   1.033   3.961  13.279 -0.2074  0.1134 -2.3356
13191TIP3    H261065   1.163   4.035  13.253  1.1819 -1.0137  1.0723
13192TIP3   OH261066   4.408   1.457   6.520 -0.3838 -0.6446 -0.2225
13192TIP3    H161067   4.317   1.484   6.536 -0.1839 -0.0802 -0.0187
13192TIP3    H261068   4.444   1.443   6.608 -0.4642 -1.5198 -0.3211
13193TIP3   OH261069   6.119   6.050  11.934 -0.0642  0.4661  0.1020
13193TIP3    H161070   6.106   6.029  11.841  1.7484  1.6444 -0.4377
13193TIP3    H261071   6.157   6.138  11.933 -1.0971  0.9571  2.0292
13194TIP3   OH261072   5.122   2.416   2.887  0.4553  0.6856  0.1510
13194TIP3    H161073   5.207   2.455   2.909  0.1333  0.8002  1.2067
13194TIP3    H261074   5.058   2.484   2.906 -0.1087 -0.3094  1.9753
13195TIP3   OH261075   6.161   2.073  12.148  0.2380  0.7278  0.5883
13195TIP3    H161076   6.156   1.978  12.160 -0.3903  0.6771 -0.0359
13195TIP3    H261077   6.092   2.107  12.205  1.3312  0.9018  1.8157
13196TIP3   OH261078   6.256   2.314  15.037 -0.2545 -0.0402  0.3172
13196TIP3    H161079   6.183   2.255  15.056 -0.4937  0.0935 -0.1715
13196TIP3    H261080   6.241   2.390  15.093 -0.1552 -0.2768  0.6666
13197TIP3   OH261081   3.574   3.527  14.424 -0.6912 -0.2765 -0.0810
13197TIP3    H161082   3.505   3.485  14.374 -1.8344  0.1940  1.0776
13197TIP3    H261083   3.535   3.609  14.456  0.5853  0.2998  0.0764
13198TIP3   OH261084   5.099   1.645   3.834  0.4713  0.5854  0.0353
13198TIP3    H161085   5.172   1.592   3.802 -0.6939 -1.6560  1.0382
13198TIP3    H261086   5.141   1.717   3.881  2.1120  1.5526 -2.7529
13199TIP3   OH261087   0.843   4.417  14.598 -0.1550 -0.2805  0.0395
13199TIP3    H161088   0.766   4.360  14.601  0.2824 -0.8487  0.7768
13199TIP3    H261089   0.843   4.460  14.684 -0.8714  1.3668 -0.7549
13200TIP3   OH261090   6.550   2.184   2.894 -0.7471 -0.0478  0.2521
13200TIP3    H161091   6.462   2.203   2.928 -0.6430 -1.2035  1.2280
13200TIP3    H261092   6.566   2.093   2.920  0.1740 -0.3030 -1.1611
13201TIP3   OH261093   3.329   2.064  13.840  0.4613  0.0758 -0.0281
13201TIP3    H161094   3.355   1.978  13.806  1.6186  1.2107 -2.1739
13201TIP3    H261095   3.379   2.074  13.920  0.9407 -0.9174 -0.1892
13202TIP3   OH261096   5.506   5.995  13.291  0.0002  0.6425  0.0422
13202TIP3    H161097   5.463   6.032  13.214 -0.2071  0.4976  0.0901
13202TIP3    H261098   5.438   5.995  13.358 -0.6508 -1.9228 -0.5817
13203TIP3   OH261099   3.654   6.004   4.635 -0.4700  0.0892  0.0839
13203TIP3    H161100   3.708   5.970   4.563 -0.8454  0.5150 -0.4024
13203TIP3    H261101   3.588   6.058   4.592 -1.3040 -0.4493  0.6774
13204TIP3   OH261102   3.249   5.643   4.650 -0.1636 -0.3896  0.4962
13204TIP3    H161103   3.335   5.685   4.646 -0.1228 -0.2941  2.3583
13204TIP3    H261104   3.187   5.714   4.635  0.0328 -0.2981  0.0896
13205TIP3   OH261105   2.085   5.725   4.950 -0.5657  0.0721 -0.0570
13205TIP3    H161106   2.121   5.793   5.007  0.2621 -0.7225  0.3705
13205TIP3    H261107   2.073   5.769   4.866  0.9815  0.4773 -0.0804
13206TIP3   OH261108   4.690   1.529   3.993  0.4050 -0.1104  0.2309
13206TIP3    H161109   4.631   1.603   4.001  0.3848 -0.1714  0.6855
13206TIP3    H261110   4.709   1.503   4.084  1.8373  0.4763  0.1183
13207TIP3   OH261111   1.603   2.282   5.423  0.2948  0.8808  0.6078
13207TIP3    H161112   1.637   2.371   5.425 -0.0833  1.0859 -1.2936
13207TIP3    H261113   1.587   2.264   5.330 -0.7555 -0.7384  1.0747
13208TIP3   OH261114   1.333   2.413   0.097 -0.1448 -0.4996  0.1747
13208TIP3    H161115   1.425   2.395   0.115 -0.5902 -0.3367  2.6967
13208TIP3    H261116   1.287   2.332   0.121 -0.7583 -0.2777 -0.2218
13209TIP3   OH261117   2.035   2.598   3.172 -0.1802 -0.1897  0.0530
13209TIP3    H161118   2.020   2.525   3.112 -1.2304 -0.1204  0.2314
13209TIP3    H261119   2.046   2.558   3.258 -1.4821 -0.0917  0.2703
13210TIP3   OH261120   1.148   4.388   5.804  0.0858  1.1178  0.1469
13210TIP3    H161121   1.144   4.300   5.843  3.8989  0.0843 -1.5384
13210TIP3    H261122   1.096   4.381   5.724  0.3937  0.3549  0.0086
13211TIP3   OH261123   1.087   6.033  15.038 -0.6516  0.4454 -0.3008
13211TIP3    H161124   1.093   6.086  15.118 -0.5105 -0.3813  0.2453
13211TIP3    H261125   1.011   5.977  15.053 -0.2262 -0.1762 -0.4682
13212TIP3   OH261126   1.980   3.632  13.657 -0.0342  0.0812 -0.1417
13212TIP3    H161127   1.932   3.715  13.655 -1.2872 -0.6480 -0.5844
13212TIP3    H261128   1.912   3.565  13.651  1.0725 -0.9607 -1.2558
13213TIP3   OH261129   2.144   1.749  13.450  0.6387 -0.4848 -0.2139
13213TIP3    H161130   2.148   1.779  13.541  1.3806 -0.5340 -0.2282
13213TIP3    H261131   2.232   1.718  13.431  1.1388  1.7513 -1.7184
13214TIP3   OH261132   3.902   2.228   3.638 -0.6849 -0.2184  0.0807
13214TIP3    H161133   3.890   2.135   3.620  2.3023 -0.7569  0.7479
13214TIP3    H261134   3.843   2.246   3.712  0.2997 -2.0571  1.3333
13215TIP3   OH261135   6.302   4.735  17.159  0.5197  0.0379 -0.9543
13215TIP3    H161136   6.282   4.668  17.224 -0.8960  1.4320  0.1009
13215TIP3    H261137   6.385   4.772  17.188  0.5870 -0.2928 -0.7255
13216TIP3   OH261138   2.263   2.542  16.731 -0.4815 -0.2383 -0.5313
13216TIP3    H161139   2.235   2.459  16.693  0.7087 -0.7162 -0.3669
13216TIP3    H261140   2.338   2.520  16.786  0.6474  1.1343 -1.4865
13217TIP3   OH261141   5.342   1.691  14.118 -0.1701  0.4776 -0.6430
13217TIP3    H161142   5.324   1.600  14.142  0.4070  0.4104 -0.4713
13217TIP3    H261143   5.433   1.705  14.143 -1.1926  2.0902  2.3365
13218TIP3   OH261144   2.746   0.731  11.265 -0.5802 -0.4757  0.3799
13218TIP3    H161145   2.709   0.654  11.223  1.7635 -0.5962 -1.5388
13218TIP3    H261146   2.840   0.722  11.254 -0.2243  2.3209  0.7558
13219TIP3   OH261147   4.702   5.624   4.741  0.4593 -0.1336  0.3805
13219TIP3    H161148   4.779   5.587   4.785  0.2980 -0.8503  0.0764
13219TIP3    H261149   4.638   5.636   4.812  0.6119 -0.1707  0.5258
13220TIP3   OH261150   3.653   5.055   2.005 -0.7933  0.7289 -0.1879
13220TIP3    H161151   3.746   5.073   2.017 -0.3187 -1.9099  0.4478
13220TIP3    H261152   3.613   5.079   2.088 -0.2800 -0.4606  0.4149
13221TIP3   OH261153   1.889   1.449  11.345 -0.0889  0.3999 -0.5292
13221TIP3    H161154   1.921   1.415  11.261 -0.5411  0.4857 -0.7423
13221TIP3    H261155   1.911   1.380  11.408  1.0309  0.7191 -0.5640
13222TIP3   OH261156   4.726   5.451  10.815 -0.6984  0.5819 -1.3015
13222TIP3    H161157   4.724   5.532  10.764  2.1884  1.4273 -0.1775
13222TIP3    H261158   4.657   5.397  10.777 -1.5905  2.9246 -3.1410
13223TIP3   OH261159   3.611   4.572   5.100 -0.1491  0.1032 -0.1131
13223TIP3    H161160   3.664   4.493   5.090  1.5368  1.0686  0.8862
13223TIP3    H261161   3.523   4.540   5.120  0.7306 -1.5188  1.2849
13224TIP3   OH261162   6.800   0.336  14.181  0.1109 -0.6614  0.3909
13224TIP3    H161163   6.888   0.298  14.190  0.1443 -0.3998  1.2088
13224TIP3    H261164   6.805   0.419  14.230 -0.8048 -0.9990  1.0598
13225TIP3   OH261165   5.274   6.257   3.526 -0.0753  0.2443  0.9193
13225TIP3    H161166   5.258   6.166   3.551  0.7565  0.5641  2.7195
13225TIP3    H261167   5.187   6.293   3.511 -0.4464 -0.6754  0.8494
13226TIP3   OH261168   2.425   1.721  13.802 -0.2079  0.5423  0.6558
13226TIP3    H161169   2.461   1.671  13.729 -2.0635  1.0259 -0.6254
13226TIP3    H261170   2.387   1.656  13.860 -0.2191  0.2691  0.3441
13227TIP3   OH261171   0.990   4.780   2.574  0.0437 -0.1046 -0.3493
13227TIP3    H161172   0.999   4.686   2.590 -0.2037 -0.0314  0.2207
13227TIP3    H261173   0.940   4.813   2.649  1.1398  0.6858  0.0456
13228TIP3   OH261174   3.695   6.696   1.746 -0.2588  0.0431  0.3849
13228TIP3    H161175   3.716   6.743   1.665 -1.4992 -0.4246 -0.2254
13228TIP3    H261176   3.611   6.732   1.773 -1.6030 -2.2749 -0.4890
13229TIP3   OH261177   3.711   4.344  12.025 -0.4295 -0.3128 -0.2157
13229TIP3    H161178   3.626   4.299  12.028 -0.6545  0.0849 -0.4990
13229TIP3    H261179   3.769   4.282  11.982 -1.2934  0.5280 -2.6952
13230TIP3   OH261180   2.847   6.650   4.736  0.3528  0.8345 -0.6515
13230TIP3    H161181   2.902   6.728   4.723  0.1222  0.8184 -1.7308
13230TIP3    H261182   2.897   6.596   4.797  1.1315  1.2179 -0.9399
13231TIP3   OH261183   3.731   2.691   1.025  0.3679 -0.0440 -0.7160
13231TIP3    H161184   3.727   2.748   1.102 -2.1985 -0.5860 -0.4091
13231TIP3    H261185   3.741   2.751   0.951  0.0769  0.6548 -0.1958
13232TIP3   OH261186   2.443   1.208   3.176  0.5288  0.5255 -0.5899
13232TIP3    H161187   2.352   1.205   3.205  1.0177 -3.1345  0.8347
13232TIP3    H261188   2.495   1.204   3.257  1.9641  1.4947 -1.4276
13233TIP3   OH261189   6.552   0.611   1.396 -0.0676 -0.6335 -0.1403
13233TIP3    H161190   6.530   0.520   1.374  1.2764 -0.8327 -0.6817
13233TIP3    H261191   6.539   0.660   1.315  0.7817 -0.6265 -0.2720
13234TIP3   OH261192   0.086   3.309   4.119  0.2024 -0.2841  0.3320
13234TIP3    H161193   0.033   3.388   4.132  0.8985  0.4324 -1.0734
13234TIP3    H261194   0.022   3.239   4.104 -0.4302 -0.0871  2.0927
13235TIP3   OH261195   1.296   5.733   1.871 -0.1109  0.0753  0.3093
13235TIP3    H161196   1.372   5.689   1.907 -0.2536 -1.3303 -1.0422
13235TIP3    H261197   1.270   5.796   1.938  0.7435 -1.1568  1.8255
13236TIP3   OH261198   2.702   4.022  16.786 -0.1205 -0.1747  0.1835
13236TIP3    H161199   2.689   3.957  16.717 -0.8176  1.0823 -0.8880
13236TIP3    H261200   2.786   3.997  16.825 -0.1677 -1.4635 -0.4822
13237TIP3   OH261201   4.866   1.677  14.596 -0.5854 -0.1028 -0.2603
13237TIP3    H161202   4.815   1.680  14.677  0.1014  1.5058  0.1450
13237TIP3    H261203   4.839   1.597  14.553 -2.0030 -0.2592  0.8961
13238TIP3   OH261204   5.857   3.176   0.077 -0.0844 -0.4934 -0.5145
13238TIP3    H161205   5.928   3.126   0.037 -0.6915 -0.1584 -2.0348
13238TIP3    H261206   5.868   3.265   0.043 -0.1290  0.0004  0.7072
13239TIP3   OH261207   3.052   2.119  16.635 -0.1532 -0.7912 -0.1197
13239TIP3    H161208   3.124   2.059  16.655  0.6559  0.1336 -0.2405
13239TIP3    H261209   2.973   2.070  16.659  0.5555 -1.4659  0.9005
13240TIP3   OH261210   4.023   5.079   0.318 -0.0523  0.4228  0.5074
13240TIP3    H161211   3.969   5.132   0.377 -1.1263 -0.3303  0.2120
13240TIP3    H261212   4.080   5.028   0.376 -0.2230  0.6213  0.8489
13241TIP3   OH261213   0.228   6.427   1.598 -0.1231 -0.4681  0.0063
13241TIP3    H161214   0.142   6.393   1.623 -0.3934  0.7205  0.7668
13241TIP3    H261215   0.210   6.512   1.558  0.8180  0.8278  2.1929
13242TIP3   OH261216   4.583   0.387  15.455 -0.5083  0.0901  0.0088
13242TIP3    H161217   4.629   0.314  15.412  2.4154  1.1639  1.1933
13242TIP3    H261218   4.559   0.353  15.541  0.0627  0.2219  0.2249
13243TIP3   OH261219   2.498   6.374  12.803  0.5027  0.1602 -0.7750
13243TIP3    H161220   2.408   6.344  12.811  0.3961  0.8202  0.9570
13243TIP3    H261221   2.551   6.302  12.838  0.6336 -0.1870 -1.6978
13244TIP3   OH261222   0.155   1.193  13.489  0.4404  0.0401  0.0701
13244TIP3    H161223   0.164   1.287  13.473 -0.5330  0.3545  1.3104
13244TIP3    H261224   0.121   1.186  13.578 -0.8739 -1.4232 -0.5099
13245TIP3   OH261225   0.302   2.109   1.768  0.8382  0.7763  0.2067
13245TIP3    H161226   0.382   2.060   1.751  0.2850 -0.3070  0.6626
13245TIP3    H261227   0.314   2.191   1.721  2.0967  0.5146  0.0456
13246TIP3   OH261228   1.171   4.043   2.653 -0.3517  0.1400 -0.0830
13246TIP3    H161229   1.162   3.971   2.714  1.0065  1.2363  1.4574
13246TIP3    H261230   1.243   4.017   2.595  0.7016  0.6141  1.0030
13247TIP3   OH261231   5.804   1.175   2.738 -0.0492  0.0006 -0.3880
13247TIP3    H161232   5.863   1.182   2.663 -1.3188 -0.0752 -1.4226
13247TIP3    H261233   5.734   1.237   2.719 -1.0587 -0.9676  0.1126
13248TIP3   OH261234   6.476   4.436   1.093 -0.2996  0.3474 -0.8690
13248TIP3    H161235   6.398   4.410   1.143  0.7995 -1.0897  0.1533
13248TIP3    H261236   6.493   4.361   1.036  1.3264 -0.0921  0.1618
13249TIP3   OH261237   1.085   0.224   2.053 -0.3758  0.3946  0.9726
13249TIP3    H161238   1.020   0.242   1.986  1.2954 -1.0410 -1.0823
13249TIP3    H261239   1.129   0.308   2.068 -0.2391  0.5521 -0.2829
13250TIP3   OH261240   2.005   6.402   3.689 -0.3828  0.4954 -0.0532
13250TIP3    H161241   1.934   6.343   3.715 -0.2653  0.5842  0.4920
13250TIP3    H261242   2.017   6.387   3.596  0.6408 -1.3957  0.3616
13251TIP3   OH261243   4.753   4.799  14.399 -0.3706  0.1883 -0.8510
13251TIP3    H161244   4.658   4.789  14.396 -0.4262  0.7481 -1.0383
13251TIP3    H261245   4.782   4.782  14.310 -0.3068  0.1259 -0.8173
13252TIP3   OH261246   2.119   2.019   1.478  0.3272  0.5028  0.1660
13252TIP3    H161247   2.156   2.052   1.397 -1.7432  1.1790 -0.5343
13252TIP3    H261248   2.166   1.937   1.495 -0.3104 -0.4596 -2.5633
13253TIP3   OH261249   6.310   0.255  11.994 -0.4657 -0.0963 -0.4470
13253TIP3    H161250   6.331   0.170  11.956  0.7642  0.1898 -0.4244
13253TIP3    H261251   6.215   0.253  12.006 -0.3909 -1.6254 -0.0507
13254TIP3   OH261252   0.113   4.480   2.797 -0.5849 -0.0582  0.0078
13254TIP3    H161253   0.156   4.556   2.836  1.1795 -1.4900  0.9229
13254TIP3    H261254   0.060   4.517   2.726  1.3331  1.8778 -0.4940
13255TIP3   OH261255   4.042   5.489  15.224 -0.0156  0.2051 -0.2376
13255TIP3    H161256   4.033   5.569  15.173 -1.5907  0.0800 -0.1582
13255TIP3    H261257   4.046   5.519  15.315  1.1837  0.3050 -0.3054
13256TIP3   OH261258   4.322   0.824   4.952 -0.2968 -0.2185 -0.5914
13256TIP3    H161259   4.324   0.794   5.043 -0.8880 -0.1221 -0.5449
13256TIP3    H261260   4.249   0.776   4.913 -0.1434 -0.1397 -0.9763
13257TIP3   OH261261   3.959   5.500  13.638  0.0024 -0.0355 -0.5616
13257TIP3    H161262   3.951   5.406  13.623  1.8600 -0.2746 -0.2312
13257TIP3    H261263   4.033   5.527  13.583 -0.2899  1.1597 -0.3879
13258TIP3   OH261264   3.076   6.104   5.941  0.2537  0.1250 -0.6418
13258TIP3    H161265   2.985   6.076   5.949  0.5571 -0.8239 -0.3762
13258TIP3    H261266   3.103   6.125   6.031  0.9603 -1.7932 -0.3738
13259TIP3   OH261267   4.047   1.115  11.532  0.1513  0.4389 -0.0066
13259TIP3    H161268   3.988   1.105  11.457 -0.5624  0.4070  0.5515
13259TIP3    H261269   4.080   1.204  11.525 -2.1282  1.4160  1.2130
13260TIP3   OH261270   0.708   4.507  15.833  0.5802  0.3075  0.5711
13260TIP3    H161271   0.798   4.501  15.865  0.4482 -1.8047  0.6383
13260TIP3    H261272   0.660   4.549  15.904  1.9613  3.7214 -0.4567
13261TIP3   OH261273   5.621   3.310  14.271 -0.4809 -0.5963 -0.2250
13261TIP3    H161274   5.621   3.341  14.362 -1.6784  0.2536 -0.5024
13261TIP3    H261275   5.569   3.229  14.273 -1.1363 -0.1797 -0.2773
13262TIP3   OH261276   3.852   1.145  17.202 -0.2217  0.4460  0.0321
13262TIP3    H161277   3.804   1.209  17.150  0.9183 -0.4669 -2.1781
13262TIP3    H261278   3.842   1.176  17.292  0.6179  3.9568 -1.0032
13263TIP3   OH261279   4.512   0.163   1.085  1.2222 -0.2035  0.1354
13263TIP3    H161280   4.608   0.169   1.081  1.3363 -1.9919  0.0779
13263TIP3    H261281   4.492   0.153   1.178  1.0693  0.2635  0.1570
13264TIP3   OH261282   3.932   1.423   1.331 -0.2862  0.5022  0.2838
13264TIP3    H161283   4.011   1.429   1.278 -1.4247  0.4730 -1.4680
13264TIP3    H261284   3.963   1.422   1.421  1.6012  2.3305 -0.3126
13265TIP3   OH261285   4.670   6.267  15.059 -0.8003  0.2058  0.3640
13265TIP3    H161286   4.696   6.177  15.042 -2.6562 -0.3825  0.5968
13265TIP3    H261287   4.733   6.320  15.010 -0.6652 -1.2506 -1.0685
13266TIP3   OH261288   2.816   1.303   4.718 -0.3270 -0.2586 -0.2574
13266TIP3    H161289   2.781   1.373   4.662 -1.3662  0.7047  1.5623
13266TIP3    H261290   2.814   1.340   4.806 -1.6583 -2.8748  0.8574
13267TIP3   OH261291   0.206   2.258   3.354  0.5068  0.0251 -0.6059
13267TIP3    H161292   0.296   2.288   3.346  0.1495  0.9316 -1.3749
13267TIP3    H261293   0.211   2.179   3.408  1.9188 -0.7166 -1.7831
13268TIP3   OH261294   6.187   3.598  13.600  0.7177 -0.4727 -0.0925
13268TIP3    H161295   6.191   3.605  13.696  0.7198  0.6516 -0.1607
13268TIP3    H261296   6.205   3.506  13.582  0.0265 -0.8501  1.0283
13269TIP3   OH261297   6.278   3.173  15.829  0.2016 -0.0765 -0.3284
13269TIP3    H161298   6.365   3.180  15.869  0.1260  0.8424 -0.3225
13269TIP3    H261299   6.233   3.106  15.881  0.8894 -0.5417 -0.3163
13270TIP3   OH261300   4.928   4.122  11.689 -0.0503  0.5043 -0.0404
13270TIP3    H161301   4.929   4.214  11.661 -3.3050  0.5940 -0.0667
13270TIP3    H261302   4.893   4.074  11.613 -1.2698 -0.3179  1.0193
13271TIP3   OH261303   6.147   4.774  16.627  0.0089  0.2902  0.2330
13271TIP3    H161304   6.139   4.862  16.665 -0.0189  0.3727  0.0314
13271TIP3    H261305   6.058   4.738  16.631 -0.1631  0.6206 -0.5392
13272TIP3   OH261306   1.951   4.681  13.276 -0.2875  0.4883  0.3262
13272TIP3    H161307   2.006   4.607  13.301 -0.2850  0.2984 -0.2350
13272TIP3    H261308   1.951   4.738  13.353  2.3358  1.4570 -0.3499
13273TIP3   OH261309   0.175   1.733  16.223  1.0773  0.5232 -0.1326
13273TIP3    H161310   0.207   1.822  16.214  3.4866 -0.3131 -0.2427
13273TIP3    H261311   0.161   1.721  16.317 -2.6584  2.0921 -0.3942
13274TIP3   OH261312   2.306   5.963  11.228 -0.7300 -0.2922 -0.0204
13274TIP3    H161313   2.388   5.914  11.232 -0.8552 -0.8348 -3.2588
13274TIP3    H261314   2.333   6.055  11.232  0.1065 -0.4509 -1.6290
13275TIP3   OH261315   3.939   3.744   0.362  0.0919 -0.1601  0.0374
13275TIP3    H161316   3.954   3.746   0.268  0.8282  1.9067  0.1708
13275TIP3    H261317   3.872   3.676   0.375  0.8928 -1.3306 -1.8223
13276TIP3   OH261318   5.345   1.008   0.050 -0.1603  0.2322  0.3107
13276TIP3    H161319   5.252   1.027   0.043 -0.0100  0.9419  0.1990
13276TIP3    H261320   5.353   0.917   0.019 -0.7552  0.3050 -0.0722
13277TIP3   OH261321   5.004   1.497   0.096  0.4643 -0.5493  0.5889
13277TIP3    H161322   5.075   1.434   0.081 -0.3326 -1.3109 -0.0477
13277TIP3    H261323   4.933   1.466   0.040 -0.9795 -0.7767  2.5300
13278TIP3   OH261324   0.418   0.828  10.974 -0.6364  0.5662  0.1062
13278TIP3    H161325   0.492   0.822  10.914 -0.0877  0.2198  0.8166
13278TIP3    H261326   0.393   0.920  10.973 -1.0227  0.4575 -1.1290
13279TIP3   OH261327   2.346   5.989   0.931 -0.0298 -0.3191  0.5173
13279TIP3    H161328   2.403   5.923   0.971  0.6609 -0.8969 -1.3885
13279TIP3    H261329   2.279   5.939   0.885 -1.0218  0.3439  1.2152
13280TIP3   OH261330   0.644   5.572  16.213 -0.0362  0.3011  0.0381
13280TIP3    H161331   0.658   5.506  16.145  2.7661  0.8341  0.0646
13280TIP3    H261332   0.725   5.571  16.264 -1.0145  1.9006  1.6530
13281TIP3   OH261333   3.563   0.976  13.907  0.0097  0.4361  0.2464
13281TIP3    H161334   3.626   1.048  13.902  0.0626  0.4104  0.5022
13281TIP3    H261335   3.617   0.899  13.927 -0.1967  0.5643  1.3355
13282TIP3   OH261336   5.724   5.627  17.019  0.2092  0.1834 -0.8140
13282TIP3    H161337   5.792   5.598  16.959 -1.0632  0.7573 -2.5841
13282TIP3    H261338   5.719   5.721  17.007 -0.4536  0.2369 -0.2113
13283TIP3   OH261339   1.899   0.158  12.649  0.0466  0.2015 -0.0305
13283TIP3    H161340   1.964   0.221  12.616  0.7499 -0.2611  0.4726
13283TIP3    H261341   1.941   0.073  12.640 -0.6084 -0.1293  0.0165
13284TIP3   OH261342   5.613   2.175   1.150 -0.2958  0.3872  0.6032
13284TIP3    H161343   5.537   2.193   1.095  1.2938  0.4729 -1.6188
13284TIP3    H261344   5.645   2.262   1.175 -1.3342  0.3450  2.1702
13285TIP3   OH261345   2.038   3.138  11.455 -0.0570  0.0694  0.0423
13285TIP3    H161346   2.130   3.165  11.463  0.4849 -1.5525 -0.4124
13285TIP3    H261347   2.002   3.196  11.388  0.3136  1.4750  1.0323
13286TIP3   OH261348   2.625   3.767  12.270  0.6336  0.7639  0.0890
13286TIP3    H161349   2.531   3.751  12.272  0.5063  1.5785  2.0447
13286TIP3    H261350   2.664   3.680  12.271 -0.1076  0.4049  2.5286
13287TIP3   OH261351   4.372   1.587  13.975 -0.2266  0.1242 -0.4366
13287TIP3    H161352   4.296   1.570  14.031 -0.8061  2.3962 -0.4814
13287TIP3    H261353   4.379   1.508  13.921 -2.4171 -0.2358 -0.2799
13288TIP3   OH261354   3.512   0.553   1.370 -0.2771 -0.1624 -0.7478
13288TIP3    H161355   3.505   0.487   1.300  0.5816 -0.4967 -0.5269
13288TIP3    H261356   3.422   0.580   1.387 -0.3241  1.8316 -3.7976
13289TIP3   OH261357   5.224   4.315  10.350 -0.2634  0.1653  0.2568
13289TIP3    H161358   5.238   4.356  10.265  2.8757 -0.0348  0.5957
13289TIP3    H261359   5.198   4.226  10.330  0.4131  0.1348 -0.5169
13290TIP3   OH261360   2.348   3.254  17.127  0.6578 -0.1205  0.6371
13290TIP3    H161361   2.313   3.213  17.048  1.4712 -1.0107  0.7360
13290TIP3    H261362   2.277   3.311  17.157 -0.2482 -0.9781  0.1559
13291TIP3   OH261363   1.610   4.960  14.952 -0.1173 -0.3992  0.1519
13291TIP3    H161364   1.686   4.959  14.893 -0.6637  0.9371 -0.5887
13291TIP3    H261365   1.644   5.000  15.032 -0.5684  2.3123 -0.9596
13292TIP3   OH261366   4.031   3.221  15.636  0.5583  0.7333  0.1216
13292TIP3    H161367   3.948   3.269  15.627  0.5692  0.4737 -1.6225
13292TIP3    H261368   4.027   3.181  15.722 -1.3244  0.3745 -0.1187
13293TIP3   OH261369   3.856   0.732   5.592  0.5197 -0.2892 -0.4283
13293TIP3    H161370   3.804   0.715   5.671 -1.3415 -0.6885 -1.7305
13293TIP3    H261371   3.893   0.819   5.606 -3.2818  1.4971 -0.9667
13294TIP3   OH261372   1.025   2.327  14.773 -0.1001  0.0068  0.4951
13294TIP3    H161373   1.112   2.364  14.759 -0.5797  0.9455 -0.0556
13294TIP3    H261374   1.027   2.294  14.863  1.6487 -2.3081 -0.3617
13295TIP3   OH261375   0.335   3.441   1.256  0.7000 -0.0961 -0.2290
13295TIP3    H161376   0.328   3.537   1.257 -2.2379 -0.2446 -1.5567
13295TIP3    H261377   0.246   3.410   1.271  1.6708 -2.6535  0.5341
13296TIP3   OH261378   1.383   3.983  13.811  0.0451  0.3818 -0.3366
13296TIP3    H161379   1.325   3.999  13.737  0.1458  0.7283 -0.3384
13296TIP3    H261380   1.389   4.067  13.856  1.4127  0.6147 -0.9496
13297TIP3   OH261381   3.549   1.942  15.444 -0.0093  0.4400 -0.0448
13297TIP3    H161382   3.511   1.877  15.385 -1.4322 -0.5655  1.9083
13297TIP3    H261383   3.490   2.017  15.439  0.1050  0.5201 -0.2079
13298TIP3   OH261384   6.055   4.593   3.012 -0.0512 -0.2072  0.2059
13298TIP3    H161385   6.028   4.510   2.971 -0.6813 -0.9668  2.0997
13298TIP3    H261386   5.973   4.640   3.027  0.1244 -0.2235  1.2010
13299TIP3   OH261387   0.981   4.652  10.759  0.2941  0.2040 -0.2089
13299TIP3    H161388   0.947   4.736  10.727  0.7838  0.4543 -0.0745
13299TIP3    H261389   1.073   4.653  10.735  0.7696  0.5740  1.5793
13300TIP3   OH261390   5.829   0.725   0.959 -0.1542 -0.2321  0.3448
13300TIP3    H161391   5.743   0.692   0.932 -0.6250  1.5658 -0.4313
13300TIP3    H261392   5.883   0.716   0.881 -1.1334  3.6691 -0.8543
13301TIP3   OH261393   6.790   3.797  12.132 -0.5723  0.2656 -0.3462
13301TIP3    H161394   6.751   3.724  12.180 -0.0130  0.0814 -0.1665
13301TIP3    H261395   6.800   3.765  12.042 -0.1158  0.0353 -0.2167
13302TIP3   OH261396   2.420   1.450   2.142  0.2830  0.2660  0.2957
13302TIP3    H161397   2.338   1.425   2.185  0.6518  0.3506  1.0538
13302TIP3    H261398   2.482   1.381   2.165  0.2337 -0.1646 -0.8653
13303TIP3   OH261399   3.068   1.639   5.847  0.2984 -0.5675 -0.4181
13303TIP3    H161400   3.091   1.718   5.896 -1.1435  0.7300 -1.7711
13303TIP3    H261401   2.972   1.642   5.841  0.3155 -1.7934 -1.4882
13304TIP3   OH261402   0.826   3.539  15.118  0.6752 -0.5311 -0.1818
13304TIP3    H161403   0.871   3.454  15.118  2.1547  0.2214 -1.0400
13304TIP3    H261404   0.844   3.575  15.031 -0.7562  0.2436 -0.1726
13305TIP3   OH261405   5.193   0.345   5.854 -0.2794  0.2354  0.1202
13305TIP3    H161406   5.255   0.413   5.827  1.1074 -0.3147  1.7970
13305TIP3    H261407   5.242   0.292   5.917 -2.2367 -0.6546  0.9344
13306TIP3   OH261408   6.560   3.187  14.023  0.1199  0.1100 -0.1065
13306TIP3    H161409   6.625   3.139  13.973 -1.2806 -0.0495 -1.8272
13306TIP3    H261410   6.527   3.253  13.962 -1.9894 -0.4183  0.4140
13307TIP3   OH261411   1.663   0.212  13.006  0.1563  0.3279 -0.3650
13307TIP3    H161412   1.702   0.190  13.090  0.4447  1.9667 -0.0385
13307TIP3    H261413   1.571   0.229  13.025  0.6530  2.7985  0.0398
13308TIP3   OH261414   0.327   0.568  13.978  0.6847  0.1897 -0.4381
13308TIP3    H161415   0.303   0.521  13.899 -0.2928  1.0599 -0.6750
13308TIP3    H261416   0.264   0.538  14.044 -0.5640  1.8661 -0.8428
13309TIP3   OH261417   4.582   5.774   0.582 -0.2108  0.2492  0.0131
13309TIP3    H161418   4.592   5.732   0.496 -0.2145  0.7356 -0.2313
13309TIP3    H261419   4.635   5.721   0.641 -0.4873 -0.2931 -0.2204
13310TIP3   OH261420   1.432   5.929   4.327  0.3894 -0.0487  0.0371
13310TIP3    H161421   1.480   5.980   4.262 -0.4132  0.8060  0.1088
13310TIP3    H261422   1.495   5.915   4.397  1.0815 -0.4708 -0.6543
13311TIP3   OH261423   0.624   4.855  11.338 -0.4210 -0.0958 -0.7876
13311TIP3    H161424   0.690   4.787  11.333  1.2072  1.2276  1.6658
13311TIP3    H261425   0.608   4.880  11.247  1.6722 -1.1668 -1.4691
13312TIP3   OH261426   4.271   4.393   3.184  0.3977 -0.3141  0.4377
13312TIP3    H161427   4.333   4.465   3.178 -2.2048  1.8840 -0.9165
13312TIP3    H261428   4.292   4.336   3.110 -0.9756  1.9041 -1.7116
13313TIP3   OH261429   4.999   0.030  12.274  0.2103  0.2789  0.0114
13313TIP3    H161430   5.094   0.039  12.278  0.4155 -1.5880 -0.3153
13313TIP3    H261431   4.981  -0.057  12.310 -1.1021 -0.6771 -2.7395
13314TIP3   OH261432   0.637   2.257  16.641 -0.5491  0.0386 -0.0751
13314TIP3    H161433   0.600   2.230  16.725 -0.9786  1.6863  0.2897
13314TIP3    H261434   0.601   2.345  16.626  1.0881  0.5739 -1.0172
13315TIP3   OH261435   5.719   1.015   0.910  0.3468  0.4400 -0.3054
13315TIP3    H161436   5.743   0.924   0.930 -0.4671 -0.0077 -1.3650
13315TIP3    H261437   5.802   1.063   0.919  0.9706 -0.5520 -0.6257
13316TIP3   OH261438   5.194   0.433   3.250 -0.0846 -0.0351  0.0984
13316TIP3    H161439   5.182   0.527   3.234 -0.2385 -0.2243 -0.9786
13316TIP3    H261440   5.275   0.428   3.302  0.4794  0.6421 -0.6874
13317TIP3   OH261441   6.554   2.109  16.098 -0.7273 -0.3419  0.4334
13317TIP3    H161442   6.562   2.022  16.058  3.3951  1.1559 -2.3351
13317TIP3    H261443   6.604   2.102  16.179  1.5463  0.0047 -0.9019
13318TIP3   OH261444   3.905   3.504  13.361 -0.4553  0.1636 -0.5297
13318TIP3    H161445   3.882   3.563  13.289  1.2135  0.3743 -0.9302
13318TIP3    H261446   3.824   3.491  13.410 -1.3229  1.0190 -1.7373
13319TIP3   OH261447   1.070   6.711   5.696 -0.5983 -0.5026 -0.2571
13319TIP3    H161448   1.127   6.667   5.759 -0.1760 -0.6669 -0.7554
13319TIP3    H261449   1.127   6.773   5.651 -0.8471 -0.5700 -0.6646
13320TIP3   OH261450   1.524   6.200   5.957  0.0069  0.6414 -0.1110
13320TIP3    H161451   1.606   6.204   6.006 -0.1964 -0.3710  0.3255
13320TIP3    H261452   1.461   6.163   6.019 -0.1184 -1.2395 -1.3302
13321TIP3   OH261453   6.333   6.225   1.229 -0.1851  0.0452  0.0306
13321TIP3    H161454   6.253   6.277   1.225  0.9159  1.6157 -2.2502
13321TIP3    H261455   6.302   6.134   1.227 -1.9580  0.6230  0.4857
13322TIP3   OH261456   4.734   5.420  12.056 -0.1684  0.3449 -0.8220
13322TIP3    H161457   4.671   5.365  12.103  0.0023  0.2716 -0.6785
13322TIP3    H261458   4.801   5.359  12.027  0.9911  0.7464  0.9526
13323TIP3   OH261459   0.547   3.815   0.877  0.0064  0.1863  0.7322
13323TIP3    H161460   0.552   3.894   0.931  1.2821 -0.7584  2.0333
13323TIP3    H261461   0.512   3.748   0.936  0.5570 -0.6390  0.1247
13324TIP3   OH261462   0.524   5.997  16.627  0.8879 -0.2796  0.5193
13324TIP3    H161463   0.591   6.045  16.579  0.6827 -1.1297 -0.6372
13324TIP3    H261464   0.442   6.040  16.603  0.4711 -2.3708 -2.0946
13325TIP3   OH261465   1.434   0.475   0.401  0.3867  0.2710  0.0234
13325TIP3    H161466   1.472   0.463   0.314 -0.5295  2.5124 -0.7338
13325TIP3    H261467   1.371   0.404   0.410  2.2978 -1.4866 -0.0787
13326TIP3   OH261468   2.981   0.818   2.203 -0.2166 -0.0911 -0.1127
13326TIP3    H161469   3.019   0.730   2.203 -1.6451 -0.8008  3.6352
13326TIP3    H261470   2.888   0.804   2.189 -0.4392  0.8026  0.4646
13327TIP3   OH261471   1.886   5.420  16.152  0.8537  0.8063 -0.2721
13327TIP3    H161472   1.807   5.463  16.120  0.5078 -0.1824 -0.7461
13327TIP3    H261473   1.946   5.421  16.077  0.9493  0.7136 -0.1969
13328TIP3   OH261474   1.228   0.787  15.397  0.1550 -0.4288  0.0656
13328TIP3    H161475   1.244   0.696  15.373  0.4807 -0.9572  2.1822
13328TIP3    H261476   1.308   0.833  15.373 -0.7778 -0.2557 -2.9492
13329TIP3   OH261477   6.532   6.678   2.678 -0.2682 -0.5454  0.9691
13329TIP3    H161478   6.564   6.765   2.656  0.3737 -0.7376  1.1362
13329TIP3    H261479   6.471   6.693   2.751  0.2780 -0.2979  1.3822
13330TIP3   OH261480   3.415   3.954   2.521 -0.5358 -0.3742  0.3377
13330TIP3    H161481   3.510   3.941   2.515 -0.8650 -2.7227 -0.0808
13330TIP3    H261482   3.394   4.011   2.447  0.8290  2.0159  1.7151
13331TIP3   OH261483   2.477   2.627   5.929 -0.6327  0.3129 -0.3552
13331TIP3    H161484   2.504   2.704   5.978 -0.3071  1.2158 -1.8987
13331TIP3    H261485   2.385   2.643   5.908 -0.5444  0.3252 -0.7425
13332TIP3   OH261486   5.363   0.819   4.780  0.5459 -0.4235 -0.0275
13332TIP3    H161487   5.381   0.733   4.819  2.4689 -0.3718 -0.7477
13332TIP3    H261488   5.445   0.843   4.737 -0.7673  0.6121 -2.0176
13333TIP3   OH261489   0.272   6.125   1.544 -0.4298 -0.3631  0.1868
13333TIP3    H161490   0.343   6.061   1.548  2.3017  2.5513  0.8282
13333TIP3    H261491   0.224   6.103   1.465  1.4869 -2.1340 -0.5362
13334TIP3   OH261492   1.199   0.146  11.752 -0.2070  0.2527  0.4533
13334TIP3    H161493   1.121   0.090  11.755  0.7987 -1.1686  0.7858
13334TIP3    H261494   1.214   0.171  11.843  0.8946 -1.1528  0.6692
13335TIP3   OH261495   0.925   1.341   0.278  0.2093  0.0566 -0.1344
13335TIP3    H161496   0.888   1.344   0.366  0.0078  1.3877 -0.2599
13335TIP3    H261497   1.019   1.338   0.291  0.1387 -1.3757  0.1463
13336TIP3   OH261498   4.923   6.636   4.218 -0.3483  0.1593 -0.3444
13336TIP3    H161499   4.994   6.592   4.266 -1.0126 -0.7987 -0.2237
13336TIP3    H261500   4.947   6.627   4.126  0.1007  0.5633 -0.2707
13337TIP3   OH261501   4.093   2.616  11.973 -0.2995  0.1699 -0.5495
13337TIP3    H161502   4.086   2.550  12.042  2.5473 -0.1454 -0.4992
13337TIP3    H261503   4.030   2.683  11.998 -0.5652 -0.7624  1.4137
13338TIP3   OH261504   4.044   1.719  14.774 -0.4235  0.3583  0.3136
13338TIP3    H161505   4.105   1.646  14.764 -1.4025 -0.3073 -0.9807
13338TIP3    H261506   4.095   1.797  14.753  0.4411 -0.0153  1.0038
13339TIP3   OH261507   0.913   0.838  12.813  0.2388  0.8024  1.0830
13339TIP3    H161508   0.993   0.786  12.814  0.1259  0.6461  1.9462
13339TIP3    H261509   0.913   0.879  12.726  0.3009 -0.6682  0.3716
13340TIP3   OH261510   5.282   5.646   2.759  0.1422 -0.1177  0.3491
13340TIP3    H161511   5.251   5.721   2.809 -2.4796 -0.0135 -1.3179
13340TIP3    H261512   5.318   5.684   2.679 -1.1683 -0.5817 -0.4861
13341TIP3   OH261513   5.720   0.351  15.551  0.1315  0.0496 -0.5048
13341TIP3    H161514   5.718   0.288  15.623  0.4883  0.0459 -0.5015
13341TIP3    H261515   5.712   0.436  15.594 -1.0025 -0.0241 -0.5541
13342TIP3   OH261516   4.758   2.864   1.721 -0.1241  0.1337 -0.4440
13342TIP3    H161517   4.701   2.883   1.796  0.6732 -1.6018  0.6386
13342TIP3    H261518   4.710   2.897   1.645 -2.8553 -1.8037  0.3636
13343TIP3   OH261519   2.592   6.035  15.357  0.0316  0.8309  0.4475
13343TIP3    H161520   2.622   6.025  15.448 -0.5487 -2.2980  0.3218
13343TIP3    H261521   2.498   6.019  15.361  0.2318 -0.7686 -0.9288
13344TIP3   OH261522   6.378   0.529  12.564 -0.0452 -0.0115  0.4380
13344TIP3    H161523   6.471   0.547  12.551 -0.0677  0.6145  1.1276
13344TIP3    H261524   6.375   0.436  12.585  0.2862 -0.3498 -0.9529
13345TIP3   OH261525   6.050   0.581   0.208 -0.4706 -0.4600 -0.5883
13345TIP3    H161526   5.979   0.643   0.229 -1.0423 -1.0731 -0.7017
13345TIP3    H261527   6.066   0.593   0.115 -1.9718 -1.9035 -1.0563
13346TIP3   OH261528   4.927   0.351   5.558 -0.0509 -0.5978  0.0355
13346TIP3    H161529   4.970   0.421   5.607 -2.1621  0.5988  0.2471
13346TIP3    H261530   4.912   0.389   5.471 -1.4679 -0.6486  0.2402
13347TIP3   OH261531   6.611   5.593   1.663  0.6212 -0.1499  0.1957
13347TIP3    H161532   6.683   5.654   1.648 -0.9380  1.1600 -2.1774
13347TIP3    H261533   6.603   5.588   1.758  1.9570  1.9301  0.4423
13348TIP3   OH261534   2.472   1.903  16.210 -1.1000 -0.0247 -0.3337
13348TIP3    H161535   2.406   1.907  16.279 -0.6744 -1.3903  0.1621
13348TIP3    H261536   2.463   1.815  16.174 -1.6644  0.8314 -2.3700
13349TIP3   OH261537   4.877   0.157  12.476  0.2475 -0.1382 -0.1217
13349TIP3    H161538   4.906   0.119  12.393  1.6302 -0.3120  0.4221
13349TIP3    H261539   4.949   0.140  12.536 -1.2847 -1.1943  1.4667
13350TIP3   OH261540   5.831   5.414   4.577 -0.2065 -0.2797  0.2369
13350TIP3    H161541   5.780   5.413   4.496 -0.8484 -0.9410  0.6411
13350TIP3    H261542   5.778   5.466   4.638  1.0619  1.6682 -0.2479
13351TIP3   OH261543   4.746   0.700   1.843  0.4066  0.1872 -0.5458
13351TIP3    H161544   4.722   0.714   1.752  1.2471  0.9378 -0.6662
13351TIP3    H261545   4.805   0.625   1.842  1.6569  1.1602 -0.8254
13352TIP3   OH261546   5.147   4.188   2.574 -0.5736  0.4118  0.2427
13352TIP3    H161547   5.065   4.221   2.537  1.1146  3.6383 -0.7718
13352TIP3    H261548   5.202   4.168   2.499  0.1859 -0.1702  0.9387
13353TIP3   OH261549   0.930   6.753  17.052  0.2494 -0.0571 -0.3188
13353TIP3    H161550   0.938   6.682  16.988  1.0324 -1.2088  1.0273
13353TIP3    H261551   0.850   6.733  17.100  0.0355  0.4119 -0.4862
13354TIP3   OH261552   3.238   2.383   6.084  0.0525  0.0739 -0.1850
13354TIP3    H161553   3.272   2.314   6.141  1.7107 -0.1532 -1.4164
13354TIP3    H261554   3.178   2.339   6.025 -1.9380  0.3645  1.5584
13355TIP3   OH261555   6.296   3.034   3.446 -0.0937  0.1961 -0.1697
13355TIP3    H161556   6.359   3.009   3.514  1.8625 -0.6864 -2.2548
13355TIP3    H261557   6.288   2.957   3.390 -1.9256  0.7968 -0.7961
13356TIP3   OH261558   0.478   3.026  12.689 -0.3836  0.0994  0.6454
13356TIP3    H161559   0.548   3.081  12.655  1.9812 -0.7823  3.8547
13356TIP3    H261560   0.416   3.088  12.728  0.2232  0.7099  0.6413
13357TIP3   OH261561   0.308   3.371   5.541 -0.0381 -0.3559 -0.2580
13357TIP3    H161562   0.257   3.341   5.615 -0.2046 -0.2648 -0.3355
13357TIP3    H261563   0.397   3.343   5.560 -0.1324 -0.5896 -0.1647
13358TIP3   OH261564   6.705   6.404   0.040  0.3513  0.6047 -0.1252
13358TIP3    H161565   6.626   6.350   0.036  0.4150  0.5535 -0.7401
13358TIP3    H261566   6.708   6.448  -0.044  0.5399  1.2329  0.2105
13359TIP3   OH261567   4.252   6.808  15.608  0.5197 -0.7738  0.0178
13359TIP3    H161568   4.161   6.779  15.613 -0.0417  0.8433 -0.5458
13359TIP3    H261569   4.283   6.772  15.525 -0.0420 -0.1229 -0.4782
13360TIP3   OH261570   5.193   1.809  16.817  0.0307 -0.2285 -0.2917
13360TIP3    H161571   5.252   1.856  16.758 -0.4792 -0.4508 -0.9839
13360TIP3    H261572   5.212   1.716  16.801 -1.4167 -0.3278 -1.4602
13361TIP3   OH261573   5.675   3.736   4.017 -0.4162  0.0679  0.5625
13361TIP3    H161574   5.596   3.746   4.069  2.1126 -1.9434  5.1249
13361TIP3    H261575   5.662   3.655   3.968 -1.0254 -0.4842  1.6325
13362TIP3   OH261576   5.996   1.785  13.118 -0.0693  0.1490  0.0488
13362TIP3    H161577   6.010   1.755  13.208 -1.0130  1.6775  0.7238
13362TIP3    H261578   5.915   1.741  13.091 -0.3576  0.4980  0.3315
13363TIP3   OH261579   6.269   0.118  13.914 -0.0044 -0.2484  0.7403
13363TIP3    H161580   6.206   0.057  13.876 -0.1391 -0.1357  0.7808
13363TIP3    H261581   6.224   0.203  13.913  0.6084  0.0669 -0.3508
13364TIP3   OH261582   0.986   6.266  15.913 -0.3732  0.4470  0.3318
13364TIP3    H161583   0.952   6.178  15.897 -1.8853  1.2264 -0.9316
13364TIP3    H261584   1.014   6.297  15.827  0.2707  1.1590  0.7902
13365TIP3   OH261585   4.043   3.775   0.937  0.5598  0.0751  0.3991
13365TIP3    H161586   4.058   3.699   0.994  0.4055  1.3317  2.1661
13365TIP3    H261587   4.077   3.748   0.852  1.0529 -1.7598  1.1411
13366TIP3   OH261588   3.844   4.690   1.621  0.7605  0.9828  0.0934
13366TIP3    H161589   3.766   4.736   1.653  0.2168 -0.0983  0.3281
13366TIP3    H261590   3.828   4.677   1.527  0.1052 -0.3128  0.3722
13367TIP3   OH261591   0.856   0.204  14.785 -1.0713  0.2192 -0.4494
13367TIP3    H161592   0.804   0.184  14.864  0.7856  1.0893  1.0442
13367TIP3    H261593   0.930   0.143  14.789 -0.2976  1.1264 -0.8462
13368TIP3   OH261594   4.500   1.148   2.789 -0.1335  0.1153  0.1409
13368TIP3    H161595   4.451   1.230   2.782  0.4662  0.6657  2.0939
13368TIP3    H261596   4.442   1.089   2.837  0.2789  0.0985  0.6263
13369TIP3   OH261597   4.918   5.019  13.239 -0.3517  0.5491 -0.4234
13369TIP3    H161598   4.931   5.033  13.145 -0.1555  0.0819 -0.4611
13369TIP3    H261599   4.975   5.084  13.281 -1.0079  1.2724 -0.6332
13370TIP3   OH261600   1.690   3.352  11.427 -0.1614 -0.1637  0.5682
13370TIP3    H161601   1.752   3.305  11.371  0.7288  1.5004  0.1222
13370TIP3    H261602   1.615   3.368  11.371  0.5082  1.0229 -0.0067
13371TIP3   OH261603   3.811   1.874  15.439 -0.1979  0.5849 -0.1996
13371TIP3    H161604   3.721   1.904  15.429 -0.4184  0.0927  0.2787
13371TIP3    H261605   3.806   1.803  15.503  0.3232 -0.4248 -1.2468
13372TIP3   OH261606   2.253   5.733  16.357 -0.7723  0.3940 -0.8101
13372TIP3    H161607   2.224   5.744  16.266 -0.5689  3.3683 -0.5689
13372TIP3    H261608   2.200   5.795  16.407  1.2367  0.9749  0.6575
13373TIP3   OH261609   2.424   3.214  15.556 -0.0684  0.8693 -0.1283
13373TIP3    H161610   2.448   3.290  15.503 -1.5968  0.3662 -1.5674
13373TIP3    H261611   2.341   3.237  15.596  1.2606  1.4013  2.4395
13374TIP3   OH261612   3.750   5.417   0.913 -0.1313  0.1552 -0.1109
13374TIP3    H161613   3.735   5.511   0.905 -2.6763 -0.0466  1.8248
13374TIP3    H261614   3.792   5.407   0.999 -2.1194 -0.6699  0.7939
13375TIP3   OH261615   2.786   3.613  14.255  0.0974 -0.1012 -0.0869
13375TIP3    H161616   2.826   3.529  14.277 -0.6000 -0.3126  0.3894
13375TIP3    H261617   2.805   3.669  14.330 -1.5434 -0.5672  0.7006
13376TIP3   OH261618   2.421   6.058  15.799  0.3255 -0.5710 -0.0076
13376TIP3    H161619   2.439   6.139  15.750 -1.5723 -0.3978 -0.4314
13376TIP3    H261620   2.413   5.991  15.731  0.8404 -0.9362  0.2849
13377TIP3   OH261621   0.358   4.350  15.294 -0.1794  0.0246 -0.7630
13377TIP3    H161622   0.287   4.286  15.301 -0.7369  0.7580  0.5263
13377TIP3    H261623   0.422   4.309  15.235  0.3756 -2.5676  1.5297
13378TIP3   OH261624   3.504   3.550   0.957 -0.2331 -0.2846  0.1271
13378TIP3    H161625   3.413   3.551   0.928  0.1740 -2.7792 -1.2915
13378TIP3    H261626   3.540   3.633   0.924 -1.5158 -0.0929 -0.8276
13379TIP3   OH261627   6.200   3.622  14.943  0.1550 -0.0974  0.2541
13379TIP3    H161628   6.140   3.688  14.975  0.4801  1.3873 -2.0818
13379TIP3    H261629   6.244   3.589  15.022 -1.5631  0.9070  1.6589
13380TIP3   OH261630   2.527   1.831  15.208  0.4162  0.3805 -0.2992
13380TIP3    H161631   2.609   1.810  15.254  0.6859  0.8490 -0.5643
13380TIP3    H261632   2.541   1.801  15.118  0.6214  1.2589 -0.5571
13381TIP3   OH261633   1.462   0.378  14.750  0.1141  0.1137 -0.8920
13381TIP3    H161634   1.425   0.445  14.807  0.1815 -0.1879 -0.4908
13381TIP3    H261635   1.555   0.376  14.772 -0.2680 -1.7184  0.7683
13382TIP3   OH261636   1.229   4.278  13.426  0.4089  0.2449  0.2191
13382TIP3    H161637   1.233   4.320  13.340  2.3490  2.5240  1.3426
13382TIP3    H261638   1.137   4.282  13.452  0.0237  0.6573 -1.1979
13383TIP3   OH261639   6.622   1.980  16.330  0.2057 -0.4947 -0.3443
13383TIP3    H161640   6.570   1.996  16.409 -0.4972  0.5273 -1.0119
13383TIP3    H261641   6.665   1.896  16.347 -0.2040 -0.4519  0.9852
13384TIP3   OH261642   0.102   4.904   3.730 -0.0308 -0.3555  0.3387
13384TIP3    H161643   0.044   4.863   3.666  0.6059 -0.2285 -0.3245
13384TIP3    H261644   0.043   4.954   3.786 -0.4939  0.3521 -0.7634
13385TIP3   OH261645   0.058   2.910   5.660  0.2862 -0.4229 -0.1491
13385TIP3    H161646  -0.001   2.985   5.650 -0.1626 -0.7875 -0.3104
13385TIP3    H261647   0.000   2.838   5.687  0.7610 -0.6315  0.3038
13386TIP3   OH261648   2.160   4.177  14.268 -0.0702 -0.2440  0.1830
13386TIP3    H161649   2.183   4.120  14.342  0.1938  1.7713  1.7315
13386TIP3    H261650   2.136   4.118  14.198 -0.1239 -2.2394  1.8361
13387TIP3   OH261651   5.368   1.543  12.161  0.3614 -0.1885  0.9876
13387TIP3    H161652   5.415   1.526  12.243  0.4377 -0.9082  0.8017
13387TIP3    H261653   5.421   1.608  12.115  1.6680 -1.6657  0.3716
13388TIP3   OH261654   0.817   0.190   1.230 -0.2845  0.3088 -0.0927
13388TIP3    H161655   0.794   0.108   1.273 -2.7099  0.0527 -1.7514
13388TIP3    H261656   0.861   0.163   1.149 -1.9188  0.5779 -1.0957
13389TIP3   OH261657   1.547   3.439   5.406  0.2465  0.5396  0.1043
13389TIP3    H161658   1.485   3.489   5.459 -0.1916 -1.5063  1.5617
13389TIP3    H261659   1.616   3.415   5.468  0.3881 -0.7628 -0.5556
13390TIP3   OH261660   5.205   5.382   5.304 -0.2366 -0.4397 -0.0839
13390TIP3    H161661   5.212   5.416   5.215  0.5706 -2.0787 -0.6462
13390TIP3    H261662   5.240   5.452   5.359 -0.1435  0.3200 -1.0974
13391TIP3   OH261663   3.492   6.039   0.816 -0.0687  0.7791 -0.0934
13391TIP3    H161664   3.513   5.971   0.752 -2.1147  1.4987 -1.5785
13391TIP3    H261665   3.543   6.115   0.789  1.8516  0.0445  1.2920
13392TIP3   OH261666   2.349   1.664   2.483  0.2217 -0.0762  0.5549
13392TIP3    H161667   2.399   1.746   2.479  0.2042 -0.1081 -0.6259
13392TIP3    H261668   2.268   1.683   2.437  0.4681 -0.9211 -0.2521
13393TIP3   OH261669   6.352   3.766   5.896 -0.0846  0.2474  0.1679
13393TIP3    H161670   6.366   3.856   5.865 -1.4442  0.0149 -1.2003
13393TIP3    H261671   6.263   3.767   5.931 -0.4174 -0.7756 -0.6452
13394TIP3   OH261672   5.775   0.281   2.862  0.0577 -0.1013  0.0775
13394TIP3    H161673   5.759   0.265   2.955  3.1933 -1.2161  0.4548
13394TIP3    H261674   5.832   0.357   2.860  0.6764 -0.5781 -0.8711
13395TIP3   OH261675   6.021   6.456  14.866 -0.1311 -0.4178 -0.7025
13395TIP3    H161676   6.037   6.407  14.947 -2.2526 -0.0360 -0.0091
13395TIP3    H261677   6.019   6.389  14.798  2.7943 -0.6183 -0.6289
13396TIP3   OH261678   1.774   0.800  11.720 -0.1630  0.3957  0.2119
13396TIP3    H161679   1.831   0.724  11.709  0.2038  1.0926 -3.2613
13396TIP3    H261680   1.832   0.870  11.750  0.2818  0.3194 -0.4567
13397TIP3   OH261681   5.934   2.084  10.630 -0.1144 -0.2642  0.0904
13397TIP3    H161682   5.876   2.010  10.612 -2.7726  1.6692  0.2357
13397TIP3    H261683   5.920   2.143  10.555  1.8372  0.1633  0.0427
13398TIP3   OH261684   6.451   1.813  13.876 -0.2043 -0.4205  0.3139
13398TIP3    H161685   6.459   1.884  13.812 -0.1158 -0.4409  0.3025
13398TIP3    H261686   6.493   1.738  13.834 -0.3148 -0.4849  0.3205
13399TIP3   OH261687   1.704   2.559   4.265  0.0399  0.2219  0.0173
13399TIP3    H161688   1.783   2.580   4.316  0.9284  0.7132 -1.5480
13399TIP3    H261689   1.632   2.595   4.317  0.9808  1.2027  0.6561
13400TIP3   OH261690   2.205   1.020  15.009  0.3434 -0.5600  0.1196
13400TIP3    H161691   2.295   1.051  15.008  0.5853 -1.1289  1.9658
13400TIP3    H261692   2.208   0.939  15.060 -1.2963 -0.2630  0.7282
13401TIP3   OH261693   3.893   0.433  16.976 -0.5111  0.1875  0.1105
13401TIP3    H161694   3.890   0.360  16.913  1.4910 -0.5318  0.8198
13401TIP3    H261695   3.942   0.398  17.050  0.2600  2.2059  0.5664
13402TIP3   OH261696   2.095   0.491   3.860  0.4754 -0.6276  0.1837
13402TIP3    H161697   2.190   0.498   3.854  0.5990 -1.9561  0.2806
13402TIP3    H261698   2.063   0.580   3.851  1.6383 -0.3669 -1.6917
13403TIP3   OH261699   5.205   5.148   2.442  0.3965  0.5283 -0.0274
13403TIP3    H161700   5.231   5.161   2.351  2.9548 -1.6949  0.3283
13403TIP3    H261701   5.264   5.205   2.492 -1.1524  1.9176  0.2838
13404TIP3   OH261702   4.006   3.356   0.242  0.1743 -0.1587 -0.4306
13404TIP3    H161703   4.001   3.261   0.238  1.7138 -0.4151  2.1725
13404TIP3    H261704   3.920   3.384   0.273  0.0080 -0.8092 -0.3048
13405TIP3   OH261705   5.551   0.829  14.156  0.3565 -0.3350 -0.2038
13405TIP3    H161706   5.584   0.918  14.142 -0.4716  0.0742  0.3907
13405TIP3    H261707   5.491   0.814  14.084  1.2139 -0.7791 -0.8376
13406TIP3   OH261708   1.741   5.971   2.585 -0.2740  0.2691 -0.2317
13406TIP3    H161709   1.711   5.922   2.508  0.1977  2.1611 -1.6305
13406TIP3    H261710   1.662   6.011   2.621 -0.5322 -0.8137  0.4348
13407TIP3   OH261711   3.943   1.902  11.800  0.8733 -0.4345 -0.2233
13407TIP3    H161712   3.968   1.830  11.742 -2.8586 -2.0263 -0.0337
13407TIP3    H261713   3.899   1.964  11.743 -0.7946 -0.9455  0.4602
13408TIP3   OH261714   6.588   2.649  15.984 -0.1268  1.0880 -0.2321
13408TIP3    H161715   6.531   2.577  16.013  1.1221 -0.2049 -0.9665
13408TIP3    H261716   6.560   2.667  15.895  0.8807  0.1793 -0.7328
13409TIP3   OH261717   5.978   3.354  15.698  0.0291 -0.4153 -0.4347
13409TIP3    H161718   5.973   3.304  15.780 -1.8230 -0.1829 -0.3745
13409TIP3    H261719   5.961   3.289  15.630  1.1593 -0.5292 -0.6114
13410TIP3   OH261720   6.092   0.534  12.564 -0.1659 -0.0353 -0.3438
13410TIP3    H161721   6.074   0.452  12.611 -1.4608 -1.1419 -2.6721
13410TIP3    H261722   6.186   0.533  12.549 -0.2196 -1.2753 -0.6577
13411TIP3   OH261723   6.037   6.646   2.163 -0.6227 -0.3564  0.5369
13411TIP3    H161724   6.066   6.620   2.250  0.7497 -2.0058 -0.3734
13411TIP3    H261725   5.991   6.569   2.130 -1.9674  0.5931  0.1477
13412TIP3   OH261726   5.883   3.455  10.928  0.4442 -0.3876  0.0350
13412TIP3    H161727   5.859   3.363  10.943  4.0240 -1.3677  0.1079
13412TIP3    H261728   5.863   3.471  10.836 -1.2403 -0.8762  0.2986
13413TIP3   OH261729   6.158   5.931   3.576 -0.4726  0.6503  0.2422
13413TIP3    H161730   6.151   5.939   3.481 -0.1071  0.5691  0.2086
13413TIP3    H261731   6.252   5.922   3.593 -0.4542  1.5826  0.6831
13414TIP3   OH261732   3.072   2.728  11.309 -0.0471 -0.2926 -0.1895
13414TIP3    H161733   3.154   2.778  11.311 -0.4634  0.4231 -0.8367
13414TIP3    H261734   3.004   2.793  11.319 -0.6964 -0.4341 -3.1835
13415TIP3   OH261735   5.588   4.061   2.034  0.5250  0.6203  0.3899
13415TIP3    H161736   5.664   4.114   2.011 -0.3766  2.7076  2.0004
13415TIP3    H261737   5.584   4.066   2.130 -1.3518  0.1198  0.3579
13416TIP3   OH261738   4.000   3.707  11.483  0.2180 -0.3325 -0.1728
13416TIP3    H161739   3.908   3.685  11.467  0.4269 -0.6364 -0.9812
13416TIP3    H261740   4.020   3.667  11.567  0.6296 -3.3785 -1.6603
13417TIP3   OH261741   6.732   2.904   6.036 -0.2299 -0.6615 -0.3730
13417TIP3    H161742   6.745   2.809   6.040  0.4841 -0.5203  0.8542
13417TIP3    H261743   6.675   2.923   6.111  1.5293  0.1760  0.7817
13418TIP3   OH261744   3.165   0.423  14.442 -0.9591 -0.2670  0.1183
13418TIP3    H161745   3.175   0.518  14.451  0.6156 -0.4673  0.6578
13418TIP3    H261746   3.244   0.387  14.481 -1.6680 -1.8250  0.1515
13419TIP3   OH261747   4.473   6.677  16.007 -0.4680  0.3849  0.1683
13419TIP3    H161748   4.488   6.655  16.099 -0.3548 -1.1380 -0.1899
13419TIP3    H261749   4.558   6.662  15.965 -0.5895  0.8078 -0.2325
13420TIP3   OH261750   3.009   0.305   1.838 -0.4235  0.0658  0.3443
13420TIP3    H161751   2.953   0.327   1.764 -2.4307  0.4836  1.9526
13420TIP3    H261752   3.074   0.245   1.801  0.6387  2.8059 -2.4700
13421TIP3   OH261753   1.409   1.074  12.859  0.0599  0.1857  0.2176
13421TIP3    H161754   1.396   0.985  12.828 -0.2880  0.8066 -1.5364
13421TIP3    H261755   1.503   1.090  12.846 -0.1200  0.5114 -0.7763
13422TIP3   OH261756   4.505   5.981   3.937 -0.1365 -0.4071 -0.5588
13422TIP3    H161757   4.447   5.996   4.011  2.1257  1.0112  0.9635
13422TIP3    H261758   4.518   5.886   3.935  0.0615 -0.4148  1.0565
13423TIP3   OH261759   5.446   2.213   6.133 -0.3008 -0.3200  0.4977
13423TIP3    H161760   5.371   2.233   6.077  0.7496 -1.7715 -1.5116
13423TIP3    H261761   5.520   2.257   6.091  0.3544 -0.6519  1.2809
13424TIP3   OH261762   6.205   6.384   3.636 -0.1793 -0.4374 -0.4076
13424TIP3    H161763   6.127   6.415   3.590  0.5634  1.3605 -0.4904
13424TIP3    H261764   6.171   6.328   3.706 -1.6060  0.8619 -0.0266
13425TIP3   OH261765   6.573   3.549  17.021  0.2469 -0.0617 -0.6222
13425TIP3    H161766   6.647   3.509  16.976  0.1179 -0.1459 -0.7609
13425TIP3    H261767   6.551   3.625  16.968 -0.2816 -0.4940 -1.0312
13426TIP3   OH261768   1.960   5.156   0.776 -0.4521 -0.5669  0.6735
13426TIP3    H161769   2.002   5.085   0.825 -0.6068 -0.5080  0.8888
13426TIP3    H261770   1.874   5.120   0.752 -0.3711 -0.6028  0.4289
13427TIP3   OH261771   1.077   5.658   0.769  0.0513 -0.0162 -0.2222
13427TIP3    H161772   1.045   5.570   0.748  1.3012 -0.9371  1.6058
13427TIP3    H261773   1.036   5.680   0.852 -0.6789  1.3643 -0.9390
13428TIP3   OH261774   0.223   1.320  16.116 -0.4833  0.4061 -0.0412
13428TIP3    H161775   0.265   1.339  16.033  1.2207 -2.1198  0.1985
13428TIP3    H261776   0.130   1.313  16.096  0.1055 -1.9849 -2.0837
13429TIP3   OH261777   0.083   0.289   0.373  0.0470 -0.4918  0.2455
13429TIP3    H161778   0.064   0.354   0.305 -0.5724 -0.9021  0.0239
13429TIP3    H261779   0.178   0.278   0.369  0.5921  2.6193  2.3081
13430TIP3   OH261780   6.359   0.899   4.854  0.4739  0.0578  0.5581
13430TIP3    H161781   6.270   0.923   4.827  0.6056  0.0430  0.0966
13430TIP3    H261782   6.416   0.958   4.804  0.8026 -1.1696 -0.5453
13431TIP3   OH261783   0.438   3.565   0.976 -0.2254  0.7525 -0.5479
13431TIP3    H161784   0.356   3.516   0.977 -1.4188  2.7225 -0.0702
13431TIP3    H261785   0.466   3.568   1.067 -0.3053  1.2081 -0.5380
13432TIP3   OH261786   3.099   3.376  12.192 -0.5139  0.6218 -0.3630
13432TIP3    H161787   3.064   3.399  12.106 -1.5705 -0.0211 -0.1092
13432TIP3    H261788   3.071   3.449  12.249 -2.6370 -0.5314  0.1317
13433TIP3   OH261789   6.402   3.885   4.290 -0.1308  0.2261 -0.1760
13433TIP3    H161790   6.327   3.839   4.328  1.2887 -2.0047  0.0638
13433TIP3    H261791   6.385   3.885   4.196 -0.0751 -1.0110 -0.2022
13434TIP3   OH261792   0.375   2.524   5.464  0.2459 -0.0725  0.6843
13434TIP3    H161793   0.394   2.594   5.526 -1.2168 -0.5142  1.6455
13434TIP3    H261794   0.461   2.493   5.435  0.9152  2.3916 -0.0915
13435TIP3   OH261795   5.973   0.884  10.955 -0.1891 -0.2372 -0.4679
13435TIP3    H161796   5.966   0.908  10.863 -1.4151 -0.7104 -0.5035
13435TIP3    H261797   5.963   0.789  10.956  0.0529 -0.2595  0.1355
13436TIP3   OH261798   1.208   0.882   1.440  0.1549 -0.1580  0.2748
13436TIP3    H161799   1.120   0.846   1.426  0.5125 -1.3611  1.0328
13436TIP3    H261800   1.252   0.816   1.494  1.6477  0.2511 -0.4268
13437TIP3   OH261801   6.475   0.355   1.879  0.7213  0.3502  0.0561
13437TIP3    H161802   6.499   0.437   1.834 -0.8559  1.0383  0.4433
13437TIP3    H261803   6.422   0.383   1.953 -0.3289 -1.0703 -0.1439
13438TIP3   OH261804   3.626   0.391   4.324 -0.5800  0.2079 -0.3369
13438TIP3    H161805   3.573   0.400   4.245 -0.9903 -0.8105 -0.1861
13438TIP3    H261806   3.605   0.467   4.376 -1.6069  0.0059 -0.4551
13439TIP3   OH261807   1.561   5.865  15.516 -0.5940 -0.6000  0.2575
13439TIP3    H161808   1.644   5.866  15.563 -0.4798 -1.2218  0.0762
13439TIP3    H261809   1.527   5.954  15.525  0.8385  0.0910 -1.0063
13440TIP3   OH261810   3.827   3.644   2.337  0.1023  0.4417  0.3673
13440TIP3    H161811   3.917   3.667   2.358  0.4720 -2.8585  2.7852
13440TIP3    H261812   3.835   3.582   2.264 -0.2704  0.8273 -0.0011
13441TIP3   OH261813   4.849   1.240   5.679 -0.2787  0.1619 -0.1102
13441TIP3    H161814   4.763   1.280   5.695 -0.1272  1.1464 -1.6217
13441TIP3    H261815   4.833   1.146   5.686 -1.6561  0.3015 -1.0624
13442TIP3   OH261816   4.636   5.610   5.418  0.2055 -0.3211 -0.3177
13442TIP3    H161817   4.726   5.592   5.445 -0.8178 -0.2345  3.3503
13442TIP3    H261818   4.628   5.705   5.427  0.1957 -0.1224 -2.2310
13443TIP3   OH261819   0.670   2.296  11.560  0.7265  0.6303 -0.5430
13443TIP3    H161820   0.680   2.370  11.619  0.8952  0.0249  0.1879
13443TIP3    H261821   0.715   2.223  11.603 -1.1613 -0.4195 -0.2808
13444TIP3   OH261822   0.177   5.940   5.847  0.0411  0.0796  0.4101
13444TIP3    H161823   0.255   5.944   5.903 -0.6276 -1.1022  1.4502
13444TIP3    H261824   0.109   5.906   5.904 -0.9809  0.0890 -0.7927
13445TIP3   OH261825   2.601   3.160  11.274 -0.1677  0.0427  0.0465
13445TIP3    H161826   2.648   3.235  11.309 -0.7868 -0.7307  2.5830
13445TIP3    H261827   2.660   3.123  11.208  1.2249  1.2238  0.6242
13446TIP3   OH261828   5.287   0.037   4.780 -0.3742 -0.2471  0.0718
13446TIP3    H161829   5.314  -0.046   4.819  0.5511  0.4436  0.9122
13446TIP3    H261830   5.199   0.053   4.814  0.7178  0.7294  2.5236
13447TIP3   OH261831   3.144   5.521  11.507 -0.1749 -0.5103  0.1408
13447TIP3    H161832   3.097   5.504  11.425 -1.0564  1.2389  0.2592
13447TIP3    H261833   3.082   5.572  11.559  0.5011 -1.3566  1.7788
13448TIP3   OH261834   1.695   4.197  16.582 -0.0854 -0.4904  0.1618
13448TIP3    H161835   1.733   4.256  16.518  1.8040 -0.9008  0.8764
13448TIP3    H261836   1.677   4.116  16.533 -0.2914 -0.2021 -0.2406
13449TIP3   OH261837   3.729   0.224   2.762 -0.0413 -0.9208  0.8438
13449TIP3    H161838   3.659   0.278   2.726  0.3997 -1.6753 -1.2138
13449TIP3    H261839   3.804   0.285   2.770  0.1409 -0.9579 -0.4544
13450TIP3   OH261840   6.547   5.148   2.913 -0.2061 -0.3941 -0.4037
13450TIP3    H161841   6.542   5.107   2.999 -0.6990  1.3584  0.4244
13450TIP3    H261842   6.621   5.105   2.870  0.8088 -0.4378  1.3452
13451TIP3   OH261843   6.798   3.817   1.854 -0.2353 -0.1433  0.2067
13451TIP3    H161844   6.804   3.726   1.882 -1.4100 -0.1723  0.4003
13451TIP3    H261845   6.888   3.850   1.857  0.1838 -1.2744  0.1956
13452TIP3   OH261846   2.269   4.257  14.627 -0.1318  0.2634  0.2258
13452TIP3    H161847   2.275   4.351  14.642 -0.7649  0.0257  2.0214
13452TIP3    H261848   2.257   4.219  14.714 -1.0044 -1.3949 -0.5991
13453TIP3   OH261849   6.464   4.735  13.973 -0.1472 -0.0036 -0.6091
13453TIP3    H161850   6.492   4.644  13.960  1.3767  0.2768  0.5410
13453TIP3    H261851   6.399   4.750  13.904  0.9099 -1.4014 -1.9490
13454TIP3   OH261852   1.022   2.632   2.629 -0.1622 -0.5214  1.0658
13454TIP3    H161853   0.948   2.572   2.642 -0.0285 -0.7249  0.8803
13454TIP3    H261854   1.024   2.649   2.535 -0.3707 -0.0044  1.1507
13455TIP3   OH261855   3.183   1.643   5.414  0.3566  0.7988  0.3296
13455TIP3    H161856   3.162   1.555   5.445 -1.7513  1.2289  0.1424
13455TIP3    H261857   3.184   1.635   5.318  0.9852  0.8072  0.3313
13456TIP3   OH261858   6.692   3.503   3.329  0.3120 -0.0886  0.6984
13456TIP3    H161859   6.665   3.585   3.370  0.7054  0.2035  0.3833
13456TIP3    H261860   6.614   3.474   3.280  0.0216 -0.1529  1.1967
13457TIP3   OH261861   5.183   2.848   6.435 -0.0304 -0.1395 -0.0999
13457TIP3    H161862   5.113   2.827   6.497  0.3431 -3.1100 -0.5992
13457TIP3    H261863   5.139   2.859   6.351 -0.2605  1.4607  0.2159
13458TIP3   OH261864   0.177   2.739  16.751  0.3743 -0.1815 -0.0106
13458TIP3    H161865   0.173   2.744  16.656  0.3920 -0.5237 -0.0304
13458TIP3    H261866   0.210   2.650  16.769 -1.1363 -0.6784  0.3502
13459TIP3   OH261867   1.304   1.702   1.000 -0.5796  0.0383 -0.3076
13459TIP3    H161868   1.279   1.790   0.971 -1.2404 -0.5956 -1.7419
13459TIP3    H261869   1.224   1.651   0.990 -0.3206 -0.6267  0.9676
13460TIP3   OH261870   4.049   6.124  12.914 -0.2068 -0.5838  0.2491
13460TIP3    H161871   3.955   6.130  12.931 -0.7796 -2.3825 -1.9744
13460TIP3    H261872   4.075   6.212  12.888 -1.7382 -0.5324 -1.1940
13461TIP3   OH261873   1.339   5.708  11.585 -0.2392 -0.1363 -0.1044
13461TIP3    H161874   1.307   5.619  11.599 -0.3591  0.0252  0.6545
13461TIP3    H261875   1.411   5.717  11.647 -0.5367  0.4597  0.1569
13462TIP3   OH261876   5.664   2.083   4.045  0.3701  0.1807  0.1788
13462TIP3    H161877   5.646   2.067   4.138  1.7141 -1.3690  0.1897
13462TIP3    H261878   5.751   2.122   4.043  0.8228 -0.8410 -0.4978
13463TIP3   OH261879   5.398   4.328   0.631 -0.3267  0.2813 -0.6678
13463TIP3    H161880   5.368   4.401   0.578 -0.1466 -0.5295 -1.9029
13463TIP3    H261881   5.426   4.367   0.714  0.1308  1.6380 -1.4626
13464TIP3   OH261882   6.274   3.792   6.581  0.0541 -0.8620  0.6030
13464TIP3    H161883   6.213   3.719   6.586 -0.8135 -0.2609 -0.8656
13464TIP3    H261884   6.358   3.751   6.560 -0.0788 -1.5795  1.4453
13465TIP3   OH261885   2.292   0.923   0.415  0.6673 -0.4954  0.0091
13465TIP3    H161886   2.316   0.932   0.507  1.7881  0.2628 -0.3553
13465TIP3    H261887   2.374   0.903   0.370  0.3050  0.2175 -0.9752
13466TIP3   OH261888   3.895   1.230   5.859  0.4752 -0.3353  0.1891
13466TIP3    H161889   3.959   1.236   5.929  0.5630  2.0604 -0.0603
13466TIP3    H261890   3.897   1.315   5.816 -1.3028 -0.9461 -1.2127
13467TIP3   OH261891   4.393   0.085  15.836 -0.0050 -0.1292  0.0669
13467TIP3    H161892   4.448   0.025  15.887  4.1213  2.6887 -0.8145
13467TIP3    H261893   4.369   0.034  15.759  2.2512 -1.1648 -0.0075
13468TIP3   OH261894   2.589   5.766  15.835  0.0390  0.4698  0.3525
13468TIP3    H161895   2.645   5.696  15.804 -0.5317 -0.1800  0.7866
13468TIP3    H261896   2.536   5.727  15.904 -0.3223  1.3070  0.5653
13469TIP3   OH261897   0.028   0.711  14.177 -0.0132  0.4641  0.6820
13469TIP3    H161898  -0.007   0.684  14.262 -1.2229 -2.2948 -0.6179
13469TIP3    H261899  -0.046   0.703  14.116  0.7818  2.5438 -0.6352
13470TIP3   OH261900   6.795   4.658   4.533 -0.4114  0.0240 -0.9419
13470TIP3    H161901   6.845   4.639   4.612  0.6042 -0.3190 -1.6566
13470TIP3    H261902   6.797   4.577   4.482 -1.5410  0.0608 -1.0750
13471TIP3   OH261903   0.350   4.246  16.805  0.3156  0.5954  0.7359
13471TIP3    H161904   0.266   4.209  16.832 -0.4721  0.7942 -1.4055
13471TIP3    H261905   0.403   4.243  16.885 -1.1857 -1.0092  1.7268
13472TIP3   OH261906   6.772   0.625   2.182 -0.3520 -0.3987  0.2039
13472TIP3    H161907   6.814   0.654   2.101  0.2602  1.1126  1.0528
13472TIP3    H261908   6.773   0.529   2.176  1.2485 -0.3447 -0.7876
13473TIP3   OH261909   0.745   4.004  16.256  0.2447  0.9758 -0.4469
13473TIP3    H161910   0.827   3.963  16.226 -0.3881 -1.5925  1.1321
13473TIP3    H261911   0.773   4.084  16.300  1.7301  1.2437 -1.8291
13474TIP3   OH261912   0.577   0.054   1.089  0.0827  0.4045 -0.1660
13474TIP3    H161913   0.567   0.137   1.134  0.5022  0.9515 -1.0720
13474TIP3    H261914   0.645   0.070   1.023 -2.0845  0.2627 -2.5204
13475TIP3   OH261915   0.275   3.058   2.394  0.1283  0.6240 -0.1535
13475TIP3    H161916   0.229   3.050   2.311  0.4743  1.7327 -0.4515
13475TIP3    H261917   0.205   3.065   2.459 -0.1364  0.2977 -0.3987
13476TIP3   OH261918   4.970   6.070  11.910 -0.5554  0.2991  0.0773
13476TIP3    H161919   4.902   6.044  11.972  0.8092 -1.3224  0.9251
13476TIP3    H261920   4.999   6.156  11.940 -0.6857  0.0214  0.9966
13477TIP3   OH261921   6.743   5.276   6.017 -0.0980 -0.2919  0.0055
13477TIP3    H161922   6.679   5.272   5.946 -1.0575 -2.2494  0.9628
13477TIP3    H261923   6.827   5.283   5.972 -0.7522 -0.6784 -1.3121
13478TIP3   OH261924   2.475   2.602   0.460  0.1553 -0.6650 -0.0591
13478TIP3    H161925   2.426   2.610   0.378  0.1683 -1.7076 -0.1717
13478TIP3    H261926   2.480   2.692   0.493 -1.4201 -0.4962 -0.2659
13479TIP3   OH261927   5.084   0.745   1.089 -0.2716 -0.4577  0.4419
13479TIP3    H161928   5.158   0.738   1.150 -1.0359 -0.7718  1.3384
13479TIP3    H261929   5.116   0.804   1.020  0.7408 -0.4147  0.9307
13480TIP3   OH261930   0.862   5.770   3.557  0.2238 -0.2948  0.0253
13480TIP3    H161931   0.953   5.799   3.551  0.6807 -1.8598 -0.9191
13480TIP3    H261932   0.813   5.834   3.505  0.4832  1.6592  2.0994
13481TIP3   OH261933   3.616   0.645   4.079  0.5341  0.1376  0.0510
13481TIP3    H161934   3.524   0.623   4.089  0.5829  0.2089  0.7075
13481TIP3    H261935   3.656   0.565   4.044  0.1333  0.2885 -0.7618
13482TIP3   OH261936   1.644   5.059  15.683  0.8566  0.4379  0.3381
13482TIP3    H161937   1.701   5.012  15.623  0.0978  0.1786 -0.1815
13482TIP3    H261938   1.684   5.046  15.769  1.2319 -0.2615  0.0574
13483TIP3   OH261939   5.203   2.398  12.102 -0.8111  0.7150  0.3825
13483TIP3    H161940   5.123   2.378  12.053  1.3503  0.7943 -3.3476
13483TIP3    H261941   5.223   2.489  12.078  0.9852  0.3381  0.4044
13484TIP3   OH261942   0.946   5.847   2.217 -0.3941 -0.7730  0.1423
13484TIP3    H161943   0.856   5.854   2.249 -0.1457 -0.4644  0.7814
13484TIP3    H261944   1.000   5.872   2.292  0.2325 -1.2082 -0.1636
13485TIP3   OH261945   4.044   6.679  12.826  0.1718 -0.0778 -0.6546
13485TIP3    H161946   4.042   6.768  12.862 -0.7169 -0.0204 -0.8506
13485TIP3    H261947   4.138   6.659  12.820  0.3660 -0.4276  2.4945
13486TIP3   OH261948   1.736   5.125  10.502  0.9919 -0.2743 -0.6931
13486TIP3    H161949   1.677   5.093  10.434  0.8866 -1.4132 -0.0764
13486TIP3    H261950   1.679   5.171  10.564  1.0588  0.5712 -1.2531
13487TIP3   OH261951   0.587   4.828   6.081  0.8675 -0.5862 -0.1313
13487TIP3    H161952   0.624   4.751   6.124 -1.0837 -0.9734  0.9196
13487TIP3    H261953   0.526   4.864   6.145 -1.4588 -0.6709 -2.2102
13488TIP3   OH261954   6.075   6.323  17.195  0.2672 -0.8654  0.1931
13488TIP3    H161955   6.069   6.357  17.106 -2.3643  0.2821  0.7494
13488TIP3    H261956   6.168   6.304  17.208  0.8676  0.1927 -2.3226
13489TIP3   OH261957   0.981   3.834   4.387  0.1642 -0.2240  0.0098
13489TIP3    H161958   1.057   3.832   4.328  1.5747  0.5609  1.7698
13489TIP3    H261959   1.006   3.779   4.461 -1.2927 -0.5722  0.2646
13490TIP3   OH261960   0.879   1.265  15.832  0.3171 -0.3369 -0.5647
13490TIP3    H161961   0.840   1.305  15.909  0.7160 -0.4667 -0.2872
13490TIP3    H261962   0.832   1.302  15.758 -0.6081 -0.8196 -0.2144
13491TIP3   OH261963   6.522   2.615  13.908 -0.2621 -0.3500  0.2233
13491TIP3    H161964   6.476   2.696  13.886  0.7434 -0.4681 -2.4597
13491TIP3    H261965   6.614   2.634  13.890  0.2779 -1.3575  1.8220
13492TIP3   OH261966   4.571   2.810  12.868  0.2835  0.3471 -0.2275
13492TIP3    H161967   4.564   2.835  12.960  0.0511  0.9355 -0.4059
13492TIP3    H261968   4.485   2.832  12.830 -0.2845 -1.6461 -0.1534
13493TIP3   OH261969   6.455   3.729  14.402 -0.2140  0.1216  0.0901
13493TIP3    H161970   6.444   3.804  14.343 -0.8820 -0.5673 -0.6608
13493TIP3    H261971   6.406   3.754  14.481  0.5844  0.9909  0.3265
13494TIP3   OH261972   3.131   5.663  12.101  0.1096  0.2056 -0.6981
13494TIP3    H161973   3.107   5.573  12.122 -0.0447 -0.2016 -2.5265
13494TIP3    H261974   3.212   5.679  12.150 -0.1222 -0.7623 -0.0024
13495TIP3   OH261975   1.423   3.097  12.335  0.3771 -0.5562 -0.1739
13495TIP3    H161976   1.442   3.149  12.414 -2.5257 -1.7147  1.3698
13495TIP3    H261977   1.481   3.133  12.268  2.0982  1.2396  2.1895
13496TIP3   OH261978   5.465   0.645  12.278  0.0199  0.7069  0.0083
13496TIP3    H161979   5.534   0.628  12.215  0.3682  0.0975  0.5448
13496TIP3    H261980   5.398   0.693  12.229  0.1451 -0.0371 -0.8982
13497TIP3   OH261981   3.252   1.197   5.236 -0.1466 -0.2506  0.4144
13497TIP3    H161982   3.162   1.217   5.213 -0.0779 -1.3566 -0.8476
13497TIP3    H261983   3.267   1.109   5.202  0.4742 -1.2999  3.2714
13498TIP3   OH261984   3.430   6.584  10.971 -0.6511  0.3105  0.6727
13498TIP3    H161985   3.500   6.642  11.002 -1.2150  0.6382  1.3507
13498TIP3    H261986   3.463   6.496  10.985  0.1243  0.4623 -0.1514
13499TIP3   OH261987   4.130   2.363   2.457  0.6793 -0.8937 -0.2535
13499TIP3    H161988   4.069   2.296   2.427  2.8005 -2.6819 -0.7733
13499TIP3    H261989   4.138   2.423   2.382 -1.2841  0.0142  0.2392
13500TIP3   OH261990   6.355   3.678   1.397  0.4670  0.1131 -0.3755
13500TIP3    H161991   6.280   3.626   1.425 -0.4998  1.6159 -0.0935
13500TIP3    H261992   6.374   3.737   1.470 -0.5511  2.3921 -1.8581
13501TIP3   OH261993   6.816   1.791   4.845 -0.0653 -0.7238 -0.3008
13501TIP3    H161994   6.786   1.880   4.865  1.8534 -0.2888  0.8404
13501TIP3    H261995   6.873   1.801   4.769  2.1800 -0.5295  1.3309
13502TIP3   OH261996   6.471   0.419   4.929  0.1051  0.0153 -0.0995
13502TIP3    H161997   6.488   0.449   5.018  0.6286  1.6923 -0.7492
13502TIP3    H261998   6.555   0.385   4.899 -0.2860 -1.3859  0.3401
13503TIP3   OH261999   0.766   5.721  14.968  0.3723  0.2843  0.0378
13503TIP3    H162000   0.747   5.754  15.055  2.6971 -0.8730  1.0460
13503TIP3    H262001   0.731   5.787  14.908 -2.7298  0.2640  1.7847
13504TIP3   OH262002   4.696   4.936   6.596  0.0149 -0.0885  0.4921
13504TIP3    H162003   4.784   4.902   6.610  0.6677  1.0425 -0.7247
13504TIP3    H262004   4.642   4.859   6.582  1.1932 -0.7129 -0.7214
13505TIP3   OH262005   3.433   1.347  12.833  0.4067  0.5095  0.3062
13505TIP3    H162006   3.367   1.325  12.768  0.7964 -0.4958  0.2458
13505TIP3    H262007   3.406   1.433  12.866 -0.8274  0.1942  0.1518
13506TIP3   OH262008   0.179   3.149  11.620 -0.2539 -0.1540 -0.1508
13506TIP3    H162009   0.163   3.238  11.591  0.2142 -0.1502 -0.3865
13506TIP3    H262010   0.097   3.103  11.603  0.0658 -0.1990 -1.6330
13507TIP3   OH262011   3.821   5.203  12.183 -0.1847  0.1611  0.7350
13507TIP3    H162012   3.835   5.206  12.277 -0.9965  1.4632  0.8337
13507TIP3    H262013   3.904   5.232  12.145  0.2358 -0.6414  1.0327
13508TIP3   OH262014   6.198   0.268   0.384 -0.1502  0.1596 -0.0299
13508TIP3    H162015   6.158   0.267   0.296 -0.8094 -1.1927  0.2732
13508TIP3    H262016   6.292   0.272   0.367 -0.3197  0.9262 -0.7951
13509TIP3   OH262017   4.896   2.573  16.295  0.5082  0.3030 -0.2275
13509TIP3    H162018   4.807   2.538  16.301  0.4569  0.4989  0.1438
13509TIP3    H262019   4.889   2.663  16.327  0.9460  0.1319  0.3539
13510TIP3   OH262020   0.394   4.667  12.724  0.0685  0.2772  0.1416
13510TIP3    H162021   0.360   4.582  12.698 -0.6441  0.6779 -0.2470
13510TIP3    H262022   0.321   4.710  12.768  0.0452  1.1851 -0.7789
13511TIP3   OH262023   0.643   5.898  11.072 -0.3735 -0.0435 -0.2077
13511TIP3    H162024   0.576   5.831  11.083 -0.3125 -0.3973 -1.8677
13511TIP3    H262025   0.601   5.966  11.019 -0.4108  1.1966  1.3908
13512TIP3   OH262026   1.524   0.305   3.053 -0.2822  0.2282 -0.0696
13512TIP3    H162027   1.590   0.252   3.008  1.2940  0.8764  1.4164
13512TIP3    H262028   1.517   0.385   3.001 -0.4000 -0.1277 -0.6075
13513TIP3   OH262029   1.577   6.522   0.992 -0.0509  0.2728 -0.0497
13513TIP3    H162030   1.619   6.596   1.035  1.4428  0.1503 -1.2425
13513TIP3    H262031   1.520   6.562   0.925 -0.9606  0.3982  0.7846
13514TIP3   OH262032   3.163   3.610  12.471  0.5807 -0.2110  0.0747
13514TIP3    H162033   3.256   3.629  12.465  0.1281  1.7597 -1.3415
13514TIP3    H262034   3.157   3.531  12.525  3.0304 -0.1874  0.4071
13515TIP3   OH262035   2.037   4.636  12.741  0.0492  0.2239  0.9136
13515TIP3    H162036   2.021   4.654  12.648 -1.1446 -3.0400  0.4202
13515TIP3    H262037   1.950   4.640  12.782  0.1517 -1.2608  1.3144
13516TIP3   OH262038   2.333   2.600  12.109 -0.4058  0.2437  0.3481
13516TIP3    H162039   2.422   2.576  12.083 -0.3580 -0.2596  0.9640
13516TIP3    H262040   2.285   2.606  12.026 -0.2693 -1.4002  0.1194
13517TIP3   OH262041   1.870   3.433   6.420 -0.1416  0.0583 -0.0380
13517TIP3    H162042   1.913   3.418   6.337  0.0277 -1.1856  0.2752
13517TIP3    H262043   1.920   3.504   6.460  1.0210 -0.7126 -0.1033
13518TIP3   OH262044   5.112   3.081  10.963 -0.2176 -0.1039 -0.1812
13518TIP3    H162045   5.136   3.028  10.886  1.3248 -1.3341  1.1117
13518TIP3    H262046   5.142   3.169  10.941 -0.0141 -0.3859 -1.0912
13519TIP3   OH262047   2.264   0.692   0.712 -0.3772 -0.4559  0.2170
13519TIP3    H162048   2.224   0.685   0.799 -0.4384  1.4472  0.3592
13519TIP3    H262049   2.308   0.608   0.699  0.6836 -0.3190  2.6264
13520TIP3   OH262050   6.775   5.035   2.821  0.6251  0.1816  0.3695
13520TIP3    H162051   6.770   4.941   2.837 -0.5342 -0.0292 -1.0487
13520TIP3    H262052   6.866   5.059   2.837  0.8142 -1.1018  1.1859
13521TIP3   OH262053   5.393   6.798   1.683  0.2462 -0.5997 -0.4174
13521TIP3    H162054   5.324   6.832   1.740 -1.2253 -1.2495 -1.7609
13521TIP3    H262055   5.475   6.822   1.726 -0.8276 -1.3030  2.0771
13522TIP3   OH262056   3.055   0.046   5.256  0.5342 -0.0241  0.3316
13522TIP3    H162057   3.046   0.102   5.334  0.6672 -0.8783  0.9668
13522TIP3    H262058   3.082   0.107   5.187 -0.6813  0.9285  0.6789
13523TIP3   OH262059   0.026   2.689   0.005 -0.1713 -0.1285 -0.0812
13523TIP3    H162060  -0.013   2.611   0.043 -1.3429 -0.1887 -1.3724
13523TIP3    H262061  -0.025   2.762   0.039  1.4862  0.1809  1.8412
13524TIP3   OH262062   1.045   2.475   1.222  0.1760 -0.1423 -0.2538
13524TIP3    H162063   0.962   2.519   1.206 -0.0752 -1.3912 -2.5962
13524TIP3    H262064   1.101   2.542   1.261 -1.8912  0.7245  1.3003
13525TIP3   OH262065   5.888   1.902   3.831 -0.4355 -0.1984  0.0231
13525TIP3    H162066   5.812   1.902   3.889 -1.9011 -1.5540 -1.8181
13525TIP3    H262067   5.898   1.993   3.804 -1.4409 -0.0288  0.2209
13526TIP3   OH262068   1.213   1.702  11.962  0.1997 -0.2940  0.0835
13526TIP3    H162069   1.259   1.718  12.045 -0.6153 -0.2351  0.5324
13526TIP3    H262070   1.255   1.761  11.900  0.1291  0.4221  0.7011
13527TIP3   OH262071   3.322   2.415   0.029 -0.4761 -0.4903 -0.5866
13527TIP3    H162072   3.291   2.389  -0.058 -3.6134  1.4293 -0.1114
13527TIP3    H262073   3.345   2.507   0.020  1.5445 -0.9004  0.0611
13528TIP3   OH262074   0.946   6.092   5.960 -0.1270 -0.0204 -0.7842
13528TIP3    H162075   1.001   6.073   5.884  0.4965 -0.3475 -0.2586
13528TIP3    H262076   0.941   6.009   6.008 -0.6018  0.1552 -0.5252
13529TIP3   OH262077   4.959   2.951  13.062  0.7450  0.4519 -0.3605
13529TIP3    H162078   5.014   3.028  13.045  0.0068  1.3171  1.0396
13529TIP3    H262079   4.924   2.966  13.150  0.0179 -1.1473 -0.3672
13530TIP3   OH262080   2.786   0.332   5.585  0.5678 -0.2400  0.0135
13530TIP3    H162081   2.842   0.318   5.661 -0.7343  1.4819  1.3653
13530TIP3    H262082   2.720   0.263   5.590  0.5668 -0.2129  0.3778
13531TIP3   OH262083   0.858   4.059   3.027  0.3667  0.2073  0.5494
13531TIP3    H162084   0.801   3.984   3.041  1.9640 -0.9824  0.7804
13531TIP3    H262085   0.940   4.036   3.071  1.0618  1.8408  0.1413
13532TIP3   OH262086   6.573   0.386   6.637 -0.1207 -0.3092  0.5218
13532TIP3    H162087   6.542   0.357   6.551  0.1889  0.6644  0.0742
13532TIP3    H262088   6.542   0.319   6.698  0.9229 -1.7842 -0.5411
13533TIP3   OH262089   1.650   3.256   3.738 -0.4146 -0.4025  0.5619
13533TIP3    H162090   1.651   3.286   3.829 -1.2401 -1.1475  0.8260
13533TIP3    H262091   1.611   3.168   3.743 -2.2740  0.3374 -0.7639
13534TIP3   OH262092   3.219   4.303   5.513 -0.1734  0.4914  0.2669
13534TIP3    H162093   3.137   4.258   5.530 -1.2813  1.0120 -3.1894
13534TIP3    H262094   3.216   4.381   5.568 -1.6331  0.1055  0.7504
13535TIP3   OH262095   5.906   3.862   0.290 -0.3210  0.6427  0.1212
13535TIP3    H162096   5.866   3.777   0.307 -0.7818  1.0416  1.0342
13535TIP3    H262097   5.921   3.862   0.195 -0.0050 -0.5850  0.1607
13536TIP3   OH262098   3.204   5.257   3.650  0.0747  0.7621 -0.8777
13536TIP3    H162099   3.144   5.184   3.663  1.5366 -0.1187  1.2220
13536TIP3    H262100   3.287   5.216   3.624  0.7333  1.7126 -0.3218
13537TIP3   OH262101   1.822   4.330  13.062 -0.0738  0.1890 -0.3815
13537TIP3    H162102   1.898   4.377  13.028 -0.5662  2.0787  0.9698
13537TIP3    H262103   1.751   4.394  13.057 -1.3202 -1.2006 -0.6364
13538TIP3   OH262104   2.979   4.101   0.162 -0.1782  0.0439 -0.1259
13538TIP3    H162105   2.977   4.124   0.255 -0.2458  3.4948 -0.8945
13538TIP3    H262106   3.058   4.049   0.152 -0.4065 -0.7462  1.9352
13539TIP3   OH262107   2.426   2.005  11.058  0.1847 -0.4472 -0.0431
13539TIP3    H162108   2.445   2.046  10.974  1.8064 -0.8627  0.1172
13539TIP3    H262109   2.404   1.915  11.037  2.4903 -1.0641  0.1453
13540TIP3   OH262110   2.985   6.136  15.101  0.1650  0.1389  0.1513
13540TIP3    H162111   2.973   6.204  15.034  0.0421  1.3643  1.3916
13540TIP3    H262112   3.075   6.149  15.132 -0.8533  1.7398  2.5438
13541TIP3   OH262113   1.186   3.136  15.218 -0.1974  0.3527 -0.2043
13541TIP3    H162114   1.234   3.180  15.289  0.6109  3.1443 -2.3645
13541TIP3    H262115   1.251   3.127  15.148 -1.3510 -1.0489 -1.1126
13542TIP3   OH262116   0.695   2.278   2.714  0.0451  0.3360 -0.5477
13542TIP3    H162117   0.722   2.366   2.686  1.3895 -0.8069 -3.1277
13542TIP3    H262118   0.644   2.245   2.640  0.4228 -1.4023 -0.0416
13543TIP3   OH262119   1.117   1.679  15.134 -0.8002  0.4061  0.1196
13543TIP3    H162120   1.026   1.710  15.131 -0.8800  0.2232  0.6296
13543TIP3    H262121   1.129   1.632  15.052 -1.0591  0.7270 -0.1065
13544TIP3   OH262122   6.699   3.848   5.383  0.2940 -0.4381 -0.4454
13544TIP3    H162123   6.784   3.812   5.358  1.1856  0.9633  0.5584
13544TIP3    H262124   6.711   3.879   5.472 -0.9394  0.8704 -0.7206
13545TIP3   OH262125   1.428   3.946   3.445 -0.0672 -0.2336 -0.2975
13545TIP3    H162126   1.488   3.906   3.382  2.9040 -0.1636  2.3399
13545TIP3    H262127   1.382   3.873   3.485  1.7189 -0.6984  0.9673
13546TIP3   OH262128   3.959   1.239   2.763 -0.3750 -0.1320 -0.0144
13546TIP3    H162129   4.048   1.272   2.746  0.3256 -0.4696  2.8195
13546TIP3    H262130   3.936   1.192   2.683  1.2465  1.5318 -1.5348
13547TIP3   OH262131   5.246   2.747   1.148  0.1915  0.2332  0.2791
13547TIP3    H162132   5.295   2.830   1.148 -2.1377  1.6616 -0.1407
13547TIP3    H262133   5.194   2.750   1.228 -0.9066 -0.1808 -0.4027
13548TIP3   OH262134   3.547   3.660   3.762 -0.1716  0.2528 -0.5085
13548TIP3    H162135   3.551   3.640   3.856  1.2933  0.8807 -0.4211
13548TIP3    H262136   3.585   3.748   3.755  0.1513  0.0161 -1.7552
13549TIP3   OH262137   2.118   6.672  16.270  0.0898 -0.3649 -0.6765
13549TIP3    H162138   2.165   6.756  16.265 -0.6160  0.1799  1.4608
13549TIP3    H262139   2.181   6.607  16.240  0.7927  0.8757 -1.9450
13550TIP3   OH262140   4.212   6.675  14.235 -0.5824  0.2790  0.3458
13550TIP3    H162141   4.226   6.767  14.258  0.9510  0.1931 -0.1867
13550TIP3    H262142   4.215   6.673  14.139  1.0211 -0.5524  0.3944
13551TIP3   OH262143   4.978   2.031  14.099  0.2933 -0.2020 -0.1252
13551TIP3    H162144   4.942   1.969  14.036 -0.3317 -0.4732  0.4983
13551TIP3    H262145   4.962   2.117  14.059 -1.4625 -0.2866  0.3333
13552TIP3   OH262146   0.854   5.570  16.384 -0.6868  0.2692  0.1132
13552TIP3    H162147   0.930   5.627  16.375 -0.1439 -0.4257  0.3262
13552TIP3    H262148   0.884   5.497  16.438 -0.7893 -1.3405 -1.9780
13553TIP3   OH262149   0.172   2.222   2.005  0.2745  0.2928 -0.1648
13553TIP3    H162150   0.200   2.216   1.913 -0.3729  0.5938 -0.3841
13553TIP3    H262151   0.118   2.144   2.018  3.4556 -1.8013  1.0639
13554TIP3   OH262152   3.351   2.995  12.635 -0.2002 -0.1457 -0.2087
13554TIP3    H162153   3.323   2.910  12.601 -0.9303  0.5606 -1.3583
13554TIP3    H262154   3.274   3.030  12.680  0.9061 -1.3256  2.7451
13555TIP3   OH262155   3.442   3.846  13.211  0.0906 -0.3081 -0.1275
13555TIP3    H162156   3.379   3.915  13.191  1.9736  1.3333 -0.4509
13555TIP3    H262157   3.470   3.864  13.301  1.8691  0.3969 -0.7999
13556TIP3   OH262158   3.891   2.689  15.508 -0.0134  0.3979 -0.5308
13556TIP3    H162159   3.887   2.776  15.468 -0.2633  1.0570  0.8744
13556TIP3    H262160   3.803   2.653  15.497 -0.6842  1.4272  1.2253
13557TIP3   OH262161   6.779   2.637   6.033 -0.3893 -0.3814  0.2195
13557TIP3    H162162   6.849   2.572   6.041 -0.4807 -0.5364 -0.2251
13557TIP3    H262163   6.699   2.589   6.054 -0.6523 -0.8340 -1.6897
13558TIP3   OH262164   6.336   0.854  17.111  0.0098  0.5954  0.5724
13558TIP3    H162165   6.362   0.765  17.089 -0.0130  0.3158  1.6409
13558TIP3    H262166   6.390   0.910  17.054  2.5910  0.0137  2.3405
13559TIP3   OH262167   4.348   0.090   4.273 -0.2465 -0.2926  0.7219
13559TIP3    H162168   4.298   0.062   4.350 -0.1626 -1.3579  0.3944
13559TIP3    H262169   4.420   0.028   4.268 -0.7314 -0.7487 -0.7269
13560TIP3   OH262170   4.960   4.526   3.926  0.2754 -0.0339  0.3761
13560TIP3    H162171   4.962   4.450   3.985  0.3599  0.0719  0.5093
13560TIP3    H262172   4.875   4.566   3.940 -0.1040 -0.5881 -0.3043
13561TIP3   OH262173   4.987   3.965   2.214 -0.1901 -0.0817 -0.5119
13561TIP3    H162174   5.055   4.018   2.172 -0.4031  1.4183  0.9650
13561TIP3    H262175   4.910   4.022   2.215 -0.5886 -0.6265  0.5789
13562TIP3   OH262176   6.310   6.358  14.046  0.4110 -0.2812  0.4651
13562TIP3    H162177   6.374   6.430  14.044  0.1526 -0.0721 -0.9091
13562TIP3    H262178   6.348   6.290  13.991 -0.8683  0.1337 -0.9665
13563TIP3   OH262179   1.749   3.100  15.129 -0.6591 -0.1748 -0.4556
13563TIP3    H162180   1.792   3.161  15.070  1.6075  0.9707  2.2794
13563TIP3    H262181   1.727   3.152  15.206 -0.8546 -2.2882  0.9644
13564TIP3   OH262182   2.470   4.756   3.538 -0.5181  0.0678  0.0801
13564TIP3    H162183   2.398   4.708   3.579  1.0384 -1.8219  0.6995
13564TIP3    H262184   2.463   4.735   3.445 -1.4711  0.8596 -0.0325
13565TIP3   OH262185   3.551   0.549   3.201 -0.0428 -0.7181 -0.1950
13565TIP3    H162186   3.624   0.591   3.156 -0.7351 -0.0681 -0.7213
13565TIP3    H262187   3.487   0.533   3.132 -0.6006 -0.8425  0.3498
13566TIP3   OH262188   2.925   3.826   1.906  0.5704  0.1996 -0.2057
13566TIP3    H162189   2.925   3.842   2.000  1.1517 -0.8858 -0.0141
13566TIP3    H262190   3.016   3.803   1.885  0.7165  1.6432 -1.2513
13567TIP3   OH262191   1.317   1.131  14.386  0.4415  0.2714  0.1557
13567TIP3    H162192   1.329   1.036  14.385 -1.2726  0.0560 -1.4878
13567TIP3    H262193   1.236   1.144  14.435  0.5240  0.8692  0.1284
13568TIP3   OH262194   3.497   3.188   5.806  0.6710 -0.3006 -1.4931
13568TIP3    H162195   3.570   3.170   5.866 -1.5886  2.7472  2.4765
13568TIP3    H262196   3.526   3.264   5.756  0.5846  0.4309 -0.4637
13569TIP3   OH262197   5.138   5.531  11.847  0.1244  0.0449  0.0909
13569TIP3    H162198   5.142   5.538  11.752 -0.1689  1.6090  0.1879
13569TIP3    H262199   5.096   5.612  11.876  1.2750  0.1130  1.6401
13570TIP3   OH262200   1.634   6.218  12.872  0.2670 -0.1695  0.7021
13570TIP3    H162201   1.709   6.159  12.885  2.0103  1.7956 -0.2190
13570TIP3    H262202   1.647   6.254  12.784 -2.4405 -0.7233  0.0289
13571TIP3   OH262203   3.820   6.465  11.293 -0.0999  0.2329  0.0295
13571TIP3    H162204   3.916   6.459  11.295 -0.2120 -1.7519  2.4347
13571TIP3    H262205   3.795   6.424  11.211  1.0470 -0.3587 -0.0383
13572TIP3   OH262206   3.474   3.158  12.445 -0.1948 -0.2561 -0.8758
13572TIP3    H162207   3.491   3.079  12.392 -3.1944 -1.0150 -0.7964
13572TIP3    H262208   3.406   3.131  12.506  1.0612  1.5217  1.3472
13573TIP3   OH262209   5.257   5.058  15.787  0.2708 -0.6744 -0.0655
13573TIP3    H162210   5.177   5.099  15.820 -0.7392 -1.9364 -0.9115
13573TIP3    H262211   5.306   5.035  15.866 -1.0950 -1.6214  0.5378
13574TIP3   OH262212   1.976   6.410  12.635  0.3791  0.0428  0.6803
13574TIP3    H162213   1.996   6.324  12.599  0.7606 -0.0865  1.2052
13574TIP3    H262214   1.885   6.427  12.608  1.1626  0.6289 -1.7072
13575TIP3   OH262215   6.311   5.194  16.533 -0.0997  0.3346 -0.1921
13575TIP3    H162216   6.360   5.159  16.460  0.5533  0.7619  0.0392
13575TIP3    H262217   6.363   5.171  16.610 -0.4071  0.5321  0.0756
13576TIP3   OH262218   1.299   2.685   5.595  0.1986 -0.3580  0.0946
13576TIP3    H162219   1.230   2.683   5.529 -0.8901  0.3294  1.1815
13576TIP3    H262220   1.330   2.595   5.600  0.9803 -0.2234 -2.0449
13577TIP3   OH262221   1.170   2.780   1.942  0.3544  0.4826 -0.2363
13577TIP3    H162222   1.222   2.835   2.001  4.6656 -3.3518 -0.1509
13577TIP3    H262223   1.126   2.718   2.001  0.5005 -0.0992 -0.7420
13578TIP3   OH262224   4.219   5.408  16.267  0.2297  0.2193 -0.0291
13578TIP3    H162225   4.216   5.480  16.331 -2.1930  0.8663 -0.8154
13578TIP3    H262226   4.245   5.450  16.185  0.7417 -0.1605 -0.0648
13579TIP3   OH262227   4.622   6.258   0.212  0.4658  0.4474 -0.0900
13579TIP3    H162228   4.626   6.281   0.120  1.2920 -0.0941 -0.1927
13579TIP3    H262229   4.543   6.205   0.221  1.0187 -0.4867 -0.7113
13580TIP3   OH262230   2.078   6.416  14.689  0.5689  0.2918  0.1565
13580TIP3    H162231   2.115   6.366  14.616 -0.6356  0.2123 -0.4064
13580TIP3    H262232   2.141   6.486  14.705  0.6846  0.4991 -1.1712
13581TIP3   OH262233   0.325   3.143   2.014  0.0945  0.2532  0.6141
13581TIP3    H162234   0.280   3.111   2.092 -1.8587 -2.8751 -1.6822
13581TIP3    H262235   0.256   3.151   1.948  1.8859  1.7795 -1.1272
13582TIP3   OH262236   1.883   2.123   4.618 -0.3558 -0.2649  0.2619
13582TIP3    H162237   1.970   2.152   4.590 -0.3983  2.4736  2.6339
13582TIP3    H262238   1.822   2.182   4.573 -0.8652 -0.7862  0.2600
13583TIP3   OH262239   1.088   2.034   0.711 -0.1222  0.0467  0.5062
13583TIP3    H162240   1.091   2.078   0.796  1.3381 -0.4273  0.7020
13583TIP3    H262241   1.029   2.088   0.658 -2.1135 -0.3763  2.2219
13584TIP3   OH262242   5.529   3.945  12.509 -0.1881 -0.2550  0.1835
13584TIP3    H162243   5.514   3.865  12.559  0.2148  0.7046  1.8884
13584TIP3    H262244   5.441   3.980  12.493 -0.3704 -1.0769 -0.6558
13585TIP3   OH262245   0.023   4.722   2.174 -0.4006  0.0517 -0.3010
13585TIP3    H162246   0.058   4.715   2.263 -1.5518  2.4838  0.4107
13585TIP3    H262247  -0.046   4.656   2.169 -0.6944  0.2712  0.8158
13586TIP3   OH262248   2.084   5.113   0.373 -0.9429 -0.0747  0.0559
13586TIP3    H162249   2.105   5.205   0.360 -2.7884  0.2206 -0.8805
13586TIP3    H262250   2.168   5.068   0.361 -0.1176  1.4282  0.0731
13587TIP3   OH262251   4.646   3.559   1.352  0.2853 -0.5545 -0.0840
13587TIP3    H162252   4.583   3.629   1.335 -0.9817 -1.2270  1.7752
13587TIP3    H262253   4.605   3.480   1.317 -0.0383 -1.0389  1.3574
13588TIP3   OH262254   3.587   0.413   1.975 -0.8185  0.3089 -0.0798
13588TIP3    H162255   3.643   0.363   1.915 -0.0313  1.3828 -0.2485
13588TIP3    H262256   3.638   0.420   2.056  0.4765  3.5382 -1.0741
13589TIP3   OH262257   0.259   2.784   5.786  0.1288  0.1229 -0.0628
13589TIP3    H162258   0.188   2.827   5.739 -1.0681  0.1765  1.7446
13589TIP3    H262259   0.284   2.847   5.854 -0.2950 -1.1990  1.3453
13590TIP3   OH262260   2.454   5.196  12.412 -0.3231  0.2349 -0.0666
13590TIP3    H162261   2.366   5.161  12.426  0.4026 -0.8974  1.7543
13590TIP3    H262262   2.492   5.138  12.346 -0.4724 -0.0645  0.1109
13591TIP3   OH262263   3.638   0.993  13.107  0.2886 -0.2289  0.3754
13591TIP3    H162264   3.716   0.938  13.109 -0.0880 -0.7712  0.3304
13591TIP3    H262265   3.589   0.963  13.030  0.8189  1.2035 -0.5378
13592TIP3   OH262266   6.733   1.786   0.464  0.7743  0.1092 -0.3368
13592TIP3    H162267   6.723   1.829   0.549  0.5904 -0.0882 -0.2591
13592TIP3    H262268   6.781   1.706   0.482  1.0364  0.2356 -0.4697
13593TIP3   OH262269   3.229   3.975   5.065  0.2120 -0.3663  0.2403
13593TIP3    H162270   3.150   3.952   5.114  0.6854 -2.9846 -0.1564
13593TIP3    H262271   3.200   4.040   5.001 -1.1961  0.1445  1.3779
13594TIP3   OH262272   0.249   1.804  12.801 -0.0584 -0.3075  0.2256
13594TIP3    H162273   0.238   1.733  12.864  0.0157 -1.6793 -1.2890
13594TIP3    H262274   0.303   1.767  12.732  0.0952  1.2688 -0.5125
13595TIP3   OH262275   1.522   4.901   5.686  0.0693  0.6024 -0.2854
13595TIP3    H162276   1.570   4.920   5.605  1.3144  0.5631  0.4344
13595TIP3    H262277   1.481   4.816   5.670  0.3430  0.5761 -0.8535
13596TIP3   OH262278   6.589   4.143   5.715 -0.4818 -0.7236 -0.4077
13596TIP3    H162279   6.581   4.137   5.810 -0.3627 -0.1024 -0.3502
13596TIP3    H262280   6.666   4.091   5.693  0.9169  1.0897  0.1102
13597TIP3   OH262281   1.456   4.628  16.960 -0.3174 -0.0886  0.0627
13597TIP3    H162282   1.529   4.594  17.011 -0.2555  0.8231  0.5833
13597TIP3    H262283   1.420   4.699  17.013 -0.3247  0.7819 -1.0896
13598TIP3   OH262284   1.614   2.168   6.666 -0.3636 -0.1670  0.1067
13598TIP3    H162285   1.536   2.121   6.694 -0.5557  0.8229  1.3017
13598TIP3    H262286   1.672   2.101   6.630 -1.3267 -1.0504  0.1984
13599TIP3   OH262287   5.510   3.480   0.204  0.0940  0.1624  0.0318
13599TIP3    H162288   5.433   3.510   0.254 -1.8405 -1.5470 -1.8624
13599TIP3    H262289   5.526   3.551   0.141  0.2224  0.6193  0.5702
13600TIP3   OH262290   5.863   1.109  11.071  0.0064 -0.6662  0.6286
13600TIP3    H162291   5.771   1.082  11.069 -0.5059  1.0500 -0.3435
13600TIP3    H262292   5.910   1.039  11.026 -0.8742 -1.3502  0.7523
13601TIP3   OH262293   1.025   1.749  11.597 -0.0969  0.1941  0.0893
13601TIP3    H162294   0.966   1.675  11.580  0.4859 -0.2553 -0.0234
13601TIP3    H262295   1.012   1.769  11.690 -0.0637 -0.2273  0.1860
13602TIP3   OH262296   3.789   4.739   5.972 -0.2395 -0.4605  0.6927
13602TIP3    H162297   3.788   4.808   6.038 -0.6296 -1.0360  1.2973
13602TIP3    H262298   3.881   4.729   5.948 -0.4056  1.6973 -0.9120
13603TIP3   OH262299   1.653   3.275  13.921 -0.0244  0.3009  0.0370
13603TIP3    H162300   1.713   3.296  13.849 -0.2053  1.8379  0.3233
13603TIP3    H262301   1.679   3.187  13.948 -0.0749 -0.3751 -2.0183
13604TIP3   OH262302   4.716   5.975  12.605  0.1791 -0.6068  0.1827
13604TIP3    H162303   4.715   5.998  12.513 -0.4722 -0.0117  0.3391
13604TIP3    H262304   4.626   5.948  12.625 -0.2296  1.3748  1.1654
13605TIP3   OH262305   2.760   5.947   5.533  0.4887  0.2168  0.6563
13605TIP3    H162306   2.685   5.950   5.473  0.3022  0.0042  0.8763
13605TIP3    H262307   2.792   6.037   5.535  0.0266  0.3832  0.8252
13606TIP3   OH262308   1.971   3.807   0.674 -0.2733  0.1323 -0.1235
13606TIP3    H162309   1.988   3.748   0.748 -0.7863  0.0835 -0.0401
13606TIP3    H262310   1.880   3.835   0.686 -0.2663  0.3571 -0.5753
13607TIP3   OH262311   0.209   2.871  16.510 -0.1885 -0.0941 -0.3496
13607TIP3    H162312   0.237   2.961  16.525  1.7869 -0.1079 -3.4636
13607TIP3    H262313   0.133   2.879  16.451 -0.1078 -0.4409 -0.5041
13608TIP3   OH262314   6.144   0.045   5.461  0.1590  0.3222 -0.1411
13608TIP3    H162315   6.094   0.015   5.537 -0.0480  1.0545  0.0132
13608TIP3    H262316   6.095   0.012   5.386 -0.1500  0.4015  0.0241
13609TIP3   OH262317   3.931   0.068   0.497  0.2371  0.4164  0.0248
13609TIP3    H162318   3.844   0.039   0.521  1.1737 -1.6563  1.0727
13609TIP3    H262319   3.930   0.072   0.401 -1.7996  3.1225  0.1249
13610TIP3   OH262320   5.486   0.909   0.799  0.2944 -0.5292 -0.6053
13610TIP3    H162321   5.441   0.993   0.792  2.3367  0.5563 -0.8492
13610TIP3    H262322   5.570   0.929   0.839 -0.4032 -2.9036  2.3008
13611TIP3   OH262323   5.680   6.233   0.940  0.8081 -0.2042  0.1282
13611TIP3    H162324   5.668   6.176   1.016 -0.1759  0.6409  0.6316
13611TIP3    H262325   5.737   6.304   0.973 -3.1938  2.5814  1.4454
13612TIP3   OH262326   3.866   4.277   1.108 -0.3344 -0.4813 -0.0323
13612TIP3    H162327   3.945   4.323   1.080 -0.4133 -0.9221 -0.9847
13612TIP3    H262328   3.898   4.194   1.143 -0.2180  0.1540  1.4065
13613TIP3   OH262329   1.815   1.985  17.040 -0.2670 -0.0636 -0.2480
13613TIP3    H162330   1.889   1.984  17.101  0.3442  0.6499 -0.9640
13613TIP3    H262331   1.753   1.922  17.077  0.3607 -0.1014  0.7752
13614TIP3   OH262332   4.819   0.274  17.249  0.3662 -0.3752 -0.6117
13614TIP3    H162333   4.886   0.206  17.251 -1.3573 -2.0790  0.4544
13614TIP3    H262334   4.857   0.343  17.194  2.8614 -1.4090 -0.2646
13615TIP3   OH262335   4.853   5.945   4.407  0.2514  0.5021  0.5554
13615TIP3    H162336   4.758   5.934   4.409  0.4169 -0.9239  0.5803
13615TIP3    H262337   4.866   6.030   4.364 -1.0560  1.0891  1.2743
13616TIP3   OH262338   4.975   6.309   0.217  0.0691 -0.2369  0.0929
13616TIP3    H162339   4.932   6.386   0.255 -2.7004 -1.0313 -1.2892
13616TIP3    H262340   4.948   6.309   0.126 -0.1938 -2.9810  0.1285
13617TIP3   OH262341   2.771   0.727   4.981 -0.5221  0.3857 -0.2568
13617TIP3    H162342   2.865   0.741   4.970 -0.7874  2.3569 -0.1986
13617TIP3    H262343   2.749   0.663   4.914  0.7128  0.5997 -0.8888
13618TIP3   OH262344   5.898   4.079   4.256  0.1665  0.0089  0.4737
13618TIP3    H162345   5.984   4.112   4.232  0.9971 -0.5375  2.5686
13618TIP3    H262346   5.847   4.083   4.175  1.9302  1.0240 -0.6171
13619TIP3   OH262347   5.014   3.207  10.046  0.4055 -0.4021 -0.0957
13619TIP3    H162348   4.938   3.192   9.991  1.4317  0.2602 -1.7254
13619TIP3    H262349   4.987   3.276  10.107 -0.0708  0.3538 -1.1505
13620TIP3   OH262350   3.827   2.708  10.985 -0.3061 -0.0419 -0.4096
13620TIP3    H162351   3.898   2.703  10.920 -0.7413  0.2664 -0.9145
13620TIP3    H262352   3.749   2.678  10.938 -0.4181 -0.8810  0.2952
13621TIP3   OH262353   6.356   1.327  14.193 -0.1992 -0.3391  0.0631
13621TIP3    H162354   6.380   1.298  14.281 -2.2463 -2.4393 -0.0288
13621TIP3    H262355   6.262   1.311  14.187  0.3696 -3.0991 -3.5103
13622TIP3   OH262356   4.804   4.638   1.830  0.0303 -0.1377  0.3988
13622TIP3    H162357   4.870   4.597   1.775 -0.2751  0.4798 -0.4320
13622TIP3    H262358   4.854   4.671   1.905  0.4849 -0.7410  0.3689
13623TIP3   OH262359   5.640   5.768   4.599  0.4629 -0.7640  0.1146
13623TIP3    H162360   5.710   5.782   4.535 -0.0923 -0.4174 -0.4211
13623TIP3    H262361   5.681   5.716   4.668  1.3569 -0.2434 -0.0118
13624TIP3   OH262362   6.781   3.482  16.836 -0.0374 -0.0679 -0.1968
13624TIP3    H162363   6.733   3.559  16.804 -1.7158  0.1104  2.5955
13624TIP3    H262364   6.854   3.518  16.886  0.0456 -0.3168 -0.1374
13625TIP3   OH262365   3.753   1.850   1.463  0.4184  0.4169 -0.9739
13625TIP3    H162366   3.791   1.847   1.551 -1.0180 -3.1149 -0.3982
13625TIP3    H262367   3.668   1.892   1.475 -0.6255 -1.8169 -0.2745
13626TIP3   OH262368   2.914   4.340  16.166 -0.7936 -0.9477  0.3877
13626TIP3    H162369   2.841   4.324  16.106 -0.6101 -0.5076  0.0402
13626TIP3    H262370   2.902   4.430  16.195  1.6967  0.4895 -2.6601
13627TIP3   OH262371   5.875   1.470   3.507 -0.6021 -0.1285  0.9871
13627TIP3    H162372   5.915   1.556   3.525  0.6683 -0.4490 -0.2798
13627TIP3    H262373   5.935   1.407   3.547  0.1116 -0.6036 -0.7821
13628TIP3   OH262374   6.022   1.761   0.822 -0.0286 -0.1923  0.6105
13628TIP3    H162375   6.080   1.692   0.789  2.8325  2.5846 -0.4007
13628TIP3    H262376   5.948   1.760   0.762 -0.2102 -2.5769  0.8069
13629TIP3   OH262377   2.609   1.323  16.093 -0.3182  0.0498  0.0549
13629TIP3    H162378   2.601   1.246  16.037  2.2985 -0.4382  0.2855
13629TIP3    H262379   2.610   1.397  16.033 -0.4644 -0.2705 -0.3416
13630TIP3   OH262380   0.664   4.751  13.646 -0.0008  0.4206 -0.0041
13630TIP3    H162381   0.730   4.786  13.706 -0.0617 -0.5659  0.6527
13630TIP3    H262382   0.654   4.660  13.673 -0.6198  0.1925 -1.0043
13631TIP3   OH262383   0.025   2.253  12.672 -0.2613 -0.1374  0.2042
13631TIP3    H162384   0.025   2.170  12.718  0.0376 -0.4641 -0.3722
13631TIP3    H262385   0.118   2.276  12.664 -0.3045 -0.1404 -0.3262
13632TIP3   OH262386   0.842   3.754  12.913  0.3196 -0.0366  0.0319
13632TIP3    H162387   0.841   3.787  13.002 -0.7894 -0.1947  0.0886
13632TIP3    H262388   0.874   3.664  12.922 -2.2065 -0.9320  0.6164
13633TIP3   OH262389   1.807   0.042  12.393  0.0160 -0.6813 -0.0559
13633TIP3    H162390   1.856  -0.031  12.431  1.4278 -0.6161 -1.6597
13633TIP3    H262391   1.851   0.120  12.426 -2.2578 -0.5000  2.6436
13634TIP3   OH262392   2.632   2.977   4.810 -0.2218  0.2895 -0.3107
13634TIP3    H162393   2.727   2.977   4.820 -0.1915  0.7220 -0.5879
13634TIP3    H262394   2.618   2.983   4.716 -0.5253  0.4387 -0.2567
13635TIP3   OH262395   4.520   5.116  14.840 -0.3108 -0.3322  0.0572
13635TIP3    H162396   4.583   5.186  14.855 -1.0327  0.3858 -0.2029
13635TIP3    H262397   4.495   5.086  14.928 -2.2310  1.7713  0.2766
13636TIP3   OH262398   4.892   5.836   4.113  0.1400 -0.0476 -0.1767
13636TIP3    H162399   4.879   5.928   4.136 -3.2231 -0.1819 -1.1882
13636TIP3    H262400   4.815   5.791   4.148  1.4488 -2.3773 -0.2053
13637TIP3   OH262401   3.919   2.851  17.136 -0.7885 -0.0050  0.5783
13637TIP3    H162402   3.926   2.946  17.126 -1.1791  0.1337  1.5353
13637TIP3    H262403   4.010   2.822  17.149 -0.5083  0.0478 -1.1655
13638TIP3   OH262404   4.635   0.531  13.740  0.1611 -0.1864  0.0056
13638TIP3    H162405   4.654   0.618  13.705  1.1743 -1.3337 -2.4582
13638TIP3    H262406   4.550   0.508  13.702 -1.2114  0.6118  2.4832
13639TIP3   OH262407   0.235   6.728   1.868  0.0572  0.2272 -0.0292
13639TIP3    H162408   0.223   6.784   1.945  1.6370  0.5472 -0.0122
13639TIP3    H262409   0.330   6.722   1.857 -0.1102 -1.6674 -0.6023
13640TIP3   OH262410   4.404   6.350  11.519  0.5917  0.4505  0.0986
13640TIP3    H162411   4.426   6.390  11.435  2.0931 -1.4679 -0.4557
13640TIP3    H262412   4.436   6.413  11.584  1.0125  1.1286 -0.7529
13641TIP3   OH262413   5.248   1.522  15.523  0.0376 -0.0478  0.2248
13641TIP3    H162414   5.244   1.617  15.523  2.6572  0.0825  0.3596
13641TIP3    H262415   5.313   1.500  15.457 -1.6006 -1.8202 -0.8518
13642TIP3   OH262416   2.118   6.703  11.656 -0.2124 -0.4129 -0.3338
13642TIP3    H162417   2.160   6.685  11.740  0.5447 -3.0679 -1.2383
13642TIP3    H262418   2.072   6.785  11.670  1.2167  0.0282  2.1913
13643TIP3   OH262419   2.377   6.262  15.993 -0.1930 -0.2798 -0.3137
13643TIP3    H162420   2.346   6.196  15.930 -1.2091  0.2676 -0.4013
13643TIP3    H262421   2.423   6.326  15.940 -0.2419 -0.3051 -0.3871
13644TIP3   OH262422   6.713   2.439  12.523 -0.4196 -0.4901  0.0471
13644TIP3    H162423   6.769   2.370  12.559  0.0494  0.7743  1.8088
13644TIP3    H262424   6.691   2.494  12.598 -0.9229  1.2022 -1.2995
13645TIP3   OH262425   6.526   0.852   2.823  0.6908 -0.1288  0.5659
13645TIP3    H162426   6.532   0.757   2.815  0.9993 -0.1788  1.2997
13645TIP3    H262427   6.604   0.877   2.873  1.6750  0.7523 -1.3821
13646TIP3   OH262428   5.697   6.082  13.499  0.0009  0.0518  0.0705
13646TIP3    H162429   5.636   6.072  13.426 -0.5571  0.1842  0.5057
13646TIP3    H262430   5.692   6.175  13.522 -0.4542 -0.1495  0.8019
13647TIP3   OH262431   3.068   0.222   4.302 -0.2862 -0.2852  0.2613
13647TIP3    H162432   3.051   0.144   4.355  0.7895 -1.7787 -1.5027
13647TIP3    H262433   3.119   0.279   4.360 -1.1285 -0.8618  1.5963
13648TIP3   OH262434   5.078   0.365  14.541 -0.3211 -0.5370 -0.4012
13648TIP3    H162435   4.986   0.389  14.548 -1.0864 -3.0892 -1.3896
13648TIP3    H262436   5.090   0.342  14.449  1.1347 -0.8700 -0.1349
13649TIP3   OH262437   2.886   3.846  11.721 -0.1495  0.4097  0.8856
13649TIP3    H162438   2.947   3.799  11.779 -0.2042  0.9727  1.4050
13649TIP3    H262439   2.939   3.867  11.644 -0.2271 -0.8288  0.4823
13650TIP3   OH262440   1.160   1.326  13.135  0.2033 -0.2929 -0.0860
13650TIP3    H162441   1.093   1.393  13.129 -0.6706 -0.9750  1.7904
13650TIP3    H262442   1.195   1.319  13.046 -0.2923  2.0031 -0.4877
13651TIP3   OH262443   3.731   1.696  13.507 -0.5819 -0.2781 -0.3067
13651TIP3    H162444   3.723   1.789  13.529 -0.6739  0.0272 -1.6175
13651TIP3    H262445   3.647   1.658  13.530 -0.4345 -0.0999  0.5330
13652TIP3   OH262446   4.227   0.090   0.465 -0.5762  0.0224 -0.0546
13652TIP3    H162447   4.291   0.020   0.482  0.8416  1.0394 -1.1600
13652TIP3    H262448   4.147   0.059   0.507  0.9299 -0.7650  2.3114
13653TIP3   OH262449   1.299   1.886  14.545 -0.4137  0.3101 -0.4292
13653TIP3    H162450   1.323   1.974  14.573 -0.5799  0.9867 -2.2850
13653TIP3    H262451   1.284   1.837  14.626  0.7434  1.6867  0.6343
13654TIP3   OH262452   6.416   5.003   2.007 -0.0165 -0.4587  0.2366
13654TIP3    H162453   6.490   4.961   2.051  0.7503  0.5506 -0.0752
13654TIP3    H262454   6.434   4.990   1.914 -0.4558 -0.5873  0.1702
13655TIP3   OH262455   5.590   0.783  16.139 -0.0371  0.1151  0.1922
13655TIP3    H162456   5.637   0.725  16.079 -0.0491 -0.4062  0.6900
13655TIP3    H262457   5.641   0.781  16.220 -0.2008  0.5644  0.3090
13656TIP3   OH262458   1.298   3.983   6.477  1.0764 -0.1592  0.1533
13656TIP3    H162459   1.234   3.943   6.418  0.3357  1.8792 -0.4904
13656TIP3    H262460   1.382   3.966   6.435  0.5103  1.8542 -1.9246
13657TIP3   OH262461   1.810   0.148   2.121  0.2390 -0.2329 -0.8949
13657TIP3    H162462   1.716   0.130   2.112  0.0512  1.0978 -1.6591
13657TIP3    H262463   1.851   0.092   2.055 -0.0594 -0.4176 -0.9267
13658TIP3   OH262464   6.515   0.620   3.359 -0.0426 -0.0373 -0.2567
13658TIP3    H162465   6.471   0.576   3.287 -1.2058  3.1505 -1.5483
13658TIP3    H262466   6.504   0.560   3.433 -2.3616 -1.5119 -1.7196
13659TIP3   OH262467   2.897   1.266  15.052 -0.8522  0.1611 -0.8251
13659TIP3    H162468   2.914   1.339  15.111 -0.4066 -0.9464  0.4255
13659TIP3    H262469   2.839   1.208  15.102  0.7737 -1.5411 -0.8662
13660TIP3   OH262470   1.537   0.243   1.543  0.8160 -0.3612 -0.8842
13660TIP3    H162471   1.549   0.304   1.471  1.3469 -0.1759 -0.6369
13660TIP3    H262472   1.622   0.238   1.586 -0.0150  1.1831  1.0267
13661TIP3   OH262473   2.643   5.104  17.152  0.2332 -0.2576  0.3792
13661TIP3    H162474   2.645   5.158  17.073 -1.9014 -0.0713  0.4262
13661TIP3    H262475   2.721   5.049  17.145  0.6396  0.4937 -1.3212
13662TIP3   OH262476   2.386   5.731  11.678  0.2556  0.5796  0.6189
13662TIP3    H162477   2.368   5.825  11.683 -1.4782  0.2874  0.0386
13662TIP3    H262478   2.467   5.720  11.729  1.7541  2.7152 -1.1799
13663TIP3   OH262479   4.310   4.271   4.951  1.1238 -0.3422 -0.0426
13663TIP3    H162480   4.303   4.233   4.863 -0.2463  0.3568 -0.2511
13663TIP3    H262481   4.327   4.196   5.008  0.1984 -1.0573 -0.6793
13664TIP3   OH262482   0.793   1.695  13.348  0.3787  0.3209  0.1687
13664TIP3    H162483   0.792   1.605  13.317  1.1552  0.1223  0.7095
13664TIP3    H262484   0.883   1.710  13.376  0.0743  1.0123  0.8075
13665TIP3   OH262485   0.738   3.523   3.370  0.0878  0.3700  0.0234
13665TIP3    H162486   0.756   3.495   3.460  2.0992 -0.7790 -0.6974
13665TIP3    H262487   0.643   3.527   3.365 -0.0803 -0.4160  1.9578
13666TIP3   OH262488   1.517   3.251  16.198  0.1271 -0.1896 -0.0939
13666TIP3    H162489   1.594   3.298  16.169  1.0719 -0.9795  1.1010
13666TIP3    H262490   1.544   3.207  16.279 -2.0853  0.9735  1.3195
13667TIP3   OH262491   3.457   6.577   3.685 -0.2100  0.3695  0.5819
13667TIP3    H162492   3.370   6.594   3.721  0.8228  3.5626  1.7009
13667TIP3    H262493   3.452   6.607   3.594 -0.6639 -0.8094  0.2030
13668TIP3   OH262494   3.395   2.931   4.420  0.1904 -0.2098  0.3877
13668TIP3    H162495   3.326   2.995   4.438  0.7672  1.2895 -2.5738
13668TIP3    H262496   3.459   2.945   4.490  0.1947  2.2758 -0.0928
13669TIP3   OH262497   0.962   4.649   1.013  0.0001 -0.7779  0.4118
13669TIP3    H162498   0.871   4.677   1.020  0.0268 -0.9556  1.6902
13669TIP3    H262499   0.991   4.640   1.104  0.8562 -2.1594  0.0197
13670TIP3   OH262500   6.069   1.321  14.250 -0.0115 -0.3805  0.0206
13670TIP3    H162501   6.058   1.412  14.277  0.0592  0.1222 -1.6014
13670TIP3    H262502   6.016   1.271  14.312  0.3873  0.7089  1.2582
13671TIP3   OH262503   5.063   1.213  13.720 -0.1381 -0.2961 -0.2595
13671TIP3    H162504   5.094   1.189  13.807  2.0444 -0.1179 -0.9620
13671TIP3    H262505   5.061   1.309  13.721  1.2178 -0.2519 -0.8361
13672TIP3   OH262506   1.796   1.662   1.054 -0.0958  0.0780 -0.1112
13672TIP3    H162507   1.782   1.703   1.139  1.5762 -4.1050  2.3317
13672TIP3    H262508   1.881   1.694   1.025  0.4937 -0.3849  1.0528
13673TIP3   OH262509   1.053   4.217  17.180 -0.2353 -0.1095 -0.0653
13673TIP3    H162510   0.979   4.274  17.158 -0.4462 -1.1762 -2.2266
13673TIP3    H262511   1.098   4.202  17.097  2.2990  0.3149  1.1918
13674TIP3   OH262512   4.588   2.907  13.388 -0.2353  0.9865  0.2732
13674TIP3    H162513   4.574   2.997  13.418 -1.1672  1.1808 -0.7133
13674TIP3    H262514   4.683   2.895  13.394 -0.2840  1.3418  2.3156
13675TIP3   OH262515   6.030   0.495   5.610 -0.1738 -0.5225 -0.2124
13675TIP3    H162516   6.049   0.467   5.700  3.2693  1.3785 -0.2664
13675TIP3    H262517   6.116   0.509   5.571 -1.6679  1.6112 -2.8724
13676TIP3   OH262518   3.542   6.125  16.748 -0.8289 -0.0727 -0.0298
13676TIP3    H162519   3.538   6.218  16.772 -1.0057  0.3963 -1.8671
13676TIP3    H262520   3.561   6.081  16.831 -0.3331  1.6314  0.7947
13677TIP3   OH262521   4.566   2.616  11.615 -0.2645 -0.2893 -0.5900
13677TIP3    H162522   4.488   2.626  11.561 -1.3742 -0.9130  0.8816
13677TIP3    H262523   4.535   2.627  11.705  1.7520  1.9235 -0.1028
13678TIP3   OH262524   4.556   0.601   3.023  0.3320  0.0890  0.2115
13678TIP3    H162525   4.620   0.550   2.972 -0.2306  0.8996 -1.3419
13678TIP3    H262526   4.609   0.665   3.069  0.6866  0.5405 -0.8113
13679TIP3   OH262527   5.400   0.605   6.019 -0.6758  0.7808  0.5758
13679TIP3    H162528   5.316   0.598   5.974 -0.5630 -2.1997  0.6942
13679TIP3    H262529   5.378   0.630   6.109 -1.5083 -0.7424  0.8026
13680TIP3   OH262530   5.262   0.405  17.032 -0.1871  0.4355  0.3514
13680TIP3    H162531   5.173   0.377  17.015  0.3726 -2.0700  1.3598
13680TIP3    H262532   5.265   0.497  17.003 -2.9564  0.4329 -0.0049
13681TIP3   OH262533   4.459   6.595  13.442  0.0355 -0.9366  0.4441
13681TIP3    H162534   4.375   6.622  13.404  1.1948 -0.1756 -1.6412
13681TIP3    H262535   4.479   6.512  13.400 -0.2952 -1.7839  1.9288
13682TIP3   OH262536   1.186   4.165  16.907 -0.1656  0.3611 -0.1126
13682TIP3    H162537   1.204   4.071  16.903  0.1354  0.4348 -0.5040
13682TIP3    H262538   1.258   4.206  16.860 -0.2636  0.7942  0.1088
13683TIP3   OH262539   1.383   1.964  15.421  0.2496 -0.3099  0.3294
13683TIP3    H162540   1.343   2.049  15.438  2.1187  1.0700 -1.7956
13683TIP3    H262541   1.362   1.945  15.330  2.2209 -0.7180 -0.0768
13684TIP3   OH262542   4.174   5.738  13.224  0.5016  0.0942  0.1860
13684TIP3    H162543   4.214   5.820  13.254 -2.6920  1.5880  0.5054
13684TIP3    H262544   4.207   5.672  13.285  3.2967  1.0341 -0.2112
13685TIP3   OH262545   5.196   3.036  15.318 -0.4206 -0.2042  0.2554
13685TIP3    H162546   5.117   3.018  15.369 -0.0034 -0.7418  0.7180
13685TIP3    H262547   5.246   2.954  15.321  0.1681  0.1386 -0.0137
13686TIP3   OH262548   2.175   3.827   1.094  0.2536 -0.7154 -0.4442
13686TIP3    H162549   2.271   3.825   1.098  0.2639  0.9914  0.1574
13686TIP3    H262550   2.147   3.809   1.184  0.0672  2.1571  0.1017
13687TIP3   OH262551   3.627   1.351   6.118  0.0897  0.1791  0.3518
13687TIP3    H162552   3.716   1.386   6.123  1.0159 -2.0234 -0.1401
13687TIP3    H262553   3.611   1.313   6.204 -0.0369 -0.2008  0.1623
13688TIP3   OH262554   2.633   4.814   0.303  0.7822 -0.0307  0.0334
13688TIP3    H162555   2.589   4.831   0.220  2.4686  1.0691 -0.6610
13688TIP3    H262556   2.610   4.724   0.324 -1.3251  0.3333 -0.5868
13689TIP3   OH262557   1.905   3.693  12.812 -0.1672 -0.6960 -0.6868
13689TIP3    H162558   1.844   3.634  12.768  0.1367 -2.0501  0.6720
13689TIP3    H262559   1.927   3.648  12.894  1.4281  0.4921 -0.4388
13690TIP3   OH262560   2.520   2.777   0.116  0.4648 -0.1264  0.2879
13690TIP3    H162561   2.583   2.711   0.146  1.9525  0.7708 -0.8305
13690TIP3    H262562   2.524   2.846   0.182  1.6775  0.5562 -0.4816
13691TIP3   OH262563   6.276   1.058   1.816  0.2011  0.2162 -0.2725
13691TIP3    H162564   6.199   1.111   1.793  0.2765  0.5805  0.3108
13691TIP3    H262565   6.316   1.037   1.731 -0.7752 -0.3316 -0.6062
13692TIP3   OH262566   2.960   5.692  15.196  0.3897  0.1921 -0.8643
13692TIP3    H162567   2.914   5.770  15.228 -1.6666 -1.2431 -0.2305
13692TIP3    H262568   2.910   5.665  15.119  2.3164  0.6770 -2.3066
13693TIP3   OH262569   4.371   5.047  15.370  0.0516  0.1981 -0.2772
13693TIP3    H162570   4.399   5.100  15.295 -0.4284 -0.8548 -1.2158
13693TIP3    H262571   4.377   4.957  15.339 -0.5300 -0.2336  0.8350
13694TIP3   OH262572   4.445   5.660  16.739 -0.3088  0.0991  0.5857
13694TIP3    H162573   4.395   5.582  16.763 -0.9737 -0.0405 -1.2250
13694TIP3    H262574   4.496   5.634  16.663  0.7818  0.9378  1.0068
13695TIP3   OH262575   4.790   1.970  14.829 -0.0864 -0.3757  0.0629
13695TIP3    H162576   4.764   1.980  14.921 -1.2503  0.7540 -0.3605
13695TIP3    H262577   4.741   1.894  14.799 -0.4971 -0.1385  0.1161
13696TIP3   OH262578   2.941   3.953  14.726  0.3586 -0.5199 -0.6779
13696TIP3    H162579   2.936   3.859  14.710 -1.5731 -0.5745  0.0792
13696TIP3    H262580   2.927   3.993  14.640  1.9519 -0.9161 -1.1337
13697TIP3   OH262581   1.889   2.604   3.897 -0.6143  0.0086  0.9951
13697TIP3    H162582   1.823   2.658   3.941 -0.8133  0.7439 -0.1971
13697TIP3    H262583   1.970   2.623   3.944 -1.0727 -0.2114  1.8874
13698TIP3   OH262584   5.595   1.100  14.220 -0.0698 -0.1223  0.0090
13698TIP3    H162585   5.620   1.061  14.304  1.2525 -1.9641 -1.2048
13698TIP3    H262586   5.597   1.194  14.236  1.5363 -0.4072  1.6735
13699TIP3   OH262587   4.983   2.323   5.983 -0.8733  0.7819  0.0543
13699TIP3    H162588   5.023   2.336   6.069 -0.2598 -2.2567  0.2924
13699TIP3    H262589   4.991   2.229   5.967 -3.2968  0.8983 -2.2032
13700TIP3   OH262590   1.733   4.018  13.144  0.0539  0.1840 -0.0221
13700TIP3    H162591   1.637   4.018  13.153  0.2122 -0.0662  1.8586
13700TIP3    H262592   1.761   4.098  13.188  0.6826  0.4438 -0.8962
13701TIP3   OH262593   4.436   5.890   5.833 -0.8060  0.3988 -0.1188
13701TIP3    H162594   4.486   5.926   5.906 -0.9092 -1.0961  0.7032
13701TIP3    H262595   4.445   5.955   5.763 -0.2088  1.5485  1.0206
13702TIP3   OH262596   1.634   0.606   4.600 -0.4407 -0.3357 -0.2752
13702TIP3    H162597   1.591   0.546   4.540 -0.7162  0.9551 -1.3800
13702TIP3    H262598   1.589   0.593   4.684 -1.5520 -0.5353 -0.8959
13703TIP3   OH262599   6.457   4.207   2.801  0.3740  0.3563  0.1526
13703TIP3    H162600   6.481   4.238   2.889  1.7845 -0.7972  0.1831
13703TIP3    H262601   6.361   4.200   2.804  0.3232  1.2475  1.2811
13704TIP3   OH262602   2.993   2.681   3.008 -0.1968 -0.5619  0.0944
13704TIP3    H162603   3.030   2.648   3.090  0.4126  1.9327  0.8571
13704TIP3    H262604   2.915   2.730   3.034 -0.7792 -0.9116 -0.9540
13705TIP3   OH262605   5.939   4.494   0.613 -0.3432 -0.2024  0.7280
13705TIP3    H162606   5.983   4.416   0.646  1.3561  0.5505  0.2824
13705TIP3    H262607   5.934   4.553   0.689  1.7445  0.7175  0.2031
13706TIP3   OH262608   6.604   1.422  16.022  0.2305 -0.0930 -0.0158
13706TIP3    H162609   6.609   1.507  16.065  0.5778 -0.1942  0.1466
13706TIP3    H262610   6.685   1.415  15.972 -0.4203  0.2553 -1.1238
13707TIP3   OH262611   0.698   5.973  11.759 -0.2607 -0.4477  0.0139
13707TIP3    H162612   0.726   6.054  11.717 -0.0840 -0.6030 -0.1714
13707TIP3    H262613   0.778   5.922  11.768  0.0211  0.3489  2.2646
13708TIP3   OH262614   2.347   1.397   4.803  0.5577 -0.2214 -0.2774
13708TIP3    H162615   2.364   1.352   4.720  0.1792 -0.4124 -0.2527
13708TIP3    H262616   2.344   1.327   4.868 -1.1800 -0.2869 -0.4086
13709TIP3   OH262617   5.000   2.646   0.244  0.1922  0.0594 -0.2969
13709TIP3    H162618   4.969   2.557   0.230  0.1855 -0.0742  0.5591
13709TIP3    H262619   4.923   2.701   0.230  0.1286 -0.0913 -0.5424
13710TIP3   OH262620   6.650   3.153   3.336  0.4612 -0.0287 -0.1095
13710TIP3    H162621   6.688   3.169   3.249  0.7776 -0.8277 -0.1245
13710TIP3    H262622   6.602   3.071   3.327 -1.2334  0.9460 -0.0641
13711TIP3   OH262623   3.386   4.256  12.639  0.2803 -0.4496 -0.3059
13711TIP3    H162624   3.397   4.167  12.604  0.2509 -0.5320 -0.1067
13711TIP3    H262625   3.402   4.313  12.564  1.3209 -0.5905 -0.1928
13712TIP3   OH262626   5.787   2.196  15.142  0.3529 -0.4234 -0.2950
13712TIP3    H162627   5.822   2.279  15.110 -1.8650  0.6601 -0.0038
13712TIP3    H262628   5.751   2.153  15.064 -0.5937 -0.0359 -0.0802
13713TIP3   OH262629   5.810   5.027  16.749  0.0837 -0.3470  0.0344
13713TIP3    H162630   5.896   4.987  16.760  0.3735  0.5615  1.1178
13713TIP3    H262631   5.811   5.061  16.659  0.1852 -1.8910 -0.5629
13714TIP3   OH262632   4.139   6.492   2.525 -0.2438 -0.3994  0.5653
13714TIP3    H162633   4.077   6.538   2.582  1.2314  0.3879  1.5714
13714TIP3    H262634   4.199   6.561   2.495 -0.0725 -1.0879 -0.6868
13715TIP3   OH262635   6.317   2.792   4.473 -0.1667  0.4541  0.0296
13715TIP3    H162636   6.248   2.726   4.471  0.3372 -0.0928  0.4771
13715TIP3    H262637   6.300   2.847   4.397 -1.5206  0.7511  0.5486
13716TIP3   OH262638   0.107   4.384  14.365 -0.4694  0.4532 -0.3228
13716TIP3    H162639   0.070   4.465  14.329  0.2837  1.5182  1.2363
13716TIP3    H262640   0.089   4.389  14.459 -0.7918 -1.4063 -0.2573
13717TIP3   OH262641   0.553   2.488   3.567  0.0305  0.2417 -0.2212
13717TIP3    H162642   0.635   2.528   3.540  0.7332 -0.8363  0.3214
13717TIP3    H262643   0.536   2.522   3.654  0.0263  0.2800 -0.2372
13718TIP3   OH262644   6.128   5.851  16.422  0.0218  0.0033  0.6994
13718TIP3    H162645   6.079   5.919  16.376 -0.4154  0.0026  1.1597
13718TIP3    H262646   6.079   5.770  16.405  0.6531 -0.2349 -0.0106
13719TIP3   OH262647   1.183   5.731   1.612  0.0519 -0.3038  1.0510
13719TIP3    H162648   1.204   5.733   1.706  1.6611 -1.7469  0.7305
13719TIP3    H262649   1.268   5.726   1.568 -0.6480  1.1671 -0.5315
13720TIP3   OH262650   5.340   5.511  13.773 -0.2760  0.3466  0.2410
13720TIP3    H162651   5.421   5.494  13.821 -0.3657 -0.9416 -0.0331
13720TIP3    H262652   5.288   5.565  13.832 -0.3475 -1.1255  1.5585
13721TIP3   OH262653   0.517   1.971   1.658  0.3387 -0.0720  0.0519
13721TIP3    H162654   0.485   1.884   1.635 -0.4954 -0.3589  2.1993
13721TIP3    H262655   0.599   1.955   1.706  1.1924  0.4308 -1.2154
13722TIP3   OH262656   5.436   0.054   0.713  0.3661 -0.3365  0.0746
13722TIP3    H162657   5.475   0.001   0.643  3.8426 -0.0493  1.6514
13722TIP3    H262658   5.429  -0.007   0.787 -1.2905 -0.1122  0.0996
13723TIP3   OH262659   6.669   1.357   3.247  0.2701 -0.3672 -0.4513
13723TIP3    H162660   6.642   1.433   3.195 -1.6584 -0.7996 -0.1384
13723TIP3    H262661   6.626   1.282   3.205 -0.7899 -0.8071  1.3333
13724TIP3   OH262662   0.598   5.881  14.759 -0.1034  0.4352 -0.2977
13724TIP3    H162663   0.552   5.814  14.708  0.9268 -1.3425  1.0147
13724TIP3    H262664   0.530   5.943  14.785 -1.8836 -2.3355  1.9132
13725TIP3   OH262665   1.673   3.946   5.647 -0.2007  0.1297 -0.1436
13725TIP3    H162666   1.584   3.981   5.637  0.3722  1.8712  0.6750
13725TIP3    H262667   1.728   4.005   5.597  0.2825 -2.2244 -2.5354
13726TIP3   OH262668   0.309   2.950  11.793 -0.4208  0.1895 -0.0192
13726TIP3    H162669   0.278   2.945  11.883  0.3514  0.4936  0.2746
13726TIP3    H262670   0.272   3.031  11.759 -0.8319 -0.0004 -0.0183
13727TIP3   OH262671   0.410   4.372   3.741  0.2530  0.0952 -0.7408
13727TIP3    H162672   0.330   4.341   3.699  0.4718  0.7178 -1.6338
13727TIP3    H262673   0.456   4.421   3.673  0.6599  1.0504  0.2011
13728TIP3   OH262674   3.127   4.457  14.288  0.1674  0.2106  0.0208
13728TIP3    H162675   3.083   4.451  14.203 -0.0060  3.2729 -0.1509
13728TIP3    H262676   3.219   4.439  14.268 -0.1160 -0.6455 -0.5460
13729TIP3   OH262677   3.320   0.709   4.377 -0.5728  0.1910  0.1922
13729TIP3    H162678   3.351   0.763   4.304 -1.2245 -1.4278 -1.3308
13729TIP3    H262679   3.227   0.731   4.385 -0.7445 -0.3729 -0.1703
13730TIP3   OH262680   4.617   5.655  12.152  0.0383  0.3060  0.2839
13730TIP3    H162681   4.661   5.583  12.107  2.7925  0.4499  2.6541
13730TIP3    H262682   4.530   5.658  12.112  1.0887 -2.0104 -2.3278
13731TIP3   OH262683   3.407   2.888  15.561  0.1818 -0.2595 -0.5319
13731TIP3    H162684   3.350   2.913  15.634  0.7480  1.8235 -0.7797
13731TIP3    H262685   3.347   2.847  15.498 -1.0418  1.8168 -0.7420
13732TIP3   OH262686   3.925   5.922  15.269  0.0189 -0.1133  0.7024
13732TIP3    H162687   3.878   6.001  15.242  3.3914  1.6255 -0.4209
13732TIP3    H262688   3.885   5.898  15.353 -1.8828  2.0811  0.4851
13733TIP3   OH262689   2.236   4.363  13.182 -0.5556  0.3745  0.2775
13733TIP3    H162690   2.284   4.367  13.099 -0.7345 -3.0685 -0.0704
13733TIP3    H262691   2.303   4.339  13.247 -0.8792  0.5521  0.6770
13734TIP3   OH262692   4.699   6.010  14.735  0.0319  0.2943 -0.0914
13734TIP3    H162693   4.756   5.940  14.702  1.5525  1.8180 -0.7504
13734TIP3    H262694   4.716   6.011  14.830  0.5213  0.2295 -0.1738
13735TIP3   OH262695   5.438   3.070   3.296  0.2552  0.0144  0.0824
13735TIP3    H162696   5.460   3.162   3.309 -0.4643  0.2098 -0.0605
13735TIP3    H262697   5.356   3.072   3.245  0.2769 -0.6996  0.0158
13736TIP3   OH262698   2.392   4.105  15.578 -0.3793 -0.1815  0.0340
13736TIP3    H162699   2.308   4.140  15.549 -1.1177 -0.9532  1.2286
13736TIP3    H262700   2.455   4.142  15.516 -1.7096 -0.4848 -1.5510
13737TIP3   OH262701   6.095   0.815   4.957 -0.1955  0.0882 -0.3678
13737TIP3    H162702   6.014   0.765   4.951 -1.2202  1.7331 -0.4539
13737TIP3    H262703   6.084   0.871   5.034  1.2568 -0.3683  0.1898
13738TIP3   OH262704   6.044   5.592  13.839 -0.2575 -0.6046  0.5417
13738TIP3    H162705   6.044   5.685  13.816 -1.0180 -0.7482 -0.0608
13738TIP3    H262706   5.965   5.557  13.798 -0.6305 -1.2645  1.7931
13739TIP3   OH262707   3.631   0.114   2.994  0.4023 -0.4389  0.6189
13739TIP3    H162708   3.657   0.137   2.905  1.7376 -1.5048  0.7193
13739TIP3    H262709   3.684   0.171   3.050 -0.7126  0.5011  0.7387
13740TIP3   OH262710   1.376   1.163  11.141 -0.1265 -0.4842  0.1243
13740TIP3    H162711   1.306   1.158  11.076  0.5334 -3.6142 -0.4061
13740TIP3    H262712   1.365   1.084  11.193  2.1070 -0.2222  1.0153
13741TIP3   OH262713   0.455   0.952  16.062 -0.1319 -0.0376  0.6748
13741TIP3    H162714   0.392   0.947  16.134 -1.8167 -0.7631 -0.7951
13741TIP3    H262715   0.400   0.961  15.984  1.4589 -3.7156 -0.9500
13742TIP3   OH262716   4.157   3.794  16.710  0.4944 -0.0156 -0.3694
13742TIP3    H162717   4.220   3.855  16.671  0.8301 -0.2591 -0.2101
13742TIP3    H262718   4.078   3.805  16.658  0.6602  0.3119 -0.5574
13743TIP3   OH262719   5.072   3.343  17.004  1.6047 -0.0643  0.4090
13743TIP3    H162720   5.151   3.298  17.033  1.7762  0.2697  0.4658
13743TIP3    H262721   5.017   3.349  17.082  0.5036 -2.4000 -0.1525
13744TIP3   OH262722   1.208   2.485  12.802 -0.4260  0.4619 -0.2639
13744TIP3    H162723   1.248   2.441  12.727 -2.4995 -0.0738 -1.0946
13744TIP3    H262724   1.248   2.443  12.879  2.2532  1.5220 -1.0202
13745TIP3   OH262725   2.123   2.020   0.319  0.0902  0.1054 -0.2890
13745TIP3    H162726   2.200   1.982   0.361 -0.3430 -0.5445 -0.0790
13745TIP3    H262727   2.052   2.004   0.380  0.1206  2.3608  0.3786
13746TIP3   OH262728   0.668   0.051   2.113 -0.1863 -0.1225 -0.1609
13746TIP3    H162729   0.757   0.085   2.121 -0.4177  0.2195  0.9963
13746TIP3    H262730   0.648   0.015   2.199 -0.3504 -2.2011 -1.0345
13747TIP3   OH262731   5.400   1.998  17.030 -0.1163 -0.7296  0.1661
13747TIP3    H162732   5.364   2.087  17.034  1.2073 -0.1832  0.2575
13747TIP3    H262733   5.407   1.979  16.937  1.5398  0.0863  0.1039
13748TIP3   OH262734   4.326   5.163  13.532  0.1113  0.2537 -0.5184
13748TIP3    H162735   4.402   5.205  13.491  1.1517 -1.0085  0.0759
13748TIP3    H262736   4.345   5.069  13.526  0.0463  0.0150  2.3636
13749TIP3   OH262737   6.799   5.604   0.202 -0.1162 -0.4504 -0.0616
13749TIP3    H162738   6.715   5.650   0.207  0.6317  1.0213 -0.7859
13749TIP3    H262739   6.863   5.666   0.236  0.9394 -0.9090 -1.1711
13750TIP3   OH262740   1.523   2.101   4.070 -0.0928 -0.3488 -0.3441
13750TIP3    H162741   1.591   2.162   4.099 -0.5232  0.1386 -0.3240
13750TIP3    H262742   1.535   2.094   3.976 -1.1414  1.1785 -0.6136
13751TIP3   OH262743   5.865   2.280  15.860  0.4132  0.0944  0.4350
13751TIP3    H162744   5.955   2.292  15.831  0.4044  0.8714  0.7311
13751TIP3    H262745   5.830   2.368  15.871 -0.9390 -0.1756 -1.3395
13752TIP3   OH262746   0.346   4.116   0.917 -0.3536  0.0142  0.3592
13752TIP3    H162747   0.269   4.093   0.968 -0.3495 -0.6103  0.0858
13752TIP3    H262748   0.406   4.155   0.981 -0.1253 -1.2801  0.9503
13753TIP3   OH262749   5.350   3.697   1.457 -0.3846 -0.3072 -0.1143
13753TIP3    H162750   5.326   3.633   1.524 -1.3132 -1.2144 -1.2882
13753TIP3    H262751   5.393   3.645   1.388  0.8229  0.6470 -0.1098
13754TIP3   OH262752   2.402   5.256  17.006  0.3496  0.2678 -0.3806
13754TIP3    H162753   2.428   5.232  17.095 -4.5141  0.6244  1.2641
13754TIP3    H262754   2.432   5.347  16.997 -0.9402  0.9589  1.7452
13755TIP3   OH262755   3.777   3.485   3.527 -0.3884 -0.0103  0.3457
13755TIP3    H162756   3.824   3.541   3.589  0.0137 -1.3272  1.2580
13755TIP3    H262757   3.836   3.412   3.510 -1.4910 -0.9332  0.3591
13756TIP3   OH262758   0.842   4.970   1.649 -0.2563  0.0309  0.2487
13756TIP3    H162759   0.802   4.889   1.616  0.2269 -0.5206  1.0043
13756TIP3    H262760   0.851   4.955   1.743 -1.6247  1.5888  0.6571
13757TIP3   OH262761   4.643   4.452  11.387  0.2487 -0.0777 -0.7584
13757TIP3    H162762   4.626   4.359  11.403  0.1055  0.3696  1.8267
13757TIP3    H262763   4.563   4.484  11.346 -0.6723 -0.5406  0.6672
13758TIP3   OH262764   1.965   1.240  12.658 -0.0775  0.6977 -0.1317
13758TIP3    H162765   2.011   1.221  12.576  1.2970  0.8029  0.6065
13758TIP3    H262766   1.897   1.303  12.633 -0.3822 -0.1059 -1.3846
13759TIP3   OH262767   3.821   0.526   0.653 -0.2539  0.5841 -0.0628
13759TIP3    H162768   3.794   0.575   0.576  0.1043  0.4587 -0.2646
13759TIP3    H262769   3.873   0.454   0.620 -0.8893 -0.0158  0.2261
13760TIP3   OH262770   4.226   0.605  16.077 -0.0136  0.0226 -0.3621
13760TIP3    H162771   4.241   0.699  16.075 -0.9647  0.1678 -1.0539
13760TIP3    H262772   4.180   0.590  16.159  0.9948  0.0206  0.2097
13761TIP3   OH262773   5.469   0.305  15.312  0.2658 -0.2521  0.1489
13761TIP3    H162774   5.409   0.337  15.380 -0.6909  1.3873 -1.4368
13761TIP3    H262775   5.434   0.340  15.230  3.0223  0.2231 -0.8881
13762TIP3   OH262776   0.260   3.105  13.890 -0.3651  0.2699 -0.5629
13762TIP3    H162777   0.190   3.171  13.885 -1.4614 -0.9605 -1.7089
13762TIP3    H262778   0.267   3.070  13.801 -0.1327 -1.5125  0.1320
13763TIP3   OH262779   4.351   4.260  13.294 -0.3267 -0.0713  0.2177
13763TIP3    H162780   4.256   4.266  13.303 -0.6228 -0.4544 -2.2473
13763TIP3    H262781   4.366   4.257  13.199  2.2939  2.4422  0.4685
13764TIP3   OH262782   5.764   2.688  11.880  0.0462 -0.3669 -0.0793
13764TIP3    H162783   5.810   2.618  11.925 -0.1309 -0.9183 -0.7540
13764TIP3    H262784   5.711   2.730  11.948  0.0502 -0.9686  0.2922
13765TIP3   OH262785   2.237   2.375  17.096 -0.2776  0.0690 -0.0546
13765TIP3    H162786   2.245   2.460  17.052 -1.2355 -1.0652 -2.5370
13765TIP3    H262787   2.164   2.332  17.051  1.5092 -2.8600 -0.2730
13766TIP3   OH262788   3.601   1.488   5.570 -0.8644  0.0438 -0.5014
13766TIP3    H162789   3.522   1.484   5.517 -0.2912 -1.3945 -1.2788
13766TIP3    H262790   3.606   1.402   5.612 -0.4605  0.6137  0.6425
13767TIP3   OH262791   2.898   0.784   2.878  0.6176 -0.2651  0.0056
13767TIP3    H162792   2.969   0.777   2.815 -0.7932  0.6474 -1.7215
13767TIP3    H262793   2.881   0.878   2.885 -1.7961 -0.5863 -1.2010
13768TIP3   OH262794   5.964   6.611   3.576  0.3920 -0.1266  0.9578
13768TIP3    H162795   5.967   6.670   3.652  2.1712  0.6286  0.3092
13768TIP3    H262796   5.897   6.649   3.519  1.3469  1.1389  0.6597
13769TIP3   OH262797   1.353   5.974  14.599 -0.1861 -0.0207 -0.9562
13769TIP3    H162798   1.267   5.966  14.559  1.5003  0.2659 -4.8541
13769TIP3    H262799   1.377   6.066  14.588  0.3980  0.0533  0.6815
13770TIP3   OH262800   3.752   6.812   2.064 -0.4484  0.1882  0.2632
13770TIP3    H162801   3.711   6.882   2.012  0.9949  1.0459  0.2632
13770TIP3    H262802   3.824   6.855   2.110 -0.3585 -1.0355  1.2787
13771TIP3   OH262803   2.224   5.041   6.291  0.1780  0.2874  0.3294
13771TIP3    H162804   2.203   4.974   6.356  0.6494 -1.0323 -0.8454
13771TIP3    H262805   2.264   5.112   6.341  2.2928 -1.5039  1.2323
13772TIP3   OH262806   1.102   2.956  13.535 -0.5003  0.3731  0.9328
13772TIP3    H162807   1.155   3.032  13.561 -1.4227  1.1183  0.7008
13772TIP3    H262808   1.069   2.921  13.617  1.5890 -1.0445  1.2039
13773TIP3   OH262809   3.041   0.043  14.292 -0.0901 -0.3812  0.1556
13773TIP3    H162810   3.008  -0.010  14.220  1.4777 -0.1217 -0.7649
13773TIP3    H262811   3.004   0.002  14.370 -0.9577 -1.2769 -0.7086
13774TIP3   OH262812   1.997   3.239  14.613 -0.0193 -0.0504  0.0957
13774TIP3    H162813   1.915   3.276  14.646  0.6751  1.8325 -0.1973
13774TIP3    H262814   1.974   3.151  14.585 -1.9706  0.4773 -0.0617
13775TIP3   OH262815   4.279   0.023   2.112  0.4170  0.1770 -0.4564
13775TIP3    H162816   4.367  -0.001   2.144  0.3631  0.1667 -0.3168
13775TIP3    H262817   4.291   0.108   2.070  1.2753 -1.4990 -3.8158
13776TIP3   OH262818   2.223   1.323  14.656 -0.0139 -0.5734  0.3971
13776TIP3    H162819   2.127   1.320  14.649 -0.0365  3.2516 -3.8509
13776TIP3    H262820   2.254   1.270  14.583  1.0965 -0.7594  0.9935
13777TIP3   OH262821   2.621   5.356  14.027 -0.2727 -0.0147  0.3019
13777TIP3    H162822   2.681   5.281  14.028  0.9492  0.9428 -0.2949
13777TIP3    H262823   2.638   5.399  13.944 -0.4251  1.3531  0.9707
13778TIP3   OH262824   4.525   6.556  15.610 -0.3484 -0.2528 -0.3152
13778TIP3    H162825   4.563   6.472  15.637 -0.4901 -0.0806  0.4275
13778TIP3    H262826   4.571   6.621  15.663  1.1436  0.3290 -2.2612
13779TIP3   OH262827   4.035   6.808  15.881  0.8929  0.0266  0.3552
13779TIP3    H162828   4.001   6.766  15.801  1.4224  1.2111 -0.5081
13779TIP3    H262829   4.114   6.759  15.902  0.6602 -0.3988  0.2497
13780TIP3   OH262830   6.439   3.849  16.312  0.1405 -0.1496 -0.5117
13780TIP3    H162831   6.409   3.926  16.360 -1.1253 -0.6308 -0.5229
13780TIP3    H262832   6.477   3.885  16.231  1.4992  0.5965  0.4230
13781TIP3   OH262833   6.348   1.351   0.447  1.0647  0.2124  0.0454
13781TIP3    H162834   6.295   1.361   0.526  1.9507  0.0201  0.6799
13781TIP3    H262835   6.301   1.401   0.380  0.4924  0.6839  0.7834
13782TIP3   OH262836   3.783   2.306  12.448  0.2140  0.0238  0.3566
13782TIP3    H162837   3.839   2.299  12.372  0.9753  1.8896  0.7298
13782TIP3    H262838   3.695   2.319  12.413  0.6120  1.2084 -0.2014
13783TIP3   OH262839   1.174   2.422   3.897 -0.5584  0.3180  0.6246
13783TIP3    H162840   1.238   2.389   3.960 -0.5072  0.4842  0.6608
13783TIP3    H262841   1.227   2.462   3.828 -0.6410  3.1769  2.1155
13784TIP3   OH262842   0.028   5.928   2.833  0.6430 -0.4550  0.4142
13784TIP3    H162843   0.085   5.953   2.760  0.8239  0.3748  0.8239
13784TIP3    H262844   0.028   6.006   2.890 -2.0644  0.1190 -0.3002
13785TIP3   OH262845   2.981   1.032   1.071  0.3463  0.1532  0.3547
13785TIP3    H162846   2.976   1.046   0.976 -0.5781  1.4789  0.5828
13785TIP3    H262847   3.043   0.960   1.081  0.6422  0.1568 -1.2429
13786TIP3   OH262848   1.161   3.518   0.463 -0.1433  0.5174 -0.0589
13786TIP3    H162849   1.204   3.447   0.510  0.2629  0.3821 -0.6298
13786TIP3    H262850   1.090   3.546   0.520 -0.0490 -0.0760  0.3447
13787TIP3   OH262851   1.893   0.367  13.907  0.0483 -0.0806  0.1462
13787TIP3    H162852   1.961   0.429  13.934 -1.7601  2.1538 -0.2477
13787TIP3    H262853   1.839   0.355  13.985 -0.6168  0.2015 -0.2675
13788TIP3   OH262854   4.808   3.385  13.753 -0.2000 -0.1558  0.4003
13788TIP3    H162855   4.765   3.393  13.838 -1.6670 -2.2590 -0.0915
13788TIP3    H262856   4.737   3.362  13.692  1.0660 -0.2090 -1.0993
13789TIP3   OH262857   2.427   4.363   1.938  0.8119  0.6492  0.8661
13789TIP3    H162858   2.383   4.366   2.023  1.4128  1.7452  1.1423
13789TIP3    H262859   2.501   4.304   1.951 -0.6587 -1.3732  0.3433
13790TIP3   OH262860   6.506   3.101   1.280  0.0180 -1.2635 -0.0754
13790TIP3    H162861   6.472   3.190   1.285 -0.2779 -1.3555 -0.4576
13790TIP3    H262862   6.574   3.105   1.213 -1.4661 -1.7999 -1.6318
13791TIP3   OH262863   2.172   1.172   3.259  0.6500 -0.2125  0.0541
13791TIP3    H162864   2.103   1.239   3.258  0.8232 -0.0436 -0.3502
13791TIP3    H262865   2.158   1.125   3.342  2.6230  2.5287  2.0437
13792TIP3   OH262866   0.531   0.095  13.620  0.3623 -0.0407 -0.1573
13792TIP3    H162867   0.467   0.135  13.679  2.0856  0.4374  1.4132
13792TIP3    H262868   0.512   0.001  13.625 -0.4341  0.1256  0.0297
13793TIP3   OH262869   3.570   5.799   4.805 -0.5799 -0.2249  0.3782
13793TIP3    H162870   3.594   5.876   4.755 -0.5251  0.3088  1.2090
13793TIP3    H262871   3.627   5.802   4.883 -1.4728 -0.3920  1.0459
13794TIP3   OH262872   3.123   5.031  11.821 -0.6366 -0.0071  0.0600
13794TIP3    H162873   3.162   5.100  11.767 -0.0218  1.6415  2.5407
13794TIP3    H262874   3.196   4.973  11.842 -0.6241  0.0446  0.1599
13795TIP3   OH262875   1.778   1.302  14.888 -0.3567 -0.0441 -0.5814
13795TIP3    H162876   1.692   1.266  14.867 -0.3869 -0.5812  0.4222
13795TIP3    H262877   1.759   1.385  14.931 -0.3618 -0.0456 -0.5817
13796TIP3   OH262878   3.989   3.812  11.232  0.2808 -0.1775  0.2480
13796TIP3    H162879   3.996   3.771  11.318 -0.2818  0.2538  0.4951
13796TIP3    H262880   4.080   3.832  11.208  0.4617 -0.5597  0.6126
13797TIP3   OH262881   1.943   5.724  11.385 -0.5054  0.0197 -0.4077
13797TIP3    H162882   2.032   5.756  11.401  0.3990 -2.7440  0.3642
13797TIP3    H262883   1.943   5.701  11.292 -0.3878 -0.0671 -0.3864
13798TIP3   OH262884   2.729   4.677  10.980  0.2465 -0.1837  0.4933
13798TIP3    H162885   2.658   4.711  10.926  0.3441  0.1467  0.5700
13798TIP3    H262886   2.744   4.589  10.947  0.7798  0.2710 -0.4918
13799TIP3   OH262887   1.894   1.564   5.662  0.6109  0.0837  0.3311
13799TIP3    H162888   1.841   1.642   5.650 -0.3745 -0.5902  0.2538
13799TIP3    H262889   1.934   1.548   5.576 -0.9084 -0.7289 -0.2523
13800TIP3   OH262890   2.490   2.267   3.582 -0.0082 -0.1865 -0.0761
13800TIP3    H162891   2.424   2.282   3.651 -1.7202  0.9404 -1.8985
13800TIP3    H262892   2.558   2.332   3.599 -0.2921 -0.0937  0.7155
13801TIP3   OH262893   2.946   5.046  14.065 -0.0459 -0.2340  0.0199
13801TIP3    H162894   2.975   5.136  14.075 -0.7341  0.2220 -1.9686
13801TIP3    H262895   3.026   4.996  14.052  0.4625 -0.1471  2.5049
13802TIP3   OH262896   2.714   6.366   3.239 -0.8993  0.8642 -0.6509
13802TIP3    H162897   2.770   6.289   3.232 -0.3678  1.1851  0.0106
13802TIP3    H262898   2.635   6.334   3.283 -1.4573  0.3027 -2.0319
13803TIP3   OH262899   3.529   1.985   5.483  0.2814 -0.3254 -0.1563
13803TIP3    H162900   3.494   1.896   5.481 -0.2724 -0.1506  1.6450
13803TIP3    H262901   3.536   2.010   5.390  0.7079 -2.3338 -0.6859
13804TIP3   OH262902   6.788   0.391   5.366 -0.2673  0.3362 -0.4108
13804TIP3    H162903   6.874   0.350   5.355 -0.1936  0.3907 -0.0276
13804TIP3    H262904   6.726   0.321   5.346 -0.1763 -0.5640  2.2475
13805TIP3   OH262905   4.067   2.757   0.182  0.2711 -0.2338  0.1669
13805TIP3    H162906   4.135   2.721   0.125 -0.9891 -1.4170 -0.6310
13805TIP3    H262907   3.985   2.734   0.138 -0.6496  1.0269  1.1982
13806TIP3   OH262908   6.581   0.128   2.680  0.3157 -0.0598  0.4448
13806TIP3    H162909   6.626   0.140   2.763  0.9844  0.2196  0.0423
13806TIP3    H262910   6.536   0.211   2.664  1.1200  0.2821 -0.0358
13807TIP3   OH262911   4.608   5.559   3.827  0.3592 -0.3447 -0.2688
13807TIP3    H162912   4.541   5.615   3.867 -0.3112 -1.2770 -0.0948
13807TIP3    H262913   4.658   5.526   3.901 -0.4235 -1.4843 -0.2472
13808TIP3   OH262914   0.640   2.968  16.254 -0.0540 -0.2444 -0.3762
13808TIP3    H162915   0.636   3.053  16.212 -1.2973 -1.1208 -2.1079
13808TIP3    H262916   0.548   2.947  16.274  0.2498 -1.1119  0.1540
13809TIP3   OH262917   5.885   4.113  12.356 -0.4597 -0.1069 -0.3364
13809TIP3    H162918   5.811   4.062  12.323 -0.9439  0.8807 -0.7964
13809TIP3    H262919   5.961   4.080  12.308 -0.9202  0.2765 -1.3390
13810TIP3   OH262920   1.900   6.011   3.905  0.1080 -0.6301 -0.7097
13810TIP3    H162921   1.932   6.014   3.815  2.4549  1.1867  0.1261
13810TIP3    H262922   1.868   5.921   3.916 -0.0415 -0.9357 -3.2660
13811TIP3   OH262923   1.690   1.819  11.431  0.2499  0.2460  0.2268
13811TIP3    H162924   1.774   1.797  11.390 -0.5468 -0.6021 -0.9570
13811TIP3    H262925   1.631   1.837  11.358 -0.8337  0.0459  1.0342
13812TIP3   OH262926   1.996   5.590   0.728  0.0251  0.0055  0.0358
13812TIP3    H162927   2.059   5.629   0.667  0.4066  1.7307  1.4845
13812TIP3    H262928   2.007   5.640   0.809 -1.1410 -1.6240  1.2364
13813TIP3   OH262929   0.087   0.270   2.456 -0.2884 -0.7453 -0.5756
13813TIP3    H162930   0.032   0.192   2.455 -1.0700 -0.2075  0.3309
13813TIP3    H262931   0.157   0.250   2.518  0.7421 -1.5473 -1.9568
13814TIP3   OH262932   1.934   6.488  10.792 -1.2295  0.4715 -1.0148
13814TIP3    H162933   1.865   6.513  10.854  0.3532  0.7047  0.7154
13814TIP3    H262934   1.893   6.495  10.706 -2.7539  2.7148 -0.1643
13815TIP3   OH262935   4.270   1.433   0.700  0.2581  0.3734 -0.0939
13815TIP3    H162936   4.211   1.507   0.705 -0.5352 -0.0672 -2.4980
13815TIP3    H262937   4.341   1.462   0.643 -0.4641 -0.9733 -1.6991
13816TIP3   OH262938   6.371   0.656  14.739  0.3157  0.6040 -0.2686
13816TIP3    H162939   6.458   0.638  14.775  1.7105  1.4786 -3.0613
13816TIP3    H262940   6.359   0.590  14.671 -0.3983  1.6685 -1.1895
13817TIP3   OH262941   2.294   5.129   2.640  0.4157 -0.3295  0.0774
13817TIP3    H162942   2.219   5.189   2.647  0.9840  0.1233  2.8155
13817TIP3    H262943   2.259   5.053   2.594 -1.8386 -0.2446  1.5482
13818TIP3   OH262944   4.351   2.441  16.944 -0.4507 -0.3500 -0.0993
13818TIP3    H162945   4.332   2.357  16.985  0.3418  0.5123  2.1407
13818TIP3    H262946   4.430   2.425  16.892  1.5279 -0.3258  2.7706
13819TIP3   OH262947   6.465   4.485   4.367  0.4365  0.2814  0.1334
13819TIP3    H162948   6.389   4.524   4.409 -1.0874 -0.2488 -2.0421
13819TIP3    H262949   6.445   4.391   4.364  1.4389  0.0609  0.0450
13820TIP3   OH262950   1.536   6.779  11.739 -0.2042  0.1678  0.4877
13820TIP3    H162951   1.544   6.874  11.732  0.1716  0.2247  1.5867
13820TIP3    H262952   1.457   6.766  11.792  0.3617 -0.0947  1.2882
13821TIP3   OH262953   2.264   2.135  12.470 -0.1265  0.2837 -0.5543
13821TIP3    H162954   2.184   2.179  12.500  0.1264  0.5937 -0.3235
13821TIP3    H262955   2.297   2.191  12.401  2.1838  2.4762  2.1865
13822TIP3   OH262956   0.331   4.804   1.410  0.5991 -0.4414  0.5531
13822TIP3    H162957   0.242   4.834   1.394  0.7240 -0.2220  0.2703
13822TIP3    H262958   0.382   4.884   1.421  1.2085 -0.4893 -1.6479
13823TIP3   OH262959   2.593   1.120   0.366  0.4012 -0.2206  0.1816
13823TIP3    H162960   2.561   1.030   0.355  1.2842 -0.5244  0.0114
13823TIP3    H262961   2.670   1.125   0.309 -0.0122  0.8454 -0.2961
13824TIP3   OH262962   0.333   2.845  12.906 -0.4978  0.2015 -0.1810
13824TIP3    H162963   0.421   2.817  12.932 -0.4111  1.3694  0.8686
13824TIP3    H262964   0.346   2.931  12.866 -1.0001 -0.2517 -1.3219
13825TIP3   OH262965   6.159   0.188  11.243 -0.0950 -0.1444  0.2777
13825TIP3    H162966   6.127   0.260  11.189 -0.1615  0.4895  1.1496
13825TIP3    H262967   6.254   0.197  11.240 -0.0534 -0.9006 -0.7930
13826TIP3   OH262968   3.946   2.884  11.683  1.0866  0.1715  0.3567
13826TIP3    H162969   3.880   2.835  11.633  0.2551  0.4460  1.1533
13826TIP3    H262970   3.916   2.878  11.774  1.7092  1.0064  0.6266
13827TIP3   OH262971   1.868   1.491  15.278  0.0844  0.6440 -0.6689
13827TIP3    H162972   1.913   1.445  15.349  1.1783  1.7330 -0.6267
13827TIP3    H262973   1.775   1.471  15.291  0.5234 -1.4787 -0.6355
13828TIP3   OH262974   0.188   5.491  11.462  0.1567 -0.1152  0.1008
13828TIP3    H162975   0.266   5.545  11.455  0.5062 -0.5815  0.3729
13828TIP3    H262976   0.135   5.533  11.530  0.9841 -0.7948  1.1758
13829TIP3   OH262977   3.553   1.420  12.092  0.3129 -0.4654  0.0505
13829TIP3    H162978   3.608   1.466  12.155  0.6835  1.1375 -1.3983
13829TIP3    H262979   3.489   1.372  12.145  2.1747 -1.1640  1.6943
13830TIP3   OH262980   3.437   2.607   0.792  0.0963  0.2828  0.8423
13830TIP3    H162981   3.349   2.574   0.773 -0.0171 -0.0996  2.0054
13830TIP3    H262982   3.494   2.531   0.779  0.1164  0.2352  1.2015
13831TIP3   OH262983   1.773   4.177   1.478  0.0380 -0.0596  0.1189
13831TIP3    H162984   1.697   4.231   1.460  1.1078  1.2785 -0.4932
13831TIP3    H262985   1.804   4.206   1.564  1.1135  0.8970 -0.5890
13832TIP3   OH262986   5.483   6.196  12.732  0.3562 -0.3238 -0.1424
13832TIP3    H162987   5.490   6.274  12.786 -1.1306  0.5954 -1.2101
13832TIP3    H262988   5.432   6.224  12.656  2.0085 -1.6887 -1.8054
13833TIP3   OH262989   2.062   2.110   2.385 -0.7480 -0.0621 -0.2994
13833TIP3    H162990   2.033   2.021   2.365 -3.7547  0.9091 -0.5149
13833TIP3    H262991   2.058   2.115   2.481  1.2481 -0.7135 -0.1610
13834TIP3   OH262992   6.007   0.585   2.987 -0.3907  0.0570 -0.1766
13834TIP3    H162993   5.992   0.659   2.929  0.3943  0.1379 -0.2806
13834TIP3    H262994   5.947   0.599   3.060  0.6691  1.4762  0.4386
13835TIP3   OH262995   4.898   4.629  11.698 -0.3924  0.3017 -0.0248
13835TIP3    H162996   4.877   4.688  11.769  1.4052 -0.7154  1.3986
13835TIP3    H262997   4.919   4.687  11.624 -0.2272  1.4059  0.8767
13836TIP3   OH262998   6.266   0.922   0.943 -0.1098  0.0542  0.1928
13836TIP3    H162999   6.195   0.896   1.002 -0.3326 -2.1680 -1.0264
13836TIP3    H263000   6.246   0.878   0.860  1.0258  1.9203 -1.0936
13837TIP3   OH263001   4.929   4.143  12.337 -0.3515 -0.1354 -0.6633
13837TIP3    H163002   4.969   4.127  12.251  0.6470 -0.3462 -0.1740
13837TIP3    H263003   4.910   4.055  12.371 -0.0761 -0.0806 -0.3646
13838TIP3   OH263004   0.577   3.537  12.644  0.5878  0.3699  0.3705
13838TIP3    H163005   0.663   3.497  12.659  0.1339 -0.1008  1.7076
13838TIP3    H263006   0.590   3.591  12.566  1.3017 -2.1077 -1.3092
13839TIP3   OH263007   5.631   4.245   3.121 -0.2950 -0.0471  0.5373
13839TIP3    H163008   5.579   4.286   3.190 -1.2120  0.7369 -0.5923
13839TIP3    H263009   5.625   4.306   3.047  1.1549 -0.5852 -0.0505
13840TIP3   OH263010   5.798   3.372  11.988  0.2480  0.4908  0.0648
13840TIP3    H163011   5.805   3.399  11.896 -0.5642  1.3846  0.2638
13840TIP3    H263012   5.777   3.452  12.035 -1.6062 -0.3840  0.7441
13841TIP3   OH263013   3.510   4.348   5.593  0.3346 -0.4993 -0.2428
13841TIP3    H163014   3.580   4.411   5.610  0.1441 -0.3046 -0.1879
13841TIP3    H263015   3.430   4.393   5.617  0.3095 -1.2351  1.0988
13842TIP3   OH263016   0.964   4.607  12.625 -0.0630  0.0110 -0.7651
13842TIP3    H163017   0.893   4.569  12.676  0.5508 -1.2777 -0.8454
13842TIP3    H263018   0.943   4.585  12.534 -1.1958  2.3683 -1.1129
13843TIP3   OH263019   5.115   0.705   3.929 -0.4276  0.8737  0.1542
13843TIP3    H163020   5.142   0.671   4.014  0.4499  0.5266 -0.2542
13843TIP3    H263021   5.119   0.800   3.939 -0.4918  0.8336  0.5591
13844TIP3   OH263022   2.963   4.086   5.957  0.5529  0.8156 -0.2229
13844TIP3    H163023   3.010   4.045   6.030 -0.7105  0.4536  0.4045
13844TIP3    H263024   2.903   4.018   5.926 -0.9620  1.8937  0.2802
13845TIP3   OH263025   1.037   0.011  14.899  0.1688 -0.3998 -0.5535
13845TIP3    H163026   1.043   0.039  14.990  1.4540 -0.1329 -0.7088
13845TIP3    H263027   1.058  -0.083  14.902 -1.2292 -0.7332 -0.4095
13846TIP3   OH263028   6.078   5.409   2.608  0.0790 -0.2671  0.5680
13846TIP3    H163029   6.028   5.440   2.532 -2.4079  0.2657  2.3612
13846TIP3    H263030   6.087   5.315   2.593 -0.2622 -0.1486 -0.4497
13847TIP3   OH263031   1.363   4.087   4.341  0.2300 -0.8255 -0.5109
13847TIP3    H163032   1.379   4.062   4.250  0.7085 -1.0271 -0.3716
13847TIP3    H263033   1.352   4.003   4.387 -1.5713 -0.6976 -0.6629
13848TIP3   OH263034   5.349   2.119   3.682 -0.0644  0.1367  0.2434
13848TIP3    H163035   5.423   2.179   3.679 -0.1568  0.2165 -0.5507
13848TIP3    H263036   5.386   2.036   3.711  0.0788  0.5489  1.2678
13849TIP3   OH263037   3.619   3.939   3.597  0.8682 -0.1944 -0.3708
13849TIP3    H163038   3.642   3.903   3.511 -2.1294  1.5497 -2.0113
13849TIP3    H263039   3.627   4.034   3.586  2.6530 -0.0234  2.0080
13850TIP3   OH263040   3.411   6.548   4.743 -0.2233 -0.1172  0.3799
13850TIP3    H163041   3.388   6.633   4.705 -1.7953 -0.1643  1.1711
13850TIP3    H263042   3.507   6.546   4.742 -0.1941  0.8528 -1.3964
13851TIP3   OH263043   6.636   6.711  12.012  0.1781  0.4288 -0.3103
13851TIP3    H163044   6.560   6.699  11.955 -1.5607  0.5034  1.9247
13851TIP3    H263045   6.669   6.798  11.990 -1.3579  1.0576 -0.1789
13852TIP3   OH263046   2.911   0.272  12.406 -0.1560 -0.8234  0.1898
13852TIP3    H163047   2.878   0.228  12.484  0.1009 -0.1392  0.6840
13852TIP3    H263048   2.855   0.349  12.396  0.6429 -0.2015  0.4526
13853TIP3   OH263049   0.354   2.180   0.532  0.4444 -0.2012  0.2024
13853TIP3    H163050   0.429   2.142   0.579  0.0935 -1.1345  0.0026
13853TIP3    H263051   0.376   2.170   0.440  0.9661  1.3088  0.1385
13854TIP3   OH263052   3.840   3.478   1.248 -0.0156 -0.4570  0.2274
13854TIP3    H163053   3.887   3.470   1.331 -0.1801 -0.4032  0.3248
13854TIP3    H263054   3.907   3.508   1.186 -0.2132  0.8732  0.6483
13855TIP3   OH263055   0.437   0.661   5.402  0.3448 -0.0213 -0.1901
13855TIP3    H163056   0.487   0.628   5.327  0.3759 -2.1845  0.7206
13855TIP3    H263057   0.352   0.685   5.366  1.2876  1.6225 -1.3762
13856TIP3   OH263058   4.811   1.514   6.105  0.2271 -0.0450  0.0739
13856TIP3    H163059   4.862   1.486   6.029 -1.0388  1.2474 -1.2520
13856TIP3    H263060   4.817   1.440   6.166 -1.7545 -2.6088 -2.7360
13857TIP3   OH263061   1.039   6.675  14.388  0.8065  0.7387 -0.4692
13857TIP3    H163062   1.066   6.707  14.302  0.4840 -0.3052 -0.9748
13857TIP3    H263063   1.114   6.693  14.445  0.8868  1.7438 -0.8904
13858TIP3   OH263064   6.349   0.466  15.269  0.5195 -0.3844 -0.1720
13858TIP3    H163065   6.323   0.451  15.359 -0.1936  0.8984 -0.1560
13858TIP3    H263066   6.419   0.403  15.253 -0.3069 -1.5649  0.8293
13859TIP3   OH263067   2.327   0.175   3.279 -0.4555 -0.1647  0.1069
13859TIP3    H163068   2.365   0.135   3.201 -0.1477 -1.1494  0.7492
13859TIP3    H263069   2.398   0.172   3.344 -0.2263  1.9566 -0.0014
13860TIP3   OH263070   6.053   6.296   0.192 -0.0435 -0.9626  0.6887
13860TIP3    H163071   5.960   6.284   0.211 -0.0572 -3.1464 -0.5538
13860TIP3    H263072   6.057   6.312   0.098  0.7794 -0.0448  0.8683
13861TIP3   OH263073   2.110   1.108  11.524 -0.6030  0.2594 -0.2877
13861TIP3    H163074   2.205   1.100  11.535 -0.9317 -0.7503  2.0827
13861TIP3    H263075   2.089   1.194  11.560 -0.5169  0.7349 -1.3648
13862TIP3   OH263076   0.417   0.796   0.544 -0.6284  0.1042  0.0205
13862TIP3    H163077   0.407   0.861   0.474  3.0393 -0.6891 -1.3471
13862TIP3    H263078   0.468   0.841   0.611 -1.3151 -0.1933  0.7472
13863TIP3   OH263079   2.869   2.296  11.979  0.0875  0.6404 -0.1034
13863TIP3    H163080   2.921   2.238  11.924 -1.1754  0.0544 -0.7244
13863TIP3    H263081   2.868   2.379  11.932  2.5817  1.4346  1.1931
13864TIP3   OH263082   0.030   1.542   2.136  0.3495  0.0720 -0.1423
13864TIP3    H163083  -0.005   1.564   2.050 -0.2184  0.5026  0.2011
13864TIP3    H263084   0.013   1.619   2.191  0.1518 -0.4358  0.5234
13865TIP3   OH263085   3.615   3.552  14.988 -0.7061 -0.5118 -0.3438
13865TIP3    H163086   3.664   3.518  15.063  1.5797  1.4995 -0.8764
13865TIP3    H263087   3.530   3.506  14.992  0.2001 -2.0675  2.1472
13866TIP3   OH263088   0.176   6.689  11.557 -0.3601 -0.0838 -0.0248
13866TIP3    H163089   0.217   6.645  11.632 -2.0548 -0.9509  0.3954
13866TIP3    H263090   0.123   6.758  11.596 -0.5377  0.0426 -0.4850
13867TIP3   OH263091   1.715   6.455  15.211 -0.1697 -0.1834 -0.0302
13867TIP3    H163092   1.771   6.517  15.258  0.9524 -0.5079 -0.8894
13867TIP3    H263093   1.637   6.505  15.188  0.1430  0.5303  0.4373
13868TIP3   OH263094   2.515   5.862  12.599 -0.0951  0.4289  0.3866
13868TIP3    H163095   2.546   5.856  12.689  1.3258 -0.3864 -0.1332
13868TIP3    H263096   2.552   5.785  12.556 -1.0446  0.6289 -0.8095
13869TIP3   OH263097   4.099   1.912   5.252 -0.8800 -0.0528 -0.5643
13869TIP3    H163098   4.034   1.970   5.213 -0.5857  0.2596 -0.5897
13869TIP3    H263099   4.183   1.945   5.222 -0.5940  0.7685  1.0927
13870TIP3   OH263100   4.714   2.861  14.123  0.3340  0.0707 -0.1592
13870TIP3    H163101   4.650   2.863  14.052 -1.2631 -1.4570  1.2153
13870TIP3    H263102   4.790   2.816  14.085 -0.5365 -0.8053 -0.8746
13871TIP3   OH263103   2.067   4.935  13.066  0.8452  0.0529 -0.4559
13871TIP3    H163104   2.121   5.011  13.084  0.6926  0.1723 -0.4969
13871TIP3    H263105   2.090   4.872  13.135  2.2356 -0.5308 -1.4202
13872TIP3   OH263106   5.002   3.144   1.625 -0.9891  0.5467 -0.0597
13872TIP3    H163107   5.079   3.140   1.683 -0.2850  0.7287 -0.9658
13872TIP3    H263108   4.935   3.095   1.672 -0.6429  1.2594  1.2275
13873TIP3   OH263109   5.046   3.347   0.421 -0.1940  0.1273  0.2501
13873TIP3    H163110   5.014   3.369   0.508 -1.0376  1.1612 -0.3063
13873TIP3    H263111   4.971   3.364   0.363  0.1766 -1.0862 -0.6029
13874TIP3   OH263112   4.343   0.925  15.695 -0.5725  0.2281  0.1485
13874TIP3    H163113   4.336   0.892  15.605 -0.3907  1.9038 -0.4942
13874TIP3    H263114   4.328   1.019  15.687 -2.8275  0.0781  2.1916
13875TIP3   OH263115   0.199   1.854  11.964 -0.2566  0.1540 -0.0290
13875TIP3    H163116   0.226   1.933  11.917  0.2039 -0.2731 -0.4813
13875TIP3    H263117   0.274   1.796  11.959 -0.6533 -0.3805  0.1611
13876TIP3   OH263118   1.554   2.829  11.536 -0.2189 -0.2271  1.0774
13876TIP3    H163119   1.640   2.863  11.515 -1.4189  2.4085  0.2600
13876TIP3    H263120   1.545   2.842  11.630  0.1771 -0.3271  1.1298
13877TIP3   OH263121   6.712   5.033   1.242  0.3144 -0.8632 -0.1798
13877TIP3    H163122   6.679   5.043   1.152  0.6381  0.4876 -0.1518
13877TIP3    H263123   6.788   5.091   1.246  0.3500 -0.9918  0.9412
13878TIP3   OH263124   4.394   2.976  16.302  0.6530  0.2708 -0.2115
13878TIP3    H163125   4.481   2.953  16.269  0.4307 -1.7437  0.5330
13878TIP3    H263126   4.405   3.063  16.340  2.3678  0.0007 -0.0405
13879TIP3   OH263127   2.722   2.878  13.162  0.0270  0.0324 -0.7953
13879TIP3    H163128   2.752   2.954  13.113 -1.9127 -0.0443 -2.1243
13879TIP3    H263129   2.630   2.895  13.179  0.3580 -0.5187  1.7763
13880TIP3   OH263130   1.440   6.664   0.814  0.3916 -0.1272 -0.2074
13880TIP3    H163131   1.370   6.727   0.831  1.6414  1.3346 -0.3488
13880TIP3    H263132   1.405   6.606   0.747 -0.9755  0.1029  0.2968
13881TIP3   OH263133   3.337   5.860   3.943  0.1217 -0.0837  0.5298
13881TIP3    H163134   3.385   5.918   3.885  0.4354 -0.3552  0.5153
13881TIP3    H263135   3.394   5.783   3.952  0.2563  0.1234  1.5020
13882TIP3   OH263136   0.283   3.302   3.364  0.1322  1.0326 -0.1191
13882TIP3    H163137   0.217   3.366   3.336 -0.3010  0.0618 -1.3758
13882TIP3    H263138   0.275   3.300   3.459 -1.2522  1.3800 -0.2147
13883TIP3   OH263139   2.864   6.570  13.974 -0.4343  0.0287 -0.1120
13883TIP3    H163140   2.940   6.519  13.947  1.7526  1.9684  2.2502
13883TIP3    H263141   2.898   6.656  13.995 -3.7888  2.0128 -2.1850
13884TIP3   OH263142   5.942   0.273   4.242 -0.6388 -0.1555  0.0198
13884TIP3    H163143   5.879   0.337   4.207 -0.3826  0.4479  0.6436
13884TIP3    H263144   5.957   0.302   4.333  1.6173  0.5503 -0.5510
13885TIP3   OH263145   2.586   2.542   1.500  0.7231 -0.1761 -0.2946
13885TIP3    H163146   2.590   2.620   1.445 -0.6167  0.3674  0.3687
13885TIP3    H263147   2.605   2.573   1.588 -2.5638 -0.0746  0.4404
13886TIP3   OH263148   2.874   0.864  14.617  0.0661 -0.2608  0.0918
13886TIP3    H163149   2.843   0.774  14.613  0.6550 -0.5376  1.4568
13886TIP3    H263150   2.894   0.878  14.709  1.5409  0.7418 -0.3593
13887TIP3   OH263151   4.868   5.412  15.316  0.2693 -0.0577 -0.8753
13887TIP3    H163152   4.940   5.457  15.272  0.5021 -0.3209 -0.7635
13887TIP3    H263153   4.832   5.353  15.249  1.2945 -1.2302 -0.4029
13888TIP3   OH263154   5.451   5.990  11.165 -0.6959 -0.0318 -0.0205
13888TIP3    H163155   5.543   6.011  11.149 -0.6464 -0.8092 -0.7842
13888TIP3    H263156   5.404   6.071  11.144 -0.3348 -0.1085 -1.1672
13889TIP3   OH263157   2.804   5.968   5.954  0.2349 -0.6255 -0.4603
13889TIP3    H163158   2.743   6.008   5.892  0.3099 -0.6530 -0.5521
13889TIP3    H263159   2.750   5.912   6.009  0.3057 -1.3776 -1.1415
13890TIP3   OH263160   0.990   5.329  16.447  0.0775 -0.3196  0.9333
13890TIP3    H163161   1.063   5.280  16.408  0.5331  1.0968 -0.0354
13890TIP3    H263162   0.915   5.306  16.393  0.3001  0.0724  0.4502
13891TIP3   OH263163   3.757   6.346  11.055  0.5403  0.4999  0.4246
13891TIP3    H163164   3.789   6.397  10.981  0.1848 -1.7184 -1.3434
13891TIP3    H263165   3.662   6.342  11.043  0.4146  0.6060  1.3210
13892TIP3   OH263166   3.016   0.343  16.453  0.1368  1.2408  0.5145
13892TIP3    H163167   3.040   0.436  16.458 -2.5557  2.1461 -2.1383
13892TIP3    H263168   2.979   0.332  16.365 -0.0439 -2.2499  0.9573
13893TIP3   OH263169   3.105   5.188   0.606 -0.0400 -0.1387 -0.3674
13893TIP3    H163170   3.053   5.157   0.532  0.1528  0.1112 -0.6094
13893TIP3    H263171   3.075   5.136   0.680 -2.1379  1.4651 -0.0521
13894TIP3   OH263172   4.289   5.393   4.713 -0.4675 -0.2091 -0.3219
13894TIP3    H163173   4.211   5.446   4.698  0.7790  1.5835 -0.6856
13894TIP3    H263174   4.356   5.433   4.658  0.5363 -2.1598 -0.5663
13895TIP3   OH263175   2.151   5.035   3.688  0.0457 -0.2826  0.2387
13895TIP3    H163176   2.073   5.038   3.632  0.0512 -1.1936  0.1763
13895TIP3    H263177   2.224   5.049   3.627  0.1649 -2.8278 -0.2561
13896TIP3   OH263178   5.252   2.694   5.662  0.0427 -0.0054 -0.3327
13896TIP3    H163179   5.328   2.665   5.714 -1.1086  0.3238  1.5836
13896TIP3    H263180   5.245   2.629   5.593  2.0889 -0.0335 -0.5493
13897TIP3   OH263181   0.431   0.238   1.657  0.3543  0.2444 -0.2370
13897TIP3    H163182   0.405   0.151   1.687 -1.1065  0.7212 -0.0601
13897TIP3    H263183   0.422   0.293   1.735 -0.2212  0.8407 -0.7132
13898TIP3   OH263184   3.345   0.973  13.644 -0.0338  0.0355 -0.0276
13898TIP3    H163185   3.411   0.919  13.689  0.8648  1.3999  0.3442
13898TIP3    H263186   3.382   0.987  13.556 -0.2817 -0.0033 -0.1375
13899TIP3   OH263187   5.719   3.336  16.754  0.4599 -0.2256  1.3235
13899TIP3    H163188   5.775   3.270  16.713 -1.2249 -1.3433  0.7622
13899TIP3    H263189   5.780   3.394  16.800  2.2093 -0.3994 -0.6838
13900TIP3   OH263190   5.258   3.919  10.853  0.0750 -0.2464 -0.7496
13900TIP3    H163191   5.318   3.971  10.906 -1.0097  2.7986 -2.4143
13900TIP3    H263192   5.274   3.828  10.881  1.6158  0.9830  2.6083
13901TIP3   OH263193   4.386   5.593  15.643 -0.2707 -0.0288  0.2428
13901TIP3    H163194   4.424   5.679  15.630  0.2746 -0.4779 -1.1506
13901TIP3    H263195   4.353   5.567  15.557 -3.6866  0.3015  1.3824
13902TIP3   OH263196   5.495   2.060  14.164 -0.1348 -0.2121 -0.2476
13902TIP3    H163197   5.459   2.124  14.225 -0.2275 -0.4458 -0.0554
13902TIP3    H263198   5.433   1.987  14.166  0.3433 -0.6148  0.0788
13903TIP3   OH263199   6.370   5.286  13.839 -0.3751 -0.2250 -0.0572
13903TIP3    H163200   6.403   5.244  13.918  0.9495  1.2247  0.2039
13903TIP3    H263201   6.320   5.218  13.794 -0.4284 -1.3058  1.5988
13904TIP3   OH263202   4.282   5.361   5.877 -0.0666 -0.3965  0.0007
13904TIP3    H163203   4.310   5.300   5.945 -0.3732  0.3936  0.8385
13904TIP3    H263204   4.351   5.428   5.874  0.0545 -0.5396 -0.6136
13905TIP3   OH263205   4.397   4.918  12.250 -0.3983  0.1602  0.4837
13905TIP3    H163206   4.465   4.876  12.198  1.8748  2.4547  1.4813
13905TIP3    H263207   4.345   4.968  12.187  0.4016  0.4302  0.0361
13906TIP3   OH263208   3.151   4.211   3.117 -0.5204  0.0477 -0.1421
13906TIP3    H163209   3.243   4.196   3.140 -0.5196  1.5410  0.9125
13906TIP3    H263210   3.131   4.144   3.051  1.2020 -0.5428 -0.0817
13907TIP3   OH263211   2.882   5.641   4.461 -0.2652  0.2669 -0.7110
13907TIP3    H163212   2.978   5.648   4.462 -0.3519  1.4677 -0.4672
13907TIP3    H263213   2.865   5.548   4.443  0.9720 -0.4942  1.8069
13908TIP3   OH263214   6.548   0.587   2.878  0.7899 -0.1783  0.1743
13908TIP3    H163215   6.642   0.596   2.863  0.9632 -1.8115  0.2197
13908TIP3    H263216   6.540   0.566   2.971  0.3604  0.1074  0.2072
13909TIP3   OH263217   2.157   5.889  16.898 -0.4903 -0.0032 -0.0785
13909TIP3    H163218   2.116   5.949  16.837  0.4531 -1.8685 -2.6617
13909TIP3    H263219   2.113   5.805  16.883  0.2159 -0.6572  1.3383
13910TIP3   OH263220   5.739   5.425   3.184 -0.7509 -0.2566 -0.1002
13910TIP3    H163221   5.700   5.460   3.264 -1.6453  0.6209 -0.9110
13910TIP3    H263222   5.671   5.437   3.117  1.1338  1.9119 -1.6935
13911TIP3   OH263223   0.023   0.492   0.199 -0.4416 -0.5041 -0.7532
13911TIP3    H163224  -0.017   0.502   0.113  2.3864  0.9717 -1.9527
13911TIP3    H263225  -0.014   0.564   0.251  1.3159  1.4474 -2.1357
13912TIP3   OH263226   0.553   0.918   3.041  0.3648  0.0580 -0.3738
13912TIP3    H163227   0.590   0.853   3.102 -1.7251 -0.6625  0.1455
13912TIP3    H263228   0.593   1.001   3.068  1.1187 -0.5963  0.5718
13913TIP3   OH263229   6.820   4.165   2.440  0.7813 -0.0333 -0.2291
13913TIP3    H163230   6.907   4.199   2.461  0.2650  0.5327  1.0429
13913TIP3    H263231   6.827   4.070   2.453  0.7089  0.2060  1.8048
13914TIP3   OH263232   6.081   3.817  16.940  0.4752  0.4573  0.8446
13914TIP3    H163233   6.161   3.764  16.936  0.0473 -0.2683  1.7393
13914TIP3    H263234   6.017   3.760  16.983 -0.8130  0.6755 -0.7274
13915TIP3   OH263235   4.829   0.598   0.138  0.2431 -0.3381  0.3333
13915TIP3    H163236   4.891   0.595   0.066 -0.6913 -0.3620 -0.4933
13915TIP3    H263237   4.875   0.559   0.212  2.4395  2.9107  0.7518
13916TIP3   OH263238   5.729   3.901  16.639  0.3205  1.1997 -0.1759
13916TIP3    H163239   5.784   3.866  16.568 -1.8166  0.4120 -1.4954
13916TIP3    H263240   5.644   3.861  16.625 -0.3273  1.5572  2.4887
13917TIP3   OH263241   3.209   2.297   4.208  0.6539  0.0498 -0.0474
13917TIP3    H163242   3.165   2.237   4.268  0.5977  0.0147 -0.1225
13917TIP3    H263243   3.216   2.247   4.126 -0.0582  0.4080 -0.3348
13918TIP3   OH263244   0.923   6.181   1.412 -1.1323 -0.3652 -0.0665
13918TIP3    H163245   0.984   6.126   1.462 -0.5662  0.5288  0.2382
13918TIP3    H263246   0.978   6.225   1.347 -1.7149 -0.7867 -0.8657
13919TIP3   OH263247   2.639   6.144   0.237 -0.2815  0.6619  0.2674
13919TIP3    H163248   2.636   6.184   0.150 -1.1828  0.9309  0.4191
13919TIP3    H263249   2.617   6.052   0.223  1.9197  0.1660 -0.1005
13920TIP3   OH263250   5.383   4.168   2.719  0.4160 -0.1254  0.2329
13920TIP3    H163251   5.364   4.172   2.812 -0.0605  0.5030  0.1086
13920TIP3    H263252   5.300   4.145   2.678  0.3054  0.9536 -0.1586
13921TIP3   OH263253   1.854   4.747  15.249 -0.4045  0.0485 -0.3114
13921TIP3    H163254   1.807   4.819  15.209 -0.6350 -0.9180 -1.8421
13921TIP3    H263255   1.787   4.700  15.299 -0.6434 -0.1214 -0.7805
13922TIP3   OH263256   0.969   1.296   3.552 -0.3858 -0.3146 -0.3060
13922TIP3    H163257   0.981   1.275   3.645  0.4805 -1.9070 -0.7488
13922TIP3    H263258   0.898   1.360   3.550 -0.6688 -0.5606  1.4247
13923TIP3   OH263259   2.303   0.333   4.437 -0.0508  0.1360 -0.2221
13923TIP3    H163260   2.253   0.364   4.362 -0.7225 -0.6154 -0.0870
13923TIP3    H263261   2.343   0.412   4.474 -1.4638  0.7962 -0.0870
13924TIP3   OH263262   6.671   5.094  15.362  0.3678 -0.2428  0.3115
13924TIP3    H163263   6.624   5.016  15.332  0.2059 -0.1320  0.2764
13924TIP3    H263264   6.762   5.079  15.335 -0.3214  1.2602 -3.0383
13925TIP3   OH263265   5.523   1.241   6.115  0.0662 -0.5418  0.0191
13925TIP3    H163266   5.557   1.154   6.096  0.7734 -0.1591 -0.4877
13925TIP3    H263267   5.558   1.263   6.202 -0.7364 -1.0690  0.4830
13926TIP3   OH263268   2.341   0.901   3.716  0.3545 -0.3830  0.4153
13926TIP3    H163269   2.264   0.844   3.721  1.2763 -1.6298  0.7553
13926TIP3    H263270   2.361   0.922   3.807  1.5411 -1.6232  0.4509
13927TIP3   OH263271   0.025   1.425  12.889  0.0141 -0.6175 -0.2751
13927TIP3    H163272  -0.046   1.445  12.828  0.6785  1.4097 -0.4364
13927TIP3    H263273   0.021   1.330  12.900 -2.7604 -0.5398 -0.2058
13928TIP3   OH263274   5.420   4.174  11.907 -0.4336  0.0012 -0.0206
13928TIP3    H163275   5.402   4.264  11.934 -1.6743 -0.2927  0.1588
13928TIP3    H263276   5.515   4.169  11.902 -0.3350  1.1323  0.6181
13929TIP3   OH263277   0.039   2.929  16.274 -0.7740  0.4738 -0.7686
13929TIP3    H163278  -0.038   2.902  16.224  0.1594 -1.4543 -1.2284
13929TIP3    H263279   0.107   2.941  16.207  0.0777 -0.6223 -0.0946
13930TIP3   OH263280   0.162   1.847  12.265  0.3957  0.7433  0.0106
13930TIP3    H163281   0.162   1.852  12.169  1.8653 -0.3186 -0.0505
13930TIP3    H263282   0.180   1.756  12.285  1.6907  1.2667  1.3154
13931TIP3   OH263283   0.788   1.389   5.249  0.5075 -0.1049  0.0467
13931TIP3    H163284   0.734   1.461   5.282 -0.2306 -1.9721  3.0534
13931TIP3    H263285   0.863   1.432   5.208  0.4872  2.3689  2.4947
13932TIP3   OH263286   5.478   4.565  14.003  0.0411  0.8864 -0.2635
13932TIP3    H163287   5.549   4.543  13.942  0.0636  0.0638  0.0569
13932TIP3    H263288   5.450   4.653  13.976 -0.5230  0.1955 -2.0240
13933TIP3   OH263289   3.602   5.345   0.005 -0.1485 -0.4549  0.0202
13933TIP3    H163290   3.657   5.345  -0.073 -0.6563 -2.0122 -0.3569
13933TIP3    H263291   3.516   5.372  -0.026 -0.4086 -1.3046 -0.0197
13934TIP3   OH263292   1.071   5.028   2.197 -0.3988  0.3972 -0.1279
13934TIP3    H163293   1.122   4.982   2.263 -1.7487  0.0267  0.6769
13934TIP3    H263294   1.079   5.120   2.220  0.5910  0.4040 -0.4984
13935TIP3   OH263295   2.627   4.597  13.889 -0.1609 -0.0952 -0.6103
13935TIP3    H163296   2.635   4.570  13.981  0.8926  2.1623 -0.0146
13935TIP3    H263297   2.533   4.611  13.876 -0.3796 -1.0037 -0.0671
13936TIP3   OH263298   0.861   2.126   2.111 -0.2519 -0.2909 -0.0237
13936TIP3    H163299   0.833   2.103   2.200 -1.1531 -2.2547 -0.8024
13936TIP3    H263300   0.846   2.220   2.105 -3.3868 -0.6943  0.7793
13937TIP3   OH263301   0.228   0.585   6.036  0.7261  0.0395 -0.6270
13937TIP3    H163302   0.268   0.539   6.109  2.8561 -0.1495 -1.8801
13937TIP3    H263303   0.137   0.600   6.064  1.0416 -1.5111  1.3380
13938TIP3   OH263304   0.403   0.116  17.001 -0.0306 -0.6403  0.0239
13938TIP3    H163305   0.328   0.083  16.952  0.2933  0.5045 -1.2751
13938TIP3    H263306   0.472   0.126  16.935  0.4923  0.6533  0.7535
13939TIP3   OH263307   0.262   5.340  16.947  0.0229 -0.6542  0.4571
13939TIP3    H163308   0.254   5.321  16.854 -4.3573 -1.5721  0.9176
13939TIP3    H263309   0.300   5.260  16.985  1.6955 -0.3222 -0.4781
13940TIP3   OH263310   6.433   6.129   0.418  0.0886  0.0673  0.2094
13940TIP3    H163311   6.428   6.089   0.331 -0.2638 -0.6333  0.5479
13940TIP3    H263312   6.503   6.081   0.462 -1.3194 -1.1722  1.1240
13941TIP3   OH263313   3.492   3.176   6.706  0.5195 -0.2513 -0.2433
13941TIP3    H163314   3.416   3.146   6.656 -1.0417  0.7523  1.4798
13941TIP3    H263315   3.476   3.270   6.719 -0.2095 -0.8999  4.0179
13942TIP3   OH263316   3.798   0.639  17.279  0.5707 -0.0783 -0.5814
13942TIP3    H163317   3.713   0.599  17.298 -0.2677  1.3940 -1.1841
13942TIP3    H263318   3.803   0.641  17.184  1.2960 -0.1651 -0.5470
13943TIP3   OH263319   6.736   5.866  15.480 -1.0251 -0.3841  0.7215
13943TIP3    H163320   6.685   5.859  15.400 -2.2804 -0.1712  1.4886
13943TIP3    H263321   6.698   5.940  15.526  0.2103 -0.0061  1.1476
13944TIP3   OH263322   6.034   0.530  16.227 -0.4325 -0.1802  0.3922
13944TIP3    H163323   5.962   0.556  16.285  0.0030  1.0886  0.3702
13944TIP3    H263324   6.108   0.515  16.286 -0.6139 -1.1210  0.3772
13945TIP3   OH263325   4.543   4.438   1.837 -0.2043  0.3747  0.7062
13945TIP3    H163326   4.607   4.368   1.826 -0.8024 -0.1516  0.5612
13945TIP3    H263327   4.553   4.493   1.759  0.2813  0.4687  0.8325
13946TIP3   OH263328   0.008   4.926   5.672  0.2231  0.3312  0.2776
13946TIP3    H163329   0.006   4.953   5.580  2.3000 -1.1912 -0.2338
13946TIP3    H263330  -0.066   4.972   5.712 -0.2905  1.5357 -2.0004
13947TIP3   OH263331   0.835   5.858   6.478 -0.3100 -0.3365 -0.0458
13947TIP3    H163332   0.889   5.928   6.514  0.5063 -1.1647  0.3852
13947TIP3    H263333   0.831   5.793   6.548  1.3415 -1.9860 -1.4324
13948TIP3   OH263334   5.789   1.198  15.196 -0.7151  0.0245  0.1582
13948TIP3    H163335   5.749   1.129  15.143 -1.0242 -0.4279  0.9746
13948TIP3    H263336   5.849   1.242  15.136 -0.3814 -1.0629 -0.3273
13949TIP3   OH263337   1.956   3.096  13.120  0.1378 -0.5034  0.8944
13949TIP3    H163338   1.918   3.042  13.189 -3.4069  2.5127  1.4462
13949TIP3    H263339   1.931   3.052  13.039 -0.7836 -0.8637  1.3680
13950TIP3   OH263340   2.029   3.923  11.780 -0.1469  0.2158 -0.0841
13950TIP3    H163341   2.066   3.846  11.824 -0.1849  1.2738  1.8398
13950TIP3    H263342   1.982   3.969  11.848 -0.4994  1.7316 -1.3300
13951TIP3   OH263343   3.221   2.458  15.921  0.4059 -0.0479 -0.1749
13951TIP3    H163344   3.259   2.425  16.002  0.0610  0.7118  0.2997
13951TIP3    H263345   3.212   2.552  15.935 -0.3136 -0.0131 -0.8224
13952TIP3   OH263346   6.751   0.683   0.510  0.3699  0.6571 -0.1402
13952TIP3    H163347   6.779   0.775   0.514 -0.7872  1.0125  0.0689
13952TIP3    H263348   6.686   0.682   0.439 -1.4396  0.5097  1.4700
13953TIP3   OH263349   0.196   0.744   5.308  0.2694 -0.2429 -0.6054
13953TIP3    H163350   0.153   0.697   5.236 -0.4095 -1.4147  0.5337
13953TIP3    H263351   0.148   0.716   5.386 -0.0678  2.2943  0.1238
13954TIP3   OH263352   3.513   0.947   4.497  0.4838 -0.3922  0.8367
13954TIP3    H163353   3.495   0.911   4.584  1.0701 -1.3808  0.5508
13954TIP3    H263354   3.559   0.878   4.451 -0.4125 -0.1250 -0.4987
13955TIP3   OH263355   3.188   6.556  13.474 -0.2234  0.1244 -0.1223
13955TIP3    H163356   3.129   6.532  13.545 -0.3244  0.4655 -0.0894
13955TIP3    H263357   3.276   6.544  13.510 -0.2742 -0.1292 -0.0843
13956TIP3   OH263358   1.292   2.340   0.476  0.5826 -0.0693 -0.4479
13956TIP3    H163359   1.209   2.310   0.513  1.1452 -1.0313  0.0368
13956TIP3    H263360   1.352   2.268   0.489  1.0310 -0.1007 -2.4559
13957TIP3   OH263361   3.170   5.951   5.490 -0.3849 -0.0828 -0.7468
13957TIP3    H163362   3.189   5.982   5.578 -1.0390  1.1320 -1.0233
13957TIP3    H263363   3.097   5.890   5.501 -1.7640  1.5433 -0.6569
13958TIP3   OH263364   5.320   6.268  16.218 -0.1327 -0.0094 -0.2195
13958TIP3    H163365   5.401   6.308  16.248 -0.8295  1.7300 -0.5493
13958TIP3    H263366   5.273   6.340  16.174 -1.3150 -1.2663 -1.0549
13959TIP3   OH263367   3.074   4.515  10.905 -0.4293 -0.2249  0.1431
13959TIP3    H163368   3.061   4.462  10.984  0.2418 -0.1870  0.2864
13959TIP3    H263369   3.001   4.492  10.848 -0.5237 -0.7875  0.4856
13960TIP3   OH263370   1.657   4.038   5.077  0.1770 -0.1195 -0.1080
13960TIP3    H163371   1.622   3.952   5.057 -0.2323  0.0289 -0.0262
13960TIP3    H263372   1.591   4.100   5.046  0.7540  0.1882 -0.7473
13961TIP3   OH263373   1.555   6.092   5.695 -0.4838 -0.2933 -0.1699
13961TIP3    H163374   1.647   6.088   5.721 -0.6233  0.0357  0.3776
13961TIP3    H263375   1.509   6.122   5.774 -0.7592  1.9618 -1.1702
13962TIP3   OH263376   0.501   6.786  16.583  0.5760 -0.1350  0.4370
13962TIP3    H163377   0.453   6.718  16.536  0.8512  0.4247 -0.6654
13962TIP3    H263378   0.588   6.786  16.544  0.8251  0.2842  0.9914
13963TIP3   OH263379   0.258   5.771  17.255  0.0276  0.2735  0.3279
13963TIP3    H163380   0.267   5.754  17.161  1.2707  0.1838  0.4600
13963TIP3    H263381   0.333   5.825  17.278 -0.5222  0.6896  1.1895
13964TIP3   OH263382   0.315   6.576  17.144  0.0516  0.1197 -0.2233
13964TIP3    H163383   0.352   6.510  17.203 -1.1300 -0.3032  0.0460
13964TIP3    H263384   0.238   6.609  17.189 -0.2977  0.5076 -1.0880
13965TIP3   OH263385   4.606   2.208   5.650 -0.2119 -0.1017  0.5580
13965TIP3    H163386   4.554   2.276   5.605 -1.2579 -0.8173  0.6617
13965TIP3    H263387   4.581   2.215   5.742  0.7736  0.3328  0.7980
13966TIP3   OH263388   6.172   4.225  16.204  0.5591 -0.2703 -0.2717
13966TIP3    H163389   6.139   4.290  16.266  1.6935  0.3214 -0.2651
13966TIP3    H263390   6.094   4.189  16.163 -0.2257 -1.0315  1.8556
13967TIP3   OH263391   4.278   5.088   3.582 -0.7865 -0.2433 -0.3762
13967TIP3    H163392   4.312   5.008   3.622 -1.4141 -0.3297 -0.0213
13967TIP3    H263393   4.320   5.159   3.631 -0.7239 -0.3487 -0.2787
13968TIP3   OH263394   6.503   4.627  14.986 -0.1151  0.2757  0.6584
13968TIP3    H163395   6.448   4.706  14.987  0.8541  0.9996 -0.7275
13968TIP3    H263396   6.441   4.554  14.979 -0.9877  0.9736  1.0256
13969TIP3   OH263397   6.004   5.733   1.321 -0.5616 -0.5188  0.2679
13969TIP3    H163398   5.982   5.710   1.231 -2.1743 -0.0322  0.5107
13969TIP3    H263399   6.021   5.649   1.363 -1.5565 -0.9054 -0.0712
13970TIP3   OH263400   3.783   1.452  15.278 -0.5576  0.3462 -0.2020
13970TIP3    H163401   3.876   1.431  15.270 -0.2881  1.5695 -0.3398
13970TIP3    H263402   3.738   1.370  15.258  0.4590  0.0648 -1.3543
13971TIP3   OH263403   5.540   3.712   2.291  0.4886 -0.4330 -0.1391
13971TIP3    H163404   5.594   3.755   2.356 -0.3860 -0.2481  0.4764
13971TIP3    H263405   5.516   3.781   2.229  0.5985 -0.4220 -0.1685
13972TIP3   OH263406   1.337   1.061  14.013  0.4753  0.5418 -0.2659
13972TIP3    H163407   1.315   0.992  14.077  1.4973  1.8189  1.5076
13972TIP3    H263408   1.374   1.014  13.939 -2.1481 -1.1137 -0.6091
13973TIP3   OH263409   3.902   0.226  12.791 -0.1019  0.4540  0.5848
13973TIP3    H163410   3.855   0.307  12.813 -1.3071  0.3446 -1.4292
13973TIP3    H263411   3.834   0.165  12.763  1.0147 -0.4547 -0.2100
13974TIP3   OH263412   2.741   5.737  14.401  0.1741 -0.0336 -0.1059
13974TIP3    H163413   2.782   5.788  14.332 -1.3021  0.6520 -0.4922
13974TIP3    H263414   2.749   5.646  14.372 -1.0098  0.2914 -1.5062
13975TIP3   OH263415   4.311   2.936  16.615 -0.0761  0.0130  0.0730
13975TIP3    H163416   4.302   3.022  16.573  0.0728  1.2150  2.4495
13975TIP3    H263417   4.388   2.945  16.671  2.4728 -2.9796 -2.6910
13976TIP3   OH263418   5.391   0.491  12.003  0.0730  0.2148 -0.2514
13976TIP3    H163419   5.352   0.418  12.052 -1.0293  0.3762 -0.8624
13976TIP3    H263420   5.485   0.482  12.017 -0.0164 -1.6738 -0.8102
13977TIP3   OH263421   5.028   6.278   1.804  0.2561 -0.1705  0.3312
13977TIP3    H163422   5.044   6.269   1.710  0.1447  1.6394  0.1230
13977TIP3    H263423   5.111   6.311   1.840  0.6174 -1.8059  1.0340
13978TIP3   OH263424   3.928   0.486  15.498 -0.0675  0.2288  0.5999
13978TIP3    H163425   3.939   0.569  15.452 -0.6632  0.1560  0.3341
13978TIP3    H263426   3.926   0.420  15.429 -0.0664  0.0349  0.7865
13979TIP3   OH263427   2.987   2.109  11.789 -0.7187  0.1368 -0.0523
13979TIP3    H163428   2.909   2.054  11.789  0.0369 -0.9435 -0.3388
13979TIP3    H263429   3.014   2.112  11.697 -1.7513  2.4291 -0.3181
13980TIP3   OH263430   5.614   5.261   2.692  0.4662  0.4530  0.1606
13980TIP3    H163431   5.634   5.340   2.642 -0.9185  1.4978  1.2300
13980TIP3    H263432   5.699   5.233   2.727  0.8428  1.9276  0.4468
13981TIP3   OH263433   2.953   1.879  12.642 -0.4616 -0.4689  0.0751
13981TIP3    H163434   2.964   1.894  12.548 -1.6726  1.1856  0.1841
13981TIP3    H263435   2.859   1.874  12.655 -0.3437  0.4568  1.3739
13982TIP3   OH263436   3.092   0.713  15.154 -0.0305 -0.1482 -0.0753
13982TIP3    H163437   3.174   0.677  15.187  0.2784  1.5905  1.1081
13982TIP3    H263438   3.116   0.798  15.118 -1.1732 -0.0069 -0.5262
13983TIP3   OH263439   1.981   5.102  14.085 -0.2259 -0.0084  0.0708
13983TIP3    H163440   2.005   5.185  14.044  0.1894  1.0483  2.3792
13983TIP3    H263441   2.047   5.040  14.054 -0.4304  0.5539 -1.5261
13984TIP3   OH263442   5.537   1.139   3.748  0.5336 -0.5243 -0.1254
13984TIP3    H163443   5.514   1.069   3.687  3.1119 -2.0181  0.5363
13984TIP3    H263444   5.489   1.118   3.828  0.7238 -1.1212 -0.1667
13985TIP3   OH263445   1.418   4.444   0.223 -0.0085  0.3584  0.1672
13985TIP3    H163446   1.430   4.538   0.233  0.6699  0.0958  2.0629
13985TIP3    H263447   1.506   4.408   0.231  0.0282 -0.2787 -2.7634
13986TIP3   OH263448   1.612   1.327   5.327 -0.3658 -0.1590 -0.1451
13986TIP3    H163449   1.556   1.338   5.404 -1.4326  1.2905 -1.0874
13986TIP3    H263450   1.638   1.415   5.303  0.2782 -0.6218 -1.1987
13987TIP3   OH263451   5.731   3.948  13.258  0.4864  0.1605  0.1548
13987TIP3    H163452   5.731   3.907  13.345 -0.9867  2.9992  1.5697
13987TIP3    H263453   5.644   3.927  13.222 -0.0215  1.4095  0.6123
13988TIP3   OH263454   5.708   0.180  16.204 -0.4132 -0.5928 -0.1424
13988TIP3    H163455   5.751   0.123  16.141  1.8112  0.6077  0.2469
13988TIP3    H263456   5.618   0.146  16.210 -0.0026 -2.1182 -2.1990
13989TIP3   OH263457   3.378   4.064   3.530 -0.0232  0.5605  0.2705
13989TIP3    H163458   3.406   3.978   3.500  0.9574  1.0058 -0.1061
13989TIP3    H263459   3.299   4.083   3.479  0.9087  0.7533 -1.1418
13990TIP3   OH263460   6.601   5.926   1.576 -0.1578 -0.2725 -0.3583
13990TIP3    H163461   6.594   6.009   1.623  1.8090 -1.1291  1.5068
13990TIP3    H263462   6.514   5.887   1.584 -0.5287  0.6891  0.4613
13991TIP3   OH263463   6.406   5.461  10.943 -0.1445 -0.8094  0.5696
13991TIP3    H163464   6.440   5.410  11.017 -0.6378 -0.8478  0.7671
13991TIP3    H263465   6.455   5.544  10.946  0.2308 -1.0297  0.6015
13992TIP3   OH263466   2.737   3.963   4.430 -0.7800  0.0397 -0.1018
13992TIP3    H163467   2.660   3.953   4.374 -2.0893 -1.6436  1.9092
13992TIP3    H263468   2.780   4.042   4.397 -0.7630 -1.5803 -4.2769
13993TIP3   OH263469   3.640   5.345   5.789 -0.0554  0.5490 -0.0786
13993TIP3    H163470   3.640   5.419   5.849  2.5410  1.2302 -0.8671
13993TIP3    H263471   3.685   5.275   5.836 -0.3708  0.2326 -0.2400
13994TIP3   OH263472   6.676   2.867  11.887 -0.7340  0.2324 -0.0038
13994TIP3    H163473   6.603   2.824  11.930 -0.6588  0.2902  0.1849
13994TIP3    H263474   6.748   2.804  11.893 -0.4659  0.5954  0.7686
13995TIP3   OH263475   2.062   0.939  14.499 -0.1657  0.4391 -0.4995
13995TIP3    H163476   2.066   0.976  14.587  1.1756 -0.1885 -0.2784
13995TIP3    H263477   2.042   1.013  14.442  1.0672  1.2531  0.0997
13996TIP3   OH263478   0.647   5.379  16.515 -0.5867  0.0321  0.0746
13996TIP3    H163479   0.584   5.307  16.516 -1.4132  0.7469  0.5842
13996TIP3    H263480   0.598   5.454  16.548 -0.3886  1.3957 -2.6093
13997TIP3   OH263481   5.257   0.308   1.919 -0.2437 -0.1357  0.2653
13997TIP3    H163482   5.222   0.359   1.846  0.0961  0.1687  0.3178
13997TIP3    H263483   5.224   0.352   1.997  1.2206  0.8471  0.3444
13998TIP3   OH263484   6.685   4.699   1.737  0.4547  0.3167 -0.7755
13998TIP3    H163485   6.735   4.781   1.736  0.1691  0.4920 -0.7272
13998TIP3    H263486   6.595   4.726   1.753  0.2085  0.0718 -1.6730
13999TIP3   OH263487   6.658   3.384  12.461  0.3692 -0.0074 -0.0084
13999TIP3    H163488   6.579   3.352  12.505 -0.6967  1.7451 -0.6139
13999TIP3    H263489   6.698   3.444  12.524  1.0305 -0.5891  0.1408
14000TIP3   OH263490   1.855   3.166   1.710 -0.2389  0.0194  0.1951
14000TIP3    H163491   1.767   3.171   1.671 -0.7462 -2.1576  0.9651
14000TIP3    H263492   1.893   3.087   1.672  1.1579  0.6036  0.3611
14001TIP3   OH263493   4.419   6.643  13.711  0.0715  0.1142  0.6387
14001TIP3    H163494   4.403   6.570  13.771 -2.0288  0.6512  0.7663
14001TIP3    H263495   4.452   6.602  13.631 -1.2728 -1.0025  0.6390
14002TIP3   OH263496   5.426   4.379   4.991  0.1201 -0.4271 -0.3565
14002TIP3    H163497   5.512   4.420   4.980 -0.6013  1.6397  1.5068
14002TIP3    H263498   5.440   4.311   5.056  0.3967 -0.2290 -0.2095
14003TIP3   OH263499   6.014   5.920   5.149  0.3116 -0.0712 -0.2215
14003TIP3    H163500   6.052   5.944   5.233  1.5859  0.9293 -1.0670
14003TIP3    H263501   5.953   5.990   5.130  0.3309 -0.0855 -0.3350
14004TIP3   OH263502   1.413   2.436  13.673  0.0797  0.1905  0.4785
14004TIP3    H163503   1.364   2.516  13.656 -2.0615 -1.0194  0.8304
14004TIP3    H263504   1.355   2.366  13.644  2.5232 -1.2101 -1.2597
14005TIP3   OH263505   0.504   1.071  14.049 -0.2460  0.5684 -0.6824
14005TIP3    H163506   0.589   1.066  14.093 -0.8428 -1.6460  0.2700
14005TIP3    H263507   0.444   1.029  14.110 -1.6570  0.2445 -2.2880
14006TIP3   OH263508   0.361   1.279   2.330  0.4239 -0.1998  0.1407
14006TIP3    H163509   0.339   1.289   2.237  0.9168  1.0375  0.1519
14006TIP3    H263510   0.453   1.254   2.331  0.7883  1.1442  0.3475
14007TIP3   OH263511   4.763   6.009   2.457 -0.0111  0.2231  0.1298
14007TIP3    H163512   4.818   5.938   2.423 -0.8882 -0.2514 -0.3255
14007TIP3    H263513   4.718   5.969   2.532 -2.2451 -0.4145 -1.5163
14008TIP3   OH263514   1.151   4.405   4.263 -0.4299  0.1825 -0.3712
14008TIP3    H163515   1.089   4.402   4.336 -0.3040  1.6093 -0.1960
14008TIP3    H263516   1.169   4.498   4.250  1.1980 -0.1741 -0.8346
14009TIP3   OH263517   3.080   2.373  10.629 -0.6439 -0.0097 -0.5105
14009TIP3    H163518   2.986   2.356  10.630 -0.3999 -1.4929 -1.5845
14009TIP3    H263519   3.088   2.468  10.643 -2.3239  0.2696 -1.4369
14010TIP3   OH263520   1.459   6.643  15.386 -0.1094 -0.1167  0.0190
14010TIP3    H163521   1.531   6.631  15.448 -0.2755 -2.2894 -0.1778
14010TIP3    H263522   1.501   6.673  15.305  0.5110 -0.8849  0.0605
14011TIP3   OH263523   1.432   2.534  12.112  0.3807 -0.3042 -0.2332
14011TIP3    H163524   1.358   2.511  12.168  0.9366 -0.7025  0.3502
14011TIP3    H263525   1.402   2.515  12.024 -0.4957  0.2996 -0.0757
14012TIP3   OH263526   0.932   1.015   3.266  0.4863  0.1026 -0.0096
14012TIP3    H163527   0.966   0.956   3.333  1.5313  1.9323  1.1048
14012TIP3    H263528   0.914   1.097   3.312 -0.9535  0.6894 -1.5255
14013TIP3   OH263529   5.099   4.091   3.541  0.1864  0.4003 -0.2118
14013TIP3    H163530   5.019   4.085   3.487 -0.1975  1.3723  0.2404
14013TIP3    H263531   5.137   4.175   3.517  0.2797  0.6120  0.6814
14014TIP3   OH263532   2.543   4.122  11.174 -0.2134 -0.2803 -0.1064
14014TIP3    H163533   2.511   4.091  11.089 -0.5760  0.5366 -0.2743
14014TIP3    H263534   2.576   4.210  11.157  2.1517 -1.0925  0.0802
14015TIP3   OH263535   4.883   2.363  16.043  0.3998  0.2244  0.1526
14015TIP3    H163536   4.891   2.453  16.014  0.3628 -0.0793 -0.8271
14015TIP3    H263537   4.945   2.355  16.115 -0.0740  1.2035  0.6744
14016TIP3   OH263538   2.723   2.026  14.913  0.3940 -0.5076 -0.1100
14016TIP3    H163539   2.670   2.076  14.851 -1.0091 -1.5218  0.2366
14016TIP3    H263540   2.671   1.947  14.930  2.9463 -2.5219 -1.3350
14017TIP3   OH263541   0.608   6.297   4.696  0.3243  0.6286  0.2856
14017TIP3    H163542   0.583   6.386   4.721  1.2050  0.9136  0.1633
14017TIP3    H263543   0.538   6.242   4.731 -0.8459  1.4747 -0.6796
14018TIP3   OH263544   1.908   6.053   3.626  0.2213 -0.5674 -0.1598
14018TIP3    H163545   1.852   5.977   3.615 -1.0823  0.5441 -1.4975
14018TIP3    H263546   1.847   6.126   3.640  1.3663  0.4894 -0.5768
14019TIP3   OH263547   0.628   3.413   5.617 -0.5376  0.3249  0.0124
14019TIP3    H163548   0.669   3.356   5.553 -2.5875  0.1821 -1.2191
14019TIP3    H263549   0.649   3.374   5.701  1.5556  0.0978 -0.5822
14020TIP3   OH263550   5.291   1.403  13.941 -0.0679  0.0259 -0.1243
14020TIP3    H163551   5.355   1.452  13.890 -0.5681 -0.8201 -1.5896
14020TIP3    H263552   5.206   1.430  13.906 -0.4323 -0.3509  0.4533
14021TIP3   OH263553   0.617   1.111  15.789 -0.4166 -0.1709 -1.1353
14021TIP3    H163554   0.713   1.101  15.787 -0.3049 -0.8668  2.9758
14021TIP3    H263555   0.603   1.205  15.798  0.0224 -0.2594  0.7134
14022TIP3   OH263556   1.876   5.869  14.774 -0.2860  0.4533 -0.4726
14022TIP3    H163557   1.899   5.812  14.847 -0.3984  1.1349  0.0998
14022TIP3    H263558   1.784   5.889  14.786 -0.4364  0.1445 -1.0964
14023TIP3   OH263559   5.864   4.585  13.380 -0.0539 -0.0732 -0.0803
14023TIP3    H163560   5.805   4.590  13.456  1.7256  0.0174  1.3374
14023TIP3    H263561   5.848   4.499  13.343 -0.2996 -0.4872  0.9532
14024TIP3   OH263562   3.759   6.359  14.558  0.3503 -0.4181  0.2434
14024TIP3    H163563   3.811   6.433  14.525  1.9762 -1.5687  0.1715
14024TIP3    H263564   3.676   6.365  14.510  1.8902 -0.8680 -2.6037
14025TIP3   OH263565   3.075   0.831  11.573 -0.0091  0.2292  0.0727
14025TIP3    H163566   2.983   0.811  11.590 -0.3550  1.4858 -0.2596
14025TIP3    H263567   3.107   0.869  11.655 -0.1750  1.1240 -0.2767
14026TIP3   OH263568   4.950   5.513   1.547  0.2201  0.7135  0.5313
14026TIP3    H163569   5.006   5.474   1.480  0.3328 -0.3039  1.1986
14026TIP3    H263570   4.962   5.457   1.624 -1.1856  0.8830  0.8864
14027TIP3   OH263571   0.720   2.374   4.917 -0.7291 -0.2062  0.1736
14027TIP3    H163572   0.667   2.303   4.881 -1.3755 -0.0017  0.7160
14027TIP3    H263573   0.667   2.453   4.906 -1.6087 -0.3674  2.9636
14028TIP3   OH263574   4.693   1.099  13.928 -0.2873  0.0715 -0.1273
14028TIP3    H163575   4.716   1.186  13.962  0.5658 -0.4871  0.7706
14028TIP3    H263576   4.600   1.089  13.948 -0.5481  1.0532 -0.8430
14029TIP3   OH263577   1.679   0.530  15.943 -0.1645 -0.0739  0.3142
14029TIP3    H163578   1.631   0.479  16.009  0.6290 -0.7976  0.3483
14029TIP3    H263579   1.676   0.475  15.865 -2.4353  1.4644 -0.7495
14030TIP3   OH263580   2.941   2.955  15.154 -0.4871  0.0132  0.3189
14030TIP3    H163581   2.911   3.042  15.179  1.4678  0.1379  2.3623
14030TIP3    H263582   3.034   2.966  15.136 -0.1521 -1.7162  0.9405
14031TIP3   OH263583   3.502   2.670  15.921 -0.1803  0.2300 -0.3626
14031TIP3    H163584   3.536   2.591  15.965  1.0900  0.9113 -0.0994
14031TIP3    H263585   3.543   2.668  15.834 -0.6515  0.2637 -0.5858
14032TIP3   OH263586   0.011   2.682  14.238 -0.1527  0.9045 -0.0810
14032TIP3    H163587   0.035   2.768  14.203 -1.2419  1.0874 -0.3988
14032TIP3    H263588  -0.084   2.687  14.249 -0.2103 -0.2391 -0.0536
14033TIP3   OH263589   5.994   4.062   2.071 -0.3541 -0.1295  0.2643
14033TIP3    H163590   5.979   4.075   1.977  0.1284  0.6789  0.2890
14033TIP3    H263591   6.003   4.151   2.106 -2.8433 -0.2954  1.4733
14034TIP3   OH263592   6.818   3.560  10.948 -0.1124  0.3924  0.0858
14034TIP3    H163593   6.780   3.635  10.901 -0.0391  0.2617 -0.1840
14034TIP3    H263594   6.755   3.489  10.935  1.5860 -0.6959 -2.9007
14035TIP3   OH263595   4.053   2.752   4.546 -0.5720  0.3667  0.0532
14035TIP3    H163596   4.024   2.684   4.607  0.5549  2.3288  2.8589
14035TIP3    H263597   4.140   2.723   4.517 -1.0458 -0.4951 -0.5215
14036TIP3   OH263598   6.451   4.136   1.953 -0.5321  0.0537  0.9324
14036TIP3    H163599   6.400   4.215   1.972 -1.3323  0.4479 -2.4239
14036TIP3    H263600   6.532   4.169   1.913 -0.4765 -0.7673  0.3444
14037TIP3   OH263601   6.001   4.468   1.179  0.0077 -0.5043 -1.1042
14037TIP3    H163602   6.008   4.375   1.161  0.3663 -0.9192  1.0393
14037TIP3    H263603   5.965   4.473   1.268 -1.1061  1.4064 -1.6206
14038TIP3   OH263604   2.932   0.106   2.410 -1.0766  0.1503 -0.1108
14038TIP3    H163605   3.006   0.112   2.471 -0.4760  0.2018 -0.8363
14038TIP3    H263606   2.909   0.197   2.391  0.4008  0.1657 -1.9460
14039TIP3   OH263607   4.547   2.641  11.195 -0.7051  0.5819  0.2304
14039TIP3    H163608   4.517   2.564  11.147 -0.4728  1.4148 -1.3019
14039TIP3    H263609   4.642   2.631  11.199 -0.7400  0.4276  0.6751
14040TIP3   OH263610   0.210   6.554   2.266 -0.1582 -0.2697  0.0995
14040TIP3    H163611   0.226   6.471   2.310 -0.0878  0.5819  1.7053
14040TIP3    H263612   0.294   6.577   2.226  0.7358  0.6737  2.4800
14041TIP3   OH263613   5.249   2.851   3.148 -0.3025 -0.0719  0.5275
14041TIP3    H163614   5.244   2.869   3.054 -2.5295  1.9558  1.0044
14041TIP3    H263615   5.276   2.759   3.153  1.8271  0.3344 -2.0503
14042TIP3   OH263616   0.133   2.238   5.606  0.1356  0.1461  0.1045
14042TIP3    H163617   0.185   2.317   5.619  0.5222  0.0751 -0.9628
14042TIP3    H263618   0.043   2.269   5.597  0.2098  0.4116  0.2932
14043TIP3   OH263619   5.760   2.634  11.316 -0.3782  0.1304  0.4792
14043TIP3    H163620   5.775   2.723  11.349 -3.2231  2.1862 -3.3571
14043TIP3    H263621   5.677   2.608  11.354 -1.1556  0.4631 -0.9662
14044TIP3   OH263622   3.776   4.911  11.363  0.2866 -0.4155 -0.3960
14044TIP3    H163623   3.760   4.988  11.418  0.3041  0.0440 -1.0268
14044TIP3    H263624   3.823   4.945  11.286  1.1220 -1.1972 -0.2495
14045TIP3   OH263625   5.624   4.227  12.995  0.0139  0.4662  0.3266
14045TIP3    H163626   5.640   4.233  13.089 -0.3462  0.8514  0.3691
14045TIP3    H263627   5.685   4.160  12.964 -1.1860 -1.0151  1.1365
14046TIP3   OH263628   0.646   1.225   1.256  0.0176  0.2848  0.6138
14046TIP3    H163629   0.637   1.300   1.315 -0.2254  1.6553 -1.1014
14046TIP3    H263630   0.725   1.180   1.286  0.7881  1.8643  1.0166
14047TIP3   OH263631   2.133   5.646   1.012 -0.5022  0.2110  0.4463
14047TIP3    H163632   2.225   5.617   1.017 -0.3852  0.2287 -1.1714
14047TIP3    H263633   2.092   5.609   1.090  0.8642  0.1040  1.1293
14048TIP3   OH263634   5.621   2.532   1.010 -0.2148  0.6593  0.2179
14048TIP3    H163635   5.535   2.550   0.972 -0.4297 -2.8593 -1.1369
14048TIP3    H263636   5.607   2.538   1.105 -2.4132 -1.4201  0.0899
14049TIP3   OH263637   0.604   4.906   2.916  0.1589  0.0353 -0.1626
14049TIP3    H163638   0.566   4.966   2.852 -1.5287 -0.8250  0.0173
14049TIP3    H263639   0.553   4.919   2.996  1.7064  0.4889  0.7847
14050TIP3   OH263640   4.012   5.506   2.549  0.2098  0.3503  0.5496
14050TIP3    H163641   4.073   5.577   2.569 -0.0580  0.2350  1.8333
14050TIP3    H263642   3.936   5.550   2.512  1.0268  0.5002 -1.0022
14051TIP3   OH263643   5.479   1.981   3.333 -0.2600  0.5874  0.0706
14051TIP3    H163644   5.436   1.905   3.292 -0.6607  1.0796 -0.4291
14051TIP3    H263645   5.516   1.946   3.414 -2.3601  0.3273  0.9556
14052TIP3   OH263646   6.296   0.505   5.571 -0.1110  0.2093  0.3555
14052TIP3    H163647   6.389   0.521   5.585 -0.1669  1.4876 -0.5677
14052TIP3    H263648   6.290   0.482   5.478 -0.3181 -3.2498  1.1564
14053TIP3   OH263649   5.374   1.168  15.643  0.5436  0.5011  0.0047
14053TIP3    H163650   5.279   1.167  15.628  0.7865  0.2345 -1.6740
14053TIP3    H263651   5.388   1.105  15.714 -0.6300  1.2840  0.9428
14054TIP3   OH263652   6.371   1.980  14.725 -0.9551  0.4394 -0.1383
14054TIP3    H163653   6.359   2.069  14.756  0.9451  0.5485  0.3164
14054TIP3    H263654   6.449   1.984  14.669  0.0473 -1.2088  1.1035
14055TIP3   OH263655   1.187   2.829  16.260 -0.0548  0.1510  0.3466
14055TIP3    H163656   1.252   2.771  16.219  0.5198  0.7276  0.4466
14055TIP3    H263657   1.224   2.916  16.253 -1.4330  0.6613 -0.8032
14056TIP3   OH263658   6.195   5.581  12.124 -0.0389  0.0784  0.6105
14056TIP3    H163659   6.125   5.547  12.179 -1.5542  0.8608 -0.7957
14056TIP3    H263660   6.165   5.668  12.098  0.3791 -0.4969 -1.9137
14057TIP3   OH263661   4.910   6.124  17.273  0.3068 -0.0836  0.1473
14057TIP3    H163662   4.994   6.110  17.230 -0.3987 -2.7900 -0.4613
14057TIP3    H263663   4.850   6.147  17.202  0.5598  2.1675  0.6212
14058TIP3   OH263664   5.297   4.749  12.362  0.5924  0.2220  0.3284
14058TIP3    H163665   5.259   4.836  12.355 -1.8632 -0.6994  1.5568
14058TIP3    H263666   5.297   4.729  12.455  2.0562 -0.6973  0.1506
14059TIP3   OH263667   2.705   2.371   3.070 -0.3973 -0.0431  0.4223
14059TIP3    H163668   2.762   2.404   3.001  0.6575  2.3546  2.3850
14059TIP3    H263669   2.623   2.419   3.059 -1.0847 -1.3747 -0.5645
14060TIP3   OH263670   4.713   3.172  16.576  0.5645 -0.2142  0.3856
14060TIP3    H163671   4.655   3.116  16.627 -0.1028  2.2292  2.4237
14060TIP3    H263672   4.777   3.204  16.640  1.7809  0.2235 -1.0304
14061TIP3   OH263673   3.031   1.814   5.607  0.6444  0.2291  0.5410
14061TIP3    H163674   3.006   1.740   5.662  1.3949  0.3837  1.0966
14061TIP3    H263675   3.077   1.775   5.533  2.8775  0.2660  1.8682
14062TIP3   OH263676   0.159   4.278   5.335 -0.6243 -0.2049  0.2417
14062TIP3    H163677   0.086   4.258   5.393 -1.3019  1.2283 -0.0849
14062TIP3    H263678   0.119   4.318   5.258  0.5094  0.9380  0.2177
14063TIP3   OH263679   4.894   4.682  14.905  0.1080  0.3949  0.5544
14063TIP3    H163680   4.864   4.604  14.952 -0.8188  1.3415  1.5369
14063TIP3    H263681   4.835   4.689  14.830  1.3922 -0.9341 -0.6199
14064TIP3   OH263682   3.430   5.212   4.893  0.0720  0.2470  0.3117
14064TIP3    H163683   3.502   5.172   4.844  0.3657 -1.8975  2.3910
14064TIP3    H263684   3.470   5.241   4.975 -1.3780 -0.7951  1.4147
14065TIP3   OH263685   2.146   6.161   0.804 -0.0330  0.7017 -0.3028
14065TIP3    H163686   2.203   6.237   0.816  1.0602 -0.2305  0.5921
14065TIP3    H263687   2.201   6.086   0.826 -0.9860 -0.3876 -1.5182
14066TIP3   OH263688   3.081   5.358  16.668  0.0244 -0.2096  0.5866
14066TIP3    H163689   3.121   5.294  16.609  0.7501  0.1343  0.6956
14066TIP3    H263690   3.057   5.307  16.745 -1.0796 -0.6932 -0.0647
14067TIP3   OH263691   3.543   2.914  14.420  0.0694 -0.2602  0.5301
14067TIP3    H163692   3.568   2.966  14.496  0.0688 -1.2369  1.2073
14067TIP3    H263693   3.598   2.947  14.349  1.8906 -1.0685  1.5425
14068TIP3   OH263694   2.190   4.498  17.063 -0.2173 -0.4274  0.3999
14068TIP3    H163695   2.230   4.483  17.148 -0.9700 -1.1472  0.6230
14068TIP3    H263696   2.141   4.580  17.073  0.1463 -0.2239  0.4991
14069TIP3   OH263697   6.026   5.997   3.799 -0.1822 -0.1098  0.5074
14069TIP3    H163698   6.088   5.970   3.732 -2.1834 -0.9427 -1.0462
14069TIP3    H263699   6.080   6.010   3.877  2.2917  1.6855 -1.4242
14070TIP3   OH263700   3.863   0.138  14.232 -0.3520 -0.6238 -0.8925
14070TIP3    H163701   3.799   0.157  14.300  1.8972  1.1457  0.8324
14070TIP3    H263702   3.947   0.164  14.270  1.1368 -0.7337 -3.9081
14071TIP3   OH263703   5.452   4.900  16.511  0.3088 -0.2928  0.6227
14071TIP3    H163704   5.499   4.949  16.578 -0.6928  1.8013 -0.1652
14071TIP3    H263705   5.367   4.880  16.551 -0.5562  1.5712 -0.2496
14072TIP3   OH263706   5.281   3.400  16.504  0.1159 -0.2648  0.3850
14072TIP3    H163707   5.330   3.354  16.572 -1.9279 -1.6939  0.9340
14072TIP3    H263708   5.307   3.491  16.513  3.2363 -1.0718  0.1458
14073TIP3   OH263709   3.164   1.845  11.877 -0.1428 -0.4689  0.2259
14073TIP3    H163710   3.132   1.835  11.788 -1.7655 -1.5140  0.9069
14073TIP3    H263711   3.114   1.782  11.929  0.3238  0.5502  1.9913
14074TIP3   OH263712   5.387   6.244   1.078  0.9720 -0.7338 -0.2943
14074TIP3    H163713   5.294   6.268   1.081  1.1324 -0.0926 -0.4670
14074TIP3    H263714   5.392   6.177   1.010  0.8153  0.0386 -1.0827
14075TIP3   OH263715   5.472   4.887  14.618 -0.0856  0.0707  0.1243
14075TIP3    H163716   5.556   4.922  14.589  1.1213 -0.3345  2.9540
14075TIP3    H263717   5.434   4.846  14.540  3.3305 -1.7109 -0.6864
14076TIP3   OH263718   6.017   4.210   0.093 -0.4445 -0.0553  0.3983
14076TIP3    H163719   6.019   4.283   0.032 -0.7622 -0.0906  0.3456
14076TIP3    H263720   5.988   4.135   0.041  1.7628 -0.6675 -0.0050
14077TIP3   OH263721   2.913   3.980   5.556 -0.3579 -0.4998  0.1233
14077TIP3    H163722   2.962   4.053   5.595 -2.1788  0.9265 -0.1249
14077TIP3    H263723   2.957   3.962   5.474  0.3919  0.0236  0.4007
14078TIP3   OH263724   3.159   5.074  15.675 -0.5206 -0.0486 -0.4370
14078TIP3    H163725   3.209   5.094  15.754 -1.3125 -0.6681  0.2254
14078TIP3    H263726   3.218   5.096  15.603  1.1280 -1.8444  0.3276
14079TIP3   OH263727   0.628   5.589   0.359 -0.4102 -0.1133  0.0783
14079TIP3    H163728   0.679   5.615   0.436 -3.8613  0.1455  2.3706
14079TIP3    H263729   0.656   5.499   0.341  2.7814  0.9123 -0.4572
14080TIP3   OH263730   6.300   5.063   3.699 -0.6957 -0.0660 -0.0303
14080TIP3    H163731   6.242   5.136   3.720 -1.3666 -0.5847 -0.0574
14080TIP3    H263732   6.318   5.022   3.783  1.6298  1.5641  0.2928
14081TIP3   OH263733   5.682   0.083  16.710 -0.1546  0.0672 -0.1054
14081TIP3    H163734   5.614   0.042  16.656 -1.2434  0.7936  0.6895
14081TIP3    H263735   5.714   0.157  16.658  0.8868 -0.9814 -0.9843
14082TIP3   OH263736   0.857   0.449   1.691 -0.1790 -0.1967  0.4186
14082TIP3    H163737   0.799   0.525   1.687 -1.2202 -1.0499 -1.4589
14082TIP3    H263738   0.945   0.486   1.692 -0.7065  1.0690  1.1513
14083TIP3   OH263739   4.167   1.973   2.605  0.2994  0.0030  0.0929
14083TIP3    H163740   4.248   1.979   2.656  0.0615 -1.2149  0.6065
14083TIP3    H263741   4.196   1.951   2.516  0.6261  0.9906 -0.0565
14084TIP3   OH263742   2.529   5.006   2.812  0.3908  0.5529 -0.3896
14084TIP3    H163743   2.474   4.948   2.758  1.6187  2.0114 -3.3302
14084TIP3    H263744   2.598   4.949   2.846 -1.8565 -0.9227  1.8382
14085TIP3   OH263745   1.895   2.383   2.752 -0.0803  0.0243 -0.2128
14085TIP3    H163746   1.966   2.319   2.755 -0.6782 -0.6014  1.0192
14085TIP3    H263747   1.868   2.392   2.843 -3.5475 -1.9788 -0.9629
14086TIP3   OH263748   5.354   1.781   3.211 -0.7575  0.1742  0.8989
14086TIP3    H163749   5.258   1.783   3.219 -0.9286 -2.3244 -0.2005
14086TIP3    H263750   5.377   1.689   3.217  1.4816  0.6167 -0.2961
14087TIP3   OH263751   5.269   5.425  16.012  0.2222 -0.1892 -0.3875
14087TIP3    H163752   5.341   5.364  15.997  0.2267 -1.3575  3.6621
14087TIP3    H263753   5.287   5.499  15.955  3.4628 -1.3920 -1.0303
14088TIP3   OH263754   3.708   6.506   4.749  0.7741  0.0836  0.2663
14088TIP3    H163755   3.768   6.534   4.818  1.9315  0.3040 -0.8096
14088TIP3    H263756   3.708   6.410   4.755 -1.0084  0.1714  2.1200
14089TIP3   OH263757   1.375   0.586  12.691 -0.5752 -0.1417 -0.9458
14089TIP3    H163758   1.460   0.597  12.733 -0.6185 -0.9527 -0.6278
14089TIP3    H263759   1.394   0.543  12.608 -0.6965 -0.5981 -0.7408
14090TIP3   OH263760   0.739   3.880  15.719 -0.0678  0.4137  0.3772
14090TIP3    H163761   0.697   3.868  15.805  1.7296 -0.2144  1.1974
14090TIP3    H263762   0.829   3.906  15.740  0.3622  0.3505 -1.3277
14091TIP3   OH263763   4.319   1.571  15.915  1.0133  0.0002  0.3287
14091TIP3    H163764   4.265   1.526  15.981 -0.8004  1.6655  0.0380
14091TIP3    H263765   4.375   1.503  15.879 -1.5467 -2.0249  0.0111
14092TIP3   OH263766   1.303   2.720   6.028 -0.1198  0.4311  0.1605
14092TIP3    H163767   1.353   2.640   6.010 -0.6854  0.0282  0.3804
14092TIP3    H263768   1.362   2.791   6.002  0.1378 -0.0668 -0.6438
14093TIP3   OH263769   3.412   1.323  16.921  0.4467 -0.9075 -0.4189
14093TIP3    H163770   3.348   1.253  16.929  0.8691 -1.0598  1.8933
14093TIP3    H263771   3.461   1.302  16.842 -1.1460 -1.7750 -1.1937
14094TIP3   OH263772   6.212   2.461   1.498  0.1518 -0.1705  0.7593
14094TIP3    H163773   6.293   2.508   1.481 -0.4864 -0.2933 -2.9095
14094TIP3    H263774   6.158   2.523   1.547  1.5065  0.7964  1.0420
14095TIP3   OH263775   5.998   6.786   5.678 -0.5348 -0.2306  0.0033
14095TIP3    H163776   5.921   6.744   5.640 -0.7786  1.4003 -1.3420
14095TIP3    H263777   5.966   6.827   5.758 -1.1002  0.4753 -0.5728
14096TIP3   OH263778   2.123   0.901  16.914 -0.3940  0.6149  0.2467
14096TIP3    H163779   2.141   0.988  16.878  2.3114  0.2894  0.7426
14096TIP3    H263780   2.097   0.849  16.838  2.7552  0.6120 -0.9027
14097TIP3   OH263781   5.566   3.922  11.404  0.0723 -0.2344  0.4553
14097TIP3    H163782   5.600   3.993  11.351  0.6384 -0.5309  0.4214
14097TIP3    H263783   5.536   3.857  11.341 -1.0792  0.2609  0.4722
14098TIP3   OH263784   4.997   2.812   2.992  0.7171  0.4838 -0.0215
14098TIP3    H163785   4.902   2.822   2.991  0.7031  0.4113  0.4408
14098TIP3    H263786   5.013   2.742   3.054  1.1085  0.8753  0.3251
14099TIP3   OH263787   5.624   6.246  11.145  0.4436  0.1767  0.2391
14099TIP3    H163788   5.652   6.205  11.064 -0.0355 -0.6040  0.4540
14099TIP3    H263789   5.547   6.297  11.121  1.8882  2.1646 -0.3133
14100TIP3   OH263790   3.366   3.215   4.600  0.4599 -0.3311 -0.3077
14100TIP3    H163791   3.315   3.135   4.610 -1.9776  1.2840  0.8187
14100TIP3    H263792   3.436   3.208   4.665  0.2226 -1.5211 -0.1732
14101TIP3   OH263793   1.818   2.729  11.398  0.7674 -0.0300 -0.3635
14101TIP3    H163794   1.894   2.685  11.361  1.1513  0.3914 -0.0729
14101TIP3    H263795   1.787   2.786  11.328  1.2471  0.4592 -0.1749
14102TIP3   OH263796   1.278   6.033   1.680 -0.3724 -0.5955  0.2235
14102TIP3    H163797   1.245   5.944   1.670 -0.8910 -0.3543 -0.2543
14102TIP3    H263798   1.210   6.088   1.640 -1.1724  0.1818  2.5720
14103TIP3   OH263799   2.485   3.552   6.065  0.6408  0.3297 -0.3501
14103TIP3    H163800   2.528   3.596   6.138  0.5063 -0.9258  0.5025
14103TIP3    H263801   2.432   3.483   6.106 -0.7020  0.6409 -1.5166
14104TIP3   OH263802   1.042   0.054   0.796  0.1102 -0.2096 -0.4384
14104TIP3    H163803   1.102   0.114   0.841 -2.1808  1.0753  1.0353
14104TIP3    H263804   1.020  -0.012   0.862  0.5377 -1.1594 -1.2289
14105TIP3   OH263805   6.568   5.742   5.277 -0.7206  0.7343 -0.0896
14105TIP3    H163806   6.564   5.837   5.276  0.5770  0.8201  0.9006
14105TIP3    H263807   6.589   5.717   5.188 -0.3019  1.4223 -0.1860
14106TIP3   OH263808   4.758   2.652  13.202 -0.3125  0.1026  0.3813
14106TIP3    H163809   4.776   2.560  13.222  1.7223  0.6750  1.3142
14106TIP3    H263810   4.756   2.695  13.287 -2.4738  0.7415  0.0303
14107TIP3   OH263811   3.803   5.078   0.634  0.1300 -0.4663 -0.2703
14107TIP3    H163812   3.812   5.132   0.556  0.4707 -1.2234 -0.7646
14107TIP3    H263813   3.890   5.079   0.674 -0.6888  2.0896  1.5707
14108TIP3   OH263814   4.776   5.188  13.874  0.0534  0.4363 -0.2648
14108TIP3    H163815   4.826   5.112  13.902  0.1105  0.2911 -0.7477
14108TIP3    H263816   4.773   5.181  13.778 -3.0670 -0.9544 -0.1267
14109TIP3   OH263817   3.548   3.587   5.273 -0.0076  0.2601 -0.3282
14109TIP3    H163818   3.523   3.495   5.268 -1.1060  0.6377 -2.3211
14109TIP3    H263819   3.642   3.587   5.257  0.2350 -0.6295  1.0553
14110TIP3   OH263820   6.767   6.553   2.217  0.1506 -0.6885  0.3727
14110TIP3    H163821   6.762   6.540   2.312  1.3532  1.0615  0.6844
14110TIP3    H263822   6.861   6.557   2.198 -0.0976 -0.0866 -0.7657
14111TIP3   OH263823   6.554   4.444  14.078  0.0212 -0.0884  0.2944
14111TIP3    H163824   6.465   4.438  14.045  0.8996 -2.3286 -1.8427
14111TIP3    H263825   6.545   4.434  14.173 -1.9156 -1.7262 -0.0172
14112TIP3   OH263826   4.222   5.973  11.801  0.2544 -0.1092 -0.2386
14112TIP3    H163827   4.224   5.895  11.745  2.6512  0.2726 -0.7015
14112TIP3    H263828   4.212   6.046  11.740  1.8173  0.2288 -0.1055
14113TIP3   OH263829   3.364   0.065  17.121 -0.0917 -0.1633  0.0557
14113TIP3    H163830   3.460   0.063  17.122 -0.1092 -1.0534  0.0946
14113TIP3    H263831   3.339   0.023  17.203 -0.5110  0.4451  0.2393
14114TIP3   OH263832   4.222   1.528  15.414  0.1232 -0.3008 -0.0841
14114TIP3    H163833   4.220   1.559  15.323  2.7323 -1.1414 -0.4612
14114TIP3    H263834   4.296   1.574  15.454  0.1607 -1.3500  1.0921
14115TIP3   OH263835   1.507   3.910  10.576  0.0867  0.1237  0.3184
14115TIP3    H163836   1.485   3.852  10.649  0.8863  2.1943  2.2624
14115TIP3    H263837   1.473   3.864  10.499 -0.4338 -2.3098  1.9087
14116TIP3   OH263838   3.198   1.513  12.654 -0.3060  0.1800 -0.4546
14116TIP3    H163839   3.142   1.487  12.580 -0.0854  0.0029 -0.5585
14116TIP3    H263840   3.266   1.568  12.615 -0.5725  0.6334 -0.2855
14117TIP3   OH263841   1.146   2.889  13.854 -0.2031 -0.0185  0.4711
14117TIP3    H163842   1.194   2.809  13.878  1.5089  0.8197 -0.0744
14117TIP3    H263843   1.097   2.911  13.933  0.2537 -0.9448  1.0307
14118TIP3   OH263844   0.282   2.763  11.346 -0.4731  0.4908  0.0622
14118TIP3    H163845   0.338   2.830  11.306  0.9053 -0.5125  0.2438
14118TIP3    H263846   0.233   2.810  11.413 -0.7679  1.6400 -0.9382
14119TIP3   OH263847   5.790   3.190  14.096 -0.7856  0.0584  0.1809
14119TIP3    H163848   5.752   3.244  14.165 -1.0267 -0.9830  0.8783
14119TIP3    H263849   5.740   3.212  14.017 -0.1076  1.6931  0.1928
14120TIP3   OH263850   4.374   4.345  11.235 -0.2977  0.4809 -0.2622
14120TIP3    H163851   4.448   4.292  11.203  0.3832  1.4458 -0.2994
14120TIP3    H263852   4.326   4.285  11.293 -1.2378 -1.1228 -2.6173
14121TIP3   OH263853   6.342   5.581   1.018  0.6584  0.2328  0.0430
14121TIP3    H163854   6.386   5.638   0.954  2.8583  0.5377  1.7490
14121TIP3    H263855   6.406   5.573   1.089 -1.9617  0.3709  2.4618
14122TIP3   OH263856   6.719   3.207   3.079 -0.2237  0.0275 -0.2128
14122TIP3    H163857   6.786   3.274   3.092 -0.5764  0.2965  0.2243
14122TIP3    H263858   6.758   3.146   3.017 -0.5584  1.5622 -1.9879
14123TIP3   OH263859   5.768   4.144  16.549 -0.3060 -0.2975  0.1994
14123TIP3    H163860   5.750   4.064  16.598 -1.1667  1.4675  2.8906
14123TIP3    H263861   5.779   4.115  16.458 -1.9404 -3.2774  0.8914
14124TIP3   OH263862   5.041   6.156  14.261  0.2026 -0.5001 -0.1384
14124TIP3    H163863   4.975   6.226  14.266 -0.3862 -1.0355 -0.2647
14124TIP3    H263864   5.125   6.202  14.264 -0.1738  0.1170  1.1176
14125TIP3   OH263865   5.044   4.449   2.444  0.3334 -0.3895  0.3324
14125TIP3    H163866   4.956   4.411   2.439 -0.3264  1.3403 -1.7488
14125TIP3    H263867   5.030   4.541   2.464  1.5007  0.5630 -2.9634
14126TIP3   OH263868   4.166   1.248  13.308 -0.2515 -0.0338  0.4684
14126TIP3    H163869   4.216   1.240  13.228 -0.8935  1.6861 -0.1253
14126TIP3    H263870   4.087   1.197  13.292 -0.4264  0.3920 -0.0336
14127TIP3   OH263871   1.280   1.614   4.665 -0.0397  0.3597 -0.2626
14127TIP3    H163872   1.269   1.523   4.638 -0.0719 -0.2325  1.6765
14127TIP3    H263873   1.364   1.640   4.629  0.3627 -0.7167 -0.1147
14128TIP3   OH263874   1.911   2.397  11.187  0.3200  0.1705 -0.5503
14128TIP3    H163875   1.906   2.420  11.094  1.3469  0.2798 -0.5798
14128TIP3    H263876   1.946   2.475  11.229  0.1718  0.0041 -0.1130
14129TIP3   OH263877   4.688   5.723  10.959 -0.1239  0.3445 -0.5754
14129TIP3    H163878   4.783   5.709  10.965 -0.3642 -1.7198 -1.0885
14129TIP3    H263879   4.679   5.817  10.941  1.8437  0.4943 -0.9638
14130TIP3   OH263880   6.492   1.755  14.370  0.4413  0.6639  0.1788
14130TIP3    H163881   6.539   1.838  14.381  1.2014  0.1533  0.8731
14130TIP3    H263882   6.531   1.697  14.435  0.8776 -0.6659 -1.2462
14131TIP3   OH263883   0.871   4.512  13.883 -0.0633 -0.0898  0.4320
14131TIP3    H163884   0.802   4.449  13.863  1.4432 -1.8355  0.6072
14131TIP3    H263885   0.923   4.516  13.802  1.4340 -1.1735  1.3188
14132TIP3   OH263886   5.786   2.900   0.985 -0.0804  0.7835  0.7072
14132TIP3    H163887   5.821   2.851   1.060 -0.3837  1.5861  1.3766
14132TIP3    H263888   5.863   2.926   0.935  0.1471  0.6100  0.9678
14133TIP3   OH263889   4.025   1.068   3.054 -0.2995  0.3340  0.1094
14133TIP3    H163890   4.005   1.153   3.012 -1.4564  0.1296  0.2166
14133TIP3    H263891   4.078   1.022   2.990 -0.4648  0.7712 -0.3491
14134TIP3   OH263892   1.395   0.660   1.295 -0.3597 -0.0885 -0.2357
14134TIP3    H163893   1.328   0.628   1.235  0.0777 -2.0938  0.2989
14134TIP3    H263894   1.358   0.647   1.382  0.6974 -1.1760  0.0625
14135TIP3   OH263895   0.464   0.827   6.364 -0.1630 -0.0635 -0.0678
14135TIP3    H163896   0.551   0.837   6.403 -0.3894  1.2350  0.1182
14135TIP3    H263897   0.458   0.898   6.299 -0.9139 -0.4113 -0.3891
14136TIP3   OH263898   6.648   6.336  11.306  0.3719 -0.7568 -0.3323
14136TIP3    H163899   6.606   6.421  11.289  2.1704  0.4359  0.9791
14136TIP3    H263900   6.624   6.316  11.396  0.2030 -1.5103 -0.5423
14137TIP3   OH263901   1.786   0.258  14.133 -0.5766 -0.1451 -0.3963
14137TIP3    H163902   1.854   0.242  14.197  0.0183 -0.8341 -1.1910
14137TIP3    H263903   1.721   0.311  14.179  0.0751 -0.2260  0.6169
14138TIP3   OH263904   2.334   4.013   2.073  0.2706  0.3622  0.8339
14138TIP3    H163905   2.387   4.083   2.036  1.7198 -1.4214 -0.5824
14138TIP3    H263906   2.310   3.959   1.998 -1.1162 -0.4779  1.8558
14139TIP3   OH263907   2.841   3.192   4.654  0.2850 -0.1558  0.1785
14139TIP3    H163908   2.826   3.232   4.740  0.6177  0.4784 -0.0558
14139TIP3    H263909   2.754   3.185   4.615  0.0939 -0.7453  0.6931
14140TIP3   OH263910   1.557   1.506   0.048 -0.1644  0.0758  0.0973
14140TIP3    H163911   1.515   1.459   0.120 -0.3250 -1.2925 -0.8813
14140TIP3    H263912   1.650   1.510   0.073  0.0290 -1.6600 -0.2893
14141TIP3   OH263913   1.183   3.811   0.958  0.1783 -0.1891  0.9723
14141TIP3    H163914   1.210   3.729   0.998 -2.5510 -0.8466  1.5481
14141TIP3    H263915   1.204   3.800   0.865  2.1099 -0.5090  1.4104
14142TIP3   OH263916   3.746   1.138   0.167  0.3754  0.2558 -0.0609
14142TIP3    H163917   3.718   1.047   0.160  2.3149 -0.4725  1.3727
14142TIP3    H263918   3.783   1.146   0.254  0.5147  2.3564 -0.2815
14143TIP3   OH263919   4.116   0.188  13.591 -0.6818  0.3353  0.3879
14143TIP3    H163920   4.029   0.229  13.591 -1.7163 -1.7889 -0.2656
14143TIP3    H263921   4.127   0.154  13.503  0.0132 -1.0459  0.9889
14144TIP3   OH263922   4.555   5.818  13.056  0.2498 -0.3006 -0.0612
14144TIP3    H163923   4.490   5.752  13.031 -0.9627  0.5285  0.7820
14144TIP3    H263924   4.507   5.901  13.051  1.1560  0.2944  0.9304
14145TIP3   OH263925   4.410   2.675  16.452  0.0417  0.1739 -0.2634
14145TIP3    H163926   4.355   2.735  16.503 -0.1574  0.1724 -0.4777
14145TIP3    H263927   4.359   2.655  16.374 -0.8614 -2.0735  0.8571
14146TIP3   OH263928   0.545   2.964  13.207  0.6163  0.0513  0.4769
14146TIP3    H163929   0.467   2.951  13.262 -0.4467  1.1103 -0.7308
14146TIP3    H263930   0.583   2.877  13.197 -2.3122 -1.0915 -1.6396
14147TIP3   OH263931   2.410   2.999  16.620 -0.4218 -0.0371  0.0514
14147TIP3    H163932   2.398   2.904  16.614 -0.9588 -0.0622  1.3872
14147TIP3    H263933   2.358   3.034  16.548 -1.3092 -0.6827  0.3752
14148TIP3   OH263934   1.745   2.479  13.387 -0.2857  0.2529 -0.6112
14148TIP3    H163935   1.781   2.405  13.338  0.9592 -0.0341  0.6901
14148TIP3    H263936   1.701   2.439  13.462 -0.6563  0.7700 -0.5501
14149TIP3   OH263937   0.142   2.869   4.643  0.7759  0.5126  0.1777
14149TIP3    H163938   0.120   2.800   4.706  0.5889 -1.3654 -1.8582
14149TIP3    H263939   0.061   2.920   4.634  0.8538  0.8789  1.5546
14150TIP3   OH263940   2.809   0.112   6.871  0.0992  0.3462  0.4201
14150TIP3    H163941   2.815   0.086   6.779 -0.1964 -1.5925  0.9316
14150TIP3    H263942   2.744   0.053   6.909 -0.0763  1.3892  1.7876
14151TIP3   OH263943   3.650   0.466   2.608  0.3318 -0.0907  0.6405
14151TIP3    H163944   3.711   0.540   2.606 -0.5118  0.5886 -0.1499
14151TIP3    H263945   3.662   0.423   2.523 -0.5872  0.2967  0.3068
14152TIP3   OH263946   3.259   2.522   1.324  0.0557 -0.3729 -0.8179
14152TIP3    H163947   3.250   2.549   1.232 -0.6961 -1.6583 -1.1245
14152TIP3    H263948   3.173   2.536   1.361  0.1576 -0.5861 -0.5012
14153TIP3   OH263949   6.387   3.647   1.897 -0.2157  0.6811  0.5154
14153TIP3    H163950   6.427   3.733   1.886 -0.6152  0.9872  1.4227
14153TIP3    H263951   6.293   3.663   1.889 -0.3005  0.3565  0.8598
14154TIP3   OH263952   0.211   2.783  10.879  0.3370 -0.0599 -0.1911
14154TIP3    H163953   0.180   2.718  10.817 -0.9894 -0.0843  0.4915
14154TIP3    H263954   0.292   2.817  10.840 -0.0631 -0.6404 -1.5354
14155TIP3   OH263955   5.530   4.687   3.569 -0.3606  0.2209 -0.9291
14155TIP3    H163956   5.454   4.735   3.601  0.7806 -0.0336  2.3628
14155TIP3    H263957   5.590   4.685   3.643  2.3975 -0.5922 -3.0837
14156TIP3   OH263958   2.197   3.789  16.130  0.0417 -0.3269  0.3064
14156TIP3    H163959   2.238   3.875  16.140  0.3117 -0.4739  0.4469
14156TIP3    H263960   2.195   3.774  16.036 -0.5523  0.0978  0.2448
14157TIP3   OH263961   2.964   4.805  10.903 -0.0087  0.2688 -0.1683
14157TIP3    H163962   3.016   4.728  10.879  0.1574  0.4226 -0.3082
14157TIP3    H263963   2.892   4.770  10.956  0.5490  0.1124  0.5005
14158TIP3   OH263964   5.613   1.237  12.020 -0.0035 -0.4523  0.5787
14158TIP3    H163965   5.519   1.251  12.006 -0.1611 -0.6584  1.4218
14158TIP3    H263966   5.654   1.319  11.990 -0.4802 -0.2336  0.5259
14159TIP3   OH263967   1.555   4.423  15.179 -0.0763  0.0021  0.5429
14159TIP3    H163968   1.634   4.437  15.127 -0.5448  0.9296  0.0614
14159TIP3    H263969   1.562   4.332  15.210  1.6634  0.3876  1.3618
14160TIP3   OH263970   6.142   3.040  15.281  0.6635  0.8982 -0.0475
14160TIP3    H163971   6.170   3.022  15.371  3.5478  1.4970 -0.7704
14160TIP3    H263972   6.131   3.135  15.277  0.5585  0.8759 -0.3014
14161TIP3   OH263973   4.810   3.985   1.253 -0.5418  0.6130 -0.4259
14161TIP3    H163974   4.894   3.988   1.207  0.6591  0.0531  1.6735
14161TIP3    H263975   4.830   4.014   1.342 -2.1826 -1.4304  0.6610
14162TIP3   OH263976   0.681   3.133  13.024  0.6156  0.3255 -0.5293
14162TIP3    H163977   0.632   3.098  13.098  1.5430  2.1377  0.9685
14162TIP3    H263978   0.759   3.079  13.018  1.6267  1.5409  1.2409
14163TIP3   OH263979   1.394   2.147   6.056  0.0405  0.1887 -0.3511
14163TIP3    H163980   1.401   2.147   5.960  0.9229 -1.3506 -0.3042
14163TIP3    H263981   1.481   2.171   6.086 -0.3307  1.0229  0.0723
14164TIP3   OH263982   4.846   0.001  16.178  0.5653  0.1026  0.0528
14164TIP3    H163983   4.771  -0.017  16.235  2.2412 -0.4588  2.1450
14164TIP3    H263984   4.814   0.065  16.115 -2.6234 -2.5909 -1.1770
14165TIP3   OH263985   1.100   0.424   5.475  0.2019 -0.0736  0.2196
14165TIP3    H163986   1.179   0.389   5.515  1.6324  1.6211 -1.0506
14165TIP3    H263987   1.108   0.402   5.382  0.5115  2.4113 -0.3826
14166TIP3   OH263988   4.022   5.593   5.620 -0.6511  0.1760 -0.4873
14166TIP3    H163989   4.060   5.553   5.698 -1.0653  1.2896  0.2941
14166TIP3    H263990   4.006   5.519   5.561 -2.0711 -0.9240  1.2148
14167TIP3   OH263991   4.159   1.866  11.124 -0.1642 -0.3528  0.1564
14167TIP3    H163992   4.140   1.772  11.114 -0.5724 -0.1952 -0.6168
14167TIP3    H263993   4.216   1.887  11.049 -1.4073  0.3653 -0.6044
14168TIP3   OH263994   6.602   1.499  15.538 -0.4379  0.0190 -0.0751
14168TIP3    H163995   6.697   1.489  15.534 -0.7215 -2.6311 -1.2168
14168TIP3    H263996   6.579   1.477  15.628 -0.0789 -0.4591 -0.0965
14169TIP3   OH263997   6.781   0.138   5.903  0.0200  0.3045 -0.1183
14169TIP3    H163998   6.804   0.213   5.848 -0.9516  1.7280  1.3274
14169TIP3    H263999   6.715   0.091   5.853  1.9168 -0.5857 -1.8019
14170TIP3   OH264000   5.104   2.977   4.729  0.1870  0.0233  0.2146
14170TIP3    H164001   5.170   2.938   4.673 -0.5345 -1.3099  0.2871
14170TIP3    H264002   5.120   2.941   4.815 -0.4877 -0.1304  0.2829
14171TIP3   OH264003   0.170   6.435   3.261  0.6542  0.0259 -0.1659
14171TIP3    H164004   0.180   6.430   3.166 -1.7805  1.8245 -0.5718
14171TIP3    H264005   0.232   6.502   3.289  0.8175  0.0627 -0.6176
14172TIP3   OH264006   2.971   3.856   4.849  0.0027 -0.3890  0.9321
14172TIP3    H164007   2.906   3.892   4.788  1.0230 -0.9002 -0.4611
14172TIP3    H264008   3.034   3.811   4.794  0.1438 -2.1467  2.4680
14173TIP3   OH264009   5.284   5.686  15.788  0.0799  0.2391 -0.0904
14173TIP3    H164010   5.329   5.609  15.756 -0.2891 -0.6804  1.5526
14173TIP3    H264011   5.346   5.727  15.849 -0.0516  0.7760 -0.3111
14174TIP3   OH264012   2.910   1.538   3.573 -0.4151 -0.2702 -0.3198
14174TIP3    H164013   2.933   1.482   3.647  0.5493 -0.7849 -0.9986
14174TIP3    H264014   2.968   1.614   3.583 -0.4357 -0.2406 -0.4281
14175TIP3   OH264015   5.364   6.033   3.691 -0.5365 -0.4434  0.3577
14175TIP3    H164016   5.274   6.064   3.703  0.2129  1.7332  0.5679
14175TIP3    H264017   5.381   5.980   3.769 -0.4070  2.2258  2.2197
14176TIP3   OH264018   2.484   0.038   1.832 -0.7652  0.0380  0.3913
14176TIP3    H164019   2.437   0.120   1.844 -0.4071  0.3254 -0.1872
14176TIP3    H264020   2.494   0.029   1.738  0.1984 -0.1013  0.5025
14177TIP3   OH264021   3.929   1.768   4.565  0.0421 -0.0665 -0.3033
14177TIP3    H164022   3.899   1.831   4.500 -0.2076 -0.4897 -0.6060
14177TIP3    H264023   3.849   1.735   4.606  0.2322  0.6714  0.6724
14178TIP3   OH264024   4.210   5.077  12.898  0.6994 -0.4351 -0.0072
14178TIP3    H164025   4.129   5.028  12.883 -0.0122  0.1040  1.9375
14178TIP3    H264026   4.260   5.067  12.817 -1.5574 -0.3081 -1.4530
14179TIP3   OH264027   3.189   3.640   1.086 -0.5504 -0.2653 -0.1596
14179TIP3    H164028   3.219   3.701   1.018  1.9992 -2.0666 -0.7170
14179TIP3    H264029   3.239   3.666   1.164 -0.4974 -0.7576 -0.0295
14180TIP3   OH264030   4.531   5.546  16.226 -0.3945 -0.2192  0.1341
14180TIP3    H164031   4.475   5.596  16.285  0.2833  1.3498 -0.5147
14180TIP3    H264032   4.475   5.524  16.152 -0.6744 -0.3743  0.3911
14181TIP3   OH264033   1.874   0.342   0.219 -0.3390 -0.3764  0.7910
14181TIP3    H164034   1.869   0.277   0.149  1.1130  0.0774  0.2446
14181TIP3    H264035   1.910   0.420   0.177 -0.2282  0.1605  1.8562
14182TIP3   OH264036   5.757   5.645  11.361 -0.4461 -0.0667 -0.2194
14182TIP3    H164037   5.747   5.721  11.418  1.4551  0.4716 -0.5723
14182TIP3    H264038   5.762   5.680  11.273  1.5800 -0.4740 -0.2946
14183TIP3   OH264039   1.446   1.127  16.164 -0.3913  0.4465  0.7072
14183TIP3    H164040   1.445   1.042  16.121 -4.0455  0.2606  1.0338
14183TIP3    H264041   1.492   1.111  16.247 -0.6202 -1.1007  0.5491
14184TIP3   OH264042   0.252   1.694   0.279 -0.1988  0.2619  0.5920
14184TIP3    H164043   0.344   1.715   0.292 -0.0968 -0.6487  1.4396
14184TIP3    H264044   0.240   1.610   0.324 -1.2027 -0.1254 -0.3687
14185TIP3   OH264045   6.322   0.921   4.321  0.2066 -0.4030 -0.1582
14185TIP3    H164046   6.261   0.862   4.364  0.7347 -0.3687  0.6739
14185TIP3    H264047   6.403   0.870   4.313  0.4224 -0.0631 -0.1618
14186TIP3   OH264048   6.046   6.181   1.763 -0.2185 -0.1413  0.1862
14186TIP3    H164049   6.036   6.099   1.715 -1.8131 -0.5209  1.1273
14186TIP3    H264050   6.090   6.240   1.702  0.0819 -1.3992 -0.8310
14187TIP3   OH264051   2.675   0.116  11.624  0.6922 -0.3955  0.3852
14187TIP3    H164052   2.694   0.181  11.556  1.1052 -0.2199  0.6642
14187TIP3    H264053   2.611   0.058  11.584  1.2227 -0.5201 -0.2934
14188TIP3   OH264054   1.947   4.102   0.742 -0.4591 -0.2738  0.3081
14188TIP3    H164055   1.906   4.080   0.826 -2.3382  1.3774 -0.1469
14188TIP3    H264056   2.009   4.030   0.726 -1.8293 -1.8622  1.9239
14189TIP3   OH264057   3.782   3.267  11.738  0.9050  0.1871 -0.0388
14189TIP3    H164058   3.819   3.295  11.821 -0.0782  0.7167  0.2264
14189TIP3    H264059   3.696   3.230  11.761 -0.1879  2.0645 -1.0131
14190TIP3   OH264060   1.503   2.918  13.495  0.2648 -0.1763 -0.0872
14190TIP3    H164061   1.467   2.897  13.581  0.8066  0.2677  0.2470
14190TIP3    H264062   1.448   2.988  13.462  1.3490  1.1114  0.7978
14191TIP3   OH264063   5.805   5.646   0.983 -0.1025 -0.7009  0.0434
14191TIP3    H164064   5.793   5.741   0.988 -1.6967 -0.8696 -0.1288
14191TIP3    H264065   5.886   5.634   0.933  0.7189  0.5774  1.0292
14192TIP3   OH264066   0.794   4.824   0.639 -0.1001  0.4634 -0.0636
14192TIP3    H164067   0.878   4.865   0.659  0.7191 -2.2173  2.2402
14192TIP3    H264068   0.812   4.771   0.561  0.4255 -0.3155  0.5822
14193TIP3   OH264069   1.623   3.211   1.549 -0.5619  0.5138 -0.1198
14193TIP3    H164070   1.627   3.301   1.584  2.6705  0.8132 -1.0822
14193TIP3    H264071   1.556   3.214   1.481  1.3775  2.9598 -2.0315
14194TIP3   OH264072   4.514   0.223  12.796 -0.1762  0.2351  0.2555
14194TIP3    H164073   4.556   0.159  12.738 -0.5020 -0.2542  0.5488
14194TIP3    H264074   4.460   0.276  12.738  3.6317  3.2803 -0.6929
14195TIP3   OH264075   4.745   6.682   1.231 -0.7371 -0.2263  0.2234
14195TIP3    H164076   4.783   6.770   1.232  1.8038 -1.2885  0.6562
14195TIP3    H264077   4.677   6.683   1.299  0.1683  1.0069  1.1052
14196TIP3   OH264078   3.707   6.065   6.017  0.4955 -0.2969  0.0651
14196TIP3    H164079   3.710   6.152   5.979 -0.1649 -1.1797 -2.0840
14196TIP3    H264080   3.667   6.077   6.103  0.7881  1.5562 -0.0415
14197TIP3   OH264081   1.584   0.825   0.190  0.0068 -0.2854 -0.1332
14197TIP3    H164082   1.502   0.794   0.151 -1.1034  1.9982  0.2790
14197TIP3    H264083   1.633   0.860   0.116  0.8242 -2.0215 -0.4433
14198TIP3   OH264084   0.897   2.961   1.362  0.0149 -0.0992  0.2316
14198TIP3    H164085   0.906   3.042   1.311  0.9900 -0.6503 -0.5044
14198TIP3    H264086   0.837   2.984   1.433  1.1626  1.5808  0.6979
14199TIP3   OH264087   1.679   2.940   6.772 -0.9053  0.7083  0.0229
14199TIP3    H164088   1.666   3.032   6.795 -0.7480  0.8307 -0.3812
14199TIP3    H264089   1.591   2.906   6.756 -0.9059  0.9737 -0.5399
14200TIP3   OH264090   1.393   5.506   5.454  0.0777  1.6408  0.1942
14200TIP3    H164091   1.372   5.507   5.548 -1.3509  2.1729 -0.1117
14200TIP3    H264092   1.308   5.499   5.411  0.7271  1.4237 -1.0708
14201TIP3   OH264093   3.903   6.534  15.415  0.3517  0.1768  0.3600
14201TIP3    H164094   3.993   6.514  15.388  0.4502 -1.7135  1.9186
14201TIP3    H264095   3.850   6.513  15.338  1.0822 -0.4922  0.0220
14202TIP3   OH264096   0.503   1.403   2.105 -0.0607 -0.5131 -0.0891
14202TIP3    H164097   0.502   1.467   2.176 -1.8867 -0.0268 -0.5093
14202TIP3    H264098   0.410   1.393   2.081  0.3901 -1.8055 -1.3756
14203TIP3   OH264099   3.052   1.489  14.312  0.2994  0.3293 -0.1635
14203TIP3    H164100   2.971   1.471  14.359  0.3040  1.2735  0.2117
14203TIP3    H264101   3.122   1.466  14.373  0.3226 -0.0421 -0.3217
14204TIP3   OH264102   1.271   1.281   2.905 -0.0255 -0.7801  0.3083
14204TIP3    H164103   1.293   1.195   2.870 -0.6011 -1.5737  1.8290
14204TIP3    H264104   1.195   1.266   2.961 -1.4405  1.0963 -1.0479
14205TIP3   OH264105   4.671   2.040  17.036 -0.8858 -0.4837 -0.4882
14205TIP3    H164106   4.641   1.996  16.956 -0.1495 -0.6332 -0.6914
14205TIP3    H264107   4.602   2.102  17.057 -1.5789 -1.1992 -0.6407
14206TIP3   OH264108   2.723   1.510  13.809  0.5511  0.0825  1.1014
14206TIP3    H164109   2.725   1.605  13.799 -1.4604  0.1474  1.0525
14206TIP3    H264110   2.784   1.492  13.880  3.2561  1.1074 -0.8718
14207TIP3   OH264111   3.603   3.666   3.118 -0.0331  0.4148 -0.5659
14207TIP3    H164112   3.666   3.733   3.092  1.7990 -0.6941  0.9258
14207TIP3    H264113   3.645   3.583   3.095 -1.4090 -0.3105 -0.5132
14208TIP3   OH264114   0.223   4.415  15.529  0.0562 -1.1967  0.3871
14208TIP3    H164115   0.144   4.362  15.543 -0.2685 -1.0764 -0.9115
14208TIP3    H264116   0.276   4.363  15.469  0.0238 -0.3363 -0.3839
14209TIP3   OH264117   0.380   1.780   5.338 -0.0603  0.3537  0.1007
14209TIP3    H164118   0.368   1.824   5.254  2.1335 -1.0752 -1.0188
14209TIP3    H264119   0.419   1.847   5.395  0.2275  0.7920 -0.6056
14210TIP3   OH264120   1.458   5.805   5.584 -0.1391  0.7315  0.8542
14210TIP3    H164121   1.384   5.833   5.529 -0.6629 -0.1956  1.0618
14210TIP3    H264122   1.502   5.886   5.608  0.2295  1.1446 -1.1231
14211TIP3   OH264123   3.457   2.211   5.938  0.2995  0.3485  0.0437
14211TIP3    H164124   3.429   2.126   5.972 -0.7657  0.5264 -0.3839
14211TIP3    H264125   3.478   2.194   5.846  0.1674  0.5286 -0.0203
14212TIP3   OH264126   3.494   2.953  14.100 -0.7194 -0.3701  0.2721
14212TIP3    H164127   3.446   3.025  14.142  0.3587  0.1773  0.5722
14212TIP3    H264128   3.585   2.965  14.127 -0.5346 -1.8774  0.3483
14213TIP3   OH264129   2.661   0.067  11.040  0.5204  0.0109 -0.6172
14213TIP3    H164130   2.607   0.044  10.964  2.6088 -0.0676 -2.1326
14213TIP3    H264131   2.703   0.150  11.017  1.5565 -0.2539  0.2367
14214TIP3   OH264132   2.558   5.532  14.308 -0.3343  0.0582  0.2821
14214TIP3    H164133   2.562   5.612  14.255 -1.9268  0.0009  0.0678
14214TIP3    H264134   2.497   5.553  14.378 -1.2759 -1.1848 -0.1498
14215TIP3   OH264135   6.043   0.722   4.697  0.2689  0.1558  0.4058
14215TIP3    H164136   6.125   0.676   4.711  1.1513  1.7470  0.6404
14215TIP3    H264137   5.996   0.715   4.780 -0.1508 -1.3367  0.0593
14216TIP3   OH264138   2.773   0.709  13.031 -0.2941 -0.1303  0.1618
14216TIP3    H164139   2.745   0.632  12.982  2.7284 -0.5989 -0.9321
14216TIP3    H264140   2.822   0.674  13.106  0.0683  0.6779  0.3134
14217TIP3   OH264141   4.921   1.440  11.633 -0.4390  0.3396  0.0756
14217TIP3    H164142   4.853   1.502  11.606  0.7814  0.8421 -1.9582
14217TIP3    H264143   4.994   1.495  11.661  1.2267 -0.1036 -3.2081
14218TIP3   OH264144   2.170   5.878   0.738  0.2926 -0.7660 -0.7206
14218TIP3    H164145   2.098   5.926   0.698  0.1782 -0.8680 -0.6359
14218TIP3    H264146   2.195   5.813   0.673 -0.5086 -1.5511 -0.2532
14219TIP3   OH264147   4.587   0.858  12.412  0.0302  0.3052  0.3529
14219TIP3    H164148   4.526   0.899  12.473 -1.5318  0.3223 -1.2158
14219TIP3    H264149   4.658   0.922  12.404 -1.2990  1.7213 -0.3250
14220TIP3   OH264150   0.591   1.273  16.807 -0.0805  0.4581 -0.1217
14220TIP3    H164151   0.608   1.298  16.716  1.0976 -1.3137 -0.4059
14220TIP3    H264152   0.639   1.338  16.859  1.9556 -0.4426 -0.8314
14221TIP3   OH264153   2.107   1.687   0.663 -0.5615 -0.2669  0.3028
14221TIP3    H164154   2.025   1.727   0.690 -2.3670 -3.3047 -0.4171
14221TIP3    H264155   2.149   1.753   0.607 -2.8573  1.0485  0.0629
14222TIP3   OH264156   4.610   1.684   1.473  0.0468 -0.5176 -0.2388
14222TIP3    H164157   4.649   1.635   1.400 -1.8179 -0.3034 -1.4048
14222TIP3    H264158   4.595   1.771   1.437 -1.2426 -0.5240  0.2888
14223TIP3   OH264159   3.133   3.676   5.200  0.1126  0.4521 -0.5401
14223TIP3    H164160   3.088   3.593   5.188  0.4402  0.2715 -0.5313
14223TIP3    H264161   3.186   3.687   5.121 -0.2993  0.8855 -0.7552
14224TIP3   OH264162   4.481   2.103  14.027  0.0450 -0.2240  0.0355
14224TIP3    H164163   4.498   2.138  14.114 -0.9805  1.0382 -0.2656
14224TIP3    H264164   4.426   2.026  14.043 -1.3701  0.8385  0.4409
14225TIP3   OH264165   4.544   4.787  14.045 -0.4476  0.4823 -0.4519
14225TIP3    H164166   4.501   4.846  14.108  0.3233 -0.7564  1.2607
14225TIP3    H264167   4.637   4.794  14.066 -0.3271 -1.1412 -0.4360
14226TIP3   OH264168   4.881   4.846   0.153  0.2583 -0.1724 -0.2811
14226TIP3    H164169   4.872   4.827   0.060  1.2395  0.5270 -0.5302
14226TIP3    H264170   4.948   4.786   0.184 -1.1455 -1.4493  0.3127
14227TIP3   OH264171   2.680   4.355   4.065 -0.1238  0.3755 -0.6874
14227TIP3    H164172   2.762   4.307   4.062 -0.6944 -0.5503 -2.3007
14227TIP3    H264173   2.618   4.295   4.107 -0.1957  0.7067 -0.3213
14228TIP3   OH264174   1.520   4.402   4.303 -0.1408 -0.3503  0.1187
14228TIP3    H164175   1.571   4.328   4.336 -0.0579 -0.4499 -0.2382
14228TIP3    H264176   1.478   4.369   4.224  0.5749  0.2530 -0.5150
14229TIP3   OH264177   2.994   4.450   3.979  0.2859  0.1640  0.6706
14229TIP3    H164178   3.044   4.463   4.059 -1.2340  0.8393  1.5289
14229TIP3    H264179   2.911   4.496   3.994 -0.5764 -0.8647 -0.7378
14230TIP3   OH264180   6.105   6.650  11.612  0.4149 -0.2009 -0.2020
14230TIP3    H164181   6.023   6.636  11.660  1.2525 -1.4381  0.9197
14230TIP3    H264182   6.080   6.702  11.536 -1.2821  0.0898  0.5285
14231TIP3   OH264183   2.061   4.047  15.997 -0.1293  0.3281 -0.1524
14231TIP3    H164184   2.061   4.046  16.092 -1.2064 -0.5605 -0.1599
14231TIP3    H264185   2.154   4.056  15.973  0.3028 -1.0770  0.9496
14232TIP3   OH264186   4.761   6.262   4.481  0.0546 -0.2309 -0.2005
14232TIP3    H164187   4.705   6.286   4.407  0.2927 -2.5111 -1.1658
14232TIP3    H264188   4.701   6.225   4.545 -0.3549  3.0134  1.4144
14233TIP3   OH264189   5.830   0.044   3.580 -0.0043  0.5725  0.2232
14233TIP3    H164190   5.877   0.057   3.662  0.4225  0.1124  0.0581
14233TIP3    H264191   5.744   0.012   3.607  0.3054 -0.0695  0.4822
14234TIP3   OH264192   5.455   3.535   5.955 -0.3355 -0.6959 -0.0094
14234TIP3    H164193   5.370   3.575   5.978 -1.0802 -2.0834 -0.3021
14234TIP3    H264194   5.517   3.608   5.956 -1.5328  0.3322  0.2368
14235TIP3   OH264195   3.748   2.141  16.948  0.1317  0.0391 -0.2753
14235TIP3    H164196   3.840   2.115  16.942  0.1028  0.1144 -1.1020
14235TIP3    H264197   3.748   2.235  16.928  0.0693  0.4112  1.3638
14236TIP3   OH264198   4.400   1.651   0.117 -0.0327 -0.3562 -0.2518
14236TIP3    H164199   4.492   1.644   0.144 -0.2369 -2.2950 -0.0183
14236TIP3    H264200   4.359   1.701   0.187  0.5281 -0.8349  0.4320
14237TIP3   OH264201   0.366   0.460   4.286  0.0760  0.1189 -0.0764
14237TIP3    H164202   0.372   0.388   4.223  0.3440  0.0167  0.0690
14237TIP3    H264203   0.287   0.508   4.260  0.0696 -0.0476 -0.3602
14238TIP3   OH264204   5.671   6.502  16.442  0.4918  0.0132 -0.2094
14238TIP3    H164205   5.762   6.471  16.445  0.4826  0.0874  1.0619
14238TIP3    H264206   5.619   6.426  16.468  0.4431  0.9676  2.6076
14239TIP3   OH264207   2.765   1.420   4.963 -0.5831  0.2321 -0.3941
14239TIP3    H164208   2.701   1.391   5.028 -0.2690  0.8535  0.2026
14239TIP3    H264209   2.746   1.513   4.950  0.3559  0.4888 -0.0073
14240TIP3   OH264210   2.473   0.771  16.197  0.7820  0.2121 -0.1533
14240TIP3    H164211   2.471   0.803  16.107  0.7211  1.1436  0.1642
14240TIP3    H264212   2.452   0.848  16.250  0.3837 -0.4263  0.6353
14241TIP3   OH264213   4.611   1.937   6.076  0.2239 -0.1016  0.6201
14241TIP3    H164214   4.582   2.000   6.142  1.1238 -0.3611  1.2685
14241TIP3    H264215   4.584   1.852   6.111 -1.3712 -0.0772 -0.4516
14242TIP3   OH264216   3.931   2.633   2.283 -0.8362  0.5644 -0.6048
14242TIP3    H164217   3.917   2.719   2.323  0.3609  0.7139 -0.4784
14242TIP3    H264218   3.845   2.592   2.284 -1.6511  2.2095 -1.7237
14243TIP3   OH264219   3.158   6.425  15.549 -0.5586  0.4428  0.0543
14243TIP3    H164220   3.148   6.504  15.495 -3.2845  0.0521 -0.1088
14243TIP3    H264221   3.152   6.456  15.639 -0.2175  0.5992  0.0217
14244TIP3   OH264222   1.381   3.463  16.528 -0.2614  0.2504 -0.0109
14244TIP3    H164223   1.303   3.442  16.477  0.2963 -1.3173 -0.2461
14244TIP3    H264224   1.419   3.378  16.549  0.7150  0.9645  1.1477
14245TIP3   OH264225   3.342   5.454  17.248  0.0012 -0.1890 -0.6157
14245TIP3    H164226   3.275   5.460  17.317  0.6644  3.6158 -0.1651
14245TIP3    H264227   3.292   5.457  17.166 -0.5506 -0.1105 -0.2829
14246TIP3   OH264228   3.780   5.593  16.624 -0.0560 -0.0479  0.1955
14246TIP3    H164229   3.845   5.596  16.553 -1.9503 -0.8474 -1.6214
14246TIP3    H264230   3.773   5.501  16.646  1.4098  0.3090  2.3281
14247TIP3   OH264231   2.059   0.340   0.663  0.2864 -0.8342 -0.0396
14247TIP3    H164232   2.084   0.262   0.614  0.8970 -0.0416 -1.0043
14247TIP3    H264233   2.046   0.408   0.597  2.4627  0.6197  0.9322
14248TIP3   OH264234   4.075   0.771   0.606  0.6689 -0.3107 -0.1545
14248TIP3    H164235   4.046   0.748   0.695  0.7881 -0.3582 -0.1284
14248TIP3    H264236   3.993   0.790   0.559  0.6790  0.8897  0.2871
14249TIP3   OH264237   6.159   6.108   0.438 -0.1684 -0.5798 -0.3967
14249TIP3    H164238   6.169   6.157   0.356  1.4021 -0.0383  0.1013
14249TIP3    H264239   6.244   6.115   0.480 -0.1612 -3.0822  0.0543
14250TIP3   OH264240   2.554   6.228   4.983  0.3427  0.4618  0.1328
14250TIP3    H164241   2.603   6.155   5.020 -1.3708 -0.5639  0.4255
14250TIP3    H264242   2.499   6.189   4.916 -0.2831  1.5619 -0.0057
14251TIP3   OH264243   1.735   4.273  10.953  0.0420 -0.0332  0.7644
14251TIP3    H164244   1.663   4.213  10.977 -0.2788  0.7565  1.8145
14251TIP3    H264245   1.807   4.246  11.009 -0.2312  0.8244  1.5369
14252TIP3   OH264246   0.532   4.721  14.070 -0.2238  0.0506  0.2396
14252TIP3    H164247   0.470   4.743  14.000 -0.5301  0.7489  0.7308
14252TIP3    H264248   0.618   4.740  14.032 -0.4969  2.5796  0.8107
14253TIP3   OH264249   2.799   6.261  12.856 -0.3068 -0.2635 -0.0431
14253TIP3    H164250   2.861   6.315  12.807  0.2692 -0.6440  0.2549
14253TIP3    H264251   2.750   6.324  12.909  0.6717 -0.0690  0.6459
14254TIP3   OH264252   6.387   6.561  11.964  0.6814  0.2930  0.3430
14254TIP3    H164253   6.318   6.627  11.973  1.8613  1.6135 -0.1833
14254TIP3    H264254   6.341   6.478  11.973 -0.7056  1.1900  1.8254
14255TIP3   OH264255   1.658   4.256  13.316  0.1380 -0.5582  1.3204
14255TIP3    H164256   1.593   4.325  13.298  1.3183  0.8761  2.4215
14255TIP3    H264257   1.736   4.303  13.344  1.0036 -2.3551  2.0342
14256TIP3   OH264258   3.861   5.686  15.088  0.4141 -0.2178 -0.0906
14256TIP3    H164259   3.792   5.686  15.021 -0.2866 -1.0627  0.6261
14256TIP3    H264260   3.867   5.777  15.115 -0.8189 -0.2256  0.2454
14257TIP3   OH264261   5.998   2.955   2.909  0.3766 -0.4908  0.2239
14257TIP3    H164262   5.983   2.892   2.979 -0.8520  0.9879  1.3138
14257TIP3    H264263   6.006   3.040   2.953 -1.1576  0.5813 -1.4734
14258TIP3   OH264264   3.262   2.659  16.284 -0.0470 -0.3742 -0.8645
14258TIP3    H164265   3.235   2.729  16.224 -1.0651 -2.3184 -2.7541
14258TIP3    H264266   3.203   2.668  16.359  0.0942  1.0291 -0.9124
14259TIP3   OH264267   1.416   3.937   2.920  0.3714 -0.8979 -0.4449
14259TIP3    H164268   1.322   3.928   2.901  0.2858 -0.8829 -0.0421
14259TIP3    H264269   1.432   4.031   2.918  0.7071 -0.9780 -2.0401
14260TIP3   OH264270   0.121   6.607  11.317  0.0751  0.4794 -0.1368
14260TIP3    H164271   0.143   6.661  11.393  0.7023 -0.3653  0.2946
14260TIP3    H264272   0.149   6.518  11.342 -0.4192  0.0596 -1.0513
14261TIP3   OH264273   0.142   5.896  16.835 -0.2086  0.1063  0.4187
14261TIP3    H164274   0.170   5.966  16.776  1.1101 -0.1762  0.6913
14261TIP3    H264275   0.088   5.838  16.781 -1.3567  1.3421  0.2000
14262TIP3   OH264276   3.496   1.610   1.736  0.5795 -0.2381 -0.3863
14262TIP3    H164277   3.451   1.551   1.797  1.9338  1.3039  2.1949
14262TIP3    H264278   3.570   1.559   1.703  0.7408 -0.5608  0.4710
14263TIP3   OH264279   2.454   6.296   3.402 -0.0005 -0.1767 -0.3916
14263TIP3    H164280   2.468   6.264   3.313 -2.4693  1.3231 -1.3662
14263TIP3    H264281   2.373   6.253   3.431  0.6670 -0.4844  1.0577
14264TIP3   OH264282   5.959   0.405  12.777 -0.5992 -0.1882 -0.2478
14264TIP3    H164283   6.027   0.412  12.844  0.0214 -2.0015 -0.6589
14264TIP3    H264284   5.906   0.330  12.804 -0.8433 -0.4224 -1.3349
14265TIP3   OH264285   1.874   6.150   5.697  0.6062 -0.5275 -0.2053
14265TIP3    H164286   1.968   6.171   5.697  0.5154  0.2348  2.9275
14265TIP3    H264287   1.872   6.055   5.697  1.3310 -0.5615 -1.7503
14266TIP3   OH264288   0.628   2.765  13.935 -0.5040  0.3953 -0.3180
14266TIP3    H164289   0.548   2.719  13.962 -0.3168 -0.9168 -1.9523
14266TIP3    H264290   0.684   2.763  14.013 -1.1788 -0.6575  0.1427
14267TIP3   OH264291   4.371   4.881   1.453 -0.1995 -0.1649  0.3582
14267TIP3    H164292   4.436   4.938   1.493 -0.5408  0.3497  0.1993
14267TIP3    H264293   4.308   4.863   1.523  0.6245 -1.4617  0.7803
14268TIP3   OH264294   2.649   3.621   6.282 -0.3252  0.4248  0.7320
14268TIP3    H164295   2.655   3.540   6.333 -1.1646  0.8262  1.5032
14268TIP3    H264296   2.739   3.649   6.270 -0.0178 -0.8179  0.1513
14269TIP3   OH264297   3.403   4.910   4.730 -0.5870 -0.2506  0.1689
14269TIP3    H164298   3.372   4.875   4.646  0.6368 -0.8198 -0.0509
14269TIP3    H264299   3.352   4.990   4.742 -0.5245  0.0201 -1.2891
14270TIP3   OH264300   4.327   0.393  11.210  0.1733 -0.0936 -0.4966
14270TIP3    H164301   4.341   0.438  11.127 -1.3809  2.5356  0.5838
14270TIP3    H264302   4.396   0.427  11.267 -0.3170  0.0641  0.0027
14271TIP3   OH264303   4.463   3.130   4.740  0.2702  0.9743 -0.5496
14271TIP3    H164304   4.507   3.049   4.767  0.6943  1.3306 -0.1569
14271TIP3    H264305   4.517   3.164   4.668 -0.1078  0.7217 -0.9507
14272TIP3   OH264306   5.091   6.756  17.135 -0.0895 -0.4623  0.3066
14272TIP3    H164307   5.079   6.816  17.208  1.3259 -1.0870  1.0730
14272TIP3    H264308   5.147   6.686  17.170  0.9157 -0.5789 -1.4630
14273TIP3   OH264309   1.451   4.995  12.735 -0.0517 -0.3883 -0.1916
14273TIP3    H164310   1.456   5.048  12.815  0.2343 -1.3747  0.4584
14273TIP3    H264311   1.535   4.948  12.733 -0.3570 -0.9127 -0.6861
14274TIP3   OH264312   1.033   5.898  16.331 -0.1061 -0.4077 -0.4254
14274TIP3    H164313   0.954   5.942  16.362 -1.0675 -2.1781 -0.3258
14274TIP3    H264314   1.084   5.967  16.289 -1.3583  0.8974  0.1646
14275TIP3   OH264315   2.000   5.280   4.547 -0.3073 -0.3450  0.1814
14275TIP3    H164316   2.059   5.242   4.482 -0.1021 -0.7377  0.5957
14275TIP3    H264317   1.925   5.310   4.496  0.2922  0.2503 -0.3626
14276TIP3   OH264318   6.579   1.072   1.283 -0.3823  0.7087  0.0530
14276TIP3    H164319   6.494   1.027   1.290 -0.2039  0.2392 -0.7760
14276TIP3    H264320   6.613   1.046   1.197  0.2487  1.5143  0.0569
14277TIP3   OH264321   0.125   4.759   3.162 -0.0838  0.1975  0.2807
14277TIP3    H164322   0.089   4.765   3.074  0.0814 -2.6419 -0.0432
14277TIP3    H264323   0.203   4.704   3.152 -0.3298 -0.5629  2.2302
14278TIP3   OH264324   1.480   3.253  14.178 -0.6831 -0.3100  0.3400
14278TIP3    H164325   1.547   3.277  14.115  0.1093 -2.3002  0.4103
14278TIP3    H264326   1.397   3.266  14.131 -0.2432  1.4579  0.0281
14279TIP3   OH264327   0.971   3.649   1.889 -0.2793 -0.2221  0.0116
14279TIP3    H164328   0.931   3.608   1.812 -0.3091 -1.3331  0.6176
14279TIP3    H264329   1.028   3.717   1.852 -0.8529 -0.2617 -0.9637
14280TIP3   OH264330   4.179   5.801  15.241 -0.0408  0.5344 -0.3346
14280TIP3    H164331   4.091   5.836  15.249 -0.3844  0.0270 -1.7775
14280TIP3    H264332   4.194   5.795  15.146  0.9102 -0.9260 -0.1010
14281TIP3   OH264333   1.873   1.241   3.903  0.5119 -0.0282 -0.4454
14281TIP3    H164334   1.884   1.216   3.812 -0.2061 -1.2845 -0.1931
14281TIP3    H264335   1.930   1.182   3.952  0.0427 -0.1042  0.0157
14282TIP3   OH264336   2.562   0.183   5.582 -0.3842 -0.7328 -0.1635
14282TIP3    H164337   2.488   0.241   5.603 -1.8626 -2.9245  0.8148
14282TIP3    H264338   2.568   0.186   5.486  1.0435  2.7702 -0.0575
14283TIP3   OH264339   4.287   3.250  10.421  0.8025 -0.3425 -0.3937
14283TIP3    H164340   4.277   3.302  10.342 -1.4951  1.2995  0.9301
14283TIP3    H264341   4.220   3.182  10.415  0.6588 -0.2494  0.1337
14284TIP3   OH264342   2.473   6.125  11.971  0.1892  0.6184  0.1665
14284TIP3    H164343   2.479   6.218  11.950 -0.0976  0.2607 -1.6074
14284TIP3    H264344   2.563   6.094  11.970  0.1469  0.4954 -1.1738
14285TIP3   OH264345   1.668   6.294   2.847  0.0428  0.1705  0.5052
14285TIP3    H164346   1.707   6.333   2.768  0.4773  1.4599  1.3475
14285TIP3    H264347   1.726   6.222   2.870 -0.9600 -1.2582 -1.2722
14286TIP3   OH264348   4.900   2.589   1.594 -0.0438 -0.3209 -0.4272
14286TIP3    H164349   4.813   2.608   1.559 -0.4057 -0.3179  0.4685
14286TIP3    H264350   4.944   2.540   1.524 -0.6515 -0.0530 -1.0019
14287TIP3   OH264351   2.783   2.635  12.248 -0.0877  0.4066 -0.4911
14287TIP3    H164352   2.823   2.669  12.168 -1.4517  1.2399 -0.8434
14287TIP3    H264353   2.755   2.713  12.296  0.3277 -0.1020  0.5952
14288TIP3   OH264354   1.358   1.319   0.534  0.2098 -0.0358  0.1771
14288TIP3    H164355   1.318   1.282   0.455  0.6359  0.4748 -0.2796
14288TIP3    H264356   1.355   1.414   0.520  0.6739  0.0371  0.5823
14289TIP3   OH264357   4.694   2.261   0.072  0.0600 -0.4287  0.2026
14289TIP3    H164358   4.641   2.208   0.012  0.6400  1.8360 -2.3848
14289TIP3    H264359   4.678   2.351   0.045  3.5319  0.4335  0.7987
14290TIP3   OH264360   0.565   1.438  13.190  0.0490  0.0794  0.0326
14290TIP3    H164361   0.605   1.400  13.112 -2.9652 -1.1519 -1.0107
14290TIP3    H264362   0.517   1.366  13.230 -0.6020  1.3250  1.5644
14291TIP3   OH264363   4.212   0.429  12.855 -0.3666 -0.1802  0.2519
14291TIP3    H164364   4.256   0.366  12.799  1.5595  0.4929  0.9659
14291TIP3    H264365   4.220   0.513  12.809 -1.3156 -0.1267  0.1686
14292TIP3   OH264366   4.764   4.185   0.255  0.5059 -0.0872  0.2537
14292TIP3    H164367   4.853   4.165   0.226  0.7415  0.1098  0.8129
14292TIP3    H264368   4.718   4.101   0.252  0.6487 -0.1450 -0.2642
14293TIP3   OH264369   6.604   5.871  16.468  0.2491  0.1614  0.3577
14293TIP3    H164370   6.511   5.878  16.490 -0.0195 -0.6957 -0.4981
14293TIP3    H264371   6.610   5.794  16.411  1.2264  1.2286 -1.0136
14294TIP3   OH264372   2.402   4.790  14.606  0.2266 -0.0873 -0.2012
14294TIP3    H164373   2.450   4.855  14.657  1.7769 -0.6291 -0.9413
14294TIP3    H264374   2.439   4.797  14.518 -2.2797  0.7141 -1.2341
14295TIP3   OH264375   4.766   1.067   1.454  0.2399 -0.7403 -0.2828
14295TIP3    H164376   4.686   1.116   1.471  0.6490 -0.1785  0.0539
14295TIP3    H264377   4.833   1.112   1.506  1.0330 -0.4429 -1.5255
14296TIP3   OH264378   4.055   0.298   0.401  0.3666 -0.0473  0.1620
14296TIP3    H164379   4.028   0.216   0.441  0.1470 -0.7049 -1.2844
14296TIP3    H264380   3.996   0.309   0.326 -0.4035  2.0527  1.0329
14297TIP3   OH264381   3.894   5.230  12.430 -0.5260  0.2130 -0.1548
14297TIP3    H164382   3.905   5.237  12.525 -0.9214  1.1535 -0.1770
14297TIP3    H264383   3.976   5.265  12.394  0.6886 -2.4371 -0.1425
14298TIP3   OH264384   6.632   1.330  14.078 -0.1402 -0.3551  0.2245
14298TIP3    H164385   6.544   1.364  14.093  0.0275  0.4242 -0.4863
14298TIP3    H264386   6.690   1.402  14.103  0.2770 -0.6866  0.2210
14299TIP3   OH264387   5.460   2.928   1.136 -0.1165  0.2315  0.2254
14299TIP3    H164388   5.388   2.991   1.131 -0.1891  0.2308  1.1214
14299TIP3    H264389   5.456   2.879   1.054 -2.2731 -0.9940  1.0298
14300TIP3   OH264390   4.839   3.503  15.808 -0.3257 -0.7977 -0.0021
14300TIP3    H164391   4.791   3.479  15.888 -0.2138  0.2634  0.3884
14300TIP3    H264392   4.893   3.426  15.789  1.7804 -0.0250  2.5725
14301TIP3   OH264393   3.280   2.080   6.993 -0.3003 -0.3637  0.0902
14301TIP3    H164394   3.353   2.072   6.931  1.3845  0.4760  1.9204
14301TIP3    H264395   3.231   2.156   6.963  0.7148  0.2528 -0.0382
14302TIP3   OH264396   6.358   2.742  11.558  1.2439  0.0204  0.3975
14302TIP3    H164397   6.391   2.715  11.473 -0.7964  0.9806 -0.7268
14302TIP3    H264398   6.271   2.704  11.564  0.6910  1.3977  1.3213
14303TIP3   OH264399   1.397   3.386  15.981  0.5893  0.4448  0.1875
14303TIP3    H164400   1.435   3.334  16.052  1.0949  0.3263 -0.1715
14303TIP3    H264401   1.319   3.338  15.956  0.1951  0.6878  0.9283
14304TIP3   OH264402   2.583   3.361  12.057 -0.2277  0.4690 -0.0367
14304TIP3    H164403   2.637   3.439  12.070 -0.5670  0.6017  0.6039
14304TIP3    H264404   2.620   3.319  11.979  1.5888 -0.1066  1.1025
14305TIP3   OH264405   5.868   6.704   0.203 -0.2164  0.1945  0.0638
14305TIP3    H164406   5.961   6.687   0.214 -0.2403 -0.5374 -0.7499
14305TIP3    H264407   5.828   6.673   0.284  0.5815  3.6543  1.8621
14306TIP3   OH264408   2.567   0.895   6.319 -0.0593  0.0492 -0.0094
14306TIP3    H164409   2.631   0.948   6.273 -0.7230 -0.4340 -1.5140
14306TIP3    H264410   2.504   0.958   6.354 -0.2721  0.3249 -0.8940
14307TIP3   OH264411   6.054   2.727   0.522  0.7775  0.3857 -0.2636
14307TIP3    H164412   6.126   2.669   0.548  2.5044  1.8717 -1.5917
14307TIP3    H264413   6.016   2.757   0.605  1.6886 -0.4000  0.4525
14308TIP3   OH264414   5.394   2.419  16.160 -0.0661  0.2483  0.4427
14308TIP3    H164415   5.313   2.442  16.206  0.3477 -1.5447  2.1004
14308TIP3    H264416   5.413   2.330  16.188  0.5462 -0.6612 -2.7512
14309TIP3   OH264417   4.028   6.511  10.912 -0.3553 -0.3944  0.1064
14309TIP3    H164418   4.093   6.557  10.858 -0.7090  1.6544  1.3778
14309TIP3    H264419   4.073   6.433  10.942  0.9747  0.1530 -0.4113
14310TIP3   OH264420   5.292   4.779   1.143 -0.5806 -0.3960 -0.2333
14310TIP3    H164421   5.340   4.697   1.139  1.0004  0.5403 -1.0250
14310TIP3    H264422   5.231   4.767   1.215 -0.3873 -2.2690 -0.3567
14311TIP3   OH264423   6.316   1.643   5.272  0.4973 -0.1303 -0.6479
14311TIP3    H164424   6.279   1.727   5.301  0.2180 -1.2004  2.3080
14311TIP3    H264425   6.385   1.667   5.211 -1.1290  2.1621 -1.6522
14312TIP3   OH264426   3.370   3.470   1.531  0.2776 -0.0124 -0.1064
14312TIP3    H164427   3.451   3.511   1.563 -0.7402  1.3179  0.8075
14312TIP3    H264428   3.392   3.440   1.443  1.7633  0.3553  0.1202
14313TIP3   OH264429   1.046   5.932   4.716  0.2149  0.3316 -0.3686
14313TIP3    H164430   0.997   6.005   4.678  1.5222  1.1995 -0.3990
14313TIP3    H264431   1.101   5.971   4.783  0.3784 -0.7331  0.1285
14314TIP3   OH264432   5.407   0.251  13.520 -0.2282 -0.0195  0.6525
14314TIP3    H164433   5.404   0.173  13.577  1.7218  0.1643  1.0661
14314TIP3    H264434   5.390   0.217  13.433 -1.3431 -0.6110  1.0905
14315TIP3   OH264435   1.959   4.085   5.630 -0.0685  0.7143  0.6751
14315TIP3    H164436   2.031   4.079   5.693  0.3477 -0.3149  0.1229
14315TIP3    H264437   1.999   4.060   5.547 -0.8803  0.9460  0.2176
14316TIP3   OH264438   3.344   0.467   3.846 -0.0527 -0.4798 -0.0463
14316TIP3    H164439   3.334   0.553   3.806 -1.1528 -0.3297  0.5409
14316TIP3    H264440   3.325   0.405   3.775  0.9002 -0.2571 -0.5117
14317TIP3   OH264441   3.611   6.461   2.283  0.2088  0.1835  0.0855
14317TIP3    H164442   3.526   6.421   2.305 -0.6826  2.0077  0.0347
14317TIP3    H264443   3.643   6.495   2.366  2.4855 -3.3388  0.7636
14318TIP3   OH264444   5.586   4.276  12.233  0.5227  0.3488  0.1760
14318TIP3    H164445   5.673   4.305  12.204  0.3652 -1.1347 -1.9208
14318TIP3    H264446   5.598   4.184  12.256 -0.3343  0.3423  0.6229
14319TIP3   OH264447   3.881   5.433  13.214  0.1373 -0.3621  0.1183
14319TIP3    H164448   3.923   5.348  13.204 -3.5188 -2.0283 -2.0276
14319TIP3    H264449   3.824   5.423  13.290 -0.1435  0.2245 -0.0131
14320TIP3   OH264450   5.312   2.213   0.688 -0.1376 -0.2870  0.4749
14320TIP3    H164451   5.346   2.292   0.647  0.8999 -0.9089  0.1112
14320TIP3    H264452   5.378   2.146   0.671 -1.2556 -1.3795  0.2998
14321TIP3   OH264453   4.385   2.939  13.669  0.5896 -0.1267 -0.8165
14321TIP3    H164454   4.365   2.850  13.697  1.1793 -0.3066 -0.9666
14321TIP3    H264455   4.413   2.930  13.578  2.7252 -0.0503 -0.1934
14322TIP3   OH264456   0.716   3.366  16.770 -0.3743 -0.1355 -0.3523
14322TIP3    H164457   0.764   3.308  16.829  0.2531 -0.5536 -1.2605
14322TIP3    H264458   0.761   3.450  16.776 -0.8229  0.0532  0.3954
14323TIP3   OH264459   6.002   1.222   6.210  0.0926 -0.1412  0.9516
14323TIP3    H164460   6.013   1.151   6.147 -2.0945  0.8121 -0.5754
14323TIP3    H264461   5.933   1.192   6.269 -1.2331  0.9167 -0.0369
14324TIP3   OH264462   1.089   6.143   3.666 -0.2994 -0.5646 -0.5907
14324TIP3    H164463   1.056   6.148   3.576 -1.0946  1.2742 -0.2175
14324TIP3    H264464   1.011   6.158   3.720  0.3731 -0.5657  0.3711
14325TIP3   OH264465   2.478   2.137  12.085 -0.6001 -0.0841 -0.0021
14325TIP3    H164466   2.386   2.145  12.063 -0.6032 -0.1533 -0.0161
14325TIP3    H264467   2.480   2.135  12.181 -0.7348 -1.3511 -0.0047
14326TIP3   OH264468   5.876   1.919  17.243 -0.0288  0.3864 -0.5262
14326TIP3    H164469   5.965   1.888  17.226  0.7020  1.4098  1.2061
14326TIP3    H264470   5.886   2.013  17.256 -1.3710  0.5169 -0.4045
14327TIP3   OH264471   2.559   4.441   2.522 -0.1073 -0.3364 -0.2098
14327TIP3    H164472   2.521   4.469   2.439 -1.6648  1.2530  1.0187
14327TIP3    H264473   2.621   4.510   2.545 -1.3727  0.4017  1.0709
14328TIP3   OH264474   4.063   4.033   0.841  0.2234 -0.1542 -0.3951
14328TIP3    H164475   4.156   4.053   0.832  0.1931  0.8168  1.2705
14328TIP3    H264476   4.061   3.941   0.867  0.6069 -0.7468 -2.3449
14329TIP3   OH264477   5.374   4.517   3.052  0.1516  0.1568 -0.3098
14329TIP3    H164478   5.402   4.581   3.117 -2.0700  0.2904  0.5597
14329TIP3    H264479   5.357   4.568   2.973 -1.7329  0.6860  0.4176
14330TIP3   OH264480   3.647   0.667  15.601  0.0175  0.2251 -0.0465
14330TIP3    H164481   3.625   0.706  15.516 -0.7296 -0.0553  0.0230
14330TIP3    H264482   3.717   0.724  15.635  0.1892  0.4475 -0.7611
14331TIP3   OH264483   4.786   6.388  16.790 -0.6120  0.2131 -0.3386
14331TIP3    H164484   4.692   6.375  16.786 -0.5811  0.1272 -0.8656
14331TIP3    H264485   4.805   6.449  16.718  0.0943 -1.8610 -1.9449
14332TIP3   OH264486   1.815   6.052  12.990  0.3511 -0.1478  0.0174
14332TIP3    H164487   1.910   6.041  12.999  0.2613  0.4099  1.8703
14332TIP3    H264488   1.783   5.965  12.969  1.3677 -0.1572 -1.6062
14333TIP3   OH264489   6.345   2.249  12.713 -1.2433 -0.1522  0.0427
14333TIP3    H164490   6.284   2.308  12.669 -2.1404 -0.2510  1.1402
14333TIP3    H264491   6.399   2.306  12.768  0.9201  0.1633 -2.2932
14334TIP3   OH264492   0.173   2.328   1.537 -0.2316 -0.6584 -0.1407
14334TIP3    H164493   0.184   2.314   1.443  0.4753 -0.6047 -0.0700
14334TIP3    H264494   0.211   2.415   1.553 -1.7141 -0.0154 -0.0534
14335TIP3   OH264495   6.288   0.742  15.418  0.4057  0.2365  0.0704
14335TIP3    H164496   6.203   0.717  15.383 -0.1156  2.4167 -0.2391
14335TIP3    H264497   6.301   0.685  15.494 -1.2418 -0.2143  0.0189
14336TIP3   OH264498   1.436   4.086   5.611 -0.7729 -0.2329  0.1552
14336TIP3    H164499   1.433   4.132   5.695 -0.0416  0.9760 -0.4766
14336TIP3    H264500   1.350   4.102   5.573 -1.3078 -1.2456  0.9042
14337TIP3   OH264501   0.808   2.252   0.232  0.2306 -0.0337  0.0918
14337TIP3    H164502   0.718   2.275   0.258 -0.8420 -0.2966 -3.1510
14337TIP3    H264503   0.811   2.156   0.241  0.3003  0.0043  0.4953
14338TIP3   OH264504   5.692   3.006  15.033  0.4285  0.3209 -0.2777
14338TIP3    H164505   5.629   2.934  15.040  0.9470 -0.0646  0.5955
14338TIP3    H264506   5.776   2.962  15.021  0.8742  0.7360  1.2053
14339TIP3   OH264507   6.534   3.559  16.143  0.0554  0.4305  0.3299
14339TIP3    H164508   6.626   3.576  16.122  0.3351 -1.3000  0.0562
14339TIP3    H264509   6.508   3.632  16.199  1.4249  1.2428 -0.0703
14340TIP3   OH264510   3.984   4.726  15.460 -0.5969 -0.7199  0.1988
14340TIP3    H164511   4.072   4.689  15.453 -0.1777  0.2636  0.0562
14340TIP3    H264512   3.930   4.671  15.405  0.0535 -0.9830 -0.1807
14341TIP3   OH264513   3.705   3.426   0.745 -0.2937 -0.2395 -0.0707
14341TIP3    H164514   3.736   3.462   0.828 -1.3537 -3.2113  1.6808
14341TIP3    H264515   3.625   3.475   0.726  0.0509  0.5820  0.5762
14342TIP3   OH264516   3.095   0.108   2.134  0.1326 -0.1099 -0.2059
14342TIP3    H164517   3.155   0.057   2.188  1.1135  2.4091  1.1808
14342TIP3    H264518   3.010   0.065   2.144  0.9238 -1.4168  0.9767
14343TIP3   OH264519   4.611   0.280  10.974  0.2640  0.2913  0.3338
14343TIP3    H164520   4.579   0.288  10.884 -3.1529  1.5661  1.5652
14343TIP3    H264521   4.685   0.341  10.979 -0.0475  0.8472 -1.3708
14344TIP3   OH264522   6.002   4.396  13.008 -0.9078 -0.1652  0.4920
14344TIP3    H164523   5.974   4.384  13.099 -0.1339 -0.5688  0.6799
14344TIP3    H264524   6.042   4.313  12.984 -0.1887  0.2915  0.1123
14345TIP3   OH264525   5.785   3.268  13.819 -0.0300  0.3269  0.4432
14345TIP3    H164526   5.781   3.283  13.725  0.6601  1.5817  0.5886
14345TIP3    H264527   5.738   3.343  13.857 -0.6921 -0.4096  1.0774
14346TIP3   OH264528   3.996   1.752   4.302 -0.8022  0.0716 -0.3920
14346TIP3    H164529   3.971   1.729   4.391 -3.1504  0.6989 -0.8618
14346TIP3    H264530   4.075   1.805   4.312  0.7517 -2.3713  1.0980
14347TIP3   OH264531   2.413   3.092   0.063 -0.0788  0.2768 -0.0729
14347TIP3    H164532   2.387   3.155  -0.004  0.1255  1.2968  0.7885
14347TIP3    H264533   2.438   3.013   0.015 -0.2337  0.8998 -1.1682
14348TIP3   OH264534   6.387   4.496  14.423  0.4111 -0.0344 -0.1631
14348TIP3    H164535   6.463   4.529  14.470 -0.1284  0.0997  0.6156
14348TIP3    H264536   6.404   4.402  14.412  1.2883  0.2297 -1.1469
14349TIP3   OH264537   0.369   0.809   1.965  0.4624 -0.0546  0.2496
14349TIP3    H164538   0.419   0.888   1.943  1.9162 -1.0791 -0.2455
14349TIP3    H264539   0.416   0.739   1.921 -0.5178 -1.2704  1.1158
14350TIP3   OH264540   3.647   5.584   0.557 -0.8089  0.0420 -0.2677
14350TIP3    H164541   3.647   5.680   0.554 -1.7516  0.0348 -0.5908
14350TIP3    H264542   3.739   5.561   0.570 -0.5421  0.9814 -0.4335
14351TIP3   OH264543   6.560   1.551   6.130 -0.3483  0.9246 -0.6215
14351TIP3    H164544   6.578   1.631   6.179  1.0635 -0.1177  0.6125
14351TIP3    H264545   6.577   1.480   6.192 -2.3190 -0.3251 -1.4545
14352TIP3   OH264546   3.770   1.535   3.893 -0.0899 -0.1173  0.3783
14352TIP3    H164547   3.676   1.556   3.887 -0.1399 -0.5830 -0.6596
14352TIP3    H264548   3.814   1.607   3.848 -0.2499 -2.0034 -2.9944
14353TIP3   OH264549   4.345   1.456  13.284 -0.4224  0.7687  0.0923
14353TIP3    H164550   4.268   1.482  13.234 -1.3003 -0.3546  0.8300
14353TIP3    H264551   4.321   1.371  13.322  0.9781  0.6629  0.7632
14354TIP3   OH264552   0.367   4.611  14.937  0.4943  0.2239  0.3272
14354TIP3    H164553   0.381   4.556  14.860  0.4236  0.1936  0.3357
14354TIP3    H264554   0.293   4.571  14.982  0.4327  0.3362  0.3252
14355TIP3   OH264555   0.360   2.547  16.004 -0.3508 -0.0926 -0.0330
14355TIP3    H164556   0.306   2.470  15.985 -1.6072  0.5225  0.9912
14355TIP3    H264557   0.341   2.568  16.095 -0.1478  1.5408 -0.3657
14356TIP3   OH264558   1.534   0.838  12.417  0.2203 -0.0501  0.1383
14356TIP3    H164559   1.461   0.840  12.355  1.7521 -0.4420 -1.7240
14356TIP3    H264560   1.610   0.865  12.366  1.5641 -0.5679  1.8015
14357TIP3   OH264561   6.230   6.728   4.087 -0.4887 -0.7895 -0.3990
14357TIP3    H164562   6.324   6.740   4.077 -0.6582  0.3773 -0.6470
14357TIP3    H264563   6.191   6.803   4.042 -1.5105 -0.6024  0.7656
14358TIP3   OH264564   1.133   1.408   5.539  0.5949  0.3250  0.1162
14358TIP3    H164565   1.113   1.398   5.632  2.2053 -1.5367  0.2967
14358TIP3    H264566   1.104   1.326   5.499  0.5205  0.8531 -0.9268
14359TIP3   OH264567   1.797   0.420   2.085  0.2272 -0.2737 -0.6584
14359TIP3    H164568   1.796   0.329   2.115  0.3201  0.9167  3.2959
14359TIP3    H264569   1.705   0.441   2.069 -0.0771 -0.3305  0.9396
14360TIP3   OH264570   1.417   3.420  14.418 -0.3170 -0.0957  0.2687
14360TIP3    H164571   1.428   3.373  14.336 -1.0745  0.4571 -0.1551
14360TIP3    H264572   1.468   3.370  14.482  0.9414 -0.0489 -0.7007
14361TIP3   OH264573   3.322   0.187  15.127  0.0259 -0.2381  0.1744
14361TIP3    H164574   3.252   0.229  15.078 -0.8179 -0.3122  1.3052
14361TIP3    H264575   3.391   0.254  15.134 -0.3338  0.1570 -0.0904
14362TIP3   OH264576   2.818   2.427   5.731  0.3541 -0.3590 -0.1812
14362TIP3    H164577   2.776   2.393   5.810  0.0937 -1.8172 -0.9288
14362TIP3    H264578   2.904   2.457   5.761  0.6258 -1.7716  0.4925
14363TIP3   OH264579   1.829   2.320  15.850 -0.9364  0.3015  0.2773
14363TIP3    H164580   1.748   2.371  15.850 -2.3578 -1.8976  0.2494
14363TIP3    H264581   1.875   2.349  15.771 -1.5197  1.8256  0.4789
14364TIP3   OH264582   5.716   3.656  12.005 -0.1394  0.1385  0.0695
14364TIP3    H164583   5.808   3.674  11.985 -0.3956  1.4605 -0.0065
14364TIP3    H264584   5.671   3.739  11.986 -1.3886 -0.5740 -0.1636
14365TIP3   OH264585   4.485   2.385  12.308  0.5788 -0.2102  0.8547
14365TIP3    H164586   4.544   2.362  12.380  1.3752 -2.0731 -0.3474
14365TIP3    H264587   4.483   2.307  12.253 -0.7938  0.8387 -0.6294
14366TIP3   OH264588   4.173   6.759   4.110  0.0456  0.0864  0.3129
14366TIP3    H164589   4.095   6.809   4.086  0.7155  0.3738 -1.3341
14366TIP3    H264590   4.203   6.798   4.191 -0.7286  0.8898  0.2123
14367TIP3   OH264591   6.306   6.147  15.224  0.1178  0.0456 -0.2373
14367TIP3    H164592   6.261   6.093  15.288  1.6772 -0.9233  0.0628
14367TIP3    H264593   6.366   6.087  15.179 -1.8769  0.4281 -3.5318
14368TIP3   OH264594   0.734   6.287  10.896  0.0098  0.4426  0.1101
14368TIP3    H164595   0.801   6.227  10.863  0.5731  0.6773  0.8153
14368TIP3    H264596   0.781   6.344  10.956 -0.7140  0.9845  0.1592
14369TIP3   OH264597   3.504   4.195  14.996  0.2221  0.5621  0.3237
14369TIP3    H164598   3.484   4.198  15.090  2.1472  0.1396  0.7706
14369TIP3    H264599   3.421   4.168  14.955 -0.8861  1.6417  1.7999
14370TIP3   OH264600   2.633   1.518   3.461  0.5401  0.2006  0.1183
14370TIP3    H164601   2.641   1.475   3.376 -1.3571  2.3702 -1.2082
14370TIP3    H264602   2.721   1.550   3.480  0.4048  2.2340 -2.4391
14371TIP3   OH264603   5.022   3.210  13.690  0.3235 -0.1052 -0.2162
14371TIP3    H164604   4.937   3.226  13.731 -0.2125  1.7293 -1.9518
14371TIP3    H264605   5.015   3.123  13.651 -0.8523  0.1271 -0.5325
14372TIP3   OH264606   1.773   0.445   2.826 -0.2754  0.1144 -0.0774
14372TIP3    H164607   1.856   0.425   2.784 -0.1151 -1.5034  0.9627
14372TIP3    H264608   1.707   0.409   2.767 -0.2563  1.3611 -0.8817
14373TIP3   OH264609   1.246   4.731  13.956 -0.2364 -0.0135 -0.0676
14373TIP3    H164610   1.244   4.673  13.880  1.5765  0.2032 -0.2911
14373TIP3    H264611   1.331   4.775  13.951 -0.6667  1.0136  1.3305
14374TIP3   OH264612   4.515   4.150  10.336  0.0695 -0.0565  0.4861
14374TIP3    H164613   4.448   4.109  10.390 -0.0899 -0.3029  0.1033
14374TIP3    H264614   4.571   4.197  10.398 -0.5671  0.3014  0.7886
14375TIP3   OH264615   3.664   4.246  16.847 -0.0521  0.1080 -0.0250
14375TIP3    H164616   3.719   4.180  16.804  0.7115  0.9990 -0.4232
14375TIP3    H264617   3.699   4.253  16.935 -1.3755 -1.4366  0.6639
14376TIP3   OH264618   3.944   6.171   1.641  0.1665  0.1406 -1.1135
14376TIP3    H164619   3.958   6.105   1.573 -0.1038 -1.0465 -0.0285
14376TIP3    H264620   3.942   6.122   1.723  0.4961  1.5576 -0.2312
14377TIP3   OH264621   5.168   6.332   2.158  0.2890 -0.2511 -0.3360
14377TIP3    H164622   5.194   6.241   2.139 -0.7562 -0.8645  1.0778
14377TIP3    H264623   5.078   6.338   2.126  0.4659  0.3978 -0.7193
14378TIP3   OH264624   3.490   1.992  16.148 -0.0087 -0.1087 -0.6138
14378TIP3    H164625   3.585   1.993  16.138 -0.2978 -0.8713 -3.9354
14378TIP3    H264626   3.456   1.986  16.059 -3.1507 -1.4375  0.5795
14379TIP3   OH264627   0.551   3.916  10.540  0.6775  0.0272 -0.4083
14379TIP3    H164628   0.625   3.899  10.483  0.7326 -0.4480 -0.1967
14379TIP3    H264629   0.524   3.830  10.571  0.4760  0.2572  0.0649
14380TIP3   OH264630   3.210   6.293   4.320  0.6732  0.0910 -0.2236
14380TIP3    H164631   3.232   6.201   4.305 -0.6836 -0.3407  0.3712
14380TIP3    H264632   3.157   6.317   4.244 -0.2028 -0.0360  0.3509
14381TIP3   OH264633   5.426   1.676  16.367 -0.4317 -0.0029  0.5620
14381TIP3    H164634   5.450   1.601  16.312 -0.9960  0.4411 -0.2885
14381TIP3    H264635   5.349   1.713  16.325  0.4197  1.6561  0.4235
14382TIP3   OH264636   5.666   4.113   5.165 -0.3367  1.1602  0.2923
14382TIP3    H164637   5.721   4.161   5.102  1.7942  1.0933  2.0418
14382TIP3    H264638   5.616   4.182   5.209 -0.2112  1.4182  0.0377
14383TIP3   OH264639   0.877   6.134  10.737  0.0013  0.0677 -0.5607
14383TIP3    H164640   0.880   6.208  10.676  0.6608 -0.8898 -1.7193
14383TIP3    H264641   0.905   6.059  10.684 -2.2630 -1.3242  0.1436
14384TIP3   OH264642   1.373   2.451  11.831 -0.2345  0.6227  0.0852
14384TIP3    H164643   1.414   2.365  11.821  2.3743  1.8016  0.3352
14384TIP3    H264644   1.396   2.498  11.751 -0.1049  1.7252  0.7632
14385TIP3   OH264645   5.614   2.934   5.510 -0.5480  0.0293 -0.6185
14385TIP3    H164646   5.589   2.843   5.495 -0.8351  0.2159 -1.2900
14385TIP3    H264647   5.535   2.984   5.491 -0.3461  0.4315 -0.4008
14386TIP3   OH264648   5.595   3.785  14.854 -0.4847  0.6000 -0.3701
14386TIP3    H164649   5.523   3.841  14.825 -1.6868 -0.9578 -0.4302
14386TIP3    H264650   5.562   3.696  14.842  1.7108 -0.1425 -1.0471
14387TIP3   OH264651   1.311   0.547   3.052 -0.1498 -0.3508  0.1688
14387TIP3    H164652   1.228   0.595   3.046 -0.5289 -0.7191  2.1751
14387TIP3    H264653   1.334   0.528   2.961 -1.0486  1.8178 -0.5419
14388TIP3   OH264654   6.615   4.382   4.653 -0.4518 -0.2029 -0.2237
14388TIP3    H164655   6.657   4.369   4.568 -0.4083  0.5853 -0.3210
14388TIP3    H264656   6.552   4.309   4.659  1.6069 -1.9731  0.3757
14389TIP3   OH264657   0.536   4.502  15.617 -0.1593 -0.1076  0.8240
14389TIP3    H164658   0.589   4.518  15.539 -0.7928  2.9186  0.9403
14389TIP3    H264659   0.599   4.499  15.689  0.1460  0.3597  0.5799
14390TIP3   OH264660   1.003   6.166  15.597  0.2036  0.9996 -0.2478
14390TIP3    H164661   1.095   6.157  15.621  0.0539  0.5314  0.1462
14390TIP3    H264662   0.975   6.248  15.637  0.2378  0.7481  0.2863
14391TIP3   OH264663   2.146   4.802   4.641  0.2735  0.6537 -0.1479
14391TIP3    H164664   2.180   4.804   4.552  1.9008 -0.8928  0.4216
14391TIP3    H264665   2.163   4.890   4.675  0.1033  1.0914 -1.1782
14392TIP3   OH264666   2.310   6.819   5.446  0.0048  0.0951  0.0239
14392TIP3    H164667   2.379   6.761   5.415  1.7851  0.8166  2.5177
14392TIP3    H264668   2.275   6.776   5.524 -1.1003  0.6319 -0.1600
14393TIP3   OH264669   6.488   2.744   2.347 -0.2737 -0.8167  0.5153
14393TIP3    H164670   6.437   2.800   2.405 -0.6750 -0.7706  0.1265
14393TIP3    H264671   6.449   2.759   2.260 -0.8169 -2.2020  0.5177
14394TIP3   OH264672   2.479   4.548   3.976 -0.6269  1.0745 -0.2520
14394TIP3    H164673   2.526   4.467   3.998 -0.9605  1.0549  0.4116
14394TIP3    H264674   2.406   4.519   3.922  0.6214  1.2013 -2.0257
14395TIP3   OH264675   4.417   0.517  11.913  0.7743  0.8761  0.0525
14395TIP3    H164676   4.387   0.592  11.965 -1.7546 -0.7032  0.9183
14395TIP3    H264677   4.348   0.503  11.848  0.6254 -1.4698  0.6827
14396TIP3   OH264678   1.504   2.778  15.345 -0.6044  0.2124 -0.1171
14396TIP3    H164679   1.500   2.692  15.303 -1.5326  0.1679  0.0545
14396TIP3    H264680   1.583   2.818  15.309  0.6585 -1.2819  0.9289
14397TIP3   OH264681   3.226   3.925  14.678 -1.0741  0.2023  0.6217
14397TIP3    H164682   3.269   4.011  14.671  0.1150 -0.4875 -0.7050
14397TIP3    H264683   3.132   3.946  14.679 -0.8171  1.5002 -0.1537
14398TIP3   OH264684   2.732   5.382   0.567  0.0426  0.0246  0.1576
14398TIP3    H164685   2.798   5.430   0.619  0.4161  1.1094 -1.2744
14398TIP3    H264686   2.778   5.358   0.487 -0.1547 -2.7706  0.8346
14399TIP3   OH264687   2.044   3.097   5.946  0.0788  0.2341 -0.6350
14399TIP3    H164688   2.105   3.163   5.912 -1.4760  0.2055 -3.6877
14399TIP3    H264689   1.970   3.148   5.979  0.0614  0.1123 -0.4873
14400TIP3   OH264690   5.828   3.932  14.807  0.1228 -0.3588 -0.1798
14400TIP3    H164691   5.751   3.878  14.824 -1.1750  1.2246 -0.8953
14400TIP3    H264692   5.891   3.905  14.874 -1.4529 -0.8579  1.1464
14401TIP3   OH264693   4.368   1.501  12.119  0.2528  0.6216  0.0795
14401TIP3    H164694   4.428   1.572  12.097  0.0743  0.8591  0.3574
14401TIP3    H264695   4.338   1.522  12.207 -0.3581  0.5839 -0.1215
14402TIP3   OH264696   1.472   6.343  13.608 -0.2712  0.2684  0.1455
14402TIP3    H164697   1.377   6.348  13.613 -0.3837 -0.6518 -0.8460
14402TIP3    H264698   1.489   6.273  13.545  1.0585  0.7704 -0.0709
14403TIP3   OH264699   4.139   5.322   2.170  0.3079 -0.3325  0.1036
14403TIP3    H164700   4.141   5.366   2.085 -2.0510 -1.5126 -0.6033
14403TIP3    H264701   4.195   5.245   2.158  0.9601  0.1491  0.0127
14404TIP3   OH264702   4.507   5.223  12.792  0.7326 -0.1620  1.0167
14404TIP3    H164703   4.467   5.137  12.808  0.4056 -0.2830 -0.3533
14404TIP3    H264704   4.563   5.210  12.715  1.2815  0.6709  1.2656
14405TIP3   OH264705   4.236   5.059  16.905  0.3424  0.5497 -0.1681
14405TIP3    H164706   4.208   5.083  16.994  0.9658  2.1859 -0.3985
14405TIP3    H264707   4.156   5.063  16.853  0.0651  0.0862  0.2220
14406TIP3   OH264708   1.343   6.749   6.185  0.6004 -0.6276 -0.1370
14406TIP3    H164709   1.260   6.785   6.151  0.1052 -0.5781  1.1036
14406TIP3    H264710   1.393   6.826   6.211  0.6515 -0.7078 -0.0015
14407TIP3   OH264711   0.202   1.225  11.571  0.4486  0.0154 -0.4743
14407TIP3    H164712   0.138   1.268  11.514  0.6085  0.1785 -0.5302
14407TIP3    H264713   0.157   1.218  11.655  0.6308  0.8060 -0.3101
14408TIP3   OH264714   0.475   3.953  12.397 -0.1079  0.0550 -0.0126
14408TIP3    H164715   0.526   4.028  12.427  0.6159 -0.2202 -0.5250
14408TIP3    H264716   0.449   3.976  12.308  1.3243 -0.8812 -0.6969
14409TIP3   OH264717   1.840   0.631  12.471  0.2566 -0.1633  0.2562
14409TIP3    H164718   1.835   0.661  12.561  1.7930  0.8430  0.0108
14409TIP3    H264719   1.889   0.699  12.425 -3.2387  0.9487 -2.0390
14410TIP3   OH264720   1.736   5.392  12.392  0.7678  0.1056 -0.1240
14410TIP3    H164721   1.797   5.339  12.443 -0.6862 -2.9270 -1.3860
14410TIP3    H264722   1.659   5.400  12.447  0.1785 -0.9463 -0.7835
14411TIP3   OH264723   3.118   0.731  12.046  0.1915 -0.3148 -0.2053
14411TIP3    H164724   3.063   0.675  11.991 -0.3304 -1.1238  1.1132
14411TIP3    H264725   3.196   0.748  11.993  0.0138 -1.6691 -0.9137
14412TIP3   OH264726   2.866   0.643   3.118  0.3880  0.3359 -0.3869
14412TIP3    H164727   2.798   0.578   3.100 -0.0822  0.9930 -1.0266
14412TIP3    H264728   2.866   0.699   3.040 -0.6714  2.3811  1.0292
14413TIP3   OH264729   1.515   5.817  11.244  0.4798  0.1234  0.2515
14413TIP3    H164730   1.556   5.808  11.158  1.4556 -0.3355  0.7650
14413TIP3    H264731   1.490   5.910  11.249  0.0131  0.0544 -0.6994
14414TIP3   OH264732   3.359   1.367   3.310  0.0785  0.2163 -0.0387
14414TIP3    H164733   3.303   1.378   3.387  1.6633  2.7111  0.7759
14414TIP3    H264734   3.447   1.385   3.341  0.7255  1.4322 -2.4917
14415TIP3   OH264735   1.676   2.958   6.395  0.4964 -0.2036  0.1191
14415TIP3    H164736   1.623   3.033   6.422  0.3562 -0.1178 -0.3795
14415TIP3    H264737   1.730   2.992   6.323 -0.9999 -1.0866 -1.4448
14416TIP3   OH264738   0.250   2.656   0.427 -0.0100  0.1746  0.1111
14416TIP3    H164739   0.340   2.624   0.432  0.4171  1.3224 -0.0968
14416TIP3    H264740   0.197   2.581   0.452  0.9609 -0.7501 -0.5305
14417TIP3   OH264741   1.078   1.092  16.041 -0.4624 -0.2887 -0.1673
14417TIP3    H164742   1.086   1.022  15.975  2.0737 -0.3206  0.1075
14417TIP3    H264743   1.089   1.047  16.125  0.2066  0.2967  0.0649
14418TIP3   OH264744   4.289   5.593  14.508  0.8410 -0.6562 -1.1669
14418TIP3    H164745   4.308   5.678  14.548 -0.5939 -0.8198 -0.0827
14418TIP3    H264746   4.310   5.605  14.415 -0.5265  1.2952 -1.2672
14419TIP3   OH264747   5.025   0.791  11.977 -0.1403  0.3299  0.1889
14419TIP3    H164748   4.965   0.721  12.002  0.1096  0.3584  0.8726
14419TIP3    H264749   4.986   0.828  11.898 -0.4517 -0.3535  0.0164
14420TIP3   OH264750   3.046   6.085   4.061 -0.5697 -0.1872  1.3019
14420TIP3    H164751   3.013   6.003   4.024 -0.6442 -0.1154  1.2113
14420TIP3    H264752   3.096   6.125   3.990 -0.1356 -0.3803  1.4885
14421TIP3   OH264753   5.881   0.228  11.178  0.0037 -0.2354  0.6039
14421TIP3    H164754   5.954   0.277  11.141 -1.0822 -0.4277 -1.9544
14421TIP3    H264755   5.805   0.255  11.125 -1.6937 -0.3847  2.8792
14422TIP3   OH264756   0.184   6.731  16.192 -0.5341 -0.2030 -0.0263
14422TIP3    H164757   0.186   6.816  16.148 -2.0012  0.1419  0.5247
14422TIP3    H264758   0.209   6.668  16.125 -2.4430  0.3450 -1.2924
14423TIP3   OH264759   0.042   5.228   4.029  0.2235 -0.6123 -0.1478
14423TIP3    H164760   0.116   5.175   4.059 -1.1928 -2.4542  0.1417
14423TIP3    H264761  -0.018   5.166   3.988 -1.4748  0.7556  0.1837
14424TIP3   OH264762   4.208   5.959  14.770  0.2631 -0.3519  0.0937
14424TIP3    H164763   4.268   6.027  14.798  0.1768 -0.7126  1.1767
14424TIP3    H264764   4.168   5.993  14.691  1.2748  0.2450 -0.1719
14425TIP3   OH264765   2.834   0.780  11.703 -0.4114  0.3622  0.1440
14425TIP3    H164766   2.749   0.794  11.662 -0.5147 -0.7406 -0.0257
14425TIP3    H264767   2.819   0.711  11.767  0.6574 -0.8404 -0.8735
14426TIP3   OH264768   2.464   1.276   2.915 -0.7873  0.1723  0.7575
14426TIP3    H164769   2.471   1.183   2.896  3.2199  0.4732  0.5026
14426TIP3    H264770   2.455   1.281   3.010  3.7331 -0.3742  1.3026
14427TIP3   OH264771   0.988   2.222  13.807 -0.2005 -0.0338 -0.0757
14427TIP3    H164772   0.985   2.315  13.830  2.0452 -0.1387  0.7261
14427TIP3    H264773   0.951   2.177  13.883  0.3019  0.1018  0.2505
14428TIP3   OH264774   2.713   1.017  11.206 -0.1496 -0.0573 -0.3037
14428TIP3    H164775   2.719   0.932  11.250 -2.4436 -0.6425 -1.0537
14428TIP3    H264776   2.780   1.014  11.138  1.2132 -0.4189  1.0312
14429TIP3   OH264777   5.256   2.703  11.206 -0.5050 -0.5337  0.0383
14429TIP3    H164778   5.305   2.739  11.279 -0.3434 -0.3914 -0.1390
14429TIP3    H264779   5.317   2.642  11.164 -0.3321 -0.0281 -0.4435
14430TIP3   OH264780   1.626   3.382   6.311  0.0016 -0.7209  0.4963
14430TIP3    H164781   1.711   3.414   6.342 -0.6029  1.3514  0.0705
14430TIP3    H264782   1.648   3.309   6.252  1.5038 -0.0124  0.1619
14431TIP3   OH264783   2.184   3.824  14.705  0.3626  1.5754 -0.0359
14431TIP3    H164784   2.164   3.786  14.790  0.3640  1.5240 -0.0598
14431TIP3    H264785   2.124   3.898  14.698 -0.4802  0.8490 -0.5153
14432TIP3   OH264786   5.766   5.588   4.786 -0.2942 -0.0735  0.6922
14432TIP3    H164787   5.771   5.535   4.866  0.7750 -0.3337  0.4695
14432TIP3    H264788   5.832   5.656   4.799  0.4323 -0.5793 -0.3010
14433TIP3   OH264789   3.885   4.111  14.077 -0.1632  0.8541 -0.9326
14433TIP3    H164790   3.975   4.140  14.059 -0.6815  4.0610  1.1729
14433TIP3    H264791   3.886   4.084  14.169 -0.5417 -2.8090 -1.9183
14434TIP3   OH264792   3.126   6.201  15.904  0.2576  0.0678  0.1577
14434TIP3    H164793   3.112   6.122  15.852  1.7474 -0.3730  0.4104
14434TIP3    H264794   3.051   6.257  15.883 -0.5071 -1.1745 -0.4556
14435TIP3   OH264795   2.375   0.486   3.837  0.0153 -0.3491 -0.1454
14435TIP3    H164796   2.358   0.456   3.748 -0.8183  0.8523 -0.3979
14435TIP3    H264797   2.470   0.480   3.847  0.0870 -0.6966 -1.0326
14436TIP3   OH264798   5.301   5.077   6.122 -0.1818 -0.5210  0.2028
14436TIP3    H164799   5.342   5.099   6.206  0.3725 -0.6026 -0.0442
14436TIP3    H264800   5.342   5.137   6.060  0.6599 -1.6143 -0.3096
14437TIP3   OH264801   5.705   3.386  14.820  0.2358 -0.2011  0.3270
14437TIP3    H164802   5.642   3.320  14.847  0.8828 -0.8981  0.1392
14437TIP3    H264803   5.772   3.338  14.771  0.1268  0.7439 -0.7820
14438TIP3   OH264804   4.719   1.362   1.441 -0.0710  0.3982 -0.1290
14438TIP3    H164805   4.637   1.341   1.397  1.1977 -1.3908 -1.6633
14438TIP3    H264806   4.760   1.429   1.386  0.3488 -0.0130 -0.3124
14439TIP3   OH264807   3.646   5.644   4.217  0.4577 -0.6006  0.0885
14439TIP3    H164808   3.718   5.661   4.155  1.7648 -1.2122  1.4219
14439TIP3    H264809   3.630   5.728   4.258  0.7073 -0.5560  0.0970
14440TIP3   OH264810   1.928   1.946   0.515 -0.2111 -0.4345  0.3313
14440TIP3    H164811   1.951   2.025   0.564 -1.9685  0.2901  0.0249
14440TIP3    H264812   1.834   1.936   0.529 -0.1386 -2.0390 -0.2724
14441TIP3   OH264813   1.502   6.731   4.967 -0.3606  0.2927  0.6708
14441TIP3    H164814   1.442   6.715   4.894 -0.7564  2.7927  0.4288
14441TIP3    H264815   1.533   6.820   4.954  1.8128 -0.2285  1.9797
14442TIP3   OH264816   4.804   4.352   4.685 -0.3772 -0.6716 -0.2406
14442TIP3    H164817   4.751   4.390   4.614  0.0967 -1.5254 -1.0631
14442TIP3    H264818   4.782   4.259   4.684 -0.3222 -0.6974  0.7031
14443TIP3   OH264819   1.873   0.864  17.046 -0.4787 -0.0669  0.6328
14443TIP3    H164820   1.838   0.802  16.981 -0.2027  1.3189 -0.8642
14443TIP3    H264821   1.968   0.856  17.038 -0.4454  0.2172  0.7553
14444TIP3   OH264822   5.630   6.549  14.291  0.1914  0.8609 -0.1177
14444TIP3    H164823   5.571   6.622  14.309  0.0393  0.3224  1.6669
14444TIP3    H264824   5.710   6.571  14.338 -0.4011 -0.8500  1.7725
14445TIP3   OH264825   1.264   0.571   0.764  0.1326  0.4353 -0.3964
14445TIP3    H164826   1.341   0.612   0.723  0.8515 -0.7222 -0.2094
14445TIP3    H264827   1.209   0.545   0.691  0.6384 -0.1311 -0.5752
14446TIP3   OH264828   2.618   0.268   2.082  0.0622 -0.7121  0.3285
14446TIP3    H164829   2.571   0.212   2.144  0.8275 -1.3711  0.3180
14446TIP3    H264830   2.675   0.209   2.033  3.7739  0.4710  2.9330
14447TIP3   OH264831   4.984   6.468  12.426  0.1102  0.3861  0.4312
14447TIP3    H164832   4.974   6.376  12.451 -0.3675  0.7788  1.7302
14447TIP3    H264833   5.070   6.493  12.459  0.7806  0.0613 -1.0472
14448TIP3   OH264834   2.927   3.293  12.607 -0.4371  0.3109  0.3668
14448TIP3    H164835   3.008   3.289  12.658 -1.1060  1.5869  1.5549
14448TIP3    H264836   2.911   3.202  12.581  0.3630 -0.2348  1.7259
14449TIP3   OH264837   0.994   2.123  16.000 -0.5574  0.3623  0.2655
14449TIP3    H164838   1.045   2.054  15.958 -0.1793  1.2955 -0.8541
14449TIP3    H264839   0.915   2.130  15.947 -0.1054  1.5117 -0.2779
14450TIP3   OH264840   3.146   5.351   1.339 -0.9584 -0.6549  0.0160
14450TIP3    H164841   3.070   5.302   1.307  0.4860 -2.4450 -0.7348
14450TIP3    H264842   3.190   5.381   1.260 -0.3561 -0.4497  0.4284
14451TIP3   OH264843   4.583   3.903   2.805 -0.6166  0.2361 -0.3168
14451TIP3    H164844   4.533   3.940   2.732 -2.9361 -0.9233  0.6404
14451TIP3    H264845   4.602   3.979   2.861 -1.3550  0.6865 -0.6642
14452TIP3   OH264846   2.132   4.022  13.792 -0.2959 -0.2205 -0.4289
14452TIP3    H164847   2.212   3.973  13.773  0.1319 -0.1328  1.1154
14452TIP3    H264848   2.162   4.106  13.827 -1.0287 -1.5779  3.7083
14453TIP3   OH264849   0.631   1.938   1.247 -0.3965  0.7284  0.0712
14453TIP3    H164850   0.592   2.004   1.190  0.6240  1.2721 -0.0036
14453TIP3    H264851   0.679   1.989   1.312 -0.0077  0.0648  0.3023
14454TIP3   OH264852   0.743   4.235  16.390 -0.2343  0.1873 -0.1741
14454TIP3    H164853   0.817   4.262  16.444 -0.1612 -1.1986  0.4411
14454TIP3    H264854   0.698   4.316  16.368  0.4448  0.8776  0.9527
14455TIP3   OH264855   3.983   2.335  13.263 -0.5522  0.5677 -0.7268
14455TIP3    H164856   3.953   2.380  13.342  0.9878  1.7044 -0.7699
14455TIP3    H264857   4.013   2.405  13.205  1.0997 -0.4591 -1.1379
14456TIP3   OH264858   1.913   1.018  11.806  0.5910 -0.5091  0.4640
14456TIP3    H164859   2.006   1.022  11.784  0.3964 -0.7213 -0.4285
14456TIP3    H264860   1.887   1.109  11.820  1.0891 -0.5095  1.3818
14457TIP3   OH264861   1.071   3.723   3.788 -0.1248  0.1310  0.3047
14457TIP3    H164862   1.075   3.684   3.875 -1.3781  0.0592  0.3445
14457TIP3    H264863   1.067   3.817   3.804  1.6406  0.2383  0.2471
14458TIP3   OH264864   4.321   2.681  13.090 -0.2378  0.5827  0.0356
14458TIP3    H164865   4.400   2.635  13.117 -0.0957 -0.3714 -1.9396
14458TIP3    H264866   4.336   2.772  13.116  1.3383  0.3362  0.0395
14459TIP3   OH264867   4.435   4.790  12.496  0.2675  0.1635  0.3567
14459TIP3    H164868   4.353   4.821  12.536  0.2216 -0.6663  0.9065
14459TIP3    H264869   4.427   4.814  12.403 -0.6310  0.0016  0.3927
14460TIP3   OH264870   6.335   3.646   2.730 -0.4114  0.2028 -0.3928
14460TIP3    H164871   6.374   3.724   2.768  3.0427 -0.6376 -1.9918
14460TIP3    H264872   6.345   3.579   2.797 -3.3100  1.0267  0.9502
14461TIP3   OH264873   1.689   3.905  15.641 -0.1853 -0.0580  0.1727
14461TIP3    H164874   1.643   3.861  15.712 -0.0935 -0.8297 -0.2444
14461TIP3    H264875   1.764   3.947  15.684  0.4654 -1.4136  0.3761
14462TIP3   OH264876   2.812   5.060   2.571  0.2647 -0.1667  0.1156
14462TIP3    H164877   2.870   5.129   2.601  1.0998 -0.9282  0.2743
14462TIP3    H264878   2.730   5.104   2.551  0.5192  0.7451  1.0397
14463TIP3   OH264879   3.817   3.263  17.283  0.2089  0.2020  1.3196
14463TIP3    H164880   3.750   3.217  17.334 -1.4476  1.5067  0.3582
14463TIP3    H264881   3.885   3.197  17.269 -1.5764 -1.6173  0.9745
14464TIP3   OH264882   1.461   5.695  14.771  0.1752 -0.0447 -0.0418
14464TIP3    H164883   1.476   5.603  14.793  0.3099  0.3593  1.7046
14464TIP3    H264884   1.520   5.713  14.698 -0.9333 -1.7230 -1.3693
14465TIP3   OH264885   3.754   4.419   3.568 -0.5223  0.4549  0.8227
14465TIP3    H164886   3.831   4.367   3.545 -0.6058  1.3849 -1.7311
14465TIP3    H264887   3.681   4.358   3.559 -0.4817  0.6174 -0.8743
14466TIP3   OH264888   5.423   1.756   5.497  0.3650  0.3185  0.2720
14466TIP3    H164889   5.508   1.721   5.523  0.9443  1.6292  0.2109
14466TIP3    H264890   5.359   1.696   5.535  1.2706  0.4921  2.1599
14467TIP3   OH264891   2.229   5.203  11.696 -0.5923  0.1936 -0.5097
14467TIP3    H164892   2.254   5.154  11.617  0.5989  0.4138 -0.2829
14467TIP3    H264893   2.275   5.287  11.687  1.0989 -0.5031  1.3133
14468TIP3   OH264894   3.663   3.549  12.252  0.1715 -0.1548  0.2759
14468TIP3    H164895   3.572   3.531  12.227  0.0318  0.8612  0.0396
14468TIP3    H264896   3.694   3.466  12.290 -1.6893  0.2832  2.8816
14469TIP3   OH264897   2.622   5.422  16.894 -0.6344 -0.4818  0.1220
14469TIP3    H164898   2.657   5.469  16.818 -2.1740  0.5795  0.0519
14469TIP3    H264899   2.699   5.397  16.944  0.3644 -0.5893 -1.4390
14470TIP3   OH264900   4.851   4.231   2.463 -0.1679 -0.1614  0.3744
14470TIP3    H164901   4.825   4.153   2.512  2.7775 -2.7662 -1.9691
14470TIP3    H264902   4.838   4.207   2.371  2.3798  1.4256 -0.4542
14471TIP3   OH264903   2.751   6.009   5.076  0.4326  0.4596 -0.2352
14471TIP3    H164904   2.800   5.956   5.138  0.7343 -0.2694 -1.0892
14471TIP3    H264905   2.814   6.071   5.041  0.2464  0.9167  0.2355
14472TIP3   OH264906   6.615   2.479   2.445  0.2766 -0.4369 -0.0562
14472TIP3    H164907   6.671   2.492   2.522  0.7112 -0.2684 -0.4018
14472TIP3    H264908   6.576   2.565   2.429 -0.2348 -0.5985  0.2999
14473TIP3   OH264909   0.726   3.986  11.301 -0.3994  0.7287  0.2528
14473TIP3    H164910   0.687   3.899  11.315 -0.0134 -0.0166 -2.9880
14473TIP3    H264911   0.760   4.011  11.387 -0.8205 -2.1814  1.3187
14474TIP3   OH264912   6.814   0.262  13.666 -0.6614  0.6195  0.2899
14474TIP3    H164913   6.820   0.343  13.616  1.2906  0.9522  1.0151
14474TIP3    H264914   6.780   0.288  13.751  2.4124  1.1123  1.4133
14475TIP3   OH264915   1.838   1.118   0.569 -0.4883 -0.2030 -0.1152
14475TIP3    H164916   1.811   1.026   0.569 -0.9894 -0.0797  2.9563
14475TIP3    H264917   1.765   1.164   0.610 -0.1543  1.5780 -1.4682
14476TIP3   OH264918   5.537   1.811  13.376  0.1187 -0.4734 -0.0007
14476TIP3    H164919   5.594   1.739  13.403 -0.0986 -0.7936 -0.3958
14476TIP3    H264920   5.566   1.886  13.429  0.6403 -0.7360  0.0858
14477TIP3   OH264921   6.492   5.973  13.484  0.1906  0.4640  0.0629
14477TIP3    H164922   6.453   5.889  13.506  0.2341  0.6395  0.8088
14477TIP3    H264923   6.418   6.030  13.464  0.1722  0.1805 -0.7093
14478TIP3   OH264924   0.223   1.004   5.219  0.6803  0.2575 -0.3373
14478TIP3    H164925   0.313   1.038   5.223  0.9756 -0.5299 -0.2958
14478TIP3    H264926   0.230   0.914   5.251  0.2300 -0.4969 -2.3048
14479TIP3   OH264927   2.166   0.454  11.544 -0.4590 -0.1607 -0.7423
14479TIP3    H164928   2.201   0.543  11.536 -0.8045  0.2424  1.8923
14479TIP3    H264929   2.075   0.462  11.514 -0.4222  0.3174 -0.7413
14480TIP3   OH264930   2.825   0.591   1.039 -0.0975 -0.0352  0.0077
14480TIP3    H164931   2.844   0.671   1.087  0.9778  0.2246 -0.8357
14480TIP3    H264932   2.758   0.616   0.975 -1.8729 -0.4880  1.6410
14481TIP3   OH264933   1.881   4.337  13.705  0.7018  0.2744 -0.5011
14481TIP3    H164934   1.923   4.331  13.790 -1.3535  0.4022  0.5464
14481TIP3    H264935   1.810   4.273  13.708  0.8643 -0.0295 -2.2737
14482TIP3   OH264936   0.492   5.959   1.649 -1.0955  0.2178  0.0275
14482TIP3    H164937   0.541   6.026   1.697 -0.3121  0.5740 -1.2328
14482TIP3    H264938   0.556   5.890   1.632 -1.5619 -0.2496  0.1500
14483TIP3   OH264939   4.214   4.107   0.289  0.5542  0.3023  0.4618
14483TIP3    H164940   4.137   4.164   0.293  0.7189  0.5235  0.5114
14483TIP3    H264941   4.287   4.167   0.272  0.6670  0.0542  0.0645
14484TIP3   OH264942   3.628   0.557  13.277  0.8590 -0.2881  0.0406
14484TIP3    H164943   3.710   0.511  13.291  1.2198  0.2205 -0.3980
14484TIP3    H264944   3.635   0.594  13.189 -0.2290 -1.0510 -0.3854
14485TIP3   OH264945   1.188   6.506   1.861 -0.1637  0.3158  0.0790
14485TIP3    H164946   1.150   6.572   1.920  0.5191 -0.4354  1.3825
14485TIP3    H264947   1.275   6.540   1.839  0.6352 -0.6380  1.6389
14486TIP3   OH264948   6.392   4.649  16.158 -0.0420 -0.2458  0.3051
14486TIP3    H164949   6.361   4.667  16.070  1.1228  0.4696  0.0290
14486TIP3    H264950   6.346   4.713  16.213  0.7665  0.6837 -0.0792
14487TIP3   OH264951   2.728   4.833   6.403  0.0124 -0.3842  0.4870
14487TIP3    H164952   2.768   4.892   6.467 -0.2731  0.4989 -0.1296
14487TIP3    H264953   2.692   4.892   6.337  1.4848 -1.3243 -1.1913
14488TIP3   OH264954   6.370   6.337   4.252  0.1095 -0.3100 -0.1541
14488TIP3    H164955   6.363   6.398   4.178 -1.8646  0.3928  0.5964
14488TIP3    H264956   6.440   6.277   4.226  0.8419  1.1575 -1.7072
14489TIP3   OH264957   4.340   1.318  14.863 -0.3243 -0.0156 -0.6785
14489TIP3    H164958   4.379   1.313  14.950  1.8526 -0.8113 -1.6364
14489TIP3    H264959   4.251   1.287  14.874  0.2259 -1.0151  1.0925
14490TIP3   OH264960   2.875   5.193  13.287  0.5281  0.1905 -0.3347
14490TIP3    H164961   2.944   5.225  13.345  0.3156 -2.1815  1.2889
14490TIP3    H264962   2.918   5.128  13.231 -0.1845 -0.6752  0.1131
14491TIP3   OH264963   1.334   0.100   0.667  0.6458  0.3968 -0.3663
14491TIP3    H164964   1.413   0.087   0.613  0.4637  2.9628 -1.3359
14491TIP3    H264965   1.262   0.072   0.611  0.5684  1.7787 -0.9761
14492TIP3   OH264966   3.845   6.336   4.110 -0.1973 -0.2643 -0.2033
14492TIP3    H164967   3.900   6.260   4.127 -0.3758 -0.7586 -1.7673
14492TIP3    H264968   3.898   6.411   4.138  1.3747 -0.7136 -1.8815
14493TIP3   OH264969   3.763   0.654   4.824  0.1431  0.0262  0.2631
14493TIP3    H164970   3.690   0.686   4.769 -0.8476  0.3415  1.7196
14493TIP3    H264971   3.742   0.688   4.911  1.3938 -0.9696  0.9465
14494TIP3   OH264972   4.659   6.048  15.312 -0.4922  0.3053  0.2455
14494TIP3    H164973   4.706   6.069  15.393 -0.6922 -0.9905  0.7029
14494TIP3    H264974   4.568   6.041  15.338 -0.3526 -1.8095  0.2466
14495TIP3   OH264975   5.378   6.206   0.348 -0.5113  0.3039  0.4363
14495TIP3    H164976   5.455   6.150   0.348 -0.1664  0.7774  1.5101
14495TIP3    H264977   5.306   6.148   0.371 -0.5874 -0.2634 -1.1227
14496TIP3   OH264978   5.633   0.291   3.832  0.0997 -0.5312 -0.5576
14496TIP3    H164979   5.547   0.329   3.816 -0.5722 -1.6100  0.3655
14496TIP3    H264980   5.669   0.343   3.904  1.1324  1.2699 -2.3167
14497TIP3   OH264981   3.026   2.863   3.810  0.7910  0.2217 -0.2386
14497TIP3    H164982   2.973   2.877   3.888  0.2004 -0.6324 -0.4805
14497TIP3    H264983   3.066   2.948   3.792  0.3490  0.5990  0.5657
14498TIP3   OH264984   2.769   1.078  12.098 -0.2930  0.6589  0.1229
14498TIP3    H164985   2.674   1.079  12.092 -0.2062 -0.9146 -1.8938
14498TIP3    H264986   2.791   0.987  12.116  0.9348  0.4844 -2.0455
14499TIP3   OH264987   3.951   2.386   3.381 -0.1012  0.0477 -0.0214
14499TIP3    H164988   3.893   2.399   3.456 -1.2099  0.4982 -0.9367
14499TIP3    H264989   3.908   2.433   3.310  0.9212 -0.4077 -0.9482
14500TIP3   OH264990   5.776   5.924   2.394 -0.0384  0.4447  0.4748
14500TIP3    H164991   5.868   5.948   2.406  0.6166 -1.1681 -1.0619
14500TIP3    H264992   5.729   5.975   2.460  1.5666  3.8957 -0.9189
14501TIP3   OH264993   2.508   0.675   3.594 -0.5477  0.3359 -0.2095
14501TIP3    H164994   2.466   0.741   3.649 -0.3811 -0.8221  1.3669
14501TIP3    H264995   2.585   0.649   3.644 -1.0087 -1.5718 -0.4605
14502TIP3   OH264996   6.164   0.444  15.058  0.3896  0.5972  0.1088
14502TIP3    H164997   6.255   0.461  15.085  1.4140 -1.4056 -1.8758
14502TIP3    H264998   6.133   0.378  15.121  0.9778 -0.1339 -0.3549
14503TIP3   OH264999   5.264   3.713   1.908  0.3623  0.4981  0.3397
14503TIP3    H165000   5.232   3.654   1.977  3.1339 -0.9403  0.4435
14503TIP3    H265001   5.239   3.669   1.826  1.1600 -0.1164  0.4218
14504TIP3   OH265002   2.333   6.030  16.674 -0.0408  0.2077 -0.1918
14504TIP3    H165003   2.302   6.066  16.757  0.2406 -0.4668  0.2071
14504TIP3    H265004   2.365   6.106  16.626  1.0544  0.4264  0.8651
14505TIP3   OH265005   3.593   4.039   1.629 -0.1581  0.0561  0.0420
14505TIP3    H165006   3.609   4.080   1.714 -1.0186 -0.2930  0.3805
14505TIP3    H265007   3.661   4.074   1.572  1.2270 -0.6884  1.2071
14506TIP3   OH265008   0.554   4.079   0.333  0.0708  0.0386  0.4210
14506TIP3    H165009   0.634   4.131   0.330  0.2606 -0.2391  0.7127
14506TIP3    H265010   0.515   4.090   0.246  0.1847  0.5510  0.4388
14507TIP3   OH265011   1.946   2.139   4.971 -0.5971  0.4644 -0.4163
14507TIP3    H165012   1.956   2.045   4.960 -0.1517  0.6728 -2.0318
14507TIP3    H265013   1.954   2.154   5.065 -2.6348 -1.3218  0.0651
14508TIP3   OH265014   2.167   5.285  16.325  0.2801 -0.2078 -0.3065
14508TIP3    H165015   2.245   5.246  16.286  1.1656  0.3902  0.8143
14508TIP3    H265016   2.126   5.333  16.254  1.0013 -0.4298 -0.8832
14509TIP3   OH265017   1.243   6.086  15.289 -0.3783 -0.1826  0.4550
14509TIP3    H165018   1.226   6.001  15.329 -0.8298 -0.9604 -1.3624
14509TIP3    H265019   1.167   6.139  15.313 -0.7154 -0.6832  0.4919
14510TIP3   OH265020   1.895   3.409   1.864 -0.2430  0.3551  0.6135
14510TIP3    H165021   1.978   3.401   1.912  0.0296 -2.4914 -0.2164
14510TIP3    H265022   1.893   3.331   1.807 -1.8876  2.1548 -1.8938
14511TIP3   OH265023   3.705   6.583   1.304  0.6718 -0.1372  0.7713
14511TIP3    H165024   3.645   6.532   1.358 -0.7605 -0.5172 -1.1025
14511TIP3    H265025   3.792   6.563   1.338  0.0277 -2.7053  0.9876
14512TIP3   OH265026   4.607   0.821  13.869  0.4936  0.6915  0.3698
14512TIP3    H165027   4.700   0.843  13.867  0.3595  1.2337  0.0123
14512TIP3    H265028   4.564   0.895  13.827  0.1014 -0.6191 -1.6116
14513TIP3   OH265029   5.758   3.904   4.867  0.3692 -0.1410  0.4436
14513TIP3    H165030   5.749   3.992   4.831 -0.9583 -0.0431  0.9704
14513TIP3    H265031   5.797   3.917   4.953  3.2459 -0.3493 -0.7978
14514TIP3   OH265032   1.235   3.004  11.352  0.2802  0.1267  0.3867
14514TIP3    H165033   1.149   3.046  11.354  0.5744  0.9187 -2.2994
14514TIP3    H265034   1.290   3.058  11.409 -0.9027 -0.2245  1.8785
14515TIP3   OH265035   5.248   1.457  11.641 -0.1793 -0.6265  0.2802
14515TIP3    H165036   5.261   1.411  11.558  0.5029  0.5889 -0.3110
14515TIP3    H265037   5.236   1.388  11.706 -0.5537 -1.5908 -0.8088
14516TIP3   OH265038   3.289   5.722  12.536  0.2469 -0.5640  0.5637
14516TIP3    H165039   3.274   5.641  12.584 -0.1012 -0.6713  0.2687
14516TIP3    H265040   3.202   5.754  12.513  0.4384 -0.9153 -0.6764
14517TIP3   OH265041   2.827   3.915  13.389 -0.4833  0.6029 -0.0655
14517TIP3    H165042   2.823   3.995  13.441  0.8856  0.6004  0.0584
14517TIP3    H265043   2.853   3.944  13.302 -3.1069  0.6430 -0.8513
14518TIP3   OH265044   0.954   0.024   3.550  0.1548 -0.6129 -0.9353
14518TIP3    H165045   1.012   0.015   3.475  0.8997 -0.7947 -0.3481
14518TIP3    H265046   0.866   0.027   3.513  0.5363 -0.3730 -1.8333
14519TIP3   OH265047   1.100   4.341  15.370  0.1685  0.1445  0.0835
14519TIP3    H165048   1.061   4.273  15.315  1.6513 -0.7179  0.0627
14519TIP3    H265049   1.094   4.421  15.318  1.5319 -0.6554 -1.3328
14520TIP3   OH265050   1.722   3.039   4.799 -0.0497 -0.3872  0.4269
14520TIP3    H165051   1.667   2.980   4.850 -0.3097 -0.2694  0.2801
14520TIP3    H265052   1.710   3.125   4.840  0.1961 -0.4030  0.5331
14521TIP3   OH265053   5.073   5.936  16.151  0.4687 -0.6981  0.0461
14521TIP3    H165054   5.090   5.904  16.062  0.6592  0.2477 -0.2614
14521TIP3    H265055   5.063   5.857  16.203 -1.0389 -1.2897 -1.0907
14522TIP3   OH265056   5.783   5.911   0.945  0.1276 -0.2369 -0.1075
14522TIP3    H165057   5.803   5.904   0.851 -0.5885 -0.6403 -0.2323
14522TIP3    H265058   5.826   5.992   0.973  2.5958 -1.4350 -0.2126
14523TIP3   OH265059   4.109   1.823   3.172 -0.3450  0.8507  0.3890
14523TIP3    H165060   4.173   1.894   3.161  0.8920 -0.6480 -2.8100
14523TIP3    H265061   4.162   1.745   3.189 -1.4582  0.0673  0.3113
14524TIP3   OH265062   1.066   6.050   2.448 -0.1601 -0.3148 -0.2943
14524TIP3    H165063   1.098   6.090   2.366  0.2996  0.7049  0.3729
14524TIP3    H265064   1.099   5.960   2.445 -0.9929 -0.6067 -1.7010
14525TIP3   OH265065   5.747   1.249  14.511  0.4391 -0.8723  0.3898
14525TIP3    H165066   5.693   1.170  14.506  0.5110 -0.8331 -1.8416
14525TIP3    H265067   5.684   1.321  14.510  0.4601 -0.8293 -2.1054
14526TIP3   OH265068   1.338   3.074  15.439 -0.0736 -0.1266  0.0628
14526TIP3    H165069   1.351   2.984  15.466 -1.5067 -0.6044 -0.7627
14526TIP3    H265070   1.414   3.121  15.473 -0.7257 -1.1055  3.0074
14527TIP3   OH265071   2.564   3.914  13.036 -0.1882  0.1472 -0.5515
14527TIP3    H165072   2.653   3.890  13.009  0.0322  0.9306 -0.5496
14527TIP3    H265073   2.514   3.917  12.954  0.4329  2.3197 -0.9026
14528TIP3   OH265074   5.691   5.702  16.148  0.0114  0.4166  0.2208
14528TIP3    H165075   5.730   5.625  16.189  0.8763  0.8777  0.2674
14528TIP3    H265076   5.701   5.771  16.214  2.1893  1.3821 -1.0947
14529TIP3   OH265077   0.482   4.629   0.917  0.0946  0.2422 -0.0643
14529TIP3    H165078   0.523   4.554   0.873  0.3108 -0.2290  0.9200
14529TIP3    H265079   0.536   4.704   0.891  1.4411 -0.3301  1.0116
14530TIP3   OH265080   1.341   2.415   6.346  0.2160 -0.9780  1.3975
14530TIP3    H165081   1.290   2.343   6.383 -0.1835 -1.9102 -0.8567
14530TIP3    H265082   1.431   2.397   6.372  0.0908 -2.2087  1.0128
14531TIP3   OH265083   3.445   6.030   1.838 -0.1386  0.1555  0.4001
14531TIP3    H165084   3.435   6.077   1.921  0.1822 -0.8267  1.0130
14531TIP3    H265085   3.459   5.939   1.865 -1.1976 -0.3648 -0.7614
14532TIP3   OH265086   0.075   5.450  11.884 -0.0078  0.4852 -0.1844
14532TIP3    H165087  -0.018   5.466  11.873 -0.5076 -2.2084 -0.2454
14532TIP3    H265088   0.093   5.373  11.829  1.7463 -0.4805  1.6710
14533TIP3   OH265089   2.675   6.811  16.100  0.1362  0.1012 -0.1824
14533TIP3    H165090   2.685   6.845  16.189 -0.4883 -2.6786  0.9829
14533TIP3    H265091   2.581   6.810  16.085  0.1005 -1.9064  0.1260
14534TIP3   OH265092   3.977   1.453  14.978 -0.4221  0.4737 -0.1757
14534TIP3    H165093   3.993   1.417  15.065 -0.5578  0.1554 -0.2801
14534TIP3    H265094   4.017   1.390  14.918 -3.3909 -1.1813 -0.5313
14535TIP3   OH265095   4.773   5.754  15.679  0.2685  0.1777  0.5530
14535TIP3    H165096   4.717   5.685  15.642 -0.9753  0.6220  1.5689
14535TIP3    H265097   4.860   5.715  15.681  0.5269  0.3416 -3.3651
14536TIP3   OH265098   5.077   2.073   5.932  0.1367  0.2945 -0.0552
14536TIP3    H165099   5.096   2.033   6.017 -0.8043  0.7248  0.3722
14536TIP3    H265100   5.082   2.001   5.870  1.4011  0.0785  0.2803
14537TIP3   OH265101   5.004   6.619   4.973  0.3809  0.2984 -0.1827
14537TIP3    H165102   5.038   6.695   4.926  4.0238 -0.8659  0.3268
14537TIP3    H265103   5.048   6.544   4.931 -1.5460 -1.3368  0.6503
14538TIP3   OH265104   4.793   2.591  11.209  0.3589 -0.2298 -0.4214
14538TIP3    H165105   4.802   2.530  11.282 -1.8786 -2.4570 -1.9506
14538TIP3    H265106   4.866   2.652  11.220  0.2126 -0.6532  3.5066
14539TIP3   OH265107   6.685   2.616  15.284  0.3223  0.3668  0.1415
14539TIP3    H165108   6.763   2.562  15.277  0.3069  0.3176  0.3423
14539TIP3    H265109   6.630   2.589  15.210 -0.3913 -1.0155  1.1666
14540TIP3   OH265110   3.008   1.605   0.031 -0.4069 -0.1590 -0.0213
14540TIP3    H165111   3.055   1.550  -0.032 -0.5683 -0.0124 -0.2737
14540TIP3    H265112   3.049   1.691   0.024  0.7175 -0.5779  1.3354
14541TIP3   OH265113   2.500   5.606   3.164 -0.1845 -0.4149 -0.1955
14541TIP3    H165114   2.487   5.690   3.120  1.2300 -0.4267 -0.6572
14541TIP3    H265115   2.589   5.610   3.200  0.7583 -2.5441 -2.1327
14542TIP3   OH265116   3.480   2.648  12.103  0.2882 -0.0560  0.1710
14542TIP3    H165117   3.521   2.586  12.043 -3.5694  0.6468 -3.4165
14542TIP3    H265118   3.413   2.597  12.149  0.0599  0.4457  0.4009
14543TIP3   OH265119   4.773   3.028   0.977 -0.1458  0.3152 -0.0301
14543TIP3    H165120   4.780   3.123   0.991  1.4479  0.1330  0.5651
14543TIP3    H265121   4.841   2.991   1.033 -0.3472 -1.1445 -0.7323
14544TIP3   OH265122   3.979   4.765   0.648  0.2294 -0.1010 -0.2362
14544TIP3    H165123   3.897   4.807   0.622 -0.6290 -0.5302  1.7280
14544TIP3    H265124   3.958   4.671   0.651  1.1851 -0.3525 -1.1335
14545TIP3   OH265125   0.525   4.362  12.799 -0.4827 -0.5425 -0.3332
14545TIP3    H165126   0.459   4.429  12.781 -1.4229 -1.0067  1.2093
14545TIP3    H265127   0.474   4.283  12.819  0.5171 -0.8302  1.1878
14546TIP3   OH265128   2.295   3.188  13.564 -0.4922 -0.2828  0.1804
14546TIP3    H165129   2.292   3.242  13.643 -0.4099 -2.2490  1.5643
14546TIP3    H265130   2.292   3.098  13.596 -0.5099 -1.1222 -2.0707
14547TIP3   OH265131   3.461   1.405   5.249 -0.1639  0.0133 -0.1792
14547TIP3    H165132   3.389   1.344   5.234 -0.2275 -0.7268  2.7496
14547TIP3    H265133   3.539   1.357   5.220 -0.5254 -0.3277 -0.5954
14548TIP3   OH265134   3.131   0.911  12.253  0.1368 -0.4557 -0.5021
14548TIP3    H165135   3.113   0.868  12.169  0.6928 -1.5261 -0.0937
14548TIP3    H265136   3.139   1.004  12.232 -0.4448 -0.6306 -1.5172
14549TIP3   OH265137   0.450   2.983   0.097 -0.5155 -0.1220 -0.2156
14549TIP3    H165138   0.445   2.906   0.154 -0.5713  1.2432  1.6786
14549TIP3    H265139   0.543   3.001   0.088 -0.3895 -1.7492 -2.5626
14550TIP3   OH265140   4.857   0.910  12.324 -0.1599  0.0802 -0.4806
14550TIP3    H165141   4.880   0.834  12.378 -1.6147  1.3876  2.0265
14550TIP3    H265142   4.942   0.944  12.294  0.8173  0.1931  2.2194
14551TIP3   OH265143   1.642   6.501  14.366 -0.4193  0.4440  0.1147
14551TIP3    H165144   1.618   6.409  14.357  0.8974  0.1356 -0.2918
14551TIP3    H265145   1.714   6.502  14.428  0.9002  0.9866 -1.3883
14552TIP3   OH265146   5.466   4.573  15.479 -0.1234  1.0839 -0.0961
14552TIP3    H165147   5.489   4.545  15.568 -0.2900  0.0436 -0.3763
14552TIP3    H265148   5.532   4.638  15.457  1.4473 -0.5138 -0.1786
14553TIP3   OH265149   5.710   5.830  16.393 -0.1776  0.7191  0.3777
14553TIP3    H165150   5.713   5.924  16.407  0.8595  0.5568  1.3361
14553TIP3    H265151   5.704   5.793  16.482  0.5304 -0.1499  0.0710
14554TIP3   OH265152   6.579   1.336   4.650  0.6237  0.3994 -0.3827
14554TIP3    H165153   6.629   1.392   4.710  2.9910  0.8550 -2.7118
14554TIP3    H265154   6.487   1.361   4.665  1.3034  1.7894  1.7150
14555TIP3   OH265155   0.008   6.189  15.696  0.3132 -0.2658 -0.0275
14555TIP3    H165156   0.071   6.116  15.690  0.6877  0.1586 -1.6564
14555TIP3    H265157   0.006   6.211  15.789  0.5603 -2.0429  0.4171
14556TIP3   OH265158   2.056   1.564   2.568  0.1341  0.2279 -0.4151
14556TIP3    H165159   2.031   1.656   2.583  1.4003  0.7919 -1.6473
14556TIP3    H265160   2.096   1.564   2.481  2.1645 -1.0904  0.4909
14557TIP3   OH265161   4.899   5.252  16.595  0.0080 -0.6476 -0.2986
14557TIP3    H165162   4.937   5.193  16.529  0.1465  0.7350 -1.4657
14557TIP3    H265163   4.933   5.338  16.574 -0.1534 -0.1276  1.4424
14558TIP3   OH265164   5.209   0.432  11.345 -0.4429 -0.3172 -0.1639
14558TIP3    H165165   5.235   0.518  11.313 -0.3200 -0.2452  0.1247
14558TIP3    H265166   5.116   0.441  11.368  0.2136  0.4712  2.3189
14559TIP3   OH265167   0.761   4.190   3.762 -0.1648  0.1994 -0.4769
14559TIP3    H165168   0.701   4.174   3.835 -0.6228  1.5855 -0.5285
14559TIP3    H265169   0.845   4.155   3.791 -1.5198 -3.9768 -1.3578
14560TIP3   OH265170   0.783   1.238   2.183 -0.0922 -0.0231 -0.0180
14560TIP3    H165171   0.856   1.176   2.176 -0.7303 -0.7066 -0.6692
14560TIP3    H265172   0.723   1.197   2.246  0.8499  1.3170  1.7815
14561TIP3   OH265173   0.858   2.591   0.708  0.7018 -0.0574  0.0063
14561TIP3    H165174   0.883   2.670   0.756  1.2043  0.4932 -1.1486
14561TIP3    H265175   0.933   2.573   0.651 -0.0471 -0.4952 -0.8471
14562TIP3   OH265176   4.193   1.269   4.131 -0.9326 -0.1816  0.5838
14562TIP3    H165177   4.181   1.176   4.112 -0.3381  0.1931 -1.7761
14562TIP3    H265178   4.155   1.280   4.218 -0.9085 -2.6460  0.9626
14563TIP3   OH265179   3.837   3.147   1.187 -0.7392 -0.5346  0.4133
14563TIP3    H165180   3.770   3.172   1.124 -0.9532 -0.1042  0.8070
14563TIP3    H265181   3.843   3.051   1.180 -1.1063 -0.5334  0.0954
14564TIP3   OH265182   5.363   5.511   4.730  0.1381 -0.6675 -0.2553
14564TIP3    H165183   5.384   5.587   4.784 -1.5131 -1.7102  1.9232
14564TIP3    H265184   5.422   5.442   4.761  0.2829 -0.8233 -0.8764
14565TIP3   OH265185   3.450   2.122  17.106 -0.1978  0.9292 -0.0020
14565TIP3    H165186   3.388   2.118  17.178 -0.9103 -0.2963 -0.6632
14565TIP3    H265187   3.531   2.084  17.141 -0.8416 -0.6071 -0.1329
14566TIP3   OH265188   2.363   2.966  14.193  0.3396 -0.8300 -0.0025
14566TIP3    H165189   2.372   3.031  14.263  1.2068 -2.1022  1.0910
14566TIP3    H265190   2.447   2.971  14.146  0.8232 -1.8677  0.7257
14567TIP3   OH265191   0.864   6.513   0.288 -0.1788  0.1065 -0.3720
14567TIP3    H165192   0.869   6.567   0.209  0.0656 -1.0840 -1.1803
14567TIP3    H265193   0.782   6.465   0.280 -0.0613 -0.1643  0.0080
14568TIP3   OH265194   3.373   5.105   1.367 -0.0287 -0.3676  0.6755
14568TIP3    H165195   3.454   5.069   1.402  0.2950 -1.2402 -0.9107
14568TIP3    H265196   3.401   5.176   1.309 -0.5161  0.6178  1.6243
14569TIP3   OH265197   3.077   1.370   1.419  0.2947 -0.4136  0.4353
14569TIP3    H165198   3.101   1.433   1.351 -0.7930  0.1831  0.5844
14569TIP3    H265199   3.159   1.327   1.442  0.8112 -0.0473 -0.6788
14570TIP3   OH265200   3.554   2.659  11.647  0.6705  0.1356 -0.4133
14570TIP3    H165201   3.465   2.643  11.616  0.4999 -0.2363  0.2524
14570TIP3    H265202   3.550   2.745  11.688  0.1766 -0.6419  1.2129
14571TIP3   OH265203   2.331   2.827  16.974  0.1890  0.6952  0.3277
14571TIP3    H165204   2.357   2.816  17.065  0.1470 -0.9738  0.1498
14571TIP3    H265205   2.341   2.921  16.957  1.9225  0.7422  1.5203
14572TIP3   OH265206   4.980   5.884   0.359  0.3881 -0.0842  0.3290
14572TIP3    H165207   4.913   5.942   0.323  0.3165 -0.2595  0.1765
14572TIP3    H265208   4.945   5.796   0.344  1.1470 -0.2168 -0.7401
14573TIP3   OH265209   5.893   5.495   0.513 -0.5385  0.1200 -0.4512
14573TIP3    H165210   5.964   5.485   0.576 -0.7059 -0.1109 -0.2993
14573TIP3    H265211   5.836   5.561   0.551 -2.3803 -2.3201  1.2462
14574TIP3   OH265212   0.575   2.327   1.446 -0.2951  0.5074 -0.4480
14574TIP3    H165213   0.670   2.326   1.440 -0.0393 -1.1068  2.6823
14574TIP3    H265214   0.556   2.316   1.540 -3.5492  2.0792 -0.8390
14575TIP3   OH265215   4.792   4.524  16.521  0.3753  0.0939 -0.0114
14575TIP3    H165216   4.847   4.460  16.477  1.4328  1.1102 -0.1836
14575TIP3    H265217   4.707   4.517  16.477  0.4560 -1.2288  0.0286
14576TIP3   OH265218   3.618   0.985   5.762 -0.1047 -0.1724 -0.0860
14576TIP3    H165219   3.616   0.891   5.746  0.1985 -0.2922  0.5643
14576TIP3    H265220   3.606   1.024   5.675  0.2177 -0.8056 -0.4207
14577TIP3   OH265221   4.201   2.924   2.301  0.1616  0.6896  0.1537
14577TIP3    H165222   4.191   2.994   2.237 -2.8701 -1.3980 -1.7995
14577TIP3    H265223   4.111   2.901   2.325  1.0030 -3.4392 -0.3221
14578TIP3   OH265224   2.676   4.119  14.629  0.1888  0.0760 -0.1018
14578TIP3    H165225   2.615   4.106  14.557 -1.7019  1.8815  1.1077
14578TIP3    H265226   2.664   4.043  14.685 -0.7113  0.2463 -0.0538
14579TIP3   OH265227   3.930   6.422   1.850 -0.7932 -0.2465  0.6102
14579TIP3    H165228   3.958   6.383   1.933  0.8621 -0.1604  0.1077
14579TIP3    H265229   4.010   6.427   1.798 -1.9540 -1.0119 -1.2812
14580TIP3   OH265230   0.974   1.232   1.165 -0.4884  0.7839 -0.0698
14580TIP3    H165231   0.982   1.159   1.103 -1.3437  2.3009 -2.0082
14580TIP3    H265232   0.902   1.206   1.223  0.1012 -0.5029  0.1129
14581TIP3   OH265233   3.167   2.059  14.711 -0.0172 -0.6279 -0.2730
14581TIP3    H165234   3.174   2.113  14.789  0.9213  0.7024 -1.2692
14581TIP3    H265235   3.128   1.977  14.742  1.7473 -0.6962  1.8458
14582TIP3   OH265236   2.291   6.513   3.252 -0.1753 -0.4437  0.1633
14582TIP3    H165237   2.344   6.476   3.182  0.8749 -0.1314  0.7876
14582TIP3    H265238   2.350   6.572   3.299 -0.3712 -1.9511  2.3864
14583TIP3   OH265239   4.178   0.868  11.543 -0.1306  0.0608  0.2495
14583TIP3    H165240   4.139   0.796  11.493  0.3104 -0.5297  0.7662
14583TIP3    H265241   4.113   0.939  11.536 -0.5937 -0.4018 -0.1984
14584TIP3   OH265242   5.836   3.531  10.683  0.3834  0.2798  0.2483
14584TIP3    H165243   5.792   3.615  10.672  0.0480  0.3643  2.0028
14584TIP3    H265244   5.889   3.521  10.604 -0.1560  1.7786 -0.3259
14585TIP3   OH265245   1.341   2.463  16.721 -0.1660  0.0676 -0.0080
14585TIP3    H165246   1.285   2.429  16.791 -1.5476 -0.3332 -1.2697
14585TIP3    H265247   1.405   2.517  16.766 -1.5806  0.5544  1.4978
14586TIP3   OH265248   2.556   2.297  16.752  0.3705  0.1586 -0.2151
14586TIP3    H165249   2.547   2.385  16.787 -0.3987  0.6270 -1.5414
14586TIP3    H265250   2.472   2.255  16.771  0.4290 -0.0042 -0.3108
14587TIP3   OH265251   0.408   6.218  11.769  0.1865 -1.1804 -0.3828
14587TIP3    H165252   0.317   6.193  11.753  0.1663 -1.2341 -0.1855
14587TIP3    H265253   0.449   6.216  11.683 -0.2108 -0.2899 -0.5968
14588TIP3   OH265254   2.744   2.540   0.092  0.1901 -0.7153  0.0497
14588TIP3    H165255   2.832   2.571   0.072 -0.0865  0.6587  0.8928
14588TIP3    H265256   2.715   2.496   0.012  1.5136 -0.9104 -0.3407
14589TIP3   OH265257   0.290   4.849   0.930  0.5717  0.1204 -0.4456
14589TIP3    H165258   0.205   4.804   0.932 -0.5916  2.0534 -3.4285
14589TIP3    H265259   0.352   4.782   0.904 -0.4965 -0.7009 -0.9366
14590TIP3   OH265260   5.204   6.514   1.951 -0.0665  0.2815 -0.3408
14590TIP3    H165261   5.169   6.603   1.964 -1.3911 -0.1278 -1.0563
14590TIP3    H265262   5.188   6.470   2.035 -0.5652  0.3309 -0.4095
14591TIP3   OH265263   5.617   2.166  11.948 -0.7427  0.7684 -0.0592
14591TIP3    H165264   5.707   2.161  11.980 -0.0353 -0.0174 -2.0720
14591TIP3    H265265   5.563   2.152  12.026  0.9185 -1.8176  0.7145
14592TIP3   OH265266   4.789   2.312  12.278  0.6920  0.4646  0.6347
14592TIP3    H165267   4.803   2.405  12.258  0.0930  0.8381  1.9124
14592TIP3    H265268   4.810   2.304  12.371  0.7194 -0.6757  0.5352
14593TIP3   OH265269   2.916   6.201  11.605  0.1318  0.0151 -0.0646
14593TIP3    H165270   2.897   6.255  11.528 -1.2516 -0.6427 -0.1962
14593TIP3    H265271   3.001   6.233  11.636 -1.1065  3.0172  0.4949
14594TIP3   OH265272   1.014   0.987  13.229 -0.2984 -0.1750  0.1388
14594TIP3    H165273   0.975   1.023  13.149  0.1425  0.5465  0.2452
14594TIP3    H265274   1.106   1.011  13.223 -0.4870  0.9538  1.4591
14595TIP3   OH265275   0.220   3.219  12.480  0.1209 -0.1396 -0.2905
14595TIP3    H165276   0.290   3.265  12.526  1.1760  0.0719 -2.0720
14595TIP3    H265277   0.254   3.204  12.392 -1.2151 -2.0153 -0.5305
14596TIP3   OH265278   3.510   6.270  12.050  0.5169  0.2971 -0.3149
14596TIP3    H165279   3.592   6.223  12.033  1.1074  0.7249  1.2216
14596TIP3    H265280   3.527   6.359  12.017  1.6131  1.0890  2.2532
14597TIP3   OH265281   2.697   1.439   3.787  1.1699 -0.2509 -1.1726
14597TIP3    H165282   2.734   1.431   3.875 -1.0515 -2.4764 -0.4028
14597TIP3    H265283   2.719   1.357   3.744  1.1854  0.3392 -2.3023
14598TIP3   OH265284   6.358   2.894   2.527  0.6700  0.0575  0.5412
14598TIP3    H165285   6.296   2.848   2.584  0.6670 -0.1269  0.3912
14598TIP3    H265286   6.414   2.943   2.587 -1.0896  2.0878  0.5958
14599TIP3   OH265287   6.535   2.293   1.862  0.3391 -0.2146  0.0366
14599TIP3    H165288   6.494   2.230   1.922  0.5824 -1.6549 -1.2549
14599TIP3    H265289   6.621   2.311   1.900  0.0226 -0.1763  0.7434
14600TIP3   OH265290   2.709   3.850   1.373  0.6687 -0.0321 -0.0924
14600TIP3    H165291   2.637   3.914   1.374 -0.0045 -0.7763  0.0397
14600TIP3    H265292   2.711   3.816   1.463 -0.6200 -1.9866 -0.7735
14601TIP3   OH265293   0.574   1.229  14.562 -0.7544  0.4154  0.0652
14601TIP3    H165294   0.609   1.147  14.527 -2.7678 -0.2639 -0.4084
14601TIP3    H265295   0.490   1.241  14.518 -0.3009  2.9823 -0.2176
14602TIP3   OH265296   3.652   4.640  10.955 -0.1641 -0.1042 -0.4199
14602TIP3    H165297   3.741   4.618  10.929 -0.0246  0.7931 -0.7138
14602TIP3    H265298   3.612   4.675  10.876 -0.2435  1.1264  0.1636
14603TIP3   OH265299   0.282   1.698   2.498 -0.2062  0.2473  0.1918
14603TIP3    H165300   0.268   1.751   2.419 -1.1711 -0.5758 -0.1989
14603TIP3    H265301   0.251   1.753   2.570  0.2669  0.8295 -0.0434
14604TIP3   OH265302   1.838   0.840   0.562 -0.2970  0.0633 -0.2675
14604TIP3    H165303   1.841   0.827   0.657 -3.4503  1.6506  0.1150
14604TIP3    H265304   1.808   0.756   0.527 -0.7538 -0.0137  0.2999
14605TIP3   OH265305   2.900   5.475   3.145 -0.2005  0.4213 -0.0679
14605TIP3    H165306   2.944   5.395   3.174 -2.0831 -0.0992  1.4151
14605TIP3    H265307   2.949   5.545   3.187  1.0966  0.0389 -0.9057
14606TIP3   OH265308   5.889   2.895   5.130  0.2017  0.1435  0.6284
14606TIP3    H165309   5.959   2.885   5.194 -0.5736 -1.1949  1.2787
14606TIP3    H265310   5.827   2.956   5.171  0.2423  0.1557  0.6712
14607TIP3   OH265311   0.135   3.044   0.970  0.9449  0.1619 -0.1857
14607TIP3    H165312   0.171   2.956   0.962 -0.0732 -0.1605 -1.3160
14607TIP3    H265313   0.146   3.083   0.884  1.0567  1.0197  0.2118
14608TIP3   OH265314   3.703   1.565   5.183 -0.1426 -0.2436  0.0039
14608TIP3    H165315   3.637   1.510   5.226 -0.5163  0.8015  0.7652
14608TIP3    H265316   3.741   1.616   5.254 -3.1438  4.0427 -1.2552
14609TIP3   OH265317   4.963   6.399  10.685 -0.5845  0.1680 -0.3312
14609TIP3    H165318   4.919   6.331  10.736 -1.4660  0.9298 -0.0768
14609TIP3    H265319   4.945   6.480  10.732 -0.4533  0.7294 -1.2446
14610TIP3   OH265320   2.844   3.888   5.087 -0.2876  0.2139 -0.0027
14610TIP3    H165321   2.888   3.888   5.002  0.6079  0.2852  0.4625
14610TIP3    H265322   2.823   3.796   5.102  0.5264  0.0591  0.2026
14611TIP3   OH265323   3.356   5.270  14.328 -0.5066  0.5549 -0.6487
14611TIP3    H165324   3.303   5.346  14.352  0.8245  1.4845 -0.6453
14611TIP3    H265325   3.427   5.269  14.392 -0.9830 -1.2052 -0.1118
14612TIP3   OH265326   4.388   0.611   3.853  0.3134 -0.4212  0.0713
14612TIP3    H165327   4.414   0.689   3.803  0.1489 -0.4909 -0.1194
14612TIP3    H265328   4.471   0.568   3.874  0.3359 -0.7970 -0.7873
14613TIP3   OH265329   1.183   4.890   2.412  0.8815 -0.2323 -0.0996
14613TIP3    H165330   1.265   4.901   2.460  1.7127 -0.8086 -1.3841
14613TIP3    H265331   1.125   4.845   2.474  0.8579  1.9179  1.5211
14614TIP3   OH265332   6.745   5.985   5.049  0.0778 -0.5629  0.3513
14614TIP3    H165333   6.724   6.028   5.132  2.4695  0.3404  0.5292
14614TIP3    H265334   6.730   5.892   5.065 -1.7364 -0.1599  1.0587
14615TIP3   OH265335   4.216   2.173  16.276 -0.5040  0.2780  0.4704
14615TIP3    H165336   4.268   2.215  16.345 -0.6740 -0.1183  0.8400
14615TIP3    H265337   4.224   2.232  16.201 -0.3508  0.7328  0.8415
14616TIP3   OH265338   4.061   4.132  10.612 -0.2182  0.3006 -0.5983
14616TIP3    H165339   4.029   4.219  10.636  0.7555  0.5144 -0.0546
14616TIP3    H265340   4.033   4.076  10.685  0.4443  0.4421 -0.2360
14617TIP3   OH265341   2.239   5.790  12.334  0.6804 -0.6165  0.0854
14617TIP3    H165342   2.280   5.783  12.248 -1.4126 -0.2946 -0.9725
14617TIP3    H265343   2.163   5.732  12.329  0.1845 -0.1037  1.4948
14618TIP3   OH265344   5.445   6.762  14.287 -0.4373 -0.0049  0.8845
14618TIP3    H165345   5.380   6.773  14.217  0.7104  2.5411  0.1752
14618TIP3    H265346   5.394   6.730  14.361 -2.3118  0.7362 -0.0432
14619TIP3   OH265347   3.119   5.281  16.184 -0.0246 -0.0485  0.4123
14619TIP3    H165348   3.088   5.367  16.159  2.0973  0.4468 -0.6294
14619TIP3    H265349   3.167   5.296  16.265  0.8725 -0.1389 -0.0967
14620TIP3   OH265350   3.472   6.544  13.518  0.9889  0.6997  0.7024
14620TIP3    H165351   3.510   6.495  13.591  1.8469 -1.5595 -1.2483
14620TIP3    H265352   3.547   6.581  13.471  0.5681  0.0309 -0.5073
14621TIP3   OH265353   1.891   1.492  16.349  0.0174 -0.6278 -0.0029
14621TIP3    H165354   1.812   1.545  16.359  0.3412 -0.3053  0.8886
14621TIP3    H265355   1.959   1.555  16.327  0.1291 -0.8464 -0.2886
14622TIP3   OH265356   4.607   4.575  15.349  0.0769  0.3834  0.2985
14622TIP3    H165357   4.640   4.553  15.436  0.0403  3.0283  1.0351
14622TIP3    H265358   4.606   4.492  15.302  1.5745 -0.8360  2.3226
14623TIP3   OH265359   4.684   3.005   2.452 -0.1965  0.1020  0.0475
14623TIP3    H165360   4.618   2.936   2.456  1.0954 -1.1373  0.7143
14623TIP3    H265361   4.752   2.970   2.395  1.0192  0.3172  1.3166
14624TIP3   OH265362   2.184   4.543   0.495 -0.1461 -0.4463 -0.5296
14624TIP3    H165363   2.124   4.483   0.540 -0.0190  0.5327  0.9733
14624TIP3    H265364   2.264   4.491   0.481 -0.0520 -0.6621  0.7295
14625TIP3   OH265365   2.806   5.445  14.576  0.3205  0.0033  0.3250
14625TIP3    H165366   2.878   5.405  14.526  1.8788  0.1373  2.3676
14625TIP3    H265367   2.727   5.404  14.541  1.4875 -1.0973 -1.1207
14626TIP3   OH265368   3.343   4.481  13.816 -0.3369 -0.8283  0.2328
14626TIP3    H165369   3.316   4.398  13.776 -0.2390  0.1230 -1.8638
14626TIP3    H265370   3.269   4.539  13.804  0.9217  0.4634 -1.6064
14627TIP3   OH265371   1.012   3.578   4.084 -0.4379 -0.3609 -0.3622
14627TIP3    H165372   1.086   3.523   4.060  1.1133  0.2750  2.5962
14627TIP3    H265373   0.946   3.517   4.117  0.1113 -0.6954  0.1317
14628TIP3   OH265374   3.159   6.201  16.185  0.1542 -0.3902  0.1665
14628TIP3    H165375   3.211   6.248  16.120  0.2867 -0.6165  0.1081
14628TIP3    H265376   3.099   6.146  16.134 -0.9119  0.7103  0.2273
14629TIP3   OH265377   1.854   6.711   0.426 -0.4262  0.1061 -0.0187
14629TIP3    H165378   1.823   6.623   0.406 -2.1216  0.2116  2.0158
14629TIP3    H265379   1.850   6.717   0.521  4.2980  0.7553  0.2680
14630TIP3   OH265380   0.985   3.640  17.018  0.3484 -0.4010  0.4231
14630TIP3    H165381   0.961   3.732  17.029 -0.4500 -0.6541  0.8298
14630TIP3    H265382   0.996   3.608  17.108 -0.6067 -1.0221  0.3219
14631TIP3   OH265383   5.592   3.300   0.587 -0.3312 -0.2041 -0.1202
14631TIP3    H165384   5.508   3.344   0.574 -0.0134 -0.2497 -2.4810
14631TIP3    H265385   5.608   3.253   0.505 -0.2834 -4.1110  1.9872
14632TIP3   OH265386   2.340   1.728  12.907 -0.3542  0.4760 -0.4754
14632TIP3    H165387   2.332   1.736  12.812  0.1924  1.8914 -0.4165
14632TIP3    H265388   2.252   1.704  12.936 -0.6613  0.5909 -1.2848
14633TIP3   OH265389   0.833   4.090  13.499 -0.2775 -0.1152 -0.0634
14633TIP3    H165390   0.910   4.076  13.555  0.0496 -0.7082 -0.6560
14633TIP3    H265391   0.758   4.076  13.556  0.0542 -1.1546  0.1199
14634TIP3   OH265392   5.637   3.137   0.997 -0.0198 -0.0660  0.0218
14634TIP3    H165393   5.577   3.131   0.923  3.3045  2.2033 -3.0077
14634TIP3    H265394   5.685   3.055   0.996 -0.7284 -0.4911  0.3789
14635TIP3   OH265395   2.647   0.835  15.455  0.4599 -0.0922  0.3327
14635TIP3    H165396   2.716   0.837  15.389 -0.2907 -1.0326 -0.5012
14635TIP3    H265397   2.646   0.924  15.492 -0.1274  0.8929 -1.9879
14636TIP3   OH265398   6.026   4.889   0.880 -0.3674 -0.1786  0.4268
14636TIP3    H165399   5.941   4.924   0.905 -0.7379 -1.3193  0.8046
14636TIP3    H265400   6.058   4.947   0.811 -0.4087  1.6257  1.9024
14637TIP3   OH265401   3.583   5.862  16.553 -0.0590  0.4455 -0.2049
14637TIP3    H165402   3.590   5.768  16.566  0.6082  0.8420  2.6808
14637TIP3    H265403   3.672   5.890  16.533 -0.3813  0.3808 -1.7593
14638TIP3   OH265404   5.009   3.751   4.536  0.2779 -0.1358  0.0185
14638TIP3    H165405   5.006   3.691   4.610  0.1290 -0.0353  0.0946
14638TIP3    H265406   5.056   3.827   4.568  0.4207 -0.1908 -0.0611
14639TIP3   OH265407   3.320   5.843  17.166 -0.1357 -0.1641  0.0147
14639TIP3    H165408   3.272   5.836  17.249  0.3237 -0.2288  0.2714
14639TIP3    H265409   3.274   5.913  17.119  0.1433  0.4784  0.6870
14640TIP3   OH265410   5.943   3.123   1.331  0.1360  0.6111  0.0407
14640TIP3    H165411   5.869   3.099   1.275  0.4570  1.8532 -0.9224
14640TIP3    H265412   5.926   3.214   1.355  0.7259  0.5172  0.8423
14641TIP3   OH265413   4.391   3.598   0.842  0.1363 -0.1190  0.0411
14641TIP3    H165414   4.397   3.533   0.912 -0.8272 -1.3850 -1.0346
14641TIP3    H265415   4.475   3.592   0.796  0.8206  0.8047  1.1475
14642TIP3   OH265416   2.316   6.374   0.821 -0.2773 -0.1279  0.0203
14642TIP3    H165417   2.390   6.313   0.820 -1.0899 -1.2242  2.4105
14642TIP3    H265418   2.353   6.457   0.791  1.6875 -0.9396  0.1337
14643TIP3   OH265419   5.440   4.540  12.657 -0.7542 -0.1400  0.0461
14643TIP3    H165420   5.508   4.519  12.721 -0.8634 -0.7782 -0.0371
14643TIP3    H265421   5.480   4.522  12.572 -0.0516  2.3043 -0.1694
14644TIP3   OH265422   5.000   3.730  16.115 -0.6091  0.0380 -0.6212
14644TIP3    H165423   4.994   3.703  16.207  0.2271 -0.4246 -0.6948
14644TIP3    H265424   5.071   3.676  16.080 -0.6235  0.5457 -1.4203
14645TIP3   OH265425   0.145   0.068  12.481  0.1511 -0.1343  0.6292
14645TIP3    H165426   0.105   0.089  12.396  2.5350 -0.7040 -0.6759
14645TIP3    H265427   0.219   0.128  12.488  0.2177 -0.3721  2.1302
14646TIP3   OH265428   5.110   4.052  10.672  0.5151 -0.0971  0.3208
14646TIP3    H165429   5.168   4.030  10.600  2.3612  0.0392  1.7219
14646TIP3    H265430   5.136   3.993  10.743 -0.9995  0.0308  1.0141
14647TIP3   OH265431   5.309   5.730  16.346  0.0822  0.1423  0.2039
14647TIP3    H165432   5.217   5.710  16.361 -0.2275  0.5841 -1.0371
14647TIP3    H265433   5.355   5.647  16.362 -0.7231 -0.4987 -0.7474
14648TIP3   OH265434   6.404   6.093   1.707  0.2826  0.2271  0.1562
14648TIP3    H165435   6.333   6.031   1.689  1.7449 -1.0631 -1.2975
14648TIP3    H265436   6.364   6.179   1.691 -0.8765 -0.4898 -0.9508
14649TIP3   OH265437   4.395   1.394  14.365  0.1889  0.4733  0.0239
14649TIP3    H165438   4.485   1.365  14.381  1.0040  2.3231 -1.0134
14649TIP3    H265439   4.362   1.335  14.298  1.3093  0.9619 -0.9775
14650TIP3   OH265440   0.715   6.199  14.752  0.2119  0.2050  0.3366
14650TIP3    H165441   0.650   6.269  14.745 -0.3800 -0.5748 -2.8698
14650TIP3    H265442   0.665   6.118  14.739  1.6457 -0.4532 -1.3341
14651TIP3   OH265443   4.650   6.093   4.683 -0.1477  0.0100 -0.5531
14651TIP3    H165444   4.618   6.109   4.771 -1.0786 -0.8899 -0.7222
14651TIP3    H265445   4.743   6.072   4.694 -0.6310 -1.7075  0.3735
14652TIP3   OH265446   3.030   6.535  10.803 -0.5155 -0.2532  0.0363
14652TIP3    H165447   3.017   6.501  10.715 -0.6759 -1.3223  0.4666
14652TIP3    H265448   3.108   6.589  10.797 -1.1974  0.6378 -1.0196
14653TIP3   OH265449   4.287   2.155   2.759  0.5681  0.3729  0.0081
14653TIP3    H165450   4.197   2.127   2.777  1.5361 -2.1385  1.2274
14653TIP3    H265451   4.310   2.211   2.833 -0.3630  2.0212 -0.9145
14654TIP3   OH265452   4.118   2.295  11.098  0.2231 -0.4666 -0.0390
14654TIP3    H165453   4.197   2.245  11.076  0.1515 -0.7036  0.2523
14654TIP3    H265454   4.085   2.325  11.013  0.3791 -0.7407 -0.1972
14655TIP3   OH265455   1.747   5.604   4.277 -0.4681  0.1357  0.4943
14655TIP3    H165456   1.747   5.685   4.225 -0.4362  0.2525  0.6738
14655TIP3    H265457   1.661   5.565   4.262 -0.2776 -0.0821 -0.0313
14656TIP3   OH265458   6.507   5.582  15.530 -0.4147 -0.1721  0.3305
14656TIP3    H165459   6.536   5.588  15.438 -3.8094  0.4948 -0.7597
14656TIP3    H265460   6.491   5.673  15.555  0.6124 -0.3463  1.6544
14657TIP3   OH265461   2.510   6.656  13.168 -0.5907  0.4936 -0.7585
14657TIP3    H165462   2.447   6.728  13.158  0.0229  1.2444  0.6125
14657TIP3    H265463   2.587   6.697  13.208 -0.3097 -0.9789  0.2470
14658TIP3   OH265464   4.339   1.997  16.960  0.3294 -0.0158  0.5755
14658TIP3    H165465   4.267   1.983  16.899 -0.2412  1.2667  0.9451
14658TIP3    H265466   4.341   1.918  17.014  1.7199 -1.8186 -1.9581
14659TIP3   OH265467   1.992   3.995   3.266 -0.0392 -0.5126 -0.5004
14659TIP3    H165468   1.931   3.952   3.327 -0.8709 -0.1841 -1.0962
14659TIP3    H265469   1.999   4.085   3.299 -1.0566 -0.1299 -1.2960
14660TIP3   OH265470   3.423   5.705   5.416  0.1295 -0.2544 -0.0308
14660TIP3    H165471   3.479   5.752   5.478 -0.0984 -0.6594  0.4913
14660TIP3    H265472   3.365   5.653   5.472 -0.0086 -0.7041 -0.5936
14661TIP3   OH265473   5.588   2.996   0.493 -0.3701 -0.0715  0.1626
14661TIP3    H165474   5.639   2.984   0.413  0.3999 -1.3373  0.8355
14661TIP3    H265475   5.626   2.935   0.556 -0.8046  1.0718  1.5798
14662TIP3   OH265476   3.952   2.621  11.217 -0.2353 -0.0082  0.0265
14662TIP3    H165477   3.924   2.688  11.280 -0.2215  0.6394 -0.6511
14662TIP3    H265478   3.901   2.639  11.138 -0.0592 -0.6551 -0.2440
14663TIP3   OH265479   1.340   3.760   3.912  0.2408 -0.4830 -0.0251
14663TIP3    H165480   1.401   3.833   3.901  0.0771 -0.4541 -0.7773
14663TIP3    H265481   1.384   3.687   3.868  0.6000 -0.9497  1.0984
14664TIP3   OH265482   5.603   3.471   4.113  0.2737  0.2999  0.1981
14664TIP3    H165483   5.691   3.467   4.151 -0.1849 -1.2427  1.1141
14664TIP3    H265484   5.575   3.562   4.128  1.2611  0.4986  0.8745
14665TIP3   OH265485   2.896   6.815   0.407  0.3070 -0.2690  0.1863
14665TIP3    H165486   2.803   6.802   0.388  0.7741  0.0008 -2.4626
14665TIP3    H265487   2.900   6.826   0.502 -2.0589 -2.7176  0.6165
14666TIP3   OH265488   5.738   5.870  11.516 -0.0042  0.4822 -0.2632
14666TIP3    H165489   5.709   5.887  11.605 -1.9787 -0.1155 -0.7626
14666TIP3    H265490   5.728   5.955  11.471  0.4667  0.6476 -0.0581
14667TIP3   OH265491   3.889   1.438   6.390  0.3026  0.5402  0.5332
14667TIP3    H165492   3.882   1.343   6.383 -1.8757  0.5068  2.7012
14667TIP3    H265493   3.890   1.469   6.299 -1.4162 -1.4041 -0.1782
14668TIP3   OH265494   4.690   4.314   2.170 -0.0827  0.1724  0.8531
14668TIP3    H165495   4.708   4.406   2.190 -0.4134  0.5064 -0.3767
14668TIP3    H265496   4.776   4.276   2.152  0.0476  0.2473  1.3002
14669TIP3   OH265497   5.952   2.324   5.535  0.4033  0.2540 -0.3159
14669TIP3    H165498   5.872   2.301   5.487 -0.2375  0.8856  0.4144
14669TIP3    H265499   5.970   2.415   5.509 -0.2396  0.7724  0.9952
14670TIP3   OH265500   5.166   1.259   0.311  0.4523 -0.1036  0.5817
14670TIP3    H165501   5.247   1.247   0.360 -0.2523  0.0337  1.8152
14670TIP3    H265502   5.098   1.265   0.379 -0.8663 -2.3907 -0.4646
14671TIP3   OH265503   5.587   1.730  14.250  0.6008  0.4180  0.1701
14671TIP3    H165504   5.660   1.718  14.189 -0.6998 -1.2307 -1.1186
14671TIP3    H265505   5.626   1.720  14.337  2.0257  0.2394 -0.4811
14672TIP3   OH265506   4.526   3.587  12.559 -0.0273  0.0943 -0.1784
14672TIP3    H165507   4.575   3.534  12.496  0.3454 -1.5385  1.4428
14672TIP3    H265508   4.436   3.586  12.526  0.4716  0.7262 -1.6152
14673TIP3   OH265509   2.652   3.338  15.796  0.0945  0.0456 -0.0800
14673TIP3    H165510   2.634   3.255  15.840 -0.8546 -1.7132 -3.6082
14673TIP3    H265511   2.678   3.313  15.707  0.4082  3.4983 -1.0336
14674TIP3   OH265512   6.189   2.257  10.856  0.4634  0.2966 -0.0124
14674TIP3    H165513   6.205   2.277  10.764  1.1672 -0.5183 -0.0740
14674TIP3    H265514   6.162   2.165  10.856  1.4085  0.0206  0.6902
14675TIP3   OH265515   4.248   1.552  14.749 -0.4591  0.5070  0.2039
14675TIP3    H165516   4.299   1.474  14.770 -0.5575  0.1238 -0.9179
14675TIP3    H265517   4.307   1.604  14.693 -0.9458  0.5040 -0.3164
14676TIP3   OH265518   1.045   5.386   0.720  0.0237 -0.1579 -0.7087
14676TIP3    H165519   0.994   5.334   0.657  0.5462  1.6825 -2.7142
14676TIP3    H265520   1.128   5.339   0.729 -1.0129 -1.7795  0.5805
14677TIP3   OH265521   5.675   4.515   5.936  0.2091  0.2102  0.2155
14677TIP3    H165522   5.601   4.515   5.996  0.5240 -0.9284  0.6144
14677TIP3    H265523   5.747   4.474   5.985  0.9039  0.6628 -0.4014
14678TIP3   OH265524   4.887   0.101   5.143  0.0488  0.3918  0.1891
14678TIP3    H165525   4.805   0.147   5.160 -0.5915 -0.4658 -0.5185
14678TIP3    H265526   4.887   0.029   5.206 -0.7418 -0.8330 -1.1928
14679TIP3   OH265527   6.782   4.353   0.542  0.0685 -0.0479 -0.0495
14679TIP3    H165528   6.743   4.319   0.623  0.7402 -0.2396  0.1911
14679TIP3    H265529   6.707   4.390   0.494 -0.6985 -1.9586 -0.3756
14680TIP3   OH265530   2.232   4.790   6.489  0.3010 -0.2902 -0.7521
14680TIP3    H165531   2.184   4.742   6.557  0.0582  0.0105 -0.7098
14680TIP3    H265532   2.321   4.756   6.494  0.4198  0.1271  0.1024
14681TIP3   OH265533   2.564   5.279   3.658  0.3430  0.6346  0.3778
14681TIP3    H165534   2.588   5.201   3.708  0.6735 -0.8089 -1.9437
14681TIP3    H265535   2.469   5.287   3.670  0.3619  0.0727  0.8930
14682TIP3   OH265536   3.691   4.092   6.571  0.2461 -0.2758  0.2570
14682TIP3    H165537   3.674   4.170   6.518  0.0135 -0.8621 -0.5497
14682TIP3    H265538   3.785   4.077   6.561 -0.0826 -1.3946 -1.4406
14683TIP3   OH265539   5.081   4.954  16.188  0.4246  0.7832 -0.5010
14683TIP3    H165540   5.043   4.966  16.101  2.0613 -0.8974 -1.4774
14683TIP3    H265541   5.163   5.004  16.185  0.3996  0.8749  0.1595
14684TIP3   OH265542   1.315   5.552   3.810  0.5326  0.3947  0.2288
14684TIP3    H165543   1.256   5.488   3.769  0.0888  1.1221 -0.2911
14684TIP3    H265544   1.340   5.610   3.738  1.4265  0.4386  0.5724
14685TIP3   OH265545   2.433   0.318  16.308  0.1434  0.2258 -0.0445
14685TIP3    H165546   2.349   0.359  16.287  0.5744  0.9035 -0.4853
14685TIP3    H265547   2.496   0.391  16.307  0.9674 -0.4916 -1.1104
14686TIP3   OH265548   4.467   5.847   3.329 -0.5638  1.0713  0.3078
14686TIP3    H165549   4.461   5.885   3.241 -1.5021  1.0426  0.3529
14686TIP3    H265550   4.459   5.921   3.388 -3.2529  0.7575  0.4118
14687TIP3   OH265551   4.018   6.004   1.398 -0.2715 -0.1004  0.2649
14687TIP3    H165552   4.059   5.952   1.328 -0.5647 -1.1052  0.8223
14687TIP3    H265553   3.926   6.010   1.372  0.3051  2.7559 -1.3463
14688TIP3   OH265554   5.256   0.251   0.357  0.8344  0.1492 -0.3588
14688TIP3    H165555   5.219   0.194   0.424  0.9926  1.4948  0.8857
14688TIP3    H265556   5.349   0.258   0.379  0.4967  2.2379  0.5029
14689TIP3   OH265557   1.770   1.626  10.394 -0.5652  0.3406 -1.0414
14689TIP3    H165558   1.856   1.592  10.370 -0.1660 -0.3054  1.1575
14689TIP3    H265559   1.787   1.688  10.465 -1.9689 -0.5837  0.1555
14690TIP3   OH265560   0.757   5.724  12.802  0.3453 -0.0869  0.3550
14690TIP3    H165561   0.825   5.692  12.861  1.6351  1.0261 -0.5113
14690TIP3    H265562   0.755   5.819  12.816 -0.0486  0.0643 -0.6600
14691TIP3   OH265563   5.394   2.532   5.142 -0.2945  0.2900  0.0125
14691TIP3    H165564   5.335   2.463   5.110  0.6119 -0.0609 -0.9365
14691TIP3    H265565   5.471   2.484   5.174  0.8032  0.8926 -1.6351
14692TIP3   OH265566   6.236   5.202  15.207  0.0323 -0.5353 -0.1390
14692TIP3    H165567   6.215   5.200  15.301  1.0428  2.2196  0.2182
14692TIP3    H265568   6.251   5.295  15.189  0.5238 -1.1232 -2.8903
14693TIP3   OH265569   3.858   5.768   5.363  0.1470 -0.5529  0.6074
14693TIP3    H165570   3.800   5.841   5.341  1.3033  0.2361  0.1089
14693TIP3    H265571   3.811   5.690   5.334 -0.6661  0.0734  0.2256
14694TIP3   OH265572   0.418   5.247   2.758 -0.0305 -0.1259  0.1157
14694TIP3    H165573   0.404   5.339   2.736  1.2675 -0.1045 -0.6696
14694TIP3    H265574   0.507   5.245   2.792 -0.2740 -1.0010  0.7121
14695TIP3   OH265575   2.822   1.079  11.523  0.5418  0.7792 -0.1947
14695TIP3    H165576   2.870   1.030  11.590 -0.2338  0.1622 -0.0824
14695TIP3    H265577   2.827   1.170  11.552 -0.4502  0.4291  1.1300
14696TIP3   OH265578   0.133   5.519  15.807 -0.1642  0.7077  0.5172
14696TIP3    H165579   0.092   5.593  15.762 -0.6790 -0.5053 -1.0142
14696TIP3    H265580   0.143   5.452  15.740  1.7727 -0.0496  1.5242
14697TIP3   OH265581   2.308   5.454   1.423 -0.9190  0.1361 -0.1352
14697TIP3    H165582   2.293   5.530   1.368  0.6102  1.1035  0.7602
14697TIP3    H265583   2.368   5.485   1.491  1.9294 -2.5476 -1.3087
14698TIP3   OH265584   2.978   1.781  16.243 -0.2716 -0.2126 -0.1652
14698TIP3    H165585   2.914   1.828  16.296  1.3001 -0.7266  2.2692
14698TIP3    H265586   3.033   1.850  16.205  1.0335  0.0482  2.1000
14699TIP3   OH265587   2.371   1.665   1.974 -0.1936  0.5576  0.4317
14699TIP3    H165588   2.313   1.731   2.011  0.8390  0.6341  1.9509
14699TIP3    H265589   2.385   1.603   2.045 -0.5691 -0.9175 -0.7626
14700TIP3   OH265590   1.297   5.996  13.949  0.2356  0.0402  0.5491
14700TIP3    H165591   1.383   6.032  13.929  0.2894 -0.1441  0.4435
14700TIP3    H265592   1.283   6.018  14.041  0.2845  0.2918  0.4976
14701TIP3   OH265593   3.961   5.449   3.077  0.4694 -0.2090  0.5275
14701TIP3    H165594   3.882   5.472   3.027  0.3207 -0.1922  0.7736
14701TIP3    H265595   3.997   5.533   3.104  1.2009 -0.1519 -0.5531
14702TIP3   OH265596   1.301   2.913  11.996  0.3781  0.1146 -0.2172
14702TIP3    H165597   1.386   2.870  12.002  0.3710  0.1514  0.2050
14702TIP3    H265598   1.254   2.865  11.928  0.5919 -0.1559 -0.1752
14703TIP3   OH265599   1.274   1.321  12.860  0.5317  0.3561  0.3743
14703TIP3    H165600   1.323   1.239  12.869  3.0100  1.5571 -1.6791
14703TIP3    H265601   1.247   1.323  12.769 -1.4752  0.7714  0.9669
14704TIP3   OH265602   5.598   6.346  15.961  0.0968 -0.1636 -0.1995
14704TIP3    H165603   5.526   6.307  15.912 -0.0505 -2.1482  1.5070
14704TIP3    H265604   5.580   6.324  16.052  3.0224 -1.0164  0.2398
14705TIP3   OH265605   2.469   2.518  16.920  0.0559  0.4713  0.7087
14705TIP3    H165606   2.547   2.573  16.908  0.5995 -0.3794  0.2426
14705TIP3    H265607   2.465   2.502  17.014  0.8974 -0.1233  0.6482
14706TIP3   OH265608   2.754   2.114  12.306  0.4673 -0.0200  0.1869
14706TIP3    H165609   2.840   2.102  12.267  0.3982  0.2558 -0.0494
14706TIP3    H265610   2.720   2.194  12.265 -0.1531 -0.4690 -0.1724
14707TIP3   OH265611   2.714   3.515   1.483  0.1569 -0.0762  0.0091
14707TIP3    H165612   2.807   3.532   1.498  0.3142 -0.5756 -0.3748
14707TIP3    H265613   2.701   3.538   1.391 -0.8219  3.1042  0.8772
14708TIP3   OH265614   6.650   5.710   1.907  0.0358 -0.3469 -0.2307
14708TIP3    H165615   6.649   5.806   1.906  0.7125 -0.3377 -1.4549
14708TIP3    H265616   6.701   5.688   1.985 -1.3342  0.2594  0.8546
14709TIP3   OH265617   4.873   1.503  13.000 -0.4883  0.4562  0.2239
14709TIP3    H165618   4.930   1.426  13.011  0.2039  1.2434  2.4014
14709TIP3    H265619   4.915   1.554  12.931  0.4575  0.1147  0.5285
14710TIP3   OH265620   1.671   5.585   0.398  0.6492  0.1273  0.3328
14710TIP3    H165621   1.739   5.525   0.365 -0.3966 -1.5168  1.1240
14710TIP3    H265622   1.591   5.533   0.398 -0.0459  1.1644  2.2051
14711TIP3   OH265623   4.612   1.477  12.451 -0.4633 -0.3477  0.4411
14711TIP3    H165624   4.640   1.453  12.539 -3.7448 -1.4429  1.2545
14711TIP3    H265625   4.586   1.569  12.458 -3.4975 -1.2271  1.3969
14712TIP3   OH265626   5.354   1.768  14.441  0.1180 -0.0035 -0.8847
14712TIP3    H165627   5.412   1.795  14.370  2.3744 -0.2181  0.8390
14712TIP3    H265628   5.371   1.830  14.511  1.8361 -2.9347  1.3978
14713TIP3   OH265629   6.431   3.308   3.520  0.1950 -0.3409  0.0414
14713TIP3    H165630   6.374   3.234   3.538 -0.4818  0.1093 -0.2055
14713TIP3    H265631   6.494   3.275   3.456 -0.3109 -0.6135 -0.3215
14714TIP3   OH265632   0.306   2.205  12.607 -0.5977  0.1767 -0.4446
14714TIP3    H165633   0.356   2.161  12.676 -0.3329  0.8430 -0.2074
14714TIP3    H265634   0.308   2.145  12.533  2.1583  1.0054 -1.0904
14715TIP3   OH265635   6.659   3.107   2.413 -0.5832  0.4004  0.2635
14715TIP3    H165636   6.673   3.013   2.404 -0.2628  0.4910 -0.1793
14715TIP3    H265637   6.597   3.129   2.343  1.1993  0.9366 -1.1692
14716TIP3   OH265638   2.688   6.527  16.797 -0.0895 -0.0533  0.4130
14716TIP3    H165639   2.656   6.462  16.860  1.4565 -1.2302  0.0183
14716TIP3    H265640   2.612   6.545  16.741 -0.5223 -1.5512  0.5034
14717TIP3   OH265641   3.931   4.019  17.041 -0.1636  0.1267  0.0837
14717TIP3    H165642   3.868   4.090  17.056  2.6408  3.0040 -1.3911
14717TIP3    H265643   3.917   3.994  16.949  0.3865  0.3445 -0.0617
14718TIP3   OH265644   2.551   6.019   0.678  0.2272  0.3215 -0.6133
14718TIP3    H165645   2.586   6.021   0.767 -1.0373 -0.8043 -0.0627
14718TIP3    H265646   2.623   5.986   0.624  1.0501  1.1632 -0.0414
14719TIP3   OH265647   5.639   1.923   2.379  1.0148  0.1072 -0.3544
14719TIP3    H165648   5.643   1.977   2.300  1.7055  0.2601 -0.2216
14719TIP3    H265649   5.552   1.884   2.378  0.4240  1.3973 -0.3465
14720TIP3   OH265650   3.879   0.781  12.099  0.0678 -0.6338 -0.5675
14720TIP3    H165651   3.932   0.720  12.047  0.7740  0.2678 -0.9118
14720TIP3    H265652   3.922   0.866  12.088 -1.4668  0.1149 -0.8772
14721TIP3   OH265653   4.506   2.385  15.707 -0.2026  0.6241 -0.2003
14721TIP3    H165654   4.564   2.458  15.730 -1.0709  1.7623 -1.5502
14721TIP3    H265655   4.474   2.406  15.620 -2.6471  0.0227  0.5181
14722TIP3   OH265656   6.325   1.087  12.126  0.2197  0.6216  0.6195
14722TIP3    H165657   6.243   1.057  12.087  1.0944  0.8001 -1.4119
14722TIP3    H265658   6.321   1.183  12.121  1.1936  0.5982 -0.8821
14723TIP3   OH265659   2.510   3.478  13.506 -0.5719  0.0505 -0.2121
14723TIP3    H165660   2.437   3.475  13.567  0.1513 -2.4123  0.5778
14723TIP3    H265661   2.469   3.467  13.420 -0.9111 -5.8481  0.4851
14724TIP3   OH265662   2.188   5.755   5.710  0.4518 -0.0511  0.2085
14724TIP3    H165663   2.115   5.711   5.667  0.6805 -0.4906  0.2668
14724TIP3    H265664   2.198   5.710   5.794  0.3982  0.4069  0.4646
14725TIP3   OH265665   5.078   3.621   5.690  0.4635 -0.0744  0.1911
14725TIP3    H165666   5.020   3.697   5.681  0.3228  0.1836  2.8402
14725TIP3    H265667   5.163   3.659   5.711  0.3025 -0.6514  1.9370
14726TIP3   OH265668   5.898   2.021   2.839 -0.2694  0.3672  0.7722
14726TIP3    H165669   5.878   1.982   2.753 -1.1914  0.7321  0.8052
14726TIP3    H265670   5.827   2.085   2.852  1.6159  2.5929  0.3638
14727TIP3   OH265671   1.452   3.968   5.313  0.2484 -0.4893  0.4606
14727TIP3    H165672   1.409   3.927   5.389 -0.0090 -0.4984  0.3099
14727TIP3    H265673   1.542   3.982   5.342  0.0753 -0.2143  0.8764
14728TIP3   OH265674   3.338   6.268   4.993  0.0857  0.6098 -0.0837
14728TIP3    H165675   3.370   6.268   4.903  0.3447 -0.9204 -0.0034
14728TIP3    H265676   3.329   6.175   5.016 -2.8914  0.9504  0.4279
14729TIP3   OH265677   1.311   2.497   2.628 -0.0591  0.3194  0.7904
14729TIP3    H165678   1.348   2.458   2.549 -1.9171 -0.7910  0.4531
14729TIP3    H265679   1.226   2.530   2.601 -1.0885 -0.8337  2.5163
14730TIP3   OH265680   5.432   4.686  16.272  0.4474 -0.2748 -0.1769
14730TIP3    H165681   5.457   4.694  16.180  1.3954 -0.8836  0.0170
14730TIP3    H265682   5.351   4.736  16.279  0.1247 -0.5787 -1.4407
14731TIP3   OH265683   6.794   1.026  10.566  0.3880 -1.2595 -0.4284
14731TIP3    H165684   6.705   1.054  10.544  0.5240 -0.7817 -0.3575
14731TIP3    H265685   6.782   0.951  10.624  0.0246 -1.7344 -1.1005
14732TIP3   OH265686   2.011   4.556  15.090  0.0647 -0.0536  0.7203
14732TIP3    H165687   1.970   4.603  15.162  0.6497  1.3760  0.1377
14732TIP3    H265688   1.942   4.545  15.025  0.0075  0.2890  0.7249
14733TIP3   OH265689   4.819   5.732  13.557  0.0909  0.9389 -0.3372
14733TIP3    H165690   4.758   5.675  13.605 -0.9480  1.3211 -1.1734
14733TIP3    H265691   4.803   5.711  13.465  1.9633  0.3123 -0.5302
14734TIP3   OH265692   0.440   4.804  12.373 -0.3552  0.0174  0.0981
14734TIP3    H165693   0.530   4.836  12.365 -0.5733  0.1808 -1.9384
14734TIP3    H265694   0.439   4.756  12.455  1.2467  1.1481  0.8155
14735TIP3   OH265695   0.714   5.936   3.385  0.3507  0.5366 -0.0145
14735TIP3    H165696   0.651   5.902   3.321  0.2560  1.3299 -0.3515
14735TIP3    H265697   0.763   6.003   3.337  1.2630  0.1293  0.3299
14736TIP3   OH265698   5.973   3.527   5.809  0.1949  0.4627  0.6823
14736TIP3    H165699   6.025   3.451   5.784  0.2601  0.8596 -0.4193
14736TIP3    H265700   5.974   3.527   5.904 -0.4581 -1.3708  0.7051
14737TIP3   OH265701   3.244   3.010   6.020  0.0566  0.2517  0.6310
14737TIP3    H165702   3.289   2.926   6.014 -0.3863  0.0761 -0.3382
14737TIP3    H265703   3.239   3.027   6.114 -0.0035 -0.8944  0.8536
14738TIP3   OH265704   1.346   3.769  16.460 -0.1465 -0.0771  0.1696
14738TIP3    H165705   1.398   3.814  16.526 -0.5435  0.0654  0.3853
14738TIP3    H265706   1.369   3.677  16.470  0.1258 -0.0063  0.2032
14739TIP3   OH265707   1.034   5.333   1.988  0.4146  0.0406 -0.0851
14739TIP3    H165708   1.039   5.238   1.973  1.1347 -0.1836  1.3933
14739TIP3    H265709   1.110   5.369   1.942  0.2366 -0.1182 -0.5045
14740TIP3   OH265710   1.372   0.444   5.057  1.1166 -0.3944 -0.5776
14740TIP3    H165711   1.376   0.531   5.096 -2.3654 -0.0611 -0.8566
14740TIP3    H265712   1.363   0.460   4.964  0.3919 -1.0664 -0.6226
14741TIP3   OH265713   2.639   0.929   0.615 -0.5901  0.1362 -0.2343
14741TIP3    H165714   2.617   0.928   0.522  1.5275 -0.6805 -0.7497
14741TIP3    H265715   2.659   1.021   0.635 -0.0482  0.1476 -0.8350
14742TIP3   OH265716   1.098   2.442  11.823  0.4754  0.5225  0.2967
14742TIP3    H165717   1.095   2.433  11.728  0.9572  1.2615  0.2101
14742TIP3    H265718   1.191   2.434  11.845  0.4465  1.1013  0.6330
14743TIP3   OH265719   1.484   4.905   3.424 -0.0795  0.1865  0.3216
14743TIP3    H165720   1.527   4.976   3.376 -1.2343  0.2388 -0.6547
14743TIP3    H265721   1.419   4.871   3.363 -2.3446  1.0006  2.2253
14744TIP3   OH265722   4.152   0.732   5.815 -0.2015  0.3843 -0.3230
14744TIP3    H165723   4.214   0.710   5.746  0.2335 -0.8003  0.4347
14744TIP3    H265724   4.097   0.800   5.776  1.3197  1.1778 -1.1283
14745TIP3   OH265725   2.817   4.207   2.702 -0.5567 -0.2769  0.0218
14745TIP3    H165726   2.850   4.292   2.673  1.8571 -0.8884  0.8885
14745TIP3    H265727   2.726   4.224   2.726  0.1107  2.2281  0.8995
14746TIP3   OH265728   6.633   3.292   0.914 -0.0427 -0.4110  0.2802
14746TIP3    H165729   6.564   3.289   0.848 -0.2637  1.8980  0.3633
14746TIP3    H265730   6.714   3.296   0.863 -0.2491  2.1562  0.1025
14747TIP3   OH265731   2.153   2.880   0.438 -0.5297  0.2726 -0.2266
14747TIP3    H165732   2.177   2.787   0.442  1.1457  0.6236 -1.7902
14747TIP3    H265733   2.219   2.924   0.490  0.2090  0.8631 -1.6463
14748TIP3   OH265734   3.069   2.000  10.971  0.3739 -0.1919  0.2140
14748TIP3    H165735   3.164   1.987  10.963  0.6726  2.3980 -1.1182
14748TIP3    H265736   3.041   2.022  10.882 -1.4602 -0.8279  0.6270
14749TIP3   OH265737   2.745   6.477   2.162 -0.0025 -0.1967 -0.9239
14749TIP3    H165738   2.750   6.551   2.101 -0.2258  0.5786 -0.0105
14749TIP3    H265739   2.661   6.435   2.142 -1.0860  1.3292  0.2737
14750TIP3   OH265740   0.324   0.785   4.672  0.1564 -0.4013 -1.2158
14750TIP3    H165741   0.373   0.726   4.615 -0.1399 -1.1987 -0.6647
14750TIP3    H265742   0.384   0.803   4.745  0.6820  0.9373 -1.9706
14751TIP3   OH265743   6.346   6.746   3.194 -0.5552 -0.7497 -0.2947
14751TIP3    H165744   6.278   6.759   3.261  0.8680  1.3953  0.7646
14751TIP3    H265745   6.368   6.653   3.201  0.3498 -0.3526  2.9977
14752TIP3   OH265746   4.515   2.076  13.311  0.0986  0.2788 -0.2231
14752TIP3    H165747   4.554   2.050  13.395  0.5658 -1.8982 -1.0669
14752TIP3    H265748   4.489   1.993  13.270  2.3886  1.0174 -3.4149
14753TIP3   OH265749   5.516   2.335   0.401 -0.1082  0.3074 -0.3124
14753TIP3    H165750   5.601   2.333   0.357  0.3730 -2.1511  0.6124
14753TIP3    H265751   5.465   2.269   0.354 -0.6416 -0.0469  0.7640
14754TIP3   OH265752   3.174   1.642   6.291  0.1809  0.1776  0.3270
14754TIP3    H165753   3.112   1.666   6.361 -0.4013 -2.0362  0.6199
14754TIP3    H265754   3.239   1.588   6.336  0.0383 -0.9043 -0.7527
14755TIP3   OH265755   6.233   5.404  12.978 -0.2575 -0.0303 -0.1700
14755TIP3    H165756   6.274   5.410  13.064 -0.1153  0.9585 -0.3047
14755TIP3    H265757   6.188   5.319  12.979  0.8301 -0.6163  0.3930
14756TIP3   OH265758   3.085   6.399   1.184  0.2146 -0.3116 -0.1265
14756TIP3    H165759   3.176   6.428   1.195 -0.3685  0.8392  2.0426
14756TIP3    H265760   3.047   6.461   1.123  0.2299  0.6944  0.8816
14757TIP3   OH265761   6.345   0.821  16.558  0.4462 -0.5390  0.2815
14757TIP3    H165762   6.413   0.811  16.492 -0.3096 -1.3261 -0.3921
14757TIP3    H265763   6.393   0.831  16.640  1.3769 -0.7720 -0.2224
14758TIP3   OH265764   6.046   3.838  15.081 -0.4710 -0.6950 -0.2759
14758TIP3    H165765   6.118   3.897  15.060 -0.1299 -0.7807  0.6122
14758TIP3    H265766   5.970   3.895  15.091 -0.5328 -0.6086 -1.2549
14759TIP3   OH265767   0.813   0.717   2.076 -0.0877  0.1919 -0.0413
14759TIP3    H165768   0.879   0.787   2.072 -2.1099  2.1758  0.2245
14759TIP3    H265769   0.735   0.760   2.113 -1.5763 -2.0609 -0.4844
14760TIP3   OH265770   0.375   5.330   2.076 -0.1092  0.3090  0.1624
14760TIP3    H165771   0.418   5.256   2.034 -0.0408 -0.0026  0.7693
14760TIP3    H265772   0.428   5.406   2.053 -1.0051  0.3985 -1.6793
14761TIP3   OH265773   5.122   5.850  13.218  0.2811  0.1353 -0.0411
14761TIP3    H165774   5.203   5.825  13.262  1.6346 -0.0184 -2.5128
14761TIP3    H265775   5.072   5.899  13.284  2.0878 -0.3200  1.7028
14762TIP3   OH265776   2.143   2.870  11.433 -0.6579  0.0782  0.4052
14762TIP3    H165777   2.101   2.956  11.440 -3.7673 -1.0722 -2.9619
14762TIP3    H265778   2.156   2.857  11.339  0.7188 -2.7318  0.9383
14763TIP3   OH265779   5.865   1.573  14.708  0.3342  0.0267 -0.2202
14763TIP3    H165780   5.815   1.509  14.758  0.8230  0.0027  0.2529
14763TIP3    H265781   5.946   1.585  14.759 -0.0277  1.5007  0.0561
14764TIP3   OH265782   5.013   0.723  14.009  0.6660  0.1490  0.0254
14764TIP3    H165783   5.045   0.771  13.933  1.0680  0.9652  0.7031
14764TIP3    H265784   4.950   0.660  13.973  0.9893  0.4047 -0.9952
14765TIP3   OH265785   3.621   2.705   1.942 -0.3386  0.7348  0.5123
14765TIP3    H165786   3.714   2.687   1.956 -0.4214  0.0305  0.1557
14765TIP3    H265787   3.577   2.623   1.964 -0.4911 -0.5044 -3.8812
14766TIP3   OH265788   1.175   3.521  12.333  0.7417  0.7074 -0.1873
14766TIP3    H165789   1.177   3.464  12.410 -2.0918 -0.6445 -1.0358
14766TIP3    H265790   1.114   3.591  12.357  2.1213  1.9204 -0.1552
14767TIP3   OH265791   5.656   1.782  15.220  0.2878 -0.1302 -0.3843
14767TIP3    H165792   5.741   1.827  15.223 -0.3582  1.1077 -0.6826
14767TIP3    H265793   5.625   1.795  15.130 -1.3207  1.4645  0.3891
14768TIP3   OH265794   0.403   1.692  15.123 -0.3086 -0.3057 -0.3614
14768TIP3    H165795   0.321   1.664  15.081  1.0635 -1.5814 -2.2792
14768TIP3    H265796   0.407   1.786  15.105 -2.0606  0.0550  1.0195
14769TIP3   OH265797   0.146   2.558   3.470 -0.0932 -0.1119 -0.3784
14769TIP3    H165798   0.178   2.468   3.472 -0.1847 -0.1239  0.7642
14769TIP3    H265799   0.187   2.596   3.392  0.1780 -1.0485 -0.7036
14770TIP3   OH265800   5.144   1.313   5.642  0.0072 -0.0003  0.1687
14770TIP3    H165801   5.174   1.237   5.692 -1.3450  1.1210  2.7659
14770TIP3    H265802   5.085   1.277   5.576  0.8624 -1.3885  0.1398
14771TIP3   OH265803   0.700   0.634   1.353 -0.7951 -0.2549  0.4906
14771TIP3    H165804   0.639   0.700   1.318 -2.0027 -1.3726  0.4659
14771TIP3    H265805   0.644   0.571   1.398  0.4841 -0.5417  1.6920
14772TIP3   OH265806   2.897   2.682  12.814  0.4611  0.3242  0.6299
14772TIP3    H165807   2.953   2.615  12.775  1.6506  1.9147 -0.4618
14772TIP3    H265808   2.809   2.660  12.786  0.7563 -1.1517  0.8376
14773TIP3   OH265809   0.202   0.376   3.798  0.3578 -0.6181  0.2740
14773TIP3    H165810   0.143   0.350   3.726  0.1167  0.3043  0.1339
14773TIP3    H265811   0.181   0.314   3.869 -0.1089 -0.8981 -0.1009
14774TIP3   OH265812   4.434   0.745  16.377  0.1205  0.2992 -0.0548
14774TIP3    H165813   4.425   0.834  16.412  1.4614  0.9669 -1.3772
14774TIP3    H265814   4.443   0.757  16.283  1.8577 -1.1440 -0.0939
14775TIP3   OH265815   1.752   0.707  16.859 -0.2127  0.0311  0.2057
14775TIP3    H165816   1.739   0.638  16.924 -1.6108  0.7037  0.6655
14775TIP3    H265817   1.745   0.662  16.775 -2.1487 -0.2442  0.4855
14776TIP3   OH265818   0.212   2.701  12.095  0.1887  0.0421 -0.4177
14776TIP3    H165819   0.240   2.749  12.172 -2.6993 -0.6666  1.1570
14776TIP3    H265820   0.225   2.609  12.118  2.8100 -0.0933 -2.2448
14777TIP3   OH265821   1.974   1.966  14.292  0.1537  0.3065  0.2615
14777TIP3    H165822   2.052   1.961  14.348 -0.1788 -1.1317  0.6072
14777TIP3    H265823   1.915   1.899  14.327 -0.5262  0.1793 -1.1044
14778TIP3   OH265824   2.148   3.519   0.768  0.1595  0.0837  0.2539
14778TIP3    H165825   2.141   3.435   0.815  0.5048 -0.2900 -0.3459
14778TIP3    H265826   2.150   3.494   0.676 -0.6166  0.8254  0.0396
14779TIP3   OH265827   6.177   5.734   4.423  0.0121 -0.2042  0.5215
14779TIP3    H165828   6.228   5.669   4.471 -0.8469 -1.0748  0.2741
14779TIP3    H265829   6.135   5.685   4.353 -1.8824  0.3173  1.2446
14780TIP3   OH265830   1.820   0.791   4.671 -0.4321 -0.2074 -0.5784
14780TIP3    H165831   1.825   0.793   4.766 -1.7474  0.0589 -0.5075
14780TIP3    H265832   1.737   0.748   4.652  0.2778 -1.1399 -1.6153
14781TIP3   OH265833   1.991   4.368  12.496  0.2403 -0.4177 -0.3757
14781TIP3    H165834   1.981   4.275  12.519  0.6813 -0.4271 -0.2081
14781TIP3    H265835   1.938   4.379  12.417  0.0126 -0.7627 -0.2762
14782TIP3   OH265836   3.786   6.138  15.165  0.4639 -0.2633  0.4982
14782TIP3    H165837   3.700   6.180  15.177  0.8653  0.0456  2.3974
14782TIP3    H265838   3.797   6.134  15.070 -0.9119  1.2269  0.2464
14783TIP3   OH265839   5.359   3.833  15.019 -0.1343 -0.3280 -0.0695
14783TIP3    H165840   5.417   3.864  15.089  0.2970  0.5478 -0.8053
14783TIP3    H265841   5.359   3.738  15.029  1.2282 -0.3199  0.1141
14784TIP3   OH265842   0.183   5.558  14.315 -0.3480 -0.3131 -0.7612
14784TIP3    H165843   0.174   5.589  14.225  2.3458 -1.5689 -1.5259
14784TIP3    H265844   0.276   5.534  14.323 -0.7313 -1.0680  2.0736
14785TIP3   OH265845   1.102   5.141  13.683  0.4438  0.2399 -0.1147
14785TIP3    H165846   1.165   5.075  13.654  1.3739  1.3998 -0.7524
14785TIP3    H265847   1.038   5.145  13.612  0.7775  0.5239 -0.4046
14786TIP3   OH265848   5.374   4.999   3.980 -0.5480 -0.1195 -0.2027
14786TIP3    H165849   5.409   5.088   3.988 -1.4056  0.3810 -1.8831
14786TIP3    H265850   5.301   4.996   4.042 -1.1530  0.6837 -0.8644
14787TIP3   OH265851   1.188   2.824  14.454 -0.2618  0.4002 -0.0370
14787TIP3    H165852   1.198   2.912  14.491  2.7381  0.5419 -1.0737
14787TIP3    H265853   1.271   2.780  14.473 -1.0835 -1.6513 -1.0200
14788TIP3   OH265854   5.851   1.697  12.485 -0.5155  0.3704  0.1148
14788TIP3    H165855   5.803   1.726  12.562  0.7597  2.2370  0.2480
14788TIP3    H265856   5.943   1.717  12.506 -0.1967  1.1982 -2.0072
14789TIP3   OH265857   1.243   5.337   4.640  0.4126  0.0816 -0.1940
14789TIP3    H165858   1.182   5.296   4.579  1.6786 -0.0827 -1.3887
14789TIP3    H265859   1.234   5.431   4.623 -0.7752  0.1727  0.8800
14790TIP3   OH265860   5.320   3.985   0.281 -0.0041  0.2910  0.2258
14790TIP3    H165861   5.381   4.038   0.332 -1.0192  1.4981  0.2152
14790TIP3    H265862   5.307   4.034   0.200 -0.3332 -0.3755 -0.1285
14791TIP3   OH265863   3.919   6.507   6.831 -0.0196  0.2217  0.0662
14791TIP3    H165864   3.997   6.476   6.877  0.4726  0.0529 -0.8578
14791TIP3    H265865   3.882   6.428   6.791 -1.1539  0.1607  1.1943
14792TIP3   OH265866   6.436   3.555   0.224 -0.1273 -0.6889 -0.4260
14792TIP3    H165867   6.486   3.516   0.153  0.4840  0.0936 -0.4237
14792TIP3    H265868   6.457   3.648   0.221  0.1480 -0.6965  0.9740
14793TIP3   OH265869   5.383   3.702  12.582  0.0201  0.1715 -0.1837
14793TIP3    H165870   5.321   3.672  12.516 -0.9095 -2.6615  1.8543
14793TIP3    H265871   5.334   3.767  12.632 -0.6016 -0.5031  0.0974
14794TIP3   OH265872   6.746   1.849  14.381 -0.3420 -0.4182 -0.1492
14794TIP3    H165873   6.835   1.847  14.415  0.2122 -0.7353 -1.5837
14794TIP3    H265874   6.743   1.779  14.315 -0.9787  0.9966 -1.6835
14795TIP3   OH265875   2.932   2.777  14.789 -0.6619  0.3253  0.3023
14795TIP3    H165876   2.864   2.738  14.843 -1.8403  0.7680 -0.8456
14795TIP3    H265877   2.992   2.704  14.770 -0.7800 -0.0562  1.3235
14796TIP3   OH265878   6.763   4.543   3.252 -0.0171 -0.1338  0.4316
14796TIP3    H165879   6.695   4.584   3.306 -1.1444 -1.2568 -0.0921
14796TIP3    H265880   6.834   4.607   3.249 -0.7211  0.7166  1.6784
14797TIP3   OH265881   0.806   1.949   1.465 -0.1678 -0.1379 -0.0007
14797TIP3    H165882   0.822   1.937   1.558 -2.1915 -0.8862  0.2876
14797TIP3    H265883   0.878   1.903   1.422  1.1957  0.8493  1.1673
14798TIP3   OH265884   6.508   0.881   1.869  0.6012 -0.3986  0.1071
14798TIP3    H165885   6.583   0.916   1.916 -0.4958  2.4972 -0.2327
14798TIP3    H265886   6.439   0.873   1.936 -1.2974  4.7316 -1.0553
14799TIP3   OH265887   3.034   5.386   1.567 -0.1495  0.0840  0.0956
14799TIP3    H165888   3.088   5.332   1.623 -0.6307 -0.4763  0.0255
14799TIP3    H265889   3.071   5.375   1.479 -0.0763  0.0852  0.1270
14800TIP3   OH265890   6.336   0.110  12.509 -0.1466 -0.1750  0.1511
14800TIP3    H165891   6.325   0.033  12.565 -0.8153  0.4356  0.8673
14800TIP3    H265892   6.425   0.103  12.475  0.7590  0.1609  2.3673
14801TIP3   OH265893   3.104   5.968   1.637  0.4391  0.7755 -0.3342
14801TIP3    H165894   3.055   6.002   1.562 -1.4971 -1.2728 -0.0458
14801TIP3    H265895   3.111   5.874   1.619  2.4820  0.7257  0.6637
14802TIP3   OH265896   4.300   2.653   0.031  0.0204  0.4526 -0.5266
14802TIP3    H165897   4.340   2.689   0.110 -0.2489  1.3065 -0.7697
14802TIP3    H265898   4.369   2.600  -0.009  0.2758  0.3228  0.0831
14803TIP3   OH265899   4.186   5.789  16.931 -0.1331  0.4748  0.0559
14803TIP3    H165900   4.271   5.781  16.975 -0.5237  0.9675  0.9027
14803TIP3    H265901   4.134   5.843  16.990 -1.4851 -0.9533  0.1790
14804TIP3   OH265902   1.717   2.465   0.794 -0.2987  0.2142  0.6524
14804TIP3    H165903   1.628   2.440   0.769 -0.2812  1.8443 -1.1587
14804TIP3    H265904   1.761   2.484   0.711  1.3086  0.8407  1.6243
14805TIP3   OH265905   2.067   6.411   3.115  0.0406 -0.2951 -0.2222
14805TIP3    H165906   2.132   6.441   3.178 -0.8845  0.0737  0.5632
14805TIP3    H265907   1.995   6.474   3.123 -0.0356 -0.1743 -1.7293
14806TIP3   OH265908   4.285   0.921   0.569 -0.4449 -0.2447  0.7729
14806TIP3    H165909   4.260   1.013   0.582  2.1817  0.2519  2.6384
14806TIP3    H265910   4.210   0.871   0.601 -2.0005  1.1943 -0.4678
14807TIP3   OH265911   3.962   1.519  16.589  0.0051  0.1986 -0.3045
14807TIP3    H165912   4.002   1.458  16.528  1.2832 -0.8547  1.5177
14807TIP3    H265913   3.988   1.606  16.558  1.0876 -0.3437 -0.9334
14808TIP3   OH265914   3.335   5.776   2.262 -0.5810  0.2004 -0.4884
14808TIP3    H165915   3.356   5.862   2.226 -0.0243  0.4414  0.3737
14808TIP3    H265916   3.369   5.714   2.198 -1.3593  0.6246 -1.3130
14809TIP3   OH265917   4.282   2.642  14.721 -0.6740 -0.1489  0.1826
14809TIP3    H165918   4.205   2.595  14.691 -0.5859 -0.0090 -0.2783
14809TIP3    H265919   4.354   2.605  14.671 -0.5436  0.1850  0.1172
14810TIP3   OH265920   3.720   3.307  12.398  0.1660  0.0955  0.0541
14810TIP3    H165921   3.756   3.232  12.351  0.1798 -1.5059  2.5307
14810TIP3    H265922   3.654   3.270  12.457 -1.4855  2.3132 -0.3173
14811TIP3   OH265923   4.189   4.959  13.250 -0.5226  0.2430 -0.2207
14811TIP3    H165924   4.159   4.892  13.189 -2.0865 -0.6203  1.4482
14811TIP3    H265925   4.204   4.912  13.332  0.0404  1.6354  0.5012
14812TIP3   OH265926   4.780   0.496  15.199  0.2822  0.0521 -0.1869
14812TIP3    H165927   4.861   0.486  15.149  0.4271  1.2781 -0.2067
14812TIP3    H265928   4.732   0.565  15.154  0.5013  1.3136  1.4445
14813TIP3   OH265929   3.078   0.957  17.216 -0.2771  0.1041  0.7043
14813TIP3    H165930   3.063   0.979  17.307 -0.7858 -0.0288  0.6579
14813TIP3    H265931   2.998   0.985  17.171  0.0750  0.4100  0.2580
14814TIP3   OH265932   4.079   2.080  16.508 -0.1137  0.1361  0.3733
14814TIP3    H165933   4.097   2.100  16.417 -0.8175  1.6819  0.5570
14814TIP3    H265934   4.133   2.141  16.558 -1.2564  0.7001  0.9619
14815TIP3   OH265935   4.254   5.002   4.526  0.4464  0.1572 -0.2224
14815TIP3    H165936   4.295   5.087   4.514 -0.6316  0.9970  1.6717
14815TIP3    H265937   4.321   4.949   4.569  1.2222 -0.0614 -1.6781
14816TIP3   OH265938   3.368   4.158  15.667  0.7869 -0.0581  0.1454
14816TIP3    H165939   3.307   4.202  15.607  0.4125 -0.9353 -0.1233
14816TIP3    H265940   3.333   4.175  15.754 -0.1041 -0.9522 -0.0354
14817TIP3   OH265941   0.195   6.294  16.124  0.2207 -0.4725 -0.3460
14817TIP3    H165942   0.129   6.303  16.192 -1.2698 -1.3324 -1.6358
14817TIP3    H265943   0.255   6.227  16.157  1.0529  1.0404  1.2787
14818TIP3   OH265944   5.904   1.827   4.807 -0.0754  0.3332 -0.2201
14818TIP3    H165945   5.954   1.871   4.875 -1.7051  0.5732  0.8645
14818TIP3    H265946   5.814   1.826   4.840 -1.0050  0.9388 -2.5907
14819TIP3   OH265947   0.749   4.207  15.326 -0.3899 -0.1855 -0.8700
14819TIP3    H165948   0.821   4.209  15.262  1.2327  0.7344  0.9101
14819TIP3    H265949   0.729   4.114  15.336  0.6007 -0.4630 -1.3717
14820TIP3   OH265950   6.726   0.342  13.931  0.2658 -0.0690  0.0425
14820TIP3    H165951   6.631   0.347  13.937  0.1508 -0.6954 -1.0606
14820TIP3    H265952   6.755   0.332  14.022 -0.8121 -1.2614  0.2763
14821TIP3   OH265953   1.653   0.425   5.279 -0.4364  0.0687 -0.6837
14821TIP3    H165954   1.694   0.347   5.316  1.3523  1.3835  0.1595
14821TIP3    H265955   1.580   0.445   5.338  0.1666  0.0352  0.0654
14822TIP3   OH265956   1.115   1.053  14.958  0.3625  0.0122 -0.2639
14822TIP3    H165957   1.055   1.119  14.923 -0.1963 -1.0827 -1.4170
14822TIP3    H265958   1.104   1.059  15.053  1.5114  2.6730 -0.2359
14823TIP3   OH265959   0.792   3.340   2.800 -0.0674 -0.3927 -0.0180
14823TIP3    H165960   0.833   3.368   2.719 -1.8723 -2.2893 -1.6507
14823TIP3    H265961   0.820   3.405   2.865  1.2740  1.2487 -2.1709
14824TIP3   OH265962   5.545   6.274  16.565  0.3958  0.1304  0.0360
14824TIP3    H165963   5.511   6.187  16.544  1.1744  0.1209 -1.3039
14824TIP3    H265964   5.471   6.332  16.552 -0.1633 -0.3471  1.0535
14825TIP3   OH265965   4.707   4.043  15.634 -0.1482  0.0529 -0.1492
14825TIP3    H165966   4.732   3.952  15.647  1.2872  0.3279 -0.8951
14825TIP3    H265967   4.629   4.055  15.689 -1.3291 -2.0632 -1.3113
14826TIP3   OH265968   5.035   6.262  15.871  0.4955  0.6446  0.6513
14826TIP3    H165969   5.048   6.257  15.776  0.3465  0.7188  0.6269
14826TIP3    H265970   5.065   6.350  15.895  1.4658  0.2652  0.8191
14827TIP3   OH265971   6.768   1.275   4.472 -0.7529 -0.3453  0.6002
14827TIP3    H165972   6.705   1.290   4.543 -1.6809  2.4081 -0.7200
14827TIP3    H265973   6.850   1.309   4.507 -0.9598 -0.0072  0.7659
14828TIP3   OH265974   6.124   6.145  11.331  0.0400 -0.0400  0.2002
14828TIP3    H165975   6.122   6.050  11.329  0.2796 -0.0490  0.5083
14828TIP3    H265976   6.056   6.171  11.268  0.2929 -0.4131 -0.2376
14829TIP3   OH265977   1.158   1.795  13.890 -0.0546  0.8849  0.1207
14829TIP3    H165978   1.130   1.876  13.847 -0.6939  0.9430  0.6436
14829TIP3    H265979   1.249   1.783  13.861 -0.0931  1.5566 -0.2966
14830TIP3   OH265980   1.716   3.915  16.106  0.0290  1.0389 -0.3118
14830TIP3    H165981   1.674   3.947  16.186  1.6702  0.7195  0.7067
14830TIP3    H265982   1.801   3.881  16.135  0.7506  1.1101 -2.2228
14831TIP3   OH265983   4.240   4.521  14.997  0.0959 -0.3589 -0.1833
14831TIP3    H165984   4.216   4.606  15.034  1.4459 -0.0100 -0.0674
14831TIP3    H265985   4.159   4.487  14.959 -0.7400  0.4178  0.8649
14832TIP3   OH265986   1.513   4.339   3.639 -0.0078  0.7893 -0.2554
14832TIP3    H165987   1.571   4.277   3.684  0.5033  0.8020 -0.8874
14832TIP3    H265988   1.440   4.285   3.609  1.3565  0.0902 -2.4811
14833TIP3   OH265989   5.093   4.681   0.190  0.7309 -0.2651  0.0071
14833TIP3    H165990   5.121   4.592   0.213  2.3864  0.2109 -0.1178
14833TIP3    H265991   5.174   4.732   0.189 -0.1702  1.1743 -0.2610
14834TIP3   OH265992   5.415   1.896   1.156  0.1979  0.0315 -0.5571
14834TIP3    H165993   5.496   1.932   1.120  0.2172 -0.0306 -0.5774
14834TIP3    H265994   5.439   1.807   1.184 -0.3675 -0.7651 -2.4985
14835TIP3   OH265995   4.416   1.017   1.881  0.1546 -0.0294  0.0264
14835TIP3    H165996   4.414   0.952   1.951 -1.9273  1.6893  1.6686
14835TIP3    H265997   4.436   1.100   1.926  0.0518  0.9169 -1.6110
14836TIP3   OH265998   2.096   3.516  12.988  0.0069 -0.0717 -0.4723
14836TIP3    H165999   2.168   3.577  13.005 -0.2051 -0.2762  1.2247
14836TIP3    H266000   2.114   3.441  13.045 -1.1514 -0.4472 -0.5849
14837TIP3   OH266001   5.221   4.463   2.638 -0.1212  0.1413  0.2853
14837TIP3    H166002   5.195   4.387   2.690 -0.1160  0.5590  0.9164
14837TIP3    H266003   5.175   4.454   2.555  1.0131 -1.3052 -0.2053
14838TIP3   OH266004   4.170   0.075  14.790  0.1276 -0.0504 -0.5150
14838TIP3    H166005   4.210  -0.012  14.792 -0.5896 -0.4342 -1.8861
14838TIP3    H266006   4.226   0.126  14.732  0.5327  0.3983  0.2698
14839TIP3   OH266007   3.092   6.332  12.727 -0.3597 -0.5696  0.0766
14839TIP3    H166008   3.100   6.310  12.820 -1.5727 -0.2788  0.2514
14839TIP3    H266009   3.182   6.331  12.695  0.3972  2.2769  1.9192
14840TIP3   OH266010   3.339   3.793   1.288 -0.0323 -0.3029  0.3385
14840TIP3    H166011   3.359   3.873   1.241 -0.6026 -0.7603 -0.7133
14840TIP3    H266012   3.303   3.822   1.372 -0.2382  0.5380 -0.0402
14841TIP3   OH266013   6.450   3.432  10.300  0.0501  0.3929 -0.2565
14841TIP3    H166014   6.508   3.507  10.289  1.1174 -0.4203 -0.2182
14841TIP3    H266015   6.508   3.356  10.298 -1.0256 -0.4367 -0.3264
14842TIP3   OH266016   0.973   3.756  12.342  0.1108 -0.3136 -0.1645
14842TIP3    H166017   0.902   3.818  12.327 -0.6502 -0.8006  1.3273
14842TIP3    H266018   0.948   3.710  12.421  1.4125 -1.4816 -0.4159
14843TIP3   OH266019   5.513   1.078  16.269  0.2478 -0.0190  0.2142
14843TIP3    H166020   5.567   1.147  16.307 -0.5776  0.5956  0.2726
14843TIP3    H266021   5.526   1.087  16.174  0.1265  0.2312  0.2205
14844TIP3   OH266022   1.362   1.765  13.415  0.0319 -0.3781  0.1648
14844TIP3    H166023   1.326   1.699  13.356  0.6397  0.5753 -1.2930
14844TIP3    H266024   1.457   1.760  13.402  0.0571  1.0366 -0.2321
14845TIP3   OH266025   0.754   4.315  16.827  0.5387  0.1377  0.1541
14845TIP3    H166026   0.674   4.307  16.880  0.2574  0.3196 -0.2405
14845TIP3    H266027   0.736   4.388  16.768  1.3482  0.7642  0.6746
14846TIP3   OH266028   4.254   3.746  14.976  0.2245  0.7886  0.3700
14846TIP3    H166029   4.159   3.742  14.966  0.2828  1.0384 -0.2925
14846TIP3    H266030   4.271   3.835  15.009  0.3660  1.3023 -1.0838
14847TIP3   OH266031   6.165   2.774  10.050 -0.0202  0.1312 -0.0356
14847TIP3    H166032   6.201   2.704  10.104  1.0665 -0.2557 -1.2374
14847TIP3    H266033   6.073   2.749  10.037  0.3391 -1.0601 -0.4055
14848TIP3   OH266034   0.772   4.399   0.792  0.0611  0.3954  0.2628
14848TIP3    H166035   0.679   4.396   0.768 -0.2555 -0.1342  1.5062
14848TIP3    H266036   0.780   4.338   0.865  1.3370  0.6648  0.3647
14849TIP3   OH266037   6.279   1.374   5.195  0.1220 -0.0808  0.4086
14849TIP3    H166038   6.280   1.450   5.253 -0.1605  0.8277 -0.7544
14849TIP3    H266039   6.187   1.362   5.171  0.2408 -0.4039  0.0923
14850TIP3   OH266040   6.786   1.683   5.609  0.1944 -0.7305 -0.2305
14850TIP3    H166041   6.843   1.622   5.561  0.8775 -0.2210 -0.0760
14850TIP3    H266042   6.780   1.760   5.553  0.2538 -0.4919  0.0910
14851TIP3   OH266043   2.208   6.630   4.697 -0.7409 -0.1650 -0.1420
14851TIP3    H166044   2.208   6.570   4.622 -0.9463  1.9692 -1.9256
14851TIP3    H266045   2.217   6.717   4.657 -2.3279  1.1358  2.2096
14852TIP3   OH266046   1.116   0.916   5.924 -0.0023 -0.4959  0.0969
14852TIP3    H166047   1.041   0.891   5.870  0.0769  1.0941 -0.7794
14852TIP3    H266048   1.191   0.876   5.881 -0.1009 -0.3104 -0.2519
14853TIP3   OH266049   4.451   2.807  14.882  0.1490 -0.3760 -0.0341
14853TIP3    H166050   4.428   2.736  14.822  1.9555 -0.5395 -0.5699
14853TIP3    H266051   4.545   2.796  14.896 -0.3468 -0.7424  3.3536
14854TIP3   OH266052   5.582   0.928  12.773 -0.1909 -0.5242  0.7354
14854TIP3    H166053   5.544   0.869  12.708 -0.7539  0.0021  0.5913
14854TIP3    H266054   5.511   0.988  12.797  0.6770  0.7737  0.0978
14855TIP3   OH266055   1.093   2.778   3.198  0.2249 -0.1137  0.2346
14855TIP3    H166056   1.006   2.780   3.158  0.9512 -0.5794 -1.3989
14855TIP3    H266057   1.142   2.846   3.152  1.0479 -0.5949  0.3888
14856TIP3   OH266058   1.828   3.675  14.803  0.3909 -0.4574  0.5169
14856TIP3    H166059   1.852   3.649  14.714  0.4958  2.1643 -0.2463
14856TIP3    H266060   1.732   3.681  14.802  0.5752  3.2147 -0.5144
14857TIP3   OH266061   2.045   1.681   6.664 -0.2583  0.6238 -0.2400
14857TIP3    H166062   1.994   1.741   6.719  0.9075  0.6357  0.8631
14857TIP3    H266063   2.130   1.674   6.709 -0.0739 -1.1558 -0.8209
14858TIP3   OH266064   0.039   2.297  16.855 -0.1534  0.3869 -0.1083
14858TIP3    H166065  -0.043   2.255  16.879 -0.0760  0.5327  0.4118
14858TIP3    H266066   0.018   2.390  16.847 -0.2313  0.3145 -0.8425
14859TIP3   OH266067   4.479   6.227  12.804  0.3387  0.5395 -0.2554
14859TIP3    H166068   4.477   6.274  12.720  0.8105 -0.8654 -1.0607
14859TIP3    H266069   4.555   6.263  12.850 -0.4445  1.9670 -0.0233
14860TIP3   OH266070   1.643   0.705  13.317  0.4863 -0.3536  0.1512
14860TIP3    H166071   1.578   0.746  13.373  0.9371 -1.2154  1.3259
14860TIP3    H266072   1.723   0.706  13.368  1.1606 -0.2273 -0.8847
14861TIP3   OH266073   6.378   0.402  14.291 -0.5357 -0.5314  0.1264
14861TIP3    H166074   6.345   0.336  14.352 -0.7979 -0.1029  0.4533
14861TIP3    H266075   6.459   0.435  14.332 -1.0414  0.1984  0.5525
14862TIP3   OH266076   4.858   4.678  13.844  0.1947 -0.6420 -0.8889
14862TIP3    H166077   4.897   4.592  13.831  0.9938 -0.6204  1.2308
14862TIP3    H266078   4.764   4.662  13.843  0.3444 -1.8700  1.3950
14863TIP3   OH266079   6.443   3.156  14.498  0.0622  0.5663  0.5833
14863TIP3    H166080   6.420   3.244  14.469 -0.1823  1.3256  2.9878
14863TIP3    H266081   6.506   3.170  14.569  1.8848 -1.2778 -0.5861
14864TIP3   OH266082   6.670   4.458  15.253 -0.6319  0.4085  0.5641
14864TIP3    H166083   6.622   4.416  15.324  0.2310 -1.2934  0.1623
14864TIP3    H266084   6.605   4.514  15.211 -1.2275  1.2217  2.4933
14865TIP3   OH266085   6.116   1.106   1.358  0.3670 -0.0244  0.5169
14865TIP3    H166086   6.068   1.025   1.342 -1.5323  1.0282  0.7917
14865TIP3    H266087   6.108   1.155   1.276 -0.3057  0.7942  1.0717
14866TIP3   OH266088   4.728   5.849  11.985 -0.4075  0.2860  0.2889
14866TIP3    H166089   4.663   5.848  11.916 -0.3087  1.9347  0.1640
14866TIP3    H266090   4.702   5.778  12.044 -0.1451 -1.5474 -1.7254
14867TIP3   OH266091   2.316   3.573   2.757 -0.3660 -0.1704 -0.1907
14867TIP3    H166092   2.293   3.665   2.749 -0.8505  0.0079  2.8932
14867TIP3    H266093   2.411   3.572   2.763 -0.4019  0.1765  0.4142
14868TIP3   OH266094   5.493   1.872  14.694 -0.3734  0.3238 -0.1841
14868TIP3    H166095   5.491   1.956  14.649  0.4735  0.6650  0.4015
14868TIP3    H266096   5.569   1.826  14.656  0.5426  0.7406  1.0976
14869TIP3   OH266097   5.600   1.187  16.907  0.6698  0.3570 -0.4568
14869TIP3    H166098   5.565   1.262  16.955  0.8599  0.0887  0.1139
14869TIP3    H266099   5.582   1.206  16.815 -1.3215  0.0179 -0.1397
14870TIP3   OH266100   5.049   4.615  15.633 -0.3370  0.4341  0.2203
14870TIP3    H166101   5.057   4.626  15.538 -0.2807  1.9284  0.3855
14870TIP3    H266102   5.121   4.666  15.669 -0.4671  0.0139  1.0838
14871TIP3   OH266103   6.254   2.022  17.058  0.4970 -0.1029  0.1123
14871TIP3    H166104   6.285   2.059  17.140 -0.7254  0.4112  0.3587
14871TIP3    H266105   6.184   1.962  17.084  0.2071 -0.0545 -0.5442
14872TIP3   OH266106   4.201   2.238   4.306 -0.0229  0.5424 -0.4404
14872TIP3    H166107   4.169   2.220   4.218  0.4326  1.5588 -0.8149
14872TIP3    H266108   4.123   2.265   4.355 -0.5083 -1.2243 -0.1803
14873TIP3   OH266109   6.063   1.659  16.394 -0.6782  0.4354 -0.0459
14873TIP3    H166110   6.158   1.647  16.395 -0.5536  1.3028 -0.7984
14873TIP3    H266111   6.051   1.751  16.372 -1.7052  0.2891 -0.1130
14874TIP3   OH266112   5.123   0.849   0.838  0.1501 -0.1700 -0.3770
14874TIP3    H166113   5.189   0.800   0.788 -0.0829 -1.2386  0.3572
14874TIP3    H266114   5.127   0.937   0.802  1.6176 -0.3589 -0.7044
14875TIP3   OH266115   1.290   1.578  12.953  0.3379  0.6551 -0.2496
14875TIP3    H166116   1.381   1.606  12.945  0.9175 -0.8665  0.9008
14875TIP3    H266117   1.290   1.487  12.924 -0.7299  0.4983  0.2226
14876TIP3   OH266118   6.800   1.437   0.198 -0.2816 -0.0655 -0.0549
14876TIP3    H166119   6.758   1.469   0.118 -2.0800  0.8774  1.2383
14876TIP3    H266120   6.747   1.472   0.269  1.4743 -0.6327  1.5834
14877TIP3   OH266121   3.399   4.845   5.726 -0.1774 -0.3803  0.1360
14877TIP3    H166122   3.337   4.873   5.792  1.3789  0.1969  1.3954
14877TIP3    H266123   3.435   4.926   5.690  0.8981 -0.6912  0.4654
14878TIP3   OH266124   6.328   0.234  13.237  0.7150  0.5585 -0.4812
14878TIP3    H166125   6.345   0.317  13.191  1.8805 -0.4321 -1.8728
14878TIP3    H266126   6.251   0.198  13.193 -0.8980  1.7331  1.3017
14879TIP3   OH266127   4.290   0.200  11.674  0.2442 -0.0118  0.3821
14879TIP3    H166128   4.208   0.249  11.673 -0.1015 -0.5686  0.9519
14879TIP3    H266129   4.274   0.125  11.616 -0.0525 -0.7581  1.4217
14880TIP3   OH266130   1.259   3.489  14.166  0.0614 -0.0108 -0.2079
14880TIP3    H166131   1.208   3.452  14.238  0.3356 -0.7610 -0.3925
14880TIP3    H266132   1.221   3.451  14.088 -0.9013  1.5929 -0.5495
14881TIP3   OH266133   0.809   1.259  14.008 -0.3442 -0.7854 -0.3864
14881TIP3    H166134   0.881   1.278  14.069  0.0837 -1.3810 -0.6942
14881TIP3    H266135   0.768   1.180  14.044 -0.7800 -0.5031 -0.2683
14882TIP3   OH266136   5.140   6.072   2.063 -0.2807  0.5356 -0.1059
14882TIP3    H166137   5.049   6.042   2.069  0.1580 -0.7909  0.1285
14882TIP3    H266138   5.192   5.992   2.067  0.8525  1.1740 -1.6866
14883TIP3   OH266139   0.479   0.759   4.939 -0.2104 -0.8075  0.1941
14883TIP3    H166140   0.482   0.846   4.979 -2.7754 -0.1544 -0.9162
14883TIP3    H266141   0.473   0.699   5.013  1.4294 -0.0578  0.9693
14884TIP3   OH266142   6.179   0.019  15.500  0.0305 -0.0594 -0.6333
14884TIP3    H166143   6.199   0.013  15.407 -0.1040 -1.8291 -0.5686
14884TIP3    H266144   6.086   0.001  15.506  0.0126  0.1771 -0.1659
14885TIP3   OH266145   1.531   2.737   6.413  0.1903 -0.0230  0.7209
14885TIP3    H166146   1.589   2.812   6.399  0.2258 -0.5098 -1.9370
14885TIP3    H266147   1.572   2.665   6.365 -1.6018 -0.8635  0.3877
14886TIP3   OH266148   4.172   5.326  13.009 -0.1695  0.5368  0.2169
14886TIP3    H166149   4.246   5.379  12.979  0.4394 -0.7356 -0.5523
14886TIP3    H266150   4.183   5.242  12.966 -2.2731  0.4334 -0.2142
14887TIP3   OH266151   1.347   3.311   3.286  0.9905  0.3317  0.8405
14887TIP3    H166152   1.267   3.269   3.253  0.7863  0.1337  1.5885
14887TIP3    H266153   1.418   3.255   3.254  0.8106  0.3101  0.4741
14888TIP3   OH266154   3.871   0.244  17.235 -0.5369 -0.1961 -0.1013
14888TIP3    H166155   3.966   0.251  17.246 -0.6158 -1.0611  1.3133
14888TIP3    H266156   3.836   0.258  17.323 -1.6330 -1.2543 -0.3573
14889TIP3   OH266157   3.781   4.585  13.799  0.1388  0.3734  0.0274
14889TIP3    H166158   3.720   4.566  13.727  0.2773  1.5600 -0.4124
14889TIP3    H266159   3.859   4.535  13.778 -0.1078  0.0954 -0.2422
14890TIP3   OH266160   6.653   3.287  14.769 -0.0777  0.4174 -0.1493
14890TIP3    H166161   6.691   3.277  14.682  2.0894  0.1607  0.7982
14890TIP3    H266162   6.603   3.206  14.782 -1.8250  1.1887 -1.7891
14891TIP3   OH266163   5.014   1.701   3.554 -0.1879  0.0341  0.2556
14891TIP3    H166164   5.058   1.785   3.543  1.2022 -0.9170 -1.6258
14891TIP3    H266165   5.033   1.676   3.645  1.2258  0.7193  0.1671
14892TIP3   OH266166   0.018   2.072   2.791  0.5127  0.0283  0.3236
14892TIP3    H166167  -0.049   2.074   2.723 -0.5756  0.4595  1.4143
14892TIP3    H266168   0.071   1.995   2.769 -0.3049 -0.2993 -0.5403
14893TIP3   OH266169   4.662   1.315  11.449 -0.3217  0.2222  0.2846
14893TIP3    H166170   4.643   1.409  11.441  0.7289  0.4468  0.3578
14893TIP3    H266171   4.578   1.275  11.469 -0.7280  1.1868  0.5148
14894TIP3   OH266172   3.095   4.084   0.426  0.0118 -0.1991  0.0815
14894TIP3    H166173   3.113   4.173   0.457  0.6468 -0.6734  1.0696
14894TIP3    H266174   3.181   4.045   0.412 -0.2402 -1.4778  1.9783
14895TIP3   OH266175   3.140   0.622  12.379  0.6029  0.1343 -0.4694
14895TIP3    H166176   3.137   0.666  12.464  1.6307  0.9190 -0.8199
14895TIP3    H266177   3.197   0.677  12.326  0.0261 -0.3917 -1.6515
14896TIP3   OH266178   6.521   5.629   2.280  0.1180  0.0963  0.4555
14896TIP3    H166179   6.505   5.561   2.215  1.0756  0.9053 -0.6614
14896TIP3    H266180   6.476   5.599   2.359  0.9805 -2.1010  0.1530
14897TIP3   OH266181   0.192   3.489  13.032  0.2787  0.3356  0.3708
14897TIP3    H166182   0.100   3.497  13.010  0.2955  1.5484  0.6718
14897TIP3    H266183   0.237   3.485  12.947  0.0367  1.0001  0.2033
14898TIP3   OH266184   3.947   1.455   1.648 -0.2447 -0.0984 -0.8806
14898TIP3    H166185   3.854   1.434   1.642 -0.4611  1.1745 -2.3726
14898TIP3    H266186   3.951   1.526   1.713 -0.0104 -1.7418  0.9527
14899TIP3   OH266187   1.746   1.207   2.346 -0.3656 -0.2768 -0.4617
14899TIP3    H166188   1.768   1.161   2.427  0.9691  1.2881  0.1082
14899TIP3    H266189   1.780   1.151   2.277  0.0940 -0.7743  0.1624
14900TIP3   OH266190   3.540   3.056   2.688  0.3550  0.6640 -0.4263
14900TIP3    H166191   3.525   2.963   2.710 -1.1912  1.0944  0.4029
14900TIP3    H266192   3.604   3.053   2.617  2.1540 -0.9590  1.1638
14901TIP3   OH266193   5.427   0.218  12.769 -0.5309 -0.7804  0.2006
14901TIP3    H166194   5.403   0.219  12.862  3.7502  0.2587  1.4059
14901TIP3    H266195   5.480   0.296  12.758  0.3987 -1.7885 -2.7494
14902TIP3   OH266196   1.518   4.902   4.908 -0.1167  0.3351 -0.5283
14902TIP3    H166197   1.429   4.914   4.940 -0.4759  1.1621 -1.7869
14902TIP3    H266198   1.511   4.913   4.814  1.2599  0.0432 -0.6733
14903TIP3   OH266199   2.593   0.836  17.045  0.1316  0.1742 -0.4584
14903TIP3    H166200   2.505   0.846  17.080 -0.2318  0.9734 -1.5865
14903TIP3    H266201   2.620   0.748  17.073 -1.1517 -0.2114 -0.4032
14904TIP3   OH266202   4.013   1.376  14.085  0.2107  0.1823  0.2489
14904TIP3    H166203   4.000   1.342  13.997 -0.3216  1.7713 -0.2872
14904TIP3    H266204   3.975   1.309  14.142 -0.2099 -0.4522 -0.7649
14905TIP3   OH266205   0.466   2.669  10.970  0.6166 -0.0351 -0.5221
14905TIP3    H166206   0.548   2.687  11.016 -0.2484 -1.9656  1.9074
14905TIP3    H266207   0.431   2.755  10.947  3.7190  0.7960 -2.4308
14906TIP3   OH266208   5.451   3.391   2.602  0.1025 -0.6844 -0.0347
14906TIP3    H166209   5.359   3.383   2.628 -0.2426  0.4963 -0.8693
14906TIP3    H266210   5.474   3.482   2.618  1.5678 -1.2767  1.4918
14907TIP3   OH266211   4.967   6.036   3.282 -0.1195  0.0452 -0.2139
14907TIP3    H166212   4.898   5.972   3.261  0.0676  0.3122 -1.6986
14907TIP3    H266213   4.923   6.120   3.279  0.5895  0.3538 -2.7492
14908TIP3   OH266214   3.622   0.646  13.010  0.5478 -0.6027 -0.1216
14908TIP3    H166215   3.616   0.615  12.920  1.6973  1.4311 -0.9256
14908TIP3    H266216   3.532   0.656  13.039  0.1797 -0.5323 -1.2957
14909TIP3   OH266217   5.197   1.382   4.633 -0.7411 -0.1371 -0.4641
14909TIP3    H166218   5.254   1.388   4.710 -0.2139 -1.5330 -0.7294
14909TIP3    H266219   5.138   1.457   4.641 -0.1222  0.2315  0.8318
14910TIP3   OH266220   6.188   3.033  13.846  0.4910 -0.2080  0.2279
14910TIP3    H166221   6.133   2.993  13.779 -0.7295  0.5458  0.7660
14910TIP3    H266222   6.153   3.121  13.856  0.3548 -0.4710  2.2111
14911TIP3   OH266223   1.274   0.159  13.207  0.4991  0.0361 -0.2906
14911TIP3    H166224   1.316   0.233  13.163  1.1381  0.6502  1.3199
14911TIP3    H266225   1.290   0.085  13.149  0.3311  1.0500 -1.6505
14912TIP3   OH266226   4.333   5.741   1.646  0.1298  0.1748  0.2364
14912TIP3    H166227   4.250   5.778   1.616  0.7205  1.4035  0.1003
14912TIP3    H266228   4.335   5.757   1.740 -0.2890 -0.8624  0.4306
14913TIP3   OH266229   6.607   5.031   5.787  0.3039 -0.0188  0.1567
14913TIP3    H166230   6.533   4.991   5.741  2.4505 -2.3555 -1.4008
14913TIP3    H266231   6.571   5.058   5.872 -2.0588 -2.2094 -0.0849
14914TIP3   OH266232   5.224   1.260   1.562 -0.1428  0.8246  0.2436
14914TIP3    H166233   5.225   1.201   1.637 -1.5471  0.2468 -0.1894
14914TIP3    H266234   5.304   1.240   1.514 -0.5961 -0.6979  0.1210
14915TIP3   OH266235   3.719   1.566   6.589  0.1858  0.6088  0.0068
14915TIP3    H166236   3.778   1.527   6.523  0.0180 -0.9752  0.7830
14915TIP3    H266237   3.758   1.652   6.607  1.3270  0.2586 -0.7151
14916TIP3   OH266238   3.299   3.409   4.138 -0.1991 -0.1922 -0.5344
14916TIP3    H166239   3.241   3.336   4.118  1.3744 -0.8468 -2.8055
14916TIP3    H266240   3.336   3.388   4.224 -0.4390 -1.6207 -0.7762
14917TIP3   OH266241   2.529   5.083   0.923  0.0942 -0.4212 -0.1397
14917TIP3    H166242   2.591   5.107   0.854  2.3267 -2.0035  1.2821
14917TIP3    H266243   2.499   4.995   0.899 -1.3733  0.1933 -0.6305
14918TIP3   OH266244   6.021   6.006  17.292 -0.5231 -0.3871 -0.0237
14918TIP3    H166245   6.066   5.991  17.209  0.8605 -0.8578  0.8002
14918TIP3    H266246   6.005   6.101  17.294 -0.7632 -0.4072 -0.9265
14919TIP3   OH266247   5.862   4.926   3.788  0.3984 -0.2408 -0.3924
14919TIP3    H166248   5.903   4.951   3.871 -1.4649  1.0711  0.1711
14919TIP3    H266249   5.900   4.986   3.724 -0.5929  0.9872  0.1307
14920TIP3   OH266250   2.244   4.530   3.154  0.0834 -0.1027 -0.0601
14920TIP3    H166251   2.226   4.447   3.108  1.4281 -0.9750  0.9626
14920TIP3    H266252   2.176   4.536   3.221  0.4521 -0.7765  0.3769
14921TIP3   OH266253   1.652   2.544  16.301  0.4010 -0.3475  0.2388
14921TIP3    H166254   1.581   2.589  16.346  0.2881  0.9288 -1.1802
14921TIP3    H266255   1.608   2.476  16.249  0.3497 -0.4581  0.4245
14922TIP3   OH266256   1.154   4.399   1.104 -0.6960 -0.9166  0.3953
14922TIP3    H166257   1.164   4.314   1.062  0.2700  0.4145 -2.1737
14922TIP3    H266258   1.077   4.438   1.062  0.2206  0.3905 -0.1265
14923TIP3   OH266259   6.425   3.461   3.241 -0.1431 -0.4277  0.5281
14923TIP3    H166260   6.345   3.412   3.258 -0.7953 -0.0405 -1.2988
14923TIP3    H266261   6.422   3.535   3.302 -0.7240 -0.9120  1.0899
14924TIP3   OH266262   2.615   6.791  11.355 -0.0705  0.5693 -0.2240
14924TIP3    H166263   2.574   6.777  11.440  0.7380  1.4457  0.3204
14924TIP3    H266264   2.561   6.741  11.293 -0.6118 -0.1342  0.8114
14925TIP3   OH266265   3.342   3.697   2.627  0.7386  0.1773  0.4390
14925TIP3    H166266   3.356   3.787   2.597  0.3066 -0.1768 -0.8433
14925TIP3    H266267   3.403   3.687   2.701  2.1295  0.9256 -0.5855
14926TIP3   OH266268   4.579   2.811   4.649  0.1511 -0.0528 -0.5761
14926TIP3    H166269   4.672   2.789   4.642  0.1194 -0.2117 -0.4897
14926TIP3    H266270   4.539   2.772   4.571  0.0828 -0.3723 -0.3848
14927TIP3   OH266271   6.557   6.433   3.730 -0.3437  0.2700 -0.1385
14927TIP3    H166272   6.528   6.510   3.681 -1.6206  0.5549  1.0332
14927TIP3    H266273   6.649   6.451   3.750 -0.3579  1.0334 -0.7414
14928TIP3   OH266274   4.793   1.599  14.124  0.2632  0.6148  0.6297
14928TIP3    H166275   4.810   1.677  14.071 -0.3685 -0.8675 -1.7928
14928TIP3    H266276   4.871   1.591  14.180 -0.7560  4.4215  2.8104
14929TIP3   OH266277   6.134   2.915   5.241  0.3321 -0.3600 -0.2017
14929TIP3    H166278   6.184   2.835   5.227  0.6348 -0.0787 -0.7547
14929TIP3    H266279   6.176   2.980   5.184 -0.7366 -0.1467 -0.7641
14930TIP3   OH266280   2.231   5.181  12.700 -0.2662 -0.0275 -0.8243
14930TIP3    H166281   2.156   5.143  12.746 -0.0068 -1.6953 -1.7468
14930TIP3    H266282   2.298   5.113  12.703  0.5205  0.6990 -1.7506
14931TIP3   OH266283   4.754   4.684  13.407  0.2533  0.0818  0.5625
14931TIP3    H166284   4.705   4.750  13.456  0.9599  0.9468  0.1250
14931TIP3    H266285   4.835   4.729  13.381  1.6062 -1.5206  1.8892
14932TIP3   OH266286   3.769   2.726  13.275 -0.5483 -0.1297 -0.1311
14932TIP3    H166287   3.845   2.694  13.324 -0.5954 -0.1575 -0.0760
14932TIP3    H266288   3.708   2.653  13.275 -0.4366 -0.2234 -0.4679
14933TIP3   OH266289   2.368   0.952  17.184  0.2312  0.0399 -0.0385
14933TIP3    H166290   2.317   0.944  17.264 -1.5431 -1.6752 -1.3028
14933TIP3    H266291   2.337   1.033  17.144 -0.9443 -0.5882 -0.4100
14934TIP3   OH266292   0.725   1.669  12.479  0.2833 -0.0551  0.1512
14934TIP3    H166293   0.813   1.704  12.467  0.0888  0.3586 -0.0509
14934TIP3    H266294   0.737   1.574  12.479  0.5784 -0.0254 -1.0407
14935TIP3   OH266295   0.869   3.722   3.210 -0.7127  0.9657  0.0604
14935TIP3    H166296   0.854   3.794   3.271  1.3286  1.9085 -0.5118
14935TIP3    H266297   0.850   3.643   3.261  0.8573  1.7337  1.8755
14936TIP3   OH266298   1.369   0.894   2.100 -0.5102 -0.4120  0.6063
14936TIP3    H166299   1.335   0.979   2.072  0.2856 -0.2441  0.1398
14936TIP3    H266300   1.316   0.871   2.176 -1.4585 -0.0059  0.0814
14937TIP3   OH266301   3.150   3.452  14.088 -0.3384  0.2067  0.7253
14937TIP3    H166302   3.105   3.381  14.134  2.1199 -1.9812 -0.0729
14937TIP3    H266303   3.238   3.453  14.127  0.7493  0.4582 -1.6593
14938TIP3   OH266304   5.376   6.801   2.727 -0.1459 -0.1400 -0.5654
14938TIP3    H166305   5.409   6.890   2.740 -0.5372 -0.3355  2.0690
14938TIP3    H266306   5.454   6.745   2.737 -0.0479 -0.1540 -1.3862
14939TIP3   OH266307   5.762   0.628   6.287  0.4111  0.6942  0.4772
14939TIP3    H166308   5.851   0.645   6.315  0.5421  3.4569 -1.4308
14939TIP3    H266309   5.711   0.702   6.321 -0.7139  0.3599 -0.4403
14940TIP3   OH266310   1.569   6.156   3.175 -0.2761 -0.2927 -0.0312
14940TIP3    H166311   1.556   6.082   3.234 -1.7786  1.0292  1.3216
14940TIP3    H266312   1.623   6.120   3.104  1.4326 -1.9565  2.0237
14941TIP3   OH266313   2.309   3.102   1.726 -0.3155 -0.3352  0.5703
14941TIP3    H166314   2.311   3.197   1.732 -1.4277 -0.3214  0.7707
14941TIP3    H266315   2.257   3.074   1.801 -0.5890 -1.0548  0.1208
14942TIP3   OH266316   4.937   6.232   5.539  0.5585  0.7473  0.3039
14942TIP3    H166317   5.027   6.239   5.570  1.1655 -1.5570 -0.8252
14942TIP3    H266318   4.904   6.151   5.577 -0.7585  1.1282  0.0108
14943TIP3   OH266319   2.022   6.745  12.539 -0.4011 -0.6753  0.2594
14943TIP3    H166320   2.071   6.710  12.614 -0.1835  0.0942  0.4884
14943TIP3    H266321   2.077   6.725  12.463 -1.7161 -3.5238  0.0135
14944TIP3   OH266322   1.843   2.769   5.730 -0.0233 -0.6083 -0.3552
14944TIP3    H166323   1.750   2.746   5.723 -0.0379 -0.2991 -1.2829
14944TIP3    H266324   1.888   2.700   5.681  0.4112 -1.8973  1.8206
14945TIP3   OH266325   5.786   6.152   3.010  0.2104 -0.1018  0.2075
14945TIP3    H166326   5.790   6.151   3.106  2.3865  1.4746  0.1673
14945TIP3    H266327   5.762   6.242   2.988  0.0209 -0.3775 -0.7252
14946TIP3   OH266328   1.767   3.385  13.050 -0.0618 -0.4874  0.4057
14946TIP3    H166329   1.807   3.378  12.963  0.5281  1.0951  0.5263
14946TIP3    H266330   1.802   3.467  13.085 -2.1192  0.0679  1.2054
14947TIP3   OH266331   1.142   3.520   5.300  0.1170 -0.1642  0.6470
14947TIP3    H166332   1.199   3.596   5.286  0.8779 -0.4556  2.0663
14947TIP3    H266333   1.061   3.557   5.336  0.1415  0.0668  0.4671
14948TIP3   OH266334   3.032   5.110  16.828  0.2175  0.3993 -0.2583
14948TIP3    H166335   2.984   5.027  16.825 -0.5229  0.8645 -2.2979
14948TIP3    H266336   3.054   5.128  16.736  0.6703  2.2703  0.1966
14949TIP3   OH266337   2.458   2.284   2.468  0.0699 -0.4851 -0.6068
14949TIP3    H166338   2.423   2.220   2.407  0.0707 -2.2738  1.2148
14949TIP3    H266339   2.381   2.325   2.508  0.0706  0.1336 -1.2315
14950TIP3   OH266340   1.357   0.374  15.808 -0.4879 -0.4026 -0.0864
14950TIP3    H166341   1.439   0.348  15.851 -0.2679 -0.4261 -0.5272
14950TIP3    H266342   1.307   0.293  15.802  0.0801 -0.6764 -1.1937
14951TIP3   OH266343   0.186   2.808  14.995 -0.1381 -0.4664 -0.0236
14951TIP3    H166344   0.124   2.846  15.057  0.5597 -1.0868  1.0794
14951TIP3    H266345   0.215   2.881  14.941 -2.0214 -0.2176 -0.7393
14952TIP3   OH266346   1.210   0.786   4.753 -0.0726 -0.5806  0.4973
14952TIP3    H166347   1.247   0.845   4.819  0.3344  0.0724 -0.3031
14952TIP3    H266348   1.127   0.827   4.729  1.0314  0.6193 -1.3432
14953TIP3   OH266349   5.352   3.424   1.549  0.1710 -0.3104  0.5274
14953TIP3    H166350   5.357   3.339   1.505  0.9251  0.4184 -0.8228
14953TIP3    H266351   5.443   3.450   1.561 -0.0614  0.7852 -0.0169
14954TIP3   OH266352   0.514   0.764   4.229  0.5013 -0.0960 -0.0726
14954TIP3    H166353   0.497   0.854   4.254  0.5042 -0.0306 -0.3098
14954TIP3    H266354   0.431   0.732   4.194  0.0370 -0.6822  1.5075
14955TIP3   OH266355   1.297   4.514   6.482 -0.5748 -0.4284  0.9047
14955TIP3    H166356   1.331   4.496   6.395  0.3764  0.9758  0.9813
14955TIP3    H266357   1.281   4.608   6.483 -1.7632 -0.6288  1.8329
14956TIP3   OH266358   2.838   2.131  14.089 -0.0360  0.6273  0.0906
14956TIP3    H166359   2.804   2.165  14.006 -1.3703 -0.7101  0.0725
14956TIP3    H266360   2.927   2.103  14.069 -0.8018 -0.9064 -1.2148
14957TIP3   OH266361   5.502   3.487  14.109 -0.1344 -0.3887  0.0479
14957TIP3    H166362   5.562   3.440  14.167  0.9018 -0.2883 -0.9288
14957TIP3    H266363   5.452   3.544  14.167  0.7413 -0.4522  0.8709
14958TIP3   OH266364   5.052   3.101   3.231 -0.2962  0.4040  0.3631
14958TIP3    H166365   5.101   3.111   3.150  1.3766  0.4611  1.3582
14958TIP3    H266366   5.002   3.020   3.219  1.6681 -0.8162  0.1244
14959TIP3   OH266367   3.444   6.728  16.515 -0.1433 -0.4586 -0.2811
14959TIP3    H166368   3.364   6.708  16.564  0.2052 -0.0012  0.4807
14959TIP3    H266369   3.511   6.673  16.556  0.0956 -0.2551 -0.3998
14960TIP3   OH266370   6.447   3.766   1.157  0.0701 -0.2316 -0.5066
14960TIP3    H166371   6.443   3.852   1.198  0.4224 -0.6170  0.3313
14960TIP3    H266372   6.428   3.704   1.227  2.7933 -1.0248 -0.3983
14961TIP3   OH266373   6.452   1.679  12.660  0.0289  0.2269  0.0579
14961TIP3    H166374   6.442   1.763  12.616  0.1866 -1.3580 -3.1685
14961TIP3    H266375   6.370   1.633  12.643  0.5667 -0.8752  0.3975
14962TIP3   OH266376   1.453   5.821  12.832  0.1543 -0.2422 -0.0731
14962TIP3    H166377   1.407   5.759  12.776  1.3646 -2.1544  1.0208
14962TIP3    H266378   1.442   5.906  12.788 -3.8363 -0.7261 -0.1420
14963TIP3   OH266379   3.766   6.116  10.795  0.2581  0.5022  1.2281
14963TIP3    H166380   3.676   6.102  10.826  0.0658  1.0885  0.9469
14963TIP3    H266381   3.766   6.206  10.763  0.9872  0.5455  1.3543
14964TIP3   OH266382   2.252   1.172  17.123 -0.1400 -0.0335 -0.1920
14964TIP3    H166383   2.195   1.155  17.048 -0.1868 -0.5868 -0.0299
14964TIP3    H266384   2.240   1.266  17.141  0.1266  0.1760 -1.0784
14965TIP3   OH266385   5.233   5.511   6.039 -0.8104 -0.4827 -0.1412
14965TIP3    H166386   5.297   5.523   6.109  0.2631 -0.7164 -1.0660
14965TIP3    H266387   5.215   5.600   6.008 -0.4648 -0.4659 -0.2922
14966TIP3   OH266388   3.006   3.423  11.940  0.0069  0.9220 -0.3875
14966TIP3    H166389   2.933   3.390  11.887  0.2251 -0.0905 -0.0573
14966TIP3    H266390   3.078   3.363  11.923  0.6909  1.7542 -0.4888
14967TIP3   OH266391   4.038   1.772  16.508  0.3642 -0.0782  0.0204
14967TIP3    H166392   4.058   1.859  16.541 -0.7245  0.4922 -0.7916
14967TIP3    H266393   3.988   1.787  16.428 -1.1411 -1.4346  0.6599
14968TIP3   OH266394   1.040   3.887   1.236  0.1684  0.4967 -0.3670
14968TIP3    H166395   1.076   3.875   1.148  0.9838  1.0351 -0.1083
14968TIP3    H266396   1.100   3.947   1.279 -0.9841  1.3141  0.1173
14969TIP3   OH266397   1.150   3.643  11.508  0.4447 -0.1682  0.4671
14969TIP3    H166398   1.198   3.563  11.486 -0.9557 -1.0643  0.6532
14969TIP3    H266399   1.149   3.645  11.603  2.8353  1.5096  0.4886
14970TIP3   OH266400   6.491   4.162   4.052  0.5160  0.2598 -0.8422
14970TIP3    H166401   6.409   4.193   4.014  1.0328  0.7678 -1.5528
14970TIP3    H266402   6.492   4.068   4.034  2.0648  0.9115 -4.6193
14971TIP3   OH266403   1.830   6.258  14.220 -0.1260  0.5251 -0.0534
14971TIP3    H166404   1.890   6.323  14.256  1.5062 -0.4311 -0.9570
14971TIP3    H266405   1.885   6.203  14.164 -2.0128  0.1443 -1.5975
14972TIP3   OH266406   6.299   6.297   6.247  0.4097 -0.8973  0.2975
14972TIP3    H166407   6.215   6.328   6.281 -0.4015 -2.0495 -0.6513
14972TIP3    H266408   6.283   6.206   6.222  1.1511 -0.2719 -2.6030
14973TIP3   OH266409   2.691   1.257   5.783  0.4624  0.1248 -0.3437
14973TIP3    H166410   2.730   1.256   5.871  1.1918  1.0652 -0.6583
14973TIP3    H266411   2.763   1.235   5.724  0.3027  0.9499 -0.8429
14974TIP3   OH266412   3.187   6.111  17.062 -0.0153 -0.4399 -0.3318
14974TIP3    H166413   3.171   6.200  17.030  0.9159 -0.4284 -0.7934
14974TIP3    H266414   3.111   6.061  17.034  0.2811 -0.1884 -1.6320
14975TIP3   OH266415   6.094   4.474  17.051 -0.7217  0.1705 -0.1222
14975TIP3    H166416   6.154   4.494  16.980  2.4500 -2.3696  1.7031
14975TIP3    H266417   6.132   4.517  17.128 -0.0592 -3.0337  1.4419
14976TIP3   OH266418   3.279   0.697  14.199  0.8362  0.5831 -0.6456
14976TIP3    H166419   3.207   0.724  14.255 -0.2446  0.6566 -2.0256
14976TIP3    H266420   3.242   0.696  14.111  2.7887  1.6407 -1.5336
14977TIP3   OH266421   2.396   4.760  16.619 -0.0699  0.0344 -0.1834
14977TIP3    H166422   2.491   4.760  16.631 -0.1364  1.2344  0.4058
14977TIP3    H266423   2.383   4.749  16.525  0.6063 -2.4296 -0.0267
14978TIP3   OH266424   1.578   0.432   4.413  0.1823 -0.3711 -0.2005
14978TIP3    H166425   1.509   0.383   4.457 -0.4395  2.0515  1.5493
14978TIP3    H266426   1.640   0.364   4.384 -1.8606 -2.3805  0.0050
14979TIP3   OH266427   0.516   2.923  16.830  0.1538  0.3551 -0.4150
14979TIP3    H166428   0.525   3.010  16.792  2.0023  0.4058  0.0757
14979TIP3    H266429   0.564   2.929  16.913  0.6703 -1.2480 -0.5875
14980TIP3   OH266430   0.729   0.987  14.438  0.0824 -0.3862 -0.2263
14980TIP3    H166431   0.697   0.913  14.386  1.1145  0.5812 -2.3022
14980TIP3    H266432   0.765   0.947  14.518  0.3343 -2.0874 -1.1713
14981TIP3   OH266433   4.737   6.563   3.160  0.6769  0.6313  0.3497
14981TIP3    H166434   4.715   6.647   3.120  0.2320  1.2750  1.8758
14981TIP3    H266435   4.785   6.516   3.093 -0.6484  1.3847 -1.1722
14982TIP3   OH266436   1.358   4.622  12.697 -0.4329  1.0052  0.0756
14982TIP3    H166437   1.358   4.711  12.660 -0.6096  0.4460 -1.3034
14982TIP3    H266438   1.347   4.635  12.791  0.1057  2.4754 -0.0484
14983TIP3   OH266439   4.140   6.443  15.311  0.1965 -0.1966  0.1557
14983TIP3    H166440   4.215   6.415  15.363  0.2268  1.3687  0.9875
14983TIP3    H266441   4.119   6.368  15.256  1.4646 -1.1470  0.9536
14984TIP3   OH266442   2.444   5.168  13.521  0.2648 -0.6172  0.4419
14984TIP3    H166443   2.434   5.263  13.515  0.7377 -0.4057  2.7793
14984TIP3    H266444   2.490   5.144  13.440 -0.8307  0.9791 -0.6964
14985TIP3   OH266445   3.008   3.571  16.169 -0.1564  0.1023  0.0551
14985TIP3    H166446   2.969   3.657  16.156  1.2667  0.8659  0.7450
14985TIP3    H266447   3.039   3.544  16.083  1.8310  1.4983  0.3006
14986TIP3   OH266448   4.007   2.983   3.528  0.0302 -0.2254  0.5481
14986TIP3    H166449   3.916   2.986   3.557 -0.7051 -2.1598 -1.4202
14986TIP3    H266450   4.012   2.906   3.472  2.0437  1.7216 -2.0866
14987TIP3   OH266451   5.692   5.464  14.486  0.2268 -0.0888 -0.3138
14987TIP3    H166452   5.629   5.425  14.547 -0.2295  2.1182  0.6723
14987TIP3    H266453   5.778   5.437  14.520 -0.0564  0.2846  0.7239
14988TIP3   OH266454   2.662   3.787  15.092  0.0477 -0.3857 -0.2679
14988TIP3    H166455   2.651   3.704  15.046 -1.9985 -0.2345 -0.1037
14988TIP3    H266456   2.643   3.767  15.184  1.8935 -0.2187  0.1624
14989TIP3   OH266457   2.954   5.309   2.611 -0.7323 -0.6627  0.0469
14989TIP3    H166458   3.015   5.316   2.537  0.2433 -0.0554  0.9031
14989TIP3    H266459   2.897   5.385   2.603  0.1387  0.0500  0.6059
14990TIP3   OH266460   4.485   6.353  15.931  0.1404  0.0018 -0.2597
14990TIP3    H166461   4.573   6.379  15.902  0.8002 -1.1756  0.6304
14990TIP3    H266462   4.426   6.409  15.881  1.3674  0.2241 -1.4893
14991TIP3   OH266463   2.724   2.346   3.334 -0.3939 -0.3858 -0.8179
14991TIP3    H166464   2.710   2.335   3.240 -0.8081 -1.5877 -0.6271
14991TIP3    H266465   2.652   2.297   3.375 -0.7886  0.9630  0.1218
14992TIP3   OH266466   0.666   5.322   5.739 -0.6891  0.0907 -0.3760
14992TIP3    H166467   0.624   5.403   5.768 -0.1175  0.4599 -0.5636
14992TIP3    H266468   0.616   5.296   5.662 -1.3469 -0.1474  0.1318
14993TIP3   OH266469   4.723   3.035  17.221 -0.1473 -0.4821  0.5811
14993TIP3    H166470   4.764   3.102  17.276  0.8707  0.7753 -1.6492
14993TIP3    H266471   4.650   3.003  17.274 -0.6758  2.4209  1.7036
14994TIP3   OH266472   2.630   5.433   1.950 -0.6437 -0.6986 -0.1348
14994TIP3    H166473   2.618   5.338   1.949 -2.3215 -0.4915 -0.5913
14994TIP3    H266474   2.725   5.445   1.950 -0.4180 -2.3676 -0.4625
14995TIP3   OH266475   0.089   0.697   5.561  0.0206 -0.6052  0.7471
14995TIP3    H166476   0.103   0.603   5.547  1.5290 -0.2002 -0.6001
14995TIP3    H266477   0.107   0.710   5.654  1.6909 -1.3294  0.5314
14996TIP3   OH266478   0.232   0.613   0.512 -0.6977  0.4498 -0.1905
14996TIP3    H166479   0.312   0.664   0.502 -2.2903  3.3530  1.1143
14996TIP3    H266480   0.170   0.655   0.452 -1.9669 -0.1475  0.6781
14997TIP3   OH266481   6.391   1.356   6.688  0.4298  0.2315 -0.5945
14997TIP3    H166482   6.347   1.352   6.603  0.9538  1.6448 -0.9410
14997TIP3    H266483   6.320   1.368   6.751 -0.0058 -1.2885 -0.7599
14998TIP3   OH266484   4.191   1.833   2.013 -0.1864 -0.2185 -0.2701
14998TIP3    H166485   4.251   1.820   1.939  1.0688  0.7359  0.5440
14998TIP3    H266486   4.131   1.759   2.008 -1.6837  1.1157 -3.6810
14999TIP3   OH266487   0.965   3.700   2.956  0.3074  0.0426 -0.0888
14999TIP3    H166488   1.011   3.618   2.937  1.3543  0.2105  1.6515
14999TIP3    H266489   0.935   3.690   3.046 -0.9375  0.9568 -0.3874
15000TIP3   OH266490   3.844   3.710  11.037  0.4494  0.0686 -0.2719
15000TIP3    H166491   3.894   3.757  11.104  2.9307 -0.9004 -1.3445
15000TIP3    H266492   3.803   3.638  11.083  1.2665  0.0364  0.4206
15001TIP3   OH266493   1.644   5.846   4.486 -0.0014 -0.2420  0.5943
15001TIP3    H166494   1.682   5.780   4.544  0.2331 -1.3625 -0.8078
15001TIP3    H266495   1.698   5.843   4.407  0.5963  2.2987  0.8506
15002TIP3   OH266496   0.954   0.953  17.256 -0.2597 -0.0361  0.9696
15002TIP3    H166497   0.907   0.872  17.277 -0.8706 -0.3832 -1.5550
15002TIP3    H266498   0.903   1.022  17.297 -1.4791 -0.6617  0.5201
15003TIP3   OH266499   1.645   1.121  11.916 -0.2106  0.2829 -0.1698
15003TIP3    H166500   1.670   1.183  11.985 -0.1440  0.7760 -0.6266
15003TIP3    H266501   1.703   1.046  11.928  1.9165  1.6376 -1.5498
15004TIP3   OH266502   1.954   0.000   3.544 -0.1330 -0.2904 -0.4101
15004TIP3    H166503   1.980  -0.059   3.474  0.9751 -0.3868  0.0664
15004TIP3    H266504   2.014  -0.020   3.616  0.3086  1.4366 -0.2686
15005TIP3   OH266505   2.239   5.723   1.311 -0.0610 -0.8610 -0.6503
15005TIP3    H166506   2.284   5.705   1.229  0.3895 -0.2026 -0.5514
15005TIP3    H266507   2.147   5.731   1.286  0.0144 -1.1299 -1.0195
15006TIP3   OH266508   0.633   1.643  10.522 -0.2001 -0.0898  0.3228
15006TIP3    H166509   0.571   1.712  10.544 -0.1569 -0.0417  0.2956
15006TIP3    H266510   0.586   1.585  10.463 -0.8051 -1.0424  1.7318
15007TIP3   OH266511   2.330   6.239   3.899 -0.3205 -0.4504  0.1460
15007TIP3    H166512   2.270   6.235   3.973 -0.9486  2.4065 -0.1575
15007TIP3    H266513   2.299   6.172   3.838 -0.6052 -1.8929  1.8313
15008TIP3   OH266514   0.446   3.313  13.639 -0.3063  0.4116 -0.4950
15008TIP3    H166515   0.352   3.330  13.647 -0.4103  0.4536 -1.7672
15008TIP3    H266516   0.476   3.372  13.571  0.7548  0.7702  0.2624
15009TIP3   OH266517   0.758   0.308   2.317  0.4107  0.6470 -0.1555
15009TIP3    H166518   0.696   0.367   2.359  0.0765  0.7993 -0.8481
15009TIP3    H266519   0.773   0.347   2.230  0.5436 -0.0333 -0.4421
15010TIP3   OH266520   0.220   5.939  11.474  0.2337 -0.7759 -0.2604
15010TIP3    H166521   0.172   5.860  11.501  0.0765 -0.6237 -0.0862
15010TIP3    H266522   0.154   5.993  11.430  0.3606 -0.7772 -0.4535
15011TIP3   OH266523   0.390   5.066   3.391  0.2346  0.0011  0.1644
15011TIP3    H166524   0.432   5.131   3.334  0.1742 -1.0710 -1.1452
15011TIP3    H266525   0.369   5.114   3.471 -0.4376  1.7563 -1.0398
15012TIP3   OH266526   3.143   4.453   1.014 -0.3382 -0.0079  0.0246
15012TIP3    H166527   3.150   4.361   1.039 -0.5914  0.0203  0.2022
15012TIP3    H266528   3.104   4.495   1.090  0.5948  0.4066  0.2813
15013TIP3   OH266529   4.017   3.077   0.242  0.2575 -0.2279  0.3300
15013TIP3    H166530   4.053   3.072   0.153  0.1925 -2.2554  0.3840
15013TIP3    H266531   3.978   2.991   0.256  0.6736 -0.0916  2.4912
15014TIP3   OH266532   0.520   0.496  12.469  1.0221 -0.5123 -0.4285
15014TIP3    H166533   0.503   0.579  12.424  0.5875 -0.9325 -1.0369
15014TIP3    H266534   0.571   0.521  12.547  1.6935  0.2238 -1.0971
15015TIP3   OH266535   6.042   5.027  16.316  0.5646 -0.2138 -0.3962
15015TIP3    H166536   6.111   5.053  16.255  0.9360 -0.6135 -0.1503
15015TIP3    H266537   6.067   5.067  16.399  0.1466  0.1932 -0.4631
15016TIP3   OH266538   2.725   5.360   4.387  0.4904 -0.0186  0.7853
15016TIP3    H166539   2.711   5.331   4.297  0.4510  0.6662  0.5758
15016TIP3    H266540   2.791   5.299   4.421  2.4539  1.3129 -0.5212
15017TIP3   OH266541   3.690   2.051  17.219 -0.5128 -0.1107 -0.4442
15017TIP3    H166542   3.698   1.961  17.188  1.4127  0.1653 -0.7904
15017TIP3    H266543   3.742   2.102  17.158 -0.6669  1.0923  0.4221
15018TIP3   OH266544   6.687   3.272  14.486 -0.1997  0.6571  0.2284
15018TIP3    H166545   6.740   3.335  14.438  0.1026  0.5868  0.4674
15018TIP3    H266546   6.644   3.220  14.419  2.0660 -1.0036  0.0235
15019TIP3   OH266547   3.754   4.750   4.940 -0.3915  0.5071  0.6431
15019TIP3    H166548   3.675   4.697   4.943  0.4724 -1.0215 -1.9127
15019TIP3    H266549   3.819   4.701   4.990 -0.6647  1.1362  1.6419
15020TIP3   OH266550   6.547   6.714   4.814 -0.1252  0.4181  0.3817
15020TIP3    H166551   6.620   6.765   4.779  0.9983  0.3352  2.5412
15020TIP3    H266552   6.539   6.639   4.755  0.5063  1.2461 -0.7669
15021TIP3   OH266553   6.429   4.347   0.557  0.3949 -0.1524  0.0654
15021TIP3    H166554   6.399   4.423   0.507 -0.9914  0.4864  1.7669
15021TIP3    H266555   6.454   4.283   0.492 -2.4404  0.2166 -1.4729
15022TIP3   OH266556   3.928   1.713   2.711 -0.8806  0.3265 -0.5958
15022TIP3    H166557   3.864   1.655   2.753  0.3093 -0.5256  0.0570
15022TIP3    H266558   3.874   1.779   2.667 -2.1978  0.2480  0.8355
15023TIP3   OH266559   0.954   6.320  14.713 -0.0277  0.6736  0.6071
15023TIP3    H166560   0.874   6.271  14.731  0.4478 -0.0706  0.7336
15023TIP3    H266561   1.019   6.252  14.692 -0.0975  1.3982 -2.0726
15024TIP3   OH266562   2.981   5.101  11.143  0.5447  0.0418  0.1531
15024TIP3    H166563   2.897   5.058  11.131  0.2984 -0.2622  2.6877
15024TIP3    H266564   2.972   5.185  11.097 -1.6811  0.6506  1.6292
15025TIP3   OH266565   0.236   1.503   5.776 -0.0136 -0.0031  0.1780
15025TIP3    H166566   0.180   1.489   5.852 -1.2783  0.3738 -0.6737
15025TIP3    H266567   0.225   1.424   5.724  0.1893  0.1059 -0.0292
15026TIP3   OH266568   5.281   0.668  13.654 -0.3149 -0.2402 -0.2319
15026TIP3    H166569   5.211   0.604  13.671 -0.3987 -0.1774 -0.3431
15026TIP3    H266570   5.235   0.751  13.644 -0.1364 -0.0293  0.6894
15027TIP3   OH266571   0.640   0.734  12.410  0.1483  0.4350  0.1605
15027TIP3    H166572   0.679   0.720  12.496  0.4938  0.9554  0.0972
15027TIP3    H266573   0.582   0.809  12.421  0.4813  0.7414 -0.1430
15028TIP3   OH266574   6.691   2.177   1.332 -0.0966  0.1989 -0.1968
15028TIP3    H166575   6.632   2.237   1.287 -0.7407 -1.0106 -0.9689
15028TIP3    H266576   6.680   2.198   1.425 -0.8990  0.7380 -0.4106
15029TIP3   OH266577   2.145   0.927  13.178  0.2463 -0.4083 -0.1809
15029TIP3    H166578   2.153   1.022  13.166  0.2454 -0.1685  1.6492
15029TIP3    H266579   2.061   0.916  13.223 -0.3949 -1.4000 -1.5528
15030TIP3   OH266580   2.071   5.535  12.311 -0.0013 -0.5626 -0.3794
15030TIP3    H166581   2.131   5.489  12.371 -0.5096  0.4061  0.9042
15030TIP3    H266582   2.023   5.465  12.267 -0.2898 -1.2958  1.0438
15031TIP3   OH266583   4.370   0.924  13.144 -0.0116 -0.6407  0.4035
15031TIP3    H166584   4.284   0.953  13.113 -0.1781 -3.3085 -1.7647
15031TIP3    H266585   4.353   0.885  13.229 -0.5817  0.7251  0.9421
15032TIP3   OH266586   4.539   0.280  11.647 -0.7772  0.8744  0.0423
15032TIP3    H166587   4.598   0.215  11.610  0.3900  1.8098  0.2314
15032TIP3    H266588   4.456   0.234  11.658  0.0884 -0.6230  0.3464
15033TIP3   OH266589   1.044   4.689   5.429 -0.3240 -0.3540 -0.1788
15033TIP3    H166590   0.967   4.742   5.408  0.6090  0.0422 -2.8451
15033TIP3    H266591   1.009   4.618   5.483 -1.9107  1.8460  1.7971
15034TIP3   OH266592   5.855   1.115   4.653  0.3859  0.2106 -0.5853
15034TIP3    H166593   5.946   1.142   4.665  0.4823  0.4846 -1.8862
15034TIP3    H266594   5.804   1.195   4.666  0.3536  0.1216 -0.1636
15035TIP3   OH266595   3.528   3.921  16.891 -0.1074 -0.4228 -0.0848
15035TIP3    H166596   3.543   3.949  16.800 -1.0488 -0.0318 -0.1227
15035TIP3    H266597   3.469   3.846  16.883  0.5515 -0.9632  0.1501
15036TIP3   OH266598   5.762   4.998  11.154  0.1599  0.3403  0.1517
15036TIP3    H166599   5.819   4.984  11.078  1.2599  0.0851  1.0192
15036TIP3    H266600   5.692   4.933  11.143 -0.8688  1.7084 -1.7569
15037TIP3   OH266601   1.346   6.036  13.305  0.0850 -0.0640  0.2528
15037TIP3    H166602   1.383   6.120  13.277 -0.5219  0.1831  0.1846
15037TIP3    H266603   1.327   5.990  13.224  1.3687 -0.6867  0.3064
15038TIP3   OH266604   3.842   6.621  12.642  0.0975  0.0328 -0.0877
15038TIP3    H166605   3.876   6.532  12.656 -0.0072  0.1538  1.0257
15038TIP3    H266606   3.898   6.676  12.696 -0.0805  0.6005 -0.4809
15039TIP3   OH266607   1.155   4.009   2.140  0.2787  0.1650  0.5198
15039TIP3    H166608   1.140   4.089   2.190 -0.0298  0.7753 -0.5270
15039TIP3    H266609   1.071   3.991   2.099  0.5508 -0.2910  0.1618
15040TIP3   OH266610   1.759   4.996  16.614  0.0893 -0.1545  0.2318
15040TIP3    H166611   1.805   5.074  16.646 -0.9776 -0.2554  2.1224
15040TIP3    H266612   1.675   5.029  16.581 -0.3016 -0.4635  0.8961
15041TIP3   OH266613   5.629   1.339   1.561 -0.2162 -0.5978 -0.5069
15041TIP3    H166614   5.655   1.328   1.469 -0.8278  1.0001 -0.8835
15041TIP3    H266615   5.702   1.301   1.611 -0.0674 -1.8665 -1.6460
15042TIP3   OH266616   4.665   5.632   0.037 -0.2177  0.7193 -0.2283
15042TIP3    H166617   4.636   5.722   0.057  0.4585  0.8502  0.1821
15042TIP3    H266618   4.731   5.643  -0.031 -1.4632  0.3834 -1.5124
15043TIP3   OH266619   3.265   2.035   1.311  0.3560  0.1231  0.5213
15043TIP3    H166620   3.288   2.066   1.223 -0.9585 -2.2209 -0.7083
15043TIP3    H266621   3.278   2.111   1.368  1.0783  1.7273 -1.7214
15044TIP3   OH266622   4.755   5.738  15.973 -0.4667  0.0582  0.2125
15044TIP3    H166623   4.789   5.749  15.885 -0.1926  1.1032  0.4327
15044TIP3    H266624   4.665   5.771  15.968 -0.2198  0.7908  0.4751
15045TIP3   OH266625   3.117   0.225   5.023  0.2242 -0.0088 -0.1880
15045TIP3    H166626   3.028   0.201   4.995  0.0494  1.8126 -1.2093
15045TIP3    H266627   3.156   0.267   4.947  1.9928 -0.7837  0.2602
15046TIP3   OH266628   5.528   2.813  12.103  0.2997 -0.1643 -0.8286
15046TIP3    H166629   5.591   2.880  12.132  0.0656  1.4184 -3.8411
15046TIP3    H266630   5.533   2.746  12.171  4.4053  0.4572 -0.3526
15047TIP3   OH266631   0.934   2.976  14.054 -0.0476 -0.4575 -0.4006
15047TIP3    H166632   0.976   2.998  14.137 -0.3634  0.8501 -0.5769
15047TIP3    H266633   0.876   3.049  14.036  0.4277 -0.4567 -2.0495
15048TIP3   OH266634   2.197   3.478  11.164  0.5754  0.3477 -0.1084
15048TIP3    H166635   2.287   3.445  11.164  0.3818 -0.1796  0.1154
15048TIP3    H266636   2.148   3.413  11.214  0.2561  1.1589  0.6410
15049TIP3   OH266637   2.359   0.364  17.209 -0.1453 -0.4336 -0.0346
15049TIP3    H166638   2.424   0.294  17.219 -0.2551 -0.5749 -0.2925
15049TIP3    H266639   2.403   0.442  17.243  1.3295  0.1296 -3.0240
15050TIP3   OH266640   5.534   1.412  17.080  0.1076  0.7898  0.5933
15050TIP3    H166641   5.569   1.489  17.035 -0.3514 -0.3948 -1.9268
15050TIP3    H266642   5.584   1.406  17.161 -0.6134  4.3609  1.3767
15051TIP3   OH266643   5.406   0.240   1.444  0.4959  0.5711  0.8069
15051TIP3    H166644   5.394   0.162   1.390 -0.1432  1.0811  0.1995
15051TIP3    H266645   5.417   0.206   1.533 -1.0698 -0.1417  0.7363
15052TIP3   OH266646   2.936   1.289   3.452 -0.5844  0.5912  0.3983
15052TIP3    H166647   3.021   1.298   3.495 -0.0278  1.4572 -0.8764
15052TIP3    H266648   2.895   1.375   3.463 -1.5315  0.0251  1.4678
15053TIP3   OH266649   5.579   6.144  14.229  0.1420 -0.3895  0.0266
15053TIP3    H166650   5.532   6.065  14.254 -0.7862  0.2094  0.1787
15053TIP3    H266651   5.666   6.133  14.268 -0.5514 -0.5293  1.5740
15054TIP3   OH266652   0.524   6.210   6.910  0.0981 -0.5688 -0.0166
15054TIP3    H166653   0.482   6.287   6.871  0.0249  0.3404  1.8473
15054TIP3    H266654   0.458   6.141   6.901 -0.6637  0.1129  0.2447
15055TIP3   OH266655   5.250   1.422   4.055 -0.3929 -0.0838  0.2789
15055TIP3    H166656   5.293   1.506   4.042 -1.6233  0.4175 -0.6892
15055TIP3    H266657   5.319   1.364   4.086  0.9419  0.7246 -1.1126
15056TIP3   OH266658   3.797   6.349  12.229 -0.0521 -0.0052  0.0330
15056TIP3    H166659   3.892   6.344  12.217 -0.3452 -1.3103 -1.9144
15056TIP3    H266660   3.761   6.338  12.142 -2.0652 -1.2081  0.9857
15057TIP3   OH266661   5.062   2.638   3.247  0.4185 -0.5683 -0.2248
15057TIP3    H166662   5.088   2.703   3.313  0.3813  0.1232 -0.8805
15057TIP3    H266663   5.079   2.554   3.288  0.7535 -0.1368  0.5307
15058TIP3   OH266664   5.999   6.509  12.517 -0.5046 -0.1253  0.5108
15058TIP3    H166665   6.012   6.422  12.553 -1.4653 -1.5107 -2.3381
15058TIP3    H266666   5.907   6.530  12.537  0.1539  0.9485  2.5739
15059TIP3   OH266667   0.721   4.119   3.332  0.4410  0.0157  0.2011
15059TIP3    H166668   0.705   4.158   3.418 -2.9936 -0.3788 -0.2063
15059TIP3    H266669   0.706   4.025   3.345 -0.7733  0.0330 -0.9642
15060TIP3   OH266670   0.728   5.033  13.796  0.0702 -0.0918  0.3299
15060TIP3    H166671   0.798   4.968  13.791  0.5247  0.3252  1.2337
15060TIP3    H266672   0.667   4.998  13.861  0.0799  0.1612  0.4766
15061TIP3   OH266673   2.630   6.753  15.102 -0.3007  0.1829  0.9284
15061TIP3    H166674   2.543   6.746  15.064  0.7457  2.7088 -2.1650
15061TIP3    H266675   2.666   6.664  15.097 -0.9930  0.0306 -2.1837
15062TIP3   OH266676   6.687   4.760  12.684 -0.4668 -0.7498  0.1833
15062TIP3    H166677   6.764   4.801  12.644 -0.9572 -0.8494 -0.8619
15062TIP3    H266678   6.648   4.830  12.736  0.3000 -0.6876  0.7005
15063TIP3   OH266679   3.998   2.665  14.393 -0.0349 -0.4271  0.0337
15063TIP3    H166680   4.077   2.718  14.381  0.3888 -1.0308  0.1170
15063TIP3    H266681   3.943   2.716  14.452 -0.3132  0.6441 -1.1350
15064TIP3   OH266682   3.364   1.584  12.027 -0.1897 -0.3610 -0.1676
15064TIP3    H166683   3.423   1.513  12.049 -0.8269 -0.4393  1.3537
15064TIP3    H266684   3.298   1.544  11.969 -0.1792 -0.8497  0.1607
15065TIP3   OH266685   4.362   1.520  16.356 -0.0535  0.1913  0.2835
15065TIP3    H166686   4.400   1.594  16.404  1.0275 -0.6323  0.7178
15065TIP3    H266687   4.389   1.534  16.265  0.7184 -0.0198  0.4738
15066TIP3   OH266688   0.955   1.981   3.848  0.1541  0.2561  0.0216
15066TIP3    H166689   0.955   1.986   3.752  0.4827  0.3823  0.0305
15066TIP3    H266690   0.950   2.071   3.877  0.6697  0.2472  0.1301
15067TIP3   OH266691   4.968   4.100  15.989  0.1125 -0.3824  0.1990
15067TIP3    H166692   4.968   4.195  15.979 -0.8097 -0.2658  1.1715
15067TIP3    H266693   5.028   4.084  16.062 -2.5385 -0.2263  2.4949
15068TIP3   OH266694   4.114   1.439  11.729  0.2704  0.1607 -0.0326
15068TIP3    H166695   4.208   1.439  11.748  0.4342 -1.3221 -0.8498
15068TIP3    H266696   4.096   1.353  11.692 -1.3790  0.5086 -0.0887
15069TIP3   OH266697   5.747   5.964   6.142 -0.1557 -0.2348  0.1036
15069TIP3    H166698   5.833   5.926   6.121 -0.3118 -0.2200 -0.5474
15069TIP3    H266699   5.684   5.898   6.116 -0.3585 -0.1244  0.3136
15070TIP3   OH266700   0.092   4.979   3.352 -0.4572  0.4235  0.5056
15070TIP3    H166701   0.113   4.907   3.292 -1.0073  1.9083 -1.5338
15070TIP3    H266702   0.160   5.045   3.334 -0.6474  0.9042  1.5089
15071TIP3   OH266703   1.909   2.513   4.887  0.2463 -0.6881  0.1831
15071TIP3    H166704   2.002   2.492   4.893  0.7948  1.2015 -1.2215
15071TIP3    H266705   1.865   2.428   4.878  1.7323 -1.6525  1.7625
15072TIP3   OH266706   3.530   6.316   3.594 -0.6372 -0.0384  0.1365
15072TIP3    H166707   3.448   6.271   3.577 -2.0458  2.1208  0.9969
15072TIP3    H266708   3.506   6.391   3.649  2.4188 -1.5657  3.8164
15073TIP3   OH266709   1.628   5.842  13.886  0.1782  0.4453 -0.2049
15073TIP3    H166710   1.565   5.848  13.814 -0.5920  0.5852  0.4685
15073TIP3    H266711   1.577   5.809  13.959  0.7321  1.2090  0.5355
15074TIP3   OH266712   5.462   2.811  16.852 -0.3797 -0.2664 -0.5038
15074TIP3    H166713   5.543   2.808  16.902 -0.5769 -1.8143 -0.2246
15074TIP3    H266714   5.483   2.767  16.770 -0.8745 -0.5058 -0.5065
15075TIP3   OH266715   3.986   4.448   6.044  0.0821  0.2842  0.2759
15075TIP3    H166716   4.035   4.369   6.066 -0.1204  0.0459 -0.1267
15075TIP3    H266717   3.907   4.416   6.000 -0.3350  0.6734  0.7298
15076TIP3   OH266718   2.911   0.018  14.031 -0.5351 -0.3067 -0.1166
15076TIP3    H166719   2.819   0.035  14.012  0.1685  2.0322 -1.5284
15076TIP3    H266720   2.959   0.075  13.973  1.8095  0.5556  2.5429
15077TIP3   OH266721   4.349   4.497   2.197 -0.2004  0.3540  0.1871
15077TIP3    H166722   4.407   4.553   2.249  0.9958 -1.9139  1.3873
15077TIP3    H266723   4.272   4.484   2.252 -0.2234  0.3767  0.1601
15078TIP3   OH266724   4.312   4.538  13.620 -0.0707 -0.3413  0.5614
15078TIP3    H166725   4.318   4.458  13.672  0.3750 -0.6970 -0.0310
15078TIP3    H266726   4.233   4.582  13.652 -1.0440 -1.6583  0.0148
15079TIP3   OH266727   6.121   1.964  10.798  0.5482  0.1943 -0.5255
15079TIP3    H166728   6.082   2.018  10.729 -0.5917 -0.2704 -0.2490
15079TIP3    H266729   6.185   1.909  10.752 -0.5149 -0.4205 -1.2891
15080TIP3   OH266730   6.703   5.164  11.938  0.4947 -0.3534  0.1788
15080TIP3    H166731   6.649   5.175  11.859  0.1339 -1.2916  0.2870
15080TIP3    H266732   6.647   5.114  11.998  0.3668  1.2310  1.4363
15081TIP3   OH266733   1.513   1.899   1.356 -0.0748 -0.4189  0.3202
15081TIP3    H166734   1.602   1.888   1.323 -0.1143 -0.5342  0.2530
15081TIP3    H266735   1.460   1.837   1.306 -0.3257  0.1830 -0.1755
15082TIP3   OH266736   2.378   3.581   4.086  0.4651  0.0633 -0.5196
15082TIP3    H166737   2.365   3.498   4.132 -1.2680  0.4815 -0.1959
15082TIP3    H266738   2.300   3.590   4.031  0.5419  1.5579 -0.4105
15083TIP3   OH266739   4.168   1.826   1.067  0.1085 -0.1701 -0.5411
15083TIP3    H166740   4.145   1.754   1.125 -0.6397 -0.8624 -1.6865
15083TIP3    H266741   4.262   1.817   1.054  0.2428 -0.1457  0.3654
15084TIP3   OH266742   1.646   5.205  14.720  0.2752  0.1904 -0.7650
15084TIP3    H166743   1.579   5.231  14.657  0.1437 -0.5700 -0.9456
15084TIP3    H266744   1.725   5.194  14.667 -0.3189 -2.4726 -1.1438
15085TIP3   OH266745   6.700   1.143  11.144 -0.1381 -0.3711 -0.0184
15085TIP3    H166746   6.771   1.165  11.085  1.4912 -0.4485  1.8622
15085TIP3    H266747   6.690   1.048  11.137  0.4177 -0.4471  0.2487
15086TIP3   OH266748   3.521   5.665   4.552  0.3932 -0.2486  0.4207
15086TIP3    H166749   3.584   5.595   4.568 -0.9532 -1.2775  1.3272
15086TIP3    H266750   3.539   5.730   4.620 -0.1435 -0.9898  1.2870
15087TIP3   OH266751   5.772   5.308  14.736 -0.1125  0.2670  0.4495
15087TIP3    H166752   5.782   5.219  14.770  0.5972  0.0620 -0.2766
15087TIP3    H266753   5.682   5.332  14.758 -0.7525 -1.1492 -0.5547
15088TIP3   OH266754   5.055   0.637   2.276  0.0109 -0.4437  0.8729
15088TIP3    H166755   4.999   0.643   2.353 -0.0116  1.4076  0.7217
15088TIP3    H266756   5.047   0.722   2.233 -0.1892 -1.5355 -1.3390
15089TIP3   OH266757   2.440   6.799   1.546 -0.0143  0.4559  0.1569
15089TIP3    H166758   2.502   6.755   1.487 -0.8448 -1.4445  0.6357
15089TIP3    H266759   2.429   6.886   1.508  2.0545  0.4305 -0.5769
15090TIP3   OH266760   2.687   4.685  15.487  0.7145 -0.1904 -0.1800
15090TIP3    H166761   2.608   4.739  15.482  0.4542 -0.6920 -1.9350
15090TIP3    H266762   2.716   4.693  15.578 -1.6238 -0.3843  0.6217
15091TIP3   OH266763   0.129   3.637   3.694  0.1839  0.2107  0.2386
15091TIP3    H166764   0.149   3.557   3.743  0.7555 -0.0934 -0.4864
15091TIP3    H266765   0.140   3.707   3.758  1.4453 -0.1427  0.4257
15092TIP3   OH266766   0.731   2.066  15.846 -0.4450  0.0363 -0.0151
15092TIP3    H166767   0.741   2.039  15.755 -1.0042 -1.6547  0.4015
15092TIP3    H266768   0.645   2.107  15.850 -0.7842 -0.6470 -0.0983
15093TIP3   OH266769   4.721   0.499  14.285  0.1145 -0.5532  0.5184
15093TIP3    H166770   4.661   0.536  14.219  0.2390 -1.2797 -0.0120
15093TIP3    H266771   4.688   0.532  14.368  1.0852  1.9229 -0.0529
15094TIP3   OH266772   4.000   4.688  15.061  0.0259  0.2102  0.6047
15094TIP3    H166773   3.987   4.777  15.094  0.9124  1.0235 -1.1836
15094TIP3    H266774   3.977   4.694  14.968  1.3641 -1.1228  0.1799
15095TIP3   OH266775   2.399   4.117   6.072  1.1147  0.2996  0.3060
15095TIP3    H166776   2.393   4.172   6.149 -1.9423  0.2725  0.1320
15095TIP3    H266777   2.440   4.036   6.103 -2.2321 -0.6549  2.4816
15096TIP3   OH266778   0.381   5.735  12.314 -0.9485 -0.1867 -0.5460
15096TIP3    H166779   0.374   5.823  12.352  0.1020  0.5541 -2.0153
15096TIP3    H266780   0.473   5.712  12.323 -1.0420 -0.7469 -1.0227
15097TIP3   OH266781   2.136   0.490   5.541  0.1280  0.0117 -0.0303
15097TIP3    H166782   2.206   0.425   5.536 -0.7119 -0.8655 -0.5183
15097TIP3    H266783   2.097   0.477   5.627  1.5716  1.5788  0.9042
15098TIP3   OH266784   5.216   4.746   1.680  0.3604  0.4435 -0.4188
15098TIP3    H166785   5.229   4.830   1.726  1.4904  0.7422 -1.2719
15098TIP3    H266786   5.304   4.717   1.657  0.0481 -1.4452  0.6539
15099TIP3   OH266787   3.713   6.523   3.237 -0.2002  0.1530 -0.3393
15099TIP3    H166788   3.641   6.466   3.211 -0.3969 -0.0917  0.7323
15099TIP3    H266789   3.750   6.554   3.154 -1.5602  0.3248 -0.8898
15100TIP3   OH266790   4.981   4.801  11.275  0.2707 -0.1645 -0.3249
15100TIP3    H166791   5.034   4.726  11.250  1.5742  0.9214 -0.8631
15100TIP3    H266792   4.920   4.767  11.341  1.9580 -1.3201  0.6638
15101TIP3   OH266793   0.979   1.142   5.048  0.7870  0.1257 -0.6041
15101TIP3    H166794   0.920   1.164   4.976  1.6382 -2.2056 -2.0837
15101TIP3    H266795   1.067   1.148   5.010  1.4297  1.6252  1.0400
15102TIP3   OH266796   0.489   0.744  16.598 -0.0108 -0.1110 -0.0314
15102TIP3    H166797   0.412   0.798  16.580  0.4296 -0.1872 -2.3382
15102TIP3    H266798   0.557   0.806  16.626  0.1811  0.4179 -1.6452
15103TIP3   OH266799   0.340   3.741   5.640 -0.1554 -0.3209 -0.1581
15103TIP3    H166800   0.402   3.794   5.691  0.0814 -0.9402  0.2059
15103TIP3    H266801   0.297   3.804   5.582 -1.0739  0.5424  1.4258
15104TIP3   OH266802   0.321   0.574   1.228 -0.9176  0.3195 -0.6589
15104TIP3    H166803   0.367   0.658   1.233  0.3984 -0.3947 -0.3883
15104TIP3    H266804   0.358   0.523   1.300 -3.3361  0.2791  0.6013
15105TIP3   OH266805   2.364   4.668  11.848 -0.0977 -0.1809 -0.2239
15105TIP3    H166806   2.378   4.718  11.929  0.7412 -0.8260  0.0502
15105TIP3    H266807   2.344   4.733  11.782 -0.1043  0.4167  0.3662
15106TIP3   OH266808   3.888   0.534  11.397 -0.8190 -0.2364 -0.1734
15106TIP3    H166809   3.967   0.572  11.435 -0.3813 -0.5713 -0.7510
15106TIP3    H266810   3.901   0.538  11.303 -1.6678  0.0701 -0.2900
15107TIP3   OH266811   6.097   3.018  11.574 -0.2248 -0.3208  0.0672
15107TIP3    H166812   6.136   3.089  11.626 -1.4499 -0.4398  1.1874
15107TIP3    H266813   6.047   2.968  11.638 -2.0649 -0.2671 -1.2995
15108TIP3   OH266814   0.060   3.544  16.265 -0.2716  0.2390 -0.5018
15108TIP3    H166815   0.113   3.584  16.197 -0.3759  2.8398  0.9034
15108TIP3    H266816   0.025   3.464  16.225  2.1085  0.1511 -2.4593
15109TIP3   OH266817   4.079   1.011  16.516 -0.2742  0.4064  0.3336
15109TIP3    H166818   4.121   0.940  16.565 -1.7999  0.9308  2.4755
15109TIP3    H266819   4.071   1.082  16.579 -1.2736  1.5203 -1.0122
15110TIP3   OH266820   5.555   1.807   5.856  0.5474 -0.4658 -0.3035
15110TIP3    H166821   5.637   1.830   5.812 -0.2439 -0.6951 -1.9542
15110TIP3    H266822   5.526   1.727   5.812 -1.0446  0.1631 -0.4234
15111TIP3   OH266823   6.592   5.875  15.132 -0.2183 -0.0821 -0.0347
15111TIP3    H166824   6.615   5.962  15.099  0.4633 -0.1434  0.2839
15111TIP3    H266825   6.507   5.856  15.090 -1.4410  1.6485  1.5787
15112TIP3   OH266826   0.989   6.583  15.901  0.3777  0.5370 -0.3630
15112TIP3    H166827   0.924   6.576  15.970  0.9097  0.2522  0.1071
15112TIP3    H266828   1.074   6.575  15.946  0.7273  0.4770 -1.0223
15113TIP3   OH266829   3.575   2.252   1.380 -0.0614 -0.4194  0.2843
15113TIP3    H166830   3.606   2.339   1.358 -1.3700 -0.2586 -1.0439
15113TIP3    H266831   3.583   2.202   1.298  0.5270 -1.5082  0.9834
15114TIP3   OH266832   2.714   5.669  15.406  0.3439  0.3798  0.0244
15114TIP3    H166833   2.637   5.614  15.391  1.1288 -0.6390 -0.3216
15114TIP3    H266834   2.771   5.651  15.331  1.6825 -0.1841  1.1698
15115TIP3   OH266835   5.037   4.553   1.685  0.1445  0.5915 -0.1064
15115TIP3    H166836   5.108   4.618   1.687  1.0824 -0.3857 -0.7105
15115TIP3    H266837   4.997   4.563   1.599 -0.0094  0.6877 -0.0233
15116TIP3   OH266838   5.563   0.242   4.714  0.4616  0.7820  0.1284
15116TIP3    H166839   5.546   0.211   4.626  0.7338  0.3580  0.2265
15116TIP3    H266840   5.657   0.229   4.727  0.3770  0.5952  0.5770
15117TIP3   OH266841   3.909   6.022   0.642  0.3957 -0.3191 -0.2944
15117TIP3    H166842   3.855   6.069   0.578  0.5637  0.0646 -0.1581
15117TIP3    H266843   3.993   6.068   0.640  1.1345 -1.6709 -1.4145
15118TIP3   OH266844   2.456   2.343   4.950  0.2899 -0.4236 -0.5419
15118TIP3    H166845   2.424   2.339   5.040  1.3097 -1.1655 -0.2064
15118TIP3    H266846   2.388   2.300   4.898 -0.6261  0.6119 -0.2265
15119TIP3   OH266847   1.205   1.261  16.255 -0.2451  0.1702  0.3173
15119TIP3    H166848   1.264   1.202  16.207  0.5531  1.4692 -0.3354
15119TIP3    H266849   1.119   1.244  16.218 -0.4230 -2.1421  1.6447
15120TIP3   OH266850   2.478   4.529  15.845 -0.0844 -0.4756  0.0677
15120TIP3    H166851   2.401   4.536  15.788  0.2561 -0.3973 -0.3881
15120TIP3    H266852   2.551   4.519  15.785  0.5545  1.8781  0.3759
15121TIP3   OH266853   0.015   6.188   4.858 -0.2107  0.2433 -0.5198
15121TIP3    H166854  -0.046   6.157   4.791 -0.2533  1.3740 -1.0044
15121TIP3    H266855   0.011   6.120   4.926 -0.6539 -0.5848 -1.3525
15122TIP3   OH266856   3.653   2.654  14.334 -0.8972  0.4961 -0.5411
15122TIP3    H166857   3.736   2.671  14.289 -0.8814 -0.2207 -0.7991
15122TIP3    H266858   3.623   2.740  14.363  1.3732  0.4847  2.1152
15123TIP3   OH266859   2.114   3.034  12.809 -0.5152 -0.1699 -0.0961
15123TIP3    H166860   2.157   2.978  12.873  0.2782 -1.4698 -1.7405
15123TIP3    H266861   2.153   3.010  12.726 -0.5238  2.4951 -0.9089
15124TIP3   OH266862   0.340   5.992   5.081  0.3303  0.5242 -0.1022
15124TIP3    H166863   0.310   5.925   5.019  1.0738 -0.1603  0.2633
15124TIP3    H266864   0.264   6.008   5.138  0.5005 -0.8802  0.5511
15125TIP3   OH266865   2.505   2.406  11.141  0.8283  0.2289  0.1260
15125TIP3    H166866   2.538   2.346  11.074  1.0699 -0.6690  1.0292
15125TIP3    H266867   2.413   2.383  11.151 -0.2364  2.8973 -2.5662
15126TIP3   OH266868   2.607   1.698  14.454 -0.3084 -0.8578  0.0475
15126TIP3    H166869   2.673   1.706  14.385  0.0609 -0.1445  0.4730
15126TIP3    H266870   2.523   1.702  14.409 -0.0580 -1.3838 -0.4602
15127TIP3   OH266871   6.007   1.994   6.263 -0.2891 -0.1278 -0.0634
15127TIP3    H166872   6.071   1.925   6.278 -1.5120 -1.1618  0.4686
15127TIP3    H266873   5.995   2.036   6.348  0.8659  1.1301 -0.4993
15128TIP3   OH266874   1.720   2.896  12.431 -0.3568 -0.4661 -0.0287
15128TIP3    H166875   1.625   2.898  12.429 -0.3474  0.8047  0.2486
15128TIP3    H266876   1.745   2.847  12.352 -1.2435 -1.0890  0.0812
15129TIP3   OH266877   6.477   2.072  11.756  0.0783 -0.4688 -0.4942
15129TIP3    H166878   6.451   2.065  11.665  1.4848 -1.3485 -0.8349
15129TIP3    H266879   6.498   1.983  11.783 -2.2027 -0.5209  1.2768
15130TIP3   OH266880   4.434   1.306   3.863  0.4035  0.2973  0.2789
15130TIP3    H166881   4.469   1.222   3.895 -1.3917 -0.3859  0.5097
15130TIP3    H266882   4.448   1.367   3.935  0.5931 -0.1040  0.5847
15131TIP3   OH266883   5.592   1.840   2.780  0.0209  0.3042 -0.1104
15131TIP3    H166884   5.567   1.869   2.868  0.9698  2.3276 -0.4845
15131TIP3    H266885   5.508   1.825   2.735 -0.4830 -1.8370  1.4470
15132TIP3   OH266886   1.957   4.322   2.958  0.2603  0.3484  0.2661
15132TIP3    H166887   1.953   4.405   3.006 -0.1810  1.0374 -0.9358
15132TIP3    H266888   1.880   4.324   2.900  0.3896 -0.7807  0.0381
15133TIP3   OH266889   4.083   2.782  16.699 -0.3542 -0.3766 -0.7075
15133TIP3    H166890   4.161   2.837  16.691 -0.8170  0.2898 -0.6529
15133TIP3    H266891   4.012   2.836  16.666 -1.1513 -0.1843  1.2841
15134TIP3   OH266892   3.956   0.037   0.235 -0.0548 -0.1352  0.5920
15134TIP3    H166893   3.989   0.049   0.147  0.2385 -0.5940  0.6388
15134TIP3    H266894   4.017  -0.025   0.276 -0.2493 -0.0120  1.0772
15135TIP3   OH266895   3.135   2.792  15.947  0.1276  0.4126  0.2063
15135TIP3    H166896   3.082   2.829  16.018 -0.7049 -1.5648  0.6630
15135TIP3    H266897   3.224   2.788  15.982 -0.1167  0.2975  0.8162
15136TIP3   OH266898   1.881   4.766   4.249 -0.4369  0.4008  0.4975
15136TIP3    H166899   1.879   4.859   4.271  0.0601  0.3227  0.8773
15136TIP3    H266900   1.850   4.722   4.328 -0.8044  0.2503  0.2718
15137TIP3   OH266901   3.648   0.092   5.437 -0.1428 -0.1774 -0.9192
15137TIP3    H166902   3.728   0.090   5.490  1.1532 -2.2372 -2.8835
15137TIP3    H266903   3.589   0.030   5.481 -0.7310  1.3817  0.5617
15138TIP3   OH266904   4.182   3.274  14.014  0.5253  0.8504  0.1621
15138TIP3    H166905   4.116   3.251  13.949 -0.9445 -0.4397  2.0655
15138TIP3    H266906   4.168   3.367  14.031  0.3587  0.9887 -0.7365
15139TIP3   OH266907   2.169   5.170   2.230  0.1903 -0.0000 -0.1123
15139TIP3    H166908   2.250   5.123   2.211  0.9726  1.1184  0.3178
15139TIP3    H266909   2.099   5.108   2.213  0.9348  0.1893 -4.2643
15140TIP3   OH266910   3.503   0.108   3.451 -0.3604 -0.0741  0.1651
15140TIP3    H166911   3.559   0.038   3.417 -0.0020  1.1831 -1.8864
15140TIP3    H266912   3.533   0.121   3.541  1.7548 -0.3290 -0.4856
15141TIP3   OH266913   0.426   2.734  16.639 -0.3612  0.6352  0.3846
15141TIP3    H166914   0.440   2.816  16.687 -0.9720  1.4790 -0.8245
15141TIP3    H266915   0.364   2.758  16.570  1.3273 -0.2474 -1.5080
15142TIP3   OH266916   4.535   3.090   4.275  0.0353 -0.5160 -0.3047
15142TIP3    H166917   4.600   3.111   4.208  0.0717 -0.5502 -0.2802
15142TIP3    H266918   4.536   2.994   4.279  1.7587 -0.4751  1.4341
15143TIP3   OH266919   4.108   0.940   2.710  0.0776  0.3068  0.1040
15143TIP3    H166920   4.171   0.914   2.777  0.5287 -0.8908 -0.7544
15143TIP3    H266921   4.042   0.871   2.712  0.5003 -0.1459 -1.2014
15144TIP3   OH266922   1.686   6.281   3.394 -0.2443  0.0054 -0.1411
15144TIP3    H166923   1.654   6.259   3.307 -0.2021 -0.6989  0.0173
15144TIP3    H266924   1.636   6.225   3.453  0.1289  0.0673  0.2388
15145TIP3   OH266925   4.387   5.963   2.443 -0.2875  0.7397 -0.6359
15145TIP3    H166926   4.339   6.043   2.425  0.9171  1.6223  0.0538
15145TIP3    H266927   4.357   5.935   2.529 -1.4115 -0.0857 -1.2787
15146TIP3   OH266928   2.388   5.903   0.226 -0.5113  0.1092 -0.4214
15146TIP3    H166929   2.350   5.927   0.310  0.4728  1.2539 -0.3025
15146TIP3    H266930   2.473   5.866   0.248 -1.3730 -2.1454 -0.7134
15147TIP3   OH266931   1.341   2.047  14.200  0.4508 -0.3011  0.3602
15147TIP3    H166932   1.324   2.056  14.294  2.9678 -0.2383  0.8476
15147TIP3    H266933   1.356   2.136  14.169 -0.4262 -0.3161 -0.1316
15148TIP3   OH266934   1.010   1.548  13.028  0.0601 -0.1595 -0.2544
15148TIP3    H166935   1.099   1.574  13.002 -0.0369  1.5163  1.0292
15148TIP3    H266936   0.955   1.575  12.954  0.4596 -0.0608 -0.5147
15149TIP3   OH266937   0.503   6.759  12.227 -0.3269  0.1701  0.5040
15149TIP3    H166938   0.504   6.728  12.317  0.5222  1.6105  1.0153
15149TIP3    H266939   0.589   6.734  12.192 -0.6413 -0.3560  0.1032
15150TIP3   OH266940   3.804   1.426  16.805  0.4684 -0.2785 -0.0116
15150TIP3    H166941   3.839   1.463  16.724  1.3269  0.0245  0.4982
15150TIP3    H266942   3.776   1.502  16.856  0.5059 -0.4351  0.2422
15151TIP3   OH266943   4.590   5.570   1.033  0.0037  0.3650  0.1939
15151TIP3    H166944   4.626   5.558   0.945 -0.4208 -1.4463  0.2366
15151TIP3    H266945   4.663   5.604   1.085  1.0233 -1.0839 -0.2468
15152TIP3   OH266946   0.027   4.870  16.863 -0.5610  0.4443 -0.1924
15152TIP3    H166947  -0.063   4.872  16.830 -0.6021 -0.1399 -0.1264
15152TIP3    H266948   0.054   4.779  16.851  0.1079  0.6721 -0.4388
15153TIP3   OH266949   5.872   1.782  11.358 -0.0149  0.0149 -0.4513
15153TIP3    H166950   5.800   1.750  11.303  0.6315 -2.1296 -0.0868
15153TIP3    H266951   5.872   1.723  11.433  2.1101  0.0304 -0.4318
15154TIP3   OH266952   0.938   1.822  15.641  0.3419 -0.1539 -0.0112
15154TIP3    H166953   0.990   1.901  15.655  1.1696 -0.1386 -2.9550
15154TIP3    H266954   0.998   1.762  15.596 -1.3071 -1.2046 -0.8382
15155TIP3   OH266955   0.397   3.661   0.635 -0.3854  0.2485 -0.0305
15155TIP3    H166956   0.460   3.595   0.608 -0.6790 -0.3149  0.6654
15155TIP3    H266957   0.377   3.709   0.554  0.5896  0.1472 -0.3392
15156TIP3   OH266958   3.626   3.105   3.873 -0.0213 -0.1164  0.6700
15156TIP3    H166959   3.598   3.124   3.962 -0.5083 -0.9913  0.7154
15156TIP3    H266960   3.545   3.105   3.822 -0.1542 -2.7666  0.8186
15157TIP3   OH266961   1.968   1.444   5.905  0.2119  0.2129 -0.9325
15157TIP3    H166962   1.905   1.387   5.950 -1.4844  2.1555 -0.7394
15157TIP3    H266963   1.925   1.466   5.822  0.0939  2.4616 -0.3124
15158TIP3   OH266964   2.207   3.342  15.668 -0.3504 -0.0259 -0.4817
15158TIP3    H166965   2.245   3.385  15.745  0.6219  1.2259 -1.6194
15158TIP3    H266966   2.184   3.415  15.609 -0.2495 -0.9949 -1.7389
15159TIP3   OH266967   2.738   2.728   4.723 -0.0865 -0.2510 -0.2305
15159TIP3    H166968   2.689   2.786   4.782  0.7653 -0.9595  1.1978
15159TIP3    H266969   2.794   2.677   4.781  0.2254 -1.4976 -1.6096
15160TIP3   OH266970   3.674   6.328  11.472 -0.7523  0.1511 -0.3459
15160TIP3    H166971   3.735   6.376  11.415  0.0130 -0.8455 -0.3800
15160TIP3    H266972   3.617   6.396  11.508  0.0844  1.0461 -0.6685
15161TIP3   OH266973   5.599   0.033   3.708  0.0232 -0.3277  0.1376
15161TIP3    H166974   5.547   0.111   3.727 -0.6770 -0.5117 -0.9579
15161TIP3    H266975   5.554  -0.008   3.635  1.6773 -0.5458 -0.7801
15162TIP3   OH266976   2.392   2.314  12.300  0.2829  0.0423  0.1608
15162TIP3    H166977   2.444   2.347  12.227  0.1484 -1.4162 -0.5990
15162TIP3    H266978   2.457   2.282  12.363  0.3784  0.7199  0.4098
15163TIP3   OH266979   6.776   0.549   6.095 -1.1013 -0.3391 -0.1584
15163TIP3    H166980   6.795   0.477   6.156  0.6590  0.7687  0.6407
15163TIP3    H266981   6.737   0.506   6.019  0.8805 -2.2812 -0.1457
15164TIP3   OH266982   4.095   3.568   5.775 -0.4990 -0.5820  0.4008
15164TIP3    H166983   4.074   3.619   5.854 -1.1064 -1.4776  0.8361
15164TIP3    H266984   4.012   3.562   5.728 -0.5655 -1.6024  0.6239
15165TIP3   OH266985   5.360   6.326   5.458 -0.0028  0.5079 -0.2402
15165TIP3    H166986   5.426   6.342   5.525  0.1177  0.8948 -0.4511
15165TIP3    H266987   5.302   6.260   5.497  0.3398  0.3798  0.0559
15166TIP3   OH266988   1.457   5.402  13.519 -0.1653 -0.3279  0.0738
15166TIP3    H166989   1.417   5.343  13.582  0.6025 -0.1673  0.7079
15166TIP3    H266990   1.541   5.362  13.497  1.0248  1.2594  1.6233
15167TIP3   OH266991   0.475   2.478   0.510  0.9633 -0.0369  0.0606
15167TIP3    H166992   0.520   2.551   0.551 -0.6637  0.6555  0.6448
15167TIP3    H266993   0.473   2.409   0.577 -1.4790  1.0067  1.1169
15168TIP3   OH266994   4.830   4.442  14.457  0.3000 -0.0784  0.0112
15168TIP3    H166995   4.797   4.464  14.545 -1.3156  0.9346 -0.8230
15168TIP3    H266996   4.921   4.415  14.472 -0.2459 -0.8818  2.1134
15169TIP3   OH266997   1.008   0.989   4.635  0.2952 -0.2039  1.1536
15169TIP3    H166998   1.009   1.064   4.575  2.0986 -0.8618  0.3151
15169TIP3    H266999   1.014   0.913   4.577 -2.1125 -1.0620  1.9581
15170TIP3   OH267000   5.249   4.318   1.026 -0.2702 -0.3512  0.0877
15170TIP3    H167001   5.194   4.365   1.088 -0.7747 -2.7654  1.5530
15170TIP3    H267002   5.192   4.301   0.951 -0.2798  0.7397 -0.1605
15171TIP3   OH267003   5.295   1.317  13.226  0.2891  0.0712 -0.4687
15171TIP3    H167004   5.348   1.255  13.176 -2.3959 -1.1533 -1.9322
15171TIP3    H267005   5.252   1.264  13.292 -0.3648  0.7421 -0.3464
15172TIP3   OH267006   6.621   5.766   0.437  0.1984 -0.3127 -0.5666
15172TIP3    H167007   6.615   5.806   0.350  1.3093  0.8721 -0.1302
15172TIP3    H267008   6.712   5.739   0.444  0.3040  0.2792  0.5001
15173TIP3   OH267009   5.686   3.886   5.327  0.5982 -0.0540  0.0382
15173TIP3    H167010   5.773   3.887   5.368  0.1831  2.4529  0.9543
15173TIP3    H267011   5.688   3.959   5.266  0.6080 -2.6932 -3.3001
15174TIP3   OH267012   2.417   3.047   2.126  0.1866  0.2844  0.0483
15174TIP3    H167013   2.340   3.060   2.070  0.5331 -0.0407 -0.5167
15174TIP3    H267014   2.478   3.115   2.098  1.3036 -1.3499 -1.6702
15175TIP3   OH267015   5.113   1.995   5.616  0.3603 -0.4973  0.6108
15175TIP3    H167016   5.150   1.907   5.629  0.6579 -0.5354 -0.4418
15175TIP3    H267017   5.152   2.048   5.685 -0.4035 -1.3645  1.7214
15176TIP3   OH267018   3.157   3.733   3.302 -0.0739 -0.0163  0.2041
15176TIP3    H167019   3.191   3.791   3.234  0.0216  0.9772  1.0774
15176TIP3    H267020   3.062   3.749   3.302  0.2364  2.1188  2.2012
15177TIP3   OH267021   5.161   6.551  11.050 -0.0343 -0.1778 -0.3871
15177TIP3    H167022   5.098   6.586  10.987  0.1338  0.6007 -0.1333
15177TIP3    H267023   5.158   6.613  11.123  0.4762 -0.5480 -0.0500
15178TIP3   OH267024   3.632   5.890  12.219  0.2069  0.4207  0.1462
15178TIP3    H167025   3.606   5.955  12.284  0.1848  1.4150 -0.8469
15178TIP3    H267026   3.728   5.893  12.219  0.2146  0.1719  0.3833
15179TIP3   OH267027   0.824   0.389  11.514 -0.1048  0.2697  0.0175
15179TIP3    H167028   0.852   0.345  11.434 -0.3532 -0.0077  0.0872
15179TIP3    H267029   0.740   0.350  11.536  0.1064  0.1287  0.5861
15180TIP3   OH267030   6.463   6.464   1.771  0.2784  0.2680 -0.1967
15180TIP3    H167031   6.532   6.530   1.775 -0.1272  0.6263  1.0226
15180TIP3    H267032   6.480   6.407   1.845 -1.6454  1.2758  1.0673
15181TIP3   OH267033   6.740   5.960  13.309 -0.0981  0.4372 -0.4950
15181TIP3    H167034   6.651   5.963  13.343 -0.4931 -2.1177 -1.2100
15181TIP3    H267035   6.730   5.946  13.215  0.9067 -5.9242  0.0829
15182TIP3   OH267036   5.341   1.106   3.363  0.0035 -0.0465 -0.5929
15182TIP3    H167037   5.347   1.060   3.447 -0.6373  0.7566 -0.0997
15182TIP3    H267038   5.405   1.062   3.307 -1.4613 -2.3500 -0.5189
15183TIP3   OH267039   4.722   6.025   0.694 -0.0881 -1.1603  0.4459
15183TIP3    H167040   4.817   6.032   0.686 -0.3507  1.1692 -0.9057
15183TIP3    H267041   4.696   5.961   0.627  0.3686 -0.7251 -0.1423
15184TIP3   OH267042   2.215   0.503   2.570  0.3437 -0.0089 -0.0914
15184TIP3    H167043   2.282   0.512   2.638  0.8393  1.2265 -0.7331
15184TIP3    H267044   2.193   0.593   2.546 -1.1761 -0.4154 -0.2593
15185TIP3   OH267045   5.741   4.191   4.454  0.0121 -0.3641  0.2561
15185TIP3    H167046   5.790   4.133   4.396 -0.8048  0.0873 -0.8940
15185TIP3    H267047   5.795   4.270   4.459 -0.2676 -0.1258 -0.4666
15186TIP3   OH267048   0.534   5.545  12.840  0.5582 -0.0154 -0.4230
15186TIP3    H167049   0.610   5.578  12.790 -0.3115  1.4014 -0.8513
15186TIP3    H267050   0.489   5.624  12.869 -0.4398 -0.8556  0.3348
15187TIP3   OH267051   6.110   4.946  17.128  0.0732 -0.2571 -0.3139
15187TIP3    H167052   6.168   4.870  17.134 -0.0587 -0.4030 -0.8286
15187TIP3    H267053   6.062   4.933  17.047 -0.8563 -0.2596  0.2277
15188TIP3   OH267054   5.609   0.863  13.200  0.3415  0.4480  0.1920
15188TIP3    H167055   5.622   0.958  13.200 -1.2311  0.6774 -1.1108
15188TIP3    H267056   5.695   0.827  13.177  1.1188  1.5185  1.3860
15189TIP3   OH267057   0.954   0.769   1.391  0.0018  0.1893 -0.0643
15189TIP3    H167058   0.865   0.740   1.373 -0.1327 -0.0030  0.8613
15189TIP3    H267059   1.007   0.689   1.385 -0.0115  0.1623  0.1590
15190TIP3   OH267060   2.350   1.641  14.998  0.3038  0.1919 -0.9188
15190TIP3    H167061   2.288   1.701  15.039  0.0401  1.0435 -2.5299
15190TIP3    H267062   2.344   1.561  15.051 -2.8864 -0.0913 -1.6006
15191TIP3   OH267063   0.872   1.552  10.597 -0.7163  0.2087  0.0069
15191TIP3    H167064   0.937   1.540  10.527  1.2629 -0.9652  1.9783
15191TIP3    H267065   0.789   1.556  10.551  0.5257 -0.6044 -2.4385
15192TIP3   OH267066   5.650   1.980  13.954  0.3106 -0.0252  0.1595
15192TIP3    H167067   5.726   1.925  13.975  0.8824  1.3083  1.6556
15192TIP3    H267068   5.606   1.992  14.038 -0.0174  1.4897 -0.2287
15193TIP3   OH267069   1.214   1.885   1.503  0.1411  0.3020  0.3883
15193TIP3    H167070   1.156   1.895   1.578 -0.1313  1.2858  0.0529
15193TIP3    H267071   1.185   1.952   1.441  0.4818 -0.3819 -0.5183
15194TIP3   OH267072   3.307   5.462   5.600 -0.1985 -0.4507 -0.1762
15194TIP3    H167073   3.286   5.436   5.511 -0.0069 -2.3222  0.2959
15194TIP3    H267074   3.306   5.380   5.650 -0.1223  0.5414  1.4979
15195TIP3   OH267075   3.240   1.388   3.068  0.7513  0.3068  0.1938
15195TIP3    H167076   3.267   1.389   3.159 -0.2014 -0.3107  0.4913
15195TIP3    H267077   3.317   1.417   3.019  1.7464 -0.8461  1.0640
15196TIP3   OH267078   0.468   5.227   0.438  0.2917  0.0177 -0.3208
15196TIP3    H167079   0.552   5.265   0.413  1.0434  0.5831  2.9219
15196TIP3    H267080   0.490   5.140   0.472 -0.6263 -0.4127 -0.7838
15197TIP3   OH267081   0.712   2.291  15.555  0.8529 -0.1102 -0.1608
15197TIP3    H167082   0.691   2.380  15.584 -0.7513 -0.7755  0.8495
15197TIP3    H267083   0.786   2.265  15.610 -1.3541 -0.8873  2.5784
15198TIP3   OH267084   6.140   3.629  11.376 -0.4028  0.0158 -0.5701
15198TIP3    H167085   6.177   3.546  11.345 -0.0595  1.2641 -3.6248
15198TIP3    H267086   6.214   3.675  11.416  0.4317  0.6090 -2.6962
15199TIP3   OH267087   2.898   6.259   2.263 -0.4234 -0.0367 -0.0644
15199TIP3    H167088   2.826   6.297   2.214  1.6425  0.2477 -2.9461
15199TIP3    H267089   2.896   6.304   2.348 -3.4848  0.0620 -0.1297
15200TIP3   OH267090   4.549   4.400  13.423  0.0703 -0.4596 -0.1353
15200TIP3    H167091   4.508   4.329  13.374  2.2020 -0.6065 -1.7960
15200TIP3    H267092   4.478   4.461  13.441 -1.4121 -2.0506 -0.4106
15201TIP3   OH267093   5.473   0.637  14.362 -0.2657  0.0191  0.0675
15201TIP3    H167094   5.384   0.605  14.346  0.0877 -0.9554  0.0182
15201TIP3    H267095   5.496   0.684  14.282 -1.0135  0.9353  0.3789
15202TIP3   OH267096   4.661   2.127   2.520 -0.0999 -0.5517 -0.8384
15202TIP3    H167097   4.734   2.090   2.470  0.1362 -1.4217  0.1477
15202TIP3    H267098   4.625   2.053   2.569 -0.0071  0.3925  0.6844
15203TIP3   OH267099   0.837   4.948  12.115 -0.3981  0.3441  0.2970
15203TIP3    H167100   0.822   5.023  12.058  1.7101  0.6789  0.1577
15203TIP3    H267101   0.888   4.887  12.061  0.9838  0.3474  1.5623
15204TIP3   OH267102   0.547   5.328  12.544 -0.2221 -0.1828 -0.2968
15204TIP3    H167103   0.625   5.378  12.518  0.4717 -1.3536 -0.4932
15204TIP3    H267104   0.496   5.322  12.464 -0.3829  0.3298 -0.2385
15205TIP3   OH267105   6.027   0.688   6.374 -0.2372  0.2225 -0.0363
15205TIP3    H167106   6.090   0.647   6.315  0.6730  0.8920  0.4603
15205TIP3    H267107   6.068   0.682   6.461 -0.8921  0.5799  0.3022
15206TIP3   OH267108   2.615   6.355  13.045 -0.1324 -0.1720  0.2497
15206TIP3    H167109   2.542   6.395  12.997 -0.1280 -0.9706 -0.4361
15206TIP3    H267110   2.573   6.312  13.120 -0.4667 -1.2734 -0.5538
15207TIP3   OH267111   0.423   5.860   3.280 -0.5190  0.7451  0.1098
15207TIP3    H167112   0.403   5.792   3.215  0.1370  0.1575  0.5084
15207TIP3    H267113   0.338   5.884   3.317 -0.7521  0.1137 -0.0092
15208TIP3   OH267114   2.788   3.310   0.103  0.1667 -0.2151 -0.1911
15208TIP3    H167115   2.804   3.234   0.159  1.1367 -0.2293 -0.4852
15208TIP3    H267116   2.740   3.276   0.028  0.4903 -0.5198 -0.2607
15209TIP3   OH267117   1.921   0.878   4.287  0.5707 -0.5409  0.7116
15209TIP3    H167118   1.997   0.836   4.246  1.4169  0.0266  1.6936
15209TIP3    H267119   1.858   0.807   4.300  0.8390 -0.9715 -0.3036
15210TIP3   OH267120   4.157   5.395   4.312  0.0383 -0.1093 -0.8297
15210TIP3    H167121   4.200   5.329   4.365 -0.3860  0.7598  0.6073
15210TIP3    H267122   4.228   5.436   4.262  0.8795  1.2000  1.3968
15211TIP3   OH267123   1.387   3.852   0.405 -0.3901 -0.4241 -0.0343
15211TIP3    H167124   1.292   3.860   0.412 -0.3707 -0.3689  0.1664
15211TIP3    H267125   1.417   3.937   0.371 -0.4987 -0.7409 -0.9488
15212TIP3   OH267126   2.909   4.167  13.984  0.5073 -0.1198  0.0846
15212TIP3    H167127   2.936   4.144  14.073 -0.6204  2.3223  1.1153
15212TIP3    H267128   2.813   4.170  13.989  0.3654 -1.2862 -1.5813
15213TIP3   OH267129   4.197   0.437   5.275  0.4434  0.0026 -0.2121
15213TIP3    H167130   4.142   0.460   5.350  0.4878 -0.4466 -0.0357
15213TIP3    H267131   4.276   0.400   5.314  0.5299 -0.0912 -0.4771
15214TIP3   OH267132   0.455   0.198  15.774 -0.3565  0.3973 -0.3850
15214TIP3    H167133   0.389   0.200  15.705  0.6359  0.9177 -1.3448
15214TIP3    H267134   0.510   0.123  15.751  1.1890  1.7769 -1.3386
15215TIP3   OH267135   6.311   5.158  14.073 -0.0332 -0.2645 -0.0882
15215TIP3    H167136   6.246   5.088  14.067  0.6972 -1.2062  2.3214
15215TIP3    H267137   6.291   5.201  14.156 -0.7276  2.6784 -1.7340
15216TIP3   OH267138   0.995   5.804  11.870  0.3311  0.2339  0.4415
15216TIP3    H167139   1.080   5.781  11.907  0.3629 -0.0408  0.1947
15216TIP3    H267140   0.934   5.743  11.911  0.4514 -0.4572 -0.3959
15217TIP3   OH267141   2.391   0.691  12.556  0.1757 -0.5687 -0.1456
15217TIP3    H167142   2.431   0.656  12.476 -0.3243 -2.5748  0.4383
15217TIP3    H267143   2.441   0.770  12.576 -0.3645  0.5791 -3.0294
15218TIP3   OH267144   4.482   2.924  13.129  0.3209 -0.1811  0.0372
15218TIP3    H167145   4.510   3.008  13.094 -1.4764  0.6081  0.4666
15218TIP3    H267146   4.526   2.916  13.213  1.2552 -0.1174 -0.4435
15219TIP3   OH267147   4.863   5.982  11.400  0.0439 -0.2080  0.2417
15219TIP3    H167148   4.948   5.995  11.359 -1.6080  0.9840 -3.0056
15219TIP3    H267149   4.825   5.907  11.353 -1.7588  0.9486 -0.2018
15220TIP3   OH267150   0.073   0.402  16.603 -0.3909 -0.0893  0.4514
15220TIP3    H167151   0.056   0.317  16.642 -0.6839  0.7898  2.2971
15220TIP3    H267152   0.165   0.420  16.623 -0.4462  0.2181  0.4341
15221TIP3   OH267153   3.831   3.184  15.961 -0.3275  0.1849  0.5910
15221TIP3    H167154   3.917   3.144  15.950 -1.0980 -0.9740 -1.3677
15221TIP3    H267155   3.846   3.277  15.943  0.4133 -0.0941 -0.2710
15222TIP3   OH267156   1.547   3.806  15.865  0.0165 -0.3168 -0.3443
15222TIP3    H167157   1.523   3.715  15.848  2.3970 -0.9104 -0.8058
15222TIP3    H267158   1.582   3.805  15.955  0.6504 -0.0098 -0.5785
15223TIP3   OH267159   6.596   5.900  14.287 -0.4851  0.5271 -0.0890
15223TIP3    H167160   6.603   5.992  14.314 -0.7067  0.6288 -0.3802
15223TIP3    H267161   6.562   5.855  14.365  1.6722  0.3243  0.7715
15224TIP3   OH267162   3.838   6.453  16.465  0.1020 -0.4522  0.4609
15224TIP3    H167163   3.828   6.372  16.416  2.3756  0.4209 -1.5754
15224TIP3    H267164   3.861   6.518  16.399  0.5583  1.3697  2.3509
15225TIP3   OH267165   3.002   4.497   4.721  0.0492 -0.2830 -0.0084
15225TIP3    H167166   2.910   4.496   4.749 -0.3836  0.1738 -1.3621
15225TIP3    H267167   3.051   4.525   4.798 -0.8175 -1.7347  1.0897
15226TIP3   OH267168   2.685   0.499   0.423 -0.2555  0.0071 -0.5097
15226TIP3    H167169   2.667   0.428   0.485 -0.7890  1.7593  1.4303
15226TIP3    H267170   2.780   0.505   0.419 -0.2195 -0.1844  0.0776
15227TIP3   OH267171   4.003   4.528   3.504 -0.3549  0.4536  0.0882
15227TIP3    H167172   3.992   4.622   3.488 -1.1978  0.3636  0.1607
15227TIP3    H267173   3.955   4.511   3.585 -3.9412 -0.8792 -2.2502
15228TIP3   OH267174   3.887   1.787  12.047 -0.1541  0.8559 -0.0749
15228TIP3    H167175   3.923   1.815  11.963 -0.6364  0.7719 -0.3099
15228TIP3    H267176   3.823   1.720  12.025 -0.4253  0.9710  0.3472
15229TIP3   OH267177   3.256   0.404   4.390 -0.1834 -0.1190  0.3263
15229TIP3    H167178   3.282   0.424   4.300 -0.1628  2.2928  0.8313
15229TIP3    H267179   3.267   0.487   4.436 -1.1104 -1.1079  2.3407
15230TIP3   OH267180   1.813   5.184   2.427 -0.4371  0.6157  0.8951
15230TIP3    H167181   1.829   5.243   2.354  0.0426 -0.4267  0.1446
15230TIP3    H267182   1.737   5.222   2.472 -1.7313  0.4273 -1.0500
15231TIP3   OH267183   1.283   2.306   1.163  0.0767  0.6752  0.3885
15231TIP3    H167184   1.318   2.344   1.083 -2.6832  0.0703 -1.1751
15231TIP3    H267185   1.192   2.336   1.166 -0.7981 -1.9701  1.5575
15232TIP3   OH267186   3.298   5.035  13.461  0.0661 -0.7481 -0.1418
15232TIP3    H167187   3.332   5.077  13.540 -2.2510  0.0225  0.4769
15232TIP3    H267188   3.345   5.078  13.389 -1.3265  2.0689  0.5530
15233TIP3   OH267189   2.209   4.945  16.685  0.4029 -0.0930  0.1557
15233TIP3    H167190   2.285   4.906  16.643  0.2428  1.2834 -1.4654
15233TIP3    H267191   2.246   5.009  16.746  0.5435  1.0882 -1.1551
15234TIP3   OH267192   5.251   6.658   3.840  0.4792  0.1063  0.5032
15234TIP3    H167193   5.266   6.752   3.829  0.3073 -0.0327 -0.9387
15234TIP3    H267194   5.234   6.648   3.934  0.1228  1.5587  0.6106
15235TIP3   OH267195   4.889   0.166  13.318  0.1486  0.1851  0.2014
15235TIP3    H167196   4.893   0.251  13.275  1.8295 -0.7807 -1.6456
15235TIP3    H267197   4.798   0.156  13.345 -0.0994  2.4541  0.2500
15236TIP3   OH267198   0.349   3.399   3.068  0.2334 -0.0236 -0.4811
15236TIP3    H167199   0.354   3.314   3.024 -0.9775  0.6903 -2.0466
15236TIP3    H267200   0.260   3.402   3.104  0.5673  0.2280  0.3424
15237TIP3   OH267201   2.172   6.366  10.899 -0.0002  0.4152  0.2107
15237TIP3    H167202   2.109   6.438  10.902 -0.3788  0.1008 -0.0609
15237TIP3    H267203   2.221   6.381  10.818  0.4307  0.7911  0.5427
15238TIP3   OH267204   1.710   3.595   3.406  0.1652 -0.4693 -0.1383
15238TIP3    H167205   1.735   3.512   3.365  1.3339 -0.2216  0.0566
15238TIP3    H267206   1.774   3.658   3.373 -1.3683  0.5993 -1.1407
15239TIP3   OH267207   1.774   6.745   5.655  0.4520  0.3985 -0.2060
15239TIP3    H167208   1.687   6.722   5.686  0.0297  1.1126 -0.8484
15239TIP3    H267209   1.824   6.664   5.660 -0.1378  0.0756  0.5358
15240TIP3   OH267210   4.444   6.459  13.928  0.3397  0.1966 -0.1270
15240TIP3    H167211   4.489   6.473  14.012  0.4686 -1.4830  0.0914
15240TIP3    H267212   4.444   6.364  13.916 -2.0309  0.2503 -0.7607
15241TIP3   OH267213   6.441   4.952  11.668  0.3411  0.0134  0.0215
15241TIP3    H167214   6.380   4.979  11.736  0.3999 -0.4395  0.2492
15241TIP3    H267215   6.385   4.910  11.602  0.2963  0.3707 -0.1718
15242TIP3   OH267216   2.496   4.480  15.225 -0.3067 -0.2704  0.5428
15242TIP3    H167217   2.463   4.547  15.284  0.9747  0.3819  0.5535
15242TIP3    H267218   2.450   4.495  15.143 -0.5299  0.1820  0.7501
15243TIP3   OH267219   5.974   4.722   5.897  0.0559  0.1067 -0.2310
15243TIP3    H167220   5.948   4.751   5.984  1.6944  2.2497 -0.3970
15243TIP3    H267221   6.052   4.668   5.912 -0.8077 -1.1665 -0.2342
15244TIP3   OH267222   3.463   6.241  14.952  0.4707 -0.1039 -0.2482
15244TIP3    H167223   3.493   6.246  15.043 -0.2112  1.2639 -0.0931
15244TIP3    H267224   3.532   6.283  14.901 -0.5772  1.9392 -0.0201
15245TIP3   OH267225   0.773   2.787   0.456  0.0001 -0.8620  0.4398
15245TIP3    H167226   0.800   2.878   0.465  1.9710 -1.3776 -0.0120
15245TIP3    H267227   0.810   2.743   0.532  1.4218 -1.7938 -0.7603
15246TIP3   OH267228   0.269   0.933  16.261 -0.0545 -0.1626 -0.3381
15246TIP3    H167229   0.196   0.874  16.276  1.0407 -1.9286 -1.8468
15246TIP3    H267230   0.237   1.019  16.290 -2.3872 -1.0765 -0.1592
15247TIP3   OH267231   0.298   1.165   4.793  0.1340  0.1350 -0.1538
15247TIP3    H167232   0.363   1.193   4.858 -0.3018 -1.8923  1.1844
15247TIP3    H267233   0.341   1.095   4.744 -0.2316  0.3382 -0.7716
15248TIP3   OH267234   3.428   2.109   6.712 -0.5303 -0.0323 -0.0646
15248TIP3    H167235   3.363   2.170   6.676 -0.4565  0.9395  1.3760
15248TIP3    H267236   3.492   2.099   6.642 -0.8869  1.0556 -0.5690
15249TIP3   OH267237   4.893   5.188  12.057 -0.0080  0.4561  0.0494
15249TIP3    H167238   4.844   5.108  12.076 -0.6081  0.6623 -0.6303
15249TIP3    H267239   4.874   5.207  11.965  0.2884  1.2723  0.1529
15250TIP3   OH267240   3.138   0.444  15.809  0.5833 -0.3178 -0.2132
15250TIP3    H167241   3.110   0.533  15.787  0.4839  0.1885  1.7978
15250TIP3    H267242   3.223   0.455  15.851  2.2333 -1.5321 -3.1130
15251TIP3   OH267243   1.132   1.581   3.625 -0.0631 -0.5772 -0.1200
15251TIP3    H167244   1.117   1.515   3.693  1.0514 -0.0027  0.7073
15251TIP3    H267245   1.175   1.653   3.672 -1.2838  0.7410 -1.0045
15252TIP3   OH267246   0.544   5.451   6.707 -0.2173 -0.0017 -0.2929
15252TIP3    H167247   0.498   5.518   6.656 -1.1938  0.2637  0.8913
15252TIP3    H267248   0.475   5.390   6.733  0.0886  0.3962  1.5056
15253TIP3   OH267249   3.510   2.671   5.066  0.2755 -0.4530 -0.0435
15253TIP3    H167250   3.544   2.604   5.006  1.6402  0.1985 -0.0245
15253TIP3    H267251   3.568   2.666   5.142 -0.5807 -0.3107  0.6206
15254TIP3   OH267252   4.886   2.144   6.364 -0.1445  0.2488 -0.0581
15254TIP3    H167253   4.829   2.075   6.398  0.4322 -0.4026 -0.3958
15254TIP3    H267254   4.849   2.166   6.279  0.7664 -1.0001 -0.7998
15255TIP3   OH267255   0.177   1.165   3.245 -0.0191  0.0389 -0.0065
15255TIP3    H167256   0.109   1.188   3.309 -0.5816 -1.9860  0.1702
15255TIP3    H267257   0.259   1.182   3.290 -0.4169  0.2349  0.6565
15256TIP3   OH267258   0.401   1.478  15.600  0.5619 -0.1773 -0.0620
15256TIP3    H167259   0.335   1.537  15.564  0.2768 -0.1988  0.4211
15256TIP3    H267260   0.440   1.436  15.523 -0.8222 -1.0731 -0.3132
15257TIP3   OH267261   4.683   6.264   1.058 -0.3717  0.4863 -0.1551
15257TIP3    H167262   4.642   6.233   1.139 -1.1115  1.6869 -0.0441
15257TIP3    H267263   4.731   6.189   1.024  1.1064  0.3665  2.1278
15258TIP3   OH267264   4.011   6.669  15.633 -0.2404 -0.0491  0.4799
15258TIP3    H167265   3.922   6.667  15.597 -0.2359  0.4769  0.4318
15258TIP3    H267266   4.063   6.619  15.571 -0.6863 -1.2106  1.0244
15259TIP3   OH267267   0.485   5.934   2.059  0.5490  0.1522  0.7226
15259TIP3    H167268   0.393   5.932   2.085 -0.3719 -0.3722 -2.4162
15259TIP3    H267269   0.533   5.948   2.141 -2.2222 -1.0623  2.6205
15260TIP3   OH267270   0.120   3.800  13.236 -0.0198 -0.3432  0.2622
15260TIP3    H167271   0.208   3.777  13.208 -0.7619 -0.8734 -1.7215
15260TIP3    H267272   0.064   3.731  13.200 -1.0379 -1.1137  3.1766
15261TIP3   OH267273   1.119   0.938   6.431 -0.1147  0.1974 -0.3054
15261TIP3    H167274   1.030   0.932   6.465 -0.3780 -1.7751 -1.3125
15261TIP3    H267275   1.164   0.862   6.468  0.7575  0.3839 -0.9719
15262TIP3   OH267276   2.858   4.205  14.905  0.2422  0.0045 -0.0372
15262TIP3    H167277   2.885   4.220  14.995  0.9586 -0.5282 -0.1585
15262TIP3    H267278   2.834   4.112  14.902  1.7314 -0.3849 -0.7608
15263TIP3   OH267279   6.413   3.807  15.959 -0.0081 -0.6464  0.1964
15263TIP3    H167280   6.412   3.726  16.010  0.1381 -0.5849  0.2980
15263TIP3    H267281   6.347   3.794  15.891 -0.5271 -0.5648  0.6703
15264TIP3   OH267282   1.682   2.551  11.776  0.3867  0.0132  0.0175
15264TIP3    H167283   1.648   2.497  11.704  0.3050  1.9663 -1.4374
15264TIP3    H267284   1.750   2.605  11.736 -0.9850  2.5197  0.9280
15265TIP3   OH267285   2.030   0.598  15.383  0.0031  0.1388 -0.2107
15265TIP3    H167286   1.976   0.676  15.369  0.4573  0.7917  1.5294
15265TIP3    H267287   2.091   0.623  15.452  1.9578 -0.8806 -1.4974
15266TIP3   OH267288   0.829   5.273  13.889 -0.1152  0.1080 -0.1412
15266TIP3    H167289   0.793   5.206  13.831 -0.7880  0.0442  0.3534
15266TIP3    H267290   0.753   5.308  13.936  0.0940  1.9012 -1.1093
15267TIP3   OH267291   1.517   3.224  16.582  0.8752  0.5094 -0.6774
15267TIP3    H167292   1.518   3.158  16.513  2.6423  0.9688 -1.1319
15267TIP3    H267293   1.608   3.228  16.612  0.2914  0.9359  1.0884
15268TIP3   OH267294   4.575   3.405  16.630 -0.2060 -0.8632 -0.1724
15268TIP3    H167295   4.593   3.338  16.564  1.4256 -0.0099 -0.6121
15268TIP3    H267296   4.661   3.440  16.653 -1.1457  2.0066 -0.8850
15269TIP3   OH267297   4.173   1.714   6.393  0.1704  0.4272  0.7471
15269TIP3    H167298   4.096   1.770   6.404 -0.6715 -0.9787  2.2027
15269TIP3    H267299   4.151   1.634   6.440  1.4857 -1.0193 -1.0473
15270TIP3   OH267300   3.594   1.848  11.637  0.4667 -0.4007 -0.7091
15270TIP3    H167301   3.532   1.792  11.685  0.2387 -0.9622 -1.6319
15270TIP3    H267302   3.538   1.906  11.585  0.7066  0.7187  0.2667
15271TIP3   OH267303   0.981   1.623  15.940 -0.2131 -0.1043 -0.0305
15271TIP3    H167304   0.971   1.557  16.009  0.3634 -0.4456 -0.2637
15271TIP3    H267305   1.060   1.596  15.892 -0.0931  0.6338 -0.2649
15272TIP3   OH267306   3.416   6.444  15.701  0.2349 -0.0865 -0.0553
15272TIP3    H167307   3.326   6.429  15.732 -0.0999  1.1724 -0.3785
15272TIP3    H267308   3.414   6.532  15.665  1.4663 -0.2774 -0.6118
15273TIP3   OH267309   2.470   0.770   2.226 -0.0674  0.1873 -0.2434
15273TIP3    H167310   2.383   0.790   2.259  0.2357  1.1058  0.0425
15273TIP3    H267311   2.521   0.749   2.305 -0.3047 -1.4264 -0.5199
15274TIP3   OH267312   5.069   3.686  13.111 -0.5367 -0.0682 -0.0532
15274TIP3    H167313   5.059   3.723  13.024  0.2139  1.5349  0.5230
15274TIP3    H267314   5.000   3.727  13.163 -0.6071 -0.5669  0.2594
15275TIP3   OH267315   1.596   1.032   6.891  0.0334 -0.5533 -0.4938
15275TIP3    H167316   1.545   1.112   6.904  0.9576 -0.0059 -0.1754
15275TIP3    H267317   1.667   1.057   6.832  1.0240 -0.8190  0.5518
15276TIP3   OH267318   3.509   3.536   3.534  0.0262 -0.2237  0.5474
15276TIP3    H167319   3.598   3.507   3.515 -0.5493 -1.1171 -0.8812
15276TIP3    H267320   3.516   3.585   3.616  2.3050  2.0382 -0.9146
15277TIP3   OH267321   2.463   0.212  14.723  0.3345  0.5286  0.5166
15277TIP3    H167322   2.423   0.161  14.794 -0.8290  0.9625  0.1645
15277TIP3    H267323   2.416   0.295  14.723 -0.2112  0.2300 -1.2871
15278TIP3   OH267324   2.547   3.799  16.015 -0.1348  0.8060 -0.1325
15278TIP3    H167325   2.625   3.745  16.002  0.1702  1.2589 -0.1735
15278TIP3    H267326   2.572   3.886  15.985 -0.2957  1.2262  0.9292
15279TIP3   OH267327   3.767   5.839   3.469  0.3178 -0.1449 -0.3612
15279TIP3    H167328   3.680   5.879   3.477 -0.6854 -2.6342  1.8376
15279TIP3    H267329   3.821   5.889   3.530  0.2086  0.7667 -0.9966
15280TIP3   OH267330   1.376   1.315  11.417 -0.3462 -0.1418  0.3777
15280TIP3    H167331   1.371   1.260  11.495  1.8764 -0.4725  0.3011
15280TIP3    H267332   1.299   1.372  11.423  0.8262  1.2109  3.8551
15281TIP3   OH267333   5.509   3.306   1.156 -0.2353  0.2906 -0.0259
15281TIP3    H167334   5.573   3.247   1.116  0.0370  0.4743  0.1386
15281TIP3    H267335   5.446   3.325   1.086  1.6251  2.6191 -1.1321
15282TIP3   OH267336   1.967   1.751  12.678  0.6815 -0.5620  0.3347
15282TIP3    H167337   1.931   1.796  12.755 -1.5932 -0.1338 -0.9150
15282TIP3    H267338   1.960   1.816  12.607 -1.2469 -2.3241 -1.1594
15283TIP3   OH267339   1.297   2.788   0.532 -0.0524  0.5925  0.3351
15283TIP3    H167340   1.226   2.794   0.595 -0.1771  1.0982  0.1506
15283TIP3    H267341   1.277   2.710   0.480 -0.2708  0.5204  0.5307
15284TIP3   OH267342   0.782   5.375  10.841  0.3055  0.4339 -0.1361
15284TIP3    H167343   0.873   5.396  10.818 -0.3386  0.7839 -2.4767
15284TIP3    H267344   0.748   5.329  10.764 -0.7858 -1.9215  1.6899
15285TIP3   OH267345   3.330   0.940  10.688  0.2598  0.2494 -0.1907
15285TIP3    H167346   3.409   0.906  10.731  1.1613  1.2119 -1.0381
15285TIP3    H267347   3.258   0.893  10.728  1.2400 -0.2716  0.9792
15286TIP3   OH267348   2.420   1.644   0.041  1.0917 -0.2279  0.3466
15286TIP3    H167349   2.471   1.710  -0.006 -1.1033  0.9603 -0.4328
15286TIP3    H267350   2.377   1.693   0.111  0.8146 -1.1707  0.8465
15287TIP3   OH267351   2.617   3.747   3.235  0.6120 -0.9355 -0.2299
15287TIP3    H167352   2.549   3.753   3.168  0.3010 -0.5625  0.1230
15287TIP3    H267353   2.572   3.711   3.312  0.9965 -1.4899 -0.2584
15288TIP3   OH267354   0.129   3.501  12.155  0.2058  0.3335  0.2847
15288TIP3    H167355   0.060   3.542  12.206  0.0667  0.7678 -0.2429
15288TIP3    H267356   0.210   3.521  12.203 -0.0112 -0.0182  0.8032
15289TIP3   OH267357   5.550   5.117   2.076 -0.0227 -0.2966 -0.3448
15289TIP3    H167358   5.626   5.085   2.026  0.1184 -2.0614  0.9803
15289TIP3    H267359   5.588   5.156   2.155 -0.5305 -1.9221  0.7140
15290TIP3   OH267360   5.554   4.397   1.851  0.2933 -0.2043 -0.2608
15290TIP3    H167361   5.542   4.384   1.757  0.3694 -1.0539 -0.1552
15290TIP3    H267362   5.522   4.317   1.891 -1.3115  0.8233  0.5632
15291TIP3   OH267363   6.214   4.571  14.778 -0.6257  0.4045 -0.0426
15291TIP3    H167364   6.149   4.533  14.838  0.6761 -1.7941  0.0338
15291TIP3    H267365   6.271   4.498  14.755 -0.5643  1.4008 -3.3075
15292TIP3   OH267366   5.361   2.859  16.217  0.4113  0.4584 -0.2150
15292TIP3    H167367   5.345   2.796  16.288 -1.5524  1.1923  0.0266
15292TIP3    H267368   5.389   2.939  16.263  0.4763  0.5165 -0.3585
15293TIP3   OH267369   4.049   4.805   2.490  0.2649  0.6527 -0.2708
15293TIP3    H167370   4.126   4.798   2.434  1.0227 -0.0167  0.8398
15293TIP3    H267371   3.976   4.777   2.433  0.9439  0.4886 -1.0762
15294TIP3   OH267372   6.025   6.290   0.618  0.1022  0.3489 -0.4467
15294TIP3    H167373   6.048   6.252   0.533  0.5260 -1.6624  0.5417
15294TIP3    H267374   6.092   6.257   0.678 -1.3746  0.0349  1.0776
15295TIP3   OH267375   1.881   3.631  17.053  0.0987 -0.0533 -0.1305
15295TIP3    H167376   1.851   3.660  16.966  0.2343 -0.4542 -0.3136
15295TIP3    H267377   1.960   3.682  17.070  0.2748 -0.2316 -0.4045
15296TIP3   OH267378   2.788   1.867   2.874 -0.1033  0.5356 -0.1407
15296TIP3    H167379   2.781   1.961   2.856 -1.5206  0.9339  2.2350
15296TIP3    H267380   2.723   1.851   2.943 -0.4425 -2.3508 -1.0550
15297TIP3   OH267381   1.108   4.108  16.355  0.3322 -0.0643  0.8859
15297TIP3    H167382   1.046   4.075  16.420 -1.2270 -1.7381 -1.3650
15297TIP3    H267383   1.106   4.043  16.285  2.6645  1.2171 -0.4302
15298TIP3   OH267384   1.635   4.553   4.844 -0.1987 -0.1487  0.4528
15298TIP3    H167385   1.695   4.601   4.901 -2.1958  1.7730  1.0276
15298TIP3    H267386   1.644   4.596   4.758 -0.9321  0.3275  0.6100
15299TIP3   OH267387   5.207   1.581   5.582 -0.4336  0.0208  0.3406
15299TIP3    H167388   5.157   1.617   5.655 -0.3679 -1.6006  1.2150
15299TIP3    H267389   5.186   1.488   5.583 -1.0685  0.1112 -2.2395
15300TIP3   OH267390   5.436   5.032  16.002 -0.5380 -0.6353  0.0435
15300TIP3    H167391   5.485   4.952  15.986  2.3173  0.7204  1.6994
15300TIP3    H267392   5.408   5.026  16.093 -0.2234  0.2623  0.2074
15301TIP3   OH267393   1.407   6.307  13.240 -0.1483 -0.0186 -0.6572
15301TIP3    H167394   1.438   6.396  13.224 -2.7699  0.8859 -1.0015
15301TIP3    H267395   1.312   6.313  13.231 -0.5909 -2.3173  1.9585
15302TIP3   OH267396   6.207   1.911  11.057  0.0225 -0.3631  0.7107
15302TIP3    H167397   6.164   1.930  10.975 -0.4854 -0.5505  0.9320
15302TIP3    H267398   6.160   1.963  11.122  0.2317 -0.4404  0.9245
15303TIP3   OH267399   0.540   5.752  11.735  0.4076  0.0416 -0.1340
15303TIP3    H167400   0.589   5.671  11.750 -1.7678 -1.1775  0.6648
15303TIP3    H267401   0.607   5.820  11.730  2.1391 -1.4997  1.2816
15304TIP3   OH267402   3.467   0.164   2.257  0.4918 -0.3498  0.3062
15304TIP3    H167403   3.467   0.068   2.254  0.5299 -0.3225 -0.7893
15304TIP3    H267404   3.407   0.190   2.187  1.9604  0.4503 -0.6919
15305TIP3   OH267405   0.360   1.994   0.787 -0.2765  0.5815  0.3635
15305TIP3    H167406   0.386   1.956   0.703 -0.1458  0.5562  0.4149
15305TIP3    H267407   0.289   1.938   0.817  1.3983 -0.9853  1.5049
15306TIP3   OH267408   5.968   5.291  12.266 -0.2556  0.6239  0.0339
15306TIP3    H167409   5.987   5.384  12.280 -0.5358  0.7348 -0.3212
15306TIP3    H267410   5.883   5.277  12.308  0.6572  0.0921  1.7540
15307TIP3   OH267411   6.399   0.911   3.168  0.1328 -0.9046 -0.0912
15307TIP3    H167412   6.393   0.852   3.093  1.4017 -1.3532  0.1505
15307TIP3    H267413   6.474   0.878   3.219  0.6639  0.7234  0.2041
15308TIP3   OH267414   2.797   1.838   6.801  0.0864  0.0041  0.4666
15308TIP3    H167415   2.764   1.779   6.733 -3.9897  0.3898  1.9646
15308TIP3    H267416   2.825   1.781   6.872  1.4916 -0.2869 -0.3078
15309TIP3   OH267417   0.331   5.850   0.257  0.1535  0.5881  0.3382
15309TIP3    H167418   0.270   5.900   0.311 -0.5644 -0.8645  0.8997
15309TIP3    H267419   0.391   5.810   0.320 -1.0041 -1.5381  0.1303
15310TIP3   OH267420   1.695   2.520  15.101 -0.8121  0.1066 -0.1697
15310TIP3    H167421   1.654   2.472  15.029  0.1596 -0.0647 -0.6136
15310TIP3    H267422   1.627   2.524  15.168 -1.0835 -1.4330 -0.3357
15311TIP3   OH267423   0.907   3.577  14.722  0.0402 -0.4433  0.4247
15311TIP3    H167424   0.999   3.565  14.699  0.0023 -1.6411  0.9025
15311TIP3    H267425   0.908   3.637  14.797  0.5054 -1.5017  1.2705
15312TIP3   OH267426   5.607   0.172   1.695  0.1055  0.6531 -0.2137
15312TIP3    H167427   5.631   0.206   1.781  3.1448 -1.5233 -0.1213
15312TIP3    H267428   5.655   0.227   1.633  0.4903  0.1772 -0.3422
15313TIP3   OH267429   2.793   0.921   3.675  0.1683 -0.4689  0.1747
15313TIP3    H167430   2.740   0.875   3.740 -1.4130 -0.1236 -0.8263
15313TIP3    H267431   2.747   0.905   3.592  2.2850 -1.1377 -0.9151
15314TIP3   OH267432   6.716   3.011  13.610 -0.1239 -0.3021  0.2486
15314TIP3    H167433   6.758   2.948  13.553  0.0683 -0.9155  1.0533
15314TIP3    H267434   6.640   3.042  13.562 -0.1606 -1.0728 -0.1855
15315TIP3   OH267435   1.042   3.765  12.724  0.0308  0.7852  0.3210
15315TIP3    H167436   0.969   3.765  12.787 -1.5430  0.3138 -1.4424
15315TIP3    H267437   1.094   3.841  12.748 -1.6255  1.7336  1.0025
15316TIP3   OH267438   1.735   6.352  12.140  0.4089  0.1826 -0.0379
15316TIP3    H167439   1.723   6.445  12.156  1.2896  0.5065 -1.1280
15316TIP3    H267440   1.719   6.342  12.046 -0.7139 -0.9480  0.2567
15317TIP3   OH267441   6.155   3.842   3.788 -0.1706 -0.3725 -0.3038
15317TIP3    H167442   6.227   3.861   3.727 -0.0729  0.1319 -0.0317
15317TIP3    H267443   6.169   3.751   3.814 -0.3393 -0.6616 -1.2123
15318TIP3   OH267444   0.996   4.388   4.503 -0.1128 -0.2501 -0.5284
15318TIP3    H167445   0.927   4.361   4.443  0.5866 -0.1489 -1.3930
15318TIP3    H267446   0.963   4.468   4.543 -0.5003 -0.2003 -0.9427
15319TIP3   OH267447   1.232   5.456  14.570 -0.0611 -0.4735  0.5438
15319TIP3    H167448   1.262   5.539  14.532  0.9285 -0.6115  1.0239
15319TIP3    H267449   1.232   5.470  14.664 -2.7315 -0.0684  0.5223
15320TIP3   OH267450   3.666   1.417   4.193 -0.4154 -0.5249  0.3613
15320TIP3    H167451   3.707   1.458   4.270 -0.9922 -0.1357  0.4659
15320TIP3    H267452   3.627   1.337   4.226 -0.9587 -0.1884  0.5503
15321TIP3   OH267453   5.932   6.737  15.551 -0.5321  0.6081  0.2008
15321TIP3    H167454   5.915   6.769  15.462  0.1471 -4.7549 -2.0058
15321TIP3    H267455   5.846   6.716  15.586 -0.5567 -0.6404 -0.5809
15322TIP3   OH267456   5.117   3.649  15.789  0.2721  0.3310  0.5807
15322TIP3    H167457   5.196   3.604  15.820 -2.3480 -1.8292  4.7430
15322TIP3    H267458   5.142   3.741  15.784  3.5487 -0.5230 -0.1713
15323TIP3   OH267459   6.669   0.499   4.616  0.4154 -0.6443  0.0550
15323TIP3    H167460   6.691   0.590   4.602 -0.1042 -0.7297 -1.3507
15323TIP3    H267461   6.575   0.500   4.636  0.3584 -0.8892 -0.1930
15324TIP3   OH267462   4.307   3.811   0.662  0.4104 -0.3186 -0.1091
15324TIP3    H167463   4.318   3.730   0.711  0.2093  0.0025  0.4709
15324TIP3    H267464   4.216   3.809   0.632  0.9059 -1.1565 -1.6420
15325TIP3   OH267465   0.199   5.927   2.318  0.3056 -0.4303  0.7168
15325TIP3    H167466   0.130   5.977   2.275 -0.2777 -1.0280  0.9465
15325TIP3    H267467   0.182   5.836   2.292  0.3491 -0.7084  1.6617
15326TIP3   OH267468   0.090   1.575  11.746 -0.1504  0.3490  0.1450
15326TIP3    H167469   0.142   1.625  11.683  0.3637 -1.2297 -0.6990
15326TIP3    H267470   0.033   1.641  11.787 -0.1267  1.4920 -1.5904
15327TIP3   OH267471   2.203   6.270  11.501  0.2671  0.5227 -0.1079
15327TIP3    H167472   2.121   6.254  11.454  0.9939 -0.6971 -0.9779
15327TIP3    H267473   2.195   6.220  11.582  0.0923  0.5168 -0.1299
15328TIP3   OH267474   3.262   6.231   2.887  0.3113 -0.1720  0.0533
15328TIP3    H167475   3.191   6.219   2.950  0.6249 -0.9622  0.2627
15328TIP3    H267476   3.326   6.163   2.909  0.1543 -0.8453 -1.5015
15329TIP3   OH267477   4.931   2.195   2.236 -0.2327 -0.3152 -0.5309
15329TIP3    H167478   4.974   2.278   2.254  1.0483 -0.9830 -0.4439
15329TIP3    H267479   4.965   2.169   2.150 -1.8524  0.0291 -1.2879
15330TIP3   OH267480   6.082   2.080  15.500  0.2216 -0.4706  0.2084
15330TIP3    H167481   6.069   1.985  15.501 -1.3978 -0.2634 -0.0165
15330TIP3    H267482   6.060   2.108  15.588  0.3144 -0.2676  0.1658
15331TIP3   OH267483   4.402   1.136  15.500 -0.5372 -0.6260 -0.2946
15331TIP3    H167484   4.401   1.046  15.468  0.3009 -1.4198  1.8561
15331TIP3    H267485   4.476   1.177  15.455 -1.6690 -0.5907 -2.2401
15332TIP3   OH267486   5.563   6.027  15.937  0.0205 -0.0195  0.5590
15332TIP3    H167487   5.490   6.010  15.995 -0.2786 -0.7824 -0.0276
15332TIP3    H267488   5.631   6.065  15.993 -0.1138 -1.1152  1.4854
15333TIP3   OH267489   6.383   3.877   0.526 -0.1544  0.2406 -0.0831
15333TIP3    H167490   6.367   3.950   0.466 -0.0972  1.2930  1.1643
15333TIP3    H267491   6.434   3.915   0.597 -1.4216 -0.6486  1.3484
15334TIP3   OH267492   6.342   4.196   3.689 -0.1294  0.4776  0.3894
15334TIP3    H167493   6.411   4.256   3.715 -0.1265  0.1750  1.1123
15334TIP3    H267494   6.312   4.228   3.604 -0.5375  1.8698  1.0306
15335TIP3   OH267495   2.613   2.898  13.605 -0.3620 -0.2088  0.1790
15335TIP3    H167496   2.601   2.849  13.686  1.8579  0.6726  1.0877
15335TIP3    H267497   2.596   2.835  13.535  2.0023 -2.2128  1.3354
15336TIP3   OH267498   4.140   4.680  12.692 -0.3045 -0.0484 -0.5956
15336TIP3    H167499   4.050   4.657  12.672 -0.4586  0.8318 -0.9187
15336TIP3    H267500   4.147   4.773  12.671  0.1660  0.3415  1.1861
15337TIP3   OH267501   1.645   3.060   2.275 -0.8105  0.0476 -0.4558
15337TIP3    H167502   1.595   2.980   2.288  1.4915 -1.4828 -0.7887
15337TIP3    H267503   1.636   3.079   2.181 -0.2951 -0.5578 -0.6322
15338TIP3   OH267504   0.735   4.111   1.815  0.0245  0.5093  0.8526
15338TIP3    H167505   0.782   4.168   1.754 -0.2001 -0.1502  0.0573
15338TIP3    H267506   0.677   4.059   1.760  0.5663 -0.8267  1.5262
15339TIP3   OH267507   4.594   4.268   0.690 -0.3980 -0.1780  0.1217
15339TIP3    H167508   4.514   4.252   0.640 -0.1767 -0.6292 -0.0901
15339TIP3    H267509   4.622   4.181   0.719  1.7313 -0.3931 -2.4168
15340TIP3   OH267510   6.666   3.169  12.778  0.1694 -0.0289 -0.1162
15340TIP3    H167511   6.751   3.127  12.763  0.3813 -0.0649  1.1171
15340TIP3    H267512   6.611   3.137  12.706  1.0091 -0.5323 -0.5479
15341TIP3   OH267513   1.892   0.374   4.547 -0.0486  0.7535  0.0437
15341TIP3    H167514   1.860   0.314   4.480 -4.2496  1.8652  0.8842
15341TIP3    H267515   1.919   0.452   4.499  1.6024 -0.2539 -0.7048
15342TIP3   OH267516   2.144   4.955   2.488  0.2945 -0.3340  0.6346
15342TIP3    H167517   2.155   4.883   2.425  0.9383  0.9591 -0.7451
15342TIP3    H267518   2.062   4.997   2.463 -0.2149 -0.7151  1.6065
15343TIP3   OH267519   3.203   1.114  12.857 -0.3491  0.1017 -0.5568
15343TIP3    H167520   3.199   1.208  12.877  1.8296 -0.1485  1.2456
15343TIP3    H267521   3.139   1.075  12.917 -0.8051  0.3667 -0.8678
15344TIP3   OH267522   0.223   1.488  16.718  0.7077  0.2182 -0.0527
15344TIP3    H167523   0.276   1.409  16.729  0.8815  0.5036  1.2346
15344TIP3    H267524   0.283   1.561  16.734 -0.0487  0.5437  1.4016
15345TIP3   OH267525   1.364   1.031   2.872 -0.6001 -0.3337 -1.1027
15345TIP3    H167526   1.390   1.059   2.784 -2.5127  0.9836 -1.2931
15345TIP3    H267527   1.446   1.002   2.913  0.7534  1.4023 -2.4597
15346TIP3   OH267528   1.815   1.260  16.475  0.1172  0.3005 -0.7531
15346TIP3    H167529   1.826   1.347  16.437  1.0102 -0.0517 -1.3165
15346TIP3    H267530   1.901   1.220  16.469 -0.0810 -0.2902  0.3479
15347TIP3   OH267531   2.788   6.200  16.839  0.1291  0.0549  0.7939
15347TIP3    H167532   2.757   6.237  16.921 -1.3346 -0.1027  0.3370
15347TIP3    H267533   2.834   6.120  16.863 -0.1779  0.0817  1.4602
15348TIP3   OH267534   1.878   6.306   2.437  0.0587  0.2730  0.6862
15348TIP3    H167535   1.861   6.386   2.388 -0.9248  0.0755  0.7037
15348TIP3    H267536   1.973   6.295   2.432 -0.2145 -0.8577 -2.9378
15349TIP3   OH267537   3.576   0.188  16.797 -0.2587 -0.0282 -0.3333
15349TIP3    H167538   3.649   0.175  16.858  1.1340 -0.1901 -1.9920
15349TIP3    H267539   3.619   0.205  16.713 -2.1547 -0.4557 -1.3980
15350TIP3   OH267540   0.357   0.538  13.661 -0.0749 -0.6070  0.4859
15350TIP3    H167541   0.448   0.533  13.631  0.3601  1.0148  1.4831
15350TIP3    H267542   0.322   0.615  13.616 -0.1742  0.3175  2.1267
15351TIP3   OH267543   0.357   4.616   1.195 -0.2449 -0.3756 -0.0883
15351TIP3    H167544   0.428   4.653   1.142 -1.2510  1.3239 -0.2974
15351TIP3    H267545   0.341   4.683   1.262 -3.0745  0.2481 -1.3284
15352TIP3   OH267546   6.681   0.949  11.374 -0.2286  0.4618  0.4355
15352TIP3    H167547   6.670   0.991  11.460 -1.0751  0.7953  0.1624
15352TIP3    H267548   6.592   0.936  11.341  0.0615 -0.5089  0.0039
15353TIP3   OH267549   1.580   3.137   2.018 -0.6178 -0.0042  0.0125
15353TIP3    H167550   1.533   3.103   1.942 -0.6906  0.8424 -0.3276
15353TIP3    H267551   1.532   3.216   2.044 -0.3747 -0.0781  0.7064
15354TIP3   OH267552   6.446   3.364  13.260 -0.0618 -0.2332 -0.1205
15354TIP3    H167553   6.528   3.318  13.276  1.5697  3.1230  1.6492
15354TIP3    H267554   6.467   3.429  13.193 -1.7204 -0.4611 -0.8935
15355TIP3   OH267555   1.968   5.687   1.247  0.3976  0.4601  0.5732
15355TIP3    H167556   1.925   5.772   1.238  0.0569  0.3430  1.0288
15355TIP3    H267557   1.917   5.642   1.314 -0.1212 -0.5565 -0.5042
15356TIP3   OH267558   1.835   1.204  15.140  0.5062 -0.3249  0.0423
15356TIP3    H167559   1.849   1.248  15.056 -0.3942  0.5018  0.3081
15356TIP3    H267560   1.747   1.168  15.134 -0.1288  0.9861  1.1650
15357TIP3   OH267561   3.379   6.178   3.384 -0.0332 -0.0396 -0.2444
15357TIP3    H167562   3.347   6.123   3.312 -2.7554 -0.5969  1.3069
15357TIP3    H267563   3.352   6.266   3.360 -0.9919 -0.2315  0.0861
15358TIP3   OH267564   3.412   0.820   0.659 -0.2216  0.7295 -0.0993
15358TIP3    H167565   3.368   0.758   0.717  0.5101 -0.7310 -1.0717
15358TIP3    H267566   3.467   0.872   0.717 -0.7407  0.3867  0.7170
15359TIP3   OH267567   1.456   3.039   0.110 -0.1573 -0.0433 -0.3104
15359TIP3    H167568   1.541   3.002   0.087  0.2278  0.9174 -0.4786
15359TIP3    H267569   1.405   2.965   0.142  1.1955 -0.4068  1.0554
15360TIP3   OH267570   4.010   4.040   5.084  0.0749 -0.2893 -0.1590
15360TIP3    H167571   4.047   4.102   5.147 -2.5825 -0.1555  1.3494
15360TIP3    H267572   4.000   4.090   5.003  0.8571  0.3663  0.1495
15361TIP3   OH267573   2.735   1.261  14.099  0.5964  0.0086 -0.2442
15361TIP3    H167574   2.829   1.278  14.093  0.1707  2.1377 -1.3146
15361TIP3    H267575   2.701   1.335  14.150 -0.2347 -1.8221  1.9726
15362TIP3   OH267576   3.597   1.469   3.346  0.5190  0.2659 -0.0951
15362TIP3    H167577   3.663   1.505   3.405 -1.0322 -0.1354  1.9193
15362TIP3    H267578   3.634   1.386   3.316  1.3040  0.4594  0.3292
15363TIP3   OH267579   4.825   6.582  13.780 -0.2196 -0.4994  0.0059
15363TIP3    H167580   4.852   6.570  13.871 -0.3498  0.6473  0.2057
15363TIP3    H267581   4.906   6.574  13.729  0.2984  1.4203  0.4666
15364TIP3   OH267582   4.172   1.210   3.667  0.2128  0.2256 -0.3545
15364TIP3    H167583   4.257   1.237   3.701  1.5713 -1.1415 -2.5202
15364TIP3    H267584   4.167   1.249   3.580  0.4756 -3.0444 -1.9191
15365TIP3   OH267585   1.484   6.417  12.673 -0.6528 -0.2803  0.1367
15365TIP3    H167586   1.418   6.455  12.615 -0.2049  2.5342  1.4176
15365TIP3    H267587   1.565   6.464  12.652  0.7265 -2.8087 -0.5149
15366TIP3   OH267588   2.608   2.255  11.874 -0.1782  0.3244 -0.0328
15366TIP3    H167589   2.702   2.264  11.889 -0.0739  0.5481 -0.8241
15366TIP3    H267590   2.574   2.224  11.958  0.5693  0.4379  0.3206
15367TIP3   OH267591   1.839   5.455   0.100 -0.1762 -0.0761  0.1592
15367TIP3    H167592   1.877   5.390   0.160 -1.6787 -0.1817  1.0232
15367TIP3    H267593   1.746   5.431   0.095 -0.6665  1.7549  0.1661
15368TIP3   OH267594   5.929   5.392   0.828 -0.7778  0.7925 -0.3929
15368TIP3    H167595   6.024   5.402   0.829 -0.3578 -2.6955  0.5482
15368TIP3    H267596   5.904   5.394   0.920 -1.5939  1.3523 -0.6237
15369TIP3   OH267597   3.940   6.494   1.399 -0.1518 -0.1200  0.2244
15369TIP3    H167598   4.018   6.534   1.438  0.5804 -2.7965  1.6628
15369TIP3    H267599   3.973   6.449   1.321 -0.7819  1.1339 -0.7847
15370TIP3   OH267600   5.404   5.392   4.249 -0.2597 -0.4541 -0.7339
15370TIP3    H167601   5.459   5.466   4.225  0.2191 -0.8479 -0.8590
15370TIP3    H267602   5.318   5.413   4.213 -0.6267  0.9533  0.9156
15371TIP3   OH267603   4.402   1.711  15.502 -0.0628 -0.2662 -0.0865
15371TIP3    H167604   4.394   1.781  15.567  0.5738 -0.0404 -0.2475
15371TIP3    H267605   4.471   1.741  15.443  0.4528 -1.1758  0.0345
15372TIP3   OH267606   0.682   1.768   0.083  0.0509 -0.2126  1.1142
15372TIP3    H167607   0.721   1.815   0.008 -0.8600  0.2848  0.9464
15372TIP3    H267608   0.679   1.677   0.054 -3.0896  0.3915 -0.6895
15373TIP3   OH267609   2.526   1.499  10.588  0.9158  0.3378 -0.2048
15373TIP3    H167610   2.495   1.455  10.668  0.6495  1.5182  0.3478
15373TIP3    H267611   2.538   1.590  10.614 -3.6434  1.7778 -2.6674
15374TIP3   OH267612   5.014   3.712   3.405  0.0448 -0.7478 -0.3927
15374TIP3    H167613   4.957   3.719   3.329  0.1113  2.8048 -0.2139
15374TIP3    H267614   5.083   3.777   3.389  1.1113 -1.2987  1.8160
15375TIP3   OH267615   6.031   1.276  15.475  0.2127 -0.1356 -0.4928
15375TIP3    H167616   6.001   1.353  15.429 -2.5827 -0.6599  0.3799
15375TIP3    H267617   6.088   1.310  15.545 -0.3132  1.0541 -0.6459
15376TIP3   OH267618   4.816   0.098   1.339 -0.2393 -0.5110  0.0865
15376TIP3    H167619   4.835   0.144   1.257 -0.6543 -3.2036 -1.5833
15376TIP3    H267620   4.751   0.153   1.383  0.6990  1.4519 -0.9251
15377TIP3   OH267621   4.894   3.831  15.886 -0.2088  0.4077 -0.2796
15377TIP3    H167622   4.924   3.781  15.962 -1.2377 -0.0416 -0.1597
15377TIP3    H267623   4.908   3.922  15.911  1.1178  0.2203 -0.2665
15378TIP3   OH267624   0.121   0.370   1.731  0.2718 -0.0374 -0.5429
15378TIP3    H167625   0.080   0.423   1.662  0.2405  0.3256 -0.2460
15378TIP3    H267626   0.078   0.285   1.724 -2.8179  1.2245  1.8020
15379TIP3   OH267627   6.755   4.068  17.211  0.3483  0.4764 -0.5911
15379TIP3    H167628   6.806   4.100  17.286 -0.5724 -1.0970  0.7529
15379TIP3    H267629   6.691   4.138  17.194  0.3048  0.6774  0.3550
15380TIP3   OH267630   3.090   1.948   4.966 -0.6122 -0.0269  0.7804
15380TIP3    H167631   3.014   1.988   5.009 -1.2443  1.9034 -1.9953
15380TIP3    H267632   3.161   1.956   5.030 -2.4296 -0.8137  2.9716
15381TIP3   OH267633   0.655   5.046  13.266 -0.0323  0.7420 -0.4677
15381TIP3    H167634   0.583   5.066  13.325  1.9016 -1.2437  2.7039
15381TIP3    H267635   0.721   5.113  13.285  1.6143 -1.3679  1.5508
15382TIP3   OH267636   2.445   4.921  16.157 -0.1224  0.2140 -0.3140
15382TIP3    H167637   2.381   4.870  16.208 -0.8502  0.3600 -1.0709
15382TIP3    H267638   2.393   4.963  16.089  0.7049  0.7968 -0.5872
15383TIP3   OH267639   4.665   4.240  13.717  0.3073  0.1127  0.1088
15383TIP3    H167640   4.667   4.152  13.677  1.7627  0.4789 -0.6657
15383TIP3    H267641   4.674   4.300  13.643 -0.0701  0.9019  0.6983
15384TIP3   OH267642   4.544   3.568  15.919  0.0041  0.2503  0.6589
15384TIP3    H167643   4.581   3.635  15.977 -0.5516  1.4177 -0.2984
15384TIP3    H267644   4.471   3.613  15.876  0.1015 -0.7622 -0.5632
15385TIP3   OH267645   6.369   4.620  12.385 -0.3261 -0.4397 -0.0305
15385TIP3    H167646   6.451   4.572  12.389  0.0354  0.2361  1.0828
15385TIP3    H267647   6.336   4.619  12.475 -0.5932  0.8997 -0.0986
15386TIP3   OH267648   1.509   5.185  11.580 -0.1303 -0.2660  0.0559
15386TIP3    H167649   1.414   5.175  11.585 -0.0726 -1.3252 -0.5933
15386TIP3    H267650   1.538   5.187  11.671 -0.4103 -4.0803  0.3316
15387TIP3   OH267651   6.631   5.511   2.691 -0.4539  0.2482  0.5401
15387TIP3    H167652   6.680   5.535   2.613 -1.3835  0.5603  0.0473
15387TIP3    H267653   6.693   5.462   2.745  0.9167  2.0689  0.6732
15388TIP3   OH267654   6.547   4.669  13.489  0.0246  0.0946  0.7739
15388TIP3    H167655   6.533   4.727  13.415  0.3158 -0.4637  0.2714
15388TIP3    H267656   6.640   4.647  13.486  0.1013  0.2960  1.4773
15389TIP3   OH267657   2.188   3.314  13.798  0.1169 -0.4825  0.2552
15389TIP3    H167658   2.245   3.278  13.865 -0.4729 -0.5098  0.7452
15389TIP3    H267659   2.174   3.405  13.824 -0.1697 -0.5129  0.2157
15390TIP3   OH267660   6.166   3.770  16.135  0.6817 -0.4581  0.6352
15390TIP3    H167661   6.179   3.739  16.224 -1.3087 -2.4237  0.2792
15390TIP3    H267662   6.207   3.703  16.080  1.1109  0.2969  0.0135
15391TIP3   OH267663   4.145   0.617  11.412  0.2714  0.0424 -0.2956
15391TIP3    H167664   4.217   0.582  11.465  2.0513  2.1327 -1.2507
15391TIP3    H267665   4.186   0.640  11.329 -1.7499  0.2698 -1.2348
15392TIP3   OH267666   1.381   5.938  11.797  0.0420  0.2581 -0.0677
15392TIP3    H167667   1.456   5.882  11.777  1.1828  1.4097  0.9053
15392TIP3    H267668   1.357   5.977  11.713 -2.2810 -3.4486 -1.2350
15393TIP3   OH267669   4.905   6.643   5.250  0.4106 -0.3317  0.3347
15393TIP3    H167670   4.929   6.592   5.327  0.2368 -1.6615 -0.4801
15393TIP3    H267671   4.951   6.601   5.177  1.0457  1.2641 -0.2175
15394TIP3   OH267672   2.217   0.639   2.029 -0.3880  0.5437 -0.4933
15394TIP3    H167673   2.221   0.579   1.954 -1.2456 -0.0885 -0.0377
15394TIP3    H267674   2.288   0.702   2.013  1.5485 -1.4949 -0.2201
15395TIP3   OH267675   6.559   6.793  16.127  0.2055  0.0289 -1.1298
15395TIP3    H167676   6.628   6.734  16.157 -0.2874  0.0889  0.1243
15395TIP3    H267677   6.491   6.788  16.195 -0.9727  0.0783 -2.2723
15396TIP3   OH267678   1.082   4.835   3.691  0.2750  0.0240 -0.0839
15396TIP3    H167679   1.018   4.767   3.671  0.2375 -0.5128  1.7607
15396TIP3    H267680   1.030   4.911   3.716  0.3320  0.5067 -1.3716
15397TIP3   OH267681   5.836   4.722  16.609  0.2251  0.0315  0.1336
15397TIP3    H167682   5.750   4.722  16.567  0.5588 -1.5328 -0.5689
15397TIP3    H267683   5.816   4.703  16.701 -0.2714  0.7820  0.1865
15398TIP3   OH267684   3.266   6.795   1.097  0.0383  0.3813 -0.0973
15398TIP3    H167685   3.214   6.804   1.176 -0.1372  0.2301 -0.1932
15398TIP3    H267686   3.246   6.872   1.045  0.9970  1.0340  0.4860
15399TIP3   OH267687   1.961   1.152   4.312  0.6893 -0.2682 -0.4010
15399TIP3    H167688   1.907   1.214   4.262  1.1106 -0.2163 -0.7915
15399TIP3    H267689   1.899   1.083   4.338 -0.4421  1.7366  2.5450
15400TIP3   OH267690   4.147   2.281  16.752  0.1976  0.2202  0.1990
15400TIP3    H167691   4.092   2.358  16.739 -1.8299 -1.2515 -0.1557
15400TIP3    H267692   4.229   2.302  16.708 -0.7368  1.7313 -0.8587
15401TIP3   OH267693   5.768   6.081  16.469 -0.0247 -0.1057 -0.0943
15401TIP3    H167694   5.682   6.102  16.505  0.0536 -0.1954  0.1513
15401TIP3    H267695   5.827   6.143  16.512  0.3529 -1.4193  1.3789
15402TIP3   OH267696   4.228   1.284   2.808 -0.8596  0.4923 -0.3849
15402TIP3    H167697   4.246   1.237   2.890 -0.2171  0.4345 -0.5556
15402TIP3    H267698   4.266   1.370   2.821  1.0842 -0.1781 -1.3814
15403TIP3   OH267699   2.189   1.488  11.545 -0.0952 -0.2226  0.1747
15403TIP3    H167700   2.267   1.433  11.555  2.2772  3.3220  1.9951
15403TIP3    H267701   2.126   1.450  11.606  0.9063 -1.8950  0.2088
15404TIP3   OH267702   1.244   2.471  15.444  0.1945 -0.1712 -0.4639
15404TIP3    H167703   1.235   2.473  15.540  0.3346  0.2782 -0.4607
15404TIP3    H267704   1.239   2.378  15.422  1.1611 -0.3663  0.0842
15405TIP3   OH267705   4.710   0.719   4.403 -0.3399 -0.2843 -0.0138
15405TIP3    H167706   4.773   0.660   4.445 -1.6565 -2.1210 -0.5154
15405TIP3    H267707   4.736   0.721   4.311  0.0440  0.3836  0.1071
15406TIP3   OH267708   0.970   3.336  15.301  0.1064  0.4240  0.5081
15406TIP3    H167709   1.021   3.327  15.381 -1.0412  0.7266  1.2802
15406TIP3    H267710   1.031   3.312  15.231  1.2012  0.4472  1.4385
15407TIP3   OH267711   4.917   3.611   5.129 -0.3767 -0.1331  0.2082
15407TIP3    H167712   4.876   3.679   5.075  0.1944  0.6312  0.7375
15407TIP3    H267713   4.922   3.535   5.070 -1.0273  0.2655 -0.3811
15408TIP3   OH267714   6.793   6.004   2.166  0.4104 -0.0066  1.4292
15408TIP3    H167715   6.781   5.910   2.173 -0.0684 -0.0966 -0.2450
15408TIP3    H267716   6.711   6.042   2.197 -0.9131 -0.3070 -1.5433
15409TIP3   OH267717   6.194   0.946  14.495  0.2241 -0.4302  0.1659
15409TIP3    H167718   6.128   0.937  14.564 -0.1059  0.5792 -0.0142
15409TIP3    H267719   6.181   1.034  14.461 -0.7240 -1.4782 -2.3057
15410TIP3   OH267720   0.862   0.990  14.701  0.1353 -0.6022 -0.1021
15410TIP3    H167721   0.907   1.057  14.754 -0.6716  0.9224 -1.2857
15410TIP3    H267722   0.769   1.003  14.720 -0.0690 -0.9675 -0.8378
15411TIP3   OH267723   2.825   2.945  13.402 -0.0993  0.4680  0.4633
15411TIP3    H167724   2.746   2.969  13.452 -1.1719  0.3133 -1.1076
15411TIP3    H267725   2.794   2.939  13.311  1.5863 -0.2997 -0.0695
15412TIP3   OH267726   5.027   2.149   1.953 -0.1411  0.2588  0.1318
15412TIP3    H167727   5.000   2.204   1.879 -1.6026 -1.3506 -0.5576
15412TIP3    H267728   5.108   2.189   1.983  1.3438  0.0751 -3.3321
15413TIP3   OH267729   1.517   3.901  12.152  0.3032  0.0915  0.2469
15413TIP3    H167730   1.514   3.818  12.104 -0.1186  0.7915 -0.9510
15413TIP3    H267731   1.545   3.965  12.088  1.6601  0.7177  1.4319
15414TIP3   OH267732   5.227   4.095   2.153  0.0756 -0.0982  0.1512
15414TIP3    H167733   5.219   4.167   2.215 -2.2252 -0.3527  0.1943
15414TIP3    H267734   5.284   4.032   2.196  0.9688  1.0742  0.7014
15415TIP3   OH267735   4.968   3.279  15.909  0.1729  0.3355 -1.1096
15415TIP3    H167736   4.946   3.326  15.989 -0.1079  1.8074 -2.0312
15415TIP3    H267737   5.063   3.289  15.901  0.7072 -2.6637  0.7784
15416TIP3   OH267738   2.128   3.111  10.928  0.2534  0.5976 -0.7425
15416TIP3    H167739   2.082   3.027  10.926 -0.2889  0.8583  0.2135
15416TIP3    H267740   2.195   3.099  10.995  0.0251  0.9885 -0.4377
15417TIP3   OH267741   1.859   3.722   2.958  0.1469 -0.5963 -0.2452
15417TIP3    H167742   1.887   3.673   2.881  0.9893 -1.5539  0.6461
15417TIP3    H267743   1.764   3.713   2.960 -0.1735  1.5107 -2.5277
15418TIP3   OH267744   6.807   2.733  13.550 -0.8995 -0.0398 -0.7011
15418TIP3    H167745   6.750   2.657  13.558  1.1138 -1.7827 -2.2635
15418TIP3    H267746   6.790   2.767  13.462 -0.2019 -0.0195 -0.8321
15419TIP3   OH267747   2.740   4.288   3.140 -0.0404  0.4695  0.3702
15419TIP3    H167748   2.723   4.194   3.154 -1.4723  0.5656 -0.7217
15419TIP3    H267749   2.825   4.290   3.095  0.9014 -0.1948  2.0316
15420TIP3   OH267750   3.091   1.705  12.806  0.2346 -0.1495 -0.2285
15420TIP3    H167751   3.044   1.755  12.739  1.7147  1.7761  0.1225
15420TIP3    H267752   3.140   1.639  12.758 -1.4276 -1.0372 -0.7349
15421TIP3   OH267753   2.306   4.976   1.730 -0.4455 -0.2914  0.0882
15421TIP3    H167754   2.292   5.034   1.655  0.5089 -0.5245 -0.2856
15421TIP3    H267755   2.396   4.944   1.718 -0.3037 -0.3505  1.3235
15422TIP3   OH267756   2.634   4.584   2.917  0.2893  0.0533  0.2858
15422TIP3    H167757   2.678   4.575   3.002 -0.2632  0.0460  0.5756
15422TIP3    H267758   2.561   4.522   2.922  0.1474  0.1861 -0.1301
15423TIP3   OH267759   2.029   2.695  14.966 -0.3354 -0.0209 -0.1628
15423TIP3    H167760   2.113   2.723  15.003 -0.6925  2.2113 -1.0311
15423TIP3    H267761   1.967   2.761  14.995 -2.2990 -2.8771  2.4212
15424TIP3   OH267762   6.210   2.968  16.554  0.5421  0.4687  0.0813
15424TIP3    H167763   6.181   3.048  16.597  2.2076  1.0813  0.1243
15424TIP3    H267764   6.301   2.957  16.584  0.9737 -0.3381 -1.4707
15425TIP3   OH267765   1.908   4.952   0.513 -0.0778  0.5856  0.0396
15425TIP3    H167766   1.955   4.909   0.585 -0.1418 -1.1680 -0.9369
15425TIP3    H267767   1.974   5.006   0.471  0.2263  0.7872  0.7595
15426TIP3   OH267768   0.019   1.209   6.076 -0.3650 -0.5211  0.2610
15426TIP3    H167769  -0.066   1.182   6.111 -0.7107  1.4569  1.0360
15426TIP3    H267770   0.081   1.187   6.145 -0.3827 -1.0358  0.1162
15427TIP3   OH267771   5.949   4.325   3.968 -0.1861  0.2766 -0.3290
15427TIP3    H167772   5.968   4.255   3.907  1.8993 -0.0518  0.6505
15427TIP3    H267773   5.971   4.405   3.921  0.8431  0.0591 -0.2202
15428TIP3   OH267774   6.404   2.934   6.029 -0.3267  0.2820 -0.1834
15428TIP3    H167775   6.447   2.941   6.114 -0.2394 -0.4311 -0.1658
15428TIP3    H267776   6.401   3.024   5.996 -0.2304  0.5386  0.5057
15429TIP3   OH267777   2.818   1.283   6.045  0.6706 -0.2927 -0.1914
15429TIP3    H167778   2.899   1.333   6.040 -0.1774  1.1564  0.2711
15429TIP3    H267779   2.781   1.305   6.131 -1.1837  0.6053 -1.1796
15430TIP3   OH267780   2.106   1.025   5.362  0.4186  0.2145  0.6306
15430TIP3    H167781   2.026   1.077   5.363  1.4454  1.8785 -0.7349
15430TIP3    H267782   2.143   1.037   5.449  0.1672  1.0417  0.6316
15431TIP3   OH267783   5.637   1.697   3.940 -0.3342  0.1124 -0.6278
15431TIP3    H167784   5.710   1.697   4.002 -0.9695 -0.0735  0.1325
15431TIP3    H267785   5.671   1.655   3.861  0.1182 -0.7488  0.0279
15432TIP3   OH267786   2.367   2.648  11.039 -0.0093  0.1321 -0.7640
15432TIP3    H167787   2.430   2.714  11.012  1.2575 -0.2673  1.1103
15432TIP3    H267788   2.420   2.570  11.057 -1.0748 -0.3770  0.2881
15433TIP3   OH267789   2.834   0.882   0.323 -0.3137 -0.2465 -0.3777
15433TIP3    H167790   2.828   0.820   0.250  0.5576 -0.3044 -0.4025
15433TIP3    H267791   2.868   0.831   0.396 -0.6496 -0.0551 -0.0853
15434TIP3   OH267792   5.677   4.124  13.978  0.6793  0.5938  0.0778
15434TIP3    H167793   5.708   4.204  13.936  1.9512 -0.0115 -0.1401
15434TIP3    H267794   5.655   4.151  14.067 -1.6729  1.8075 -0.7940
15435TIP3   OH267795   2.971   4.250   4.652 -0.7402  0.0932 -0.4931
15435TIP3    H167796   2.979   4.343   4.673 -0.5066  0.1593 -0.8827
15435TIP3    H267797   3.061   4.218   4.648 -0.8094 -0.0825 -0.6644
15436TIP3   OH267798   5.961   2.179  11.953  0.4553  0.3296  0.0172
15436TIP3    H167799   6.053   2.161  11.938  0.3143 -0.2357 -0.1612
15436TIP3    H267800   5.937   2.123  12.026  0.4714  1.1206  0.6446
15437TIP3   OH267801   1.327   5.974  13.045 -0.3914  0.1785 -0.2990
15437TIP3    H167802   1.250   6.000  12.994  0.1006 -1.3957 -1.8819
15437TIP3    H267803   1.384   5.931  12.982 -0.1338 -2.6377  1.7518
15438TIP3   OH267804   2.543   4.429   6.603 -0.2157 -0.0922  0.5243
15438TIP3    H167805   2.630   4.412   6.566 -0.7172  0.8104 -1.0864
15438TIP3    H267806   2.510   4.343   6.628  0.5301 -0.5981 -0.2087
15439TIP3   OH267807   0.005   3.088   3.983  0.2972  0.1260 -0.6028
15439TIP3    H167808   0.082   3.034   3.968 -0.7366 -1.4710 -0.3204
15439TIP3    H267809  -0.019   3.120   3.896 -0.1614 -1.4105 -1.0657
15440TIP3   OH267810   6.006   6.402  11.771  0.0262 -0.3245 -0.6698
15440TIP3    H167811   5.925   6.371  11.812 -0.7608  1.2553 -1.0007
15440TIP3    H267812   5.998   6.376  11.679 -0.5628  0.6506 -0.9107
15441TIP3   OH267813   4.593   5.219   3.968  0.5400 -0.2698 -0.3770
15441TIP3    H167814   4.637   5.302   3.986  0.6825 -0.2046 -1.0152
15441TIP3    H267815   4.632   5.158   4.031  3.9236 -0.9762 -2.9666
15442TIP3   OH267816   3.807   4.184   1.865 -0.1692 -0.1099 -0.4270
15442TIP3    H167817   3.795   4.269   1.824  0.3644  0.8985  1.4700
15442TIP3    H267818   3.888   4.150   1.826 -1.0762 -0.3591 -2.1534
15443TIP3   OH267819   5.582   5.261   2.327  0.1462  0.2576  0.0195
15443TIP3    H167820   5.614   5.314   2.400 -1.0380 -1.0020  1.4904
15443TIP3    H267821   5.490   5.284   2.319  0.1299 -0.0430 -0.7057
15444TIP3   OH267822   1.179   5.029   3.071 -0.4900  0.6244  0.1049
15444TIP3    H167823   1.189   5.124   3.082  0.0111  0.5040  0.6670
15444TIP3    H267824   1.117   5.004   3.139  0.3528  0.3513  0.7797
15445TIP3   OH267825   2.990   2.638  17.259  0.0749  0.3637 -0.7291
15445TIP3    H167826   3.015   2.590  17.180 -2.2522  0.3974 -1.5336
15445TIP3    H267827   2.964   2.724  17.228 -0.2482  0.5908  0.1562
15446TIP3   OH267828   5.138   6.053  16.437  0.3329  0.2950  0.0015
15446TIP3    H167829   5.088   6.131  16.414 -3.0639 -1.6570  0.4106
15446TIP3    H267830   5.130   5.996  16.360  1.4133 -0.3011  0.3158
15447TIP3   OH267831   6.612   0.496   3.624 -0.2820 -0.4747 -0.4805
15447TIP3    H167832   6.662   0.557   3.679  1.4216 -0.4813 -1.9603
15447TIP3    H267833   6.554   0.450   3.685  1.7206 -0.6350  1.3664
15448TIP3   OH267834   0.505   4.714  11.547 -0.1092  0.3530 -0.0201
15448TIP3    H167835   0.560   4.642  11.580  0.8285  0.7085 -0.7578
15448TIP3    H267836   0.559   4.754  11.479 -1.3102  0.7023 -0.7711
15449TIP3   OH267837   4.922   1.687   0.269  0.1899 -0.3191  0.0449
15449TIP3    H167838   4.961   1.625   0.207  0.8123 -1.0408  1.1452
15449TIP3    H267839   4.954   1.773   0.240  1.2305 -0.7402 -0.0919
15450TIP3   OH267840   4.968   5.953  14.421  0.2786  0.2486  0.1003
15450TIP3    H167841   5.036   5.899  14.381  0.5581 -0.1267  1.0620
15450TIP3    H267842   4.983   6.041  14.385  1.5464  0.2594  0.6165
15451TIP3   OH267843   0.349   6.603   3.414  0.7651 -0.0947  0.1047
15451TIP3    H167844   0.325   6.596   3.507  0.1282 -1.1849 -0.1355
15451TIP3    H267845   0.386   6.691   3.406  0.5541  0.1218  1.3341
15452TIP3   OH267846   4.528   5.033   1.814 -0.4289  0.5770 -0.0781
15452TIP3    H167847   4.573   4.958   1.774 -1.6390 -1.1007  1.6273
15452TIP3    H267848   4.583   5.056   1.889 -1.6296 -0.5459  1.1586
15453TIP3   OH267849   2.222   2.057  14.128  0.0864  0.1356  0.0471
15453TIP3    H167850   2.228   2.017  14.214 -1.4174  0.9931  0.5537
15453TIP3    H267851   2.312   2.052  14.094  0.3971 -1.4976  1.0499
15454TIP3   OH267852   0.578   1.776  12.057 -0.5353 -0.0468 -0.3058
15454TIP3    H167853   0.506   1.721  12.027  0.0434 -0.5412 -0.8055
15454TIP3    H267854   0.653   1.717  12.061 -0.1556  0.4657  0.2155
15455TIP3   OH267855   0.438   4.494   2.845 -0.5655 -0.0665  0.3177
15455TIP3    H167856   0.434   4.401   2.866 -2.6145  0.3542  1.9882
15455TIP3    H267857   0.411   4.499   2.754 -0.2518 -1.1161  0.1568
15456TIP3   OH267858   5.732   4.628   2.349 -0.2627  0.1866  0.4037
15456TIP3    H167859   5.702   4.619   2.258  1.3305 -1.6064  0.0236
15456TIP3    H267860   5.826   4.641   2.342  0.1745 -1.9800  1.8750
15457TIP3   OH267861   6.468   5.082  16.322 -0.0513 -0.3197  0.0709
15457TIP3    H167862   6.522   5.093  16.244  1.6889  1.3609  1.4604
15457TIP3    H267863   6.517   5.023  16.378 -2.1031 -2.9146 -0.7692
15458TIP3   OH267864   4.163   1.035   4.516 -0.0942  0.4937  0.0139
15458TIP3    H167865   4.249   1.066   4.543  0.0398 -0.3948  0.6557
15458TIP3    H267866   4.176   0.941   4.502 -0.4728  0.7248 -1.8921
15459TIP3   OH267867   4.165   2.680   1.011 -0.3162  0.0814  0.7192
15459TIP3    H167868   4.106   2.609   1.033  0.1247 -0.5492 -0.1066
15459TIP3    H267869   4.141   2.705   0.921  1.2321 -0.7651  0.0442
15460TIP3   OH267870   5.326   6.620  12.894  0.2030 -0.4135  0.0118
15460TIP3    H167871   5.381   6.542  12.905  1.7230  0.9126  2.1150
15460TIP3    H267872   5.357   6.660  12.813 -1.7480 -2.8555 -2.0417
15461TIP3   OH267873   3.029   2.256   5.940 -0.6407 -0.3000  0.2544
15461TIP3    H167874   2.997   2.296   5.860 -0.4264  0.7487  0.6823
15461TIP3    H267875   3.038   2.163   5.919 -2.1549 -0.3010 -0.4363
15462TIP3   OH267876   3.523   2.108  14.762 -0.3478 -0.0350  0.3508
15462TIP3    H167877   3.493   2.018  14.774  1.5390 -0.6865  0.3219
15462TIP3    H267878   3.615   2.100  14.735 -0.6306  1.8489 -1.2744
15463TIP3   OH267879   4.226   2.267  12.442  0.3255  0.3596  0.5505
15463TIP3    H167880   4.314   2.233  12.459  0.1576 -0.1061  0.4966
15463TIP3    H267881   4.168   2.192  12.456 -0.1763  0.9612  1.8013
15464TIP3   OH267882   0.569   6.165  14.173 -0.0372 -0.1695  0.0997
15464TIP3    H167883   0.625   6.240  14.152 -1.2256  1.3184  2.0719
15464TIP3    H267884   0.612   6.124  14.248 -0.5847 -0.1382  0.4315
15465TIP3   OH267885   1.847   1.967  12.548  0.0943  0.3749 -0.6131
15465TIP3    H167886   1.864   2.022  12.624  0.6617 -1.2284  0.4541
15465TIP3    H267887   1.764   1.923  12.569  0.4304 -0.3352 -0.7435
15466TIP3   OH267888   4.422   4.345   6.062  0.0136 -0.1765  0.1261
15466TIP3    H167889   4.352   4.328   6.125  0.2114  1.4565  0.7949
15466TIP3    H267890   4.500   4.308   6.103 -0.1406 -0.4919  0.1369
15467TIP3   OH267891   2.135   1.825   2.086 -0.2138 -0.0910  0.1876
15467TIP3    H167892   2.042   1.827   2.108 -0.5339  2.1786 -1.2388
15467TIP3    H267893   2.159   1.916   2.071  2.5002 -0.5104  1.4399
15468TIP3   OH267894   6.068   3.014  12.559  0.2795 -0.0677 -0.0843
15468TIP3    H167895   6.056   2.919  12.558 -1.9919  0.1539  1.2272
15468TIP3    H267896   6.162   3.026  12.567  0.7910 -2.1799 -2.0892
15469TIP3   OH267897   5.861   2.313   5.145  0.1005  0.0135 -0.0119
15469TIP3    H167898   5.944   2.342   5.181 -0.2267  0.6712  0.2301
15469TIP3    H267899   5.874   2.221   5.124  0.6120 -0.1052  0.8270
15470TIP3   OH267900   3.181   1.380   5.466  0.3633 -0.2630  0.3814
15470TIP3    H167901   3.142   1.313   5.521  1.4356 -0.7865  0.5162
15470TIP3    H267902   3.248   1.333   5.415 -1.2805 -0.0158 -2.1192
15471TIP3   OH267903   6.477   6.773  15.198 -0.0883 -0.0359  0.0746
15471TIP3    H167904   6.551   6.799  15.144  0.9260  0.2046  1.5357
15471TIP3    H267905   6.487   6.678  15.208 -0.4766 -0.1339 -0.4411
15472TIP3   OH267906   4.756   6.422   5.665  0.1616 -0.0058 -0.1519
15472TIP3    H167907   4.754   6.485   5.593  1.4618  2.7477  2.1109
15472TIP3    H267908   4.839   6.376   5.654 -0.1494 -0.3472 -1.0477
15473TIP3   OH267909   2.141   3.121  15.304  0.4365  0.2246 -0.1457
15473TIP3    H167910   2.176   3.068  15.375  1.9079  0.3987 -0.7189
15473TIP3    H267911   2.122   3.059  15.234 -1.2604  0.0193  0.4664
15474TIP3   OH267912   6.651   3.861   2.772  0.5962 -0.8497 -0.1272
15474TIP3    H167913   6.634   3.934   2.712  0.8954  1.7532  2.7898
15474TIP3    H267914   6.564   3.835   2.802  0.6593  0.8163  1.5974
15475TIP3   OH267915   4.833   3.223   3.346  0.4535 -0.4099  0.1008
15475TIP3    H167916   4.928   3.220   3.343  0.4844  0.1367  0.5684
15475TIP3    H267917   4.810   3.303   3.300  0.2601 -0.0261  0.8673
15476TIP3   OH267918   3.937   0.078   1.729 -0.4182  0.2717 -0.6254
15476TIP3    H167919   3.912   0.117   1.645  0.2632 -1.3340 -1.6047
15476TIP3    H267920   4.017   0.030   1.709 -0.5312 -0.5346  0.8478
15477TIP3   OH267921   0.613   5.949   5.779  0.3431  0.2025 -0.3941
15477TIP3    H167922   0.578   5.890   5.711  1.2342 -1.0230  0.1844
15477TIP3    H267923   0.698   5.976   5.744 -0.1937  1.3929 -0.7890
15478TIP3   OH267924   6.709   6.375   4.375  0.1841  0.1272 -0.3685
15478TIP3    H167925   6.686   6.286   4.401  0.5119  0.2242  0.2706
15478TIP3    H267926   6.671   6.431   4.443 -0.4950  0.5148 -1.0584
15479TIP3   OH267927   3.457   1.290  17.192  0.2866  0.0097 -0.2056
15479TIP3    H167928   3.476   1.197  17.205  0.0268 -0.1659 -1.0180
15479TIP3    H267929   3.453   1.300  17.097 -0.5908  0.6643 -0.1059
15480TIP3   OH267930   1.751   2.403  13.017  0.3386  0.5573 -0.5411
15480TIP3    H167931   1.759   2.498  13.013 -0.1893  0.6742  0.9844
15480TIP3    H267932   1.774   2.381  13.107  2.7420 -0.9931 -1.4809
15481TIP3   OH267933   5.161   2.620  14.747  0.1690  0.5901  0.6461
15481TIP3    H167934   5.232   2.573  14.703  0.4171  2.0056 -0.5011
15481TIP3    H267935   5.201   2.700  14.779 -0.0831 -0.2674  3.2424
15482TIP3   OH267936   3.645   2.460   1.134 -0.2468 -0.6096 -0.7904
15482TIP3    H167937   3.735   2.437   1.158 -0.6471  0.1724  1.5456
15482TIP3    H267938   3.651   2.550   1.102 -0.4953  0.2247  1.4220
15483TIP3   OH267939   2.524   0.157   3.512  0.1541  0.0476 -0.2082
15483TIP3    H167940   2.516   0.096   3.585 -0.8846 -1.0514 -1.2247
15483TIP3    H267941   2.591   0.118   3.456 -0.0707  0.1562 -0.5543
15484TIP3   OH267942   5.040   2.500  16.833  0.5004 -0.4266  0.1543
15484TIP3    H167943   5.033   2.567  16.900  0.7733 -3.2621  3.1323
15484TIP3    H267944   4.981   2.431  16.861  0.1915 -1.4518 -2.8465
15485TIP3   OH267945   3.734   1.512  14.085  0.4439  0.5378 -0.3053
15485TIP3    H167946   3.806   1.450  14.088  0.2130  0.2998  0.3915
15485TIP3    H267947   3.736   1.556  14.170  0.0836  0.8886 -0.4751
15486TIP3   OH267948   0.192   4.166   5.684  0.2617 -0.0510 -0.2566
15486TIP3    H167949   0.238   4.226   5.742 -1.6712  1.0465  0.1845
15486TIP3    H267950   0.156   4.099   5.742 -0.8014  0.4816 -0.2853
15487TIP3   OH267951   5.702   2.179  16.895  0.1265  0.1247 -0.4349
15487TIP3    H167952   5.691   2.195  16.989 -0.7646 -0.8749 -0.3517
15487TIP3    H267953   5.613   2.184  16.860  0.3418 -0.4587 -1.0703
15488TIP3   OH267954   4.586   4.669   5.752  0.2341  0.3043  0.2506
15488TIP3    H167955   4.616   4.630   5.834  0.6461  0.2220  0.0599
15488TIP3    H267956   4.498   4.633   5.740 -0.1880  1.0240  1.1206
15489TIP3   OH267957   6.024   1.955  16.375 -0.1879 -0.6783 -0.0900
15489TIP3    H167958   6.006   1.944  16.281 -0.7875 -1.3596  0.0940
15489TIP3    H267959   6.077   2.034  16.381 -0.0380 -0.7045 -1.0193
15490TIP3   OH267960   1.521   5.751   3.338 -0.8699 -0.8412 -0.2969
15490TIP3    H167961   1.493   5.690   3.271  2.0376 -0.3935 -2.0178
15490TIP3    H267962   1.462   5.826   3.328 -1.1382 -1.2164 -1.6550
15491TIP3   OH267963   1.730   6.359  11.846 -0.7939 -0.1391  0.3384
15491TIP3    H167964   1.707   6.267  11.843 -1.6968  0.0935  0.1140
15491TIP3    H267965   1.648   6.405  11.860 -0.3547  0.6352  0.4417
15492TIP3   OH267966   3.494   5.965   5.838  0.0738 -0.3157 -0.1626
15492TIP3    H167967   3.542   6.041   5.806 -0.7160  0.6815  0.9547
15492TIP3    H267968   3.498   5.973   5.934 -0.6811 -1.2532 -0.0462
15493TIP3   OH267969   0.167   5.885  14.147  0.2869  0.2219  0.4292
15493TIP3    H167970   0.230   5.903  14.217 -1.4575  1.6441  1.6762
15493TIP3    H267971   0.092   5.846  14.192 -0.1883 -0.4315 -0.8953
15494TIP3   OH267972   3.582   6.162  12.323  0.3402 -0.3087  0.0951
15494TIP3    H167973   3.643   6.200  12.387  0.5192 -1.3082  0.5320
15494TIP3    H267974   3.616   6.189  12.238  0.7478  0.0865  0.3825
15495TIP3   OH267975   0.279   1.593  14.901  0.6918  0.2481 -0.5562
15495TIP3    H167976   0.272   1.498  14.886  3.2530 -0.4961  2.3903
15495TIP3    H267977   0.341   1.623  14.834  1.3831 -0.5080 -0.2577
15496TIP3   OH267978   1.750   6.772  11.123 -0.0155 -0.0139 -0.2139
15496TIP3    H167979   1.724   6.833  11.054  0.4528 -0.5502 -0.8771
15496TIP3    H267980   1.773   6.691  11.076 -0.3390 -0.6015  0.6240
15497TIP3   OH267981   5.718   6.477  12.296  0.0968  0.5876  0.2009
15497TIP3    H167982   5.702   6.406  12.235  2.2348  0.2152  0.0293
15497TIP3    H267983   5.674   6.451  12.376  0.6176 -0.7929  0.0459
15498TIP3   OH267984   5.096   1.090  14.693 -0.1133 -0.2613 -0.3302
15498TIP3    H167985   5.047   1.066  14.771  2.8327 -0.8984  1.3997
15498TIP3    H267986   5.086   1.185  14.687 -0.5084 -0.2320  0.7398
15499TIP3   OH267987   1.282   0.668   4.470  0.1962  0.1909 -0.1617
15499TIP3    H167988   1.250   0.738   4.527 -1.5474 -0.0161 -0.8658
15499TIP3    H267989   1.265   0.587   4.519  0.7491  0.1486 -0.0330
15500TIP3   OH267990   3.933   2.250  14.504 -0.1918  0.0883  0.7339
15500TIP3    H167991   3.912   2.314  14.436  1.2644  2.6706  2.6375
15500TIP3    H267992   4.017   2.213  14.478  1.2039  2.3133  1.9252
15501TIP3   OH267993   3.721   4.709   0.264 -0.3915 -0.0963  0.2509
15501TIP3    H167994   3.710   4.746   0.351 -0.0850 -1.9199  1.0854
15501TIP3    H267995   3.639   4.661   0.248  0.1157 -0.9313  0.1236
15502TIP3   OH267996   1.223   3.563   4.489  0.0399  0.0388  0.6486
15502TIP3    H167997   1.147   3.595   4.537  0.0150  0.6389  0.2189
15502TIP3    H267998   1.210   3.469   4.481 -1.8849  0.4551 -1.5778
15503TIP3   OH267999   1.232   0.461   2.174  0.0455  0.5822 -0.0900
15503TIP3    H168000   1.297   0.503   2.118 -0.4818  0.1155 -1.0610
15503TIP3    H268001   1.284   0.409   2.236  0.6278  1.0540 -0.1812
15504TIP3   OH268002   0.197   0.304   2.756 -0.5150  0.3646  0.6803
15504TIP3    H168003   0.179   0.212   2.733  0.6082 -0.0385  1.3907
15504TIP3    H268004   0.184   0.308   2.851 -1.9829  1.2885  0.4575
15505TIP3   OH268005   0.319   0.953  14.186  0.0352 -0.7283  0.2572
15505TIP3    H168006   0.240   1.007  14.197  0.7005  0.2110  0.5102
15505TIP3    H268007   0.288   0.864  14.199 -1.3522 -0.5479 -1.5409
15506TIP3   OH268008   3.895   4.017  12.004  0.0801 -0.1901 -0.1025
15506TIP3    H168009   3.953   3.963  12.059 -0.6137 -1.8612 -0.9988
15506TIP3    H268010   3.953   4.086  11.970  1.4621 -1.5744 -0.6330
15507TIP3   OH268011   3.409   4.272  16.614  0.1375 -0.6448 -0.2691
15507TIP3    H168012   3.472   4.334  16.651  0.4694 -0.6426 -0.8370
15507TIP3    H268013   3.454   4.188  16.616 -0.4004 -0.9201  0.7184
15508TIP3   OH268014   0.262   5.771  13.638 -0.0298  0.1284 -0.1056
15508TIP3    H168015   0.266   5.794  13.731 -1.8806 -1.1420  0.3232
15508TIP3    H268016   0.218   5.845  13.597  0.5963  0.5956  0.0665
15509TIP3   OH268017   1.442   1.538  14.880 -0.0693 -0.7506 -0.8568
15509TIP3    H168018   1.448   1.443  14.880  2.5279 -0.6324  0.5221
15509TIP3    H268019   1.499   1.566  14.952  0.6933  1.8903 -2.4170
15510TIP3   OH268020   5.140   5.558  16.704  0.0360  0.1128 -0.1108
15510TIP3    H168021   5.205   5.627  16.687 -1.2941  1.7722  1.2508
15510TIP3    H268022   5.110   5.531  16.618  3.2281 -1.3904 -0.8161
15511TIP3   OH268023   2.716   5.044  15.516  0.0492 -0.5907 -0.3068
15511TIP3    H168024   2.786   5.108  15.524 -1.1268  0.6193  0.5660
15511TIP3    H268025   2.747   4.968  15.566 -0.1589  0.7434  1.9286
15512TIP3   OH268026   5.006   0.361  17.002 -0.6880 -0.1117  0.8331
15512TIP3    H168027   4.981   0.304  16.930  0.4258  1.6064 -0.9306
15512TIP3    H268028   4.943   0.434  16.998  0.5735  0.9648  0.3684
15513TIP3   OH268029   3.788   2.620   4.881 -0.0187 -0.0075 -0.0691
15513TIP3    H168030   3.845   2.552   4.917 -1.1080 -0.2368  1.2737
15513TIP3    H268031   3.804   2.696   4.937 -0.9685 -0.0611  0.2976
15514TIP3   OH268032   3.261   1.595  14.868 -0.2072 -0.1529  0.3024
15514TIP3    H168033   3.339   1.553  14.905 -0.1001 -0.0034  0.2471
15514TIP3    H268034   3.206   1.522  14.838 -0.3662 -0.2789  0.9012
15515TIP3   OH268035   2.323   1.106   1.364 -0.0313  0.0396 -0.5917
15515TIP3    H168036   2.385   1.111   1.437 -0.8230  1.0103  0.0226
15515TIP3    H268037   2.343   1.183   1.311 -0.9989  0.5881 -0.1610
15516TIP3   OH268038   1.890   2.436  10.894  0.4168  0.0900 -0.8479
15516TIP3    H168039   1.921   2.517  10.855  0.5901 -0.2958 -1.5274
15516TIP3    H268040   1.885   2.374  10.821  0.1035 -0.4561 -0.3755
15517TIP3   OH268041   2.831   2.956  15.927  0.7746 -0.0347  0.3581
15517TIP3    H168042   2.744   2.915  15.933 -0.1724  1.8740  0.1377
15517TIP3    H268043   2.832   3.019  15.998  1.3724  1.0645 -0.6230
15518TIP3   OH268044   4.128   4.965  16.523  0.2611 -0.6382 -0.2330
15518TIP3    H168045   4.121   5.058  16.503 -0.0620 -1.2635 -3.1404
15518TIP3    H268046   4.218   4.954  16.556  0.9247  0.3971 -1.6670
15519TIP3   OH268047   1.848   1.496   3.797 -0.2972 -0.1074 -0.2866
15519TIP3    H168048   1.940   1.521   3.795 -0.0968 -0.8470 -0.3328
15519TIP3    H268049   1.848   1.402   3.816 -0.9996 -0.3851 -1.6179
15520TIP3   OH268050   6.171   3.377   4.526 -0.0054 -0.4693 -0.0350
15520TIP3    H168051   6.234   3.350   4.460 -0.4658  0.0377 -0.7008
15520TIP3    H268052   6.104   3.309   4.524  0.3073 -0.7855  0.3642
15521TIP3   OH268053   3.435   3.190  15.176 -0.5027 -0.1668 -0.8003
15521TIP3    H168054   3.516   3.143  15.197 -0.9768 -0.2529  0.9158
15521TIP3    H268055   3.407   3.228  15.260 -1.2787  1.3795 -1.7446
15522TIP3   OH268056   1.420   0.771  16.872  0.2580  0.0760 -0.6610
15522TIP3    H168057   1.472   0.816  16.938 -0.2796 -0.0313 -0.1533
15522TIP3    H268058   1.429   0.823  16.793 -0.2678  1.0216 -0.1097
15523TIP3   OH268059   4.069   5.140  16.017  0.3289  0.1566  0.6055
15523TIP3    H168060   4.023   5.208  16.068  0.4105  0.6564  0.0201
15523TIP3    H268061   4.002   5.074  16.000  0.0864  0.3914  0.6427
15524TIP3   OH268062   6.783   3.219   5.607 -0.2560 -0.5097  0.2949
15524TIP3    H168063   6.850   3.247   5.669  0.0115  0.1018 -0.2565
15524TIP3    H268064   6.711   3.188   5.661 -0.5482  1.2486  0.9487
15525TIP3   OH268065   2.951   4.459   0.335  0.2743 -0.1944 -0.3822
15525TIP3    H168066   3.007   4.458   0.258  0.8189 -1.1759  0.0262
15525TIP3    H268067   3.011   4.451   0.409 -0.5182 -3.1653  0.0010
15526TIP3   OH268068   0.893   0.795  13.648 -0.2149  0.6445 -0.0711
15526TIP3    H168069   0.976   0.820  13.690 -0.3398  0.2532  0.4039
15526TIP3    H268070   0.860   0.877  13.611  0.7208  0.6820 -0.8562
15527TIP3   OH268071   5.709   5.380   3.835 -0.3227  0.3259  0.2087
15527TIP3    H168072   5.729   5.310   3.773  0.9828 -0.1868  1.1971
15527TIP3    H268073   5.759   5.455   3.803  0.0320  0.1760  0.4108
15528TIP3   OH268074   5.977   3.752  15.907  0.0257 -0.4387 -0.1784
15528TIP3    H168075   6.057   3.765  15.856 -0.4981  0.7891 -0.7119
15528TIP3    H268076   6.008   3.737  15.996  0.8247  2.1070  0.0224
15529TIP3   OH268077   5.321   5.831  12.169 -0.0614 -0.0155  0.4934
15529TIP3    H168078   5.396   5.868  12.215  1.5998  0.3290 -2.3517
15529TIP3    H268079   5.359   5.782  12.097 -2.5600 -0.3457 -0.6529
15530TIP3   OH268080   4.180   5.288   3.266 -0.3571  0.4118  1.2676
15530TIP3    H168081   4.148   5.348   3.198 -1.7481  0.0193  1.5662
15530TIP3    H268082   4.275   5.299   3.264 -0.3882  0.4526 -0.6874
15531TIP3   OH268083   2.734   6.483  11.653  0.1611 -0.1787  0.1267
15531TIP3    H168084   2.697   6.396  11.638 -0.3450 -0.5083  2.9179
15531TIP3    H268085   2.820   6.481  11.611 -0.9244 -1.0956 -2.1187
15532TIP3   OH268086   1.200   1.798   4.305 -0.4263  0.5643 -0.0396
15532TIP3    H168087   1.125   1.831   4.256 -1.3402  0.6498  1.3638
15532TIP3    H268088   1.266   1.866   4.298 -0.1444  0.0947 -2.0437
15533TIP3   OH268089   0.304   3.989  17.094 -0.4927  0.1121  0.0407
15533TIP3    H168090   0.264   4.075  17.107  0.7008  0.5121  1.1994
15533TIP3    H268091   0.296   3.945  17.179  0.1809 -0.3696 -0.1355
15534TIP3   OH268092   1.225   2.821   0.140 -0.2756  0.7224 -0.2835
15534TIP3    H168093   1.257   2.811   0.230  0.2089  1.9853 -0.2964
15534TIP3    H268094   1.180   2.739   0.121 -0.9768  0.7055  1.3597
15535TIP3   OH268095   2.296   6.750  14.267 -0.6578  0.6766  0.7188
15535TIP3    H168096   2.330   6.787  14.348 -2.3152  2.0551  0.8219
15535TIP3    H268097   2.201   6.746  14.280 -0.8529 -0.0590 -0.7506
15536TIP3   OH268098   6.307   0.042  11.818 -0.0937  0.1561 -0.2217
15536TIP3    H168099   6.241   0.070  11.755  0.1741  0.2761 -0.4510
15536TIP3    H268100   6.375   0.000  11.765 -0.2245 -0.4317  0.0630
15537TIP3   OH268101   2.783   0.316  17.082  0.6769 -0.1246  0.1619
15537TIP3    H168102   2.831   0.282  17.006 -0.7710  0.4969 -1.0715
15537TIP3    H268103   2.846   0.314  17.154  2.3104 -0.0531 -1.2374
15538TIP3   OH268104   0.183   1.740  16.494 -0.1953 -0.4115 -0.4507
15538TIP3    H168105   0.187   1.676  16.565  1.2734 -0.5763 -0.6577
15538TIP3    H268106   0.254   1.802  16.513 -1.9094  1.4409  0.0060
15539TIP3   OH268107   5.008   2.514  13.813 -0.3433 -0.7754  0.2600
15539TIP3    H168108   5.036   2.463  13.888  0.8333  0.2471  0.5408
15539TIP3    H268109   5.082   2.509  13.752 -0.1372  0.6937  0.3630
15540TIP3   OH268110   4.781   6.302   0.589  0.4462 -0.5838 -0.0074
15540TIP3    H168111   4.788   6.207   0.601 -1.0264 -0.5528  1.3173
15540TIP3    H268112   4.816   6.339   0.671 -0.1519 -0.0318  0.0075
15541TIP3   OH268113   1.009   3.940  15.801  0.1130  0.0842  0.1428
15541TIP3    H168114   1.034   4.028  15.773 -0.7549  0.1567 -0.4539
15541TIP3    H268115   1.086   3.886  15.785  0.4682  0.6306  0.0007
15542TIP3   OH268116   0.666   0.714   3.199 -0.1644  0.0296  0.1647
15542TIP3    H168117   0.699   0.712   3.288 -0.1972  0.2193  0.1810
15542TIP3    H268118   0.665   0.622   3.171 -0.8060 -0.0992  0.6026
15543TIP3   OH268119   1.976   4.330  13.966 -0.3413 -0.3119  0.2534
15543TIP3    H168120   1.953   4.269  14.036  0.6576 -0.2449  0.6428
15543TIP3    H268121   2.053   4.376  13.998 -0.9714  1.0330 -0.1194
15544TIP3   OH268122   2.387   0.936   0.724 -0.5506 -0.4829  0.6139
15544TIP3    H168123   2.326   0.862   0.732 -0.1387 -1.2391 -2.4451
15544TIP3    H268124   2.471   0.895   0.705 -0.1241  0.7485 -0.1723
15545TIP3   OH268125   1.397   4.660   5.601  0.2892  0.0077 -0.2577
15545TIP3    H168126   1.466   4.665   5.536 -0.1341  0.1021 -0.7051
15545TIP3    H268127   1.347   4.582   5.578  1.2778 -1.0341  1.1061
15546TIP3   OH268128   5.420   5.606   2.117  0.9523  0.2323 -0.5810
15546TIP3    H168129   5.496   5.663   2.126  0.6358  0.6443 -0.5079
15546TIP3    H268130   5.437   5.556   2.038  1.7795 -0.4084 -0.0053
15547TIP3   OH268131   3.708   1.881   4.949 -0.2316 -0.4204  0.0424
15547TIP3    H168132   3.780   1.851   5.004  0.9299 -0.7265 -1.6037
15547TIP3    H268133   3.654   1.803   4.936 -1.0008 -0.1408  1.4523
15548TIP3   OH268134   3.805   3.577   0.967 -0.2155  0.0561 -0.1610
15548TIP3    H168135   3.887   3.613   1.002 -1.5166  2.1397  0.8710
15548TIP3    H268136   3.760   3.653   0.930 -1.9888 -0.9480 -0.0903
15549TIP3   OH268137   1.081   1.620  16.562  0.0533  0.7160  0.1784
15549TIP3    H168138   1.046   1.636  16.475 -1.8129  1.9220  1.1258
15549TIP3    H268139   1.144   1.691  16.577  0.3110  0.5551 -0.1424
15550TIP3   OH268140   1.529   0.646  12.182  0.4991 -0.3682 -0.6645
15550TIP3    H168141   1.498   0.710  12.118  0.8216 -0.3324 -0.7843
15550TIP3    H268142   1.592   0.694  12.235 -1.6335  0.3449  1.3241
15551TIP3   OH268143   6.207   4.206   2.311  0.3968  0.1133  0.0814
15551TIP3    H168144   6.127   4.208   2.258  0.4190  1.4955  0.0951
15551TIP3    H268145   6.273   4.248   2.256  0.7297  0.3949  0.6910
15552TIP3   OH268146   2.593   4.237   5.757  0.5844  0.6991 -0.3490
15552TIP3    H168147   2.647   4.246   5.835 -1.9909  1.2776  1.4198
15552TIP3    H268148   2.551   4.152   5.766 -1.2035  1.5707 -0.0858
15553TIP3   OH268149   3.132   4.907  12.620  0.0719 -0.3039  0.0952
15553TIP3    H168150   3.121   4.911  12.525  0.5889 -0.0807  0.0419
15553TIP3    H268151   3.135   4.998  12.648  0.3883 -0.3670  0.2707
15554TIP3   OH268152   3.548   5.908  11.526  0.3141 -0.1423 -0.2656
15554TIP3    H168153   3.488   5.889  11.598 -0.9363  0.7741 -1.0578
15554TIP3    H268154   3.588   5.823  11.505 -0.7868 -0.7801  0.1864
15555TIP3   OH268155   2.271   4.027  17.105 -0.2435 -0.2089  0.0480
15555TIP3    H168156   2.322   3.949  17.126  0.0681  0.0734  0.3483
15555TIP3    H268157   2.204   3.996  17.043 -0.1551 -0.7183  0.2058
15556TIP3   OH268158   4.855   5.413  16.973 -0.0143  0.4760  0.3818
15556TIP3    H168159   4.840   5.487  17.031 -1.9346 -0.9270  1.7444
15556TIP3    H268160   4.770   5.398  16.930  0.1771 -1.2828  0.5583
15557TIP3   OH268161   4.280   5.550   3.706  1.2868 -0.3132  0.2270
15557TIP3    H168162   4.339   5.622   3.682  0.9883 -0.8047 -2.0415
15557TIP3    H268163   4.337   5.474   3.714  1.0214 -0.7263 -1.6748
15558TIP3   OH268164   2.254   1.854   4.884  0.7284  0.3625  0.3170
15558TIP3    H168165   2.203   1.894   4.814  2.5603 -0.7010 -1.6542
15558TIP3    H268166   2.193   1.793   4.926 -1.6976  4.0606  2.5010
15559TIP3   OH268167   3.528   3.354  14.082 -0.4714 -0.0357  0.1190
15559TIP3    H168168   3.481   3.297  14.143 -0.7407 -0.7647 -0.7602
15559TIP3    H268169   3.495   3.329  13.996  0.7665  0.1780 -0.4271
15560TIP3   OH268170   4.435   2.845  14.181 -0.0861  0.1777  0.4673
15560TIP3    H168171   4.419   2.932  14.145  0.4457 -0.6804 -1.9196
15560TIP3    H268172   4.530   2.834  14.176 -0.2902 -1.1309 -0.6444
15561TIP3   OH268173   6.625   5.158  11.669  0.2684  0.1245  0.3133
15561TIP3    H168174   6.710   5.117  11.653  0.2176  0.0125  0.3306
15561TIP3    H268175   6.561   5.088  11.652  0.0214  0.9536 -2.4600
15562TIP3   OH268176   2.573   2.750  14.652  0.1453 -0.1568  0.2343
15562TIP3    H168177   2.571   2.732  14.746  1.1173 -1.9210 -0.0477
15562TIP3    H268178   2.661   2.783  14.636 -0.3171  0.9977  0.0901
15563TIP3   OH268179   2.127   2.172   4.492 -0.1598 -0.1391 -0.0397
15563TIP3    H168180   2.122   2.150   4.399 -0.1198  2.6531 -0.7473
15563TIP3    H268181   2.137   2.267   4.494  2.0622 -0.3638  2.7671
15564TIP3   OH268182   3.902   1.152  13.300  0.1137  0.1618 -0.1712
15564TIP3    H168183   3.849   1.091  13.350  1.3773 -0.8925 -0.0811
15564TIP3    H268184   3.906   1.231  13.354  0.3853 -0.5053  0.8014
15565TIP3   OH268185   4.636   6.503  14.126  0.2937  0.0650  0.3580
15565TIP3    H168186   4.633   6.411  14.100  1.3429  0.2776 -0.5724
15565TIP3    H268187   4.697   6.505  14.199  1.9204  0.3131 -0.9798
15566TIP3   OH268188   3.081   3.740  15.741  0.0101 -0.1817 -0.0310
15566TIP3    H168189   3.173   3.755  15.760 -0.5935  1.7590  1.5673
15566TIP3    H268190   3.079   3.717  15.648  2.0967 -0.2557 -0.0821
15567TIP3   OH268191   0.764   5.699   0.808  0.3286 -0.4942 -0.2589
15567TIP3    H168192   0.762   5.744   0.892 -1.1704  0.3501 -0.7198
15567TIP3    H268193   0.802   5.763   0.747  0.6031 -0.7812 -0.3875
15568TIP3   OH268194   1.916   3.263  15.741 -0.0938 -0.1952 -0.3788
15568TIP3    H168195   2.003   3.298  15.719  0.1424  0.0835  0.9204
15568TIP3    H268196   1.855   3.320  15.694  0.4516 -0.8722 -1.9201
15569TIP3   OH268197   0.364   4.588   0.162 -0.5707 -0.0877 -0.3756
15569TIP3    H168198   0.310   4.655   0.119  0.8874  2.4869  1.6527
15569TIP3    H268199   0.445   4.586   0.112  0.9936  2.6714  1.8580
15570TIP3   OH268200   1.680   4.005   1.278 -0.3025  0.0367 -0.6191
15570TIP3    H168201   1.682   3.919   1.321  1.1071  0.0773 -0.5572
15570TIP3    H268202   1.730   4.062   1.336 -0.2413  0.6146 -1.2264
15571TIP3   OH268203   5.876   0.993  14.941 -0.1753  0.2731 -0.1843
15571TIP3    H168204   5.838   0.948  14.865 -0.6808 -2.9611  1.8683
15571TIP3    H268205   5.968   0.966  14.941 -0.1362  0.3972  0.2194
15572TIP3   OH268206   4.154   4.756  13.044  0.4545  0.4147  0.2731
15572TIP3    H168207   4.118   4.822  12.984 -0.7816 -0.5837 -0.1004
15572TIP3    H268208   4.078   4.706  13.074  1.4233 -1.1455  0.1836
15573TIP3   OH268209   3.082   0.474   5.743 -0.2588 -0.1980 -0.0099
15573TIP3    H168210   3.166   0.519   5.755 -0.7209  0.4029  1.1049
15573TIP3    H268211   3.105   0.382   5.733  0.6290  0.1407 -1.1301
15574TIP3   OH268212   5.687   1.094  10.583  0.4169  0.3238 -0.8863
15574TIP3    H168213   5.618   1.059  10.527  0.4828 -1.6241  0.2118
15574TIP3    H268214   5.648   1.096  10.670  1.2183  0.7676 -0.5343
15575TIP3   OH268215   2.340   0.085   4.915  0.4750 -0.3218  0.0468
15575TIP3    H168216   2.249   0.109   4.896  0.2119 -0.4419  1.1377
15575TIP3    H268217   2.333   0.010   4.974  1.2906 -0.3552  0.1013
15576TIP3   OH268218   1.913   5.336   5.612 -0.2104 -0.0701  0.6077
15576TIP3    H168219   1.827   5.294   5.616 -0.4233  0.1959 -0.8853
15576TIP3    H268220   1.913   5.384   5.529  1.8779 -1.1619 -0.0800
15577TIP3   OH268221   2.452   0.420  12.254 -0.2954 -0.6149 -0.2506
15577TIP3    H168222   2.413   0.460  12.176  0.1170 -0.7481 -0.5271
15577TIP3    H268223   2.407   0.337  12.263 -0.2610 -0.6539 -0.4224
15578TIP3   OH268224   2.459   2.981  13.188 -0.3391  0.2172  0.9914
15578TIP3    H168225   2.396   2.946  13.251  0.6394  0.4399  2.1210
15578TIP3    H268226   2.454   3.076  13.200 -2.5385  0.4910 -1.6286
15579TIP3   OH268227   5.235   2.156  12.381 -0.2343  0.2414  0.3605
15579TIP3    H168228   5.190   2.144  12.297 -1.2223  0.5196  0.8343
15579TIP3    H268229   5.186   2.227  12.423 -0.6760 -0.9123  1.8049
15580TIP3   OH268230   1.348   0.399  14.086  0.3129  0.0582  0.7004
15580TIP3    H168231   1.275   0.345  14.116 -0.2760  0.9496  0.9045
15580TIP3    H268232   1.424   0.363  14.131 -0.0639 -0.6384  0.7885
15581TIP3   OH268233   1.484   6.372  14.060 -0.0183 -0.1720  0.1996
15581TIP3    H168234   1.417   6.439  14.044  0.2290 -0.5846 -2.8220
15581TIP3    H268235   1.491   6.325  13.978  5.1469  0.8832 -0.1353
15582TIP3   OH268236   5.471   2.176   0.911  0.3784 -0.3468  0.1396
15582TIP3    H168237   5.403   2.226   0.866 -0.4116 -0.4976  1.1570
15582TIP3    H268238   5.490   2.103   0.852 -0.5687 -0.4819 -0.0092
15583TIP3   OH268239   5.963   2.108  13.846 -0.1533  0.5906 -0.1590
15583TIP3    H168240   6.041   2.163  13.836 -0.7761  1.5611  0.2250
15583TIP3    H268241   5.890   2.170  13.844 -0.8715 -0.2364  0.2319
15584TIP3   OH268242   3.041   1.970  13.904 -0.2774  0.1604 -0.2025
15584TIP3    H168243   3.029   1.906  13.975 -0.5150  2.6952  2.1706
15584TIP3    H268244   3.131   2.000  13.914 -1.1526  2.5717  0.8860
15585TIP3   OH268245   4.908   2.010   2.443 -0.3045 -0.2942 -0.6232
15585TIP3    H168246   4.992   2.004   2.487 -0.4808  0.4275 -0.1855
15585TIP3    H268247   4.923   2.071   2.370 -0.1146 -1.1757 -1.3315
15586TIP3   OH268248   4.119   2.692   4.868  0.0395 -0.2214  0.3146
15586TIP3    H168249   4.091   2.606   4.901 -2.3764  0.7145  0.8303
15586TIP3    H268250   4.207   2.678   4.834  0.1917 -2.6092  1.6151
15587TIP3   OH268251   4.442   4.409  13.052 -0.4033  0.0060 -0.2075
15587TIP3    H168252   4.425   4.357  12.974 -3.1943 -0.4393  0.6431
15587TIP3    H268253   4.357   4.419  13.094  1.0310  0.1457  2.8546
15588TIP3   OH268254   0.813   0.465  11.254 -0.4285  0.3774  0.0846
15588TIP3    H168255   0.805   0.448  11.160 -0.9788 -0.9242  0.3574
15588TIP3    H268256   0.901   0.436  11.276 -0.9098 -0.9604  0.2954
15589TIP3   OH268257   1.105   6.343   2.911  0.3865  0.0525  0.2652
15589TIP3    H168258   1.116   6.390   2.828  0.8494  0.6240  0.6426
15589TIP3    H268259   1.119   6.411   2.977 -0.9784 -0.1788  0.7974
15590TIP3   OH268260   5.374   6.633   4.937 -0.1846  0.2041 -0.1120
15590TIP3    H168261   5.349   6.549   4.898 -1.3514  0.5786 -0.1854
15590TIP3    H268262   5.344   6.628   5.028  2.6984 -0.7379  0.8571
15591TIP3   OH268263   3.056   0.570   4.134  0.1627  0.3420  0.2248
15591TIP3    H168264   3.000   0.577   4.056 -0.6748  0.1457  0.7947
15591TIP3    H268265   3.068   0.476   4.145  1.2609  0.4104 -0.3469
15592TIP3   OH268266   4.680   1.992  13.527  0.5732 -0.3294  0.2370
15592TIP3    H168267   4.667   2.063  13.590 -1.0670 -1.9531  1.7935
15592TIP3    H268268   4.774   1.994  13.509  0.4868  2.5855 -0.2132
15593TIP3   OH268269   2.529   5.458  12.425  0.2264  0.1873 -0.3466
15593TIP3    H168270   2.521   5.367  12.397 -0.9801  0.7542 -1.8613
15593TIP3    H268271   2.484   5.461  12.510  0.1159 -0.5835 -0.3792
15594TIP3   OH268272   5.415   3.042  13.461  0.1054  0.2347 -0.5469
15594TIP3    H168273   5.377   3.112  13.514 -1.3450 -0.3665 -0.7709
15594TIP3    H268274   5.502   3.028  13.499 -0.3094  0.8941  0.6724
15595TIP3   OH268275   0.335   0.190   5.311 -0.2514  0.0468 -0.4410
15595TIP3    H168276   0.276   0.181   5.236  0.3416  3.7477 -1.4698
15595TIP3    H268277   0.415   0.228   5.274  0.8671 -0.1139  1.7170
15596TIP3   OH268278   4.197   4.170  15.071 -0.1900  0.0033  0.1359
15596TIP3    H168279   4.192   4.232  15.144 -0.3305  0.7107 -0.4684
15596TIP3    H268280   4.145   4.211  15.002  0.1892 -0.5245 -0.4613
15597TIP3   OH268281   6.360   1.871   4.135  0.1913  0.1786  0.2235
15597TIP3    H168282   6.302   1.862   4.211 -0.7252  1.7821 -0.2476
15597TIP3    H268283   6.311   1.832   4.062  0.3055  0.2609  0.1019
15598TIP3   OH268284   6.782   3.198   1.974 -0.1804 -0.5658  0.7296
15598TIP3    H168285   6.772   3.248   1.894 -0.5689 -0.3688  0.8985
15598TIP3    H268286   6.756   3.258   2.044  0.4970 -0.6229  1.0330
15599TIP3   OH268287   4.992   1.494   4.186  0.4852 -0.3663  0.0410
15599TIP3    H168288   5.064   1.475   4.125  0.1052 -0.2765 -0.4391
15599TIP3    H268289   4.989   1.589   4.190  2.1816 -0.3538  2.2036
15600TIP3   OH268290   1.359   6.318  12.905  0.0144  0.5833 -0.4333
15600TIP3    H168291   1.438   6.295  12.954  0.2639  3.0995  0.4016
15600TIP3    H268292   1.390   6.343  12.818  0.0955  1.1233 -0.2497
15601TIP3   OH268293   6.438   3.186  13.722  0.0788  0.0941 -0.6592
15601TIP3    H168294   6.451   3.133  13.643  0.6534  1.4862 -1.5145
15601TIP3    H268295   6.352   3.225  13.710 -1.0222 -1.8137  0.6891
15602TIP3   OH268296   2.058   2.257  12.597  0.6019  0.0446 -0.1126
15602TIP3    H168297   1.983   2.236  12.652 -0.5429  0.6810 -1.4005
15602TIP3    H268298   2.081   2.347  12.621  0.5560  0.0661 -0.1487
15603TIP3   OH268299   4.011   0.780   5.276 -0.2751  0.1118 -0.5133
15603TIP3    H168300   4.076   0.753   5.211 -0.3531  1.1917 -1.0560
15603TIP3    H268301   3.927   0.761   5.235 -0.3119 -1.6352  0.3412
15604TIP3   OH268302   6.405   1.641  13.640  0.8684  0.2618 -0.4556
15604TIP3    H168303   6.427   1.593  13.720  0.1174  1.2070  0.3357
15604TIP3    H268304   6.327   1.597  13.607 -0.5475  1.6533  0.9347
15605TIP3   OH268305   2.045   4.099  14.632  0.1842 -0.2434 -0.5325
15605TIP3    H168306   1.961   4.138  14.609  0.5808  1.2451  0.4846
15605TIP3    H268307   2.110   4.159  14.596  0.8118 -1.0061 -0.6805
15606TIP3   OH268308   4.903   4.208   1.020 -0.1145  0.1174  0.2878
15606TIP3    H168309   4.941   4.158   1.091 -0.3816  0.7942  0.9105
15606TIP3    H268310   4.886   4.143   0.951 -0.9041 -0.7221  1.2585
15607TIP3   OH268311   3.340   3.827  15.783  0.1599 -0.3785  0.0904
15607TIP3    H168312   3.372   3.904  15.831 -1.4018  1.5486 -1.8505
15607TIP3    H268313   3.414   3.802  15.727  0.0765  0.8753 -0.6099
15608TIP3   OH268314   1.078   4.920  13.141  0.0073  0.4052  0.2477
15608TIP3    H168315   1.007   4.921  13.206  0.6338  0.3415  0.9351
15608TIP3    H268316   1.157   4.934  13.192  0.4735  0.7122 -0.5549
15609TIP3   OH268317   4.928   4.228   2.105 -0.2536 -0.4218  0.7029
15609TIP3    H168318   4.941   4.180   2.022  0.0756  0.7861  0.0406
15609TIP3    H268319   4.987   4.303   2.097  0.4678 -0.7928  2.4412
15610TIP3   OH268320   4.537   5.743  15.218  0.1748  0.3479  0.2013
15610TIP3    H168321   4.593   5.810  15.257 -0.5034  0.1677  1.4807
15610TIP3    H268322   4.563   5.742  15.125 -0.5925  3.1642 -0.0965
15611TIP3   OH268323   2.828   3.922  15.365 -0.8672 -0.0524 -0.5710
15611TIP3    H168324   2.763   3.852  15.360 -2.0499  0.9789 -0.2441
15611TIP3    H268325   2.775   4.001  15.381  0.4549  0.8515 -0.6205
15612TIP3   OH268326   2.753   6.028  15.950 -0.4629 -0.1920 -0.2715
15612TIP3    H168327   2.810   6.071  15.886  0.8954 -0.3617  0.8063
15612TIP3    H268328   2.691   5.979  15.897  0.0505  0.4473 -1.4781
15613TIP3   OH268329   1.290   0.761   6.172 -0.3768  0.1289  0.1900
15613TIP3    H168330   1.215   0.714   6.136 -0.1952 -0.2171  0.2565
15613TIP3    H268331   1.312   0.713   6.252  1.0590 -0.8940 -0.7907
15614TIP3   OH268332   3.051   4.581   2.404 -0.2451 -0.6766 -0.3326
15614TIP3    H168333   3.017   4.527   2.333  0.5828 -1.5635 -0.0666
15614TIP3    H268334   3.007   4.665   2.393  0.2876 -0.6247 -2.2451
15615TIP3   OH268335   4.270   6.402   1.816  0.0692 -0.0606  0.0143
15615TIP3    H168336   4.228   6.473   1.864  1.7879 -1.0368  3.0885
15615TIP3    H268337   4.304   6.444   1.737 -2.6051  1.6412 -0.2904
15616TIP3   OH268338   2.310   5.727   2.465  0.1897  0.1683 -0.4163
15616TIP3    H168339   2.344   5.710   2.377  0.8387  1.2083 -0.3757
15616TIP3    H268340   2.284   5.820   2.463 -0.8473 -0.0980  0.1466
15617TIP3   OH268341   2.955   1.355  16.713 -0.3091 -0.3140 -0.2011
15617TIP3    H168342   2.952   1.308  16.796 -1.4123  1.7702  0.9678
15617TIP3    H268343   3.022   1.422  16.725  2.2065 -2.3392 -2.3127
15618TIP3   OH268344   4.418   4.859  16.879  0.4119  0.0671  0.3157
15618TIP3    H168345   4.346   4.920  16.864  0.3242 -0.5019 -1.7433
15618TIP3    H268346   4.497   4.912  16.873  0.3618 -0.0938 -1.9946
15619TIP3   OH268347   6.537   0.316   1.335 -0.3319  0.5786 -0.0971
15619TIP3    H168348   6.572   0.311   1.247 -0.6686 -0.5645 -0.1686
15619TIP3    H268349   6.442   0.307   1.324 -0.1802 -2.4519  0.6007
15620TIP3   OH268350   1.672   4.220  12.763  0.3562  0.2760  0.6344
15620TIP3    H168351   1.650   4.175  12.844  0.2371 -2.4680 -0.8813
15620TIP3    H268352   1.589   4.258  12.733  0.2708  0.7412  1.4569
15621TIP3   OH268353   5.085   3.385  14.875 -0.2570  0.4278 -0.1631
15621TIP3    H168354   5.064   3.470  14.836  0.4260 -0.3077 -2.2474
15621TIP3    H268355   5.161   3.355  14.825  1.1329 -0.2542  2.2971
15622TIP3   OH268356   6.734   3.612  16.484  0.0719 -0.3327  0.1726
15622TIP3    H168357   6.780   3.616  16.400  0.1821  1.5681  0.2995
15622TIP3    H268358   6.691   3.697  16.492  0.1962 -0.4275  2.1120
15623TIP3   OH268359   0.148   1.348   4.650  0.1530  0.0366 -0.1670
15623TIP3    H168360   0.185   1.418   4.703 -0.7419  0.4009 -0.0218
15623TIP3    H268361   0.188   1.268   4.685  0.3271  0.3666  0.3891
15624TIP3   OH268362   0.150   0.951  13.407 -0.2997 -0.3226  0.1034
15624TIP3    H168363   0.159   0.941  13.312 -1.5135  0.6056 -0.1156
15624TIP3    H268364   0.123   1.042  13.419  0.5616 -0.2259  1.3980
15625TIP3   OH268365   6.309   5.980   4.766  0.3088 -0.2625 -0.3546
15625TIP3    H168366   6.366   6.008   4.838 -1.0807 -1.3054  1.1855
15625TIP3    H268367   6.253   6.056   4.749  0.2797 -0.1921  0.0441
15626TIP3   OH268368   4.616   5.287   4.553  0.9397  0.0197 -0.1230
15626TIP3    H168369   4.584   5.363   4.603 -0.7241 -0.8938  0.2428
15626TIP3    H268370   4.613   5.215   4.616 -0.4753 -0.9818 -1.3071
15627TIP3   OH268371   6.396   6.667  15.692 -0.0669  0.3696  0.2090
15627TIP3    H168372   6.433   6.714  15.617  2.3748 -0.4918  0.8136
15627TIP3    H268373   6.304   6.693  15.694  1.0737  4.8100  0.2508
15628TIP3   OH268374   0.483   4.540  13.512 -0.3140 -0.1884 -0.0677
15628TIP3    H168375   0.567   4.500  13.536 -0.2223 -0.1210 -0.2733
15628TIP3    H268376   0.483   4.539  13.416 -0.3016  0.3332 -0.0723
15629TIP3   OH268377   1.953   4.918  15.816  0.1362 -0.4430  0.2480
15629TIP3    H168378   1.875   4.876  15.779  0.1762 -0.3198  0.0255
15629TIP3    H268379   2.026   4.865  15.783  0.2242  0.1199 -0.4717
15630TIP3   OH268380   1.872   1.096   2.772  0.0790 -0.0372 -0.1630
15630TIP3    H168381   1.949   1.068   2.821  0.7191  1.5996 -0.2365
15630TIP3    H268382   1.906   1.128   2.689 -0.7815 -0.3450 -0.6424
15631TIP3   OH268383   6.435   3.153  15.404 -0.0245 -0.4155 -0.4724
15631TIP3    H168384   6.456   3.217  15.472 -1.0897  0.9527 -1.4014
15631TIP3    H268385   6.346   3.125  15.425 -0.2858 -0.1295 -1.1982
15632TIP3   OH268386   2.357   0.962   4.504 -0.0788 -0.1047  0.9407
15632TIP3    H168387   2.267   0.935   4.522  0.3644 -2.6259 -0.3278
15632TIP3    H268388   2.407   0.930   4.579  0.0645 -0.5867  0.6431
15633TIP3   OH268389   4.559   6.801   5.095  0.0635  0.5215  0.5898
15633TIP3    H168390   4.641   6.775   5.136  1.1155 -0.8314 -2.2713
15633TIP3    H268391   4.561   6.897   5.097  1.5709  0.4945  0.8507
15634TIP3   OH268392   2.858   4.845   3.040  0.3624  0.5992  0.4702
15634TIP3    H168393   2.799   4.907   3.084 -0.3387  0.8161 -0.7618
15634TIP3    H268394   2.828   4.759   3.069 -1.1881  0.6600 -0.8904
15635TIP3   OH268395   4.152   6.407   4.735  0.7404  0.4458  0.3571
15635TIP3    H168396   4.109   6.370   4.812  0.7892  2.3199  1.3187
15635TIP3    H268397   4.179   6.332   4.684  0.9151 -0.8297  2.2900
15636TIP3   OH268398   0.090   2.070  11.802  0.1591 -0.3045 -0.4574
15636TIP3    H168399   0.064   2.023  11.723  0.1986  0.4901 -0.9446
15636TIP3    H268400   0.011   2.116  11.830  0.1105 -0.6860  0.0418
15637TIP3   OH268401   1.237   5.458  16.995 -0.0125  0.2653  0.0960
15637TIP3    H168402   1.172   5.396  16.963 -1.9036  1.3600  1.6646
15637TIP3    H268403   1.292   5.407  17.054  0.7319 -0.7347 -1.4469
15638TIP3   OH268404   4.429   4.119  14.526 -0.1237 -0.3801 -0.1041
15638TIP3    H168405   4.471   4.039  14.556  0.5632  0.4729  1.2846
15638TIP3    H268406   4.496   4.165  14.476  0.0253  0.1049  0.5298
15639TIP3   OH268407   3.853   3.250  16.592 -0.1539  0.6943 -0.1470
15639TIP3    H168408   3.804   3.313  16.645  0.9792  0.2710  1.4695
15639TIP3    H268409   3.942   3.254  16.627  0.3711 -0.4080 -1.3070
15640TIP3   OH268410   4.482   2.623   1.229  0.3235  0.1274  0.2860
15640TIP3    H168411   4.438   2.707   1.238  0.5422  0.0614  2.0741
15640TIP3    H268412   4.573   2.645   1.210  0.5395  0.3212  1.4917
15641TIP3   OH268413   2.297   4.328  16.830  0.1946 -1.0553  0.0115
15641TIP3    H168414   2.235   4.332  16.902  0.9309  0.1529  0.6047
15641TIP3    H268415   2.350   4.250  16.848 -0.1359 -1.1975  0.3595
15642TIP3   OH268416   1.656   0.480   1.019 -0.6605  0.2313 -0.4576
15642TIP3    H168417   1.624   0.402   0.975 -0.7005 -0.8365  1.3889
15642TIP3    H268418   1.744   0.456   1.050 -0.1196  1.3881 -1.0644
15643TIP3   OH268419   0.959   5.661   1.987 -0.0307 -0.0764  0.6484
15643TIP3    H168420   0.993   5.725   2.048 -0.7874  0.8722  0.0931
15643TIP3    H268421   0.881   5.625   2.029 -0.9644  1.0965 -0.0469
15644TIP3   OH268422   6.501   0.838   0.054 -0.6624 -0.2659 -0.5441
15644TIP3    H168423   6.469   0.862   0.141  0.0210 -0.1966 -0.3094
15644TIP3    H268424   6.422   0.825   0.002 -1.0693  0.2793 -0.0676
15645TIP3   OH268425   0.840   2.552   6.029  0.2498 -0.3671 -0.3251
15645TIP3    H168426   0.826   2.630   6.082 -1.4343 -1.0783  0.3056
15645TIP3    H268427   0.874   2.487   6.090  0.6701 -0.4450 -0.6370
15646TIP3   OH268428   1.500   3.519   5.125  0.4800  0.0935 -0.0365
15646TIP3    H168429   1.547   3.499   5.206 -0.8004 -1.4811  0.3460
15646TIP3    H268430   1.458   3.436   5.100 -1.1669  1.1702 -0.9651
15647TIP3   OH268431   1.390   0.128   3.516 -0.5509  0.5199 -0.4622
15647TIP3    H168432   1.390   0.158   3.425 -1.9966 -0.6613 -0.8668
15647TIP3    H268433   1.333   0.190   3.562 -1.1754  0.1426 -0.7136
15648TIP3   OH268434   4.635   5.340   5.470  0.3708  0.1498 -0.8609
15648TIP3    H168435   4.620   5.426   5.432  0.5077 -0.1704 -1.6547
15648TIP3    H268436   4.679   5.357   5.553  1.4317  0.8058 -1.5469
15649TIP3   OH268437   6.750   0.211  16.924  0.1540 -0.1354  0.8619
15649TIP3    H168438   6.816   0.160  16.970 -0.3759 -1.6009  0.0257
15649TIP3    H268439   6.689   0.146  16.890  0.2285  0.9425 -1.4200
15650TIP3   OH268440   0.926   3.612  13.588 -0.6850  0.5697 -0.4200
15650TIP3    H168441   0.997   3.581  13.644 -0.3591  1.1370 -0.5155
15650TIP3    H268442   0.964   3.617  13.501 -0.2531  2.7949 -0.1376
15651TIP3   OH268443   1.912   5.574  17.158  0.8664  0.9537  0.2913
15651TIP3    H168444   2.004   5.555  17.173  0.1799 -2.6178  0.4779
15651TIP3    H268445   1.869   5.548  17.240 -0.4006  1.8254 -0.0789
15652TIP3   OH268446   2.073   4.769  17.143  0.3732 -0.3932 -0.2958
15652TIP3    H168447   2.028   4.806  17.067 -0.4934 -0.0642  0.3731
15652TIP3    H268448   2.146   4.829  17.159  0.3971 -0.3136 -0.7061
15653TIP3   OH268449   4.587   0.706   4.729 -0.0580 -0.0136 -0.0320
15653TIP3    H168450   4.550   0.700   4.641  1.6894  0.3868 -0.7944
15653TIP3    H268451   4.655   0.773   4.723  1.1682 -1.1180  1.2275
15654TIP3   OH268452   4.397   5.945  10.714  0.3137 -0.2239 -0.6340
15654TIP3    H168453   4.322   5.999  10.690 -0.9487 -1.7289 -0.1327
15654TIP3    H268454   4.473   5.996  10.686 -0.9445  0.5686 -2.6909
15655TIP3   OH268455   5.233   1.516  14.432  0.3939  0.0194 -0.3907
15655TIP3    H168456   5.281   1.461  14.371 -0.6793 -0.6090 -0.6803
15655TIP3    H268457   5.289   1.593  14.443  1.4067 -0.6410 -0.8043
15656TIP3   OH268458   1.986   1.835   5.141  0.8158 -0.0264  0.0131
15656TIP3    H168459   1.904   1.837   5.190  0.7445  1.4607 -0.1321
15656TIP3    H268460   2.029   1.918   5.164  2.4752 -0.9902  0.4293
15657TIP3   OH268461   5.243   5.027  12.378  0.2065 -0.2787  0.2317
15657TIP3    H168462   5.252   5.122  12.375  0.1955 -0.2990 -0.7135
15657TIP3    H268463   5.179   5.007  12.310  1.4292 -1.0980 -0.7132
15658TIP3   OH268464   1.169   0.526   4.857 -0.0132 -0.5209  0.0806
15658TIP3    H168465   1.102   0.470   4.817 -1.5688  0.9097  0.6455
15658TIP3    H268466   1.184   0.595   4.793  0.2532 -0.3252  0.3541
15659TIP3   OH268467   1.554   5.936   0.928  0.1822 -0.4788  0.1588
15659TIP3    H168468   1.480   5.959   0.872  0.1892  1.8837  1.0854
15659TIP3    H268469   1.533   5.848   0.960 -2.0063 -0.0167  0.0683
15660TIP3   OH268470   5.393   2.402  12.829 -0.4596  0.1909 -0.2200
15660TIP3    H168471   5.349   2.486  12.845  0.5070  0.6729 -0.0511
15660TIP3    H268472   5.357   2.343  12.894 -0.4064  0.7506  0.3210
15661TIP3   OH268473   0.265   5.579   1.123 -0.2408  0.4272 -0.4610
15661TIP3    H168474   0.232   5.669   1.130  0.9043  0.8255 -0.0742
15661TIP3    H268475   0.360   5.589   1.125 -0.1173 -0.8048 -0.3162
15662TIP3   OH268476   4.695   3.303  11.659 -0.5317  0.6157 -0.2755
15662TIP3    H168477   4.756   3.270  11.592 -0.3064  1.8659 -0.6927
15662TIP3    H268478   4.611   3.311  11.612 -0.9985 -0.9426  0.2549
15663TIP3   OH268479   3.699   5.783  13.991 -0.4273  0.0864  0.4931
15663TIP3    H168480   3.607   5.811  13.991 -0.5415 -0.2305 -1.2379
15663TIP3    H268481   3.701   5.705  14.046 -1.2315 -0.0174  0.3778
15664TIP3   OH268482   3.015   2.422   2.289  0.0530  0.6546  0.2780
15664TIP3    H168483   2.992   2.330   2.281  1.4201  0.2794  0.6547
15664TIP3    H268484   2.948   2.459   2.347 -1.3574  0.2301 -1.0601
15665TIP3   OH268485   6.737   6.470   0.318  0.5714 -0.0629  0.4361
15665TIP3    H168486   6.651   6.432   0.300  0.5056  0.0922  0.4253
15665TIP3    H268487   6.777   6.478   0.231  0.5999 -0.1396  0.4417
15666TIP3   OH268488   1.085   3.590  15.630 -0.2203  0.4644 -0.3415
15666TIP3    H168489   1.059   3.567  15.541  0.8041 -2.0428 -0.0525
15666TIP3    H268490   1.017   3.551  15.685  0.4098 -0.0715  0.0681
15667TIP3   OH268491   1.535   3.671  14.468  0.9265  0.0293  0.5946
15667TIP3    H168492   1.495   3.746  14.424  1.4023  0.8137  1.4928
15667TIP3    H268493   1.492   3.595  14.428  0.9416  0.7350 -0.8228
15668TIP3   OH268494   0.816   2.253   1.145 -0.3917 -0.8457  0.0283
15668TIP3    H168495   0.740   2.308   1.163  1.5117  0.6204  4.3077
15668TIP3    H268496   0.879   2.313   1.104  1.1834  0.0034  3.4767
15669TIP3   OH268497   0.899   4.114   2.528 -0.5950 -0.0952  0.2211
15669TIP3    H168498   0.962   4.085   2.594  0.0739  2.0824  0.5785
15669TIP3    H268499   0.906   4.049   2.458  2.1836  0.1811  0.1796
15670TIP3   OH268500   1.217   6.412  11.748  0.6591  0.5607 -0.2271
15670TIP3    H168501   1.284   6.373  11.692  1.7767 -0.3081  1.6627
15670TIP3    H268502   1.184   6.340  11.800 -2.4105  0.8132 -1.7158
15671TIP3   OH268503   0.872   2.771  12.864 -0.2953 -0.2000 -0.0606
15671TIP3    H168504   0.838   2.746  12.778 -1.3617 -1.0697  0.6022
15671TIP3    H268505   0.932   2.701  12.889  1.6250  1.0817 -1.0005
15672TIP3   OH268506   0.797   4.751  14.020  0.3038 -0.7352 -0.9056
15672TIP3    H168507   0.823   4.660  14.003 -0.0660 -1.7870  3.5405
15672TIP3    H268508   0.878   4.794  14.046  0.2222 -0.1356 -1.6296
15673TIP3   OH268509   2.613   1.616  17.016 -0.1225 -0.1738 -0.0076
15673TIP3    H168510   2.683   1.555  17.038  0.4616  0.1383 -0.9672
15673TIP3    H268511   2.652   1.703  17.025 -0.7003  0.0451  0.4982
15674TIP3   OH268512   2.258   2.471   2.513  0.3221  0.1757 -0.0191
15674TIP3    H168513   2.166   2.447   2.504  0.4505 -0.0344 -0.8670
15674TIP3    H268514   2.263   2.561   2.478 -0.3078  1.8244  3.8936
15675TIP3   OH268515   4.658   3.746  15.665 -0.2205 -0.7920 -0.1064
15675TIP3    H168516   4.618   3.768  15.581 -0.1156 -1.8409 -0.4328
15675TIP3    H268517   4.612   3.667  15.694 -0.4514 -0.2760  0.9613
15676TIP3   OH268518   2.462   1.250  12.132  0.1716 -0.0145 -0.1816
15676TIP3    H168519   2.463   1.155  12.144 -3.4221 -0.3964 -2.2785
15676TIP3    H268520   2.430   1.284  12.216 -0.4460 -0.7946 -0.0949
15677TIP3   OH268521   6.120   2.937   1.376 -0.0413  0.3115 -0.1427
15677TIP3    H168522   6.068   3.015   1.358 -0.7483 -0.2077 -0.3475
15677TIP3    H268523   6.065   2.883   1.433  0.0434 -0.4942 -0.8131
15678TIP3   OH268524   0.420   1.491  12.577  0.3520  0.8968 -0.2704
15678TIP3    H168525   0.336   1.530  12.603  0.4460  0.1398  1.2213
15678TIP3    H268526   0.437   1.528  12.491 -1.2860  1.4336 -0.3946
15679TIP3   OH268527   5.888   5.022  14.318  0.6282  0.2063  0.9780
15679TIP3    H168528   5.867   5.103  14.364 -0.5335  0.3619  0.1887
15679TIP3    H268529   5.981   5.031  14.296  0.4406  1.4565  0.6389
15680TIP3   OH268530   4.875   3.439   4.518  0.1559 -0.4317  0.1170
15680TIP3    H168531   4.896   3.367   4.459 -1.4696 -1.2127  0.4667
15680TIP3    H268532   4.853   3.512   4.459  3.0703  0.2022 -0.2424
15681TIP3   OH268533   5.621   5.780  16.726  0.0630  0.6385 -0.1591
15681TIP3    H168534   5.670   5.827  16.793  0.7318 -0.6766  0.2945
15681TIP3    H268535   5.656   5.691  16.729 -1.4111  0.0200 -0.7666
15682TIP3   OH268536   2.809   5.489  14.214 -0.4180 -0.2323  0.1388
15682TIP3    H168537   2.716   5.468  14.208 -0.5732  0.4965 -0.0327
15682TIP3    H268538   2.839   5.489  14.123 -0.5667  0.9487  0.0883
15683TIP3   OH268539   2.730   4.972   4.632 -0.0902  0.0317 -0.7059
15683TIP3    H168540   2.754   5.051   4.680  0.4118 -1.5773  1.7704
15683TIP3    H268541   2.642   4.951   4.663  1.1769 -2.3778  1.4184
15684TIP3   OH268542   2.728   0.205  12.102  0.0966  0.3320 -0.2802
15684TIP3    H168543   2.796   0.151  12.062 -2.1199 -2.7607 -0.1108
15684TIP3    H268544   2.670   0.228  12.029 -1.3279 -1.2420  0.3250
15685TIP3   OH268545   1.726   3.740  13.818 -0.0604  0.4207  0.3131
15685TIP3    H168546   1.731   3.652  13.780 -2.4149 -1.0185  3.1242
15685TIP3    H268547   1.768   3.797  13.753  0.9758 -2.6731 -1.8421
15686TIP3   OH268548   2.821   1.118  15.273 -0.6328 -0.6496  0.4155
15686TIP3    H168549   2.851   1.028  15.259  1.9630  0.1073  0.8824
15686TIP3    H268550   2.750   1.111  15.337  1.1431 -2.1598  2.2742
15687TIP3   OH268551   6.670   3.635   0.997 -0.2077  0.0080 -0.7546
15687TIP3    H168552   6.575   3.646   1.008 -0.2921 -1.9948  0.8147
15687TIP3    H268553   6.702   3.619   1.086  1.9692  2.9821 -0.9416
15688TIP3   OH268554   3.088   2.650  10.681 -0.0049 -0.2646  0.3203
15688TIP3    H168555   3.114   2.725  10.628  0.2941 -0.3209  0.3833
15688TIP3    H268556   3.153   2.647  10.751  0.3071 -0.9053  0.0088
15689TIP3   OH268557   2.331   0.476   3.227  0.5757  0.1282  0.0852
15689TIP3    H168558   2.309   0.384   3.245  0.6587 -0.1474 -1.1413
15689TIP3    H268559   2.272   0.501   3.156  0.4104  1.0976  0.5548
15690TIP3   OH268560   0.330   3.767   6.162 -0.1898 -0.0676 -0.3363
15690TIP3    H168561   0.237   3.771   6.185  0.4190  2.0477  2.0579
15690TIP3    H268562   0.371   3.726   6.238  1.2581  2.3942  0.2683
15691TIP3   OH268563   1.627   1.934  10.947 -0.5854 -0.4414 -0.1700
15691TIP3    H168564   1.680   2.007  10.914 -0.3577 -0.8134 -0.6353
15691TIP3    H268565   1.537   1.967  10.947 -0.4648 -0.1115 -0.2319
15692TIP3   OH268566   6.063   1.975   1.149 -0.3671 -0.3010 -0.6750
15692TIP3    H168567   5.968   1.980   1.146 -0.3500  0.5851 -0.0116
15692TIP3    H268568   6.084   1.961   1.242  0.1653  0.0673 -0.7358
15693TIP3   OH268569   3.290   4.666   3.547 -0.6001  0.4499 -0.6572
15693TIP3    H168570   3.283   4.734   3.614 -0.3887 -0.1539 -0.0188
15693TIP3    H268571   3.328   4.591   3.592 -0.4273  0.0443 -1.4618
15694TIP3   OH268572   0.773   3.986  14.691  0.1063 -0.1279  0.0766
15694TIP3    H168573   0.863   3.993  14.723  0.1480  2.4112 -0.5008
15694TIP3    H268574   0.776   4.022  14.603 -1.1478 -1.7105 -0.6416
15695TIP3   OH268575   5.894   2.511  12.268 -0.8731  0.4522 -0.0110
15695TIP3    H168576   5.979   2.550  12.249  0.1427 -1.5575  0.2389
15695TIP3    H268577   5.862   2.558  12.346  1.3352 -0.6859  1.6290
15696TIP3   OH268578   2.527   3.774   2.604  0.3249 -0.0742 -0.4203
15696TIP3    H168579   2.531   3.814   2.517  0.6270 -1.1172 -0.9025
15696TIP3    H268580   2.521   3.680   2.586 -0.4696 -0.2391  0.6862
15697TIP3   OH268581   5.082   2.942   0.894 -0.0324 -0.2316  0.2192
15697TIP3    H168582   5.025   2.902   0.829  1.6470 -2.2766 -0.0393
15697TIP3    H268583   5.097   3.031   0.861 -1.1487 -0.4335 -0.8996
15698TIP3   OH268584   3.160   2.831   2.519  0.5994  0.5822 -0.2558
15698TIP3    H168585   3.159   2.926   2.525 -6.3780  0.8102 -0.2920
15698TIP3    H268586   3.146   2.801   2.609 -0.7737 -0.1877 -0.7034
15699TIP3   OH268587   4.797   3.218  15.147  1.0871 -1.2008 -0.1282
15699TIP3    H168588   4.793   3.165  15.227  0.5260 -1.6443 -0.4473
15699TIP3    H268589   4.885   3.200  15.112  0.7143 -2.3478 -0.5136
15700TIP3   OH268590   5.940   1.887  14.020 -0.2122 -0.1784  0.3671
15700TIP3    H168591   6.022   1.850  13.987  0.6733 -0.6083  2.9268
15700TIP3    H268592   5.953   1.982  14.015 -1.2316 -0.1654 -3.1589
15701TIP3   OH268593   2.713   2.424   4.371  0.3478 -0.3862  0.1739
15701TIP3    H168594   2.628   2.468   4.358  1.3440  1.6411  0.3823
15701TIP3    H268595   2.709   2.390   4.460  0.9719  2.5144  1.3437
15702TIP3   OH268596   4.984   0.096  14.526 -0.0775  0.4099  0.0707
15702TIP3    H168597   4.919   0.074  14.593  0.7248  1.3186  1.1538
15702TIP3    H268598   4.940   0.160  14.470 -0.1860  0.8662  0.6774
15703TIP3   OH268599   3.495   2.562   3.194  0.2452  0.4568  0.7416
15703TIP3    H168600   3.424   2.583   3.134  0.8247 -0.5529 -0.2942
15703TIP3    H268601   3.453   2.511   3.263  0.3106 -1.8399 -0.8869
15704TIP3   OH268602   1.464   0.877  15.994 -0.0263 -0.3973  0.3634
15704TIP3    H168603   1.491   0.887  15.903 -1.7631  0.9139 -0.0532
15704TIP3    H268604   1.532   0.824  16.034  1.1715 -0.3249 -1.5082
15705TIP3   OH268605   3.137   2.311  14.541  0.0494  0.3733 -0.1987
15705TIP3    H168606   3.080   2.370  14.588  0.9333  1.1638 -0.0945
15705TIP3    H268607   3.115   2.224  14.574 -0.5073  0.7491  0.4313
15706TIP3   OH268608   1.069   1.723   5.720 -0.1606  0.1082  0.0171
15706TIP3    H168609   1.117   1.667   5.781  0.4000 -0.6123 -1.0609
15706TIP3    H268610   1.133   1.788   5.692 -0.5573  0.7413  0.5687
15707TIP3   OH268611   4.236   1.675   5.595 -0.0722 -0.2227 -0.3770
15707TIP3    H168612   4.224   1.626   5.677 -1.0728 -1.3516 -1.1896
15707TIP3    H268613   4.283   1.754   5.622 -3.1124  0.9576  1.7814
15708TIP3   OH268614   4.504   2.136  12.201  0.0695 -0.6673 -0.0379
15708TIP3    H168615   4.427   2.080  12.213  0.9496 -2.2362 -1.4880
15708TIP3    H268616   4.525   2.128  12.108  1.2014  0.7992  0.0704
15709TIP3   OH268617   4.158   4.158   5.285 -0.0417  0.4926  0.4124
15709TIP3    H168618   4.210   4.080   5.302 -1.0473 -0.2712  0.0292
15709TIP3    H268619   4.154   4.203   5.369  1.0795  0.4743  0.4892
15710TIP3   OH268620   1.109   2.628   0.974  0.1320 -0.0873  0.1100
15710TIP3    H168621   1.037   2.566   0.981  1.5495 -1.6118  1.8739
15710TIP3    H268622   1.080   2.704   1.025  0.4998 -1.4558  2.4464
15711TIP3   OH268623   2.032   5.326   1.969 -0.1960  0.1162 -0.3302
15711TIP3    H168624   1.951   5.289   2.006 -0.3024  1.5178  0.8586
15711TIP3    H268625   2.101   5.271   2.006 -0.5205 -0.4291 -0.5161
15712TIP3   OH268626   2.294   6.457   1.309  0.5742  0.5960 -0.1489
15712TIP3    H168627   2.252   6.477   1.392 -0.1570  1.1779 -0.6474
15712TIP3    H268628   2.248   6.512   1.245  0.3987 -0.6377 -1.1077
15713TIP3   OH268629   2.903   5.549   2.422 -0.1778  0.1228  0.0381
15713TIP3    H168630   2.816   5.513   2.441 -0.9755  1.0206 -1.7931
15713TIP3    H268631   2.928   5.595   2.503 -0.0533 -2.6954  1.6543
15714TIP3   OH268632   2.919   4.837   2.429  0.4358  0.8874  0.1175
15714TIP3    H168633   2.848   4.890   2.467  0.7528  1.7207 -0.4294
15714TIP3    H268634   2.999   4.875   2.465  0.8341  2.6607 -2.5004
15715TIP3   OH268635   1.175   6.465  16.672  0.0707 -0.2958  0.8871
15715TIP3    H168636   1.263   6.440  16.700  0.7219  0.8774 -0.0350
15715TIP3    H268637   1.161   6.416  16.591 -1.4882 -3.0670  2.7649
15716TIP3   OH268638   1.711   0.356  11.329  0.3467 -0.0932 -0.4317
15716TIP3    H168639   1.620   0.325  11.334  0.7992 -1.1368  1.7921
15716TIP3    H268640   1.733   0.351  11.236 -2.3225  1.5243 -1.2123
15717TIP3   OH268641   3.986   3.655  12.423 -0.1413 -0.3895 -0.2715
15717TIP3    H168642   3.938   3.737  12.411  0.2592 -0.4317 -2.2984
15717TIP3    H268643   3.984   3.640  12.518 -0.9217  1.5262  0.0416
15718TIP3   OH268644   5.524   4.667   1.317 -0.0045 -0.1855  0.1942
15718TIP3    H168645   5.510   4.645   1.225  0.7884  0.1614 -0.0187
15718TIP3    H268646   5.468   4.606   1.365  0.5900 -1.2765 -0.4687
15719TIP3   OH268647   3.379   3.698   2.179 -0.2201 -0.1260 -0.0633
15719TIP3    H168648   3.423   3.634   2.123 -0.5683 -1.6534  1.3541
15719TIP3    H268649   3.449   3.737   2.230  0.0225  0.8086 -1.1046
15720TIP3   OH268650   6.554   6.497  15.845  0.0906  0.4138  0.0301
15720TIP3    H168651   6.496   6.513  15.920  0.7892  0.0675  0.6569
15720TIP3    H268652   6.530   6.564  15.781  0.6771  1.8379  1.2721
15721TIP3   OH268653   3.550   4.586   2.598 -0.6790  0.1830 -0.1177
15721TIP3    H168654   3.469   4.628   2.627 -0.6396  0.9397 -1.1131
15721TIP3    H268655   3.610   4.596   2.673 -0.9311  1.1903 -0.0391
15722TIP3   OH268656   5.694   3.516  10.338  0.4380 -0.3772 -0.0742
15722TIP3    H168657   5.646   3.590  10.300  0.9609  0.4052  0.7743
15722TIP3    H268658   5.784   3.548  10.347  0.2603 -0.4253  2.1176
15723TIP3   OH268659   3.055   5.902  16.361  0.2644 -0.6886 -0.0479
15723TIP3    H168660   2.979   5.844  16.371  1.2350 -1.9619  0.1007
15723TIP3    H268661   3.057   5.925  16.268 -1.8651  1.5588  0.3958
15724TIP3   OH268662   4.399   4.127   5.908  0.1181 -0.2734 -0.3152
15724TIP3    H168663   4.488   4.126   5.872  2.2633  0.8382  4.5232
15724TIP3    H268664   4.383   4.219   5.928 -1.4894 -0.6847  0.3162
15725TIP3   OH268665   1.553   5.309   5.930 -0.2615  0.0042 -0.8197
15725TIP3    H168666   1.462   5.282   5.921 -0.1560 -0.5285 -0.3088
15725TIP3    H268667   1.569   5.365   5.854 -0.7084 -0.7470 -1.4750
15726TIP3   OH268668   4.505   4.514  12.359  0.0962 -0.1904 -0.3618
15726TIP3    H168669   4.527   4.581  12.424  0.3180 -0.4612 -0.1555
15726TIP3    H268670   4.586   4.463  12.350  0.3113  0.3266 -1.4188
15727TIP3   OH268671   0.698   0.308  12.363  0.5354 -0.1794  0.4204
15727TIP3    H168672   0.744   0.342  12.286 -0.4719 -1.9510 -0.9993
15727TIP3    H268673   0.625   0.369  12.375 -0.2580 -0.8289 -1.0388
15728TIP3   OH268674   3.455   4.799   3.750 -0.3712  0.1552 -0.1818
15728TIP3    H168675   3.487   4.739   3.682 -0.1097  0.3705 -0.2465
15728TIP3    H268676   3.453   4.745   3.829  0.5212  0.2476 -0.0919
15729TIP3   OH268677   4.928   6.408   2.032  0.1865  0.5772  0.5062
15729TIP3    H168678   4.842   6.448   2.025 -0.5580 -1.0219  0.3644
15729TIP3    H268679   4.942   6.366   1.947  1.2579  1.1163  0.4019
15730TIP3   OH268680   5.452   0.547   0.580  0.0491 -0.2568  0.1773
15730TIP3    H168681   5.386   0.582   0.521 -1.8826 -1.2567  1.6583
15730TIP3    H268682   5.430   0.454   0.588  0.9478 -0.3704  1.5375
15731TIP3   OH268683   2.539   6.709  15.852  0.5244  0.4248  0.1589
15731TIP3    H168684   2.631   6.700  15.875  1.0727  0.3251 -1.9230
15731TIP3    H268685   2.494   6.726  15.935  2.3612  0.1105  1.2357
15732TIP3   OH268686   2.466   6.499  13.762 -0.1329 -0.1877  0.5740
15732TIP3    H168687   2.419   6.545  13.832  0.4373  1.3642 -0.0412
15732TIP3    H268688   2.548   6.547  13.753 -0.5687  0.1995 -1.7410
15733TIP3   OH268689   3.162   6.473  14.141 -0.1718 -0.8081 -0.1994
15733TIP3    H168690   3.069   6.463  14.165 -0.4241  0.3641 -0.6418
15733TIP3    H268691   3.196   6.535  14.205 -0.1057  0.0106 -1.0095
15734TIP3   OH268692   3.100   4.251  14.698 -0.3556 -0.3932 -0.0174
15734TIP3    H168693   3.103   4.204  14.782  1.0811 -1.3003 -0.5533
15734TIP3    H268694   3.015   4.228  14.661 -1.2244  0.4378  1.4247
15735TIP3   OH268695   1.661   4.703   1.845  0.1126 -0.0368 -0.1040
15735TIP3    H168696   1.752   4.697   1.872  0.3933  1.8839 -0.5966
15735TIP3    H268697   1.611   4.671   1.921  1.1954 -2.0995 -0.2120
15736TIP3   OH268698   5.380   0.710   5.591  0.4769 -0.3792  0.7501
15736TIP3    H168699   5.461   0.750   5.623 -0.4325  0.0746  2.5340
15736TIP3    H268700   5.375   0.737   5.500  1.9223  0.2782  0.8471
15737TIP3   OH268701   4.973   3.572   2.464  0.0410 -0.3547  0.1482
15737TIP3    H168702   5.057   3.564   2.418  0.8254 -1.3809  1.7015
15737TIP3    H268703   4.945   3.482   2.478  0.3149 -0.0990  2.5249
15738TIP3   OH268704   5.382   0.526   1.489  0.1566 -0.2040  0.2831
15738TIP3    H168705   5.392   0.432   1.478  3.4042  0.1469 -0.3668
15738TIP3    H268706   5.288   0.541   1.488 -0.3680 -3.2680 -1.0637
15739TIP3   OH268707   1.380   4.822   1.127 -0.4155 -0.5565 -0.3328
15739TIP3    H168708   1.431   4.859   1.200  0.4527 -0.8917 -0.7663
15739TIP3    H268709   1.419   4.736   1.111 -2.8167 -1.9760  1.0825
15740TIP3   OH268710   3.997   1.041   5.077 -0.1319 -0.1028  0.3253
15740TIP3    H168711   4.052   0.989   5.018 -1.6970 -2.3348  0.8001
15740TIP3    H268712   3.992   0.989   5.157  2.7944  3.3415  2.9103
15741TIP3   OH268713   4.317   4.311   2.005 -0.0008 -0.2041  0.0837
15741TIP3    H168714   4.307   4.380   2.070 -0.1385 -0.3825  0.2553
15741TIP3    H268715   4.395   4.335   1.956 -0.3581  0.3629 -0.2187
15742TIP3   OH268716   3.984   3.165   1.961 -0.3722  0.3218 -0.1575
15742TIP3    H168717   3.960   3.199   1.874 -2.4661  0.8374  0.5888
15742TIP3    H268718   3.901   3.135   1.998  0.3437  1.0485  2.0797
15743TIP3   OH268719   2.769   3.558  13.538 -0.2750 -0.0618  0.4371
15743TIP3    H168720   2.807   3.526  13.620 -1.0118  1.8149  1.5577
15743TIP3    H268721   2.677   3.531  13.543  0.3225 -2.5182 -1.1649
15744TIP3   OH268722   4.565   3.128  13.770  0.0799  0.4792  0.1340
15744TIP3    H168723   4.492   3.068  13.758 -0.7213  1.6109 -0.7952
15744TIP3    H268724   4.564   3.183  13.691  1.9717  0.4605  0.0715
15745TIP3   OH268725   2.172   5.702   0.539  0.7324 -0.2127  0.4423
15745TIP3    H168726   2.149   5.681   0.448 -1.0841 -0.8604  1.0337
15745TIP3    H268727   2.245   5.643   0.559  2.7412  1.6029 -1.3383
15746TIP3   OH268728   5.163   0.670   5.105  0.2150  0.1998 -0.2491
15746TIP3    H168729   5.082   0.620   5.116  0.7630 -1.1147 -2.0212
15746TIP3    H268730   5.230   0.604   5.087  1.1202  1.4997 -1.7561
15747TIP3   OH268731   4.563   4.182  11.158 -0.1629  0.0760 -0.1207
15747TIP3    H168732   4.564   4.164  11.064  2.2758 -1.7481  0.2010
15747TIP3    H268733   4.610   4.109  11.197 -1.0659  0.8592  2.5304
15748TIP3   OH268734   0.462   1.609  17.220  0.3040 -0.1883  0.1409
15748TIP3    H168735   0.519   1.532  17.216 -0.6018 -0.8449 -0.6437
15748TIP3    H268736   0.377   1.576  17.190 -0.1925  1.0274  0.2090
15749TIP3   OH268737   3.418   0.989   0.452 -0.3040  0.3864 -0.1389
15749TIP3    H168738   3.353   0.949   0.394 -0.4223 -0.9438  0.8930
15749TIP3    H268739   3.431   0.925   0.521  1.5902  0.9629  0.0582
15750TIP3   OH268740   5.944   5.280  12.785  0.1190  0.4326 -0.3644
15750TIP3    H168741   6.031   5.294  12.748 -0.2571  3.0409 -0.3554
15750TIP3    H268742   5.884   5.321  12.723 -0.8318  1.4246  1.1559
15751TIP3   OH268743   2.651   3.498  17.007 -0.1564  0.1683  0.0424
15751TIP3    H168744   2.582   3.484  16.942 -0.2780  0.7627  0.0436
15751TIP3    H268745   2.640   3.589  17.035 -0.8363 -0.4234  1.7506
15752TIP3   OH268746   6.050   5.838  10.983 -0.3809 -0.4787  0.2210
15752TIP3    H168747   6.056   5.749  10.947 -2.5085  0.2477 -2.0253
15752TIP3    H268748   6.128   5.883  10.949  0.2998 -1.2279  0.7512
15753TIP3   OH268749   4.939   0.556  12.120  0.3641  0.0155  0.1887
15753TIP3    H168750   4.951   0.623  12.187 -1.4695 -1.0958  1.6727
15753TIP3    H268751   5.006   0.490  12.140 -0.0719 -0.2349  0.8562
15754TIP3   OH268752   3.652   3.790   0.903 -0.0398 -0.0516 -0.1398
15754TIP3    H168753   3.618   3.817   0.818 -0.2543  1.0041  0.2749
15754TIP3    H268754   3.626   3.860   0.963  0.8335 -0.3736  0.6302
15755TIP3   OH268755   2.521   4.160   5.330  0.0787  0.2827 -0.6819
15755TIP3    H168756   2.586   4.144   5.399 -2.3149 -2.0433  1.1132
15755TIP3    H268757   2.539   4.094   5.264 -1.4652 -1.4323  0.5853
15756TIP3   OH268758   2.439   1.702  15.458 -0.2266 -0.0564 -0.1493
15756TIP3    H168759   2.494   1.752  15.519  1.4048 -2.5867  0.5433
15756TIP3    H268760   2.472   1.724  15.371  1.1175 -0.5901  0.2036
15757TIP3   OH268761   5.479   5.215  12.573  0.4056  0.1728 -0.5936
15757TIP3    H168762   5.445   5.127  12.585  1.4462 -0.2691 -0.9112
15757TIP3    H268763   5.407   5.262  12.529 -0.2663 -0.4143 -0.1365
15758TIP3   OH268764   3.493   4.628   1.438  0.2809  0.2148 -0.0988
15758TIP3    H168765   3.500   4.571   1.515  1.8552  1.8273  0.9868
15758TIP3    H268766   3.407   4.668   1.446 -0.8635 -1.9966 -0.8948
15759TIP3   OH268767   1.688   2.319  15.374  0.1670 -0.4791 -0.9650
15759TIP3    H168768   1.645   2.282  15.297  0.2226  1.4728 -1.9664
15759TIP3    H268769   1.770   2.271  15.381 -0.0340 -0.9697 -1.8765
15760TIP3   OH268770   4.582   1.487   2.555  0.1730  0.2464  0.3985
15760TIP3    H168771   4.573   1.421   2.487 -0.1464 -0.5822  1.2290
15760TIP3    H268772   4.676   1.507   2.557  0.2244  0.0513 -0.0759
15761TIP3   OH268773   5.359   3.555   3.106 -0.6537 -0.0004 -0.3620
15761TIP3    H168774   5.453   3.543   3.088 -0.6320  0.3417 -0.4796
15761TIP3    H268775   5.357   3.603   3.189 -0.6816  1.7084 -1.3203
15762TIP3   OH268776   5.147   0.960  12.519  0.1085 -0.5498  0.0083
15762TIP3    H168777   5.139   1.008  12.601  0.9562 -0.1941 -0.1161
15762TIP3    H268778   5.127   0.869  12.542  0.8326 -0.5354  0.7171
15763TIP3   OH268779   1.854   0.315  12.148 -0.1329  0.4720  0.2850
15763TIP3    H168780   1.878   0.250  12.082 -0.0129 -0.4722  1.2435
15763TIP3    H268781   1.786   0.367  12.107 -1.0603 -1.0046 -0.0879
15764TIP3   OH268782   6.723   0.311   4.923 -0.2509  0.0577 -0.1521
15764TIP3    H168783   6.798   0.328   4.865  0.7587 -1.0268  0.8350
15764TIP3    H268784   6.670   0.248   4.874 -0.4240  0.6642 -0.7606
15765TIP3   OH268785   2.564   3.406   3.436 -0.0599 -0.5687 -0.2708
15765TIP3    H168786   2.620   3.402   3.358  0.4502  1.9286 -0.0706
15765TIP3    H268787   2.576   3.321   3.479  0.3064 -1.6503 -2.4501
15766TIP3   OH268788   1.723   6.360   1.735 -0.1742  0.2701  0.5085
15766TIP3    H168789   1.700   6.315   1.654 -1.0726 -0.1161  0.9747
15766TIP3    H268790   1.716   6.453   1.713 -0.0129  0.1724  0.0307
15767TIP3   OH268791   1.834   6.446   1.400 -0.0032  0.2626 -0.3251
15767TIP3    H168792   1.847   6.432   1.306  2.1961  1.2641 -0.1985
15767TIP3    H268793   1.781   6.372   1.427  1.9411 -1.7666 -1.8050
15768TIP3   OH268794   1.203   1.987  13.443 -0.2856 -0.1990  0.0167
15768TIP3    H168795   1.227   1.895  13.433 -1.1571 -0.1144 -3.2178
15768TIP3    H268796   1.124   1.985  13.497 -0.8034 -1.4047 -0.7666
15769TIP3   OH268797   5.846   4.960  15.317  0.6069  0.7896 -0.3774
15769TIP3    H168798   5.859   5.005  15.233  1.8186  1.8002  0.3359
15769TIP3    H268799   5.934   4.949  15.352  0.2810 -1.5647 -0.2145
15770TIP3   OH268800   3.374   5.542   4.362  0.3369 -0.0385 -0.0412
15770TIP3    H168801   3.388   5.617   4.420  0.6853  1.0871 -1.5276
15770TIP3    H268802   3.438   5.555   4.292  0.7800 -2.0421 -0.0240
15771TIP3   OH268803   3.252   6.609   2.606 -0.6046  0.5309  0.1995
15771TIP3    H168804   3.168   6.591   2.565  0.2160  1.8661 -2.1671
15771TIP3    H268805   3.309   6.537   2.578 -0.8222 -0.1536  1.4659
15772TIP3   OH268806   3.945   5.560  13.916 -0.2339 -0.4413 -0.3658
15772TIP3    H168807   3.949   5.532  13.825  1.3133 -0.8803 -0.1750
15772TIP3    H268808   4.016   5.512  13.959  1.2822  2.3334  0.3544
15773TIP3   OH268809   6.808   6.308   1.171  0.1614  0.3639  0.3558
15773TIP3    H168810   6.810   6.384   1.229 -0.1058  0.7234 -0.0991
15773TIP3    H268811   6.872   6.328   1.103 -1.3553  1.1157 -0.8956
15774TIP3   OH268812   5.773   1.746   5.087  0.1086 -0.3956  0.5051
15774TIP3    H168813   5.787   1.668   5.034 -0.7914  0.2166 -0.6544
15774TIP3    H268814   5.705   1.795   5.040  0.0549  0.6650  1.6683
15775TIP3   OH268815   2.277   3.378  10.760  0.0225 -0.2373 -0.3049
15775TIP3    H168816   2.293   3.442  10.691  1.3511 -0.3553 -0.1143
15775TIP3    H268817   2.182   3.368  10.761 -0.4594  3.6834  1.4723
15776TIP3   OH268818   4.254   2.881  12.333  0.3458  0.2664 -0.0925
15776TIP3    H168819   4.324   2.915  12.388 -0.6365 -0.2866  1.5223
15776TIP3    H268820   4.299   2.827  12.267  1.5991  1.6774 -0.4166
15777TIP3   OH268821   0.809   3.204   3.830  0.4948  0.1536 -0.0326
15777TIP3    H168822   0.816   3.171   3.741  0.1678  1.1836 -0.4447
15777TIP3    H268823   0.872   3.152   3.880 -0.4525 -1.4948 -0.5425
15778TIP3   OH268824   3.508   1.095   3.451 -0.5700 -0.2440 -0.6173
15778TIP3    H168825   3.448   1.062   3.384 -0.2413 -0.9785 -0.5542
15778TIP3    H268826   3.465   1.074   3.534 -0.4771 -0.2869 -0.5803
15779TIP3   OH268827   0.137   5.904  14.902 -0.2177  0.0394  0.5114
15779TIP3    H168828   0.178   5.958  14.834  0.7786  0.5738  1.5245
15779TIP3    H268829   0.156   5.950  14.984  1.1941 -2.1885  1.4528
15780TIP3   OH268830   6.640   1.037   6.198 -0.2819 -0.1305  0.3180
15780TIP3    H168831   6.653   1.027   6.292 -0.1768 -0.2554  0.2899
15780TIP3    H268832   6.549   1.011   6.183  0.4284 -2.4990  0.0287
15781TIP3   OH268833   2.728   3.173  14.891 -0.0722  0.0922 -0.2231
15781TIP3    H168834   2.657   3.149  14.951 -0.8359  1.0094 -0.7338
15781TIP3    H268835   2.795   3.211  14.948 -1.9524  3.5446 -0.1838
15782TIP3   OH268836   2.823   1.669  16.681  0.8395  0.4076 -0.2913
15782TIP3    H168837   2.866   1.665  16.595  1.4830  1.0124 -0.0013
15782TIP3    H268838   2.875   1.610  16.736  0.1987 -0.2758 -0.4149
15783TIP3   OH268839   1.602   5.298   1.079 -0.5606 -0.5734 -0.2803
15783TIP3    H168840   1.679   5.354   1.075  0.1506 -1.6362 -2.2235
15783TIP3    H268841   1.633   5.212   1.049 -2.8964 -0.5460 -2.9977
15784TIP3   OH268842   5.350   6.578  14.901  1.1426 -0.7122 -0.0289
15784TIP3    H168843   5.317   6.623  14.979  0.2824 -1.0127 -0.2174
15784TIP3    H268844   5.371   6.649  14.840 -1.0811 -0.5627 -0.6759
15785TIP3   OH268845   3.602   0.077  13.596 -0.0785  0.3049  0.3212
15785TIP3    H168846   3.689   0.039  13.585  0.5108  1.4440  0.9206
15785TIP3    H268847   3.591   0.086  13.690 -1.7926 -1.9253  0.3606
15786TIP3   OH268848   0.305   0.310  15.537 -0.2216  0.4462 -0.4544
15786TIP3    H168849   0.229   0.367  15.551 -0.9545 -0.0661 -2.2090
15786TIP3    H268850   0.267   0.224  15.518  0.8016  0.1447 -1.1380
15787TIP3   OH268851   3.717   3.609  11.506 -0.4329  0.1730 -0.7684
15787TIP3    H168852   3.695   3.603  11.412  0.0177  0.2285 -0.8777
15787TIP3    H268853   3.634   3.592  11.550 -0.2429 -1.8245 -1.1522
15788TIP3   OH268854   2.791   2.183   1.236 -0.6259 -0.0014  0.5396
15788TIP3    H168855   2.775   2.233   1.316  1.2233  1.8630 -0.2155
15788TIP3    H268856   2.735   2.224   1.170 -0.1597  0.1733  0.2504
15789TIP3   OH268857   1.682   2.607  15.680  0.5047  0.0536 -0.2134
15789TIP3    H168858   1.615   2.660  15.636 -0.6759 -0.7636  0.5483
15789TIP3    H268859   1.635   2.563  15.751  2.2126  0.6986  1.3451
15790TIP3   OH268860   6.187   0.227   4.361  0.5287  0.0657 -0.1358
15790TIP3    H168861   6.135   0.251   4.284 -0.2575  1.5102  0.8368
15790TIP3    H268862   6.275   0.214   4.326 -0.0367 -0.3932 -1.4585
15791TIP3   OH268863   4.826   5.438  11.495 -0.5022  0.3454 -0.1929
15791TIP3    H168864   4.788   5.458  11.410 -2.0695  0.3318  0.4971
15791TIP3    H268865   4.820   5.343  11.502 -1.7830  0.4809  0.5846
15792TIP3   OH268866   0.403   2.590  15.018  0.2439 -0.0358 -0.4158
15792TIP3    H168867   0.372   2.578  14.928 -0.0207  0.8162 -0.4481
15792TIP3    H268868   0.343   2.655  15.055  1.9464  1.6251 -0.4734
15793TIP3   OH268869   3.295   1.079   5.616 -0.3224  0.2209  0.3292
15793TIP3    H168870   3.325   1.138   5.685 -0.4414  0.1198  0.4675
15793TIP3    H268871   3.306   0.991   5.653 -2.2597  0.2273  0.9801
15794TIP3   OH268872   5.393   3.233  10.854  0.8383 -0.2569 -0.2772
15794TIP3    H168873   5.305   3.269  10.865  1.0337  0.1407  0.0137
15794TIP3    H268874   5.451   3.304  10.882  1.2275 -0.7913  0.2692
15795TIP3   OH268875   1.561   1.591  11.196 -0.1223  0.1187  0.6799
15795TIP3    H168876   1.549   1.669  11.250 -1.0193  1.8722 -1.9731
15795TIP3    H268877   1.642   1.607  11.148  0.8210 -1.5589  1.6367
15796TIP3   OH268878   0.564   3.668  16.527 -0.4643 -0.3903  0.3496
15796TIP3    H168879   0.653   3.701  16.542  0.2221 -0.8206 -2.4082
15796TIP3    H268880   0.573   3.573  16.529 -0.9566 -0.4354  0.4979
15797TIP3   OH268881   0.997   4.498   1.665  0.4942 -0.0058  0.1648
15797TIP3    H168882   1.054   4.546   1.725  0.6632 -0.1503  0.1198
15797TIP3    H268883   1.057   4.459   1.601  0.4196 -0.8296  0.5892
15798TIP3   OH268884   6.514   3.038  14.784  0.4285  0.1735 -0.3355
15798TIP3    H168885   6.547   2.970  14.842  2.3211 -1.1018 -2.8259
15798TIP3    H268886   6.422   3.016  14.771  0.1441  0.1345  1.6566
15799TIP3   OH268887   5.433   5.487   3.166 -0.0686  0.1778  0.6379
15799TIP3    H168888   5.461   5.468   3.076 -0.2598 -0.2319  0.6619
15799TIP3    H268889   5.439   5.582   3.174 -0.0677  0.2150  0.1843
15800TIP3   OH268890   1.227   4.078   5.087  0.7059 -0.4089  0.1621
15800TIP3    H168891   1.316   4.103   5.062  0.5809  0.4591  0.5701
15800TIP3    H268892   1.236   3.990   5.123  1.3870 -0.3631  0.1068
15801TIP3   OH268893   0.924   6.525   4.598  0.5731 -0.0322 -0.2229
15801TIP3    H168894   0.910   6.603   4.653  1.3019 -1.2639  1.7340
15801TIP3    H268895   1.012   6.496   4.618  0.6511 -0.8523 -1.6487
15802TIP3   OH268896   3.919   1.376  13.484 -0.0226 -0.0226  1.0003
15802TIP3    H168897   4.011   1.401  13.483  0.1457 -0.6579  0.7952
15802TIP3    H268898   3.883   1.419  13.562  0.5940 -0.3099  1.4421
15803TIP3   OH268899   4.452   0.987  11.822  0.0050 -0.1353 -0.3777
15803TIP3    H168900   4.511   1.042  11.873 -0.8934 -1.4932  2.2083
15803TIP3    H268901   4.394   1.049  11.778 -1.3978  1.0571  2.9815
15804TIP3   OH268902   1.617   1.629  12.908 -0.5928  0.5028 -0.1142
15804TIP3    H168903   1.592   1.711  12.950  1.4734  0.7036  0.7889
15804TIP3    H268904   1.648   1.573  12.979  0.6084 -0.0430 -1.0373
15805TIP3   OH268905   6.687   3.883   5.875  0.1247  0.4807 -0.0611
15805TIP3    H168906   6.740   3.883   5.954 -0.5331 -0.4349  0.3951
15805TIP3    H268907   6.604   3.923   5.901  0.8289  2.5421 -0.9457
15806TIP3   OH268908   1.266   2.806   3.410 -0.7802 -0.6572  0.7636
15806TIP3    H168909   1.211   2.819   3.333  0.2792 -0.8231 -0.0482
15806TIP3    H268910   1.354   2.792   3.374 -0.3059 -0.9454  1.9983
15807TIP3   OH268911   4.463   4.581   3.130  0.2283 -0.3932 -0.0742
15807TIP3    H168912   4.522   4.616   3.198  0.3220  0.9486 -0.8378
15807TIP3    H268913   4.521   4.536   3.069  0.6394  1.8213 -1.3924
15808TIP3   OH268914   3.405   3.924   2.809  0.3864 -0.1173 -0.2414
15808TIP3    H168915   3.438   3.999   2.858 -3.4423  1.0079  0.7596
15808TIP3    H268916   3.407   3.953   2.717  3.5040 -0.6510 -0.3881
15809TIP3   OH268917   3.429   0.307  14.159 -0.8892  0.3974  0.3274
15809TIP3    H168918   3.349   0.255  14.160 -0.5787 -0.0838  1.0225
15809TIP3    H268919   3.458   0.306  14.068 -1.1203 -0.2994  0.2574
15810TIP3   OH268920   5.410   1.330   4.800  0.5894 -0.2239 -0.5635
15810TIP3    H168921   5.420   1.411   4.850 -1.7968 -0.0050 -0.3816
15810TIP3    H268922   5.406   1.261   4.866  0.5691 -0.2582 -0.6005
15811TIP3   OH268923   4.582   0.485  16.723 -0.3146 -0.0749  0.2585
15811TIP3    H168924   4.497   0.461  16.685 -0.4850 -2.6832  2.1673
15811TIP3    H268925   4.578   0.453  16.813  2.4346  0.4642  0.6211
15812TIP3   OH268926   4.225   2.323  17.196  0.4820  0.4230  1.0579
15812TIP3    H168927   4.170   2.383  17.147  1.6239  0.7770  0.1746
15812TIP3    H268928   4.221   2.355  17.286 -1.6377 -0.2366  1.2249
15813TIP3   OH268929   5.163   2.608  13.451  0.2687  0.2788  0.0767
15813TIP3    H168930   5.131   2.600  13.361 -0.2583  0.0467  0.2845
15813TIP3    H268931   5.133   2.529  13.495 -2.7097  2.0513  1.4407
15814TIP3   OH268932   3.279   5.134  16.929  0.1331  0.1634 -0.5289
15814TIP3    H168933   3.286   5.143  17.024 -0.9581  0.0114 -0.4280
15814TIP3    H268934   3.187   5.155  16.910  0.7708  1.9536 -1.7463
15815TIP3   OH268935   6.692   4.190   1.504 -0.3150  0.1592  0.2991
15815TIP3    H168936   6.706   4.281   1.530 -0.4945  0.6552 -1.3230
15815TIP3    H268937   6.780   4.152   1.503 -0.0595  0.7669 -0.6682
15816TIP3   OH268938   2.159   4.357   2.629  0.1418  0.0576 -0.6445
15816TIP3    H168939   2.113   4.413   2.691  0.4841 -1.9180  1.4391
15816TIP3    H268940   2.095   4.339   2.560 -2.1523 -2.3167  2.0060
15817TIP3   OH268941   3.229   1.209   0.451 -0.1886  0.2049 -0.4067
15817TIP3    H168942   3.251   1.297   0.421  0.2027  0.7892  1.5387
15817TIP3    H268943   3.309   1.158   0.437 -0.0283  0.4552 -0.4091
15818TIP3   OH268944   0.529   5.984  13.960  0.0476 -0.2702  0.2462
15818TIP3    H168945   0.533   6.062  14.014 -1.3482 -0.5942  0.8249
15818TIP3    H268946   0.608   5.989  13.906  0.4655  1.0337  0.9489
15819TIP3   OH268947   2.862   1.883  15.645 -0.9198 -0.0659  0.2670
15819TIP3    H168948   2.878   1.890  15.551 -1.3560  3.4677  0.4001
15819TIP3    H268949   2.767   1.885  15.654 -0.8810 -0.2981  0.7715
15820TIP3   OH268950   0.537   6.275  17.199  0.2102  0.7542 -0.0951
15820TIP3    H168951   0.513   6.326  17.276  0.5147  0.3936  0.2383
15820TIP3    H268952   0.600   6.331  17.152  0.8387  0.5244  0.4685
15821TIP3   OH268953   3.394   0.634  11.935  0.5334 -1.4303  0.2145
15821TIP3    H168954   3.453   0.655  12.007  0.8446 -0.8364 -0.2003
15821TIP3    H268955   3.437   0.671  11.858 -1.5121  1.1534  0.2400
15822TIP3   OH268956   3.508   5.129   2.246 -0.1599 -0.3738 -0.5713
15822TIP3    H168957   3.419   5.101   2.266 -0.0900  1.6371  3.0270
15822TIP3    H268958   3.503   5.225   2.241  1.8108 -0.2183 -0.1935
15823TIP3   OH268959   4.807   5.585   2.341  0.1972  0.2898  0.4071
15823TIP3    H168960   4.712   5.597   2.339  0.2738  1.0046  0.9552
15823TIP3    H268961   4.819   5.490   2.345 -0.4711  0.1520 -0.5465
15824TIP3   OH268962   3.312   2.019   4.748  0.2918 -1.3179  0.0270
15824TIP3    H168963   3.220   2.010   4.773  0.3048  1.0687  1.0369
15824TIP3    H268964   3.312   2.081   4.676  1.3408  1.1989  2.1080
15825TIP3   OH268965   5.799   3.442  11.729 -0.8457  0.2903  0.4622
15825TIP3    H168966   5.798   3.526  11.774  1.9226 -0.5668  2.2556
15825TIP3    H268967   5.829   3.462  11.641 -1.1673  1.3085  0.5830
15826TIP3   OH268968   6.655   3.969   4.980  0.0889 -0.7268  0.4253
15826TIP3    H168969   6.746   3.942   4.980 -0.0096 -1.0693  1.6688
15826TIP3    H268970   6.658   4.064   4.995  0.1992 -0.8931  1.4734
15827TIP3   OH268971   0.139   2.239   2.415  0.2391  0.4112 -0.5201
15827TIP3    H168972   0.113   2.211   2.327 -1.3705 -1.6197  0.5546
15827TIP3    H268973   0.065   2.290   2.447  0.1846 -0.1018  0.1921
15828TIP3   OH268974   3.132   1.134  13.698  0.0352  0.1490  0.1094
15828TIP3    H168975   3.206   1.075  13.688 -0.6201 -1.0541  2.0188
15828TIP3    H268976   3.074   1.113  13.624  0.3675 -0.7588  0.1024
15829TIP3   OH268977   2.338   2.437   3.193 -0.4393 -0.1517 -0.6319
15829TIP3    H168978   2.394   2.497   3.143  1.7144 -0.4951  1.2946
15829TIP3    H268979   2.323   2.481   3.276 -1.7266 -0.7788 -0.5204
15830TIP3   OH268980   4.121   3.325   2.441 -0.0310  0.3311  0.5579
15830TIP3    H168981   4.114   3.380   2.363  0.4741 -2.4062 -1.4999
15830TIP3    H268982   4.204   3.350   2.481  1.1848 -0.3157 -1.4936
15831TIP3   OH268983   2.435   5.559  17.129  0.1117  0.6453  0.1960
15831TIP3    H168984   2.471   5.561  17.218 -1.8102 -0.7187  1.0314
15831TIP3    H268985   2.509   5.582  17.073  1.8228 -0.3074  1.9998
15832TIP3   OH268986   0.067   3.994  12.287  0.3769 -0.1252 -1.0099
15832TIP3    H168987  -0.020   4.024  12.313  0.5391 -0.6509  0.2047
15832TIP3    H268988   0.053   3.906  12.250  0.3057  0.0714 -1.4467
15833TIP3   OH268989   0.781   3.213  14.021  0.8996 -0.2717  0.6229
15833TIP3    H168990   0.690   3.201  13.992  1.1054 -0.4856  0.0454
15833TIP3    H268991   0.774   3.259  14.104  0.3150  1.2256 -0.2294
15834TIP3   OH268992   0.177   4.369  16.231 -0.3274  0.5559  0.4272
15834TIP3    H168993   0.197   4.409  16.146 -0.1263 -1.6512 -0.5999
15834TIP3    H268994   0.228   4.420  16.294 -0.0951  1.9207 -0.8336
15835TIP3   OH268995   1.363   3.712  13.816 -0.5868  0.2604  0.1359
15835TIP3    H168996   1.391   3.803  13.802  0.5434 -0.2089 -0.8033
15835TIP3    H268997   1.411   3.662  13.750 -1.1289 -1.0363  0.7015
15836TIP3   OH268998   4.256   3.358  13.018  0.1204 -0.7220  0.2403
15836TIP3    H168999   4.178   3.358  12.962  0.5315  1.5443 -0.3913
15836TIP3    H269000   4.325   3.319  12.965 -0.0202 -0.5699 -0.0510
15837TIP3   OH269001   0.646   2.015  12.400 -0.0719  0.3512  0.0306
15837TIP3    H169002   0.643   1.978  12.488 -1.5399 -0.3760 -0.3210
15837TIP3    H269003   0.727   1.979  12.362  0.3625  0.3606  0.9330
15838TIP3   OH269004   1.985   6.354   4.316 -0.1736 -0.6203 -0.3837
15838TIP3    H169005   1.917   6.290   4.339 -1.3136  0.7475  0.1126
15838TIP3    H269006   1.940   6.416   4.258  0.4221  0.7967  0.6609
15839TIP3   OH269007   0.602   3.707  12.423 -0.0427 -0.1532  0.2859
15839TIP3    H169008   0.584   3.650  12.347  0.5179 -0.1879  0.1814
15839TIP3    H269009   0.531   3.771  12.421 -0.7382 -0.9056  0.4602
15840TIP3   OH269010   0.043   2.003  17.080 -0.1462 -0.0061  0.3251
15840TIP3    H169011   0.101   1.929  17.061 -0.1602  0.2120 -0.5765
15840TIP3    H269012  -0.014   1.972  17.150  0.3891 -0.5682  0.5158
15841TIP3   OH269013   2.057   1.267  12.944  0.3591  0.1423  0.3530
15841TIP3    H169014   2.024   1.279  12.855  0.1473  0.0742  0.4215
15841TIP3    H269015   2.142   1.312  12.944  0.2991  0.2571  0.1539
15842TIP3   OH269016   4.168   3.007  13.336 -0.2641  0.2534 -0.2903
15842TIP3    H169017   4.080   3.041  13.349 -0.9727 -0.8689 -1.9959
15842TIP3    H269018   4.159   2.912  13.348  0.7048  0.1281 -0.5150
15843TIP3   OH269019   2.826   4.422  16.522  0.1831  0.3886 -0.7211
15843TIP3    H169020   2.748   4.394  16.475  1.3747 -1.5508 -1.6428
15843TIP3    H269021   2.794   4.469  16.599 -1.8425  0.7410 -1.7644
15844TIP3   OH269022   1.143   5.386   1.539  0.0948  0.1813  0.5149
15844TIP3    H169023   1.166   5.299   1.572  0.0007  0.2335  0.7175
15844TIP3    H269024   1.220   5.413   1.488  0.4281  0.2934  1.0702
15845TIP3   OH269025   3.568   6.339   2.890 -0.1259  0.1565  0.2325
15845TIP3    H169026   3.549   6.246   2.887 -0.3948  0.2417 -0.9400
15845TIP3    H269027   3.484   6.380   2.909 -0.5761  0.3205 -1.9016
15846TIP3   OH269028   6.805   0.110  12.259 -0.5526  0.2612 -0.2299
15846TIP3    H169029   6.713   0.128  12.278 -0.3611  0.3862  0.5846
15846TIP3    H269030   6.808   0.016  12.241 -1.1588  0.5992 -2.1569
15847TIP3   OH269031   0.515   5.649  14.640  0.8991  0.3574 -0.2956
15847TIP3    H169032   0.421   5.660  14.659  0.7746  0.3583 -0.9063
15847TIP3    H269033   0.546   5.591  14.709  0.2681 -0.3226 -0.5765
15848TIP3   OH269034   2.942   6.605  16.615  0.1862 -0.0238  0.6443
15848TIP3    H169035   2.847   6.610  16.626 -0.3265 -0.5236 -2.9625
15848TIP3    H269036   2.963   6.677  16.555  2.1166  0.1664  1.5257
15849TIP3   OH269037   0.640   1.190  16.264  0.4627 -0.4657  0.1645
15849TIP3    H169038   0.649   1.285  16.265  1.6553 -0.5256 -1.5417
15849TIP3    H269039   0.548   1.174  16.245 -0.0817  0.3297  2.0601
15850TIP3   OH269040   6.507   0.142  16.615  0.1450 -0.3220 -0.2727
15850TIP3    H169041   6.437   0.197  16.578 -1.0990 -0.9672  1.0966
15850TIP3    H269042   6.584   0.165  16.563 -0.0259  3.6070  0.9817
15851TIP3   OH269043   3.888   4.668   0.923  0.9517  0.0127 -0.2151
15851TIP3    H169044   3.905   4.760   0.947 -0.1386  0.8250 -2.3932
15851TIP3    H269045   3.792   4.662   0.921  1.0238 -1.1666 -0.1796
15852TIP3   OH269046   3.340   1.850  16.988 -1.1647  0.5225  0.2867
15852TIP3    H169047   3.393   1.929  16.982 -1.0209  0.4197  0.2251
15852TIP3    H269048   3.402   1.779  17.004 -0.9257 -0.0883 -2.9293
15853TIP3   OH269049   6.819   5.721  15.070  0.2038 -0.3797 -0.2349
15853TIP3    H169050   6.855   5.782  15.006  1.4364  0.0999  0.8949
15853TIP3    H269051   6.742   5.765  15.105  1.2336  0.6604  0.7589
15854TIP3   OH269052   3.857   4.146  15.235  0.4676 -0.2717 -0.4062
15854TIP3    H169053   3.770   4.158  15.272  1.2453 -0.2968  1.5151
15854TIP3    H269054   3.882   4.233  15.204  0.7926  0.3191  1.4475
15855TIP3   OH269055   2.135   1.650   5.009 -0.2278  0.0181  0.4793
15855TIP3    H169056   2.079   1.715   5.052 -0.2280 -0.4335  1.1631
15855TIP3    H269057   2.148   1.582   5.075  0.3014 -0.3667 -0.0194
15856TIP3   OH269058   3.148   3.298   0.535 -0.3128 -0.2935 -0.2366
15856TIP3    H169059   3.125   3.221   0.482 -2.4639 -0.6725  1.2116
15856TIP3    H269060   3.064   3.333   0.565  0.7874  0.9448  1.4942
15857TIP3   OH269061   2.313   1.239   4.570  0.5224  0.0131  0.0712
15857TIP3    H169062   2.371   1.184   4.518  0.6823 -0.0481  0.3137
15857TIP3    H269063   2.251   1.276   4.507 -1.0832 -2.3281  0.2027
15858TIP3   OH269064   5.757   1.486   3.244 -0.6132  0.0779 -0.6050
15858TIP3    H169065   5.803   1.414   3.202 -0.4060 -0.0351 -0.1806
15858TIP3    H269066   5.786   1.484   3.335 -1.9747 -0.4081 -0.1829
15859TIP3   OH269067   5.425   4.429  12.376  0.7196 -0.8084 -0.6360
15859TIP3    H169068   5.384   4.434  12.290  1.0223 -2.0001 -0.8577
15859TIP3    H269069   5.507   4.381  12.361  0.7652 -1.0444  0.3222
15860TIP3   OH269070   3.438   2.211   0.166 -0.1298 -0.6896  0.2350
15860TIP3    H169071   3.409   2.276   0.102  0.2177 -1.2335 -0.4924
15860TIP3    H269072   3.490   2.260   0.229  0.4036 -0.3134 -0.4932
15861TIP3   OH269073   6.407   2.055   1.995 -0.0291 -0.1148 -0.2254
15861TIP3    H169074   6.435   1.966   1.973 -0.5451 -0.2517 -0.3384
15861TIP3    H269075   6.369   2.048   2.083  0.8497  0.1869  0.1830
15862TIP3   OH269076   5.193   2.902   4.253 -0.3535 -0.1118  0.6914
15862TIP3    H169077   5.167   2.822   4.206 -0.2447 -0.0504  0.5244
15862TIP3    H269078   5.119   2.920   4.311 -0.9160  0.3391 -0.1408
15863TIP3   OH269079   4.880   5.807  16.647 -0.0180  0.4413 -0.0642
15863TIP3    H169080   4.855   5.776  16.734 -0.3438  3.1050  0.8303
15863TIP3    H269081   4.957   5.862  16.662  0.5842  0.0455 -1.6122
15864TIP3   OH269082   4.454   4.617   4.485  0.4760 -0.5380 -0.6694
15864TIP3    H169083   4.392   4.626   4.413 -0.5283 -1.0086  0.1335
15864TIP3    H269084   4.443   4.697   4.536 -0.4536 -1.2257  0.2279
15865TIP3   OH269085   4.000   4.050   4.785 -0.0761  0.0989  0.6005
15865TIP3    H169086   3.980   3.957   4.795 -0.3927  0.0362 -0.5727
15865TIP3    H269087   4.082   4.053   4.736 -2.6475  0.4430 -3.9283
15866TIP3   OH269088   1.605   1.525   6.164 -0.4179 -0.1829  0.3234
15866TIP3    H169089   1.646   1.545   6.248 -0.7728  0.7504  0.2786
15866TIP3    H269090   1.515   1.500   6.187 -0.8314  1.0885  0.1500
15867TIP3   OH269091   2.640   5.186  13.039 -0.0903 -0.6890 -0.6106
15867TIP3    H169092   2.651   5.125  13.112  0.5068 -1.4234 -1.2995
15867TIP3    H269093   2.635   5.130  12.962  1.2701  0.1792 -1.3424
15868TIP3   OH269094   4.101   6.270   3.859  0.2221  0.1498 -0.2484
15868TIP3    H169095   4.082   6.241   3.948  1.4624 -0.0547 -0.0434
15868TIP3    H269096   4.066   6.359   3.855  0.1094  0.1383  0.4179
15869TIP3   OH269097   3.778   2.799  13.859 -0.5535 -0.4030 -0.1323
15869TIP3    H169098   3.703   2.750  13.894  0.1399 -0.8051  0.8001
15869TIP3    H269099   3.824   2.831  13.936 -0.0507  0.2996 -0.7123
15870TIP3   OH269100   3.615   2.696   3.412 -0.0925  0.5156  0.1275
15870TIP3    H169101   3.551   2.729   3.476 -1.0614 -0.9068 -0.0903
15870TIP3    H269102   3.569   2.697   3.329  1.0741  2.0696 -0.5268
15871TIP3   OH269103   3.088   5.815   0.909 -0.1268 -0.3108 -0.7214
15871TIP3    H169104   3.162   5.764   0.943 -0.1528 -0.3681 -0.7512
15871TIP3    H269105   3.104   5.822   0.815 -0.3912 -0.7061 -0.7976
15872TIP3   OH269106   3.574   3.618   6.219  0.0150 -0.0641  0.0432
15872TIP3    H169107   3.645   3.596   6.279  0.9142 -0.2958 -1.0790
15872TIP3    H269108   3.604   3.696   6.173  0.2002 -1.0093 -1.4825
15873TIP3   OH269109   6.227   6.434  11.244 -1.1042 -0.4624 -0.6461
15873TIP3    H169110   6.133   6.418  11.231 -1.3361  1.4611 -1.5145
15873TIP3    H269111   6.253   6.486  11.169  0.1550  0.9059  0.6995
15874TIP3   OH269112   0.313   4.520  16.415  0.1095  0.2947  0.8033
15874TIP3    H169113   0.391   4.557  16.375 -0.1326 -1.2148 -1.1328
15874TIP3    H269114   0.346   4.454  16.476  0.3330 -1.0269 -0.7307
15875TIP3   OH269115   1.343   3.073   3.969 -0.2946 -0.3713 -0.4075
15875TIP3    H169116   1.298   3.079   3.885 -1.1609  0.0569  0.0827
15875TIP3    H269117   1.365   3.163   3.991  1.1994 -0.6209 -0.8498
15876TIP3   OH269118   4.874   1.459   4.459  0.9160 -0.3994  0.1700
15876TIP3    H169119   4.904   1.438   4.371  0.1728  1.9496 -0.6845
15876TIP3    H269120   4.927   1.534   4.485 -1.0233  0.9399  0.4139
15877TIP3   OH269121   2.636   5.343   6.394  0.0265  0.0675  0.0617
15877TIP3    H169122   2.657   5.436   6.385 -1.2972  0.2372 -1.4645
15877TIP3    H269123   2.660   5.305   6.309 -1.3682 -0.6015 -0.0392
15878TIP3   OH269124   4.311   6.591  12.801 -0.1053  0.1749  0.2903
15878TIP3    H169125   4.374   6.608  12.871  0.6668  1.3579 -0.6762
15878TIP3    H269126   4.356   6.618  12.721 -1.0089 -1.0972 -0.6671
15879TIP3   OH269127   5.668   0.981   4.351 -0.4785 -0.6199 -0.1189
15879TIP3    H169128   5.718   0.980   4.433  0.1570 -0.3032 -0.4968
15879TIP3    H269129   5.619   0.899   4.352  0.7470 -1.3750 -0.1686
15880TIP3   OH269130   2.396   3.111   3.304 -0.7958  0.7724 -0.3066
15880TIP3    H169131   2.422   3.088   3.215  0.0243  0.0542  0.1068
15880TIP3    H269132   2.305   3.084   3.310 -0.3389 -0.8859 -0.3669
15881TIP3   OH269133   4.424   1.881  15.742  0.6293 -0.3191 -0.5215
15881TIP3    H169134   4.488   1.823  15.784  0.8050  0.5397  0.4007
15881TIP3    H269135   4.415   1.955  15.802 -0.1696  0.2507 -1.3294
15882TIP3   OH269136   3.280   4.383   3.741 -0.0966 -0.8242  0.0333
15882TIP3    H169137   3.280   4.290   3.762  0.3026 -0.9731 -0.6267
15882TIP3    H269138   3.300   4.427   3.824  2.7123 -1.4637 -0.2754
15883TIP3   OH269139   0.372   3.011   4.578 -0.2931  0.5344 -0.0038
15883TIP3    H169140   0.347   3.103   4.587 -1.2848  0.5465 -2.5189
15883TIP3    H269141   0.290   2.963   4.586 -0.1362  0.0636 -1.0909
15884TIP3   OH269142   4.256   5.883   6.060  0.1817  0.1771  0.0797
15884TIP3    H169143   4.324   5.861   5.996  4.1141 -2.7194  4.9421
15884TIP3    H269144   4.278   5.971   6.090  1.8478 -0.7705  1.6707
15885TIP3   OH269145   3.341   0.737  15.724 -0.0329 -0.3293 -0.0768
15885TIP3    H169146   3.417   0.770  15.772 -0.2145 -2.6150  1.9089
15885TIP3    H269147   3.374   0.720  15.635  1.0999  1.0790  0.0611
15886TIP3   OH269148   0.520   2.291   0.294 -0.1466 -0.1388  0.6419
15886TIP3    H169149   0.439   2.277   0.244 -0.9052 -1.6635  2.2405
15886TIP3    H269150   0.499   2.363   0.354  0.4036  0.9454 -0.4591
15887TIP3   OH269151   6.140   4.223  16.868  0.6687  0.1846  0.6703
15887TIP3    H169152   6.089   4.253  16.944  1.5635 -0.9109  1.7241
15887TIP3    H269153   6.158   4.303  16.818  0.5996  1.0137  1.9417
15888TIP3   OH269154   0.211   4.754   5.019 -0.0244 -0.0308  0.2523
15888TIP3    H169155   0.230   4.709   5.101 -1.0699  1.7550  1.5082
15888TIP3    H269156   0.285   4.814   5.007  0.0219 -0.1389 -0.0166
15889TIP3   OH269157   3.364   1.422   2.819 -0.4372 -0.3126  0.1564
15889TIP3    H169158   3.442   1.368   2.826  0.3770  0.9161  0.7663
15889TIP3    H269159   3.292   1.359   2.814  0.5031 -1.4438  0.5683
15890TIP3   OH269160   4.338   5.667   2.766 -0.1418  0.6134  0.2856
15890TIP3    H169161   4.289   5.643   2.845  0.0377  0.9000  0.4819
15890TIP3    H269162   4.320   5.760   2.752  1.5877  1.1187  1.2509
15891TIP3   OH269163   0.119   2.417   6.063 -0.3168  0.2064 -0.4002
15891TIP3    H169164   0.176   2.391   6.136  0.5264 -0.4157 -1.2720
15891TIP3    H269165   0.091   2.334   6.024 -3.2761  0.4296  1.0973
15892TIP3   OH269166   0.849   5.124   2.630  0.2215 -0.6866  0.1727
15892TIP3    H169167   0.939   5.150   2.609  0.1554  0.9104  1.8091
15892TIP3    H269168   0.838   5.040   2.585  1.9937 -0.1345 -1.3605
15893TIP3   OH269169   4.222   1.234   6.343  0.5432 -0.0782 -0.1638
15893TIP3    H169170   4.205   1.319   6.384  0.0264  0.4012 -1.3207
15893TIP3    H269171   4.167   1.173   6.391 -0.3540  0.5456 -0.3701
15894TIP3   OH269172   2.688   4.326  11.063 -0.4468  0.2380 -1.0676
15894TIP3    H169173   2.757   4.268  11.032  1.1517  1.7362 -0.4237
15894TIP3    H269174   2.735   4.401  11.101 -2.4313  1.5725 -1.1603
15895TIP3   OH269175   0.319   6.194  16.956 -0.4556 -0.2449 -0.1314
15895TIP3    H169176   0.285   6.284  16.953  0.8298  0.2117 -1.9588
15895TIP3    H269177   0.248   6.140  16.920 -1.1622  0.0623  0.7957
15896TIP3   OH269178   5.209   6.126  14.746 -1.1122 -0.3433  0.3218
15896TIP3    H169179   5.178   6.035  14.742  1.2308 -1.1025 -1.3733
15896TIP3    H269180   5.292   6.121  14.794 -1.1352  0.9779  0.5307
15897TIP3   OH269181   5.051   2.278  17.290  0.0772  0.3088  0.4879
15897TIP3    H169182   4.994   2.216  17.244 -0.4872  1.5652 -0.5553
15897TIP3    H269183   5.000   2.306  17.366 -0.1963  0.4880  0.2418
15898TIP3   OH269184   5.899   2.295   1.642  0.4998  0.2719 -0.0343
15898TIP3    H169185   5.915   2.255   1.556 -1.6625 -2.2070  0.6467
15898TIP3    H269186   5.978   2.275   1.693  1.7025  1.5756 -1.3347
15899TIP3   OH269187   2.120   3.252  14.343  0.0225  0.3538  0.0835
15899TIP3    H169188   2.123   3.231  14.436  1.8051 -1.6030 -0.4105
15899TIP3    H269189   2.198   3.306  14.327 -0.7986  1.5249 -0.1096
15900TIP3   OH269190   6.158   2.531  10.189 -0.0363 -0.6408 -0.3613
15900TIP3    H169191   6.110   2.585  10.252  0.0877 -2.3671  1.2457
15900TIP3    H269192   6.133   2.441  10.210  0.0284 -1.2787 -2.7786
15901TIP3   OH269193   4.620   1.295  17.193  0.0052  0.8450 -0.6352
15901TIP3    H169194   4.704   1.317  17.154 -0.4283  2.4413 -0.6728
15901TIP3    H269195   4.642   1.243  17.270  0.8773 -2.2007 -2.8457
15902TIP3   OH269196   5.130   1.724   0.447  0.5386 -0.1620  0.1885
15902TIP3    H169197   5.203   1.771   0.407 -0.4398  1.2651  0.0558
15902TIP3    H269198   5.073   1.703   0.373 -0.3980  0.9078  0.6059
15903TIP3   OH269199   2.276   1.730  14.576 -0.3156  0.2307 -0.1492
15903TIP3    H169200   2.191   1.695  14.601 -0.4391  1.5758  1.3914
15903TIP3    H269201   2.338   1.691  14.638 -0.3709  2.1889  1.1895
15904TIP3   OH269202   6.256   0.799  16.072 -0.0590 -0.4284  0.3665
15904TIP3    H169203   6.166   0.803  16.105 -0.2874  0.1809 -0.2949
15904TIP3    H269204   6.285   0.891  16.073  0.2048 -0.5041 -0.3625
15905TIP3   OH269205   0.062   1.125  13.728 -0.7574  0.0793 -0.5317
15905TIP3    H169206   0.048   1.031  13.719 -0.0090 -0.2604  1.5551
15905TIP3    H269207   0.118   1.133  13.806 -1.0474  2.2669 -0.5325
15906TIP3   OH269208   3.898   6.465   0.320  0.0070  0.3939  0.1752
15906TIP3    H169209   3.983   6.509   0.306  0.4359 -0.5173 -0.1254
15906TIP3    H269210   3.894   6.399   0.251 -1.0660  0.5880  0.0482
15907TIP3   OH269211   3.586   0.361   1.607  0.4314  0.3929 -0.0868
15907TIP3    H169212   3.598   0.383   1.515  2.5181 -0.7276 -0.1121
15907TIP3    H269213   3.573   0.446   1.651  1.4655  1.0928 -1.1189
15908TIP3   OH269214   3.006   6.173   6.512 -0.0117 -0.5395 -0.1405
15908TIP3    H169215   3.089   6.128   6.493 -0.0851 -1.3300  1.3284
15908TIP3    H269216   3.021   6.263   6.484  1.4342 -0.6247  0.2916
15909TIP3   OH269217   1.562   1.704   0.363  0.0365 -0.2211  0.0364
15909TIP3    H169218   1.480   1.690   0.411 -1.1995  1.9306 -1.4113
15909TIP3    H269219   1.594   1.615   0.344 -0.1637 -1.1242  3.5487
15910TIP3   OH269220   5.337   3.533  12.827  0.1955 -0.4058  0.2884
15910TIP3    H169221   5.250   3.499  12.805  0.3012 -2.2919  2.5521
15910TIP3    H269222   5.339   3.621  12.790 -2.8246 -0.1949  0.5414
15911TIP3   OH269223   1.639   1.017  13.205  0.0878 -0.2978  0.3181
15911TIP3    H169224   1.622   0.992  13.295 -0.1989  0.0760  0.3721
15911TIP3    H269225   1.592   0.951  13.153  0.0749 -0.3889  0.4460
15912TIP3   OH269226   0.683   0.705  12.690  0.2146 -0.6069 -0.2157
15912TIP3    H169227   0.605   0.692  12.745 -0.0713  0.9979 -0.2139
15912TIP3    H269228   0.740   0.760  12.743  0.3989  0.0540 -1.0828
15913TIP3   OH269229   5.709   0.124  13.693 -0.6391 -0.2501  0.0591
15913TIP3    H169230   5.739   0.130  13.603  0.3348 -0.9610  0.3291
15913TIP3    H269231   5.786   0.146  13.746 -1.2729  0.4402  0.7065
15914TIP3   OH269232   4.941   1.882  11.263 -0.2848 -0.2550  0.6154
15914TIP3    H169233   4.896   1.860  11.181 -0.1757  0.4901  0.3575
15914TIP3    H269234   4.996   1.957  11.241  1.5987 -1.5414  0.7527
15915TIP3   OH269235   5.958   2.779   4.026 -0.2164 -0.6150 -0.0403
15915TIP3    H169236   6.012   2.715   4.073 -2.7402 -0.9425  2.5284
15915TIP3    H269237   5.923   2.730   3.952  1.1192 -1.0286 -0.4283
15916TIP3   OH269238   4.677   2.388   5.136 -0.2015 -0.3548 -0.1455
15916TIP3    H169239   4.725   2.337   5.072  1.6751  0.0539  0.8875
15916TIP3    H269240   4.710   2.478   5.125  0.3996 -0.3397  1.5829
15917TIP3   OH269241   6.728   3.108  12.009 -0.7313 -0.0023  0.3001
15917TIP3    H169242   6.678   3.047  11.955 -1.1541 -0.0924  0.7825
15917TIP3    H269243   6.670   3.127  12.083  0.3966 -0.9978  1.4556
15918TIP3   OH269244   2.378   6.666   0.739 -0.1071 -0.2433  0.1668
15918TIP3    H169245   2.421   6.743   0.701  0.7364 -0.6217  0.3391
15918TIP3    H269246   2.332   6.700   0.816  0.3181  0.0811  0.2820
15919TIP3   OH269247   1.109   0.673   2.617 -0.2477  0.0587  0.6474
15919TIP3    H169248   1.129   0.596   2.563 -0.7587  0.7873 -0.6129
15919TIP3    H269249   1.018   0.660   2.644  0.6384 -1.3287  3.1085
15920TIP3   OH269250   0.326   6.583  12.602 -0.1411 -0.1330  0.1627
15920TIP3    H169251   0.370   6.661  12.570 -1.9966  0.2705 -1.4580
15920TIP3    H269252   0.298   6.605  12.690  1.5660  0.1182  0.6594
15921TIP3   OH269253   4.240   3.884  11.045  0.5083 -0.0712 -0.1758
15921TIP3    H169254   4.181   3.950  11.009 -1.7177 -0.7461  2.1256
15921TIP3    H269255   4.266   3.832  10.969 -1.1879  0.7765 -1.3781
15922TIP3   OH269256   4.008   3.445  12.208  0.3498  0.2139  0.2680
15922TIP3    H169257   4.000   3.521  12.265  0.6094  0.9135 -0.6109
15922TIP3    H269258   3.976   3.372  12.261 -1.4791  1.1820  0.5679
15923TIP3   OH269259   1.769   1.578  10.738 -0.3050 -0.0767 -0.7582
15923TIP3    H169260   1.707   1.532  10.682  0.4823 -1.5055 -0.4927
15923TIP3    H269261   1.817   1.636  10.679 -0.1795 -0.8203 -1.3956
15924TIP3   OH269262   2.926   0.439  12.975 -0.2745  0.4123 -0.4273
15924TIP3    H169263   2.836   0.449  12.942  0.7861  1.8955 -2.9939
15924TIP3    H269264   2.957   0.359  12.933  0.1752  0.8551 -0.9489
15925TIP3   OH269265   4.213   6.656  15.999  0.2373 -0.5655  0.2175
15925TIP3    H169266   4.180   6.615  16.079  0.2834  0.6842  0.8746
15925TIP3    H269267   4.308   6.654  16.008  0.2167  1.5430  1.2129
15926TIP3   OH269268   3.687   2.368   0.875  0.5913  0.1085  0.7917
15926TIP3    H169269   3.706   2.278   0.900 -0.1221 -0.1459  0.4464
15926TIP3    H269270   3.681   2.415   0.957 -1.1392 -0.5944  1.1003
15927TIP3   OH269271   0.629   3.406  16.517 -0.0081  0.1429  0.0701
15927TIP3    H169272   0.624   3.322  16.473 -2.4408  0.0688  0.4387
15927TIP3    H269273   0.650   3.385  16.608 -0.2458 -0.0265  0.0841
15928TIP3   OH269274   6.044   3.759  15.514  0.6363 -0.0474 -0.1689
15928TIP3    H169275   5.951   3.737  15.528  1.0196 -0.8576  1.1646
15928TIP3    H269276   6.042   3.835  15.456 -0.8821  0.3583  0.3967
15929TIP3   OH269277   0.970   3.009   2.647 -0.3188  0.2652 -0.5512
15929TIP3    H169278   0.912   2.968   2.584 -0.6232  1.5649 -1.1397
15929TIP3    H269279   0.926   2.998   2.731 -0.6117 -0.2068 -0.7673
15930TIP3   OH269280   6.573   1.905  10.821  0.1972  0.0417 -0.1203
15930TIP3    H169281   6.595   1.891  10.729  1.9273 -1.0753  0.4207
15930TIP3    H269282   6.548   1.819  10.853  0.5587  0.2328  0.6933
15931TIP3   OH269283   4.304   6.149   0.869 -0.4496  0.7238 -0.1268
15931TIP3    H169284   4.308   6.055   0.851 -1.1689  0.7445 -0.4139
15931TIP3    H269285   4.272   6.155   0.959  0.5802  0.6770  0.2491
15932TIP3   OH269286   1.207   3.913  12.323 -0.2889  0.3771 -0.6338
15932TIP3    H169287   1.138   3.857  12.286  1.0906 -2.2416  0.5995
15932TIP3    H269288   1.271   3.921  12.252  0.4621 -1.3138 -0.1635
15933TIP3   OH269289   2.550   4.250  14.944 -0.0383  0.3240  0.2661
15933TIP3    H169290   2.456   4.268  14.945 -0.3242 -1.0504 -0.3734
15933TIP3    H269291   2.563   4.186  15.014  0.4934  0.8037  0.6114
15934TIP3   OH269292   1.674   0.066   0.956 -0.0664  0.0798  0.0136
15934TIP3    H169293   1.585   0.102   0.949  0.1755  0.7741  0.3975
15934TIP3    H269294   1.670   0.008   1.032  0.2114  1.3829  1.0543
15935TIP3   OH269295   2.046   3.104  16.052  0.4237  0.4849 -0.0572
15935TIP3    H169296   2.017   3.174  15.992 -1.4814  0.4529  0.7991
15935TIP3    H269297   2.027   3.023  16.005 -1.3736  0.4506  0.6867
15936TIP3   OH269298   0.117   0.496  14.627  0.1681  0.6400  0.5246
15936TIP3    H169299   0.088   0.581  14.660  0.3774  0.7367  0.4568
15936TIP3    H269300   0.211   0.506  14.614  0.1440  0.4900  0.2395
15937TIP3   OH269301   3.758   3.477   0.338 -0.0700  0.3325  0.4306
15937TIP3    H169302   3.714   3.454   0.420 -2.4340  0.8116 -0.6685
15937TIP3    H269303   3.698   3.447   0.270  1.8226  0.0430 -1.1405
15938TIP3   OH269304   5.799   4.917   2.012 -0.0580  0.6776 -0.2297
15938TIP3    H169305   5.841   4.977   2.074 -1.5902 -0.6754  2.1949
15938TIP3    H269306   5.858   4.915   1.936  1.8723  2.3728  1.1912
15939TIP3   OH269307   0.533   2.962  14.533  0.0392  0.2110 -0.3433
15939TIP3    H169308   0.605   2.902  14.551 -0.2365 -0.1798 -0.5163
15939TIP3    H269309   0.551   2.996  14.445 -0.5030 -0.6650 -0.8149
15940TIP3   OH269310   0.411   1.801  15.673 -0.4509 -0.3120  0.3800
15940TIP3    H169311   0.482   1.812  15.609 -1.7782  1.1006 -0.9057
15940TIP3    H269312   0.352   1.738  15.632 -1.3957  0.7297  0.1316
15941TIP3   OH269313   0.027   2.796   3.556  0.0115 -0.2797  0.1355
15941TIP3    H169314   0.062   2.780   3.643 -1.6235 -0.0701  0.8482
15941TIP3    H269315   0.052   2.718   3.505 -0.0885 -0.9551  1.1116
15942TIP3   OH269316   2.451   3.121   4.311  0.1340 -0.2673  0.0938
15942TIP3    H169317   2.368   3.124   4.263  1.0267 -1.2190 -1.5849
15942TIP3    H269318   2.484   3.032   4.296  2.2487  0.6008 -0.6852
15943TIP3   OH269319   6.582   4.458   2.511 -0.5413 -0.1806  0.2849
15943TIP3    H169320   6.528   4.379   2.503  0.0916 -0.4914 -1.0103
15943TIP3    H269321   6.656   4.430   2.565  0.2059 -0.7644 -1.0189
15944TIP3   OH269322   5.074   4.410  10.091  0.4197 -0.4671 -0.7524
15944TIP3    H169323   5.143   4.346  10.076 -0.0690 -0.8686 -1.3007
15944TIP3    H269324   5.117   4.495  10.078  1.2253 -0.6508  0.6495
15945TIP3   OH269325   2.240   6.581   1.649 -0.0492  1.0495  0.2208
15945TIP3    H169326   2.169   6.600   1.589 -1.4098  1.0601  1.7982
15945TIP3    H269327   2.275   6.667   1.674 -1.8562  1.2498  2.2079
15946TIP3   OH269328   4.395   3.071  14.006 -0.1928 -0.0526 -0.2029
15946TIP3    H169329   4.354   3.049  13.922 -2.3976  0.3638  0.7233
15946TIP3    H269330   4.467   3.129  13.982  0.1007 -1.0822 -1.9195
15947TIP3   OH269331   5.252   2.658  12.815  0.8843  0.0800 -0.2479
15947TIP3    H169332   5.181   2.654  12.879  1.1203  0.8259  0.0707
15947TIP3    H269333   5.211   2.689  12.735  0.8812  0.6809 -0.0142
15948TIP3   OH269334   2.730   4.776  15.753  0.6008 -0.4612 -0.8742
15948TIP3    H169335   2.699   4.786  15.843 -1.6313  1.3543 -1.8104
15948TIP3    H269336   2.809   4.830  15.748  0.4991 -0.2457 -0.1145
15949TIP3   OH269337   0.970   3.930  16.146 -0.5032 -0.3941 -0.0610
15949TIP3    H169338   1.009   3.848  16.175  1.8818  0.9145  0.5441
15949TIP3    H269339   0.978   3.928  16.050  3.2533  0.8408  0.1471
15950TIP3   OH269340   1.373   4.104   0.287  0.7130 -0.0096 -0.1367
15950TIP3    H169341   1.329   4.186   0.264  0.5336 -0.4083 -1.2711
15950TIP3    H269342   1.464   4.130   0.305  0.3061  0.6469  1.0242
15951TIP3   OH269343   5.369   6.136   2.714  0.2716  0.9165  0.1042
15951TIP3    H169344   5.310   6.094   2.652  1.3879  0.7750 -0.8731
15951TIP3    H269345   5.335   6.225   2.723 -0.8044  0.4815  0.4983
15952TIP3   OH269346   4.976   6.779  15.843 -0.0388 -0.6084  0.1967
15952TIP3    H169347   4.975   6.790  15.748  0.2953 -2.5675 -0.0486
15952TIP3    H269348   5.063   6.811  15.870 -0.9742  2.1423  0.1675
15953TIP3   OH269349   4.671   4.342   1.389  0.0465 -0.6923  0.1639
15953TIP3    H169350   4.634   4.427   1.410 -0.2895  0.1241 -3.4101
15953TIP3    H269351   4.618   4.280   1.439 -1.9455  0.9490  0.1482
15954TIP3   OH269352   1.067   0.288   4.080 -0.4709 -0.0554  0.0141
15954TIP3    H169353   1.093   0.362   4.135 -1.8033 -0.2847  0.9957
15954TIP3    H269354   1.023   0.327   4.005 -0.9390  0.1767  0.4024
15955TIP3   OH269355   3.370   6.673   3.437 -0.0043 -0.5627 -0.0903
15955TIP3    H169356   3.296   6.623   3.403  0.0641  0.0878 -1.2070
15955TIP3    H269357   3.347   6.765   3.420  0.3305 -0.2598  1.0116
15956TIP3   OH269358   3.540   0.712  15.954 -0.6206  0.2966 -0.0935
15956TIP3    H169359   3.571   0.801  15.931  0.0029  0.3586  0.9547
15956TIP3    H269360   3.598   0.654  15.904 -0.6749  0.4672 -0.3579
15957TIP3   OH269361   4.825   2.448  13.342  0.4512  0.4593 -0.1588
15957TIP3    H169362   4.891   2.383  13.317 -1.0916 -1.1586 -0.1280
15957TIP3    H269363   4.858   2.485  13.425  3.7900  3.2959 -2.5821
15958TIP3   OH269364   4.986   2.892  14.732  0.2851 -0.5597  0.0582
15958TIP3    H169365   4.939   2.946  14.668  0.9041 -0.6148 -0.4569
15958TIP3    H269366   5.072   2.933  14.739  0.2576 -0.6190  0.7850
15959TIP3   OH269367   1.116   6.322  13.292 -0.3287  0.1825  0.3333
15959TIP3    H169368   1.037   6.271  13.274 -0.9405  0.4631  2.2037
15959TIP3    H269369   1.133   6.369  13.210 -0.9960 -1.3304 -0.6978
15960TIP3   OH269370   2.555   5.162   2.576  0.1273 -0.5609 -0.2831
15960TIP3    H169371   2.463   5.165   2.548 -0.3008 -0.8675  1.0574
15960TIP3    H269372   2.552   5.122   2.663  1.3057  1.3176  0.6585
15961TIP3   OH269373   2.180   3.424   5.484  0.0601  0.9831  0.2433
15961TIP3    H169374   2.147   3.486   5.549  0.3673 -0.1854  1.5545
15961TIP3    H269375   2.258   3.466   5.447  1.6035  0.4426  2.7511
15962TIP3   OH269376   0.645   3.551   1.248 -0.2060  0.0341  0.0781
15962TIP3    H169377   0.665   3.636   1.287 -0.4562  0.0232  0.2310
15962TIP3    H269378   0.621   3.495   1.322 -0.5692 -0.0190 -0.0776
15963TIP3   OH269379   2.853   4.932   1.452  0.4378  0.5783  0.3143
15963TIP3    H169380   2.876   4.935   1.359  1.0462 -0.2037  0.4382
15963TIP3    H269381   2.924   4.884   1.493  0.6223  1.7053  1.3310
15964TIP3   OH269382   6.726   3.591  13.148 -0.1615  0.3545 -0.0048
15964TIP3    H169383   6.781   3.512  13.151  1.0815  1.1899 -0.3089
15964TIP3    H269384   6.643   3.561  13.111 -0.3667 -1.1873  1.6055
15965TIP3   OH269385   6.631   2.122  11.490 -0.3197 -0.0034 -0.5350
15965TIP3    H169386   6.563   2.188  11.508  0.9885  0.7085  1.9875
15965TIP3    H269387   6.710   2.173  11.475  0.2377 -0.9230 -0.7485
15966TIP3   OH269388   0.734   2.723  16.186  0.4771  0.3287 -0.0675
15966TIP3    H169389   0.705   2.811  16.212 -1.3865  0.1509 -1.3892
15966TIP3    H269390   0.753   2.732  16.093 -1.4120 -1.0484 -0.6155
15967TIP3   OH269391   3.349   3.780  11.329  0.3172 -0.3640 -0.6098
15967TIP3    H169392   3.402   3.816  11.257  1.0913 -0.7831 -0.2567
15967TIP3    H269393   3.258   3.798  11.303  0.5953 -0.3559 -1.6060
15968TIP3   OH269394   1.241   0.302   6.804 -0.5433  0.1678 -0.1777
15968TIP3    H169395   1.201   0.308   6.890  0.3636  0.3961  0.2388
15968TIP3    H269396   1.255   0.209   6.790 -0.4528  0.1464  0.0455
15969TIP3   OH269397   1.604   3.221  12.143 -0.7759  0.0283 -0.4592
15969TIP3    H169398   1.542   3.208  12.071 -0.2952  1.8283 -1.2087
15969TIP3    H269399   1.609   3.316  12.154  1.1749 -0.1350  0.1846
15970TIP3   OH269400   1.637   6.338   4.640 -1.0569 -0.4972 -0.3927
15970TIP3    H169401   1.665   6.248   4.650 -1.8943 -0.8591 -1.1848
15970TIP3    H269402   1.623   6.348   4.545 -3.2143 -0.2204 -0.0549
15971TIP3   OH269403   5.134   4.178   3.891 -0.1540  0.3998  0.2113
15971TIP3    H169404   5.131   4.096   3.842  0.2810  1.4070 -1.5416
15971TIP3    H269405   5.205   4.165   3.954 -1.0614 -1.0966  0.9562
15972TIP3   OH269406   4.472   4.319  16.480  0.3085  0.0118  0.1268
15972TIP3    H169407   4.383   4.326  16.515  1.0572  2.0740  1.6972
15972TIP3    H269408   4.474   4.382  16.408  0.5128  0.0461  0.1642
15973TIP3   OH269409   3.639   1.653  12.738 -0.1475  0.1703  0.6255
15973TIP3    H169410   3.566   1.682  12.792 -0.6112 -0.9771  0.6115
15973TIP3    H269411   3.690   1.596  12.795 -0.8259 -1.3177 -0.2379
15974TIP3   OH269412   1.625   5.967  14.167  0.1368  0.0450  0.3054
15974TIP3    H169413   1.573   6.035  14.209 -0.9455 -0.3470 -0.3899
15974TIP3    H269414   1.662   6.010  14.090  0.3969  0.1642  0.4946
15975TIP3   OH269415   5.257   0.133  15.718  0.3602  0.6807  0.0003
15975TIP3    H169416   5.189   0.180  15.766 -0.5168  1.1424 -1.6805
15975TIP3    H269417   5.330   0.195  15.712  0.1912  0.8891  0.0941
15976TIP3   OH269418   2.293   6.794   3.500  0.1603  0.0309  0.1574
15976TIP3    H169419   2.286   6.879   3.456 -0.4595 -0.3329 -0.4514
15976TIP3    H269420   2.210   6.750   3.480 -0.1344 -0.1261  1.7118
15977TIP3   OH269421   1.566   5.612  15.890  0.1877 -0.2211  0.3206
15977TIP3    H169422   1.603   5.530  15.922  0.8117 -0.9944 -2.2488
15977TIP3    H269423   1.482   5.620  15.936  1.2023 -1.0795  2.3594
15978TIP3   OH269424   1.530   4.882   1.348 -0.0329  0.4046  0.0193
15978TIP3    H169425   1.616   4.896   1.387 -0.4305  0.3023  0.9421
15978TIP3    H269426   1.508   4.792   1.369 -0.8186  0.7494  0.6930
15979TIP3   OH269427   4.979   6.672  11.809 -0.6286 -0.8016  0.1922
15979TIP3    H169428   5.028   6.747  11.842 -0.3161 -1.1136  0.4477
15979TIP3    H269429   5.036   6.597  11.827 -0.4899 -0.9779 -0.9943
15980TIP3   OH269430   4.011   4.002   3.683 -0.2971 -0.3803  0.1844
15980TIP3    H169431   4.070   3.927   3.671  0.0391 -0.0813 -0.0418
15980TIP3    H269432   3.973   3.989   3.770 -2.1193 -2.1343 -0.8155
15981TIP3   OH269433   3.471   4.773  14.955 -0.4335 -0.6712  0.3646
15981TIP3    H169434   3.497   4.743  15.042  2.0972 -0.2064 -0.2133
15981TIP3    H269435   3.407   4.843  14.972  1.1712  0.4520  1.8884
15982TIP3   OH269436   4.267   0.451   4.858 -0.6730 -0.5734 -0.7039
15982TIP3    H169437   4.250   0.525   4.799 -1.2439  1.1097  1.5252
15982TIP3    H269438   4.340   0.481   4.912 -3.0407 -0.2656  2.4461
15983TIP3   OH269439   4.770   4.326  16.216 -0.6745  0.1055 -0.3291
15983TIP3    H169440   4.746   4.396  16.156 -0.7819 -0.8476 -1.4201
15983TIP3    H269441   4.858   4.300  16.189 -0.2139  0.5319  0.7457
15984TIP3   OH269442   0.171   0.924  12.527  0.4379  0.0886 -0.0386
15984TIP3    H169443   0.125   0.898  12.447  2.9285 -1.7441 -0.9172
15984TIP3    H269444   0.227   0.996  12.501 -0.2007  0.8001  0.5256
15985TIP3   OH269445   1.387   5.343   2.088 -0.4192 -0.0532  0.5191
15985TIP3    H169446   1.358   5.431   2.066 -3.1958 -0.7167  1.3164
15985TIP3    H269447   1.364   5.290   2.011 -0.0338 -0.3411  0.6006
15986TIP3   OH269448   2.263   4.062   4.564  0.2706  0.1934 -0.2459
15986TIP3    H169449   2.179   4.107   4.575  0.6348  0.5941  1.0124
15986TIP3    H269450   2.328   4.126   4.593  1.0668  0.0955 -1.7383
15987TIP3   OH269451   6.149   4.004  12.303 -0.6253 -0.3225  0.3324
15987TIP3    H169452   6.199   4.007  12.221  1.1992 -1.2403  1.3684
15987TIP3    H269453   6.208   3.960  12.365 -2.9312 -1.8932  1.4833
15988TIP3   OH269454   6.668   2.301   3.866  0.5390 -0.1868  0.0610
15988TIP3    H169455   6.693   2.393   3.860  1.4990 -0.4843 -0.5801
15988TIP3    H269456   6.729   2.256   3.808  0.9999 -1.3990  1.4659
15989TIP3   OH269457   5.591   3.558  12.934 -0.8341  0.3435  0.3865
15989TIP3    H169458   5.598   3.592  12.845 -0.7547  1.2353  0.7319
15989TIP3    H269459   5.504   3.518  12.936 -1.5297  1.8247  0.4144
15990TIP3   OH269460   5.060   3.712   2.118 -0.2259  0.8821  0.3684
15990TIP3    H169461   5.100   3.676   2.197  0.5601  1.7458  0.3829
15990TIP3    H269462   5.038   3.803   2.141  0.3003  1.2381 -0.4927
15991TIP3   OH269463   1.464   2.969  14.944  0.2687 -0.6149 -0.4086
15991TIP3    H169464   1.555   2.945  14.960 -0.2072 -1.7520  0.6597
15991TIP3    H269465   1.455   3.057  14.980  0.2234 -1.6213  2.1334
15992TIP3   OH269466   5.894   3.620  12.287 -0.0780 -0.2450  0.3297
15992TIP3    H169467   5.910   3.648  12.197  2.5635 -0.2427  0.7664
15992TIP3    H269468   5.804   3.647  12.304 -0.2104  0.8686 -1.8963
15993TIP3   OH269469   2.784   0.034   5.360 -0.3434 -0.0646  0.5458
15993TIP3    H169470   2.844   0.050   5.287  1.0802 -2.1533  1.2256
15993TIP3    H269471   2.703   0.077   5.333  0.9143  1.3578 -1.1441
15994TIP3   OH269472   6.140   0.358  17.076  0.5019 -0.0761 -0.2384
15994TIP3    H169473   6.138   0.432  17.135  0.0446 -1.6827  1.8231
15994TIP3    H269474   6.232   0.331  17.075  0.2307 -1.1185  1.1609
15995TIP3   OH269475   5.562   6.019   0.254 -0.2927 -0.2022 -0.3177
15995TIP3    H169476   5.534   5.932   0.224  2.0164 -0.4770 -1.8072
15995TIP3    H269477   5.548   6.076   0.179  1.0366  0.0797 -0.3638
15996TIP3   OH269478   2.477   6.477   2.997 -0.1754 -0.3939  0.0982
15996TIP3    H169479   2.570   6.483   2.979 -0.1556  2.1773  0.8852
15996TIP3    H269480   2.436   6.531   2.929 -1.0278 -0.9078  0.2019
15997TIP3   OH269481   0.001   6.744  13.162  0.2961 -0.2177  0.1778
15997TIP3    H169482  -0.046   6.697  13.093 -0.4785  0.2406  0.3851
15997TIP3    H269483  -0.032   6.705  13.243  0.3887  0.0005  0.3195
15998TIP3   OH269484   6.279   2.657  16.514 -0.2284  0.5160 -0.3662
15998TIP3    H169485   6.268   2.614  16.599 -0.1504  0.9334 -0.1419
15998TIP3    H269486   6.198   2.706  16.502 -0.5223 -0.0774 -0.8501
15999TIP3   OH269487   0.427   5.665   6.555  0.4982 -0.0737 -0.1892
15999TIP3    H169488   0.385   5.682   6.640 -0.6174 -3.0419 -0.0837
15999TIP3    H269489   0.424   5.749   6.510  0.4466  1.3834  2.4234
16000TIP3   OH269490   4.681   6.591  13.306 -0.1578 -0.4872 -0.3412
16000TIP3    H169491   4.607   6.642  13.340 -0.5513 -0.8152 -0.7100
16000TIP3    H269492   4.681   6.512  13.360  0.0152 -0.4214 -0.2449
16001TIP3   OH269493   6.157   0.564   6.603 -0.6690 -0.4058  0.3841
16001TIP3    H169494   6.209   0.554   6.683 -0.5460  1.6906  0.5848
16001TIP3    H269495   6.160   0.478   6.562  1.5649 -0.7719  1.2447
16002TIP3   OH269496   6.119   4.519   3.497 -0.1328 -0.1312 -0.5061
16002TIP3    H169497   6.043   4.526   3.440  1.4210  0.9448 -2.5187
16002TIP3    H269498   6.109   4.591   3.559 -1.7032 -1.1620  0.4845
16003TIP3   OH269499   5.529   4.487  16.865  0.1811 -0.1863  0.9475
16003TIP3    H169500   5.556   4.543  16.937 -0.3641  1.0318  0.2188
16003TIP3    H269501   5.605   4.481  16.808  0.1324  0.0899  0.8543
16004TIP3   OH269502   2.508   5.887   1.428  0.4452 -0.0162 -0.3469
16004TIP3    H169503   2.590   5.888   1.478 -1.1564  0.1139  2.3798
16004TIP3    H269504   2.442   5.858   1.491 -1.3011 -2.0750 -2.9998
16005TIP3   OH269505   2.879   3.635  17.287  0.4537  0.2868  0.5826
16005TIP3    H169506   2.875   3.684  17.369 -0.4921  1.5333 -0.2075
16005TIP3    H269507   2.789   3.603  17.274  0.5995  0.1104  0.0038
16006TIP3   OH269508   4.794   3.101  11.916 -0.3737  0.1148 -0.4285
16006TIP3    H169509   4.768   3.192  11.913  2.4118  0.9390 -1.4363
16006TIP3    H269510   4.748   3.060  11.843 -0.4329  1.0680 -0.9305
16007TIP3   OH269511   5.737   6.096  11.383 -0.0990 -0.3995 -0.4144
16007TIP3    H169512   5.715   6.189  11.388 -0.7790 -0.5824 -0.0806
16007TIP3    H269513   5.761   6.082  11.291  0.6500  0.2486 -0.3190
16008TIP3   OH269514   3.832   2.679  12.367 -0.2474 -0.0927  0.4194
16008TIP3    H169515   3.803   2.656  12.279  0.6248 -1.9626  0.6225
16008TIP3    H269516   3.770   2.747  12.394 -1.3305 -0.4262 -1.1243
16009TIP3   OH269517   2.099   2.596   6.135  0.4664 -0.3658 -0.1614
16009TIP3    H169518   2.039   2.640   6.194 -0.4762  2.3673 -3.0298
16009TIP3    H269519   2.186   2.623   6.165 -0.0672  2.8259 -1.3146
16010TIP3   OH269520   1.002   3.512  13.989  0.1726  0.2703  0.4491
16010TIP3    H169521   0.990   3.521  14.083 -1.2574  0.3127  0.2705
16010TIP3    H269522   0.979   3.422  13.970 -2.1970  0.9857 -0.2354
16011TIP3   OH269523   5.454   6.603  16.686 -0.3702  0.3206  0.2776
16011TIP3    H169524   5.520   6.572  16.748  0.2801  1.1194 -0.0047
16011TIP3    H269525   5.504   6.644  16.616 -1.1611  0.7100 -0.0692
16012TIP3   OH269526   5.456   4.549  16.510 -0.7843 -0.1612 -0.5677
16012TIP3    H169527   5.480   4.622  16.566  2.8838 -0.8312 -1.1552
16012TIP3    H269528   5.452   4.586  16.422 -2.0890 -0.0360 -0.4627
16013TIP3   OH269529   5.447   4.064   0.768 -0.6790 -0.4205  0.1513
16013TIP3    H169530   5.408   4.139   0.722 -0.0087 -0.1411  0.0293
16013TIP3    H269531   5.464   4.097   0.856  1.1861  0.1209 -0.3778
16014TIP3   OH269532   3.748   3.544  13.084 -0.6272 -0.3778 -0.1495
16014TIP3    H169533   3.705   3.567  13.002  0.2825 -2.8897 -1.4036
16014TIP3    H269534   3.692   3.476  13.122 -0.2341 -0.3209  0.5555
16015TIP3   OH269535   1.208   5.079  13.335  0.0308 -0.2006 -0.4324
16015TIP3    H169536   1.298   5.110  13.341  0.7295 -2.0491 -0.9240
16015TIP3    H269537   1.155   5.152  13.367  1.7881  0.3388  1.3422
16016TIP3   OH269538   0.986   4.904   6.085  0.2104  0.3480 -0.2084
16016TIP3    H169539   0.943   4.896   6.170  0.5349  2.3839  0.1817
16016TIP3    H269540   0.980   4.817   6.046 -0.1412 -0.5497  1.8084
16017TIP3   OH269541   6.495   0.190   3.267 -0.0101  0.3680  0.3656
16017TIP3    H169542   6.405   0.184   3.237  0.4906  0.9092 -1.2799
16017TIP3    H269543   6.544   0.131   3.209  0.8110  0.6545  0.7551
16018TIP3   OH269544   3.890   3.838  13.756  0.0022 -0.0778 -0.4398
16018TIP3    H169545   3.864   3.846  13.848  0.4374  1.7625 -0.4554
16018TIP3    H269546   3.970   3.786  13.758  1.0347  1.5115  0.4125
16019TIP3   OH269547   2.888   5.499   1.022  0.3825  0.1704 -0.5061
16019TIP3    H169548   2.972   5.463   1.052 -0.1239 -0.2971  0.4011
16019TIP3    H269549   2.872   5.574   1.079  0.0899  0.1243 -0.5221
16020TIP3   OH269550   0.328   3.927  15.211  0.1350  0.5737 -0.3827
16020TIP3    H169551   0.279   3.993  15.161  1.8329  1.5529 -0.7714
16020TIP3    H269552   0.312   3.845  15.164  0.3089  1.1936 -1.5303
16021TIP3   OH269553   1.403   3.163  17.145  0.1389  0.2067 -0.4515
16021TIP3    H169554   1.415   3.140  17.237 -1.6100 -1.8728 -0.7045
16021TIP3    H269555   1.461   3.105  17.097 -1.2662 -0.9120 -0.8343
16022TIP3   OH269556   1.817   4.910   2.466 -1.0003  0.0272  0.9916
16022TIP3    H169557   1.829   4.938   2.556  0.9213 -0.5794  0.9423
16022TIP3    H269558   1.823   4.990   2.414  0.3465  0.0783  1.2083
16023TIP3   OH269559   5.333   3.131   4.072 -0.3516 -0.4914  0.6100
16023TIP3    H169560   5.260   3.084   4.113 -1.4580 -0.2755 -1.0885
16023TIP3    H269561   5.411   3.083   4.101 -1.1959 -1.1248  1.8944
16024TIP3   OH269562   5.436   5.177  13.984 -0.9193 -0.0651 -0.4072
16024TIP3    H169563   5.363   5.117  13.965  0.5405 -2.0782  0.1531
16024TIP3    H269564   5.464   5.154  14.073  1.1173 -0.1008 -1.0244
16025TIP3   OH269565   0.614   3.914   4.913 -0.5344 -0.1892 -0.4804
16025TIP3    H169566   0.582   4.002   4.897  0.4963  0.1291 -0.8451
16025TIP3    H269567   0.555   3.878   4.979 -1.8960  0.2107 -1.4585
16026TIP3   OH269568   1.345   6.002   0.758 -0.2676  0.4997  0.0769
16026TIP3    H169569   1.423   6.037   0.716  1.6016 -1.6491  1.6186
16026TIP3    H269570   1.306   6.077   0.804 -0.1132  1.9650 -2.1275
16027TIP3   OH269571   2.850   3.743   3.373 -0.2161  0.4065 -0.1123
16027TIP3    H169572   2.770   3.755   3.321  0.1432  1.2265 -0.4925
16027TIP3    H269573   2.874   3.831   3.400 -0.6903 -0.0662  1.9176
16028TIP3   OH269574   0.139   4.686  12.838  0.1218  0.0036 -0.0247
16028TIP3    H169575   0.099   4.768  12.870 -0.8503  0.1928 -1.6355
16028TIP3    H269576   0.065   4.637  12.802  0.7785 -1.4058  0.5378
16029TIP3   OH269577   2.585   2.568   1.836  0.1928  0.0522 -0.2263
16029TIP3    H169578   2.582   2.545   1.929 -3.1640  0.3926 -0.1880
16029TIP3    H269579   2.569   2.662   1.834 -1.9828 -0.3192 -1.2493
16030TIP3   OH269580   6.180   1.109   2.329  0.2363  0.0444 -0.2681
16030TIP3    H169581   6.141   1.063   2.254 -0.0062  1.0449 -0.7670
16030TIP3    H269582   6.105   1.128   2.386  0.7444 -3.0787  1.5604
16031TIP3   OH269583   3.388   6.199  12.631 -0.2895 -0.0952 -0.0485
16031TIP3    H169584   3.307   6.160  12.600 -0.8360 -0.2822  1.5533
16031TIP3    H269585   3.446   6.125  12.649 -0.0009  0.0079 -0.5397
16032TIP3   OH269586   5.284   5.602  15.410  0.6467 -0.3373  0.0275
16032TIP3    H169587   5.306   5.566  15.496 -0.8409  0.0534  0.5888
16032TIP3    H269588   5.310   5.694  15.415 -0.1408 -0.1290  0.3279
16033TIP3   OH269589   6.139   2.310  15.778 -0.5329  0.1869  0.4264
16033TIP3    H169590   6.156   2.253  15.853 -2.0480  1.7297  1.9887
16033TIP3    H269591   6.223   2.314  15.732 -0.1873 -2.6581  0.6926
16034TIP3   OH269592   5.245   4.799  15.697  0.3187  0.1650  0.1753
16034TIP3    H169593   5.337   4.793  15.722  0.0040  1.0020  1.5735
16034TIP3    H269594   5.228   4.893  15.691 -0.8363  0.0470  1.4503
16035TIP3   OH269595   1.771   6.211   4.024 -0.3533 -0.2278 -0.4119
16035TIP3    H169596   1.685   6.173   4.044  0.0030  0.0338  1.7055
16035TIP3    H269597   1.828   6.136   4.011 -0.2712 -0.4431  1.0635
16036TIP3   OH269598   3.626   2.741   5.879 -0.2960  0.0797 -0.2098
16036TIP3    H169599   3.564   2.772   5.945  1.1846  0.9920  0.7815
16036TIP3    H269600   3.598   2.651   5.860 -1.0375 -0.0319  1.3061
16037TIP3   OH269601   5.669   1.363  12.636 -0.4705 -0.4465 -0.1432
16037TIP3    H169602   5.726   1.432  12.671 -0.2997  0.2880 -1.7990
16037TIP3    H269603   5.700   1.283  12.677  0.9216  0.1333 -0.0260
16038TIP3   OH269604   2.874   4.680   1.194 -0.1654 -0.3170  0.7007
16038TIP3    H169605   2.823   4.759   1.175 -1.4319 -1.0053  1.2241
16038TIP3    H269606   2.937   4.708   1.261 -1.1060  0.0679  1.4310
16039TIP3   OH269607   1.464   3.995   3.777 -0.0577 -0.1384  0.1160
16039TIP3    H169608   1.541   3.975   3.725  0.6749  0.3967  0.9758
16039TIP3    H269609   1.391   3.991   3.715  0.6155 -0.9758 -0.6354
16040TIP3   OH269610   2.311   3.257   0.360 -0.7312  0.5082  0.2565
16040TIP3    H169611   2.393   3.299   0.386 -0.6053 -0.5826  1.6958
16040TIP3    H269612   2.338   3.185   0.303 -0.8251  1.2639 -0.7552
16041TIP3   OH269613   3.049   5.181  15.331  0.4333  0.2395  0.4202
16041TIP3    H169614   3.035   5.257  15.274  0.7440 -0.3118 -0.3982
16041TIP3    H269615   2.998   5.200  15.409  1.0970  1.6361  0.5253
16042TIP3   OH269616   5.991   0.731   3.748 -0.2552  0.4050 -0.4515
16042TIP3    H169617   5.906   0.754   3.786 -0.8683  0.9654 -2.1367
16042TIP3    H269618   5.982   0.639   3.724  0.5283 -0.2914  1.7586
16043TIP3   OH269619   6.559   4.701  16.837  0.5323 -0.3516 -0.0970
16043TIP3    H169620   6.574   4.610  16.811 -1.3239 -1.6371  3.0113
16043TIP3    H269621   6.607   4.711  16.920  0.9653  1.5979 -0.5603
16044TIP3   OH269622   5.381   1.018  14.958 -0.1054 -0.2146 -0.2240
16044TIP3    H169623   5.301   0.982  14.919 -0.6867  0.3098  0.4675
16044TIP3    H269624   5.390   1.105  14.919  1.1283 -0.9483 -1.6537
16045TIP3   OH269625   2.245   1.419  11.928 -0.5387  0.1804  0.3742
16045TIP3    H169626   2.266   1.326  11.930 -1.3069 -0.1177 -2.5048
16045TIP3    H269627   2.323   1.461  11.892 -1.0756  0.3260 -0.6480
16046TIP3   OH269628   1.569   3.522   2.205  0.1166 -0.6383  0.3873
16046TIP3    H169629   1.650   3.477   2.229  1.2798  0.9942 -0.4450
16046TIP3    H269630   1.567   3.600   2.262  0.8478  1.1160 -1.9427
16047TIP3   OH269631   3.169   4.549   0.541 -0.1382  0.2247 -0.7944
16047TIP3    H169632   3.161   4.637   0.506 -0.5129 -0.4961 -2.6001
16047TIP3    H269633   3.150   4.558   0.634 -1.1146  1.8944 -1.1338
16048TIP3   OH269634   4.635   2.914   0.669 -0.1224  0.4035  0.6307
16048TIP3    H169635   4.601   2.894   0.756 -0.5477  1.3249  0.6872
16048TIP3    H269636   4.646   3.010   0.669 -0.3843  0.4393 -0.4069
16049TIP3   OH269637   0.704   3.146  12.585 -0.2677  0.3252  0.1878
16049TIP3    H169638   0.775   3.082  12.576  0.1385  0.8842 -0.5921
16049TIP3    H269639   0.741   3.215  12.640 -1.0914 -0.6623  2.0153
16050TIP3   OH269640   6.813   0.457   1.512  0.2784 -0.3704  0.1071
16050TIP3    H169641   6.742   0.519   1.525 -0.0373 -0.6626 -0.1994
16050TIP3    H269642   6.814   0.440   1.418 -0.1940 -1.4782  0.2933
16051TIP3   OH269643   0.247   5.421   5.437 -0.1599 -0.1484 -0.0732
16051TIP3    H169644   0.242   5.338   5.483  2.9146  0.3807  1.3863
16051TIP3    H269645   0.246   5.487   5.506 -2.2468  1.0373 -1.1953
16052TIP3   OH269646   5.520   2.789   4.127 -0.0822 -0.1634 -0.2522
16052TIP3    H169647   5.461   2.804   4.054 -0.5153  0.4510  0.2163
16052TIP3    H269648   5.475   2.725   4.183  0.1601 -0.4813 -0.4147
16053TIP3   OH269649   3.165   0.696  13.920 -0.2220 -0.0520 -0.2264
16053TIP3    H169650   3.245   0.660  13.883 -1.3493 -0.6623 -2.1542
16053TIP3    H269651   3.181   0.791  13.924 -0.4887  0.1944 -3.4806
16054TIP3   OH269652   6.679   0.843  13.441 -0.2033  0.6247  0.4872
16054TIP3    H169653   6.759   0.816  13.487 -0.7090  0.7132  1.4314
16054TIP3    H269654   6.669   0.778  13.371 -0.3369 -0.5295  1.5481
16055TIP3   OH269655   4.283   4.735   2.982 -0.6240 -0.4051  0.0230
16055TIP3    H169656   4.332   4.682   3.044 -1.6107 -2.9267 -1.2790
16055TIP3    H269657   4.229   4.672   2.934 -2.6387  1.9196 -0.8396
16056TIP3   OH269658   0.153   4.257   1.300 -0.0471 -0.5629  0.3287
16056TIP3    H169659   0.243   4.280   1.279 -0.1617  0.5485  1.0140
16056TIP3    H269660   0.109   4.253   1.215 -0.0468  1.9098  0.1874
16057TIP3   OH269661   3.832   3.257   4.418  0.1683 -0.5462 -0.5996
16057TIP3    H169662   3.876   3.180   4.454  2.2720  0.6706 -0.4979
16057TIP3    H269663   3.860   3.329   4.474 -1.1245  0.4208 -1.1882
16058TIP3   OH269664   5.328   0.766  17.208  0.3749  0.1245 -0.3143
16058TIP3    H169665   5.297   0.686  17.251  1.8853 -0.5045 -0.3701
16058TIP3    H269666   5.421   0.750  17.192  0.2316  1.0854 -2.1934
16059TIP3   OH269667   1.634   1.213   2.713  0.0015  0.4162  0.4136
16059TIP3    H169668   1.720   1.184   2.744 -1.6085 -1.1459  3.6676
16059TIP3    H269669   1.613   1.154   2.640  2.2475  1.7405 -1.3890
16060TIP3   OH269670   1.889   0.075   4.134 -0.3592 -0.1058 -0.3489
16060TIP3    H169671   1.935   0.150   4.096  0.1579 -1.3174 -2.1860
16060TIP3    H269672   1.959   0.011   4.153 -0.8785 -0.4417  0.4772
16061TIP3   OH269673   1.458   5.701  10.836  0.3232  0.1574  0.0634
16061TIP3    H169674   1.507   5.635  10.786  0.1659 -0.8860  1.2607
16061TIP3    H269675   1.368   5.694  10.803  0.2936 -0.2741  0.2337
16062TIP3   OH269676   1.464   6.169   5.332  0.2434  0.1251 -0.4322
16062TIP3    H169677   1.398   6.186   5.398  0.1577  0.2626 -0.5531
16062TIP3    H269678   1.414   6.137   5.256  0.5741 -2.7475  0.5140
16063TIP3   OH269679   3.273   4.334  11.738 -0.1938 -0.8105 -0.2330
16063TIP3    H169680   3.211   4.292  11.798 -0.4189 -0.0338  0.0746
16063TIP3    H269681   3.275   4.425  11.765  0.9229 -0.7869 -0.3847
16064TIP3   OH269682   2.566   6.591   0.071  0.4746 -0.4335  0.2288
16064TIP3    H169683   2.623   6.597  -0.005  1.1896  0.2568  0.8212
16064TIP3    H269684   2.510   6.668   0.065  1.4022  0.3207  1.1024
16065TIP3   OH269685   6.009   5.852  11.346 -0.4432  0.1502  0.4410
16065TIP3    H169686   5.991   5.916  11.277  0.1312 -0.4528 -0.2848
16065TIP3    H269687   5.923   5.814  11.365 -0.9729  1.8953  1.6664
16066TIP3   OH269688   6.222   5.997   3.998  0.0818  0.2280 -0.0801
16066TIP3    H169689   6.225   5.973   4.090  3.8747  1.1057  0.1190
16066TIP3    H269690   6.286   5.940   3.956  0.3610  1.6821 -1.6884
16067TIP3   OH269691   5.188   4.240   5.265  0.1495  0.0444 -0.2063
16067TIP3    H169692   5.159   4.331   5.270  0.4352  0.1104  0.2256
16067TIP3    H269693   5.152   4.198   5.343  0.9536  0.0576  0.1839
16068TIP3   OH269694   3.918   2.850   3.885 -0.6830 -0.1483 -0.5193
16068TIP3    H169695   3.911   2.903   3.964  1.1892  1.5208 -1.4234
16068TIP3    H269696   3.901   2.912   3.813  0.7731 -0.9308 -1.5636
16069TIP3   OH269697   2.505   4.658   2.023 -0.3080 -0.1196  0.1433
16069TIP3    H169698   2.527   4.690   2.110 -2.3094  1.1842  0.2058
16069TIP3    H269699   2.436   4.593   2.038 -0.2800 -0.2840 -0.4245
16070TIP3   OH269700   5.012   4.459  15.285  0.4482 -0.0803  0.9284
16070TIP3    H169701   4.958   4.537  15.269 -0.1121 -0.5063  0.7179
16070TIP3    H269702   5.092   4.494  15.323 -0.3376  0.4910  2.1065
16071TIP3   OH269703   3.352   2.218  14.957 -0.0359 -0.1033 -0.3802
16071TIP3    H169704   3.390   2.168  14.884 -0.5292 -1.6089  0.3831
16071TIP3    H269705   3.379   2.309  14.940  1.2395 -0.6783 -1.5475
16072TIP3   OH269706   5.992   1.145   0.001  0.6087  0.5909 -0.2447
16072TIP3    H169707   5.922   1.177  -0.056 -0.8886  0.2335  1.3165
16072TIP3    H269708   6.013   1.058  -0.033 -1.4993 -0.3460  0.7552
16073TIP3   OH269709   0.848   1.857  12.045  0.1576  0.1554 -0.9295
16073TIP3    H169710   0.755   1.879  12.051  0.0113 -0.9869  1.4052
16073TIP3    H269711   0.889   1.935  12.007 -1.5131  1.2545 -0.5004
16074TIP3   OH269712   6.012   4.562   3.881  0.0722  0.4320 -0.0692
16074TIP3    H169713   5.925   4.537   3.850 -0.2484  0.5978  0.6671
16074TIP3    H269714   6.039   4.633   3.823 -1.0155  1.5317  0.7413
16075TIP3   OH269715   5.347   5.762   3.483  0.0055  0.0186  0.2402
16075TIP3    H169716   5.368   5.686   3.537  0.0744  0.3604  0.6994
16075TIP3    H269717   5.263   5.792   3.516 -0.6422 -0.6278 -0.7992
16076TIP3   OH269718   5.256   0.389   4.043  0.8430 -0.1805 -0.4576
16076TIP3    H169719   5.277   0.328   4.113  0.4962  0.2310  0.0103
16076TIP3    H269720   5.170   0.361   4.011  0.5167  0.2925  0.0083
16077TIP3   OH269721   6.156   3.971  16.737 -0.4461 -0.0858 -0.4086
16077TIP3    H169722   6.130   4.051  16.782  0.0851 -0.8795  1.3405
16077TIP3    H269723   6.139   3.901  16.800 -0.0045 -1.2622 -1.5669
16078TIP3   OH269724   5.938   6.812   0.768 -0.0985  0.2563 -0.2039
16078TIP3    H169725   6.021   6.844   0.803 -0.4727  3.2839 -1.9562
16078TIP3    H269726   5.961   6.730   0.725  1.7467  0.4020  0.4517
16079TIP3   OH269727   5.575   6.504   3.312  0.0831 -0.3074 -0.0058
16079TIP3    H169728   5.559   6.471   3.223 -1.5841  0.0106  0.1505
16079TIP3    H269729   5.489   6.535   3.341  1.1093  1.8252  0.8157
16080TIP3   OH269730   1.509   4.943   4.648 -0.2795  0.0748  0.3032
16080TIP3    H169731   1.532   5.034   4.629 -0.8384  0.2181  0.3042
16080TIP3    H269732   1.422   4.932   4.609 -0.8941 -0.0016  1.6636
16081TIP3   OH269733   2.382   2.369  16.500  0.3459  0.3626 -0.7159
16081TIP3    H169734   2.458   2.421  16.475  0.4649  1.5211  1.8409
16081TIP3    H269735   2.413   2.278  16.498  0.8476  0.5768 -2.8060
16082TIP3   OH269736   3.976   2.509   5.537 -0.0475 -0.4696  0.0389
16082TIP3    H169737   3.957   2.456   5.460  1.5217 -1.9687  0.6718
16082TIP3    H269738   3.973   2.600   5.506  3.7803 -1.1345 -2.5399
16083TIP3   OH269739   3.078   1.800  14.780  0.5203 -0.1662 -0.1284
16083TIP3    H169740   3.025   1.781  14.702  0.9415  0.4286 -0.5666
16083TIP3    H269741   3.138   1.725  14.786  1.0835  0.2156 -0.9009
16084TIP3   OH269742   6.607   2.166  16.584 -0.3240 -0.4152  0.2789
16084TIP3    H169743   6.530   2.110  16.591 -0.3461 -0.6020 -1.2781
16084TIP3    H269744   6.641   2.172  16.673 -0.9933 -1.9611  0.6457
16085TIP3   OH269745   3.482   0.793   4.805  0.4297 -0.2704 -0.4524
16085TIP3    H169746   3.550   0.858   4.824 -1.5605  1.9778 -0.8014
16085TIP3    H269747   3.473   0.744   4.886  0.8341  0.9515  0.3426
16086TIP3   OH269748   2.592   2.993  16.248  0.4958  0.4971  0.6598
16086TIP3    H169749   2.555   3.065  16.299 -3.8663 -0.4370 -0.9159
16086TIP3    H269750   2.515   2.949  16.210  3.2346 -2.6262 -1.5629
16087TIP3   OH269751   2.154   1.078   4.734  0.3060  0.7790 -0.3086
16087TIP3    H169752   2.218   1.126   4.682  0.4421 -0.3143 -1.1562
16087TIP3    H269753   2.102   1.030   4.670  0.4192 -0.5122  0.5496
16088TIP3   OH269754   1.040   1.670   2.383 -0.4190 -0.2023 -0.0783
16088TIP3    H169755   1.104   1.634   2.445 -1.4595  1.0306  1.7504
16088TIP3    H269756   0.976   1.599   2.370 -0.1476 -0.4957  0.1768
16089TIP3   OH269757   5.747   3.375  13.582  0.3218 -0.2899  0.0261
16089TIP3    H169758   5.655   3.358  13.566 -0.2438  1.1346  1.6306
16089TIP3    H269759   5.752   3.469  13.599  2.3230 -0.0501 -1.6693
16090TIP3   OH269760   2.240   2.713   4.470  0.2390 -0.3419  0.3683
16090TIP3    H169761   2.169   2.741   4.412  0.2628  0.7393  0.8376
16090TIP3    H269762   2.216   2.750   4.556  2.2307  1.5317  0.1563
16091TIP3   OH269763   4.909   0.040   3.338 -0.5731 -0.2014 -0.4456
16091TIP3    H169764   4.875   0.086   3.415 -0.0553 -1.1056  0.3287
16091TIP3    H269765   4.939   0.110   3.279  3.0353  0.4373  1.9895
16092TIP3   OH269766   0.394   2.741  14.185 -0.5079 -0.1745 -0.5601
16092TIP3    H169767   0.327   2.807  14.205  1.1825  1.0968  1.0690
16092TIP3    H269768   0.477   2.790  14.186  0.8123 -2.3494  0.9261
16093TIP3   OH269769   0.176   0.089  15.450 -0.0924 -0.3229  0.4387
16093TIP3    H169770   0.220   0.129  15.375  1.4148 -0.7300  1.0942
16093TIP3    H269771   0.113   0.028  15.412 -0.9943  1.1831 -0.5318
16094TIP3   OH269772   3.295   3.361   2.902  0.1210 -0.6229 -0.0625
16094TIP3    H169773   3.359   3.327   2.966 -0.0911  1.3807  1.2477
16094TIP3    H269774   3.224   3.395   2.956  0.7172  2.7020 -1.3098
16095TIP3   OH269775   2.431   5.669   6.474 -0.5781 -0.0710  0.5484
16095TIP3    H169776   2.469   5.614   6.542  0.3481 -0.8424 -0.5755
16095TIP3    H269777   2.381   5.735   6.522 -0.8746 -1.2758  1.9360
16096TIP3   OH269778   0.410   0.975   1.060  0.4604 -0.1510  0.0883
16096TIP3    H169779   0.321   0.994   1.091  0.9830  2.0162  0.3409
16096TIP3    H269780   0.431   1.047   1.000  0.8480 -2.3622 -2.5193
16097TIP3   OH269781   0.216   3.254   4.641  0.0496 -0.0601 -0.1257
16097TIP3    H169782   0.223   3.349   4.631  0.9889 -0.0333  0.7058
16097TIP3    H269783   0.125   3.234   4.618 -0.0601  0.9964 -0.6190
16098TIP3   OH269784   5.901   1.857  11.013 -0.1616 -0.4186  0.3930
16098TIP3    H169785   5.828   1.876  10.954 -0.6512 -0.6111  0.9369
16098TIP3    H269786   5.969   1.821  10.956  0.2566  1.5892 -0.4480
16099TIP3   OH269787   0.703   3.158  11.348  0.3832 -0.2924  0.5321
16099TIP3    H169788   0.671   3.245  11.328 -1.3884 -0.3340  2.9854
16099TIP3    H269789   0.768   3.140  11.280  2.4256  3.7947  1.2237
16100TIP3   OH269790   2.552   1.104  13.418  0.1565 -0.6451 -0.9682
16100TIP3    H169791   2.578   1.069  13.332  1.1271  2.2745 -1.9041
16100TIP3    H269792   2.633   1.102  13.469  0.0567 -0.4267 -0.8011
16101TIP3   OH269793   2.168   3.805  16.765 -0.1996 -0.2667 -0.3032
16101TIP3    H169794   2.237   3.758  16.717 -0.6455 -0.1059 -1.1131
16101TIP3    H269795   2.189   3.791  16.857  1.8893  1.1824 -0.5268
16102TIP3   OH269796   1.454   2.777  11.279  0.2966 -0.1306  0.0790
16102TIP3    H169797   1.359   2.786  11.286  0.1880 -1.8006  1.1147
16102TIP3    H269798   1.487   2.805  11.365  0.5914 -1.2096  0.3265
16103TIP3   OH269799   5.741   0.479  16.618  0.4096  0.1813  0.3590
16103TIP3    H169800   5.724   0.444  16.705  0.3458 -0.0260  0.2647
16103TIP3    H269801   5.804   0.549  16.631  0.9109 -0.2943  0.4922
16104TIP3   OH269802   0.512   5.034   2.636 -0.3879  0.0993  0.1818
16104TIP3    H169803   0.584   5.092   2.616  0.3246 -0.5900  0.7190
16104TIP3    H269804   0.446   5.090   2.677 -0.8991  1.0720 -1.8842
16105TIP3   OH269805   1.330   3.468   3.651  0.2607 -0.0521  0.3584
16105TIP3    H169806   1.360   3.378   3.667 -0.3605 -0.4437 -0.6645
16105TIP3    H269807   1.238   3.458   3.628  0.2304  0.8437  0.0996
16106TIP3   OH269808   5.504   5.043   0.013 -0.0060  0.3161 -0.2277
16106TIP3    H169809   5.471   5.133   0.015  0.1925  0.3837  0.0182
16106TIP3    H269810   5.449   4.996   0.075  0.1818  0.3692 -0.0196
16107TIP3   OH269811   4.877   3.069   4.929  0.3405  0.0469 -0.3315
16107TIP3    H169812   4.949   3.118   4.889  1.3365 -1.7364 -0.7797
16107TIP3    H269813   4.827   3.035   4.854 -0.1126  0.0456 -0.0279
16108TIP3   OH269814   6.058   6.015  12.952 -0.8779  0.4531 -0.0344
16108TIP3    H169815   6.021   6.045  13.034 -0.8744 -0.2428  0.2254
16108TIP3    H269816   6.005   6.058  12.884 -1.5348  0.2184  0.3285
16109TIP3   OH269817   5.708   0.184   5.067 -0.2637  0.0700 -0.1283
16109TIP3    H169818   5.669   0.165   5.152 -0.8457  2.8450  0.2371
16109TIP3    H269819   5.666   0.122   5.007 -1.6112 -0.2626  1.1439
16110TIP3   OH269820   6.323   5.540   4.572 -0.6827 -0.2441  0.1443
16110TIP3    H169821   6.273   5.463   4.598 -1.7346  0.0912 -0.8736
16110TIP3    H269822   6.323   5.596   4.650  0.4461 -1.4255  1.0309
16111TIP3   OH269823   3.202   0.413  15.554  0.9199 -0.0428  0.0878
16111TIP3    H169824   3.121   0.364  15.540  1.2062 -0.4315 -0.2586
16111TIP3    H269825   3.212   0.417  15.649 -1.1383  2.7688  0.2301
16112TIP3   OH269826   3.080   3.550  11.157  0.2176 -0.3353  0.0029
16112TIP3    H169827   3.143   3.542  11.086 -0.5460  0.2434 -0.7552
16112TIP3    H269828   3.018   3.478  11.143 -0.6466  0.5194 -0.6642
16113TIP3   OH269829   1.618   3.693   1.318  0.1881 -0.3176 -0.0108
16113TIP3    H169830   1.528   3.665   1.303  0.0211  0.7938 -1.2194
16113TIP3    H269831   1.661   3.685   1.233  1.5432 -1.8742  0.7869
16114TIP3   OH269832   1.582   1.463   4.111  0.4307 -0.5008 -0.0172
16114TIP3    H169833   1.530   1.506   4.043  2.0074  0.9871 -0.3504
16114TIP3    H269834   1.558   1.509   4.192  0.4215 -0.5400  0.0026
16115TIP3   OH269835   4.165   5.442  11.806 -0.3505 -0.3706  0.2724
16115TIP3    H169836   4.171   5.422  11.713 -1.9310 -0.6557  0.2117
16115TIP3    H269837   4.228   5.384  11.848  1.5385  0.9037 -0.7658
16116TIP3   OH269838   4.520   1.900  15.325  0.9117  0.6175  0.0479
16116TIP3    H169839   4.487   1.966  15.387  3.2889  2.5317 -0.6517
16116TIP3    H269840   4.613   1.894  15.343  1.0665 -1.2157 -1.1914
16117TIP3   OH269841   4.626   0.064  16.357 -0.3134 -0.1544  0.5614
16117TIP3    H169842   4.604   0.148  16.397 -0.8281 -0.5090  1.0256
16117TIP3    H269843   4.570   0.000  16.401  1.6629 -1.0824  1.7818
16118TIP3   OH269844   2.815   2.981  10.808  0.2815  0.2571 -0.2569
16118TIP3    H169845   2.765   3.045  10.758  0.8804 -0.0699 -1.2981
16118TIP3    H269846   2.893   2.965  10.755 -0.0561 -1.6339 -0.2391
16119TIP3   OH269847   2.260   0.640  12.183  0.5647 -0.3205 -0.2963
16119TIP3    H169848   2.279   0.732  12.200  0.9869 -0.3614 -0.5499
16119TIP3    H269849   2.323   0.614  12.116  0.0792 -0.6474 -0.6264
16120TIP3   OH269850   5.079   4.999   1.505 -0.1150 -1.0273 -0.2541
16120TIP3    H169851   5.139   5.062   1.466 -1.3386  0.5340  0.3346
16120TIP3    H269852   5.051   4.944   1.432  2.5572 -2.2704 -0.4195
16121TIP3   OH269853   2.078   5.147  15.577  0.5362 -0.1503 -0.6662
16121TIP3    H169854   2.007   5.141  15.513 -0.7956 -0.3877  0.7975
16121TIP3    H269855   2.128   5.067  15.564 -1.8929 -2.0236  1.0551
16122TIP3   OH269856   5.731   2.945  17.096 -0.7837 -0.0542 -0.3255
16122TIP3    H169857   5.684   2.863  17.113 -2.2875  0.6361 -1.1035
16122TIP3    H269858   5.725   2.957  17.002 -2.1606  1.8916 -0.0073
16123TIP3   OH269859   2.655   1.398  16.773  0.2687  0.5924 -0.4742
16123TIP3    H169860   2.712   1.465  16.735 -1.2566  1.2267 -1.6994
16123TIP3    H269861   2.601   1.445  16.836  1.2196 -0.0487  0.8505
16124TIP3   OH269862   6.671   2.399   2.194 -0.4881  0.2319 -0.1772
16124TIP3    H169863   6.700   2.309   2.212 -1.7041  0.3405  2.5726
16124TIP3    H269864   6.654   2.436   2.280 -1.9763  2.4624 -1.3935
16125TIP3   OH269865   5.253   0.193   2.923 -0.0039 -0.3546 -0.6628
16125TIP3    H169866   5.330   0.232   2.965 -1.1176  0.3069  0.8048
16125TIP3    H269867   5.255   0.102   2.951 -0.4056 -0.0590  0.3504
16126TIP3   OH269868   5.143   2.763   3.717 -0.0209 -0.5799  0.2440
16126TIP3    H169869   5.071   2.827   3.719 -0.3028 -0.9139  2.1462
16126TIP3    H269870   5.167   2.757   3.625 -3.4015 -1.5447 -0.6558
16127TIP3   OH269871   2.148   1.505   5.473  0.0986  0.2933  0.0980
16127TIP3    H169872   2.182   1.518   5.385 -0.4296 -0.5793 -0.2351
16127TIP3    H269873   2.208   1.555   5.529  1.9579 -1.2283 -0.4773
16128TIP3   OH269874   1.681   1.029   3.565 -0.1677  0.1799 -0.2079
16128TIP3    H169875   1.596   1.062   3.596 -0.1173  0.5372 -0.4454
16128TIP3    H269876   1.659   0.966   3.497 -0.3702 -2.2802  2.0499
16129TIP3   OH269877   3.673   5.554   3.278  0.1413  0.1347 -0.2324
16129TIP3    H169878   3.681   5.649   3.268 -0.9839  0.4192  1.3374
16129TIP3    H269879   3.761   5.525   3.301  0.6362  0.6999 -1.3452
16130TIP3   OH269880   5.607   1.874   0.496  0.0740 -0.6166  0.1127
16130TIP3    H169881   5.544   1.816   0.453  0.7865 -2.6044  1.6964
16130TIP3    H269882   5.667   1.901   0.426 -0.8322 -0.9910 -0.8212
16131TIP3   OH269883   0.611   1.894  16.795  0.2438 -0.3293 -0.0512
16131TIP3    H169884   0.581   1.968  16.848  2.3080  1.1106 -0.8159
16131TIP3    H269885   0.579   1.914  16.707 -0.6512 -1.2264  0.0672
16132TIP3   OH269886   3.045   1.751   4.750 -0.4308 -0.6676  0.0661
16132TIP3    H169887   3.068   1.804   4.826 -0.2028  0.3413 -0.6845
16132TIP3    H269888   2.974   1.694   4.780 -1.6365  1.0373  0.5151
16133TIP3   OH269889   3.098   0.654  12.944  0.5890 -0.2582  0.6571
16133TIP3    H169890   3.068   0.744  12.954 -0.0146 -0.3843 -0.0020
16133TIP3    H269891   3.022   0.600  12.966  1.5080 -0.6489  2.9880
16134TIP3   OH269892   2.380   3.392  14.322  0.4329  0.0789 -0.1279
16134TIP3    H169893   2.460   3.421  14.279  1.0202 -0.5831  0.5093
16134TIP3    H269894   2.343   3.472  14.360  1.3066  0.2265  0.4125
16135TIP3   OH269895   6.693   6.089  14.978 -0.2475 -0.1032 -0.1048
16135TIP3    H169896   6.742   6.026  14.925 -2.4226 -1.5555 -0.4626
16135TIP3    H269897   6.633   6.131  14.917 -1.0741 -0.0181  0.7546
16136TIP3   OH269898   2.286   0.401   4.801 -0.1732 -0.2643  0.6688
16136TIP3    H169899   2.199   0.404   4.761 -0.6682 -0.1287  1.7555
16136TIP3    H269900   2.273   0.429   4.891  1.0281 -0.0752  0.8004
16137TIP3   OH269901   6.337   2.727  16.043  0.2406 -0.0023  0.5230
16137TIP3    H169902   6.350   2.722  15.948 -1.1367 -0.1785  0.3411
16137TIP3    H269903   6.411   2.780  16.074  2.1921 -2.1569 -0.2920
16138TIP3   OH269904   5.317   1.627   4.425 -0.4844 -0.0515 -0.2218
16138TIP3    H169905   5.360   1.675   4.496 -0.0886 -1.7254  0.6699
16138TIP3    H269906   5.317   1.689   4.352 -0.9405  1.7103  1.2315
16139TIP3   OH269907   2.277   2.949  13.722 -0.0941 -0.2086 -0.5995
16139TIP3    H169908   2.324   2.930  13.803  0.6068 -0.3413 -1.0361
16139TIP3    H269909   2.283   2.868  13.670 -1.1612 -0.3700 -0.4883
16140TIP3   OH269910   2.529   3.489   2.556 -0.2330  0.2017  0.1449
16140TIP3    H169911   2.498   3.404   2.526 -0.2249  0.4592 -0.5933
16140TIP3    H269912   2.610   3.470   2.604 -0.2639 -0.2091  0.0310
16141TIP3   OH269913   1.042   6.506   2.216 -0.2324  0.0363  0.3932
16141TIP3    H169914   1.047   6.421   2.173  1.3829  1.1123 -1.6346
16141TIP3    H269915   0.974   6.553   2.167  0.9470  0.9342 -0.4009
16142TIP3   OH269916   5.920   0.429  16.910  0.3157  0.0459  0.1968
16142TIP3    H169917   5.934   0.422  16.816 -0.9909  1.3459 -0.1171
16142TIP3    H269918   5.998   0.390  16.949  0.6568 -0.9358 -1.4162
16143TIP3   OH269919   6.648   4.913   2.149 -0.1229  0.2646  0.5855
16143TIP3    H169920   6.650   4.952   2.236 -0.6744 -0.0538  0.7445
16143TIP3    H269921   6.713   4.843   2.153 -0.8495 -0.3919  1.0570
16144TIP3   OH269922   2.737   0.623  15.733  0.4601  0.1602  0.5576
16144TIP3    H169923   2.766   0.552  15.791  0.5071 -1.3290 -1.2241
16144TIP3    H269924   2.818   0.656  15.694  0.3273  0.3020  0.4036
16145TIP3   OH269925   0.306   2.094  11.491 -0.3810 -0.0959  0.0988
16145TIP3    H169926   0.262   2.024  11.539  0.9891 -0.8572  0.2588
16145TIP3    H269927   0.314   2.166  11.554 -1.1468 -0.0426  0.1421
16146TIP3   OH269928   4.802   1.633  16.801  0.6930  0.2743 -0.0786
16146TIP3    H169929   4.726   1.692  16.800  1.2251  0.9665 -0.8051
16146TIP3    H269930   4.765   1.546  16.785  0.0773  0.6431 -0.7119
16147TIP3   OH269931   1.150   2.063  17.275  0.0805  0.8884  0.5832
16147TIP3    H169932   1.244   2.049  17.275 -0.0613 -0.1304  1.0049
16147TIP3    H269933   1.131   2.102  17.361 -0.0928 -0.5194  1.2066
16148TIP3   OH269934   3.618   5.335   5.057 -0.2255  0.1411 -0.1709
16148TIP3    H169935   3.591   5.369   4.972 -0.4841  1.6670  0.5085
16148TIP3    H269936   3.681   5.398   5.090 -0.1206 -0.4439  0.7715
16149TIP3   OH269937   2.974   2.687   5.969  0.2507  0.5462 -0.3489
16149TIP3    H169938   2.896   2.727   5.930 -1.0109 -1.3956  0.0926
16149TIP3    H269939   3.042   2.697   5.903 -1.1055 -0.1487 -1.9020
16150TIP3   OH269940   5.669   2.881  14.053 -0.1271  0.1829  0.3224
16150TIP3    H169941   5.645   2.973  14.041  1.2833  0.6611  1.0553
16150TIP3    H269942   5.760   2.876  14.026  0.0931 -0.7864  1.2041
16151TIP3   OH269943   0.964   1.751  14.072 -0.7151 -0.0609  0.1306
16151TIP3    H169944   1.026   1.765  14.000 -0.6962  0.1369  0.1835
16151TIP3    H269945   0.988   1.818  14.137  0.0355 -0.9932  0.8313
16152TIP3   OH269946   0.488   5.850   3.944 -0.0644 -0.4326  0.5745
16152TIP3    H169947   0.445   5.793   4.007  1.3733  0.2874  2.2458
16152TIP3    H269948   0.581   5.826   3.949  0.0890 -0.3216 -1.2271
16153TIP3   OH269949   5.156   2.293  15.549  0.3108 -0.0255  0.1037
16153TIP3    H169950   5.196   2.238  15.617 -0.7742  0.1713  0.9169
16153TIP3    H269951   5.123   2.231  15.484  0.7132 -0.2485  0.1123
16154TIP3   OH269952   5.958   4.060  13.167  0.0785  0.0976 -0.2082
16154TIP3    H169953   5.872   4.025  13.190  0.3900 -1.0342 -0.7403
16154TIP3    H269954   6.019   3.991  13.193  0.8447  0.9740  0.3407
16155TIP3   OH269955   0.956   1.392   0.767 -0.1642 -0.6928  0.0389
16155TIP3    H169956   0.989   1.304   0.788  0.3572 -0.8497 -1.3409
16155TIP3    H269957   0.869   1.376   0.731 -0.2676 -0.6026  0.2515
16156TIP3   OH269958   6.630   1.810  15.026 -0.3169  0.6980 -0.6990
16156TIP3    H169959   6.676   1.852  14.953 -0.7008 -0.9916 -1.9448
16156TIP3    H269960   6.539   1.804  14.997 -0.1452 -1.5698 -0.8319
16157TIP3   OH269961   1.050   6.000   5.197 -0.1363  0.4030 -0.4500
16157TIP3    H169962   1.112   6.066   5.167 -0.8410  0.5020 -1.7447
16157TIP3    H269963   1.101   5.943   5.254  0.8140  1.2486 -0.4312
16158TIP3   OH269964   6.801   4.778  16.009 -0.0813 -0.0880 -0.2939
16158TIP3    H169965   6.873   4.744  15.956 -0.7628 -1.7286 -0.1721
16158TIP3    H269966   6.765   4.702  16.053 -1.2216  0.8854  0.4900
16159TIP3   OH269967   2.000   1.366   1.293  0.0155  0.5846  0.1896
16159TIP3    H169968   1.924   1.362   1.236 -0.1785  1.0095  0.4116
16159TIP3    H269969   2.005   1.458   1.319  0.9794  0.6762 -0.3287
16160TIP3   OH269970   4.650   0.234   5.216 -0.2678  0.2971 -0.5250
16160TIP3    H169971   4.657   0.322   5.180  0.7406 -0.0524 -1.2218
16160TIP3    H269972   4.594   0.243   5.293  1.6043  1.9169  0.6754
16161TIP3   OH269973   4.046   0.844   1.289 -0.3734  0.2181 -0.8781
16161TIP3    H169974   3.991   0.838   1.210  0.9402  0.8420 -1.8679
16161TIP3    H269975   4.108   0.914   1.269  1.2710 -0.9771 -0.1087
16162TIP3   OH269976   5.389   2.205   6.405  0.3591 -0.1023 -0.7673
16162TIP3    H169977   5.303   2.167   6.423  0.0547  0.2871 -1.3922
16162TIP3    H269978   5.400   2.195   6.311  1.2573 -0.6849 -0.5978
16163TIP3   OH269979   1.577   4.156   2.985  0.2101 -0.0174  0.2301
16163TIP3    H169980   1.641   4.085   2.984  1.6789  1.2302  1.2602
16163TIP3    H269981   1.616   4.223   2.929 -0.5783  0.4462  0.2309
16164TIP3   OH269982   6.102   2.593  11.800  0.3858  0.0917  0.1325
16164TIP3    H169983   6.035   2.525  11.805 -1.7299  2.1956  1.2403
16164TIP3    H269984   6.120   2.602  11.706 -1.0998 -0.2820 -0.1998
16165TIP3   OH269985   0.245   2.955   3.942 -0.2951  0.1311  0.2946
16165TIP3    H169986   0.247   3.046   3.972 -0.2577 -0.4575  2.1341
16165TIP3    H269987   0.289   2.906   4.011 -1.3587 -1.4474 -0.1231
16166TIP3   OH269988   0.318   5.474   3.380 -0.4114 -0.2153 -0.6158
16166TIP3    H169989   0.409   5.484   3.407 -0.4945 -1.9406  0.3625
16166TIP3    H269990   0.269   5.475   3.462 -1.2290  0.1998 -1.1083
16167TIP3   OH269991   4.326   2.328   3.475 -0.8234 -0.0769  0.0847
16167TIP3    H169992   4.389   2.317   3.546  1.1995 -0.3884 -1.7264
16167TIP3    H269993   4.278   2.408   3.498 -0.6142 -0.5027  2.0828
16168TIP3   OH269994   2.718   0.418  16.635 -0.8162 -0.1630 -0.0720
16168TIP3    H169995   2.727   0.332  16.675 -1.4882 -0.1746  0.0601
16168TIP3    H269996   2.658   0.466  16.694 -0.6031  0.3270 -0.2477
16169TIP3   OH269997   2.223   4.580  16.711  0.0667 -0.2578 -0.3124
16169TIP3    H169998   2.259   4.525  16.781 -0.2559  0.5832  0.5162
16169TIP3    H269999   2.299   4.622  16.671  0.1113  0.6600  0.7155
16170TIP3   OH270000   1.555   2.925  13.833  0.4796  0.3265  0.1613
16170TIP3    H170001   1.630   2.967  13.875  1.3316  0.5706 -1.5717
16170TIP3    H270002   1.578   2.832  13.830  0.0268  0.1775  1.0099
16171TIP3   OH270003   3.789   6.167  16.252 -0.6050 -0.0155  0.1283
16171TIP3    H170004   3.746   6.083  16.239 -1.1786  0.0871  1.2761
16171TIP3    H270005   3.726   6.232  16.220 -1.1292  0.1064  1.3740
16172TIP3   OH270006   5.420   4.397  14.239 -0.0922  0.7410 -0.4266
16172TIP3    H170007   5.428   4.431  14.150 -1.2553  1.3214 -0.3073
16172TIP3    H270008   5.332   4.360  14.243 -0.0746  0.7881  0.5051
16173TIP3   OH270009   2.246   1.979  15.232 -0.9895 -0.3585 -0.0741
16173TIP3    H170010   2.286   1.892  15.228  0.0892  0.1792 -1.8666
16173TIP3    H270011   2.230   1.994  15.325 -0.6270 -2.2219  0.3110
16174TIP3   OH270012   3.897   6.415  11.682  0.4350 -0.0982  0.0696
16174TIP3    H170013   3.957   6.450  11.617  0.6090  0.9831  0.8134
16174TIP3    H270014   3.842   6.353  11.633  1.0786  0.1200 -0.9353
16175TIP3   OH270015   2.458   3.984  16.304  0.1857 -0.5307 -1.0655
16175TIP3    H170016   2.364   4.001  16.312  0.5068  0.4058  1.0094
16175TIP3    H270017   2.480   3.935  16.384  1.5689 -0.2445 -1.2647
16176TIP3   OH270018   2.899   3.734  14.034 -0.1922  0.4375 -0.3086
16176TIP3    H170019   2.838   3.748  13.961  0.2601 -0.9942 -0.9713
16176TIP3    H270020   2.843   3.707  14.107 -0.6940  2.2927  0.0267
16177TIP3   OH270021   6.783   4.470  17.185  0.0502 -0.4855 -0.2359
16177TIP3    H170022   6.809   4.459  17.277  0.4176 -1.4050 -0.4415
16177TIP3    H270023   6.717   4.402  17.170  0.0765 -0.4161 -0.6872
16178TIP3   OH270024   5.604   2.863  15.552  0.6353  0.8056 -0.0262
16178TIP3    H170025   5.678   2.882  15.495  1.3015 -0.0787  0.5224
16178TIP3    H270026   5.644   2.836  15.635 -0.2764 -0.4435  0.0320
16179TIP3   OH270027   3.712   1.676   4.348  0.0839  0.7978 -0.0417
16179TIP3    H170028   3.761   1.628   4.416  0.5606 -0.4252 -1.2253
16179TIP3    H270029   3.627   1.695   4.389  0.0719 -0.6340  0.6310
16180TIP3   OH270030   2.623   0.522  11.617  0.4992  0.2304 -0.1053
16180TIP3    H170031   2.560   0.594  11.614 -1.3872 -1.1876  2.4924
16180TIP3    H270032   2.683   0.546  11.688  1.2306  0.2966 -0.7458
16181TIP3   OH270033   3.676   5.782  11.812 -0.2511  0.3841  0.2727
16181TIP3    H170034   3.757   5.829  11.834 -1.3957  2.0864  1.0041
16181TIP3    H270035   3.609   5.825  11.866 -1.5680 -1.2469 -0.0430
16182TIP3   OH270036   3.723   2.290  13.194 -0.2696 -0.5865  0.3481
16182TIP3    H170037   3.785   2.265  13.261 -1.1773 -3.0202  0.3499
16182TIP3    H270038   3.679   2.208  13.170 -3.2289  0.9827  0.1265
16183TIP3   OH270039   1.412   2.059  13.096 -0.0517  0.0829  0.2523
16183TIP3    H170040   1.361   2.131  13.060  0.4918  0.8382  0.9720
16183TIP3    H270041   1.424   2.081  13.189  1.8294  0.0870  0.0421
16184TIP3   OH270042   3.610   1.636   1.382 -0.0753  0.4769 -0.3301
16184TIP3    H170043   3.588   1.633   1.289 -1.7951  2.4121 -0.0179
16184TIP3    H270044   3.687   1.694   1.386  0.5648 -0.3389 -0.6266
16185TIP3   OH270045   5.640   6.612   0.062 -0.2155 -0.2171  0.5467
16185TIP3    H170046   5.580   6.570   0.124  0.7189  0.7171  2.0979
16185TIP3    H270047   5.713   6.642   0.115  0.9042  0.0517 -1.1114
16186TIP3   OH270048   1.380   5.237   2.816  0.0008 -0.2780  0.1694
16186TIP3    H170049   1.395   5.210   2.907  1.0178 -0.4294 -0.0341
16186TIP3    H270050   1.328   5.166   2.779 -0.8225  0.0082  0.7590
16187TIP3   OH270051   0.160   6.669   1.467  0.2833 -0.2630  0.1735
16187TIP3    H170052   0.194   6.723   1.395 -0.1039 -0.6366 -0.2984
16187TIP3    H270053   0.128   6.732   1.531  0.1090  0.0768 -0.2412
16188TIP3   OH270054   1.163   2.144  12.786  0.1959  0.2049 -0.3299
16188TIP3    H170055   1.077   2.174  12.757  0.3915  0.2743 -0.8396
16188TIP3    H270056   1.199   2.097  12.711  0.0598 -0.9585  0.3215
16189TIP3   OH270057   1.823   0.671   1.932  0.1704 -0.7268 -0.5345
16189TIP3    H170058   1.848   0.626   2.013  0.1082  0.3028  0.0698
16189TIP3    H270059   1.729   0.655   1.924 -0.3534  1.2767  0.9892
16190TIP3   OH270060   3.612   0.929  15.826  0.3003  0.0060  0.1925
16190TIP3    H170061   3.664   0.917  15.746  1.0522  0.8672  0.5538
16190TIP3    H270062   3.619   1.022  15.846 -1.4083  0.1493  0.2353
16191TIP3   OH270063   6.750   0.691  15.990 -0.4210 -0.5117 -0.2324
16191TIP3    H170064   6.688   0.705  15.919 -1.4410  1.3390  0.9836
16191TIP3    H270065   6.762   0.596  15.994 -2.6010 -0.8399 -0.9622
16192TIP3   OH270066   6.413   6.519  16.086 -0.3914 -0.2716  0.6093
16192TIP3    H170067   6.348   6.457  16.120 -0.9750 -0.1358 -0.2393
16192TIP3    H270068   6.382   6.604  16.115 -1.7459  0.0074 -1.5263
16193TIP3   OH270069   4.383   3.920  15.712 -0.2189 -0.0042 -0.7490
16193TIP3    H170070   4.443   3.930  15.786  0.0446  2.0366 -1.2056
16193TIP3    H270071   4.362   3.826  15.710  0.9166 -0.3138  0.9957
16194TIP3   OH270072   5.158   1.949   3.531 -0.2387  0.9154  0.3106
16194TIP3    H170073   5.220   1.890   3.575  0.1761 -0.7048 -2.3106
16194TIP3    H270074   5.206   2.031   3.522  0.9523  0.1616 -0.2796
16195TIP3   OH270075   6.371   5.845  12.448 -0.4376 -0.5906  0.0970
16195TIP3    H170076   6.426   5.880  12.378 -0.8611  1.1153  0.6134
16195TIP3    H270077   6.397   5.753  12.454 -1.4921 -1.1759 -3.3273
16196TIP3   OH270078   3.609   5.140   1.693  0.1607 -0.0713 -0.2419
16196TIP3    H170079   3.560   5.073   1.740 -1.2259  1.1054  0.0419
16196TIP3    H270080   3.647   5.196   1.761  2.6807 -1.4789 -0.4398
16197TIP3   OH270081   0.978   2.885   2.135 -0.2362 -0.5486  0.3514
16197TIP3    H170082   1.024   2.935   2.203 -0.1619 -0.4902  0.2578
16197TIP3    H270083   0.963   2.948   2.065 -0.3207 -0.6073  0.3174
16198TIP3   OH270084   3.986   2.761   3.376 -0.5005 -0.1106 -1.0082
16198TIP3    H170085   4.030   2.704   3.312  0.3524  0.2092 -0.7125
16198TIP3    H270086   3.922   2.810   3.324  0.9853  0.9771 -1.8304
16199TIP3   OH270087   1.143   0.052   1.794  0.2835  0.4621 -0.1647
16199TIP3    H170088   1.181   0.069   1.880 -3.7142  1.5390  1.5066
16199TIP3    H270089   1.164   0.130   1.743  0.0715  1.1636  0.8051
16200TIP3   OH270090   6.139   6.680   0.218  0.0246 -0.2588  0.1343
16200TIP3    H170091   6.154   6.751   0.281 -1.7842  0.3591 -0.0851
16200TIP3    H270092   6.214   6.683   0.160  0.7285  0.4814  1.0624
16201TIP3   OH270093   4.264   4.623  14.253  0.9685 -0.1711 -0.3714
16201TIP3    H170094   4.288   4.547  14.306  1.0916  0.1044 -0.0323
16201TIP3    H270095   4.169   4.630  14.263  0.9356 -0.3676 -0.5255
16202TIP3   OH270096   2.347   6.485  15.380  0.1698 -0.3621  0.3347
16202TIP3    H170097   2.434   6.456  15.408  0.1760  0.4244  1.1174
16202TIP3    H270098   2.291   6.408  15.393  0.3929 -0.3380  1.4542
16203TIP3   OH270099   1.239   2.868   2.383 -0.2496 -0.5302 -0.6597
16203TIP3    H170100   1.171   2.936   2.377 -0.5986 -0.7482  0.8585
16203TIP3    H270101   1.318   2.916   2.409  0.6036 -0.0303 -3.8653
16204TIP3   OH270102   6.228   2.102  15.935  0.8814 -0.2649 -0.1829
16204TIP3    H170103   6.290   2.039  15.897  1.6838  0.2627  0.2529
16204TIP3    H270104   6.185   2.054  16.005  0.7534 -0.6502 -0.5224
16205TIP3   OH270105   6.674   1.212  16.220  0.4678  0.2423  0.0701
16205TIP3    H170106   6.659   1.280  16.154 -0.6431  0.3142  0.3984
16205TIP3    H270107   6.678   1.131  16.170  2.3087  0.5851 -0.3824
16206TIP3   OH270108   4.756   4.703  15.746 -0.7568  0.2630 -0.0100
16206TIP3    H170109   4.706   4.636  15.699 -0.4661 -1.5715  2.2431
16206TIP3    H270110   4.847   4.686  15.724 -0.6829 -0.0516  0.5511
16207TIP3   OH270111   5.858   6.284  15.228  0.4498  0.2678  0.4087
16207TIP3    H170112   5.794   6.214  15.213  1.7666 -0.9209  0.2784
16207TIP3    H270113   5.872   6.285  15.323  0.6265  0.1919  0.3827
16208TIP3   OH270114   1.797   1.095  13.644  0.2207 -0.2667 -0.3525
16208TIP3    H170115   1.837   1.166  13.594  0.0587 -0.2363 -0.4381
16208TIP3    H270116   1.871   1.039  13.670  0.3830  0.1028 -0.0163
16209TIP3   OH270117   6.738   2.530  16.380 -0.1561 -0.2961  0.3852
16209TIP3    H170118   6.819   2.518  16.430 -0.2998  0.6500  0.8558
16209TIP3    H270119   6.763   2.512  16.289  0.4113 -0.7255  0.6217
16210TIP3   OH270120   0.700   6.427   5.477  0.0914  0.1519  0.1742
16210TIP3    H170121   0.609   6.457   5.477  0.0907  0.1810 -1.0556
16210TIP3    H270122   0.695   6.336   5.447  0.5199  0.3184 -0.4105
16211TIP3   OH270123   1.062   5.145  14.355 -0.8779 -0.6055  0.0102
16211TIP3    H170124   1.031   5.187  14.275  1.0539  0.2275 -0.3313
16211TIP3    H270125   1.149   5.113  14.332 -0.0971  0.1072  1.9208
16212TIP3   OH270126   0.840   2.939   2.940 -0.0019  0.6999 -0.7249
16212TIP3    H170127   0.758   2.983   2.918 -0.1753  0.1196 -1.2756
16212TIP3    H270128   0.862   2.969   3.028 -1.4462 -0.0906 -0.0858
16213TIP3   OH270129   2.387   6.776  11.508  0.4203  0.1222  0.3820
16213TIP3    H170130   2.346   6.728  11.436  0.0972 -2.7809  2.4255
16213TIP3    H270131   2.319   6.837  11.538 -0.6438 -1.0964  0.4625
16214TIP3   OH270132   0.821   5.080  15.506 -0.3541  0.0675 -0.0696
16214TIP3    H170133   0.842   5.024  15.581  0.2005  0.3920  0.0214
16214TIP3    H270134   0.904   5.092  15.461 -0.5071  0.6703 -0.1916
16215TIP3   OH270135   2.459   2.120   1.242 -0.0391 -0.0185 -0.0554
16215TIP3    H170136   2.367   2.132   1.220 -0.0206  0.4081  0.1012
16215TIP3    H270137   2.503   2.198   1.208  0.2831 -0.2688 -0.2263
16216TIP3   OH270138   3.633   2.979   1.811 -0.3609 -0.3881 -0.0028
16216TIP3    H170139   3.541   3.001   1.821 -0.2306  0.5017 -0.7172
16216TIP3    H270140   3.636   2.884   1.821 -1.5706 -0.6056 -1.5318
16217TIP3   OH270141   5.075   2.598   1.825  0.4724 -0.1441 -0.2422
16217TIP3    H170142   5.148   2.545   1.792  1.2333  1.3965 -1.0716
16217TIP3    H270143   5.005   2.586   1.761  0.9975  0.6592 -0.9654
16218TIP3   OH270144   1.558   1.619  15.126 -0.2526 -0.4307  0.0103
16218TIP3    H170145   1.605   1.606  15.208 -1.2831 -1.1753  0.4826
16218TIP3    H270146   1.473   1.656  15.152 -0.0733  0.6095 -0.8210
16219TIP3   OH270147   6.368   3.476   2.948 -0.5792  0.1405 -0.3866
16219TIP3    H170148   6.284   3.520   2.956 -0.8619 -0.2853 -1.0056
16219TIP3    H270149   6.384   3.439   3.035  0.1495  2.3180  0.4402
16220TIP3   OH270150   2.027   6.739  16.747  0.2179 -0.2878 -0.5957
16220TIP3    H170151   2.069   6.702  16.824  0.9853  0.8696 -0.4373
16220TIP3    H270152   2.022   6.833  16.765  1.7385  0.2002 -2.5692
16221TIP3   OH270153   4.349   0.286   1.720 -0.3191  0.3588  0.5189
16221TIP3    H170154   4.424   0.338   1.691 -0.2543  0.1846  0.3718
16221TIP3    H270155   4.275   0.346   1.717 -0.2515  0.4305  0.3097
16222TIP3   OH270156   2.618   3.072  15.322  0.3071  0.3563  0.5295
16222TIP3    H170157   2.696   3.070  15.378  0.4269 -0.9772  0.3295
16222TIP3    H270158   2.551   3.025  15.371 -0.3756  1.4615  0.6793
16223TIP3   OH270159   6.253   2.162  11.891  0.0568 -0.2928  0.1704
16223TIP3    H170160   6.280   2.175  11.981 -0.4517 -0.2539  0.3135
16223TIP3    H270161   6.332   2.128  11.848  0.0180 -1.2713  0.8510
16224TIP3   OH270162   6.208   2.424  12.548 -0.2388 -0.2227 -0.1838
16224TIP3    H170163   6.255   2.503  12.574 -1.4117 -0.3378  2.5275
16224TIP3    H270164   6.190   2.435  12.455 -0.1323  2.5785  0.0956
16225TIP3   OH270165   4.829   0.165  15.676  0.1812  0.3213  0.6573
16225TIP3    H170166   4.759   0.221  15.709 -2.5635 -2.2613 -0.5816
16225TIP3    H270167   4.822   0.170  15.581  0.4358 -1.4741  0.5248
16226TIP3   OH270168   4.379   5.816   6.294 -0.1516  0.0516  0.0100
16226TIP3    H170169   4.423   5.897   6.267  0.2179  0.1066  0.7799
16226TIP3    H270170   4.328   5.791   6.217  0.7305  0.3235 -0.6827
16227TIP3   OH270171   1.288   3.402   2.602 -0.0192  0.0430 -0.0068
16227TIP3    H170172   1.327   3.324   2.564  0.6791 -1.6891  4.0259
16227TIP3    H270173   1.196   3.379   2.616 -0.5964  1.1492 -1.7803
16228TIP3   OH270174   0.167   2.658  12.740  0.0599  0.5917 -0.0795
16228TIP3    H170175   0.224   2.720  12.785  0.7989  1.4433 -2.1395
16228TIP3    H270176   0.219   2.628  12.665 -1.0701 -0.9503 -0.2713
16229TIP3   OH270177   0.732   1.300  13.007  0.7245  0.0939  0.3019
16229TIP3    H170178   0.784   1.346  12.941  1.6871  0.7122  1.4473
16229TIP3    H270179   0.730   1.209  12.978 -0.5218  0.7011 -1.5766
16230TIP3   OH270180   0.236   6.762  16.868  0.0652  0.2516 -0.2178
16230TIP3    H170181   0.311   6.721  16.826  0.3403  0.8497 -0.3252
16230TIP3    H270182   0.199   6.695  16.925 -0.5142 -0.6787 -1.6735
16231TIP3   OH270183   3.632   4.986  10.784  0.3719 -0.6792  0.8877
16231TIP3    H170184   3.578   4.991  10.863  0.3524 -0.6630  0.8740
16231TIP3    H270185   3.653   5.077  10.763  0.9226 -0.7204  1.2524
16232TIP3   OH270186   5.090   3.956  15.093 -0.1952 -0.4785  0.1374
16232TIP3    H170187   5.170   3.920  15.054 -0.2198  0.0833 -0.4232
16232TIP3    H270188   5.019   3.916  15.043 -0.2334  0.0016 -0.1964
16233TIP3   OH270189   1.890   3.007   6.174 -0.0359  0.9455 -0.5833
16233TIP3    H170190   1.867   2.925   6.130 -0.4311  1.1330 -0.7221
16233TIP3    H270191   1.962   2.983   6.232  1.5457  1.0291 -2.4746
16234TIP3   OH270192   1.668   2.566   4.678  0.0584  0.1861 -0.4718
16234TIP3    H170193   1.595   2.513   4.645  0.6180  0.3890 -2.0280
16234TIP3    H270194   1.704   2.513   4.750 -2.5583  0.7731  1.3507
16235TIP3   OH270195   1.967   3.676   4.225  0.3296 -0.1857  0.5576
16235TIP3    H170196   1.876   3.664   4.252  0.5656 -1.9596  0.6002
16235TIP3    H270197   1.963   3.734   4.149 -0.8989 -0.8817  0.0924
16236TIP3   OH270198   4.148   2.582   3.255  0.1534 -0.3646 -0.2973
16236TIP3    H170199   4.115   2.498   3.288 -1.3334  0.6653  0.9203
16236TIP3    H270200   4.199   2.559   3.178  0.2650 -2.4501  0.3630
16237TIP3   OH270201   2.150   0.973   2.615  0.4755  0.6848 -0.4179
16237TIP3    H170202   2.158   0.991   2.709  1.5394 -1.2519 -0.1003
16237TIP3    H270203   2.190   1.049   2.572  1.4770  0.8369  0.7539
16238TIP3   OH270204   3.116   6.147   1.228 -0.2560 -0.4285  0.6135
16238TIP3    H170205   3.085   6.237   1.220  0.1335 -0.4323 -1.1085
16238TIP3    H270206   3.193   6.142   1.171  0.7302 -1.4156  1.9778
16239TIP3   OH270207   1.475   6.661   1.331 -0.3367 -0.0470  0.4787
16239TIP3    H170208   1.500   6.744   1.290 -1.9180 -0.8563 -2.2575
16239TIP3    H270209   1.549   6.602   1.313 -1.0575 -0.4226 -1.3740
16240TIP3   OH270210   4.521   0.251   5.973 -0.0026  0.1738 -0.0012
16240TIP3    H170211   4.604   0.294   5.953  0.1504 -0.1655 -0.0984
16240TIP3    H270212   4.472   0.316   6.023 -0.4994  1.1267 -1.6960
16241TIP3   OH270213   1.349   6.630  15.797  0.1247 -0.1894  0.1802
16241TIP3    H170214   1.416   6.563  15.790  0.6695  0.5311 -2.0322
16241TIP3    H270215   1.324   6.631  15.890  1.1507 -2.3914  0.4894
16242TIP3   OH270216   3.510   1.758   4.086 -0.3820  0.0904 -0.3358
16242TIP3    H170217   3.496   1.683   4.144 -0.0657 -0.7985 -1.3905
16242TIP3    H270218   3.568   1.816   4.135 -1.4432  0.1367  0.9059
16243TIP3   OH270219   2.070   2.969   4.097  0.1756  0.0269  0.8855
16243TIP3    H170220   2.009   3.026   4.051  1.9414  1.8138  0.7030
16243TIP3    H270221   2.117   2.923   4.028  0.4132  0.1215  0.9842
16244TIP3   OH270222   1.002   6.244  12.227 -0.4702 -0.8365  0.2145
16244TIP3    H170223   0.967   6.160  12.197  0.8893 -0.1703 -3.5368
16244TIP3    H270224   0.928   6.305  12.218 -0.1033 -0.6658 -1.7871
16245TIP3   OH270225   4.324   2.609  15.435  0.7487 -0.3885  0.3436
16245TIP3    H170226   4.271   2.631  15.358 -1.0730 -1.9625  1.1122
16245TIP3    H270227   4.386   2.543  15.403 -0.2502 -1.3150  0.3012
16246TIP3   OH270228   5.258   1.760  14.785 -0.2729 -0.1021 -0.1994
16246TIP3    H170229   5.204   1.838  14.794 -1.2463 -0.9076  1.1956
16246TIP3    H270230   5.348   1.793  14.790 -0.6744  0.8767  0.9134
16247TIP3   OH270231   2.471   1.533   3.166  0.2300 -0.1084  0.2726
16247TIP3    H170232   2.539   1.469   3.186 -0.9572 -1.4433  0.0938
16247TIP3    H270233   2.450   1.574   3.251  0.0251 -0.9360  0.6263
16248TIP3   OH270234   6.596   0.687  13.749 -0.1661 -0.3252  0.2288
16248TIP3    H170235   6.513   0.695  13.704 -0.3144  2.2680  0.8694
16248TIP3    H270236   6.573   0.657  13.837 -0.2712 -0.9528 -0.0053
16249TIP3   OH270237   1.202   2.546  16.506  0.1163 -0.5658  0.0635
16249TIP3    H170238   1.106   2.538  16.501  0.1838 -0.8357 -0.9657
16249TIP3    H270239   1.224   2.516  16.594 -0.7637 -0.3287  0.3723
16250TIP3   OH270240   6.290   4.760  16.885 -0.5359  0.4356  0.3259
16250TIP3    H170241   6.372   4.730  16.845 -0.6472  0.2089  0.2676
16250TIP3    H270242   6.301   4.744  16.978 -0.9075 -0.5090  0.2075
16251TIP3   OH270243   6.803   0.856  15.595  0.3834  0.6716  0.0910
16251TIP3    H170244   6.831   0.947  15.604 -1.2936  1.2461 -0.1842
16251TIP3    H270245   6.807   0.839  15.501 -0.6728  0.9468 -0.0175
16252TIP3   OH270246   3.927   5.243  12.725  0.0789 -0.3309  0.1089
16252TIP3    H170247   3.894   5.303  12.791  1.5364  0.9936 -0.3477
16252TIP3    H270248   3.935   5.159  12.771 -1.2960 -0.0254  0.9269
16253TIP3   OH270249   4.111   2.438  11.339 -0.4323 -0.2466  0.3798
16253TIP3    H170250   4.098   2.353  11.296 -0.6545  0.1221 -0.2770
16253TIP3    H270251   4.062   2.500  11.286  0.5784  0.4664  0.2728
16254TIP3   OH270252   1.962   3.372   5.319  0.2813 -0.2240 -0.0063
16254TIP3    H170253   2.028   3.384   5.387  1.0948  1.0587 -0.9948
16254TIP3    H270254   1.881   3.408   5.356  0.8348  0.9182  0.1042
16255TIP3   OH270255   4.521   0.365  16.366  0.1979  0.4986 -0.2741
16255TIP3    H170256   4.615   0.368  16.382  0.1094  0.8527  0.1685
16255TIP3    H270257   4.511   0.400  16.277  0.3349  2.0129  0.2855
16256TIP3   OH270258   1.990   5.030  14.999  0.0114 -0.0025  0.1515
16256TIP3    H170259   2.024   4.945  14.970  0.2137 -0.0267  0.4574
16256TIP3    H270260   2.016   5.091  14.930  2.3561  0.3328  1.2645
16257TIP3   OH270261   3.073   6.721   4.965  0.3634 -0.1702 -0.2344
16257TIP3    H170262   3.057   6.787   4.898  0.6665  1.0614  0.8791
16257TIP3    H270263   3.165   6.733   4.990  0.7333 -1.7211 -0.7540
16258TIP3   OH270264   3.967   4.561   0.057  0.3363 -0.1205 -0.3445
16258TIP3    H170265   3.994   4.649   0.083 -0.5732 -0.3263  1.4258
16258TIP3    H270266   4.047   4.509   0.061  0.8133  0.5548 -1.0704
16259TIP3   OH270267   2.882   6.004  12.968 -0.2191 -0.0168 -0.0870
16259TIP3    H170268   2.894   6.078  12.909 -0.4052 -0.1027 -0.2322
16259TIP3    H270269   2.870   6.043  13.055 -1.4473  0.1678 -0.3310
16260TIP3   OH270270   0.844   3.195   0.082 -0.3649  0.6004 -0.5456
16260TIP3    H170271   0.781   3.267   0.089 -0.4731  0.3062  2.1434
16260TIP3    H270272   0.793   3.116   0.102  0.5682  0.2246  0.4033
16261TIP3   OH270273   3.062   6.340   5.773 -0.0596  0.2844  0.5080
16261TIP3    H170274   3.075   6.273   5.841 -0.1067 -0.1244  0.1185
16261TIP3    H270275   3.015   6.294   5.703  1.1481  0.3595 -0.3648
16262TIP3   OH270276   3.065   4.175   5.717 -0.0700  0.0810  0.4659
16262TIP3    H170277   3.156   4.146   5.723 -0.3619 -0.9719 -0.1581
16262TIP3    H270278   3.034   4.174   5.808  0.9154  1.7191  0.8446
16263TIP3   OH270279   2.483   2.828  12.038  0.1745 -0.0981  0.1607
16263TIP3    H170280   2.464   2.898  12.101 -0.2927 -0.7973  0.8048
16263TIP3    H270281   2.534   2.871  11.970 -0.1945  0.9024  0.4975
16264TIP3   OH270282   3.565   3.384  13.216 -0.1696  0.1727 -0.3194
16264TIP3    H170283   3.615   3.306  13.243 -1.4903 -0.4834  0.2791
16264TIP3    H270284   3.488   3.383  13.273 -1.1351  0.8704 -1.6088
16265TIP3   OH270285   0.577   0.791  11.482 -0.4892  0.3836  0.2113
16265TIP3    H170286   0.662   0.745  11.483 -0.4320  0.4410 -0.8274
16265TIP3    H270287   0.579   0.842  11.401 -1.4132  0.5952  0.3181
16266TIP3   OH270288   3.010   5.427  13.727  0.1341  0.4722 -0.6103
16266TIP3    H170289   3.088   5.407  13.674 -0.2355 -4.3703  0.3880
16266TIP3    H270290   2.944   5.366  13.695 -2.4619  2.6936  0.3749
16267TIP3   OH270291   0.486   1.032   4.621 -0.0112 -0.2606 -0.1973
16267TIP3    H170292   0.572   0.994   4.640 -0.3096 -0.2816  1.1779
16267TIP3    H270293   0.433   0.958   4.590 -0.3311 -0.8094  1.6107
16268TIP3   OH270294   6.624   2.215  11.209 -0.4479 -0.4763 -0.2879
16268TIP3    H170295   6.612   2.135  11.157  1.4037 -0.9576  0.0136
16268TIP3    H270296   6.599   2.189  11.298  1.0623 -0.9903 -0.0047
16269TIP3   OH270297   2.443   1.945   2.439  0.3146  0.3166 -0.0511
16269TIP3    H170298   2.391   1.984   2.369  0.1147  0.3509  0.1163
16269TIP3    H270299   2.515   1.900   2.393  0.9108  1.4065 -0.2141
16270TIP3   OH270300   6.376   4.226  12.711 -0.0565  0.0422 -0.4545
16270TIP3    H170301   6.289   4.266  12.706 -0.3266 -0.7249 -2.3677
16270TIP3    H270302   6.370   4.165  12.784 -0.8415  0.6535  0.0031
16271TIP3   OH270303   0.609   2.879   4.528 -0.4013 -0.1563 -0.0359
16271TIP3    H170304   0.596   2.805   4.587  0.7958 -1.0867 -0.9008
16271TIP3    H270305   0.524   2.922   4.524 -0.9873 -1.2127  0.8564
16272TIP3   OH270306   0.197   2.442   5.253  0.3032 -0.3515 -0.3347
16272TIP3    H170307   0.227   2.470   5.339  0.3405 -0.9344 -0.1566
16272TIP3    H270308   0.151   2.360   5.269 -2.5698  1.1664 -0.3932
16273TIP3   OH270309   3.783   5.517  14.320 -0.3424  0.0764  0.4618
16273TIP3    H170310   3.826   5.597  14.349 -0.6940  0.7680 -0.8634
16273TIP3    H270311   3.849   5.472  14.268  0.0252 -0.7650  1.6325
16274TIP3   OH270312   5.715   4.404   1.165  0.0196 -0.0606  0.1897
16274TIP3    H170313   5.751   4.362   1.088  1.0751  1.0336  0.0709
16274TIP3    H270314   5.715   4.498   1.144 -0.9042  0.1381  1.0108
16275TIP3   OH270315   6.107   5.220   2.313 -0.7010 -0.1457  0.1037
16275TIP3    H170316   6.074   5.309   2.318 -1.2774 -0.4241  1.6408
16275TIP3    H270317   6.156   5.217   2.231  0.2216  1.8927  0.5443
16276TIP3   OH270318   0.949   3.110   1.141 -0.0088  0.1220  0.0294
16276TIP3    H170319   0.872   3.122   1.086 -0.4520  0.6063  0.7585
16276TIP3    H270320   1.017   3.080   1.080 -1.4216 -2.7096 -0.2146
16277TIP3   OH270321   2.267   6.655   0.469 -0.5900  0.3330  0.1127
16277TIP3    H170322   2.330   6.671   0.539  0.0416 -0.1202 -0.3487
16277TIP3    H270323   2.204   6.593   0.507  0.0491 -0.3267  0.1167
16278TIP3   OH270324   5.978   5.176   4.713  0.0371 -0.0389  0.0694
16278TIP3    H170325   5.930   5.230   4.651 -1.0704 -0.4185  0.5787
16278TIP3    H270326   5.910   5.132   4.764  0.9215 -1.1130  0.3468
16279TIP3   OH270327   3.146   6.810  15.787  0.5257  0.0458  0.6951
16279TIP3    H170328   3.219   6.868  15.767  0.3567  0.7169  1.9223
16279TIP3    H270329   3.169   6.727  15.746 -0.2558  1.5444 -2.9941
16280TIP3   OH270330   6.484   6.003  13.154 -0.0670  0.6060  0.6747
16280TIP3    H170331   6.430   5.964  13.222  0.6106  0.1908  0.9864
16280TIP3    H270332   6.429   6.003  13.076  0.0270 -1.3242  0.5842
16281TIP3   OH270333   1.504   6.748   4.298  0.3173  0.2705  0.4871
16281TIP3    H170334   1.456   6.669   4.273 -1.0194  1.2898 -0.2492
16281TIP3    H270335   1.558   6.768   4.222  1.3660 -0.4545  1.0328
16282TIP3   OH270336   2.791   5.424  16.079  0.0918  0.5206 -0.3359
16282TIP3    H170337   2.700   5.445  16.057 -0.7475 -1.5636  1.0375
16282TIP3    H270338   2.837   5.508  16.072 -1.9815  1.6536 -0.8073
16283TIP3   OH270339   5.621   5.213  13.638 -0.2434 -0.4231 -0.2497
16283TIP3    H170340   5.560   5.254  13.576  1.0496  1.3726 -0.3718
16283TIP3    H270341   5.573   5.138  13.672 -2.3111  0.6149 -0.7879
16284TIP3   OH270342   2.781   1.502   5.307 -1.0689 -0.1138  0.1069
16284TIP3    H170343   2.723   1.540   5.241 -1.5741 -0.9828  0.0433
16284TIP3    H270344   2.863   1.551   5.298 -1.1481 -0.1830 -1.1199
16285TIP3   OH270345   0.058   2.753   6.358 -0.4415  0.0478 -0.1156
16285TIP3    H170346  -0.031   2.716   6.358  0.2344 -1.6263  1.4773
16285TIP3    H270347   0.110   2.691   6.409  1.6872  0.9467 -1.1303
16286TIP3   OH270348   0.532   6.790  12.499 -0.4017 -0.6409  0.4479
16286TIP3    H170349   0.509   6.823  12.586 -1.3750  2.0306 -0.7777
16286TIP3    H270350   0.590   6.857  12.462 -2.5198 -0.1416 -2.1457
16287TIP3   OH270351   3.943   2.012   0.626  0.8232 -0.3022  0.0349
16287TIP3    H170352   3.848   2.011   0.626  0.7610  1.1868  2.4816
16287TIP3    H270353   3.967   1.980   0.713  2.5895 -1.7220 -0.9384
16288TIP3   OH270354   6.493   5.296  11.157 -0.2091  1.1061  0.2307
16288TIP3    H170355   6.560   5.363  11.175  1.0017 -0.1151  0.3874
16288TIP3    H270356   6.542   5.224  11.118 -1.3142 -0.1606  1.1620
16289TIP3   OH270357   0.349   4.314   4.470  0.3079 -0.7386 -0.7551
16289TIP3    H170358   0.362   4.409   4.461 -2.3180 -0.3730 -1.3382
16289TIP3    H270359   0.394   4.292   4.552  0.8292  1.0513 -0.5226
16290TIP3   OH270360   4.027   2.008  10.854  0.2668  0.5260 -0.1677
16290TIP3    H170361   4.059   1.918  10.862 -0.9836  0.1813  1.0377
16290TIP3    H270362   4.100   2.055  10.814  1.6296 -0.6313  0.8827
16291TIP3   OH270363   6.089   6.722  14.877  0.2177 -0.1036 -0.1656
16291TIP3    H170364   6.072   6.628  14.876 -0.6384  0.0603 -0.8346
16291TIP3    H270365   6.170   6.732  14.827  1.3118 -0.6652  1.4242
16292TIP3   OH270366   6.060   2.051   2.455  0.2938  0.5384 -0.7439
16292TIP3    H170367   5.976   2.063   2.409 -1.0856 -1.8250  1.0017
16292TIP3    H270368   6.069   1.956   2.463  0.5766  0.8329  3.6050
16293TIP3   OH270369   5.316   4.131   4.107 -0.0470 -0.1547 -0.1697
16293TIP3    H170370   5.408   4.107   4.105 -0.3195 -1.1744 -1.3691
16293TIP3    H270371   5.276   4.069   4.169  0.0848  0.3587  0.4345
16294TIP3   OH270372   2.560   0.622  14.922  0.4451 -0.3086 -0.6301
16294TIP3    H170373   2.637   0.626  14.979  1.1676  1.9275 -1.6868
16294TIP3    H270374   2.586   0.563  14.851  1.1737  0.4015 -0.9558
16295TIP3   OH270375   6.423   3.854  12.903  0.0686  0.2186  0.2063
16295TIP3    H170376   6.400   3.779  12.958 -0.7057  0.3225  0.0220
16295TIP3    H270377   6.349   3.865  12.845 -0.0763  1.4936  0.6137
16296TIP3   OH270378   4.241   0.312   1.267  0.3806 -0.5081 -0.5973
16296TIP3    H170379   4.300   0.371   1.314 -2.0694  1.0538  0.6507
16296TIP3    H270380   4.251   0.336   1.175  1.8423 -0.4326 -0.4271
16297TIP3   OH270381   4.844   1.305  12.066 -0.1394 -0.2129  0.0713
16297TIP3    H170382   4.910   1.373  12.072 -0.1382 -0.1462 -0.6889
16297TIP3    H270383   4.892   1.223  12.081  0.3458 -0.2719 -1.6995
16298TIP3   OH270384   5.246   4.441  16.376 -0.2042 -0.5539 -0.2300
16298TIP3    H170385   5.231   4.536  16.374  0.6849 -0.3811  0.6620
16298TIP3    H270386   5.329   4.432  16.424  0.0456 -1.7425 -0.8779
16299TIP3   OH270387   0.007   6.273  16.327 -0.3278  0.3903  0.0433
16299TIP3    H170388  -0.007   6.188  16.371  0.8982 -0.2846 -0.8667
16299TIP3    H270389  -0.073   6.286  16.276 -0.9105  0.2226  0.8940
16300TIP3   OH270390   3.448   6.167  14.541  0.5058  0.4236 -0.3019
16300TIP3    H170391   3.476   6.119  14.462  0.0637 -1.5430  0.7003
16300TIP3    H270392   3.381   6.227  14.510  0.5738 -0.0923 -1.4874
16301TIP3   OH270393   0.209   3.596   4.330 -0.2990 -0.3750  0.2094
16301TIP3    H170394   0.176   3.637   4.409  0.1102 -0.3403  0.3661
16301TIP3    H270395   0.196   3.502   4.345 -1.3058 -0.3008 -0.1827
16302TIP3   OH270396   1.574   0.588  12.914  0.6981 -1.3109  0.0287
16302TIP3    H170397   1.646   0.651  12.919 -1.0731  0.5735  2.4429
16302TIP3    H270398   1.495   0.640  12.927 -1.2044 -3.2830 -2.9490
16303TIP3   OH270399   0.203   5.566   1.807 -0.3471  0.2967  0.1929
16303TIP3    H170400   0.248   5.485   1.783 -0.4441  0.1155  0.6218
16303TIP3    H270401   0.140   5.581   1.737  0.3929  0.5595 -0.4227
16304TIP3   OH270402   6.687   0.953   2.531  0.1822 -0.1645  0.2449
16304TIP3    H170403   6.623   0.986   2.595  0.3690 -1.1516  0.9482
16304TIP3    H270404   6.727   1.032   2.495 -0.2143  0.4162  1.0607
16305TIP3   OH270405   3.089   0.477   5.140 -0.1869 -0.6073 -0.4694
16305TIP3    H170406   3.134   0.505   5.220  1.0061  1.2586 -1.7477
16305TIP3    H270407   3.117   0.387   5.126 -0.2962 -0.8938  1.1252
16306TIP3   OH270408   5.304   1.451   3.688  0.2395 -0.3416  0.1315
16306TIP3    H170409   5.344   1.491   3.611 -0.8107 -1.3195 -0.9370
16306TIP3    H270410   5.378   1.419   3.740  0.9466  0.2403 -0.5079
16307TIP3   OH270411   1.709   5.049   1.744 -0.7875  0.0461  0.3725
16307TIP3    H170412   1.750   5.010   1.821  0.3329  0.6947  0.1139
16307TIP3    H270413   1.692   4.974   1.686 -1.4642 -0.4205  1.1572
16308TIP3   OH270414   3.037   3.952  11.513  0.0275 -0.2334  0.5767
16308TIP3    H170415   3.057   3.925  11.423  2.4036  0.2816  0.9039
16308TIP3    H270416   2.993   4.036  11.504 -2.8095 -1.7534 -0.2235
16309TIP3   OH270417   0.770   1.395  13.783 -0.2547 -0.0346  0.0096
16309TIP3    H170418   0.677   1.369  13.783 -0.8664  2.0746  0.1819
16309TIP3    H270419   0.811   1.336  13.846 -1.8920  0.4052  1.5239
16310TIP3   OH270420   2.107   5.311  13.690  0.1132  0.4413  0.2052
16310TIP3    H170421   2.179   5.374  13.695  0.5281  0.0303 -0.4359
16310TIP3    H270422   2.090   5.302  13.596  1.2096 -1.6715  0.1635
16311TIP3   OH270423   1.646   1.341  13.649  0.3559  0.6801 -0.1810
16311TIP3    H170424   1.710   1.403  13.685 -0.8611  2.3187 -0.7929
16311TIP3    H270425   1.680   1.255  13.674  0.6699  1.6709  3.0433
16312TIP3   OH270426   3.117   2.439  14.300 -0.7332  0.4243  0.7834
16312TIP3    H170427   3.100   2.533  14.305  1.4800  0.8367  1.4624
16312TIP3    H270428   3.165   2.420  14.381  0.9624 -0.7980 -0.4812
16313TIP3   OH270429   4.668   3.575   5.623  0.0498  0.4032  0.2665
16313TIP3    H170430   4.751   3.535   5.650 -1.3044 -1.4439  1.8375
16313TIP3    H270431   4.643   3.528   5.544 -1.0263 -1.2215  1.5391
16314TIP3   OH270432   2.801   2.839  14.555  0.1733 -0.0378 -0.2924
16314TIP3    H170433   2.789   2.897  14.479  0.0356 -2.2283 -1.9741
16314TIP3    H270434   2.886   2.865  14.591  0.6946  0.4005 -1.7746
16315TIP3   OH270435   6.775   3.847  14.278  0.2251  0.6360  0.2573
16315TIP3    H170436   6.775   3.922  14.218 -0.9236  0.9011  0.5751
16315TIP3    H270437   6.865   3.814  14.274  0.8237  2.2018  0.3344
16316TIP3   OH270438   2.791   5.464   5.043 -0.2436 -0.0172 -0.2284
16316TIP3    H170439   2.781   5.557   5.063  1.6371  0.4087 -1.2170
16316TIP3    H270440   2.728   5.448   4.973 -3.4812 -0.4522  2.6413
16317TIP3   OH270441   5.939   2.012   4.232 -0.3285  0.1162 -0.0535
16317TIP3    H170442   5.867   1.950   4.244 -0.0517 -0.4969 -1.4593
16317TIP3    H270443   5.920   2.056   4.149 -0.5813  2.0026  0.9906
16318TIP3   OH270444   5.159   4.740  16.373 -0.3345  0.9387  0.2569
16318TIP3    H170445   5.187   4.768  16.460 -1.0313  3.8155 -0.4077
16318TIP3    H270446   5.124   4.819  16.332 -3.9642 -1.2334 -1.0938
16319TIP3   OH270447   6.512   6.634   3.556  0.2421 -0.1957 -0.5389
16319TIP3    H170448   6.547   6.600   3.473 -1.3205  0.7643 -1.6190
16319TIP3    H270449   6.504   6.728   3.542 -0.5182 -0.0983  0.5283
16320TIP3   OH270450   2.516   5.837  12.889 -0.3239 -0.5298 -0.4263
16320TIP3    H170451   2.534   5.815  12.981  0.7298 -0.0592 -0.5107
16320TIP3    H270452   2.599   5.822  12.844 -0.0621  1.9131 -0.7998
16321TIP3   OH270453   4.561   0.467   0.262  0.2104 -0.2120 -0.1021
16321TIP3    H170454   4.502   0.391   0.270 -2.2573  1.7716  1.2893
16321TIP3    H270455   4.509   0.532   0.214  1.4754  1.3916  0.6520
16322TIP3   OH270456   4.664   2.529   2.871 -0.0192  0.0247 -0.5949
16322TIP3    H170457   4.725   2.522   2.944 -1.2429 -0.1607  0.4195
16322TIP3    H270458   4.659   2.440   2.836 -1.9393 -0.6073  1.1748
16323TIP3   OH270459   4.720   5.548  13.724  0.3336 -0.0819 -0.1436
16323TIP3    H170460   4.651   5.483  13.714  1.9605 -2.2242  1.9925
16323TIP3    H270461   4.802   5.499  13.712  1.5797  1.7090  0.6973
16324TIP3   OH270462   6.679   0.220   2.920 -0.4281  0.2086 -0.2772
16324TIP3    H170463   6.700   0.172   3.001 -0.2305  1.7330  0.5831
16324TIP3    H270464   6.588   0.248   2.932 -0.6377 -0.1818 -0.9088
16325TIP3   OH270465   3.977   1.677   0.141 -0.6870 -0.1584 -0.3333
16325TIP3    H170466   3.882   1.685   0.154 -0.5495  0.9710  0.0258
16325TIP3    H270467   4.004   1.613   0.207 -0.8769  1.1741  1.0542
16326TIP3   OH270468   0.843   5.927  13.856  0.5654  0.1852 -0.0344
16326TIP3    H170469   0.798   5.843  13.850  0.6700 -0.0107  1.7088
16326TIP3    H270470   0.925   5.914  13.809 -0.2316 -0.1040 -1.3762
16327TIP3   OH270471   2.582   0.889  13.188 -0.0816 -0.1492  0.0537
16327TIP3    H170472   2.552   0.825  13.253 -2.2811  0.2877 -0.4855
16327TIP3    H270473   2.645   0.840  13.134  0.6793 -0.9169  1.5986
16328TIP3   OH270474   5.964   6.067  12.668 -0.1818  0.6226 -0.2408
16328TIP3    H170475   6.011   6.026  12.596 -1.3022  1.1647 -1.3157
16328TIP3    H270476   5.878   6.089  12.631 -0.3260  2.0664  0.8818
16329TIP3   OH270477   2.313   1.004  12.835  0.1331  0.0399  0.6419
16329TIP3    H170478   2.294   1.095  12.812  0.4468 -0.2838 -0.9583
16329TIP3    H270479   2.385   0.979  12.776  1.0888 -0.7748  2.1093
16330TIP3   OH270480   3.511   6.690   6.865 -0.5413 -0.2971 -0.1085
16330TIP3    H170481   3.458   6.769   6.878  0.9632  0.4788  1.4755
16330TIP3    H270482   3.601   6.720   6.874  0.0905 -1.9866 -0.7186
16331TIP3   OH270483   4.377   6.328  13.340  0.2786 -0.3140 -0.4065
16331TIP3    H170484   4.385   6.242  13.300  0.6759 -0.7786  0.6652
16331TIP3    H270485   4.351   6.310  13.430  0.9589  0.6660 -0.0088
16332TIP3   OH270486   4.239   2.386  14.156  0.6276  0.2605  0.2495
16332TIP3    H170487   4.166   2.379  14.094  0.2378  0.4568  0.6842
16332TIP3    H270488   4.286   2.465  14.127  1.6840 -0.8305 -1.0930
16333TIP3   OH270489   5.564   2.477  16.875  0.0752  0.1166 -0.2034
16333TIP3    H170490   5.658   2.494  16.876 -0.0780  1.3303 -2.3309
16333TIP3    H270491   5.536   2.502  16.786 -2.0826 -1.1314  0.0776
16334TIP3   OH270492   2.447   5.546   3.800  1.2213  0.2915 -0.4013
16334TIP3    H170493   2.385   5.475   3.785  0.7821  0.1360  1.9341
16334TIP3    H270494   2.404   5.602   3.866  2.9701  0.9069  0.2410
16335TIP3   OH270495   5.895   6.726  10.289  0.0394 -0.0286 -0.1736
16335TIP3    H170496   5.840   6.664  10.336  1.5908 -1.2805  0.0163
16335TIP3    H270497   5.982   6.716  10.327  1.0839 -0.2387 -2.5041
16336TIP3   OH270498   6.605   0.488  14.717 -0.8520 -0.5410 -0.1102
16336TIP3    H170499   6.656   0.533  14.650 -1.7651  1.1148  0.2904
16336TIP3    H270500   6.671   0.452  14.777 -0.1147  0.4091 -0.3500
16337TIP3   OH270501   4.078   1.785  16.946  0.5822  0.1919 -0.1293
16337TIP3    H170502   3.998   1.734  16.952  1.3158 -0.9321  0.2795
16337TIP3    H270503   4.049   1.874  16.923 -0.8737  0.1796  1.6078
16338TIP3   OH270504   1.559   3.110   5.643  0.3428  0.0485  0.3331
16338TIP3    H170505   1.504   3.035   5.664  1.8445 -0.1742  3.8208
16338TIP3    H270506   1.615   3.080   5.572 -2.7923 -0.2721 -2.0792
16339TIP3   OH270507   6.241   3.067  10.898 -0.2367 -0.5022  0.0522
16339TIP3    H170508   6.194   3.012  10.961 -2.3134 -1.1435 -1.9710
16339TIP3    H270509   6.220   3.028  10.813  0.2636  1.9902 -1.2467
16340TIP3   OH270510   2.927   1.729   5.234 -0.4692  0.1117 -0.3738
16340TIP3    H170511   2.862   1.787   5.274 -0.6406  0.0593 -0.5751
16340TIP3    H270512   3.009   1.779   5.237 -0.7803  0.6979 -1.2693
16341TIP3   OH270513   3.809   4.361   5.485  0.2444 -0.4421 -0.1266
16341TIP3    H170514   3.865   4.420   5.535  1.4542 -2.8153  1.3793
16341TIP3    H270515   3.825   4.274   5.522  0.9389 -2.2540 -4.4086
16342TIP3   OH270516   4.392   6.321   3.939 -0.1656 -0.4570 -0.4816
16342TIP3    H170517   4.303   6.306   3.969 -0.3800  0.6560 -0.5195
16342TIP3    H270518   4.385   6.393   3.877  0.4708 -1.7936 -2.1395
16343TIP3   OH270519   4.550   1.653  14.331 -0.3327 -0.4089 -0.4000
16343TIP3    H170520   4.609   1.651  14.256 -2.9751  0.2595 -2.6053
16343TIP3    H270521   4.491   1.579  14.317 -1.0299 -0.1066  0.8741
16344TIP3   OH270522   3.257   5.423  13.092  0.0658 -0.2645 -0.3644
16344TIP3    H170523   3.290   5.453  13.007  0.1403  0.4948 -0.0737
16344TIP3    H270524   3.334   5.425  13.149  0.0638 -0.9895 -0.3311
16345TIP3   OH270525   2.089   2.778   1.014  0.4949  0.1159  0.0589
16345TIP3    H170526   2.032   2.818   1.080  0.2447 -0.7621  0.3880
16345TIP3    H270527   2.070   2.684   1.020 -0.7320  0.1581 -2.3909
16346TIP3   OH270528   1.127   0.565   6.079  0.2496 -0.0938  0.1913
16346TIP3    H170529   1.051   0.601   6.124 -1.0516 -1.8572 -0.5665
16346TIP3    H270530   1.092   0.524   6.000  1.6895 -2.6326  0.7988
16347TIP3   OH270531   5.296   3.625  10.685 -0.3268  0.2712 -0.3326
16347TIP3    H170532   5.312   3.718  10.701 -1.0472  0.4644 -0.7267
16347TIP3    H270533   5.203   3.613  10.701  0.0594 -0.7165  1.2678
16348TIP3   OH270534   2.742   1.968  12.082 -0.3320 -0.2557 -0.0608
16348TIP3    H170535   2.790   1.900  12.129  0.7578  0.9247  0.5613
16348TIP3    H270536   2.709   2.027  12.150 -1.3033 -0.1673 -0.5844
16349TIP3   OH270537   2.960   3.194  13.769 -0.0438  0.1363 -0.6452
16349TIP3    H170538   2.962   3.192  13.864 -1.6233 -0.7829 -0.6243
16349TIP3    H270539   2.995   3.281  13.746  1.1128  0.0440  0.7218
16350TIP3   OH270540   6.018   5.024  11.635 -0.8873  0.0908  0.2466
16350TIP3    H170541   5.974   5.006  11.552 -2.4368 -0.4433  1.1693
16350TIP3    H270542   6.101   5.065  11.609 -0.7279 -1.2863 -1.6187
16351TIP3   OH270543   0.291   6.174  14.095  0.2262 -0.5746  0.3397
16351TIP3    H170544   0.233   6.199  14.166  1.4806 -1.5593  1.7381
16351TIP3    H270545   0.376   6.160  14.136  1.1176 -0.6214 -1.4351
16352TIP3   OH270546   0.679   4.382  13.584  0.0913  0.1659 -0.6110
16352TIP3    H170547   0.755   4.361  13.530 -0.9048 -1.8298 -1.2737
16352TIP3    H270548   0.701   4.347  13.671 -0.4603 -1.2811 -1.0457
16353TIP3   OH270549   0.971   1.558  13.703 -0.8241  0.0376 -0.1904
16353TIP3    H170550   0.895   1.501  13.719  0.3386 -1.8758 -1.2452
16353TIP3    H270551   0.997   1.538  13.613  1.8271 -0.4626  0.6476
16354TIP3   OH270552   0.489   0.191  12.078 -0.3277  0.0661 -0.3221
16354TIP3    H170553   0.492   0.104  12.116 -1.4609  1.0206  2.0763
16354TIP3    H270554   0.566   0.196  12.020 -0.5229 -2.6355 -0.8457
16355TIP3   OH270555   1.529   5.656  17.249  0.1789  0.5940 -0.2110
16355TIP3    H170556   1.462   5.724  17.241  1.0669  1.3588 -1.2998
16355TIP3    H270557   1.496   5.584  17.196 -0.3194  0.5324  0.1805
16356TIP3   OH270558   4.711   2.506  14.338  0.2633  0.0736 -0.0021
16356TIP3    H170559   4.708   2.523  14.244  0.3546  0.8760  0.1362
16356TIP3    H270560   4.791   2.456  14.351  0.6161  0.5743 -0.2512
16357TIP3   OH270561   2.728   4.617   2.658 -0.1433 -0.2214 -0.2753
16357TIP3    H170562   2.682   4.563   2.722  0.2358 -0.0452  0.1533
16357TIP3    H270563   2.759   4.692   2.709  0.2758 -0.1483 -0.6369
16358TIP3   OH270564   4.952   6.647   3.941  0.1797 -0.2117  0.2109
16358TIP3    H170565   4.858   6.635   3.928  0.3303 -0.4447 -0.7601
16358TIP3    H270566   4.973   6.726   3.891  0.3889  0.1984  0.9449
16359TIP3   OH270567   3.982   0.183  13.307 -0.0084 -0.1255  0.2950
16359TIP3    H170568   3.952   0.095  13.330 -3.6427  0.7614 -0.6538
16359TIP3    H270569   3.967   0.189  13.213  1.1764  1.1475  0.1890
16360TIP3   OH270570   4.358   5.889  11.243 -0.0264 -0.5470 -0.7820
16360TIP3    H170571   4.274   5.849  11.220 -1.6146  2.0142  0.3158
16360TIP3    H270572   4.383   5.939  11.165 -0.5697  0.3303 -0.4062
16361TIP3   OH270573   2.582   3.680   3.522 -0.3563  0.3885 -0.4618
16361TIP3    H170574   2.673   3.702   3.544 -0.8050  2.7476 -0.7406
16361TIP3    H270575   2.586   3.592   3.485  1.7433  0.2647 -0.0105
16362TIP3   OH270576   1.274   1.573  15.880  0.0662 -0.2432  0.2425
16362TIP3    H170577   1.320   1.657  15.888 -0.7076  0.1110  1.1273
16362TIP3    H270578   1.293   1.528  15.963  0.1722 -0.7897 -0.0767
16363TIP3   OH270579   5.814   3.537   0.505  0.1348  0.6628  0.2926
16363TIP3    H170580   5.766   3.619   0.514  1.3167  1.0580  3.5761
16363TIP3    H270581   5.757   3.482   0.450 -2.0362  2.6268  0.4902
16364TIP3   OH270582   4.909   1.776   6.086 -0.0190  0.3451  0.0532
16364TIP3    H170583   4.829   1.823   6.111  0.1290 -0.0722  1.3506
16364TIP3    H270584   4.888   1.684   6.099  0.5904  0.2194  0.1553
16365TIP3   OH270585   1.655   6.806   4.555 -0.0512 -0.1939  0.0065
16365TIP3    H170586   1.643   6.735   4.618  0.1995  0.6435  1.0162
16365TIP3    H270587   1.593   6.787   4.485  0.6037 -1.8570 -0.1482
16366TIP3   OH270588   1.607   1.125   3.919  0.3456 -0.1958 -0.2843
16366TIP3    H170589   1.674   1.194   3.923 -1.5571  1.9045 -2.4860
16366TIP3    H270590   1.569   1.134   3.831 -0.4791 -3.6090 -0.3390
16367TIP3   OH270591   5.130   5.372   4.149  0.6734  0.4292  0.6851
16367TIP3    H170592   5.095   5.459   4.130  0.7109  0.3462  0.2512
16367TIP3    H270593   5.060   5.330   4.200  0.1038  0.2404 -0.2457
16368TIP3   OH270594   1.397   4.719   3.605 -0.1284  0.0135  0.0262
16368TIP3    H170595   1.312   4.705   3.563 -0.6248  1.3813  0.5472
16368TIP3    H270596   1.442   4.781   3.548 -1.5637  3.4178  2.4167
16369TIP3   OH270597   4.236   4.007   2.241 -0.0925  0.3304  0.3326
16369TIP3    H170598   4.178   4.036   2.311  0.6389 -1.4560  1.6904
16369TIP3    H270599   4.312   4.065   2.247 -0.9807  1.6059 -0.4133
16370TIP3   OH270600   5.060   1.847  13.088  0.2032 -0.1783  0.1413
16370TIP3    H170601   5.148   1.833  13.124  1.4416  0.4579 -2.4522
16370TIP3    H270602   5.039   1.764  13.045  0.2294  0.1886 -0.5882
16371TIP3   OH270603   2.261   6.287   1.986  0.2924  0.9029 -0.2610
16371TIP3    H170604   2.314   6.218   1.946 -0.1471  0.1819  0.3874
16371TIP3    H270605   2.235   6.252   2.071  0.4871  2.0789  0.2962
16372TIP3   OH270606   5.817   1.979  12.120  0.1278  0.0664  0.7126
16372TIP3    H170607   5.868   1.898  12.117 -1.3443 -0.8582  0.0121
16372TIP3    H270608   5.787   1.985  12.211 -0.0348 -0.3448  0.6849
16373TIP3   OH270609   1.450   2.014  14.984  0.1531 -0.3687 -0.0777
16373TIP3    H170610   1.472   2.032  14.892 -1.8563 -1.2132 -0.7390
16373TIP3    H270611   1.521   1.957  15.014  1.1414  0.3841 -0.9203
16374TIP3   OH270612   0.407   1.239   3.396  0.3145 -0.0062  0.0138
16374TIP3    H170613   0.446   1.152   3.383  0.8240  0.2034  0.1310
16374TIP3    H270614   0.441   1.267   3.481 -0.7346 -0.1637  0.4891
16375TIP3   OH270615   2.920   1.287  12.006 -0.4136 -0.1255 -0.6482
16375TIP3    H170616   2.971   1.263  11.929 -2.1757  0.9359 -2.1967
16375TIP3    H270617   2.862   1.213  12.021  1.2495 -1.1734  0.8913
16376TIP3   OH270618   6.763   2.348   3.358 -0.3513  0.1962 -0.0665
16376TIP3    H170619   6.843   2.296   3.349 -0.4693  0.2905 -1.8350
16376TIP3    H270620   6.694   2.282   3.370 -0.2410  0.0455 -0.2593
16377TIP3   OH270621   1.838   4.243   2.218 -0.6345 -0.1220 -0.1886
16377TIP3    H170622   1.850   4.182   2.145  0.7543  0.4916 -0.4896
16377TIP3    H270623   1.826   4.187   2.294 -0.6313 -0.7695 -0.6564
16378TIP3   OH270624   4.247   1.171   2.487  0.4577 -0.2131  0.3463
16378TIP3    H170625   4.236   1.170   2.582 -1.3967 -0.7756  0.1598
16378TIP3    H270626   4.226   1.262   2.462 -1.4783 -0.6491  0.2629
16379TIP3   OH270627   4.008   1.579   4.872  0.1305  0.0042  0.2304
16379TIP3    H170628   4.000   1.581   4.777 -0.7770  1.2779  0.3225
16379TIP3    H270629   4.042   1.492   4.891 -0.9985 -0.7533 -1.1575
16380TIP3   OH270630   2.725   1.496   2.350 -0.0887 -0.1294 -0.0640
16380TIP3    H170631   2.739   1.441   2.273 -0.2156 -0.5598  0.2157
16380TIP3    H270632   2.630   1.500   2.359 -0.0661 -0.7406  0.5308
16381TIP3   OH270633   6.296   2.158  16.681 -0.5482  0.1761 -0.4273
16381TIP3    H170634   6.281   2.227  16.616 -1.6422  0.8915  0.5726
16381TIP3    H270635   6.305   2.204  16.764  2.0331 -0.6402 -0.2119
16382TIP3   OH270636   0.735   6.333   2.662  0.2968 -0.0305 -0.0592
16382TIP3    H170637   0.744   6.371   2.574  1.0249 -0.6206 -0.2481
16382TIP3    H270638   0.750   6.406   2.721 -2.6349  0.9219 -0.4099
16383TIP3   OH270639   4.914   2.596   4.902 -0.5175 -0.2337  0.0757
16383TIP3    H170640   4.871   2.641   4.975 -0.3774  0.5092 -0.2972
16383TIP3    H270641   5.007   2.597   4.924 -0.2768  1.4981 -0.9058
16384TIP3   OH270642   4.541   5.805  13.840  0.1903 -0.6214 -0.7040
16384TIP3    H170643   4.548   5.729  13.898 -1.6044  0.1051  0.5411
16384TIP3    H270644   4.518   5.877  13.899 -0.4790  0.3789 -2.1717
16385TIP3   OH270645   5.309   2.228   3.210 -0.2590 -0.0948  0.2926
16385TIP3    H170646   5.315   2.133   3.217 -0.2901 -0.0552  0.8772
16385TIP3    H270647   5.287   2.257   3.298 -1.0545  0.3925 -0.0613
16386TIP3   OH270648   3.030   1.901   2.650  0.5469 -0.2894  0.1433
16386TIP3    H170649   3.017   1.877   2.558  1.7772  0.3214 -0.1933
16386TIP3    H270650   2.947   1.878   2.692 -0.7153  1.1651 -1.4864
16387TIP3   OH270651   0.018   4.117   0.165 -0.6414 -0.8198  0.0666
16387TIP3    H170652  -0.068   4.159   0.175 -0.3759  0.2901 -1.9357
16387TIP3    H270653   0.070   4.152   0.236 -2.1630 -2.4198  2.0397
16388TIP3   OH270654   1.815   1.724   3.646  0.1619  0.1220 -0.1439
16388TIP3    H170655   1.849   1.639   3.672  3.0645  0.9174 -1.1452
16388TIP3    H270656   1.786   1.713   3.556 -0.5331 -0.0716  0.0970
16389TIP3   OH270657   5.943   2.275  13.107  0.0588 -0.1539  0.4825
16389TIP3    H170658   5.967   2.367  13.119  2.6557 -0.1980 -3.5007
16389TIP3    H270659   6.008   2.226  13.157  0.9314  0.1065 -0.3800
16390TIP3   OH270660   6.171   6.709   6.540 -0.7360  0.0071 -0.7775
16390TIP3    H170661   6.189   6.802   6.555 -1.4921  0.0996 -0.3791
16390TIP3    H270662   6.082   6.708   6.505 -0.3129 -0.4885 -1.8487
16391TIP3   OH270663   1.484   5.306  17.140  0.6702  0.2055  0.2943
16391TIP3    H170664   1.502   5.328  17.231 -0.1708 -1.2755  0.8505
16391TIP3    H270665   1.417   5.237  17.146  0.3806  0.3259 -1.4518
16392TIP3   OH270666   4.457   0.833  11.512  0.1195 -0.0449  0.6104
16392TIP3    H170667   4.362   0.834  11.508  0.1244 -0.0476  0.4938
16392TIP3    H270668   4.479   0.885  11.589  0.0190 -0.1851  0.7356
16393TIP3   OH270669   5.706   3.751   0.149  0.3175 -0.9146 -0.3494
16393TIP3    H170670   5.681   3.771   0.240 -0.2383 -0.7107 -0.5409
16393TIP3    H270671   5.714   3.837   0.107 -0.5191 -1.0387 -0.7737
16394TIP3   OH270672   2.387   3.976   3.319 -0.0212 -0.6171 -0.4188
16394TIP3    H170673   2.353   3.930   3.242  2.0311 -0.8697 -1.2106
16394TIP3    H270674   2.382   4.068   3.296  0.0911 -0.6668 -0.6385
16395TIP3   OH270675   0.419   4.016   3.536  0.0108 -0.2885  0.7590
16395TIP3    H170676   0.464   3.963   3.470  1.0154  0.4095  0.8754
16395TIP3    H270677   0.350   3.959   3.569  2.4455 -2.4106  2.4827
16396TIP3   OH270678   0.443   2.678  15.744  0.2905 -0.1487 -0.3184
16396TIP3    H170679   0.406   2.641  15.824  0.9967 -0.4685 -0.1329
16396TIP3    H270680   0.370   2.722  15.701 -0.0443  0.2190  0.6171
16397TIP3   OH270681   2.506   6.697  17.003  0.0737 -0.5569 -0.3719
16397TIP3    H170682   2.551   6.624  17.046 -0.0591 -0.3891  0.0588
16397TIP3    H270683   2.552   6.775  17.034  0.9186 -0.5218 -1.7009
16398TIP3   OH270684   1.926   4.333  15.300 -0.1720  0.2258  0.2614
16398TIP3    H170685   1.902   4.393  15.229  0.0908 -1.4929 -1.3141
16398TIP3    H270686   1.877   4.253  15.282  0.2230 -0.3807  1.7974
16399TIP3   OH270687   2.660   0.937  16.790 -0.2943  0.4972  0.4162
16399TIP3    H170688   2.641   0.878  16.864 -0.2688  0.4891  0.4176
16399TIP3    H270689   2.604   1.013  16.806  0.3247  0.8615  0.8962
16400TIP3   OH270690   6.231   2.330   0.494  0.3951  0.5358  0.2697
16400TIP3    H170691   6.181   2.298   0.569  1.5589  0.5383  1.0547
16400TIP3    H270692   6.168   2.330   0.422 -0.1982 -1.4939  0.7456
16401TIP3   OH270693   0.945   5.058   6.509  0.1788  0.3073 -0.6071
16401TIP3    H170694   0.938   4.980   6.453 -0.2942  0.1274 -0.2986
16401TIP3    H270695   0.862   5.104   6.495 -0.6328 -0.5554  1.1753
16402TIP3   OH270696   5.316   0.363   2.356  0.4744 -0.3071  0.6208
16402TIP3    H170697   5.361   0.443   2.384 -0.2516  0.4198 -0.2202
16402TIP3    H270698   5.284   0.384   2.268 -1.6672 -0.7168  1.2627
16403TIP3   OH270699   4.236   5.744  13.764 -0.6273 -0.5922 -0.6635
16403TIP3    H170700   4.313   5.724  13.710 -0.2501  1.1234 -0.7792
16403TIP3    H270701   4.272   5.783  13.844 -1.5044  3.0942 -2.0178
16404TIP3   OH270702   0.933   1.286  16.406 -0.4118  0.0663 -0.2810
16404TIP3    H170703   0.878   1.216  16.442 -0.7497  0.0425 -0.8385
16404TIP3    H270704   1.019   1.272  16.446 -1.5695  1.9989  3.0818
16405TIP3   OH270705   6.050   4.747  13.926 -0.4202 -0.0873  0.4876
16405TIP3    H170706   5.994   4.737  13.850  0.3101 -1.4724  0.1105
16405TIP3    H270707   6.035   4.668  13.978  1.6557 -0.8144  0.0457
16406TIP3   OH270708   0.534   5.599   1.105  0.3375 -0.8822  0.0890
16406TIP3    H170709   0.600   5.663   1.081  0.1895 -1.0683 -0.8293
16406TIP3    H270710   0.580   5.538   1.163  1.2415 -1.5727 -1.3204
16407TIP3   OH270711   2.731   4.655   3.904 -0.5554  0.3491  0.2902
16407TIP3    H170712   2.741   4.635   3.997  0.8407  0.1996  0.1209
16407TIP3    H270713   2.640   4.631   3.884 -0.7260 -0.0574  1.5024
16408TIP3   OH270714   3.095   2.409   1.735  0.2574  0.5629 -0.5785
16408TIP3    H170715   3.027   2.422   1.668 -1.4434  1.7588  1.3508
16408TIP3    H270716   3.097   2.491   1.783  0.2310 -0.8796  1.9395
16409TIP3   OH270717   5.867   0.689   0.397 -0.3142  0.5516  0.7147
16409TIP3    H170718   5.914   0.616   0.436 -0.6627 -0.3580 -0.5265
16409TIP3    H270719   5.774   0.667   0.407 -0.4041 -0.1680 -1.4422
16410TIP3   OH270720   4.970   0.700  12.455  0.2248  0.0163 -0.1200
16410TIP3    H170721   4.988   0.606  12.465 -2.4468 -0.5989 -0.6107
16410TIP3    H270722   4.976   0.735  12.544  0.0955 -0.8499  0.2356
16411TIP3   OH270723   4.868   5.003   1.656  0.0720 -0.4196 -0.1099
16411TIP3    H170724   4.942   5.005   1.596 -0.3655  0.5492 -0.6421
16411TIP3    H270725   4.865   4.913   1.688  0.8400 -0.7272 -0.8760
16412TIP3   OH270726   1.689   6.737   6.007  0.1520 -0.2720 -0.6235
16412TIP3    H170727   1.781   6.713   6.007  0.2875  0.2027 -1.9869
16412TIP3    H270728   1.663   6.736   6.099  1.5405 -0.3234 -0.2357
16413TIP3   OH270729   0.779   2.342   3.646 -0.2678 -0.2541 -0.2537
16413TIP3    H170730   0.692   2.373   3.672  0.2305 -0.4366  1.6943
16413TIP3    H270731   0.839   2.411   3.676  0.3848 -0.7689 -0.3742
16414TIP3   OH270732   4.991   0.629  17.218  0.1228  0.8926  0.2063
16414TIP3    H170733   4.971   0.579  17.139  1.8277 -0.8292  0.8101
16414TIP3    H270734   5.020   0.714  17.185  1.0470  0.1181 -1.0680
16415TIP3   OH270735   5.257   6.231  11.385  0.0136 -0.0750 -0.3547
16415TIP3    H170736   5.324   6.163  11.387 -1.5074 -1.5827  0.1438
16415TIP3    H270737   5.227   6.238  11.475 -0.1630  0.9343 -0.4859
16416TIP3   OH270738   5.382   3.569  15.087  0.0805 -0.8367 -0.0639
16416TIP3    H170739   5.447   3.546  15.154 -0.5895  0.5355  1.0563
16416TIP3    H270740   5.304   3.519  15.111 -0.2491 -0.1306  0.3490
16417TIP3   OH270741   3.868   1.279  12.251  0.1223  0.3965 -0.1112
16417TIP3    H170742   3.842   1.326  12.331 -1.9854 -0.7123 -0.1067
16417TIP3    H270743   3.927   1.211  12.281  0.2897  0.7386  0.3417
16418TIP3   OH270744   2.004   0.153  11.725  0.3375 -0.3166  0.3353
16418TIP3    H170745   2.079   0.166  11.667 -1.0249 -1.1910 -1.6707
16418TIP3    H270746   1.942   0.222  11.701 -0.9809 -1.7634 -0.5268
16419TIP3   OH270747   2.975   4.241  13.727  0.1448  0.5816 -0.1477
16419TIP3    H170748   2.959   4.240  13.821 -1.2698 -0.1530 -0.3760
16419TIP3    H270749   2.970   4.334  13.703 -0.5773  0.6726  0.3399
16420TIP3   OH270750   1.090   2.672  13.027  0.0204 -0.6068  0.4032
16420TIP3    H170751   1.100   2.734  13.099 -1.3900  1.6395 -1.2743
16420TIP3    H270752   1.173   2.677  12.980  0.6088 -1.4273  1.3163
16421TIP3   OH270753   5.944   0.368  11.423  0.1991 -1.0052  0.2499
16421TIP3    H170754   5.939   0.312  11.345 -2.3085  1.8357 -1.7762
16421TIP3    H270755   6.037   0.391  11.430  0.4153 -1.0484 -2.1223
16422TIP3   OH270756   0.969   2.516   3.695  0.5446 -0.1078  0.0197
16422TIP3    H170757   1.032   2.501   3.766  1.2307  1.5840 -0.2060
16422TIP3    H270758   0.976   2.610   3.677 -0.9083 -0.2065 -1.0891
16423TIP3   OH270759   2.201   5.785  11.443  0.0522 -0.2244  0.3159
16423TIP3    H170760   2.260   5.840  11.393 -1.5263  1.5240  0.3285
16423TIP3    H270761   2.258   5.731  11.498  1.7416 -1.0609 -2.1931
16424TIP3   OH270762   2.986   3.044  14.748 -0.2716 -0.0524  0.3913
16424TIP3    H170763   2.897   3.079  14.748  0.5034  2.0645 -0.7221
16424TIP3    H270764   2.978   2.957  14.787 -2.6361  0.5493  1.3555
16425TIP3   OH270765   0.420   3.314  12.653 -0.4275  0.0327 -0.4634
16425TIP3    H170766   0.484   3.384  12.663 -0.0833 -0.3580  0.1117
16425TIP3    H270767   0.430   3.261  12.732 -2.1451  0.5240  0.1266
16426TIP3   OH270768   4.868   0.343  14.963 -0.5954 -0.0384  0.1399
16426TIP3    H170769   4.848   0.389  14.881  0.0434 -1.3166 -0.7506
16426TIP3    H270770   4.931   0.400  15.007 -1.9830  1.3323  0.4063
16427TIP3   OH270771   4.451   2.251  11.312  0.3420 -0.4486  0.1620
16427TIP3    H170772   4.423   2.317  11.249  1.8964  1.6005  1.5414
16427TIP3    H270773   4.397   2.268  11.390  1.5018 -0.0835  0.9004
16428TIP3   OH270774   1.326   5.680   5.791  0.1050 -0.8321 -0.2295
16428TIP3    H170775   1.243   5.710   5.755  0.3545 -0.9361 -0.8854
16428TIP3    H270776   1.393   5.718   5.735  0.5496  0.0962  0.9094
16429TIP3   OH270777   3.241   1.776  11.098  0.1745 -0.2243 -0.3673
16429TIP3    H170778   3.305   1.713  11.066 -0.2806  0.0098 -1.7388
16429TIP3    H270779   3.160   1.756  11.050 -0.2066  0.8441 -0.1809
16430TIP3   OH270780   2.008   4.748   2.657 -0.3300 -0.1568 -0.0210
16430TIP3    H170781   1.990   4.841   2.666  0.0295 -0.0742 -0.1524
16430TIP3    H270782   2.097   4.743   2.621  0.6075 -0.5827  2.2885
16431TIP3   OH270783   4.828   1.108   0.468 -0.2378 -0.0274  0.1152
16431TIP3    H170784   4.886   1.164   0.520 -0.0738 -0.1086  0.0192
16431TIP3    H270785   4.886   1.043   0.429 -0.1408  1.0052 -1.4633
16432TIP3   OH270786   6.725   1.219   1.921 -0.7372 -0.5867 -0.2147
16432TIP3    H170787   6.701   1.251   1.834 -0.7976 -0.5943 -0.2004
16432TIP3    H270788   6.699   1.289   1.981  0.5644  0.0152 -0.3329
16433TIP3   OH270789   1.269   6.158   0.120 -0.1891 -0.2273  0.5743
16433TIP3    H170790   1.210   6.233   0.113  0.9250  0.8018  1.8550
16433TIP3    H270791   1.353   6.189   0.086  0.4516 -0.6751  1.6874
16434TIP3   OH270792   4.175   5.806   0.158 -0.3816 -0.1032  0.3344
16434TIP3    H170793   4.080   5.818   0.160 -0.2359  0.8801  1.8400
16434TIP3    H270794   4.187   5.719   0.120 -2.0283 -1.6662  3.2362
16435TIP3   OH270795   5.699   3.838   2.513 -0.0339  0.2702 -0.1670
16435TIP3    H170796   5.735   3.919   2.477 -1.2052  1.0003  0.3084
16435TIP3    H270797   5.777   3.788   2.539  0.6716  1.6511  0.4566
16436TIP3   OH270798   3.728   4.819   0.553  0.6704  0.0705 -0.3043
16436TIP3    H170799   3.721   4.895   0.610 -0.7812 -0.3292  0.0499
16436TIP3    H270800   3.644   4.775   0.560  0.8704 -0.6031 -1.8826
16437TIP3   OH270801   5.819   2.510   4.794 -0.1496  0.0221 -0.4256
16437TIP3    H170802   5.756   2.466   4.851 -0.2584  1.1292  0.3330
16437TIP3    H270803   5.765   2.567   4.739  0.3032  2.2262  1.3658
16438TIP3   OH270804   3.022   5.994  16.074 -0.6074 -0.4433 -0.3138
16438TIP3    H170805   2.994   5.936  16.003  0.8728  1.0975 -2.2003
16438TIP3    H270806   2.944   6.044  16.097 -1.4064 -1.8270  0.0194
16439TIP3   OH270807   4.933   5.856  14.672 -0.3929  0.3159 -0.0368
16439TIP3    H170808   4.941   5.905  14.590  1.6430  1.0953  0.5882
16439TIP3    H270809   5.021   5.821  14.687 -1.4496 -2.3237  0.3094
16440TIP3   OH270810   4.362   3.895  11.992  0.1721  0.0892  0.5512
16440TIP3    H170811   4.411   3.818  11.963  0.6897  0.1453  1.2739
16440TIP3    H270812   4.290   3.860  12.044 -0.5272  0.0118 -0.4429
16441TIP3   OH270813   3.235   4.121  14.946 -0.1529 -0.1126 -0.1839
16441TIP3    H170814   3.192   4.194  14.990 -1.7735 -0.6037 -0.9186
16441TIP3    H270815   3.182   4.045  14.968 -0.2463 -0.5708 -1.9286
16442TIP3   OH270816   6.130   1.368  13.912  0.1992 -0.1021  0.0518
16442TIP3    H170817   6.122   1.423  13.990 -2.6018  0.9640 -0.9520
16442TIP3    H270818   6.210   1.398  13.869 -0.4881  2.1425  0.3114
16443TIP3   OH270819   5.734   6.361  13.509 -0.2414 -0.0246  0.1971
16443TIP3    H170820   5.763   6.448  13.537  3.1294 -0.8216 -0.6207
16443TIP3    H270821   5.646   6.375  13.474 -0.7989  2.5832  2.4310
16444TIP3   OH270822   1.163   6.782   3.741  0.3153  0.5424 -0.0935
16444TIP3    H170823   1.197   6.723   3.674  1.5190 -1.3455  2.1200
16444TIP3    H270824   1.070   6.792   3.720 -0.1148 -2.8740 -0.0059
16445TIP3   OH270825   1.618   0.262  12.595  0.3729  0.3397 -0.4705
16445TIP3    H170826   1.636   0.292  12.506  0.4946 -1.5544 -1.1051
16445TIP3    H270827   1.704   0.250  12.634  0.4025 -2.0159 -1.2088
16446TIP3   OH270828   0.546   5.668  13.223  0.9265 -0.4069 -0.9908
16446TIP3    H170829   0.600   5.721  13.282 -0.8772 -0.7288  0.9884
16446TIP3    H270830   0.532   5.586  13.269 -1.4661 -0.2327 -1.3321
16447TIP3   OH270831   4.580   1.527   3.142  0.0358 -0.0852  0.0597
16447TIP3    H170832   4.662   1.489   3.172 -0.7338 -0.1875  2.1682
16447TIP3    H270833   4.561   1.482   3.059  2.1714  0.0888 -0.5421
16448TIP3   OH270834   5.052   2.512   3.786  0.2286 -0.4957  0.2347
16448TIP3    H170835   4.991   2.491   3.857  1.4909 -1.8614  0.9548
16448TIP3    H270836   5.049   2.608   3.780 -0.8503 -0.4477  1.2740
16449TIP3   OH270837   6.646   3.709  14.599  0.4858 -0.0177 -0.8294
16449TIP3    H170838   6.591   3.753  14.663  0.7337 -0.3495 -0.3880
16449TIP3    H270839   6.596   3.713  14.517  0.8235  1.7286 -0.9697
16450TIP3   OH270840   6.712   4.081   2.958 -0.2751  0.1833  0.3653
16450TIP3    H170841   6.659   4.018   2.909 -0.2004  1.1348 -0.9768
16450TIP3    H270842   6.759   4.028   3.022 -0.7955 -1.0249 -0.2302
16451TIP3   OH270843   4.116   5.747   5.244  0.0269  0.0850 -0.0286
16451TIP3    H170844   4.053   5.796   5.296 -0.3841 -0.6346  0.1661
16451TIP3    H270845   4.186   5.809   5.226  0.3664  0.2265  1.7092
16452TIP3   OH270846   5.413   5.660  10.243 -0.2142 -0.4818  0.3371
16452TIP3    H170847   5.325   5.648  10.279 -0.7036 -1.0447 -1.0309
16452TIP3    H270848   5.470   5.610  10.302 -0.4710  1.8120  2.6178
16453TIP3   OH270849   0.556   4.022   1.088  0.1254  0.0090 -0.2680
16453TIP3    H170850   0.510   3.940   1.105 -1.2074  0.9673  0.7670
16453TIP3    H270851   0.558   4.067   1.172 -0.2679  1.6147 -1.0987
16454TIP3   OH270852   3.015   1.672  13.909 -0.2894 -0.6909  0.2406
16454TIP3    H170853   2.982   1.700  13.994  1.9974 -1.0240  1.2876
16454TIP3    H270854   3.009   1.576  13.911  1.9981 -0.8347  1.0040
16455TIP3   OH270855   6.752   2.876   0.419 -0.0758 -0.2941 -0.4639
16455TIP3    H170856   6.658   2.883   0.438  0.0610  1.0226 -0.1967
16455TIP3    H270857   6.761   2.906   0.329  0.1187 -0.1287 -0.3913
16456TIP3   OH270858   3.607   2.728  12.563  0.3427 -0.2950  0.3070
16456TIP3    H170859   3.517   2.745  12.535  1.1248 -0.1602 -2.1917
16456TIP3    H270860   3.617   2.633  12.557  0.6605 -0.2214 -0.3410
16457TIP3   OH270861   4.439   4.178   2.205 -0.3786 -0.2945 -1.0486
16457TIP3    H170862   4.386   4.217   2.136 -1.5626 -0.8979 -0.4979
16457TIP3    H270863   4.528   4.206   2.185 -0.7724 -0.0327 -2.5202
16458TIP3   OH270864   2.871   5.822   5.245  0.0558 -0.0358  0.1173
16458TIP3    H170865   2.865   5.800   5.338 -0.9278  0.8864  0.2946
16458TIP3    H270866   2.965   5.828   5.227  0.3020 -2.2394  0.5409
16459TIP3   OH270867   0.610   5.672  17.233  0.3647 -0.1325 -0.0620
16459TIP3    H170868   0.645   5.586  17.212 -1.4590 -0.6744 -0.9940
16459TIP3    H270869   0.541   5.656  17.297  0.7018  0.7473  0.5349
16460TIP3   OH270870   4.645   0.782  11.785  0.4065 -0.7056  0.0693
16460TIP3    H170871   4.562   0.829  11.776 -0.5306 -2.4638 -0.9574
16460TIP3    H270872   4.696   0.834  11.846 -0.6796  1.4748 -0.8252
16461TIP3   OH270873   2.714   2.175   5.683  0.1480  0.1993 -0.9159
16461TIP3    H170874   2.803   2.150   5.659  1.1122  1.4177  1.2466
16461TIP3    H270875   2.720   2.268   5.706 -0.9593 -0.5215  2.5491
16462TIP3   OH270876   1.260   1.286   2.178  0.1259 -0.1892 -0.9330
16462TIP3    H170877   1.257   1.211   2.236 -0.1981  1.3481  1.0900
16462TIP3    H270878   1.338   1.334   2.204  0.2191  0.3005 -2.0668
16463TIP3   OH270879   6.567   6.152   1.343  0.3568 -0.5609  0.1203
16463TIP3    H170880   6.483   6.196   1.330  0.1622 -0.6231  1.1366
16463TIP3    H270881   6.545   6.060   1.354  0.7382 -0.8767 -1.6385
16464TIP3   OH270882   5.300   5.785  15.012  0.0612  0.1876 -0.0882
16464TIP3    H170883   5.223   5.776  15.068  0.5258  0.1368  0.5445
16464TIP3    H270884   5.356   5.712  15.036  0.3523  0.2758 -0.4865
16465TIP3   OH270885   5.613   2.116   1.594  0.0975  0.2803  0.6254
16465TIP3    H170886   5.618   2.027   1.559 -1.2936  1.0311 -1.5758
16465TIP3    H270887   5.682   2.163   1.549 -1.7324  1.2635 -1.2503
16466TIP3   OH270888   5.616   2.734  10.597 -0.4514  0.2964 -0.3897
16466TIP3    H170889   5.533   2.746  10.552 -0.6620 -0.3416 -0.1835
16466TIP3    H270890   5.681   2.776  10.541 -1.0266  1.5478 -0.1322
16467TIP3   OH270891   5.352   2.685   1.504 -0.3050 -0.0666 -0.2186
16467TIP3    H170892   5.391   2.711   1.587  1.4204  0.2682 -1.1243
16467TIP3    H270893   5.330   2.592   1.515  2.0971 -0.6632 -0.1820
16468TIP3   OH270894   6.625   3.955  11.541 -0.0688 -0.5420 -0.1342
16468TIP3    H170895   6.658   3.938  11.453  0.4189 -0.6245  0.0603
16468TIP3    H270896   6.613   3.869  11.579  0.4383 -0.4919  0.1393
16469TIP3   OH270897   0.754   4.529   5.573 -0.0406  0.4342 -0.2120
16469TIP3    H170898   0.676   4.493   5.613  0.3447  0.5826  0.6867
16469TIP3    H270899   0.740   4.624   5.572  0.2444  0.4818  0.2009
16470TIP3   OH270900   5.030   4.687  12.634 -0.2187  0.0690 -0.0098
16470TIP3    H170901   5.047   4.593  12.630  0.3310 -0.1101  4.2240
16470TIP3    H270902   5.116   4.728  12.624  0.4983 -0.1995  4.1527
16471TIP3   OH270903   4.652   6.749   3.362  0.1295 -0.4349 -0.5348
16471TIP3    H170904   4.723   6.813   3.355  0.7007 -1.1032 -0.8073
16471TIP3    H270905   4.668   6.686   3.292 -0.9324 -0.3956 -0.8332
16472TIP3   OH270906   4.260   1.654  11.433  0.3333 -1.2819 -0.6123
16472TIP3    H170907   4.224   1.666  11.345  1.3258  1.1657 -0.7072
16472TIP3    H270908   4.256   1.741  11.473  3.3717 -1.5502  0.4118
16473TIP3   OH270909   6.012   1.974  11.235  0.4284  0.2273 -0.4935
16473TIP3    H170910   5.972   1.937  11.156  0.8317  0.5657 -0.8602
16473TIP3    H270911   5.987   1.914  11.305 -2.0892  1.2554 -0.4301
16474TIP3   OH270912   6.248   3.368   0.984  0.3906 -0.5771 -0.0413
16474TIP3    H170913   6.232   3.287   1.032 -0.6672  0.2556  1.0483
16474TIP3    H270914   6.162   3.391   0.948  0.4054  0.6819  0.6850
16475TIP3   OH270915   1.244   3.932  12.587  0.2255  0.2295 -0.3292
16475TIP3    H170916   1.300   3.864  12.550 -0.1837  0.0834 -0.6892
16475TIP3    H270917   1.208   3.978  12.511  2.2217  2.2827 -0.0561
16476TIP3   OH270918   2.813   3.321   4.907 -0.6349 -0.4217 -0.0992
16476TIP3    H170919   2.735   3.359   4.948  0.8715  0.6797  1.8352
16476TIP3    H270920   2.879   3.390   4.913  1.0561 -2.0254  0.0864
16477TIP3   OH270921   6.799   5.032  13.285 -0.1718 -0.3627  0.0245
16477TIP3    H170922   6.713   4.991  13.273 -0.4963  0.3443 -0.1224
16477TIP3    H270923   6.812   5.035  13.380 -0.0498 -0.9975  0.0276
16478TIP3   OH270924   2.832   0.405  13.645 -0.4209  0.1445  0.1328
16478TIP3    H170925   2.809   0.340  13.711 -0.0505 -0.5139 -0.3812
16478TIP3    H270926   2.895   0.463  13.688  1.1419 -1.2967 -0.1608
16479TIP3   OH270927   1.248   3.238  13.989  0.3244 -0.6922 -0.6380
16479TIP3    H170928   1.294   3.236  13.905  0.6032  2.3466 -0.6331
16479TIP3    H270929   1.157   3.252  13.966  0.3304 -0.3372 -0.4460
16480TIP3   OH270930   1.340   2.944   5.723 -0.3890 -0.0567  0.0748
16480TIP3    H170931   1.321   2.860   5.681 -0.4901  0.4041 -0.8184
16480TIP3    H270932   1.261   2.996   5.708  0.5368  0.9896 -1.4110
16481TIP3   OH270933   3.947   4.579   5.082  0.0764 -0.1619  0.4121
16481TIP3    H170934   4.040   4.566   5.065 -0.3220 -0.0544 -1.9832
16481TIP3    H270935   3.916   4.494   5.114  0.1661 -1.4285 -2.7525
16482TIP3   OH270936   3.725   6.682   6.579 -0.4507 -0.1886 -0.4258
16482TIP3    H170937   3.732   6.589   6.603  0.5761 -0.2238 -0.8367
16482TIP3    H270938   3.777   6.728   6.645 -1.4243  0.1625  0.1148
16483TIP3   OH270939   3.884   4.312   4.788 -0.8346 -0.9935  0.0418
16483TIP3    H170940   3.950   4.378   4.768 -0.4938 -0.7217  1.9269
16483TIP3    H270941   3.926   4.228   4.767  0.5140 -0.8861  2.1294
16484TIP3   OH270942   4.088   0.672   4.859 -0.2272  0.0411 -0.1769
16484TIP3    H170943   4.056   0.633   4.940 -0.2703 -0.5910 -0.5001
16484TIP3    H270944   4.011   0.708   4.817 -0.6666 -2.2619 -1.3905
16485TIP3   OH270945   5.461   5.611   3.836 -0.0310  0.3033  0.2212
16485TIP3    H170946   5.554   5.595   3.851 -0.5909 -1.9445  1.5500
16485TIP3    H270947   5.444   5.696   3.877  1.1710  0.1032  1.1687
16486TIP3   OH270948   0.132   4.010   1.059  0.1297 -0.2550  0.0281
16486TIP3    H170949   0.109   3.930   1.011 -0.7657  0.0699 -0.0941
16486TIP3    H270950   0.060   4.021   1.122  0.0919  0.6319 -0.1744
16487TIP3   OH270951   1.804   1.326   4.172 -0.4796  0.3549 -0.1898
16487TIP3    H170952   1.836   1.340   4.083 -0.6840  1.0567 -0.1586
16487TIP3    H270953   1.712   1.353   4.168 -0.0320  2.1097  0.6508
16488TIP3   OH270954   1.036   3.288   2.614  0.8582 -0.3449 -0.4607
16488TIP3    H170955   0.983   3.318   2.541  1.4610  0.2054 -0.6729
16488TIP3    H270956   1.021   3.193   2.617  1.7835 -0.5557 -2.0669
16489TIP3   OH270957   1.085   4.501  12.861 -0.4811 -0.8634  0.2205
16489TIP3    H170958   1.177   4.517  12.883 -0.4376 -0.6081 -0.1385
16489TIP3    H270959   1.072   4.545  12.777 -0.7183 -1.5756 -0.1258
16490TIP3   OH270960   2.831   3.032   3.223  0.1234 -0.0483 -0.7670
16490TIP3    H170961   2.792   3.062   3.305 -0.6488 -0.4819 -0.9735
16490TIP3    H270962   2.787   2.949   3.204  0.9407 -0.4023 -1.1560
16491TIP3   OH270963   0.363   5.037  15.996  0.0384 -0.0942  0.1448
16491TIP3    H170964   0.303   5.096  15.950  0.3843 -1.0439 -1.5794
16491TIP3    H270965   0.307   4.975  16.040 -0.2918  0.5407  0.6277
16492TIP3   OH270966   4.094   6.224   0.669 -0.1983 -0.1934  0.0635
16492TIP3    H170967   4.148   6.198   0.743 -2.4804 -0.7201  1.6056
16492TIP3    H270968   4.037   6.292   0.704 -0.9466 -0.0867 -1.3408
16493TIP3   OH270969   6.232   1.715   1.545  0.2035  0.5311 -0.2722
16493TIP3    H170970   6.209   1.645   1.605 -1.4836  2.0335  0.8788
16493TIP3    H270971   6.295   1.769   1.592 -1.2609  1.8160  0.2613
16494TIP3   OH270972   2.542   6.619  12.128 -0.1608 -0.5308  0.4292
16494TIP3    H170973   2.490   6.608  12.207 -0.4017 -0.1520  0.3210
16494TIP3    H270974   2.478   6.629  12.058  0.0455  1.1592  0.4623
16495TIP3   OH270975   4.556   1.880   4.780  0.1052 -0.1595  0.0344
16495TIP3    H170976   4.641   1.918   4.758  0.0620 -0.5867 -0.8989
16495TIP3    H270977   4.501   1.955   4.802  1.0935  0.0211  1.9391
16496TIP3   OH270978   2.834   4.009   2.377  0.5508  0.6288 -0.2724
16496TIP3    H170979   2.761   4.030   2.320  0.7396  1.5719 -0.1805
16496TIP3    H270980   2.882   4.092   2.386  0.7488  0.4009  0.9113
16497TIP3   OH270981   6.587   2.016  14.578 -0.3345 -0.4918  0.2092
16497TIP3    H170982   6.613   2.106  14.557 -2.0088 -0.3410 -1.3338
16497TIP3    H270983   6.626   1.964  14.508 -0.6472 -0.7912  0.2623
16498TIP3   OH270984   4.779   4.047  12.985 -0.8912  0.0740  0.0571
16498TIP3    H170985   4.856   3.993  12.966 -1.6045 -0.0639 -2.6096
16498TIP3    H270986   4.797   4.130  12.940 -1.6406  0.5840  0.6895
16499TIP3   OH270987   0.033   1.915   5.397 -0.2736  0.3760  0.2747
16499TIP3    H170988   0.095   1.987   5.384 -0.1974 -0.1055 -2.3196
16499TIP3    H270989  -0.049   1.946   5.358 -0.2695 -0.9014 -0.7763
16500TIP3   OH270990   1.423   0.347  13.069  0.5668 -0.3527  0.1014
16500TIP3    H170991   1.434   0.426  13.122 -0.1051  0.3736 -0.8181
16500TIP3    H270992   1.427   0.377  12.979 -0.0865 -1.3118 -0.2630
16501TIP3   OH270993   2.556   2.897   0.353  0.0057  0.1660  0.4340
16501TIP3    H170994   2.475   2.882   0.402 -0.0273 -0.7058  0.1159
16501TIP3    H270995   2.623   2.905   0.421 -0.2790  0.4965  0.6833
16502TIP3   OH270996   4.500   2.582  11.900  0.0970  0.1251  0.0351
16502TIP3    H170997   4.570   2.582  11.966 -1.7716 -1.3281  2.1131
16502TIP3    H270998   4.512   2.501  11.852 -0.2982 -0.2692  0.5871
16503TIP3   OH270999   1.289   0.043   2.040  0.0523  0.2712  0.0416
16503TIP3    H171000   1.213   0.098   2.058 -0.2136 -0.2420  0.5000
16503TIP3    H271001   1.273  -0.037   2.088  1.5836  0.7143  1.3511
16504TIP3   OH271002   2.502   5.922  12.292  0.1794  0.2367 -0.2894
16504TIP3    H171003   2.470   5.919  12.201 -1.5785  1.1598  0.2594
16504TIP3    H271004   2.532   5.833  12.310 -0.2313 -0.1651 -1.5141
16505TIP3   OH271005   1.530   2.908  17.068  0.1935 -0.2029 -0.1099
16505TIP3    H171006   1.516   2.832  17.124 -0.3822  0.8513  1.1962
16505TIP3    H271007   1.522   2.874  16.979  2.2935 -2.1350  0.3880
16506TIP3   OH271008   5.963   2.940  11.798 -0.1411 -0.1884  0.6422
16506TIP3    H171009   6.045   2.942  11.847 -0.2164 -0.3744  0.7760
16506TIP3    H271010   5.950   2.847  11.778  0.4981  0.0048 -0.7410
16507TIP3   OH271011   4.199   1.939   4.267  0.0826  0.0369  0.2646
16507TIP3    H171012   4.225   2.018   4.314  2.5710  0.3732 -1.5904
16507TIP3    H271013   4.278   1.885   4.266 -1.0995 -1.7147 -0.0250
16508TIP3   OH271014   0.843   4.290  12.735  0.4732 -0.1383  0.8333
16508TIP3    H171015   0.752   4.316  12.750 -0.2753 -1.7258 -0.8209
16508TIP3    H271016   0.843   4.195  12.746  2.2667  0.0092  2.3648
16509TIP3   OH271017   2.935   3.885   1.239  0.1159 -0.7382  0.1194
16509TIP3    H171018   2.989   3.862   1.314 -0.0789 -0.0821  0.4726
16509TIP3    H271019   2.848   3.900   1.276  0.2645  0.6602 -0.0618
16510TIP3   OH271020   3.398   6.816  11.844 -0.3600 -0.5454 -0.2688
16510TIP3    H171021   3.365   6.728  11.863  0.7715 -0.3866  2.5649
16510TIP3    H271022   3.423   6.851  11.929 -1.7931  2.9601 -1.2321
16511TIP3   OH271023   6.214   6.711  16.187 -0.6649  0.1064  0.2559
16511TIP3    H171024   6.265   6.755  16.255 -0.4501  2.4479 -1.3393
16511TIP3    H271025   6.124   6.711  16.221 -0.2256 -0.6328  1.4377
16512TIP3   OH271026   3.373   6.315   2.359  0.3451  0.9581  0.1527
16512TIP3    H171027   3.301   6.258   2.334  0.4478  1.3507 -1.0823
16512TIP3    H271028   3.393   6.291   2.449 -1.0277  0.5369  0.3506
16513TIP3   OH271029   1.696   2.764   6.021 -0.0544 -0.7766 -0.0484
16513TIP3    H171030   1.669   2.695   5.962  2.4176 -1.2489 -0.6813
16513TIP3    H271031   1.694   2.844   5.968 -1.6880 -0.5412  0.3424
16514TIP3   OH271032   3.254   2.594  11.586  0.0690  0.3593  0.4855
16514TIP3    H171033   3.174   2.548  11.611 -1.3753  1.7495 -1.3678
16514TIP3    H271034   3.288   2.543  11.512  0.4742  0.2076  0.7755
16515TIP3   OH271035   4.700   4.006  10.136 -0.3081  0.2623 -0.0188
16515TIP3    H171036   4.773   4.069  10.143 -0.1908  0.4227 -2.4106
16515TIP3    H271037   4.622   4.059  10.154 -0.2414  1.2085 -2.3583
16516TIP3   OH271038   5.534   3.166   4.537 -0.0394  0.2137 -0.3631
16516TIP3    H171039   5.583   3.084   4.543 -0.9066 -0.3497 -0.9578
16516TIP3    H271040   5.537   3.189   4.444  0.6717  1.1564 -0.1193
16517TIP3   OH271041   0.035   6.508   1.890  0.3156  0.1059 -0.2141
16517TIP3    H171042   0.112   6.564   1.878 -0.4606  1.4953  0.9948
16517TIP3    H271043   0.066   6.437   1.946  0.6637  0.8203  0.5139
16518TIP3   OH271044   5.735   0.169   0.848  0.3073  0.1465  0.0789
16518TIP3    H171045   5.775   0.251   0.878  0.7792  0.0038 -0.1480
16518TIP3    H271046   5.810   0.113   0.825 -0.0311  0.2105 -1.2517
16519TIP3   OH271047   3.900   6.304   2.345 -0.3154  0.1628  0.6277
16519TIP3    H171048   3.980   6.356   2.357 -0.7398  0.2707  3.3528
16519TIP3    H271049   3.829   6.369   2.345 -0.5512 -0.0911  0.0558
16520TIP3   OH271050   4.797   5.286   2.325  0.9217  0.3695  0.4122
16520TIP3    H171051   4.820   5.193   2.323 -1.3982 -0.2238 -0.0798
16520TIP3    H271052   4.740   5.295   2.401 -0.3359  1.0247 -0.5856
16521TIP3   OH271053   4.920   4.290   4.079  0.4808  0.6268  0.5867
16521TIP3    H171054   4.952   4.256   3.996 -0.8527  1.7113 -0.3808
16521TIP3    H271055   4.848   4.231   4.102 -1.5312  2.4285 -0.8628
16522TIP3   OH271056   1.668   1.889  15.044 -0.6283 -0.0935 -0.0918
16522TIP3    H171057   1.658   1.797  15.068 -0.4177 -0.1940 -0.3863
16522TIP3    H271058   1.697   1.887  14.953  5.1156  0.0690  1.5671
16523TIP3   OH271059   0.864   3.918  11.070  0.2425 -0.3773  0.0679
16523TIP3    H171060   0.818   3.947  11.148  0.5303 -1.3170  0.5978
16523TIP3    H271061   0.933   3.983  11.056  0.3463 -0.3470  0.7375
16524TIP3   OH271062   4.525   4.455  16.205 -0.0881  0.1043 -0.0708
16524TIP3    H171063   4.562   4.475  16.119 -1.6022  0.2065 -0.7156
16524TIP3    H271064   4.464   4.383  16.188 -1.5058  1.1057  0.6482
16525TIP3   OH271065   1.767   3.175  12.380 -0.3276  0.1988 -0.7262
16525TIP3    H171066   1.749   3.088  12.417  0.1676 -0.0782 -1.1427
16525TIP3    H271067   1.720   3.176  12.297 -0.6587  0.4828 -0.5430
16526TIP3   OH271068   1.208   3.388  12.960  0.1693 -0.1994 -0.2341
16526TIP3    H171069   1.245   3.445  12.893  0.7389 -1.2439 -0.8231
16526TIP3    H271070   1.237   3.300  12.935 -0.5615 -0.7270  0.7465
16527TIP3   OH271071   6.675   1.884   1.687  0.0911 -0.7527  0.3643
16527TIP3    H171072   6.657   1.834   1.607 -1.7514  0.0673  0.2378
16527TIP3    H271073   6.744   1.946   1.662 -3.2534  2.3111 -1.8189
16528TIP3   OH271074   1.919   5.044   5.837 -0.4246  0.0779  0.3527
16528TIP3    H171075   1.890   5.068   5.749 -1.4994 -0.8284  0.4598
16528TIP3    H271076   2.008   5.011   5.824 -1.1216 -1.4705 -0.6154
16529TIP3   OH271077   4.062   6.650   4.611 -0.7059  0.1720  0.6313
16529TIP3    H171078   4.002   6.688   4.675 -1.2669 -0.5964  0.5650
16529TIP3    H271079   4.088   6.567   4.650  1.4816  1.1586  1.3420
16530TIP3   OH271080   2.538   0.248   4.801 -0.3226  0.4068 -0.5408
16530TIP3    H171081   2.485   0.175   4.834  0.8384 -0.2058 -0.0244
16530TIP3    H271082   2.474   0.317   4.783 -1.4375 -0.7572 -1.0968
16531TIP3   OH271083   0.366   1.626  11.971 -0.1303  0.0542  0.2351
16531TIP3    H171084   0.323   1.541  11.981 -1.9262  0.8363 -0.6104
16531TIP3    H271085   0.404   1.623  11.884  2.5326 -1.0460  1.3825
16532TIP3   OH271086   3.532   1.964   1.567  0.4101  0.5588 -0.1324
16532TIP3    H171087   3.462   1.901   1.549  1.0248 -0.6136  1.5365
16532TIP3    H271088   3.501   2.045   1.527 -2.4086  0.3316  1.4628
16533TIP3   OH271089   2.734   4.412  15.355 -0.3863  0.8041 -0.2159
16533TIP3    H171090   2.658   4.455  15.316 -0.7135 -0.2289 -0.7532
16533TIP3    H271091   2.760   4.468  15.427 -3.0483  0.0352  1.4103
16534TIP3   OH271092   5.954   5.632  16.431 -0.8385 -0.5449  0.0549
16534TIP3    H171093   5.884   5.597  16.375 -0.5376 -1.5496  0.2962
16534TIP3    H271094   5.922   5.618  16.520 -0.9889  0.3690  0.1406
16535TIP3   OH271095   3.974   3.663  15.204  0.0795  0.5529 -0.0870
16535TIP3    H171096   3.945   3.678  15.114 -1.7270 -1.1384  0.1861
16535TIP3    H271097   3.987   3.751  15.241  0.5943  1.2595 -1.8904
16536TIP3   OH271098   3.608   6.610  12.827 -0.3663  0.0161  0.6408
16536TIP3    H171099   3.653   6.677  12.879 -0.7740  1.3612 -0.7052
16536TIP3    H271100   3.671   6.585  12.760 -1.4465  1.6694 -1.0496
16537TIP3   OH271101   0.481   0.317   0.592  0.3068  0.1169  0.0501
16537TIP3    H171102   0.412   0.297   0.529  0.0607  1.4846 -0.1263
16537TIP3    H271103   0.522   0.397   0.559  0.0856  0.9247  1.6857
16538TIP3   OH271104   0.567   2.068  14.614 -0.3058 -0.1015 -0.3199
16538TIP3    H171105   0.499   2.128  14.586 -0.8853 -0.0725  1.0957
16538TIP3    H271106   0.638   2.124  14.646  0.1637 -0.1439 -1.2529
16539TIP3   OH271107   6.701   1.795  16.527  0.5200  0.4350  0.3459
16539TIP3    H171108   6.779   1.768  16.576  0.5268 -1.5056 -0.6886
16539TIP3    H271109   6.638   1.821  16.594  1.0826 -0.6765  1.3142
16540TIP3   OH271110   0.238   0.664  14.330  0.1896 -0.2487 -0.1005
16540TIP3    H171111   0.167   0.695  14.275  2.9114  0.9841 -3.0405
16540TIP3    H271112   0.264   0.580  14.292 -1.1627 -1.8913  2.4003
16541TIP3   OH271113   1.850   4.469  14.534 -0.3315  0.2319  0.4236
16541TIP3    H171114   1.786   4.502  14.596  0.0753  1.6435  0.1272
16541TIP3    H271115   1.822   4.504  14.449  0.0696 -0.2619  0.0821
16542TIP3   OH271116   6.323   3.081   5.688 -0.2478 -0.0258  0.8681
16542TIP3    H171117   6.410   3.050   5.660  0.1488  1.1241  0.8185
16542TIP3    H271118   6.262   3.021   5.644  0.5015 -0.5321  0.4975
16543TIP3   OH271119   3.517   5.658   3.937 -0.3716  0.0086 -0.1254
16543TIP3    H171120   3.599   5.623   3.974 -1.6212 -3.9075 -0.8817
16543TIP3    H271121   3.542   5.690   3.850  0.5195 -0.3972 -0.0299
16544TIP3   OH271122   2.141   4.899   4.079  0.6239  0.1878  0.1232
16544TIP3    H171123   2.174   4.811   4.099  1.6898  0.6890  0.6073
16544TIP3    H271124   2.050   4.897   4.108  0.8033 -0.5840  0.6565
16545TIP3   OH271125   5.561   1.373  15.095 -0.3512  0.3755 -0.1269
16545TIP3    H171126   5.482   1.425  15.089 -0.2330  0.5020 -0.6396
16545TIP3    H271127   5.544   1.310  15.165  0.2165  2.2949  1.7934
16546TIP3   OH271128   1.604   3.642  12.931  0.6501  0.2607 -0.3364
16546TIP3    H171129   1.668   3.597  12.987  0.1337 -0.8892 -0.6487
16546TIP3    H271130   1.563   3.706  12.989  1.7264  0.6671 -0.0002
16547TIP3   OH271131   1.272   1.605  14.185 -0.6578 -0.0979  0.2750
16547TIP3    H171132   1.328   1.582  14.259 -1.4239  0.1177  0.9318
16547TIP3    H271133   1.301   1.548  14.114  1.8222  1.4687 -0.0445
16548TIP3   OH271134   5.863   3.578   5.473 -0.3424  0.1317 -0.4473
16548TIP3    H171135   5.826   3.629   5.545 -0.2911 -0.0856 -0.2646
16548TIP3    H271136   5.955   3.567   5.497  0.4710  2.8030 -2.1197
16549TIP3   OH271137   6.330   3.620   2.459 -0.0328 -0.3653  0.2674
16549TIP3    H171138   6.328   3.631   2.554 -2.0576 -1.6020  0.3967
16549TIP3    H271139   6.239   3.634   2.431  0.7381  1.1046 -1.6266
16550TIP3   OH271140   4.944   0.646   4.644 -0.0931 -0.0136  0.1260
16550TIP3    H171141   5.028   0.672   4.606  0.0112 -0.6965 -0.1015
16550TIP3    H271142   4.944   0.687   4.731 -0.4435  1.7569 -0.6809
16551TIP3   OH271143   0.968   0.572  12.189  0.5333  0.0049  0.3076
16551TIP3    H171144   0.991   0.660  12.217 -0.0539  0.8533 -1.7418
16551TIP3    H271145   0.873   0.574  12.180  0.3123 -1.4218  2.0957
16552TIP3   OH271146   3.972   4.663  16.043 -0.1196 -0.0622  0.4098
16552TIP3    H171147   3.934   4.666  16.130 -0.1927  1.3878  0.3408
16552TIP3    H271148   3.947   4.746  16.002 -0.8175 -1.0839 -1.3021
16553TIP3   OH271149   4.644   6.129   3.019 -0.0095  0.3625 -0.0504
16553TIP3    H171150   4.577   6.081   3.068  0.6720 -0.3127  0.2483
16553TIP3    H271151   4.597   6.201   2.978 -0.6560  0.7470  1.3323
16554TIP3   OH271152   6.654   1.609  14.615  0.1164  0.0687  0.6548
16554TIP3    H171153   6.623   1.546  14.679 -0.9369 -0.7905 -0.6743
16554TIP3    H271154   6.692   1.680  14.667 -1.9891  0.0565  2.2703
16555TIP3   OH271155   4.987   1.269   2.567  0.0848  0.0810 -0.2558
16555TIP3    H171156   4.934   1.201   2.607 -1.2810  0.8132 -0.8035
16555TIP3    H271157   4.974   1.258   2.473  0.9631  0.2159 -0.4000
16556TIP3   OH271158   4.313   1.284   0.310 -0.2700 -0.7754  0.4063
16556TIP3    H171159   4.278   1.221   0.373  1.6721 -1.1091  1.1908
16556TIP3    H271160   4.399   1.248   0.286  1.7555  2.4980  2.3700
16557TIP3   OH271161   3.873   6.745  10.532 -0.3381  0.2730 -0.5875
16557TIP3    H171162   3.881   6.654  10.560 -0.1061  1.4998  3.6606
16557TIP3    H271163   3.787   6.751  10.491 -1.1780 -1.4567  0.8776
16558TIP3   OH271164   2.319   2.599  16.243 -0.0015  0.5204  0.0168
16558TIP3    H171165   2.398   2.591  16.297 -0.6367 -1.1881  0.7359
16558TIP3    H271166   2.314   2.516  16.196 -2.0780  0.0506  0.9924
16559TIP3   OH271167   2.082   6.460   0.590  0.1341  0.2224 -0.3472
16559TIP3    H171168   2.010   6.399   0.575 -0.6124  1.3922 -1.7176
16559TIP3    H271169   2.142   6.413   0.648 -1.2501 -1.1417  0.0196
16560TIP3   OH271170   4.143   1.016   4.847  0.0287  0.2508 -0.1678
16560TIP3    H171171   4.225   0.968   4.848  0.4099  0.7356 -3.3757
16560TIP3    H271172   4.153   1.081   4.777 -2.5823  1.2012  0.2581
16561TIP3   OH271173   4.490   6.733   1.504  0.6218 -0.6746 -0.0807
16561TIP3    H171174   4.522   6.648   1.536 -0.1350 -0.8766  0.1459
16561TIP3    H271175   4.488   6.723   1.409  2.2592 -0.2935 -0.1689
16562TIP3   OH271176   0.847   4.700  11.352 -0.1433  0.0663  0.2008
16562TIP3    H171177   0.912   4.738  11.410 -0.6071  0.8122  0.2414
16562TIP3    H271178   0.826   4.615  11.391  0.1964  0.1803  0.6288
16563TIP3   OH271179   6.524   0.564   5.213  0.3407  0.1361 -0.4754
16563TIP3    H171180   6.536   0.622   5.288 -0.6508  0.7694 -0.7979
16563TIP3    H271181   6.448   0.600   5.167 -0.7893 -1.9019 -0.2450
16564TIP3   OH271182   6.616   2.084   5.691 -0.2335 -0.1607  0.1200
16564TIP3    H171183   6.570   2.165   5.669  2.9601  1.1248 -2.1749
16564TIP3    H271184   6.547   2.024   5.717 -2.8696  2.7226  0.0830
16565TIP3   OH271185   3.569   6.317   0.719  0.4040  0.1570 -0.0990
16565TIP3    H171186   3.570   6.410   0.742 -1.1286  0.3346 -0.6763
16565TIP3    H271187   3.592   6.315   0.626 -0.1372  0.0137 -0.2314
16566TIP3   OH271188   4.889   1.772  13.923 -0.0541  0.2541  0.0866
16566TIP3    H171189   4.902   1.759  13.829 -0.1012  1.0613 -0.0327
16566TIP3    H271190   4.814   1.832  13.929 -0.6466 -0.5341  0.6572
16567TIP3   OH271191   2.570   6.082   5.703  0.3050 -0.5457 -0.5622
16567TIP3    H171192   2.540   5.992   5.688 -0.2459  0.0001 -2.9753
16567TIP3    H271193   2.664   6.079   5.682  0.5189 -0.7724  0.3957
16568TIP3   OH271194   6.115   2.661   1.637 -0.1429 -0.1922  0.0527
16568TIP3    H171195   6.133   2.703   1.721  0.2813 -0.7309  0.2374
16568TIP3    H271196   6.031   2.696   1.609  0.7840  1.7440 -0.4033
16569TIP3   OH271197   6.761   1.799  12.624 -0.2971 -0.0310 -0.0548
16569TIP3    H171198   6.809   1.848  12.691  0.2878 -1.3147  0.4794
16569TIP3    H271199   6.712   1.866  12.576  1.5605  1.2335 -0.2278
16570TIP3   OH271200   4.826   0.565  16.967  0.1543 -0.3293 -0.7871
16570TIP3    H171201   4.806   0.620  16.891  2.0457  0.7480 -0.5295
16570TIP3    H271202   4.743   0.562  17.016 -0.5647  0.5127 -1.9303
16571TIP3   OH271203   5.936   3.506   4.786 -0.1486 -0.4298 -0.5422
16571TIP3    H171204   5.857   3.556   4.767 -0.7312 -1.8284 -1.8846
16571TIP3    H271205   5.913   3.451   4.860 -0.0453  0.0660 -0.1450
16572TIP3   OH271206   1.629   5.243  15.144  0.0121 -0.2343 -0.4455
16572TIP3    H171207   1.582   5.323  15.166  0.1594 -1.0983  3.3510
16572TIP3    H271208   1.696   5.271  15.081 -1.0788  2.2480 -0.5542
16573TIP3   OH271209   4.897   2.286  16.944 -0.1711  0.2091 -0.6410
16573TIP3    H171210   4.846   2.248  16.872  2.1144 -1.8330 -1.2505
16573TIP3    H271211   4.889   2.222  17.015  1.6706 -0.2416 -0.8247
16574TIP3   OH271212   3.582   6.026   3.526 -0.0099 -0.5221 -0.0296
16574TIP3    H171213   3.531   6.071   3.459 -0.5721  0.7133  1.2014
16574TIP3    H271214   3.648   6.090   3.553 -0.2816 -0.7075  1.1439
16575TIP3   OH271215   0.360   4.378   3.324 -0.9186  0.3094  0.1102
16575TIP3    H171216   0.408   4.322   3.385 -0.9842 -0.0542 -0.1650
16575TIP3    H271217   0.383   4.467   3.349 -0.5068  0.1492  0.3050
16576TIP3   OH271218   2.597   5.682   1.249 -0.4512  1.1763  0.3148
16576TIP3    H171219   2.634   5.739   1.181 -0.7372 -0.1391 -0.9797
16576TIP3    H271220   2.560   5.742   1.313 -0.7133  2.4543 -1.0041
16577TIP3   OH271221   0.388   0.795   3.870  0.1829  0.0329  0.4114
16577TIP3    H171222   0.328   0.846   3.816  1.0858  2.1495  1.3641
16577TIP3    H271223   0.342   0.784   3.954 -0.4560 -1.6669 -0.1488
16578TIP3   OH271224   6.143   2.607  11.510  0.2095  0.0955 -0.1471
16578TIP3    H171225   6.155   2.681  11.449  1.3086 -1.0560 -1.3579
16578TIP3    H271226   6.143   2.530  11.453 -0.2869 -0.8899  1.1797
16579TIP3   OH271227   6.019   6.510   4.496  0.4715 -0.1716 -0.0574
16579TIP3    H171228   6.077   6.434   4.498  0.1587 -0.4031  0.4207
16579TIP3    H271229   6.058   6.569   4.431  0.6148 -0.8221 -0.5644
16580TIP3   OH271230   6.709   2.753   1.049 -0.3222  0.4303  0.6614
16580TIP3    H171231   6.662   2.762   0.967 -0.8899 -0.0955  0.9231
16580TIP3    H271232   6.696   2.837   1.093 -0.9762  0.3075  0.7085
16581TIP3   OH271233   2.440   6.299   5.826 -0.6077  0.0191 -0.8458
16581TIP3    H171234   2.486   6.372   5.787  0.6491 -0.7899 -0.9075
16581TIP3    H271235   2.487   6.221   5.796 -0.3994 -0.6885  1.1986
16582TIP3   OH271236   5.966   3.533  16.083  0.6421 -0.2190 -0.8119
16582TIP3    H171237   6.008   3.542  16.169 -0.0223  0.1678 -0.5152
16582TIP3    H271238   5.977   3.441  16.061 -0.0891 -0.5541  0.1772
16583TIP3   OH271239   3.044   1.178  11.792 -0.0610 -0.3916  0.4866
16583TIP3    H171240   3.095   1.217  11.721 -1.1853  0.1251 -0.0602
16583TIP3    H271241   3.084   1.092  11.806 -0.6122 -1.0598 -1.7009
16584TIP3   OH271242   4.358   5.198   0.983 -0.1947  0.0556 -0.2824
16584TIP3    H171243   4.384   5.118   1.030 -2.5918 -0.7206 -0.2025
16584TIP3    H271244   4.402   5.191   0.898  2.6737  0.5502  1.1198
16585TIP3   OH271245   1.356   2.221  16.516  0.2932 -0.1962  0.1384
16585TIP3    H171246   1.314   2.263  16.440 -0.9177  0.6311  1.2399
16585TIP3    H271247   1.383   2.294  16.572  1.4176 -0.7912  0.3999
16586TIP3   OH271248   0.273   2.202  17.000  0.4558  0.0431 -0.7719
16586TIP3    H171249   0.238   2.130  17.052  2.1140 -0.1869  0.0611
16586TIP3    H271250   0.200   2.263  16.991 -0.1688 -0.4320  0.8889
16587TIP3   OH271251   1.578   2.540  16.861 -0.0556  0.7363 -0.5777
16587TIP3    H171252   1.605   2.487  16.786  0.4222  1.7316 -1.1259
16587TIP3    H271253   1.657   2.586  16.888 -0.2345  0.4307  0.5157
16588TIP3   OH271254   4.980   1.025  16.716 -0.0546  0.2829 -0.2103
16588TIP3    H171255   5.072   1.012  16.692  0.3106  0.7377  0.8805
16588TIP3    H271256   4.968   0.967  16.791 -0.1730  1.5015  0.7257
16589TIP3   OH271257   5.453   2.630   3.192  0.0483 -0.0191  0.2689
16589TIP3    H171258   5.527   2.648   3.134  0.9942  0.0054  1.4392
16589TIP3    H271259   5.487   2.651   3.280 -0.8442 -1.4975  0.9797
16590TIP3   OH271260   5.512   3.904   1.579  0.6126  0.3761 -0.2129
16590TIP3    H171261   5.430   3.861   1.555  0.1805  1.2100 -0.2458
16590TIP3    H271262   5.581   3.846   1.545  0.0288  0.5564 -1.7244
16591TIP3   OH271263   4.641   0.124  14.837  0.2119  0.1983  0.1313
16591TIP3    H171264   4.703   0.108  14.766 -0.0418  0.0301 -0.0533
16591TIP3    H271265   4.585   0.195  14.805 -1.7997 -1.8511 -1.0667
16592TIP3   OH271266   2.978   5.776   5.523 -0.0819  0.2295  0.0088
16592TIP3    H171267   2.955   5.684   5.507  0.4360  0.0717  0.1465
16592TIP3    H271268   2.894   5.822   5.526 -0.2656  0.0242 -1.6929
16593TIP3   OH271269   1.063   4.609  12.180  0.3553  0.0885 -0.3661
16593TIP3    H171270   1.146   4.605  12.132  0.5733 -1.4153  0.1040
16593TIP3    H271271   1.090   4.617  12.272  0.0215 -1.7324 -0.0860
16594TIP3   OH271272   3.854   3.806   1.715 -0.1887 -0.3142 -0.2740
16594TIP3    H171273   3.922   3.759   1.763  0.7758 -0.6433 -1.9362
16594TIP3    H271274   3.900   3.875   1.667 -0.7854 -1.3930 -2.4968
16595TIP3   OH271275   1.435   0.214   0.986  0.2712  0.0351 -0.4142
16595TIP3    H171276   1.432   0.267   1.066  0.3246 -2.1922  1.1262
16595TIP3    H271277   1.348   0.222   0.949 -0.5228 -0.8345  1.1982
16596TIP3   OH271278   2.252   4.955   5.348 -0.7980 -0.6941  0.4200
16596TIP3    H171279   2.213   4.912   5.272 -0.9537  1.3862 -0.7382
16596TIP3    H271280   2.332   4.996   5.313 -0.6680 -0.0593  1.4575
16597TIP3   OH271281   2.129   2.723  16.566  0.1757 -0.3641  0.6485
16597TIP3    H171282   2.176   2.694  16.644  0.1842  0.0791  0.8062
16597TIP3    H271283   2.116   2.643  16.515 -0.3877 -0.7653  1.4026
16598TIP3   OH271284   4.734   5.449  13.228  0.1715 -0.0766  0.7271
16598TIP3    H171285   4.730   5.545  13.236  1.9878 -0.0675  1.7205
16598TIP3    H271286   4.643   5.423  13.215 -0.1989  1.8817 -0.8383
16599TIP3   OH271287   3.742   0.349  12.326  0.2164  0.0446  0.2309
16599TIP3    H171288   3.727   0.384  12.414  2.2419  0.5712  0.3757
16599TIP3    H271289   3.714   0.258  12.332  0.4213  0.0546  1.4494
16600TIP3   OH271290   3.457   5.521   1.238  0.0511 -0.2936 -0.4736
16600TIP3    H171291   3.469   5.431   1.207 -2.0989 -1.2154  1.2609
16600TIP3    H271292   3.495   5.521   1.326 -0.6360  0.2975 -0.1721
16601TIP3   OH271293   4.867   5.962  13.343  0.7808 -0.1490 -0.1426
16601TIP3    H171294   4.803   6.033  13.352 -0.1376 -0.9707 -0.0981
16601TIP3    H271295   4.947   5.997  13.382  0.3848  0.9142 -0.2545
16602TIP3   OH271296   1.528   5.259  14.270  0.7910 -0.0140  0.9631
16602TIP3    H171297   1.600   5.244  14.208 -0.2703 -1.1064 -0.0110
16602TIP3    H271298   1.463   5.309  14.219  0.5996  0.4622  1.6690
16603TIP3   OH271299   3.946   6.299   3.161 -0.0835  0.1190 -0.4643
16603TIP3    H171300   4.024   6.354   3.165  1.0609 -1.3862 -1.6174
16603TIP3    H271301   3.932   6.270   3.251  0.9846 -0.0102 -0.3394
16604TIP3   OH271302   0.600   0.286   4.396 -0.7781  0.1046 -0.2572
16604TIP3    H171303   0.623   0.299   4.488  1.1076  1.2301 -0.8543
16604TIP3    H271304   0.535   0.353   4.378  0.4520  1.3214 -0.2893
16605TIP3   OH271305   4.933   3.225  12.576  0.2332 -0.4078 -0.1159
16605TIP3    H171306   4.977   3.250  12.494 -0.0441 -0.3808 -0.2579
16605TIP3    H271307   4.883   3.302  12.601  0.7937 -0.2143  0.4014
16606TIP3   OH271308   0.921   1.566   0.125  0.0579 -0.5594  0.7152
16606TIP3    H171309   0.861   1.559   0.200 -1.7627 -0.0958 -0.6522
16606TIP3    H271310   0.943   1.475   0.104  0.3318 -0.7076  1.6029
16607TIP3   OH271311   0.268   6.304   6.514  0.7457 -0.2580  0.4145
16607TIP3    H171312   0.360   6.327   6.501 -0.2978  2.4280 -2.8478
16607TIP3    H271313   0.250   6.238   6.447  0.6118 -1.8842  1.9979
16608TIP3   OH271314   1.660   1.926   0.548 -0.7127  0.5048  0.2479
16608TIP3    H171315   1.576   1.971   0.551 -0.6641  0.6033  0.1442
16608TIP3    H271316   1.641   1.842   0.507 -0.7582  0.5346  0.2076
16609TIP3   OH271317   3.686   0.057   1.543 -0.4244  0.4956  0.3643
16609TIP3    H171318   3.765   0.070   1.491  0.5544 -1.9108  1.1747
16609TIP3    H271319   3.617   0.101   1.493  1.1627  1.3718 -1.0979
16610TIP3   OH271320   5.514   4.315   1.362 -0.7198  0.3443  0.2155
16610TIP3    H171321   5.574   4.244   1.339 -0.1544  0.6027  0.8544
16610TIP3    H271322   5.537   4.386   1.303  0.6407  0.9628  1.4567
16611TIP3   OH271323   2.451   4.443  11.713  0.3052 -0.5817 -0.1028
16611TIP3    H171324   2.446   4.519  11.772 -0.2058 -0.4922 -0.2519
16611TIP3    H271325   2.420   4.477  11.629 -0.9718 -1.2193  0.1039
16612TIP3   OH271326   2.011   2.759  13.881  0.2880 -0.0504 -0.3625
16612TIP3    H171327   2.098   2.737  13.917 -0.7815  0.8175  2.9735
16612TIP3    H271328   2.020   2.850  13.851  1.1056 -0.6780 -2.0948
16613TIP3   OH271329   3.351   4.713  12.427  0.3448 -0.3895  0.0047
16613TIP3    H171330   3.277   4.688  12.372 -0.8838  1.3799  0.8472
16613TIP3    H271331   3.366   4.805  12.407  2.6528 -0.8385 -0.5218
16614TIP3   OH271332   2.496   5.606   0.323 -0.0841  0.0560  0.2026
16614TIP3    H171333   2.519   5.517   0.294 -0.6600  0.5902 -2.0243
16614TIP3    H271334   2.572   5.659   0.300  0.2904  0.1335  1.6080
16615TIP3   OH271335   4.384   3.327   4.412 -0.1331  0.1983  0.2660
16615TIP3    H171336   4.356   3.236   4.425  0.0493  0.0425 -0.4440
16615TIP3    H271337   4.446   3.342   4.483 -1.2779  0.2422  1.2775
16616TIP3   OH271338   6.499   5.713  10.870 -0.1440 -0.2740  0.2686
16616TIP3    H171339   6.566   5.675  10.813  0.0778 -0.8371  0.8926
16616TIP3    H271340   6.464   5.787  10.820  3.3564  2.2200  1.3411
16617TIP3   OH271341   6.066   3.308  13.899 -0.0505  0.3084  0.0618
16617TIP3    H171342   6.077   3.403  13.905 -1.2832  0.6052 -1.9028
16617TIP3    H271343   5.973   3.296  13.883 -0.5165 -1.4605  3.7560
16618TIP3   OH271344   2.030   1.479  11.107 -0.5877 -0.3887 -0.1130
16618TIP3    H171345   2.068   1.566  11.118 -0.8638 -0.2766 -0.0551
16618TIP3    H271346   2.105   1.419  11.116 -0.2406 -0.1158 -1.0996
16619TIP3   OH271347   6.598   4.105   3.479 -0.0194  0.1886  0.0962
16619TIP3    H171348   6.684   4.140   3.456  0.4391 -0.9067  0.1238
16619TIP3    H271349   6.553   4.097   3.395 -1.0242  3.0643  0.2751
16620TIP3   OH271350   4.869   2.114  11.567 -0.5412  0.0420  0.5700
16620TIP3    H171351   4.961   2.134  11.550 -0.6827  0.2274 -0.0048
16620TIP3    H271352   4.823   2.142  11.487 -1.0099 -0.6493  0.5920
16621TIP3   OH271353   2.009   5.351  12.107 -0.3804 -0.5191  0.1629
16621TIP3    H171354   2.011   5.257  12.092 -0.6364 -0.2235 -1.8136
16621TIP3    H271355   1.945   5.384  12.045  2.6564  1.4488 -2.0404
16622TIP3   OH271356   2.208   5.216   3.290  0.2673 -0.3102  0.4488
16622TIP3    H171357   2.241   5.286   3.233 -2.2661 -0.9507 -1.8784
16622TIP3    H271358   2.284   5.159   3.303  1.7275  1.5350  0.3822
16623TIP3   OH271359   0.108   3.836   5.027  0.0609 -0.3255  0.0194
16623TIP3    H171360   0.081   3.778   5.098 -0.2203 -0.5649 -0.2802
16623TIP3    H271361   0.178   3.787   4.983  0.4948 -0.0138  0.3618
16624TIP3   OH271362   4.405   6.037  16.244 -0.0829  0.0707 -0.2483
16624TIP3    H171363   4.487   6.084  16.229  0.4924 -0.6696  0.5068
16624TIP3    H271364   4.337   6.095  16.209  0.6273  1.3916  0.5242
16625TIP3   OH271365   0.056   3.314  14.286  0.0109  0.1806 -0.2220
16625TIP3    H171366   0.053   3.408  14.308 -2.3015  0.1356 -0.2303
16625TIP3    H271367   0.046   3.311  14.191 -2.0993 -0.1652  0.0057
16626TIP3   OH271368   0.026   6.277   3.806  0.0085  0.0153 -0.8577
16626TIP3    H171369   0.026   6.371   3.789 -1.1744  0.2942  0.5401
16626TIP3    H271370   0.044   6.270   3.900 -1.1795 -1.0828 -0.6935
16627TIP3   OH271371   3.498   3.187  11.732 -0.1845 -0.2754 -0.4697
16627TIP3    H171372   3.406   3.191  11.756  0.0602  0.6460  0.3841
16627TIP3    H271373   3.505   3.242  11.654 -0.4330 -0.6786 -0.7733
16628TIP3   OH271374   2.579   2.309  14.443 -0.0058  0.2808  0.1996
16628TIP3    H171375   2.590   2.250  14.368  2.1469 -1.4667  1.8223
16628TIP3    H271376   2.644   2.378  14.429 -0.8666  0.9841 -0.4446
16629TIP3   OH271377   6.164   1.257  16.619  0.1175 -0.5217  0.0092
16629TIP3    H171378   6.193   1.343  16.589 -0.9928  0.1198  0.7257
16629TIP3    H271379   6.236   1.225  16.673  1.0158 -0.5478 -1.1944
16630TIP3   OH271380   0.081   3.080  14.480 -0.1410 -0.0166  0.3894
16630TIP3    H171381  -0.004   3.122  14.492 -0.6751 -1.5045  1.8489
16630TIP3    H271382   0.084   3.058  14.387 -1.1275  0.4969  0.2327
16631TIP3   OH271383   0.612   6.642   5.729 -0.1049 -0.2378  0.5189
16631TIP3    H171384   0.601   6.737   5.726  0.8789 -0.1317 -0.3881
16631TIP3    H271385   0.666   6.622   5.652  0.2501 -1.4482  1.0606
16632TIP3   OH271386   5.971   3.057   2.000 -0.1395 -0.0221 -0.3897
16632TIP3    H171387   5.997   3.022   2.086 -0.2618 -0.6739 -0.6167
16632TIP3    H271388   5.964   3.152   2.014 -3.0565 -0.4058  1.1077
16633TIP3   OH271389   2.315   3.542   3.154  0.4150  0.0562  0.0952
16633TIP3    H171390   2.327   3.495   3.072 -0.6788 -0.5933  0.2959
16633TIP3    H271391   2.280   3.627   3.128 -0.7748 -0.4657 -0.0853
16634TIP3   OH271392   0.071   3.668  15.437  0.0165  0.2209  0.4310
16634TIP3    H171393   0.100   3.604  15.371  0.3265  1.0420 -0.2405
16634TIP3    H271394  -0.015   3.696  15.406  0.5413  1.2649 -0.1147
16635TIP3   OH271395   4.424   6.490  11.276 -0.2971  0.4536  0.1188
16635TIP3    H171396   4.343   6.534  11.299  0.5891  1.2646  1.7814
16635TIP3    H271397   4.488   6.561  11.266  0.1752 -0.1534 -1.3748
16636TIP3   OH271398   5.676   5.852   3.069  0.3800  0.4245  0.0865
16636TIP3    H171399   5.763   5.868   3.032  0.0211 -0.1319 -1.0237
16636TIP3    H271400   5.627   5.932   3.050  0.5502  0.6122  0.4301
16637TIP3   OH271401   5.729   0.387   5.641 -0.5153  0.3631  0.2366
16637TIP3    H171402   5.817   0.384   5.605 -0.0300 -0.7856  1.4687
16637TIP3    H271403   5.677   0.435   5.576  0.8744  0.5036 -0.7737
16638TIP3   OH271404   4.262   6.543  16.799  0.2873  0.7131 -0.3860
16638TIP3    H171405   4.192   6.517  16.739  0.6567  0.2886 -0.6373
16638TIP3    H271406   4.291   6.627  16.765 -2.0663  2.3261  1.4244
16639TIP3   OH271407   0.312   3.787  10.725  0.6850 -0.2364 -0.2782
16639TIP3    H171408   0.347   3.876  10.731  0.9035 -0.4141  1.1990
16639TIP3    H271409   0.389   3.733  10.708  0.6989 -0.2586 -0.1462
16640TIP3   OH271410   4.283   6.090  17.052  0.5480 -0.1999 -0.6343
16640TIP3    H171411   4.190   6.069  17.059  0.2277  0.9283 -1.3631
16640TIP3    H271412   4.328   6.012  17.084 -0.6758  0.0915  1.9226
16641TIP3   OH271413   6.787   6.557  13.384  0.2748 -0.4381 -0.6181
16641TIP3    H171414   6.811   6.519  13.469  2.4599 -0.8420 -1.3701
16641TIP3    H271415   6.693   6.572  13.390  0.5576  0.4628  2.2297
16642TIP3   OH271416   2.130   1.293   6.121  0.0130  0.1893  0.3328
16642TIP3    H171417   2.173   1.287   6.206 -1.0099  2.8570  1.1159
16642TIP3    H271418   2.038   1.313   6.142 -0.6519 -0.9301 -1.3782
16643TIP3   OH271419   3.521   4.930   4.165  0.6402 -0.2028  0.5488
16643TIP3    H171420   3.460   4.997   4.196  0.3085  0.2320 -1.0016
16643TIP3    H271421   3.599   4.979   4.139  1.0864 -0.6063  1.1168
16644TIP3   OH271422   2.994   1.941   4.524 -0.2501 -0.0063  0.7150
16644TIP3    H171423   2.922   1.894   4.483  1.4481 -0.5843 -1.7285
16644TIP3    H271424   3.017   1.888   4.601 -2.4569  0.2525  1.5746
16645TIP3   OH271425   2.165   4.081   3.894 -0.4507  0.7318  0.1219
16645TIP3    H171426   2.255   4.090   3.862 -0.3220 -0.1759  0.2281
16645TIP3    H271427   2.166   4.124   3.980  0.1717 -0.3270  0.6460
16646TIP3   OH271428   0.316   6.518  15.146  0.2294 -0.2615 -0.0166
16646TIP3    H171429   0.255   6.543  15.077  0.2887  1.9207  0.6820
16646TIP3    H271430   0.262   6.517  15.226  0.9398  1.0731  0.5050
16647TIP3   OH271431   3.263   5.385  13.632 -0.4095 -0.1767  0.6534
16647TIP3    H171432   3.308   5.301  13.630 -2.4403 -1.3613  2.5355
16647TIP3    H271433   3.257   5.408  13.725  0.1151  2.0498  0.1713
16648TIP3   OH271434   0.803   3.075   3.605 -0.4952  0.0916  0.4949
16648TIP3    H171435   0.733   3.128   3.567 -1.6979 -1.3333  0.6865
16648TIP3    H271436   0.761   2.992   3.627  1.3797 -0.9790  0.1240
16649TIP3   OH271437   5.155   0.428   2.130  0.2914 -0.1630 -0.0817
16649TIP3    H171438   5.131   0.493   2.196  1.9872 -1.1255  1.5442
16649TIP3    H271439   5.074   0.380   2.113  0.2434 -1.1344  2.7290
16650TIP3   OH271440   2.859   0.301  14.507  0.4400  0.2350 -0.1315
16650TIP3    H171441   2.800   0.278  14.435  1.3546 -0.8954 -0.5530
16650TIP3    H271442   2.858   0.223  14.564  1.1792  0.3818  0.0859
16651TIP3   OH271443   5.782   3.542  16.487  0.0306 -0.4897  0.0411
16651TIP3    H171444   5.808   3.630  16.458  0.1716 -0.5981 -0.1612
16651TIP3    H271445   5.688   3.538  16.470  0.3401 -1.0160 -1.6142
16652TIP3   OH271446   5.508   3.906  11.672 -0.0018 -0.5410  0.2797
16652TIP3    H171447   5.447   3.978  11.684 -0.3668 -0.4673 -1.8430
16652TIP3    H271448   5.520   3.900  11.577  1.7268 -1.8498  0.5476
16653TIP3   OH271449   4.197   1.470  13.628  0.1337  0.9373 -0.0177
16653TIP3    H171450   4.239   1.444  13.710 -0.2742  2.0425  0.5527
16653TIP3    H271451   4.203   1.392  13.572  1.6660  0.6256  0.5500
16654TIP3   OH271452   2.444   3.437   4.343  0.2211  0.2505  0.5867
16654TIP3    H171453   2.365   3.490   4.353  0.0143 -0.2443  1.6952
16654TIP3    H271454   2.414   3.358   4.297 -0.4382 -1.0255  3.1353
16655TIP3   OH271455   0.084   3.214  11.012  0.2231  0.5324 -0.0281
16655TIP3    H171456   0.116   3.167  11.089  0.5744  1.5530  0.4553
16655TIP3    H271457   0.153   3.203  10.946  0.3360  0.4222  0.1097
16656TIP3   OH271458   0.818   1.775   2.775  0.0836  0.0051 -0.3859
16656TIP3    H171459   0.815   1.870   2.767 -0.7846  0.1645  1.6730
16656TIP3    H271460   0.753   1.744   2.711 -2.8288  1.0051  2.0015
16657TIP3   OH271461   0.306   3.644  15.135  0.2626  0.4374 -0.3033
16657TIP3    H171462   0.236   3.585  15.109  0.6936  0.2900 -1.1502
16657TIP3    H271463   0.321   3.625  15.228 -0.9239  0.5913 -0.0700
16658TIP3   OH271464   0.378   4.373  12.416  0.3081  0.0508  0.4346
16658TIP3    H171465   0.410   4.306  12.356  1.3787  0.4159  0.5889
16658TIP3    H271466   0.455   4.427  12.436 -0.5411  1.3262  0.3111
16659TIP3   OH271467   1.169   1.754   0.713 -0.0087 -0.1596  0.2768
16659TIP3    H171468   1.162   1.850   0.712  0.6645 -0.0545  2.4340
16659TIP3    H271469   1.082   1.724   0.738 -0.6698 -0.2026 -2.0030
16660TIP3   OH271470   5.756   5.138   3.383 -0.4176 -0.6585 -0.2929
16660TIP3    H171471   5.819   5.080   3.340 -0.3335 -0.5974 -0.2524
16660TIP3    H271472   5.726   5.197   3.314  1.3686  0.8782  0.2065
16661TIP3   OH271473   6.510   3.816   3.136  0.7435  0.4194 -0.0184
16661TIP3    H171474   6.505   3.770   3.220  0.2222 -2.0710 -1.3590
16661TIP3    H271475   6.512   3.909   3.160 -0.9051 -0.1706  2.7049
16662TIP3   OH271476   0.271   6.566   0.653 -0.7844  0.1929 -0.3706
16662TIP3    H171477   0.207   6.597   0.588 -2.1824 -0.8744  0.4657
16662TIP3    H271478   0.263   6.628   0.725  0.5463  1.1941 -1.0533
16663TIP3   OH271479   3.152   3.871   5.867 -0.0290 -0.9268 -0.1141
16663TIP3    H171480   3.210   3.915   5.804  0.3073 -0.6056  0.4189
16663TIP3    H271481   3.064   3.897   5.840  0.2738  3.5155  2.6803
16664TIP3   OH271482   4.107   3.962   1.142  0.3599 -0.3215 -0.1057
16664TIP3    H171483   4.064   3.922   1.067  0.7326 -0.4002 -0.2811
16664TIP3    H271484   4.200   3.963   1.118  0.5161 -0.6412  0.4941
16665TIP3   OH271485   6.479   6.158  16.402  0.1898 -0.9765 -0.2071
16665TIP3    H171486   6.449   6.197  16.320  1.1689 -0.2005 -0.2071
16665TIP3    H271487   6.504   6.069  16.379  0.5103 -0.7461 -0.7618
16666TIP3   OH271488   0.947   1.251  13.639 -0.1729  0.3589  0.1074
16666TIP3    H171489   0.874   1.295  13.681 -0.1274  0.0768  0.4879
16666TIP3    H271490   1.000   1.322  13.602 -0.3145  0.6006  0.3662
16667TIP3   OH271491   5.204   3.511  13.256  0.2649 -0.0302 -0.3759
16667TIP3    H171492   5.150   3.435  13.233 -0.4499  0.5480 -0.6083
16667TIP3    H271493   5.173   3.581  13.199 -0.3104  0.9289  1.0905
16668TIP3   OH271494   5.293   6.576   0.781  0.1764 -0.6874 -0.1055
16668TIP3    H171495   5.254   6.520   0.713 -0.8467 -1.0197  0.7374
16668TIP3    H271496   5.385   6.551   0.783 -0.1326 -1.8700 -0.2043
16669TIP3   OH271497   0.386   4.064   5.274 -0.1530 -0.5413 -0.3237
16669TIP3    H171498   0.331   4.141   5.257 -0.1210 -0.4141  0.1328
16669TIP3    H271499   0.394   4.021   5.190 -2.8300 -1.8026  0.0206
16670TIP3   OH271500   3.701   2.421  11.379  0.2399 -0.2220  0.3393
16670TIP3    H171501   3.750   2.489  11.333  0.3014 -0.4479  0.0708
16670TIP3    H271502   3.683   2.355  11.313  0.4516 -0.6158  0.6650
16671TIP3   OH271503   6.759   6.426  12.510  0.4115 -0.2353 -0.0152
16671TIP3    H171504   6.803   6.508  12.535 -3.0077  1.6236  0.1491
16671TIP3    H271505   6.789   6.409  12.421  1.1811  1.1875 -0.0441
16672TIP3   OH271506   6.144   5.216  17.239 -0.1887 -0.5266  0.3096
16672TIP3    H171507   6.055   5.248  17.227 -0.3601 -1.1144 -0.0049
16672TIP3    H271508   6.142   5.126  17.208  0.5081 -0.5566  0.3359
16673TIP3   OH271509   2.396   0.847  15.354  0.4431 -0.0608 -0.6713
16673TIP3    H171510   2.473   0.844  15.410  0.1856  1.1856 -0.2193
16673TIP3    H271511   2.419   0.911  15.286 -0.5423  1.0572  0.0266
16674TIP3   OH271512   4.828   4.265  12.845 -0.2978 -0.5002 -0.4320
16674TIP3    H171513   4.856   4.237  12.758  0.2767  0.3025 -0.5089
16674TIP3    H271514   4.786   4.350  12.831  3.0883  1.4332  0.5181
16675TIP3   OH271515   1.096   0.827  11.871 -0.1719  0.9278 -0.5773
16675TIP3    H171516   1.126   0.787  11.790 -0.7226 -0.9801  0.1281
16675TIP3    H271517   1.100   0.921  11.854 -0.0288  0.5699 -2.7166
16676TIP3   OH271518   0.239   2.810   0.937 -0.1466 -0.5269  0.1496
16676TIP3    H171519   0.261   2.761   1.016  1.7331 -0.4721 -0.3085
16676TIP3    H271520   0.209   2.744   0.874  1.2295 -0.9493 -0.0710
16677TIP3   OH271521   4.386   5.655   1.939 -0.2047 -0.5073  0.0708
16677TIP3    H171522   4.403   5.582   1.881  0.0430 -0.2148 -0.2279
16677TIP3    H271523   4.431   5.632   2.021  2.0605  0.4593 -0.8534
16678TIP3   OH271524   2.245   5.671  14.446 -0.1224  0.0492 -0.2815
16678TIP3    H171525   2.152   5.692  14.461 -0.1484 -0.1929 -0.0955
16678TIP3    H271526   2.292   5.750  14.474 -0.1276 -0.6197  1.6743
16679TIP3   OH271527   0.791   3.173   2.032 -0.0327 -0.3469 -0.8081
16679TIP3    H171528   0.774   3.094   1.981 -2.0425  0.1907 -0.9765
16679TIP3    H271529   0.706   3.216   2.040  1.0701  1.9208 -0.8940
16680TIP3   OH271530   5.933   2.795  13.427  0.5330 -0.1061  0.0492
16680TIP3    H171531   5.906   2.837  13.345 -1.3718 -0.5459  0.4261
16680TIP3    H271532   5.854   2.795  13.481  0.8474 -2.8912  0.5879
16681TIP3   OH271533   6.014   4.731   3.663 -0.2607  0.4487  0.4160
16681TIP3    H171534   6.073   4.790   3.615 -1.0502  0.8865 -0.0174
16681TIP3    H271535   5.933   4.781   3.673 -2.5625 -2.0873 -3.8297
16682TIP3   OH271536   6.811   5.703   4.805  0.3617  0.4766  0.6145
16682TIP3    H171537   6.783   5.658   4.726 -0.7589  2.0363  0.0956
16682TIP3    H271538   6.758   5.665   4.875 -1.2922  1.6597  0.0251
16683TIP3   OH271539   6.189   2.334   3.876 -0.3289 -0.1853  0.1837
16683TIP3    H171540   6.213   2.272   3.808  0.1977  0.2356 -0.0134
16683TIP3    H271541   6.261   2.397   3.878  0.1915 -0.8159  1.8891
16684TIP3   OH271542   3.135   1.529   1.182  0.5192  0.3329 -0.3647
16684TIP3    H171543   3.110   1.620   1.162 -0.4706  1.1328  3.9995
16684TIP3    H271544   3.226   1.523   1.154  0.7784  2.8793 -0.2215
16685TIP3   OH271545   0.684   0.556  10.417 -0.0040  0.0720 -0.3717
16685TIP3    H171546   0.620   0.591  10.479  2.1768  0.0272  1.9960
16685TIP3    H271547   0.710   0.472  10.455  0.9874 -0.2015 -1.6387
16686TIP3   OH271548   5.807   5.658   2.062 -0.3042 -0.0298  0.8892
16686TIP3    H171549   5.772   5.747   2.069 -1.9617 -0.7189  1.6858
16686TIP3    H271550   5.861   5.659   1.983 -1.7638  1.2058 -0.1111
16687TIP3   OH271551   4.933   2.351  12.933 -0.1047  0.0358  0.2761
16687TIP3    H171552   4.926   2.276  12.874  0.4494  0.3937 -0.2462
16687TIP3    H271553   4.941   2.312  13.020  2.6589 -0.5848 -0.2225
16688TIP3   OH271554   1.073   3.022   5.685 -0.3087  0.2611  0.3213
16688TIP3    H171555   1.046   3.037   5.595  0.4796  0.7163  0.1561
16688TIP3    H271556   1.018   3.079   5.738 -2.0057 -1.3105  0.2924
16689TIP3   OH271557   5.191   2.843   2.479 -0.1275 -0.0616  0.2874
16689TIP3    H171558   5.119   2.783   2.463 -1.5347  1.8428 -0.7286
16689TIP3    H271559   5.187   2.864   2.572 -1.3431  0.6046  0.0858
16690TIP3   OH271560   1.334   3.184   3.676  0.1564  0.4568  0.6115
16690TIP3    H171561   1.415   3.159   3.720 -0.3234 -1.0018  0.6750
16690TIP3    H271562   1.294   3.102   3.649 -1.4444  1.1489  0.7971
16691TIP3   OH271563   4.579   1.915  14.522  0.3167 -0.1049 -0.2903
16691TIP3    H171564   4.606   1.830  14.487  0.7020 -0.4932  0.9450
16691TIP3    H271565   4.643   1.977  14.485  0.1600 -0.3649 -1.0152
16692TIP3   OH271566   6.252   4.814  13.737 -0.1411  0.2901  0.2913
16692TIP3    H171567   6.289   4.730  13.709 -0.7587  0.1473 -0.1012
16692TIP3    H271568   6.182   4.790  13.798  0.5486  0.5649  1.2036
16693TIP3   OH271569   4.090   1.052   0.832  0.6631  0.2482  0.8491
16693TIP3    H171570   4.076   1.096   0.915 -1.2096  0.0119  0.6880
16693TIP3    H271571   4.145   0.977   0.853 -0.3660 -0.2040  2.0140
16694TIP3   OH271572   2.323   2.435   6.661 -0.1288 -0.0300  0.1524
16694TIP3    H171573   2.261   2.464   6.595  1.0529  1.0078 -0.5203
16694TIP3    H271574   2.288   2.469   6.743 -0.9884 -0.3434 -0.0794
16695TIP3   OH271575   2.319   0.449  14.740 -0.3600  0.2156 -0.1297
16695TIP3    H171576   2.248   0.501  14.703 -0.9891  0.2935  1.1506
16695TIP3    H271577   2.399   0.484  14.700 -1.1121 -0.6716 -2.5054
16696TIP3   OH271578   1.919   2.731   5.384 -0.4293 -0.0023  0.2197
16696TIP3    H171579   1.973   2.794   5.337 -0.6353  0.0543  0.0610
16696TIP3    H271580   1.981   2.681   5.436 -0.2152  0.0078 -0.0276
16697TIP3   OH271581   4.929   3.402   1.580 -0.4702  0.3697  0.2595
16697TIP3    H171582   4.984   3.421   1.503  0.0602  1.5171  0.9043
16697TIP3    H271583   4.962   3.318   1.613 -0.2067  0.2409 -0.3306
16698TIP3   OH271584   5.748   1.596  13.485  0.0739  0.2303 -0.5645
16698TIP3    H171585   5.785   1.544  13.556 -1.1450  1.6143  1.1156
16698TIP3    H271586   5.821   1.609  13.424  0.6191 -2.7005 -0.6288
16699TIP3   OH271587   6.630   0.092  11.540 -0.5326  0.4352 -0.1950
16699TIP3    H171588   6.663   0.044  11.616 -1.4439 -0.6518 -0.4596
16699TIP3    H271589   6.545   0.052  11.522  0.0266  0.1298 -2.2776
16700TIP3   OH271590   4.082   3.979  16.020  0.0694  0.2147  0.2053
16700TIP3    H171591   4.086   3.884  16.008 -1.3699  0.2325 -0.6376
16700TIP3    H271592   4.146   4.013  15.957 -0.3022 -0.1538 -0.3856
16701TIP3   OH271593   3.576   3.188   4.148  0.4032  0.0950  0.2328
16701TIP3    H171594   3.601   3.116   4.206 -0.1669  1.0653  1.7354
16701TIP3    H271595   3.498   3.225   4.189  0.8676  1.7603 -0.3489
16702TIP3   OH271596   3.525   5.295   3.383  0.2374  0.2252  0.4012
16702TIP3    H171597   3.527   5.389   3.365 -1.0493  0.4274  1.2531
16702TIP3    H271598   3.506   5.255   3.298 -0.1122  0.7890  0.2140
16703TIP3   OH271599   6.206   2.267   4.140  0.3368 -0.1521  0.0735
16703TIP3    H171600   6.212   2.253   4.046 -3.1791 -0.2719 -0.1950
16703TIP3    H271601   6.207   2.178   4.177 -1.8791 -0.3164 -0.1687
16704TIP3   OH271602   5.190   1.324  12.482  0.0020 -0.1683  0.4517
16704TIP3    H171603   5.275   1.280  12.486  0.2328  0.1598 -0.6650
16704TIP3    H271604   5.155   1.300  12.396 -1.6799 -1.4783  1.4626
16705TIP3   OH271605   3.901   0.546   4.596 -0.1304  0.4844  0.4915
16705TIP3    H171606   3.869   0.606   4.663  0.2725  0.3978  0.7603
16705TIP3    H271607   3.865   0.461   4.620 -0.6674  0.6072  0.1332
16706TIP3   OH271608   1.762   6.430   2.634  0.7781  0.6090  0.5096
16706TIP3    H171609   1.678   6.454   2.595  0.5256 -0.7247  0.1898
16706TIP3    H271610   1.807   6.381   2.565  2.4554  2.5646  0.1512
16707TIP3   OH271611   4.328   4.045  10.487 -0.3027 -0.0818  0.3060
16707TIP3    H171612   4.289   3.968  10.528  2.7706 -0.7741  2.0929
16707TIP3    H271613   4.286   4.120  10.530  0.3138 -0.8113  2.2380
16708TIP3   OH271614   0.602   1.466   0.724 -0.4738  0.1109  0.2729
16708TIP3    H171615   0.618   1.486   0.817  0.5160  2.6551 -0.3992
16708TIP3    H271616   0.533   1.527   0.698 -1.4391 -1.2668 -0.4251
16709TIP3   OH271617   4.196   0.873  16.021  0.0353 -0.3595 -0.3038
16709TIP3    H171618   4.263   0.927  15.980 -0.8486  1.5939  0.7767
16709TIP3    H271619   4.115   0.922  16.008 -0.4202 -0.2077  2.8493
16710TIP3   OH271620   3.399   0.854   4.146  0.6645  0.0844  0.6274
16710TIP3    H171621   3.491   0.837   4.125  0.7706  1.2759  0.0703
16710TIP3    H271622   3.392   0.949   4.145 -0.1140  0.0540  2.7461
16711TIP3   OH271623   0.227   1.204   0.500  0.0015  0.0527  0.1774
16711TIP3    H171624   0.304   1.154   0.472  2.3542  2.9256  1.3081
16711TIP3    H271625   0.229   1.199   0.596 -2.0838 -1.0291  0.1992
16712TIP3   OH271626   3.118   1.474  12.264 -0.1656  0.2337 -0.6998
16712TIP3    H171627   3.059   1.513  12.328  1.5344 -0.9652  1.6678
16712TIP3    H271628   3.061   1.448  12.192 -2.2365  0.9026  0.6487
16713TIP3   OH271629   3.357   1.355  13.738 -0.0430 -0.2412 -0.7090
16713TIP3    H171630   3.269   1.319  13.728 -0.5986  1.0240 -0.3942
16713TIP3    H271631   3.345   1.435  13.789  1.2470  0.1400 -0.9837
16714TIP3   OH271632   1.491   3.962  13.004  0.8521  0.3208 -0.7467
16714TIP3    H171633   1.464   3.881  13.047 -1.4890 -0.1875 -3.0689
16714TIP3    H271634   1.451   4.032  13.057 -2.0306 -0.2963 -2.0022
16715TIP3   OH271635   4.320   3.002   3.104  0.6501 -0.1156 -0.5248
16715TIP3    H171636   4.241   2.993   3.050  0.6606  0.5394 -0.6488
16715TIP3    H271637   4.334   3.096   3.111  1.4058 -0.2268 -0.4814
16716TIP3   OH271638   1.037   2.362   4.474 -0.4628  0.2674  0.3845
16716TIP3    H171639   1.116   2.364   4.528 -0.3870  0.6609  0.2659
16716TIP3    H271640   1.066   2.323   4.391 -0.4378  0.2181  0.4171
16717TIP3   OH271641   3.066   3.789   1.466  0.0920 -0.5481 -0.2349
16717TIP3    H171642   3.124   3.784   1.542  0.9420 -0.7790 -0.8971
16717TIP3    H271643   3.014   3.709   1.469  2.0229 -1.8662 -1.4212
16718TIP3   OH271644   1.537   4.081   0.572 -0.1495 -0.5680  0.1947
16718TIP3    H171645   1.603   4.099   0.505  1.7150 -2.1756  1.5476
16718TIP3    H271646   1.545   4.154   0.633 -0.1145 -0.3965 -0.0134
16719TIP3   OH271647   2.604   5.233   2.257  0.8080  0.6337 -0.8420
16719TIP3    H171648   2.693   5.269   2.251  0.5741  1.3665 -0.0772
16719TIP3    H271649   2.605   5.157   2.199  1.4906  1.5257 -2.0344
16720TIP3   OH271650   0.262   5.840   1.195  0.2153  0.3503  0.7125
16720TIP3    H171651   0.352   5.872   1.203  0.5804 -0.2834 -0.5721
16720TIP3    H271652   0.216   5.910   1.148  0.1094  0.5524  1.1185
16721TIP3   OH271653   6.754   1.621  14.220 -0.7306  0.0095  0.0258
16721TIP3    H171654   6.814   1.591  14.152 -2.7395  1.6523 -2.6244
16721TIP3    H271655   6.735   1.543  14.272  0.7271 -1.3558 -1.4232
16722TIP3   OH271656   6.014   1.528   5.018 -0.0943  0.8557  0.3586
16722TIP3    H171657   5.929   1.505   4.981 -0.1271  3.0986 -1.0309
16722TIP3    H271658   6.042   1.449   5.064 -2.1350 -0.4769 -0.6179
16723TIP3   OH271659   4.632   4.870   1.170  0.4928  0.1343 -0.1150
16723TIP3    H171660   4.545   4.871   1.210  0.4171  0.3334 -0.2864
16723TIP3    H271661   4.627   4.801   1.104  0.7203 -0.4203  0.4428
16724TIP3   OH271662   1.192   6.769   5.337  0.0331  0.1733  0.2990
16724TIP3    H171663   1.243   6.706   5.388 -0.0971  1.2017  1.7317
16724TIP3    H271664   1.156   6.717   5.265  3.6871 -0.4142 -1.2166
16725TIP3   OH271665   5.583   6.471  10.754  0.5529  0.0713 -0.5359
16725TIP3    H171666   5.516   6.454  10.821  2.0101 -1.4421  0.6028
16725TIP3    H271667   5.540   6.529  10.691 -0.7947  1.7343  1.8312
16726TIP3   OH271668   0.067   1.018  17.132 -0.7390 -0.3139 -0.2566
16726TIP3    H171669   0.115   0.974  17.062 -0.4945  0.1223 -0.3669
16726TIP3    H271670   0.131   1.078  17.170 -0.4117 -1.6223  1.3261
16727TIP3   OH271671   3.643   5.422  14.983 -0.2765 -0.6676  0.5365
16727TIP3    H171672   3.652   5.517  14.982 -0.5959 -0.6115  1.9552
16727TIP3    H271673   3.707   5.393  15.049  0.8167 -1.5455 -0.8934
16728TIP3   OH271674   2.394   5.828  17.035  0.1729 -0.3143  0.5731
16728TIP3    H171675   2.308   5.858  17.007  0.5292  0.7112  0.5604
16728TIP3    H271676   2.381   5.736  17.057 -1.4642  0.4286  2.8773
16729TIP3   OH271677   0.380   6.028   4.668  0.3340  0.0067  0.6487
16729TIP3    H171678   0.292   5.993   4.681 -0.4749  1.7372 -0.1358
16729TIP3    H271679   0.410   6.048   4.757 -0.5842  0.6859  0.8097
16730TIP3   OH271680   5.170   1.345   3.466  0.0043  0.2949  0.1381
16730TIP3    H171681   5.201   1.419   3.519 -1.6916  1.0923  0.0306
16730TIP3    H271682   5.244   1.284   3.466  1.6659  2.2307 -0.2698
16731TIP3   OH271683   2.037   2.656  12.960 -0.4527  0.5150  0.5445
16731TIP3    H171684   2.105   2.706  13.004 -0.6546  0.5920  0.7671
16731TIP3    H271685   2.059   2.662  12.867  0.1102  0.1480  0.6535
16732TIP3   OH271686   4.242   4.757   3.461 -0.1859  0.2657  0.2439
16732TIP3    H171687   4.184   4.787   3.531  0.9271 -0.8356  1.6568
16732TIP3    H271688   4.300   4.694   3.503  0.7526 -0.1259 -1.5928
16733TIP3   OH271689   5.674   5.783   1.396 -0.3609  0.5947  0.1815
16733TIP3    H171690   5.734   5.845   1.354  0.4789  0.4383  1.1226
16733TIP3    H271691   5.634   5.833   1.467 -2.7265  1.2358 -1.5432
16734TIP3   OH271692   5.454   1.571   5.771  1.0427 -0.7640 -0.2416
16734TIP3    H171693   5.368   1.578   5.729  0.7080 -1.3395  0.3357
16734TIP3    H271694   5.438   1.518   5.849  2.1220 -1.7370 -0.6734
16735TIP3   OH271695   4.488   2.988   0.058  0.7625  0.1732  0.4704
16735TIP3    H171696   4.470   2.903   0.097  2.4133 -0.5416 -0.2786
16735TIP3    H271697   4.455   3.051   0.123 -1.3034 -1.0118  0.6045
16736TIP3   OH271698   4.992   6.644  14.518  0.0185  0.1835 -0.0895
16736TIP3    H171699   4.993   6.628  14.612 -0.0484 -1.6330 -0.3861
16736TIP3    H271700   4.997   6.739  14.510  3.1969  0.2302  1.7041
16737TIP3   OH271701   3.274   2.894  11.547  0.4362  0.0116  0.0857
16737TIP3    H171702   3.235   2.807  11.533 -0.1646  0.0275  1.5781
16737TIP3    H271703   3.337   2.881  11.618  2.5790  0.1683 -1.7453
16738TIP3   OH271704   0.618   4.855   5.348 -0.1160 -0.3189  0.4509
16738TIP3    H171705   0.622   4.945   5.380 -1.0337 -0.5752  1.3078
16738TIP3    H271706   0.702   4.842   5.304  1.6851 -0.3432  3.7450
16739TIP3   OH271707   0.727   6.147   6.743 -0.3288  0.3184  0.4136
16739TIP3    H171708   0.756   6.058   6.760  0.5620  0.4164 -0.5477
16739TIP3    H271709   0.656   6.162   6.806 -1.6020 -1.6194 -0.5290
16740TIP3   OH271710   3.211   4.816  16.927  0.4347 -0.1222  0.4673
16740TIP3    H171711   3.131   4.811  16.874  0.2883  0.5627  0.6151
16740TIP3    H271712   3.280   4.785  16.869  0.1373 -0.2383  0.1726
16741TIP3   OH271713   2.665   6.043  16.428  0.4532  0.3160  0.2817
16741TIP3    H171714   2.686   6.123  16.380  1.0939  1.4320  2.3595
16741TIP3    H271715   2.625   5.985  16.362  0.7637  2.0002 -1.4378
16742TIP3   OH271716   1.648   0.317  15.773 -0.0939 -0.1705  0.1414
16742TIP3    H171717   1.707   0.307  15.699  0.3718 -0.2439  0.5200
16742TIP3    H271718   1.622   0.227  15.796  0.8021 -0.2512  0.8953
16743TIP3   OH271719   2.164   4.826   3.449 -0.0768  0.4816 -0.0595
16743TIP3    H171720   2.138   4.763   3.517 -1.4064  3.2673  2.1246
16743TIP3    H271721   2.259   4.831   3.456 -0.3513  2.2030  3.0174
16744TIP3   OH271722   0.290   1.412  14.128 -0.3097  0.0110  0.0299
16744TIP3    H171723   0.385   1.404  14.138 -0.5696 -1.4089  1.6465
16744TIP3    H271724   0.274   1.507  14.123  1.2719  0.2240 -1.3459
16745TIP3   OH271725   5.773   4.134  11.416  0.2019  0.5847 -0.0646
16745TIP3    H171726   5.789   4.224  11.443  1.1612  0.0426  1.2593
16745TIP3    H271727   5.807   4.129  11.326  0.4111  1.4564 -0.0356
16746TIP3   OH271728   0.169   1.145  16.393  0.1969  0.3743  0.2427
16746TIP3    H171729   0.086   1.159  16.437 -0.5858  0.4699 -1.2255
16746TIP3    H271730   0.210   1.232  16.390 -0.9834  0.8926 -1.6207
16747TIP3   OH271731   0.945   4.586   0.002 -0.2847 -0.1233 -0.1178
16747TIP3    H171732   1.035   4.573  -0.028  0.3385  0.5315  1.3945
16747TIP3    H271733   0.917   4.666  -0.041 -1.4020 -2.1522 -3.3396
16748TIP3   OH271734   4.809   5.722  11.282  0.1668  0.3671 -0.1862
16748TIP3    H171735   4.831   5.630  11.269 -0.2541  0.1380  0.7039
16748TIP3    H271736   4.838   5.765  11.202  1.5198 -0.3400 -0.0796
16749TIP3   OH271737   0.390   3.263   5.981 -0.2862  0.1512 -0.1398
16749TIP3    H171738   0.443   3.247   6.058 -0.7656 -1.2554 -0.0979
16749TIP3    H271739   0.444   3.320   5.926  0.5311  0.1913  0.6980
16750TIP3   OH271740   3.856   0.439  16.200 -0.4261  0.3440  0.0456
16750TIP3    H171741   3.906   0.361  16.178  1.3599  1.3375  0.5245
16750TIP3    H271742   3.788   0.408  16.260 -0.2867 -0.9689 -0.4489
16751TIP3   OH271743   1.190   2.394   4.699  0.2636 -0.1532 -0.3271
16751TIP3    H171744   1.125   2.458   4.729  0.5537 -0.2668  0.5669
16751TIP3    H271745   1.173   2.316   4.753 -0.3437 -0.9731 -1.6729
16752TIP3   OH271746   1.192   1.821  12.862 -0.3820 -0.5056  0.0018
16752TIP3    H171747   1.231   1.744  12.902 -2.6350 -1.1006  1.1412
16752TIP3    H271748   1.146   1.865  12.934 -1.1572  0.5581 -1.1189
16753TIP3   OH271749   3.837   5.239  16.321 -0.1627 -0.0442 -0.5080
16753TIP3    H171750   3.871   5.151  16.308  0.7313  0.1089  0.6994
16753TIP3    H271751   3.779   5.231  16.397  0.1373  0.4548 -0.2197
16754TIP3   OH271752   0.222   1.078  14.797 -0.2603  0.1373 -0.3031
16754TIP3    H171753   0.230   1.038  14.710  0.5315  0.2320 -0.2772
16754TIP3    H271754   0.161   1.151  14.785 -2.5052 -1.6613 -0.1485
16755TIP3   OH271755   2.338   3.811   1.381  0.6332 -0.2034  0.4847
16755TIP3    H171756   2.363   3.720   1.371 -2.6515 -1.1465  0.1195
16755TIP3    H271757   2.282   3.812   1.459 -0.3758  1.2674 -0.2303
16756TIP3   OH271758   1.866   2.251  14.480 -0.3778  0.2780  0.0293
16756TIP3    H171759   1.952   2.232  14.444 -1.3178  1.3764 -2.9847
16756TIP3    H271760   1.864   2.346  14.488 -0.8903  0.1748  1.2161
16757TIP3   OH271761   0.885   1.038  15.127  0.2614 -0.6864  0.7745
16757TIP3    H171762   0.811   1.097  15.139  0.1136 -0.9470  1.1500
16757TIP3    H271763   0.846   0.957  15.094  0.6180 -0.1114 -1.1356
16758TIP3   OH271764   1.128   3.452   5.890 -0.1934  0.1700  0.8479
16758TIP3    H171765   1.128   3.543   5.919 -1.3784  0.3069  0.4386
16758TIP3    H271766   1.149   3.456   5.796  1.4766 -0.1160  1.1912
16759TIP3   OH271767   1.266   3.296   5.450  0.7422 -0.5414 -0.2571
16759TIP3    H171768   1.238   3.380   5.414  0.3110  0.3683  2.1197
16759TIP3    H271769   1.359   3.290   5.427  0.6536  0.3802 -0.8499
16760TIP3   OH271770   2.550   5.553   4.152 -0.1262 -0.3668  0.8363
16760TIP3    H171771   2.552   5.550   4.248  1.2311 -0.0224  0.8242
16760TIP3    H271772   2.625   5.501   4.125 -1.6018 -2.0630 -0.0908
16761TIP3   OH271773   5.788   5.306   3.579 -0.0633 -0.2482 -0.0216
16761TIP3    H171774   5.762   5.258   3.500  0.3311 -0.2857 -0.1310
16761TIP3    H271775   5.870   5.265   3.606 -0.1369 -0.1553  0.3404
16762TIP3   OH271776   4.114   4.436   1.613 -0.0791 -0.4881 -0.0630
16762TIP3    H171777   4.205   4.407   1.617  0.8945  2.0079 -2.2354
16762TIP3    H271778   4.115   4.524   1.649 -1.5158 -0.1947 -0.7070
16763TIP3   OH271779   0.852   5.788   5.878  0.3672  0.0163  0.4328
16763TIP3    H171780   0.905   5.859   5.841  0.1644 -0.2213 -0.3046
16763TIP3    H271781   0.842   5.813   5.970  0.0811  1.0793  0.1252
16764TIP3   OH271782   0.636   6.752  14.826  0.1337 -0.0091  0.1292
16764TIP3    H171783   0.598   6.787  14.907  1.0832  1.4587 -0.0337
16764TIP3    H271784   0.695   6.683  14.855 -0.2332 -0.1247  0.6128
16765TIP3   OH271785   6.501   3.235  11.585  0.6829 -0.1002  0.2046
16765TIP3    H171786   6.504   3.141  11.570  0.7275  0.0569 -0.7870
16765TIP3    H271787   6.409   3.252  11.609  0.8980 -0.5335  1.3919
16766TIP3   OH271788   4.085   2.987   0.966 -0.1747  0.0379 -0.1479
16766TIP3    H171789   4.133   3.056   1.012  0.2707 -0.3028 -0.1019
16766TIP3    H271790   4.126   2.982   0.880  0.5720 -0.9851  0.2638
16767TIP3   OH271791   2.080   0.612   0.519  0.7778  0.5173  0.1035
16767TIP3    H171792   2.126   0.676   0.574  1.0591 -0.2518  0.7847
16767TIP3    H271793   2.142   0.591   0.449  0.3915  1.5550 -0.5590
16768TIP3   OH271794   5.232   6.069   4.297 -0.0313  0.0638 -0.0892
16768TIP3    H171795   5.234   6.047   4.203  2.6040  0.4751 -0.1632
16768TIP3    H271796   5.151   6.118   4.308  0.0536  0.7712 -2.3440
16769TIP3   OH271797   4.333   1.702  13.580 -0.0720 -0.6012 -0.2257
16769TIP3    H171798   4.286   1.619  13.573 -1.6216  0.2486 -0.1435
16769TIP3    H271799   4.398   1.687  13.649 -1.8348 -1.0535  1.3800
16770TIP3   OH271800   6.648   1.427   3.935  0.3585  0.1658 -0.0729
16770TIP3    H171801   6.620   1.518   3.929 -0.6192 -0.1245  0.0351
16770TIP3    H271802   6.603   1.393   4.012 -1.1361 -1.0456 -1.4263
16771TIP3   OH271803   3.807   4.950   1.024  0.0833  0.2145  0.3766
16771TIP3    H171804   3.791   4.896   1.102  1.3825  0.7935  1.0647
16771TIP3    H271805   3.725   4.997   1.010 -0.8498 -1.4265  0.1559
16772TIP3   OH271806   0.621   5.436   5.325  0.0747  0.1116 -0.4258
16772TIP3    H171807   0.540   5.456   5.278  0.7074  3.0324 -0.3746
16772TIP3    H271808   0.689   5.438   5.259  0.6857  2.1464  0.2392
16773TIP3   OH271809   1.770   4.245  11.321 -0.3223 -0.3860  0.1504
16773TIP3    H171810   1.862   4.245  11.349 -0.7421 -0.8973  1.5788
16773TIP3    H271811   1.735   4.163  11.358 -1.7628  0.6035  1.0067
16774TIP3   OH271812   2.066   3.877  13.122  0.4872  0.2555  0.1450
16774TIP3    H171813   1.992   3.928  13.154 -0.6896 -0.7751 -0.8675
16774TIP3    H271814   2.143   3.929  13.143 -0.5950  1.7844  0.3461
16775TIP3   OH271815   0.521   2.672  14.667 -0.5190 -0.0274  0.1983
16775TIP3    H171816   0.437   2.687  14.624 -0.1636 -0.5487 -0.7006
16775TIP3    H271817   0.584   2.666  14.595  0.0668 -1.0055  0.7787
16776TIP3   OH271818   4.033   5.846   5.561  0.3711  0.6465  0.0464
16776TIP3    H171819   4.035   5.750   5.564  3.4421  0.5918 -1.5279
16776TIP3    H271820   3.975   5.866   5.487  0.6155 -0.0247 -0.3320
16777TIP3   OH271821   4.493   5.226   6.243 -0.1613 -0.4151 -0.3449
16777TIP3    H171822   4.487   5.218   6.338 -1.3224  2.0354 -0.1936
16777TIP3    H271823   4.581   5.193   6.222 -0.7737 -3.2294  1.2791
16778TIP3   OH271824   1.743   3.486  14.052 -0.4775  0.0561 -0.4556
16778TIP3    H171825   1.689   3.558  14.019 -0.4021  0.1526 -0.3688
16778TIP3    H271826   1.702   3.407  14.017  1.3131  0.2997 -3.2916
16779TIP3   OH271827   2.311   0.282   5.472  0.5130  0.2498 -0.0898
16779TIP3    H171828   2.333   0.308   5.383 -0.4738  2.3194  0.2199
16779TIP3    H271829   2.308   0.187   5.471 -0.6102  0.2846 -2.5523
16780TIP3   OH271830   2.010   6.395  15.501 -0.0527 -0.3034 -0.3076
16780TIP3    H171831   2.096   6.353  15.494  0.3504  0.3093  0.9005
16780TIP3    H271832   1.955   6.330  15.545  0.4437  0.2129  1.1167
16781TIP3   OH271833   1.990   0.562   5.315  0.1229 -0.0503 -0.3827
16781TIP3    H171834   2.027   0.557   5.403  0.8727  0.2660 -0.6792
16781TIP3    H271835   2.044   0.502   5.263 -0.5307 -0.4944 -0.5514
16782TIP3   OH271836   2.458   5.775  15.076  0.3505 -0.2282  0.3985
16782TIP3    H171837   2.441   5.700  15.134 -1.2060 -1.2563 -1.3070
16782TIP3    H271838   2.372   5.798  15.042  1.1475  0.7851 -0.9619
16783TIP3   OH271839   6.183   0.978  15.209  0.4427  0.6896 -0.9611
16783TIP3    H171840   6.094   0.945  15.219  0.3107  1.4911  0.6496
16783TIP3    H271841   6.238   0.915  15.254  0.9230 -0.8235 -3.5960
16784TIP3   OH271842   0.280   2.237   0.158 -0.5112 -0.4902  0.1317
16784TIP3    H171843   0.213   2.209   0.220 -0.6219  0.5198  0.4712
16784TIP3    H271844   0.234   2.290   0.093 -0.0977 -0.0527  0.1908
16785TIP3   OH271845   0.709   5.307   4.408 -0.5041 -0.7848 -0.5369
16785TIP3    H171846   0.646   5.341   4.344 -2.2995  0.5831  1.8677
16785TIP3    H271847   0.679   5.218   4.425 -1.2254 -0.4698 -0.1259
16786TIP3   OH271848   4.215   1.560   5.858 -0.7591  0.1002  0.1253
16786TIP3    H171849   4.192   1.632   5.917  2.0011  0.3982  0.8898
16786TIP3    H271850   4.275   1.505   5.909 -2.0247 -2.2192 -0.7971
16787TIP3   OH271851   1.473   5.053   4.229  0.1929 -0.4352 -0.1013
16787TIP3    H171852   1.532   5.102   4.287  0.5624 -1.1322  0.1195
16787TIP3    H271853   1.524   4.979   4.200 -0.3645 -0.6913 -0.4391
16788TIP3   OH271854   4.668   2.198  14.288  0.0940 -0.1012 -0.0709
16788TIP3    H171855   4.748   2.245  14.310 -0.2059  0.3113  0.1327
16788TIP3    H271856   4.687   2.107  14.311  0.2665  0.1029  0.6243
16789TIP3   OH271857   6.382   3.456   5.879 -0.3740 -0.2334  0.2646
16789TIP3    H171858   6.358   3.453   5.972  0.7991  0.7932  0.6157
16789TIP3    H271859   6.366   3.547   5.853  0.9028 -0.1015 -0.0984
16790TIP3   OH271860   0.802   0.244  12.098  0.1051  0.3637 -0.4207
16790TIP3    H171861   0.764   0.218  12.014 -0.0565 -0.2043 -0.1732
16790TIP3    H271862   0.873   0.182  12.112  0.6068  0.9180 -0.4879
16791TIP3   OH271863   4.150   0.573  14.275  0.2404 -0.0228  0.0780
16791TIP3    H171864   4.183   0.638  14.213  2.7426  0.6188  1.9815
16791TIP3    H271865   4.151   0.490  14.226 -0.0801  0.8509 -1.4334
16792TIP3   OH271866   6.439   4.652   5.515 -0.2831  0.2464  0.8368
16792TIP3    H171867   6.468   4.650   5.424  1.5434 -0.1457  1.4217
16792TIP3    H271868   6.466   4.568   5.551 -2.0505 -0.0913  1.4448
16793TIP3   OH271869   4.697   1.969   6.393  0.2786 -0.0061 -0.3113
16793TIP3    H171870   4.662   1.880   6.399 -0.1849  0.2754  1.5282
16793TIP3    H271871   4.628   2.019   6.350 -0.7250  0.0773  1.3461
16794TIP3   OH271872   4.600   1.585   1.852 -0.1970  0.0780  0.0835
16794TIP3    H171873   4.634   1.522   1.789  0.9108  0.4863  0.2717
16794TIP3    H271874   4.667   1.590   1.920 -0.5562  1.0052  0.3754
16795TIP3   OH271875   5.316   1.130  12.762 -0.7085 -0.5518  0.6289
16795TIP3    H171876   5.265   1.059  12.802 -1.7849 -0.1528 -0.0060
16795TIP3    H271877   5.282   1.209  12.803  0.2006 -0.3680  1.0288
16796TIP3   OH271878   5.617   4.738  17.041  0.2763  0.1831 -0.2831
16796TIP3    H171879   5.573   4.714  17.122 -1.0174 -0.1147 -1.0504
16796TIP3    H271880   5.632   4.833  17.049  1.6341 -0.1151  0.9723
16797TIP3   OH271881   5.386   3.380  13.901  0.9069 -0.2340 -0.3865
16797TIP3    H171882   5.436   3.422  13.971  0.7917  0.3370 -0.6451
16797TIP3    H271883   5.334   3.450  13.863 -0.6467 -0.9757  0.3495
16798TIP3   OH271884   2.726   6.765   5.653  0.3259 -0.2803  0.2839
16798TIP3    H171885   2.767   6.746   5.569 -1.0179 -0.8996 -0.2491
16798TIP3    H271886   2.695   6.855   5.645 -0.1159 -0.4590 -0.0170
16799TIP3   OH271887   0.893   6.569  11.684 -0.6711  0.1235 -0.0858
16799TIP3    H171888   0.949   6.572  11.606  0.7799 -0.1522  0.9263
16799TIP3    H271889   0.804   6.564  11.649  0.0954 -3.5055 -1.7594
16800TIP3   OH271890   2.382   0.745   5.806  0.2241  0.0444  0.1225
16800TIP3    H171891   2.300   0.789   5.785  1.5278  2.4598 -0.1441
16800TIP3    H271892   2.404   0.776   5.894  1.1842 -0.0007 -0.0937
16801TIP3   OH271893   0.988   4.276  13.011  0.0340 -0.3751  0.4141
16801TIP3    H171894   0.967   4.352  12.956  1.4130  1.0654  1.8317
16801TIP3    H271895   0.902   4.242  13.037 -0.6195 -0.0509 -1.2186
16802TIP3   OH271896   3.579   0.901   0.847  0.1299 -0.2648 -0.4053
16802TIP3    H171897   3.633   0.966   0.892 -2.1774  1.6712 -0.3385
16802TIP3    H271898   3.563   0.834   0.913  0.8361  0.0900  0.1479
16803TIP3   OH271899   5.670   3.279  16.414 -0.4703  0.1422  0.7292
16803TIP3    H171900   5.683   3.346  16.481 -0.1502 -0.2381  1.0453
16803TIP3    H271901   5.758   3.261  16.382 -0.6844  0.8164 -0.2779
16804TIP3   OH271902   4.029   4.967   0.851 -0.1884  0.5798 -1.3857
16804TIP3    H171903   4.036   4.890   0.795  1.9035  0.5827 -1.1501
16804TIP3    H271904   3.940   4.963   0.887  0.0166 -1.9135 -1.0969
16805TIP3   OH271905   1.150   3.673   3.327 -0.1574 -0.5456  0.4996
16805TIP3    H171906   1.078   3.620   3.360 -1.5249  0.8635 -0.1131
16805TIP3    H271907   1.189   3.712   3.405 -0.7021 -0.5209  0.7630
16806TIP3   OH271908   3.410   0.811   2.146 -0.0178  0.6638 -0.2471
16806TIP3    H171909   3.394   0.883   2.085  1.9941 -0.4410 -2.1493
16806TIP3    H271910   3.367   0.736   2.106 -0.0149  0.2675  0.4863
16807TIP3   OH271911   4.318   0.822  11.994  0.6100 -0.3800  0.0206
16807TIP3    H171912   4.275   0.761  11.935  0.9590 -0.0689 -0.5639
16807TIP3    H271913   4.361   0.886  11.936  0.5745  0.1930  0.6134
16808TIP3   OH271914   2.644   2.547  15.803 -0.4404  1.0039 -0.5068
16808TIP3    H171915   2.604   2.634  15.807  1.2822  1.7739  0.3816
16808TIP3    H271916   2.663   2.525  15.894  0.0737  0.1512 -0.8132
16809TIP3   OH271917   2.270   6.713  15.251  0.3584  0.3623 -0.5174
16809TIP3    H171918   2.315   6.775  15.309 -1.0117  0.7124  0.1712
16809TIP3    H271919   2.278   6.628  15.295  0.6287  0.3646 -0.5597
16810TIP3   OH271920   1.839   3.735   4.508  0.0554  0.2599 -0.3957
16810TIP3    H171921   1.789   3.755   4.429  1.6997 -0.2692 -1.6150
16810TIP3    H271922   1.801   3.654   4.541  0.7556 -0.6891 -1.8818
16811TIP3   OH271923   6.788   6.540   4.692 -0.4129  0.1803  0.2793
16811TIP3    H171924   6.711   6.497   4.657 -0.1884  1.1275 -1.4283
16811TIP3    H271925   6.793   6.510   4.783 -1.8129 -1.2018 -0.0768
16812TIP3   OH271926   5.842   4.441   5.491  0.0199 -0.1321 -0.5788
16812TIP3    H171927   5.855   4.442   5.586  0.0875 -0.2192 -0.5878
16812TIP3    H271928   5.872   4.355   5.463 -0.4928 -0.3049 -0.6113
16813TIP3   OH271929   3.149   1.384  16.405  0.5737 -0.2759 -0.1870
16813TIP3    H171930   3.066   1.341  16.382  0.8063 -0.6505 -0.3346
16813TIP3    H271931   3.128   1.435  16.483  0.0810  0.0323 -0.5209
16814TIP3   OH271932   3.293   5.014  14.921 -0.2918 -0.1099  0.1766
16814TIP3    H171933   3.342   5.027  14.840  0.5017  0.2496  0.7072
16814TIP3    H271934   3.211   5.061  14.908 -0.9387 -1.5595 -1.1160
16815TIP3   OH271935   0.479   5.295  14.639  0.0886  0.0476  0.0571
16815TIP3    H171936   0.445   5.277  14.726  0.2182  0.7130  0.2428
16815TIP3    H271937   0.402   5.317  14.587 -0.0107 -0.5232 -0.0458
16816TIP3   OH271938   1.021   1.611  16.284 -0.1472  0.2004 -0.3477
16816TIP3    H171939   0.936   1.568  16.297  0.7210 -1.1784  1.0225
16816TIP3    H271940   1.073   1.545  16.237  0.1444  1.0728 -1.2538
16817TIP3   OH271941   6.127   0.796   1.827  0.2410  0.2249  0.1758
16817TIP3    H171942   6.159   0.870   1.879 -2.2286  1.1073  0.5068
16817TIP3    H271943   6.054   0.760   1.878  0.0358 -1.0932 -1.0120
16818TIP3   OH271944   5.922   5.099   1.471  0.1232  0.0969  0.2342
16818TIP3    H171945   5.975   5.168   1.510 -0.3487  0.0543  0.9493
16818TIP3    H271946   5.895   5.135   1.386 -1.1303  1.2951  1.1178
16819TIP3   OH271947   4.669   0.224  16.613 -0.4577 -0.0619  0.1744
16819TIP3    H171948   4.737   0.290  16.598  0.2598 -0.8698 -0.1991
16819TIP3    H271949   4.695   0.182  16.695  0.1627 -1.1729 -0.5777
16820TIP3   OH271950   0.838   4.377   3.554  0.7709  0.6814  0.6945
16820TIP3    H171951   0.865   4.309   3.616  2.4128 -0.0937 -0.8217
16820TIP3    H271952   0.755   4.347   3.519  0.0519  0.9037  2.1874
16821TIP3   OH271953   1.290   5.921   2.083 -1.4693 -0.4191 -0.6210
16821TIP3    H171954   1.259   5.993   2.139  3.5947  2.3592 -1.1101
16821TIP3    H271955   1.312   5.851   2.145  0.3077  1.1352  0.5265
16822TIP3   OH271956   4.666   2.378  12.836  0.2247  0.3828  0.4032
16822TIP3    H171957   4.742   2.394  12.892  0.0774  1.6469  0.2402
16822TIP3    H271958   4.696   2.399  12.748 -0.7648  2.3713  0.5299
16823TIP3   OH271959   2.247   5.321   5.378  0.1969 -0.1673  0.9025
16823TIP3    H171960   2.320   5.278   5.334  1.0261 -0.1692  2.2324
16823TIP3    H271961   2.241   5.277   5.463  0.0945  1.3491  1.7022
16824TIP3   OH271962   3.366   4.953  17.131  0.4288  0.3179 -0.2444
16824TIP3    H171963   3.439   4.899  17.104 -0.2032 -0.7674  0.1705
16824TIP3    H271964   3.293   4.925  17.075 -1.0962 -2.5093  2.9705
16825TIP3   OH271965   0.089   6.430  13.617 -0.8032  0.2224  0.1519
16825TIP3    H171966   0.039   6.377  13.679 -0.1916 -0.6923 -0.1316
16825TIP3    H271967   0.149   6.480  13.673 -0.5239 -0.3098  0.3364
16826TIP3   OH271968   6.532   1.921   3.027 -0.3577 -0.2046 -0.3857
16826TIP3    H171969   6.609   1.878   3.064  0.0727  1.0579  0.2266
16826TIP3    H271970   6.499   1.860   2.962  0.2885 -1.4140  0.4099
16827TIP3   OH271971   3.373   6.008   5.075 -0.5867 -0.2944  0.1305
16827TIP3    H171972   3.302   5.973   5.129  0.5799 -2.0317  0.5759
16827TIP3    H271973   3.395   5.937   5.015  1.5706 -0.2069  0.7851
16828TIP3   OH271974   5.607   6.213  14.672  0.2037 -1.1214  0.3022
16828TIP3    H171975   5.669   6.208  14.599 -0.0812  0.2203 -0.0524
16828TIP3    H271976   5.661   6.230  14.749  0.3007  0.0822 -0.0133
16829TIP3   OH271977   2.071   5.292   1.420 -0.3302 -0.7146  0.0987
16829TIP3    H171978   2.037   5.285   1.509  0.4617 -1.6570  0.3260
16829TIP3    H271979   2.155   5.336   1.431 -0.3007 -0.6965 -0.2113
16830TIP3   OH271980   1.057   3.439   2.866  0.1396  0.1405 -0.1896
16830TIP3    H171981   1.058   3.398   2.779  0.2167  0.6338 -0.4263
16830TIP3    H271982   1.147   3.432   2.897  0.4928  1.4451 -0.8674
16831TIP3   OH271983   6.237   1.079   3.283  0.3969 -0.1713  0.0654
16831TIP3    H171984   6.303   1.012   3.264  0.6892  0.7672 -2.3809
16831TIP3    H271985   6.239   1.137   3.207 -2.1778  0.7419  0.6472
16832TIP3   OH271986   4.739   0.749   0.393  0.1520  0.2980  0.0414
16832TIP3    H171987   4.715   0.734   0.301  0.5383  1.8579 -0.3282
16832TIP3    H271988   4.657   0.773   0.436 -0.4631 -2.6229  0.6265
16833TIP3   OH271989   0.909   5.518  12.918 -0.1492 -0.1675  0.7495
16833TIP3    H171990   0.997   5.494  12.889 -0.0712  0.9680  0.0461
16833TIP3    H271991   0.855   5.444  12.891  0.6111 -0.9959  1.4100
16834TIP3   OH271992   5.728   0.372   6.652  0.2859  0.5690 -0.4672
16834TIP3    H171993   5.676   0.347   6.575  2.0404 -0.8704 -1.2220
16834TIP3    H271994   5.749   0.464   6.638 -1.0524  0.8338 -0.7484
16835TIP3   OH271995   1.072   5.470   2.705 -0.0600  0.0064 -0.4502
16835TIP3    H171996   1.062   5.395   2.764 -0.4329  0.1562 -0.3184
16835TIP3    H271997   0.984   5.487   2.672 -0.4061  1.7572  1.2263
16836TIP3   OH271998   2.613   1.072   4.764  0.3767  0.0798 -0.6507
16836TIP3    H171999   2.654   1.152   4.732 -0.3731  0.8301  0.2518
16836TIP3    H272000   2.524   1.098   4.789  0.6596 -0.6659  1.2144
16837TIP3   OH272001   5.054   3.522  13.588 -0.0516 -0.5825  0.1111
16837TIP3    H172002   4.995   3.552  13.518 -0.1011 -0.5558  0.1639
16837TIP3    H272003   5.007   3.449  13.628 -0.0460 -0.5658  0.1490
16838TIP3   OH272004   0.765   4.770  14.292 -0.3548 -0.1389  0.4173
16838TIP3    H172005   0.744   4.678  14.282  0.2457 -0.4641  2.0843
16838TIP3    H272006   0.754   4.807  14.204  0.1764 -1.9491 -0.4309
16839TIP3   OH272007   3.509   0.495   0.561  0.1129 -0.6988 -0.1519
16839TIP3    H172008   3.569   0.422   0.575  1.0359 -0.2231 -1.5055
16839TIP3    H272009   3.523   0.552   0.636  1.0006 -0.8287 -0.2193
16840TIP3   OH272010   5.694   3.595   3.761 -0.5094 -0.5385 -0.4074
16840TIP3    H172011   5.636   3.671   3.770  1.0775  0.5804  0.6097
16840TIP3    H272012   5.757   3.621   3.694  1.7740  0.1927  1.9623
16841TIP3   OH272013   0.360   5.487   5.211  0.2041 -0.6685 -0.0924
16841TIP3    H172014   0.312   5.456   5.288  0.5250  1.5285  1.0570
16841TIP3    H272015   0.292   5.504   5.146 -0.4040  0.3277  0.7707
16842TIP3   OH272016   1.662   6.371  16.209 -0.5146  0.0267  0.5422
16842TIP3    H172017   1.608   6.386  16.286  2.0174  0.8640  2.2133
16842TIP3    H272018   1.709   6.290  16.228 -0.7381 -0.4051 -0.6691
16843TIP3   OH272019   1.945   1.889  17.275 -0.3739 -0.4252 -0.2543
16843TIP3    H172020   1.882   1.913  17.343  1.4313  0.7313  1.0452
16843TIP3    H272021   1.972   1.800  17.298 -1.4544 -0.8871 -0.7598
16844TIP3   OH272022   2.524   5.765  14.182 -0.1190 -0.7508 -0.4043
16844TIP3    H172023   2.528   5.762  14.087 -2.1141  0.0984 -0.5350
16844TIP3    H272024   2.491   5.852  14.202  1.1202 -0.6146  1.0939
16845TIP3   OH272025   2.782   1.746   4.441 -0.2815  0.5865 -0.0281
16845TIP3    H172026   2.711   1.746   4.378  0.2774 -0.3794 -0.6765
16845TIP3    H272027   2.788   1.655   4.471  2.1443  0.1556 -1.6601
16846TIP3   OH272028   1.738   6.775  16.226 -0.0782  0.4621 -0.2829
16846TIP3    H172029   1.760   6.772  16.319  1.9333  0.8763 -0.7348
16846TIP3    H272030   1.786   6.702  16.188 -0.0809  0.9148 -1.1616
16847TIP3   OH272031   4.615   0.469  11.243  0.1633  0.1959  0.1864
16847TIP3    H172032   4.604   0.510  11.157  1.4911  0.9774  0.3613
16847TIP3    H272033   4.628   0.543  11.303 -0.1900 -0.3668  0.9748
16848TIP3   OH272034   6.183   4.642  15.677  0.4770 -0.6207 -0.1338
16848TIP3    H172035   6.099   4.634  15.631  0.7025  1.8244 -1.0218
16848TIP3    H272036   6.248   4.646  15.607  1.0937  0.1605  0.4863
16849TIP3   OH272037   1.687   3.861   0.683 -0.1347  0.7093 -0.2063
16849TIP3    H172038   1.623   3.828   0.746  1.5410  1.6826  2.0778
16849TIP3    H272039   1.647   3.940   0.647 -0.7435  0.6371  0.3087
16850TIP3   OH272040   1.013   0.980  12.508  0.0459 -0.5604  0.2251
16850TIP3    H172041   1.107   0.990  12.523 -0.1814  1.4136  0.5165
16850TIP3    H272042   1.006   0.925  12.429  1.4194 -1.1181  0.4867
16851TIP3   OH272043   5.076   6.267  10.983 -0.6401  0.1553 -0.6040
16851TIP3    H172044   5.012   6.309  11.041 -1.0965 -1.1293 -0.1304
16851TIP3    H272045   5.158   6.312  11.000 -1.1462  0.9368 -0.2100
16852TIP3   OH272046   4.493   0.031  10.523 -0.0846 -0.5718 -0.1041
16852TIP3    H172047   4.567   0.036  10.462  0.3347 -1.0854  0.3572
16852TIP3    H272048   4.415   0.042  10.468  0.3733  1.1157 -0.4579
16853TIP3   OH272049   0.541   0.727  14.084 -0.5512  0.1211 -0.0843
16853TIP3    H172050   0.526   0.636  14.061  0.1838  0.3586 -1.5695
16853TIP3    H272051   0.518   0.776  14.005  0.7998  1.0622  0.0754
16854TIP3   OH272052   1.175   4.567  16.933  0.8878 -0.4366 -0.7494
16854TIP3    H172053   1.173   4.491  16.992  0.6920  0.1307 -0.0172
16854TIP3    H272054   1.268   4.582  16.916  0.9252 -0.8676 -0.9370
16855TIP3   OH272055   4.396   1.043   5.285  0.4118 -0.6508  0.2286
16855TIP3    H172056   4.456   1.109   5.322  1.0099 -0.3723 -1.1879
16855TIP3    H272057   4.330   1.030   5.353  1.0648  0.3908  1.0895
16856TIP3   OH272058   4.232   3.316  12.103  0.0596 -0.5449  0.4376
16856TIP3    H172059   4.169   3.377  12.140 -0.3178 -0.9414  0.4446
16856TIP3    H272060   4.221   3.235  12.153  0.6900 -0.5666  0.5553
16857TIP3   OH272061   4.099   5.279   2.442  0.1191  0.3257  0.1172
16857TIP3    H172062   4.100   5.298   2.348  1.8790  0.5731  0.1750
16857TIP3    H272063   4.064   5.358   2.482 -1.9508 -0.2878 -0.4197
16858TIP3   OH272064   5.183   5.812  14.738 -0.2067 -0.2490  0.0250
16858TIP3    H172065   5.265   5.822  14.691 -1.6778  2.1632 -2.1641
16858TIP3    H272066   5.208   5.800  14.830  2.5629 -0.7079 -0.7672
16859TIP3   OH272067   0.752   6.511  14.889 -0.1964 -0.1499 -0.4197
16859TIP3    H172068   0.829   6.475  14.843  0.4183  2.6753 -1.6995
16859TIP3    H272069   0.677   6.479  14.838  0.3504  0.5862 -1.7034
16860TIP3   OH272070   5.684   5.454   1.122  0.7408  0.2992  0.1199
16860TIP3    H172071   5.598   5.495   1.135  1.2038  1.2646  0.1840
16860TIP3    H272072   5.739   5.524   1.087  1.5316 -0.2904  0.1634
16861TIP3   OH272073   3.892   4.516   4.434  0.3527  0.4619  0.4067
16861TIP3    H172074   3.853   4.572   4.500  1.6209  0.7822  0.8995
16861TIP3    H272075   3.833   4.441   4.429 -0.4840  1.0741  0.9109
16862TIP3   OH272076   5.939   2.784  12.511  0.0152 -0.3873 -0.0257
16862TIP3    H172077   5.871   2.717  12.516  0.1075 -0.5216 -0.5672
16862TIP3    H272078   5.973   2.778  12.422  3.1357 -2.6543  1.2178
16863TIP3   OH272079   5.655   5.087  12.802 -0.4183  0.5037 -0.4053
16863TIP3    H172080   5.672   5.042  12.720 -2.9591  1.5278 -1.5619
16863TIP3    H272081   5.740   5.093  12.845  0.6360 -1.6795 -2.1086
16864TIP3   OH272082   5.385   3.315  12.980  0.4338 -0.0430  0.0390
16864TIP3    H172083   5.292   3.292  12.993  0.2311  1.0361  0.5130
16864TIP3    H272084   5.400   3.298  12.887 -0.8182  1.7893 -0.5165
16865TIP3   OH272085   0.781   4.114  13.050  0.2949  0.0908 -0.2087
16865TIP3    H172086   0.780   4.114  12.955 -0.4562 -0.9137 -0.2107
16865TIP3    H272087   0.766   4.023  13.075 -0.5879  0.5018  0.8616
16866TIP3   OH272088   6.298   3.334  10.877  0.3009  0.4966 -0.1715
16866TIP3    H172089   6.296   3.369  10.788 -2.2797 -0.0547 -0.3483
16866TIP3    H272090   6.245   3.255  10.874  1.1432 -0.1807  1.6085
16867TIP3   OH272091   1.693   1.989  11.643 -0.2725 -0.0422  0.3535
16867TIP3    H172092   1.752   1.932  11.693 -0.5624 -0.0071  0.7411
16867TIP3    H272093   1.684   1.946  11.558  1.1857  0.5212 -0.1047
16868TIP3   OH272094   2.645   5.250  10.962 -0.1995 -0.6145  0.4582
16868TIP3    H172095   2.558   5.270  10.995 -0.0158  2.7662 -0.8779
16868TIP3    H272096   2.666   5.165  11.000 -3.3283 -0.6864  2.2316
16869TIP3   OH272097   3.969   0.091   2.235  0.3469 -0.3096  0.4216
16869TIP3    H172098   3.963   0.159   2.302 -0.3791  2.6517 -2.5599
16869TIP3    H272099   4.061   0.066   2.235  1.0622  2.2200  0.0897
16870TIP3   OH272100   4.812   1.558   1.283  0.4012  0.0082  0.1862
16870TIP3    H172101   4.816   1.545   1.188 -0.2553  0.2357  0.1248
16870TIP3    H272102   4.899   1.591   1.307  1.0521 -1.4490 -0.1229
16871TIP3   OH272103   1.719   4.205   5.905 -0.2615  0.2866 -0.3450
16871TIP3    H172104   1.638   4.156   5.895  0.3332 -0.7961  0.1062
16871TIP3    H272105   1.725   4.222   5.999 -0.6636  1.5895 -0.5329
16872TIP3   OH272106   5.728   5.387   4.327 -0.7026  0.0908 -0.1682
16872TIP3    H172107   5.795   5.407   4.262 -0.0045  2.0934  1.1316
16872TIP3    H272108   5.652   5.439   4.300 -1.1461 -0.7660 -0.5998
16873TIP3   OH272109   6.367   0.012   1.735  0.0248  0.0972 -0.0249
16873TIP3    H172110   6.441   0.018   1.795  0.9117 -1.8745 -0.8392
16873TIP3    H272111   6.304  -0.044   1.780  0.6497 -1.3018 -0.8413
16874TIP3   OH272112   1.906   6.788   1.924  0.2340  0.2575  0.0920
16874TIP3    H172113   1.931   6.833   1.844 -0.3072  2.2388  1.0218
16874TIP3    H272114   1.965   6.712   1.928  1.6099  1.2395 -1.1244
16875TIP3   OH272115   6.561   4.450  16.765  0.2137  0.2090 -0.0708
16875TIP3    H172116   6.628   4.382  16.777 -1.8312 -1.5287  1.7404
16875TIP3    H272117   6.523   4.431  16.679 -0.4026 -1.0016  0.4615
16876TIP3   OH272118   3.031   3.743  10.785 -0.0232  0.2517  0.1157
16876TIP3    H172119   3.107   3.698  10.749 -0.1744  0.9730 -1.1224
16876TIP3    H272120   2.992   3.790  10.711 -0.2490  1.8813  1.2301
16877TIP3   OH272121   2.397   2.199   5.363  0.0013  0.2607  0.2534
16877TIP3    H172122   2.401   2.135   5.433 -0.0367  0.7278  0.6814
16877TIP3    H272123   2.314   2.245   5.376  0.0423  0.4220 -0.0375
16878TIP3   OH272124   1.286   2.206  16.062 -0.1159 -0.4396  0.6173
16878TIP3    H172125   1.193   2.214  16.039  0.4527  1.4484 -1.2448
16878TIP3    H272126   1.288   2.213  16.157 -1.8289  0.0667  0.6415
16879TIP3   OH272127   3.692   6.604  14.750  0.5265 -0.2434 -0.5998
16879TIP3    H172128   3.671   6.579  14.660 -0.9582 -0.5967 -0.1757
16879TIP3    H272129   3.703   6.520  14.795  0.6765 -0.0747 -0.3256
16880TIP3   OH272130   0.230   5.598  12.119  0.0734 -0.2419 -0.0689
16880TIP3    H172131   0.166   5.532  12.144 -0.5737 -0.2890 -1.8015
16880TIP3    H272132   0.264   5.631  12.202 -0.1121 -2.2413  0.8194
16881TIP3   OH272133   1.142   5.884   0.604  0.5573  0.4571 -0.3214
16881TIP3    H172134   1.228   5.920   0.627  1.1130 -0.4146 -1.0017
16881TIP3    H272135   1.137   5.802   0.652  0.3681  0.1917 -0.7981
16882TIP3   OH272136   4.116   0.025   3.574 -0.0812 -0.9239  0.5764
16882TIP3    H172137   4.169  -0.017   3.642  0.6485 -1.2632 -0.1928
16882TIP3    H272138   4.124  -0.033   3.499 -0.2100 -0.1200 -0.0614
16883TIP3   OH272139   0.549   4.717  10.497  0.3837  0.3757 -0.0464
16883TIP3    H172140   0.460   4.733  10.467  0.5793  1.0787 -0.2838
16883TIP3    H272141   0.560   4.622  10.494 -0.1580  0.3319 -0.5908
16884TIP3   OH272142   3.775   0.297  14.743  0.2831  0.0222  0.0678
16884TIP3    H172143   3.737   0.209  14.738  0.1233  0.1207 -0.6054
16884TIP3    H272144   3.717   0.344  14.803  0.4563 -0.3755  0.5469
16885TIP3   OH272145   4.401   2.299   2.960 -0.6131 -0.4606 -0.4731
16885TIP3    H172146   4.377   2.391   2.965  2.2569  0.3095  0.0878
16885TIP3    H272147   4.445   2.281   3.043  0.8142 -1.7059 -1.4579
16886TIP3   OH272148   0.062   1.017   5.798 -0.0406 -0.2798  0.7297
16886TIP3    H172149   0.151   1.026   5.832  1.3177  0.7661 -2.9027
16886TIP3    H272150   0.030   0.936   5.838  2.3769 -0.4398  2.4585
16887TIP3   OH272151   3.147   1.168  10.682 -0.2930  0.2804  1.0544
16887TIP3    H172152   3.172   1.252  10.642 -0.3496 -0.0055  0.4008
16887TIP3    H272153   3.221   1.110  10.662 -0.9800 -0.2744  0.0487
16888TIP3   OH272154   5.250   4.557  13.302  0.6084  0.5472 -0.0829
16888TIP3    H172155   5.237   4.523  13.213  0.1911  2.8378 -0.9254
16888TIP3    H272156   5.344   4.576  13.306  0.9819 -1.2892  0.6414
16889TIP3   OH272157   6.446   2.284   1.158 -0.7741 -0.0812  0.3512
16889TIP3    H172158   6.438   2.377   1.137 -1.1607 -0.1386  0.2492
16889TIP3    H272159   6.376   2.242   1.108  0.3692 -0.6205 -0.8290
16890TIP3   OH272160   0.924   6.338   3.997 -0.4256 -0.2338 -0.5982
16890TIP3    H172161   0.884   6.399   3.935  1.2458 -1.9811 -3.5414
16890TIP3    H272162   1.014   6.329   3.965  0.7298 -0.6214  2.5953
16891TIP3   OH272163   1.962   2.687  13.597  0.9577 -0.1157  0.2682
16891TIP3    H172164   1.995   2.672  13.685 -0.0226  1.1429  0.8679
16891TIP3    H272165   1.877   2.730  13.610  0.0312 -1.3939 -1.2616
16892TIP3   OH272166   1.907   0.278   1.695  0.5688  0.4101 -0.0915
16892TIP3    H172167   1.919   0.370   1.672 -0.6569  0.1558 -1.8279
16892TIP3    H272168   1.828   0.276   1.748  0.6346  0.3764  0.0043
16893TIP3   OH272169   5.920   0.414   6.097  1.0243  0.7953  0.1589
16893TIP3    H172170   5.991   0.473   6.121  0.8088  0.5673  1.3975
16893TIP3    H272171   5.859   0.418   6.171  0.9813 -0.9367  0.2466
16894TIP3   OH272172   1.903   5.169  16.829  0.5378  0.0800  0.0109
16894TIP3    H172173   1.916   5.145  16.920  0.1112  1.3755  0.4266
16894TIP3    H272174   1.992   5.181  16.795  0.7709 -2.1630 -0.2596
16895TIP3   OH272175   3.143   1.176  14.624 -0.4369 -0.5995 -0.4074
16895TIP3    H172176   3.128   1.089  14.661 -0.9935 -0.2416  0.2284
16895TIP3    H272177   3.233   1.198  14.650 -0.4203 -0.8393 -0.2625
16896TIP3   OH272178   2.363   2.079   5.608  0.0753  0.1777  0.1053
16896TIP3    H172179   2.313   2.012   5.655  2.1858 -0.8915  0.8748
16896TIP3    H272180   2.302   2.152   5.600 -2.1607 -1.6905 -0.4456
16897TIP3   OH272181   0.073   2.004  16.316  0.3710 -0.1108  0.1032
16897TIP3    H172182  -0.022   2.016  16.311  0.6865  3.1160  0.7533
16897TIP3    H272183   0.085   1.939  16.384 -1.3768 -0.2751  0.2807
16898TIP3   OH272184   6.802   3.334   0.680  0.3268  0.0551  0.2041
16898TIP3    H172185   6.820   3.320   0.587  0.3390  1.5564 -0.0306
16898TIP3    H272186   6.788   3.246   0.715 -0.1012 -0.4990 -1.2998
16899TIP3   OH272187   2.693   3.476   3.201  0.0989  0.2702 -0.4828
16899TIP3    H172188   2.771   3.478   3.146 -0.0878 -0.0071 -0.7635
16899TIP3    H272189   2.667   3.568   3.209  0.5162  0.3723 -0.2960
16900TIP3   OH272190   2.744   6.578  17.116  0.3749 -0.2282 -0.2732
16900TIP3    H172191   2.769   6.493  17.150 -0.4852 -0.5826 -0.5041
16900TIP3    H272192   2.819   6.607  17.065  2.0906  0.7515  2.6996
16901TIP3   OH272193   1.267   1.622   2.545 -0.0178  0.2747  0.0947
16901TIP3    H172194   1.351   1.595   2.580  0.3186  2.2855  0.9194
16901TIP3    H272195   1.217   1.652   2.621 -0.8940  0.5643 -0.5714
16902TIP3   OH272196   1.627   6.064   4.647  0.0408  0.1555  0.0296
16902TIP3    H172197   1.643   6.011   4.569 -0.6617  2.1106 -1.4828
16902TIP3    H272198   1.555   6.019   4.693  1.6200 -1.9548  0.5029
16903TIP3   OH272199   6.425   2.595  10.269  0.8201  0.0008  0.1443
16903TIP3    H172200   6.426   2.540  10.347  0.0572 -1.5723 -0.9279
16903TIP3    H272201   6.335   2.591  10.238  0.5145  2.6802  0.6022
16904TIP3   OH272202   3.921   5.120   2.076 -0.4888  0.4626 -0.3966
16904TIP3    H172203   3.992   5.119   2.012  0.9498  2.9087  1.0548
16904TIP3    H272204   3.944   5.191   2.136 -3.6715  0.6505  0.7088
16905TIP3   OH272205   2.644   2.081   4.506  0.0885 -0.1673 -0.3791
16905TIP3    H172206   2.579   2.024   4.546 -1.2544  0.1429 -2.0700
16905TIP3    H272207   2.721   2.072   4.562 -0.2148 -3.3350 -0.3543
16906TIP3   OH272208   2.154   6.013  16.224  0.1126  0.2971  0.2894
16906TIP3    H172209   2.072   6.062  16.215  0.5751  1.3306  1.5426
16906TIP3    H272210   2.161   5.995  16.317  0.2484 -1.6852 -0.0817
16907TIP3   OH272211   2.488   1.715   2.957 -0.1584 -0.0413  0.3067
16907TIP3    H172212   2.507   1.652   3.027  2.7507  0.7924  0.3444
16907TIP3    H272213   2.505   1.666   2.876  0.1311  0.0904  0.2869
16908TIP3   OH272214   6.760   1.719   5.127  0.1478 -0.3841  0.1656
16908TIP3    H172215   6.837   1.765   5.161 -1.5106  2.1543  0.6861
16908TIP3    H272216   6.763   1.734   5.033 -0.9794  1.8632  0.4447
16909TIP3   OH272217   2.757   2.456   4.014  0.2075 -0.3181 -0.7245
16909TIP3    H172218   2.828   2.459   4.079  0.8641 -0.5116 -1.4177
16909TIP3    H272219   2.683   2.419   4.061 -0.0144  1.6762  0.5507
16910TIP3   OH272220   0.724   2.660  12.334  0.1578 -0.3629  0.1142
16910TIP3    H172221   0.635   2.631  12.354 -0.4304  2.6160  2.0188
16910TIP3    H272222   0.714   2.719  12.260  0.3414  1.1053  1.2441
16911TIP3   OH272223   0.619   2.219   3.908  0.3487 -0.1162  0.7100
16911TIP3    H172224   0.614   2.173   3.824  0.7788 -0.5832  0.9369
16911TIP3    H272225   0.629   2.312   3.885  1.4362 -0.3424  0.2346
16912TIP3   OH272226   0.369   4.652   3.065 -0.2175  0.3151  0.2341
16912TIP3    H172227   0.449   4.682   3.109 -0.3362 -0.9019  1.2866
16912TIP3    H272228   0.397   4.576   3.014  0.1298  2.2777 -2.6290
16913TIP3   OH272229   2.629   0.656   6.048 -0.4286  0.3335 -0.4573
16913TIP3    H172230   2.698   0.675   6.113 -0.3563  2.2997 -1.0795
16913TIP3    H272231   2.676   0.620   5.973 -0.2090  0.5049 -0.4034
16914TIP3   OH272232   4.076   5.272  12.118 -0.0158 -0.3321 -0.3087
16914TIP3    H172233   4.152   5.218  12.096  0.2366 -0.4547  0.8202
16914TIP3    H272234   4.100   5.314  12.201 -1.8491 -1.6890  0.9451
16915TIP3   OH272235   0.946   1.120   3.028 -0.1136 -0.1369  0.6782
16915TIP3    H172236   0.877   1.185   3.012 -1.2256 -1.5485 -0.4050
16915TIP3    H272237   0.928   1.088   3.116 -0.6643 -0.2965  0.5091
16916TIP3   OH272238   5.447   3.304  16.711 -0.3558  0.9205  0.1743
16916TIP3    H172239   5.542   3.307  16.719 -0.3680  1.5757  0.0763
16916TIP3    H272240   5.420   3.238  16.774  0.5400 -2.8634 -3.1932
16917TIP3   OH272241   6.481   5.508  12.073 -0.6469  0.6280 -0.2299
16917TIP3    H172242   6.395   5.513  12.117  0.2086  0.8357  1.4648
16917TIP3    H272243   6.543   5.539  12.139  0.7786  0.1819 -1.3451
16918TIP3   OH272244   0.102   6.431   0.967 -0.0792 -0.2686 -0.0363
16918TIP3    H172245   0.019   6.478   0.976 -0.9774 -1.1384 -3.1389
16918TIP3    H272246   0.144   6.472   0.891  0.7328 -2.1654 -0.6238
16919TIP3   OH272247   1.089   3.279   0.028 -0.0675 -0.4306  1.0474
16919TIP3    H172248   1.110   3.189   0.005  1.2351 -0.0575  0.7454
16919TIP3    H272249   0.997   3.276   0.057  0.2865 -2.0237  2.0530
16920TIP3   OH272250   3.407   0.160  13.930 -0.9415  0.5205  0.8262
16920TIP3    H172251   3.404   0.066  13.947 -0.0107  0.1220 -1.0943
16920TIP3    H272252   3.334   0.177  13.871 -0.3155  0.7572  0.1039
16921TIP3   OH272253   1.041   1.080   1.587  0.4052 -1.2953  0.5521
16921TIP3    H172254   0.999   1.155   1.545  1.0615 -0.3657  1.4977
16921TIP3    H272255   1.097   1.042   1.519  1.1202 -0.0820  0.4372
16922TIP3   OH272256   0.640   6.344   0.608 -0.5327 -0.3416  0.3161
16922TIP3    H172257   0.591   6.426   0.603  0.4034  0.2105  0.0930
16922TIP3    H272258   0.575   6.279   0.636 -2.1191 -0.2285 -2.8233
16923TIP3   OH272259   5.127   2.191  11.561  0.6810  0.3093 -0.4798
16923TIP3    H172260   5.159   2.267  11.512 -1.1813  1.1333 -0.4999
16923TIP3    H272261   5.165   2.200  11.648  0.0827  1.5772 -0.3312
16924TIP3   OH272262   6.010   5.481  15.997 -0.0475 -0.4962  0.3562
16924TIP3    H172263   6.083   5.428  15.968  1.1544 -0.3480  2.9972
16924TIP3    H272264   5.962   5.425  16.058 -0.4446  0.4181  0.8972
16925TIP3   OH272265   4.755   1.940  15.116  0.2381 -0.3264 -0.3932
16925TIP3    H172266   4.672   1.924  15.163  0.9094  2.1265  1.7525
16925TIP3    H272267   4.813   1.871  15.147 -1.0552 -2.2810 -2.1737
16926TIP3   OH272268   4.563   6.197  17.078 -0.0550  0.6313 -0.3741
16926TIP3    H172269   4.562   6.286  17.113 -0.4288  0.8730 -0.9912
16926TIP3    H272270   4.471   6.176  17.061 -0.2748 -1.0479  2.6671
16927TIP3   OH272271   2.206   5.081   1.281  0.1688  0.0682  0.5793
16927TIP3    H172272   2.148   5.153   1.257 -2.2613 -2.2723 -0.7119
16927TIP3    H272273   2.218   5.031   1.201  2.1068 -0.8159  1.3764
16928TIP3   OH272274   3.798   2.523   0.584  0.1573  0.1635 -0.3583
16928TIP3    H172275   3.745   2.513   0.504  1.7415  0.8473 -1.5228
16928TIP3    H272276   3.863   2.454   0.578  0.1467  0.0848  0.4658
16929TIP3   OH272277   4.536   5.238  10.712 -0.4632  0.1467  0.2216
16929TIP3    H172278   4.525   5.158  10.764 -0.2246  0.1570  0.2907
16929TIP3    H272279   4.450   5.253  10.672 -0.8376  0.4953  1.1336
16930TIP3   OH272280   6.457   3.320  14.961 -0.3729  0.8973 -0.0308
16930TIP3    H172281   6.367   3.316  14.928  0.0785  1.4145 -1.3963
16930TIP3    H272282   6.511   3.328  14.882  0.6076  4.4479  0.8938
16931TIP3   OH272283   2.826   1.417  15.284 -0.3773  0.5864  0.2972
16931TIP3    H172284   2.891   1.452  15.344 -0.2137 -0.8573  0.9888
16931TIP3    H272285   2.824   1.323  15.303  0.2328 -0.0298 -2.4388
16932TIP3   OH272286   4.704   2.065   2.125 -0.3772 -0.0664  0.3998
16932TIP3    H172287   4.645   2.123   2.077 -0.0073 -0.0436 -0.0293
16932TIP3    H272288   4.760   2.124   2.176 -0.0205 -0.0449 -0.0138
16933TIP3   OH272289   0.099   3.378  14.609  0.6469  0.2267  0.3294
16933TIP3    H172290   0.079   3.362  14.516  2.8227  2.9328 -0.6622
16933TIP3    H272291   0.183   3.334  14.623  0.1702 -0.4497  1.1449
16934TIP3   OH272292   3.767   5.704  11.545 -0.3959  0.5374 -0.0615
16934TIP3    H172293   3.802   5.615  11.550  0.2842  0.7178 -1.4881
16934TIP3    H272294   3.766   5.734  11.636  2.4628  0.2713  0.0790
16935TIP3   OH272295   1.880   5.140  13.126 -0.3270  0.2842  0.5032
16935TIP3    H172296   1.810   5.099  13.178 -0.5368  0.4045  0.3181
16935TIP3    H272297   1.934   5.068  13.097 -0.5905  0.1530  0.3334
16936TIP3   OH272298   5.627   2.283   2.378 -0.2406  0.8662 -0.3745
16936TIP3    H172299   5.654   2.373   2.397  1.2001  0.4401 -0.3283
16936TIP3    H272300   5.555   2.292   2.317 -1.3706  2.1095  1.0937
16937TIP3   OH272301   4.278   6.688  15.069 -0.1157  0.6173  0.9315
16937TIP3    H172302   4.350   6.745  15.043 -0.6776  1.0612  0.3602
16937TIP3    H272303   4.319   6.602  15.079  0.3686  0.7182 -0.0848
16938TIP3   OH272304   2.453   3.740  13.333  0.5219  0.1348 -0.0955
16938TIP3    H172305   2.514   3.780  13.272 -0.3935  1.2842 -0.2774
16938TIP3    H272306   2.416   3.665  13.286  0.8614  0.1885 -0.4437
16939TIP3   OH272307   4.819   0.246  14.385  0.3942 -0.3124  0.7934
16939TIP3    H172308   4.821   0.186  14.310  1.4190 -0.6410  1.0791
16939TIP3    H272309   4.793   0.330  14.347 -1.0284 -0.9182  0.3937
16940TIP3   OH272310   1.633   0.347   2.625  0.0228 -0.3829  0.4489
16940TIP3    H172311   1.643   0.254   2.603 -1.2895 -0.2549 -0.7399
16940TIP3    H272312   1.687   0.392   2.560 -1.6457 -0.1669 -0.8291
16941TIP3   OH272313   5.282   3.581   0.338  0.0965 -1.0311 -0.0998
16941TIP3    H172314   5.187   3.582   0.337  0.0786 -2.1838 -0.6509
16941TIP3    H272315   5.307   3.653   0.397 -1.1154 -1.2528  0.6951
16942TIP3   OH272316   2.196   4.754   5.993  0.5844  0.1708 -0.0755
16942TIP3    H172317   2.236   4.835   6.025  3.5378 -0.6352 -1.4765
16942TIP3    H272318   2.227   4.687   6.053  0.2219 -0.2740 -0.3861
16943TIP3   OH272319   2.243   6.341  14.209  0.5333  0.0236  0.1719
16943TIP3    H172320   2.167   6.380  14.165  0.0773 -1.2034 -0.1368
16943TIP3    H272321   2.312   6.342  14.143  0.6907  0.8025  0.3370
16944TIP3   OH272322   4.555   3.823  13.620  0.0527  0.0693  0.6983
16944TIP3    H172323   4.527   3.800  13.531  2.1632  1.8538 -0.5020
16944TIP3    H272324   4.644   3.788  13.626 -0.5668 -1.2278  2.6418
16945TIP3   OH272325   5.542   1.077   2.478 -0.5439 -0.0291 -0.1338
16945TIP3    H172326   5.600   1.001   2.474 -0.0023  0.4588 -1.7990
16945TIP3    H272327   5.535   1.097   2.571  0.2081 -1.4231  0.2367
16946TIP3   OH272328   4.591   5.526   3.492  0.4060 -0.0284  0.2456
16946TIP3    H172329   4.537   5.589   3.540  0.7547 -0.8630  1.7767
16946TIP3    H272330   4.673   5.571   3.474 -0.7810  1.2794 -2.1602
16947TIP3   OH272331   6.441   1.211  10.827  0.2224 -0.5993 -0.0927
16947TIP3    H172332   6.463   1.291  10.780 -2.2875 -0.1475 -0.5657
16947TIP3    H272333   6.439   1.238  10.919  1.8294 -0.7289  0.0081
16948TIP3   OH272334   1.537   3.616   6.157  0.2665 -0.1059 -0.0181
16948TIP3    H172335   1.578   3.539   6.118 -2.4253 -2.1824  1.0395
16948TIP3    H272336   1.591   3.635   6.234  1.4646 -0.3667 -0.7746
16949TIP3   OH272337   3.631   4.925  16.946 -0.2889 -0.5145 -0.5222
16949TIP3    H172338   3.636   4.840  16.990  1.2845  0.1177  0.5398
16949TIP3    H272339   3.721   4.946  16.923 -0.8009  0.3694 -1.7780
16950TIP3   OH272340   6.401   0.474  13.545 -0.0555 -0.4070  0.4460
16950TIP3    H172341   6.385   0.554  13.495  0.5932  0.8030  2.1445
16950TIP3    H272342   6.477   0.434  13.503  0.3266  0.4694  0.3065
16951TIP3   OH272343   3.314   1.172  12.616 -0.0367 -0.1058 -0.0777
16951TIP3    H172344   3.234   1.186  12.564 -0.1889 -0.1729  0.1381
16951TIP3    H272345   3.282   1.141  12.701  0.1654  0.9679  0.3975
16952TIP3   OH272346   0.651   0.046  10.849 -0.4509 -0.2236 -0.3880
16952TIP3    H172347   0.718   0.074  10.912 -2.3757  2.4768  0.5379
16952TIP3    H272348   0.568   0.061  10.894 -1.7611 -1.3956 -2.3577
16953TIP3   OH272349   2.952   5.506  14.986  0.1099  0.4460  0.0657
16953TIP3    H172350   2.891   5.432  14.990 -2.8752  2.7634 -1.1739
16953TIP3    H272351   3.028   5.472  14.938 -1.4015 -1.6554 -0.9023
16954TIP3   OH272352   0.633   3.129   2.915 -0.7264 -0.3962  0.3489
16954TIP3    H172353   0.555   3.164   2.959  0.2795  1.0044  1.0515
16954TIP3    H272354   0.669   3.204   2.867 -0.6489 -1.4050 -1.2058
16955TIP3   OH272355   6.325   6.643  14.772 -0.2306  0.1927  0.6310
16955TIP3    H172356   6.272   6.585  14.718 -0.2466  0.2236  0.6135
16955TIP3    H272357   6.407   6.653  14.724  0.2525 -0.8075  1.2145
16956TIP3   OH272358   4.145   4.412  12.732  0.1217  0.4047  0.0860
16956TIP3    H172359   4.158   4.506  12.718 -0.0130  0.2639 -1.0399
16956TIP3    H272360   4.213   4.387  12.794  0.3016  1.2006  0.2151
16957TIP3   OH272361   2.844   4.129  11.973 -0.4708  0.1376 -0.2366
16957TIP3    H172362   2.829   4.204  12.031  1.8406 -0.5549  1.3008
16957TIP3    H272363   2.899   4.163  11.903  0.2996 -0.0506  0.2794
16958TIP3   OH272364   1.910   0.996  13.309  0.7212  0.2629  0.3301
16958TIP3    H172365   1.907   1.087  13.339  0.5582  0.2279  0.4244
16958TIP3    H272366   1.856   0.995  13.230 -1.4145 -0.2708  1.7530
16959TIP3   OH272367   6.762   4.461   1.628 -0.1713 -0.8951  0.4820
16959TIP3    H172368   6.851   4.475   1.596 -0.5193  0.7486  0.1949
16959TIP3    H272369   6.735   4.546   1.663 -1.5554 -1.4260  0.7605
16960TIP3   OH272370   0.278   4.361   6.649  0.4398  0.6146  0.0386
16960TIP3    H172371   0.220   4.407   6.589  0.5467 -0.2670 -0.7643
16960TIP3    H272372   0.225   4.345   6.726 -0.3207  0.0199 -0.5988
16961TIP3   OH272373   4.852   3.551  15.500 -0.2330 -0.4389 -0.3676
16961TIP3    H172374   4.833   3.466  15.540 -1.1692  0.0699  0.2887
16961TIP3    H272375   4.802   3.551  15.418 -1.7149  0.2028  0.5193
16962TIP3   OH272376   6.180   6.448   0.369 -0.0957  0.1362 -0.0762
16962TIP3    H172377   6.140   6.380   0.314  0.1575 -0.8325  0.9271
16962TIP3    H272378   6.186   6.524   0.311 -2.1113 -0.1122 -0.6628
16963TIP3   OH272379   3.723   5.532   5.278  0.5879  0.1213 -0.6558
16963TIP3    H172380   3.702   5.469   5.348 -0.0614  1.2704  0.2070
16963TIP3    H272381   3.793   5.490   5.229 -0.0943 -1.4527 -0.3355
16964TIP3   OH272382   0.851   4.065   0.116  0.3723 -0.4003 -0.5566
16964TIP3    H172383   0.882   3.980   0.086 -0.2348 -0.7065 -0.3306
16964TIP3    H272384   0.901   4.081   0.196  1.0095 -0.2089 -0.9933
16965TIP3   OH272385   4.985   6.268   1.304  0.5431  0.1778  0.3701
16965TIP3    H172386   4.966   6.344   1.359 -0.6523 -0.4344  0.8056
16965TIP3    H272387   5.053   6.220   1.352  0.6821  0.5169  0.5132
16966TIP3   OH272388   6.018   1.638  13.371 -0.0272  0.7971  0.3591
16966TIP3    H172389   5.991   1.717  13.418 -0.7203  0.2471  0.9078
16966TIP3    H272390   6.086   1.600  13.426 -0.7744  0.2023  0.8853
16967TIP3   OH272391   0.751   1.093   3.564  0.1601 -0.5467 -0.2679
16967TIP3    H172392   0.830   1.144   3.546 -0.3377 -0.6815 -3.0499
16967TIP3    H272393   0.695   1.152   3.615  1.0817  0.3659 -0.2959
16968TIP3   OH272394   5.482   5.139  10.832  0.0065 -0.7409  0.0392
16968TIP3    H172395   5.427   5.157  10.755  0.4179  0.3385 -0.0180
16968TIP3    H272396   5.473   5.045  10.847 -2.6569 -0.3964  0.6637
16969TIP3   OH272397   6.075   2.173   5.706  0.1825 -0.3041 -0.3243
16969TIP3    H172398   6.074   2.079   5.692  0.0277 -0.2741 -0.5207
16969TIP3    H272399   6.009   2.207   5.645 -1.5487 -0.3058  1.4681
16970TIP3   OH272400   1.049   5.654   6.061 -0.6231  0.2804  0.6054
16970TIP3    H172401   1.033   5.572   6.015  0.1467  0.9389 -0.8723
16970TIP3    H272402   1.034   5.633   6.153 -1.7347 -1.1802  0.1098
16971TIP3   OH272403   4.263   5.806  15.996  0.4667  0.2308  0.2472
16971TIP3    H172404   4.198   5.821  16.065  1.0656  1.1474  0.6337
16971TIP3    H272405   4.212   5.797  15.916 -0.0881  2.0551  0.3727
16972TIP3   OH272406   2.452   6.044   6.296 -0.0657  0.5311  0.4169
16972TIP3    H172407   2.431   6.035   6.389 -1.0595 -0.4642  0.1095
16972TIP3    H272408   2.368   6.062   6.254  0.0613 -0.9826 -0.5239
16973TIP3   OH272409   3.182   3.501  15.225 -0.5693  0.4834  0.3660
16973TIP3    H172410   3.167   3.587  15.265 -2.9561 -0.4075  1.5394
16973TIP3    H272411   3.137   3.505  15.141  0.5523  0.8431 -0.2249
16974TIP3   OH272412   3.590   5.747   2.859 -0.0629 -0.0263 -0.0634
16974TIP3    H172413   3.580   5.671   2.802  1.4061 -0.7663  0.6457
16974TIP3    H272414   3.581   5.712   2.948 -3.4708  1.2852  0.1868
16975TIP3   OH272415   4.169   2.704   3.807  0.6699 -0.0302 -0.3129
16975TIP3    H172416   4.092   2.668   3.764  0.5866  1.4414 -1.4586
16975TIP3    H272417   4.135   2.771   3.866  0.7846 -2.0477  2.1248
16976TIP3   OH272418   3.274   5.249   0.826 -0.0161 -0.2014  0.7765
16976TIP3    H172419   3.352   5.288   0.786 -0.0353 -0.0657  0.8712
16976TIP3    H272420   3.224   5.214   0.752  0.3701 -0.7210  0.7547
16977TIP3   OH272421   6.463   6.451   2.282 -0.4055 -0.2679 -0.1618
16977TIP3    H172422   6.452   6.434   2.376  1.6566  0.2852  0.2182
16977TIP3    H272423   6.448   6.545   2.273  1.8942  0.1665  0.0809
16978TIP3   OH272424   2.155   2.398   4.173  0.2828  0.2255 -0.1335
16978TIP3    H172425   2.082   2.372   4.117  0.1922 -0.7152  0.4242
16978TIP3    H272426   2.172   2.322   4.228  2.2911  0.0670 -0.8988
16979TIP3   OH272427   4.868   6.332  12.849  0.0086 -0.3173  0.0447
16979TIP3    H172428   4.816   6.369  12.920 -0.2863 -0.8244  0.0976
16979TIP3    H272429   4.958   6.358  12.869 -0.3014  1.1668 -0.4312
16980TIP3   OH272430   0.065   4.443   5.138 -0.1983  0.3324  0.0163
16980TIP3    H172431   0.006   4.477   5.071  0.0252  0.9706  0.1331
16980TIP3    H272432   0.113   4.521   5.169 -0.2060  0.0238  0.8172
16981TIP3   OH272433   6.530   2.324  16.377  0.6054  0.3804 -0.7333
16981TIP3    H172434   6.555   2.260  16.444 -0.3004  0.1267 -0.6286
16981TIP3    H272435   6.590   2.397  16.389  1.8524 -0.5753 -1.0463
16982TIP3   OH272436   1.886   3.905  14.480  0.3390 -0.6950 -0.2432
16982TIP3    H172437   1.849   3.946  14.402 -0.8932 -1.0092  0.1706
16982TIP3    H272438   1.973   3.945  14.490  1.3248 -2.0414 -2.8777
16983TIP3   OH272439   0.798   2.684   2.005  0.0020 -0.5053  0.4759
16983TIP3    H172440   0.879   2.733   2.016 -0.4626  0.0767  1.4009
16983TIP3    H272441   0.806   2.610   2.065 -0.1429 -0.4553  0.5580
16984TIP3   OH272442   3.366   5.705   3.230  0.5164 -0.6315 -0.3114
16984TIP3    H172443   3.456   5.708   3.199  0.9458 -0.3817  0.9040
16984TIP3    H272444   3.366   5.633   3.294  0.2295  0.3155  0.7746
16985TIP3   OH272445   6.753   2.833  10.935 -0.4370  0.2997  0.1066
16985TIP3    H172446   6.847   2.845  10.948 -0.0812 -0.7160 -1.3772
16985TIP3    H272447   6.745   2.798  10.847 -2.3831  2.3543 -0.5831
16986TIP3   OH272448   3.687   1.000  11.458  0.6585  0.3489 -0.1634
16986TIP3    H172449   3.728   0.920  11.492 -0.2968  0.8253  2.1831
16986TIP3    H272450   3.760   1.057  11.435  1.3356 -0.4421 -0.0030
16987TIP3   OH272451   5.328   1.699   4.751 -0.2501  0.1924  0.3467
16987TIP3    H172452   5.403   1.758   4.761  0.2610 -0.5581  1.0048
16987TIP3    H272453   5.259   1.755   4.714  0.7357  0.7977 -0.6172
16988TIP3   OH272454   0.937   2.179  12.639  0.6133 -0.2124 -0.4190
16988TIP3    H172455   0.910   2.090  12.615  0.4059  0.3202 -2.2180
16988TIP3    H272456   0.941   2.226  12.556 -0.6284  1.8480  0.6586
16989TIP3   OH272457   1.462   2.130  13.372 -0.2576  0.0745  0.2196
16989TIP3    H172458   1.403   2.069  13.416  0.4081 -0.9054 -0.2291
16989TIP3    H272459   1.505   2.178  13.443 -1.4089  0.6167  0.5530
16990TIP3   OH272460   4.782   3.117   5.995 -0.1112 -0.3751  0.1081
16990TIP3    H172461   4.853   3.129   5.931  0.1057  1.3938  0.6426
16990TIP3    H272462   4.825   3.122   6.080 -0.5283 -1.8718  0.4176
16991TIP3   OH272463   0.766   6.540   2.863 -0.3471  0.2355 -0.5799
16991TIP3    H172464   0.844   6.576   2.822 -0.4660  0.2692 -0.7782
16991TIP3    H272465   0.703   6.612   2.861 -0.7529 -0.1338 -1.4281
16992TIP3   OH272466   0.194   0.056   2.609  0.6126 -0.3680  0.1743
16992TIP3    H172467   0.145  -0.013   2.654 -0.3827 -0.8967 -1.6786
16992TIP3    H272468   0.183   0.037   2.516 -0.7152  2.9842 -0.4304
16993TIP3   OH272469   3.916   0.512  12.835  0.2235  0.3436 -0.0140
16993TIP3    H172470   3.876   0.528  12.750 -0.4566  3.7533  0.8520
16993TIP3    H272471   4.005   0.484  12.816 -0.7337 -1.5860 -1.8422
16994TIP3   OH272472   0.317   5.437   0.481  0.0219 -0.1008  0.0154
16994TIP3    H172473   0.354   5.479   0.559  1.1925  0.0348 -0.6056
16994TIP3    H272474   0.382   5.371   0.456 -0.7713 -0.7694 -0.3225
16995TIP3   OH272475   0.922   1.952  14.348 -0.8393  0.2435  0.1592
16995TIP3    H172476   1.005   1.910  14.325 -1.8367 -1.4772 -0.3962
16995TIP3    H272477   0.943   2.045  14.355  0.6987  0.0895 -2.0201
16996TIP3   OH272478   2.062   5.475  13.097  0.1709 -0.0712  0.2296
16996TIP3    H172479   1.979   5.429  13.087 -0.0519 -0.1850  2.2578
16996TIP3    H272480   2.121   5.431  13.036 -1.0041 -0.6228 -0.5263
16997TIP3   OH272481   3.028   5.097  14.940 -0.1830 -0.3586 -0.4036
16997TIP3    H172482   3.015   5.053  15.024 -0.5055 -0.7118 -0.6357
16997TIP3    H272483   2.949   5.150  14.928 -0.0979 -0.2401 -0.4452
16998TIP3   OH272484   4.694   0.286   3.829  0.0246 -0.0516 -0.1674
16998TIP3    H172485   4.602   0.265   3.844 -0.2027  1.6131  0.7953
16998TIP3    H272486   4.692   0.358   3.766  0.5207  2.2666  2.3757
16999TIP3   OH272487   2.244   2.242  11.462  0.1054 -0.0745  0.3191
16999TIP3    H172488   2.224   2.264  11.371 -0.4943 -0.4084  0.3729
16999TIP3    H272489   2.301   2.313  11.491 -2.6325  1.9589  0.8114
17000TIP3   OH272490   5.834   1.974  11.699  0.2963  0.4191  0.3929
17000TIP3    H172491   5.809   2.065  11.718  0.6003  0.4443  0.6849
17000TIP3    H272492   5.930   1.975  11.704  0.4059  0.5190 -1.5475
17001TIP3   OH272493   0.548   1.989   6.702  0.0019 -0.1584 -0.1557
17001TIP3    H172494   0.495   1.969   6.625  1.4865 -0.4975 -1.1221
17001TIP3    H272495   0.551   2.084   6.706 -0.0319 -0.1423 -0.5453
17002TIP3   OH272496   5.005   5.941   6.233 -0.4808 -0.2632  0.4465
17002TIP3    H172497   4.990   6.035   6.227  2.1347  0.2988  2.0415
17002TIP3    H272498   5.080   5.925   6.176 -0.1280 -1.2024  1.1662
17003TIP3   OH272499   1.296   4.048   1.832 -0.1418 -0.5378  0.1393
17003TIP3    H172500   1.232   4.088   1.892  1.5215 -0.1268  1.6809
17003TIP3    H272501   1.378   4.093   1.851  0.7155 -1.3517 -1.5221
17004TIP3   OH272502   0.574   1.177   2.749 -0.3211 -0.3273 -0.2418
17004TIP3    H172503   0.481   1.177   2.728 -0.7712 -2.9264  1.5464
17004TIP3    H272504   0.583   1.241   2.820 -0.6614  0.1891 -0.6601
17005TIP3   OH272505   5.485   3.052   0.001 -0.1135  0.6502  0.2449
17005TIP3    H172506   5.576   3.068  -0.025 -0.5501 -0.3819 -1.9957
17005TIP3    H272507   5.481   2.959   0.020 -0.9477  0.5116 -0.6196
17006TIP3   OH272508   4.322   0.113   2.745 -0.6042  0.1774 -0.5554
17006TIP3    H172509   4.331   0.024   2.780  0.6835  0.0921 -1.0833
17006TIP3    H272510   4.334   0.103   2.650 -1.4756  0.7745 -0.7364
17007TIP3   OH272511   3.826   3.017  16.817 -0.2842 -0.3217  0.0372
17007TIP3    H172512   3.734   3.008  16.842 -0.1220 -0.6160  0.5122
17007TIP3    H272513   3.874   3.017  16.899  0.0391  1.1508 -0.1398
17008TIP3   OH272514   1.989   0.835  12.114 -0.6097  0.1513  0.0571
17008TIP3    H172515   1.963   0.759  12.063  0.1081 -0.0370 -0.0364
17008TIP3    H272516   1.944   0.909  12.071 -1.4843 -0.2425  0.2902
17009TIP3   OH272517   1.285   5.012   1.685  0.3980  0.5013  0.0627
17009TIP3    H172518   1.216   5.036   1.623 -0.3398  0.7112  0.9373
17009TIP3    H272519   1.353   5.077   1.672 -0.2945  1.2920  0.3266
17010TIP3   OH272520   2.119   5.650   1.794  0.1791 -0.3726 -0.3399
17010TIP3    H172521   2.102   5.718   1.859 -0.9500  1.3895 -2.3868
17010TIP3    H272522   2.111   5.696   1.710  1.7247 -2.5577 -1.7081
17011TIP3   OH272523   6.046   5.223   1.071 -0.8854 -0.4824 -0.1995
17011TIP3    H172524   6.115   5.157   1.072 -1.5866 -1.2455 -1.2189
17011TIP3    H272525   5.972   5.181   1.114 -0.7639  0.3035  0.8143
17012TIP3   OH272526   4.661   6.593  15.136  0.0538 -0.1323 -0.4250
17012TIP3    H172527   4.590   6.532  15.115 -0.1478 -0.1536  0.3085
17012TIP3    H272528   4.737   6.558  15.090 -0.1274 -0.7869 -0.2359
17013TIP3   OH272529   2.669   0.978   1.875  0.4563  0.2097  0.0492
17013TIP3    H172530   2.698   1.057   1.830  0.4319 -0.3800 -1.0343
17013TIP3    H272531   2.715   0.979   1.959 -0.4374  1.9584  0.5390
17014TIP3   OH272532   3.675   1.660  15.129  0.2020  0.5839  0.4354
17014TIP3    H172533   3.712   1.584  15.174  0.2353 -0.2235 -0.9529
17014TIP3    H272534   3.751   1.708  15.097  0.1130 -0.5774 -1.5962
17015TIP3   OH272535   5.318   4.181   0.067 -0.2254 -0.0877 -0.3938
17015TIP3    H172536   5.315   4.109   0.004  0.8339 -1.9372  1.6116
17015TIP3    H272537   5.362   4.252   0.020 -1.9185 -0.4870 -2.6351
17016TIP3   OH272538   0.426   1.332  12.291 -0.0220 -0.9655 -0.2140
17016TIP3    H172539   0.482   1.332  12.213  1.0671 -0.8145  0.5554
17016TIP3    H272540   0.337   1.338  12.257  0.5405  1.2306 -1.3733
17017TIP3   OH272541   6.600   0.544  11.973 -0.6195 -0.2445 -0.0925
17017TIP3    H172542   6.657   0.595  12.032  0.1931 -2.2183  0.8707
17017TIP3    H272543   6.648   0.540  11.890  0.4177 -1.4061  0.5416
17018TIP3   OH272544   5.487   1.902  15.755  0.4364 -0.5855 -0.5341
17018TIP3    H172545   5.530   1.978  15.794 -1.5788  0.6864 -0.7536
17018TIP3    H272546   5.549   1.871  15.688  2.0740 -0.2895  0.8126
17019TIP3   OH272547   6.236   4.989   2.919 -0.1103  0.7585  0.0850
17019TIP3    H172548   6.325   5.024   2.925 -0.1116  0.8063 -0.1553
17019TIP3    H272549   6.249   4.895   2.906 -0.0724  0.9164 -1.0413
17020TIP3   OH272550   2.761   0.357  16.336 -0.6866 -0.4814 -0.3226
17020TIP3    H172551   2.705   0.424  16.297 -1.9812 -1.1649  0.3244
17020TIP3    H272552   2.747   0.366  16.430 -0.3146 -1.1754 -0.1959
17021TIP3   OH272553   5.413   2.732  13.469 -0.6395  0.2666 -0.3704
17021TIP3    H172554   5.325   2.694  13.474 -0.4216 -0.0682  0.9937
17021TIP3    H272555   5.398   2.825  13.450 -1.3108  0.3207  0.4050
17022TIP3   OH272556   2.586   6.551   2.397  0.2507 -0.2502 -0.0881
17022TIP3    H172557   2.645   6.535   2.324 -1.0395  1.6538 -1.6080
17022TIP3    H272558   2.631   6.614   2.452 -0.2801  1.0727 -1.1586
17023TIP3   OH272559   3.598   5.429   6.335 -0.1676  0.1938  0.6922
17023TIP3    H172560   3.665   5.446   6.269 -0.8334  1.7300  0.4051
17023TIP3    H272561   3.522   5.399   6.286 -1.2482  3.0197  0.5598
17024TIP3   OH272562   1.039   1.774   3.232  0.2165  0.3309  0.2246
17024TIP3    H172563   1.034   1.868   3.246  1.1320  0.2766  0.9590
17024TIP3    H272564   1.118   1.762   3.179 -0.1849  0.0160 -0.3151
17025TIP3   OH272565   3.726   0.020  11.771 -0.4941  0.3301  0.3491
17025TIP3    H172566   3.803  -0.035  11.752  0.6703  2.7242 -2.1990
17025TIP3    H272567   3.660  -0.010  11.708 -0.2025  1.1479 -0.3501
17026TIP3   OH272568   1.422   4.770   6.497  0.1688  0.9855 -0.1278
17026TIP3    H172569   1.435   4.806   6.585  1.5924  1.1097 -0.3778
17026TIP3    H272570   1.507   4.731   6.474 -0.5386 -0.0927 -0.9688
17027TIP3   OH272571   6.210   6.342  11.983  0.2354  0.0125  0.3758
17027TIP3    H172572   6.151   6.349  11.908 -0.0112  0.2032  0.5831
17027TIP3    H272573   6.161   6.382  12.055  1.2552  1.6658  0.1945
17028TIP3   OH272574   6.198   3.229  14.665 -0.6259  0.1145  0.1023
17028TIP3    H172575   6.198   3.136  14.688 -0.3502  0.2857  0.8147
17028TIP3    H272576   6.243   3.233  14.581 -0.2161 -0.3407  0.2980
17029TIP3   OH272577   4.478   5.624  11.108  0.5273  0.1038 -0.3812
17029TIP3    H172578   4.416   5.696  11.115  0.9153  0.5499 -1.4957
17029TIP3    H272579   4.558   5.663  11.073  1.1235 -0.6503  0.1043
17030TIP3   OH272580   4.655   5.513  12.948  0.1162  0.0063  0.4047
17030TIP3    H172581   4.745   5.480  12.951  0.2118  0.4167  2.0970
17030TIP3    H272582   4.664   5.602  12.915  0.4645  0.5026  1.8197
17031TIP3   OH272583   4.634   2.424   2.444 -0.7173 -0.1129 -0.2651
17031TIP3    H172584   4.558   2.386   2.488  0.5016  2.7000  4.6810
17031TIP3    H272585   4.705   2.362   2.461 -0.2938  0.8714  1.5993
17032TIP3   OH272586   5.210   2.111  13.397 -0.0942  0.3588 -0.3755
17032TIP3    H172587   5.258   2.081  13.320  0.5070  0.0823  0.1074
17032TIP3    H272588   5.266   2.088  13.471 -1.7592 -1.5862  0.3227
17033TIP3   OH272589   2.895   0.544  12.335 -0.5656 -0.4861 -0.0388
17033TIP3    H172590   2.860   0.525  12.422  0.0061 -1.9274 -0.1129
17033TIP3    H272591   2.985   0.571  12.351 -0.9957  1.0453 -0.0491
17034TIP3   OH272592   0.459   0.731  12.179 -0.2747 -0.4370  0.2397
17034TIP3    H172593   0.435   0.641  12.157 -0.2719 -0.6737  1.2160
17034TIP3    H272594   0.537   0.724  12.233 -0.1993  0.1567  0.2177
17035TIP3   OH272595   5.351   6.155  10.910  0.1662 -0.5395  0.4904
17035TIP3    H172596   5.275   6.141  10.854  1.0994 -0.5085 -0.8114
17035TIP3    H272597   5.374   6.247  10.896 -0.2240 -0.2502  1.7285
17036TIP3   OH272598   6.232   2.963   0.967 -0.3601  0.3053  0.0526
17036TIP3    H172599   6.263   2.887   1.016  1.0178  0.0106 -1.2308
17036TIP3    H272600   6.212   3.028   1.033  0.9620 -0.2738  1.0426
17037TIP3   OH272601   0.618   5.084  16.067  0.0283  0.2899 -0.4278
17037TIP3    H172602   0.523   5.091  16.054 -0.3832 -1.5791  1.2281
17037TIP3    H272603   0.642   5.002  16.024  0.2812 -0.9824  2.0633
17038TIP3   OH272604   3.005   4.725   0.409  0.9553 -0.1986 -0.6181
17038TIP3    H172605   2.955   4.644   0.398  0.3998  0.2165 -1.1856
17038TIP3    H272606   3.019   4.757   0.320  0.1157  0.9496 -0.3500
17039TIP3   OH272607   4.003   1.186   0.381 -0.0416 -0.0483 -0.3288
17039TIP3    H172608   4.006   1.109   0.324 -1.2661 -2.2224  2.4223
17039TIP3    H272609   4.079   1.176   0.438 -2.1936 -1.3029  2.4790
17040TIP3   OH272610   0.575   2.145   0.701 -0.4522 -0.5890  0.1888
17040TIP3    H172611   0.543   2.234   0.709  1.4673  0.1213  0.1206
17040TIP3    H272612   0.500   2.090   0.724 -1.5213  1.0381  0.6158
17041TIP3   OH272613   3.162   1.044   1.426  0.6065  0.5083  0.2213
17041TIP3    H172614   3.224   0.972   1.429 -0.1415 -0.3324 -2.6529
17041TIP3    H272615   3.207   1.113   1.378  0.1267  0.6888  0.0208
17042TIP3   OH272616   3.087   3.990  15.545 -0.3345  0.2640  0.0838
17042TIP3    H172617   3.152   3.946  15.600 -0.2091 -0.6084 -0.7627
17042TIP3    H272618   3.038   3.919  15.504 -0.4953  0.9221 -0.8580
17043TIP3   OH272619   5.459   6.815   1.253 -0.4130  0.2447  0.2654
17043TIP3    H172620   5.377   6.766   1.243  0.8061 -2.0088  0.9993
17043TIP3    H272621   5.489   6.831   1.163 -1.9655  1.6461 -0.0178
17044TIP3   OH272622   6.587   4.585  14.578 -0.7611  0.6916 -0.2609
17044TIP3    H172623   6.558   4.628  14.658 -1.7281  0.0372 -0.2460
17044TIP3    H272624   6.678   4.558  14.596 -0.3316  2.2460 -0.0964
17045TIP3   OH272625   0.586   0.049   4.244  0.0829 -0.2744  0.1162
17045TIP3    H172626   0.668   0.011   4.276  0.7593 -1.0468 -2.3890
17045TIP3    H272627   0.557   0.107   4.314  2.9213  0.2091  0.9526
17046TIP3   OH272628   0.478   0.450   3.302  0.1911 -0.2461  0.2354
17046TIP3    H172629   0.523   0.493   3.375  0.4034  0.0524 -0.0706
17046TIP3    H272630   0.548   0.407   3.253 -0.1212 -1.7400  1.0705
17047TIP3   OH272631   5.029   5.698   1.112  0.1197 -0.6373 -0.5988
17047TIP3    H172632   4.990   5.785   1.114  0.4492 -0.4479 -1.9001
17047TIP3    H272633   5.113   5.710   1.068  0.6478 -1.4269  0.1738
17048TIP3   OH272634   3.645   2.908  14.946 -0.1103 -0.0107 -0.2846
17048TIP3    H172635   3.717   2.903  14.884  0.0375 -1.1791 -0.0249
17048TIP3    H272636   3.686   2.897  15.032 -0.0755  3.3252  0.1934
17049TIP3   OH272637   5.968   4.830  12.738 -0.5868  0.2697 -0.0024
17049TIP3    H172638   5.874   4.833  12.718 -0.7366 -1.0158  0.4912
17049TIP3    H272639   5.984   4.740  12.763  0.7105  0.5874  0.3220
17050TIP3   OH272640   1.330   4.975  12.026  0.0168 -0.1766  0.2610
17050TIP3    H172641   1.343   5.070  12.030 -1.1338 -0.0196  0.5321
17050TIP3    H272642   1.395   4.945  11.963  0.6546  0.7439  0.4586
17051TIP3   OH272643   1.443   4.199   4.954  0.2350  0.0014  0.1122
17051TIP3    H172644   1.392   4.180   4.876 -0.5777 -0.5381  0.7616
17051TIP3    H272645   1.407   4.282   4.986 -1.0549 -0.9548  1.2144
17052TIP3   OH272646   0.371   1.966  15.057  0.6639  0.3516 -0.0296
17052TIP3    H172647   0.299   1.951  14.995 -0.1657 -0.5163  1.1243
17052TIP3    H272648   0.369   2.060  15.072  1.2724  0.6687 -1.7862
17053TIP3   OH272649   5.571   6.206   0.025  0.0731  0.0328  0.1575
17053TIP3    H172650   5.526   6.288   0.045  1.2682  0.7111  0.1252
17053TIP3    H272651   5.646   6.231  -0.029 -1.8453 -1.5538 -3.4320
17054TIP3   OH272652   5.481   6.403   1.979  0.5088  0.3641  0.0915
17054TIP3    H172653   5.451   6.376   1.893  0.0714 -0.1220  0.3944
17054TIP3    H272654   5.515   6.492   1.966 -1.4288  1.0934 -0.1674
17055TIP3   OH272655   0.420   4.261   4.722 -0.5025  0.0168  0.7667
17055TIP3    H172656   0.491   4.255   4.786 -0.0425  1.8569  0.4378
17055TIP3    H272657   0.354   4.199   4.754 -0.2572  0.8835  2.9909
17056TIP3   OH272658   0.461   1.402   2.930 -0.3692 -0.0472 -0.5570
17056TIP3    H172659   0.469   1.405   3.025  0.3175 -2.1173 -0.5175
17056TIP3    H272660   0.367   1.407   2.913 -0.4381  1.3462  0.1704
17057TIP3   OH272661   1.942   2.244   2.182 -0.3334 -0.4252 -0.3654
17057TIP3    H172662   1.863   2.289   2.212 -0.2466  1.1197 -2.3399
17057TIP3    H272663   1.973   2.196   2.258 -3.0874 -0.9251  0.4873
17058TIP3   OH272664   6.066   1.064   6.002 -0.3382 -0.3492 -0.0634
17058TIP3    H172665   6.120   1.110   5.937 -1.1212  0.3872 -0.2002
17058TIP3    H272666   6.088   0.971   5.990  0.8412 -0.0551 -0.1652
17059TIP3   OH272667   0.339   6.281  12.964 -0.1334 -0.1387  0.3907
17059TIP3    H172668   0.371   6.235  12.886  1.2569 -0.1307  0.9444
17059TIP3    H272669   0.388   6.242  13.036  1.3875  2.4850  0.8466
17060TIP3   OH272670   0.522   5.609  15.413  0.4454  0.6315  0.1481
17060TIP3    H172671   0.427   5.605  15.407  0.2084  2.4284  2.1316
17060TIP3    H272672   0.552   5.533  15.362 -2.0193 -0.0110 -0.4364
17061TIP3   OH272673   2.600   3.123  12.679 -0.3255  0.6605 -0.0111
17061TIP3    H172674   2.523   3.141  12.624 -0.6437  1.1320  0.5856
17061TIP3    H272675   2.653   3.202  12.673  0.2764  0.2212 -0.6677
17062TIP3   OH272676   4.059   5.433   1.914  0.1733 -0.0967 -0.2533
17062TIP3    H172677   4.121   5.437   1.841 -0.7438 -0.7481 -1.0834
17062TIP3    H272678   4.019   5.520   1.916  1.1478  0.3388  0.3143
17063TIP3   OH272679   1.301   6.269   0.451  0.1180 -0.1331 -0.2326
17063TIP3    H172680   1.221   6.305   0.488  1.4317  0.1372  2.4905
17063TIP3    H272681   1.302   6.299   0.360 -2.0241  1.2195  0.1671
17064TIP3   OH272682   0.598   0.523  14.475 -0.0639 -0.5191 -0.7692
17064TIP3    H172683   0.684   0.495  14.504  0.6605  1.7156 -0.6659
17064TIP3    H272684   0.557   0.444  14.439  0.8158 -2.3091  1.9934
17065TIP3   OH272685   0.082   5.781   0.430  0.4967  0.1497 -0.4566
17065TIP3    H172686   0.114   5.871   0.422 -0.5347  0.5659  0.1227
17065TIP3    H272687   0.109   5.754   0.518  0.9111 -0.1625 -0.6734
17066TIP3   OH272688   5.858   0.083  15.340  0.8079 -0.0422 -0.1250
17066TIP3    H172689   5.874   0.045  15.253 -0.3805  1.7715 -1.1672
17066TIP3    H272690   5.886   0.174  15.332  3.2029 -0.5227  2.2105
17067TIP3   OH272691   6.437   3.474  13.533 -0.1123  0.0505 -0.5953
17067TIP3    H172692   6.432   3.505  13.442 -0.3961  0.4367 -0.4475
17067TIP3    H272693   6.378   3.398  13.534  0.9829 -0.8162 -1.0823
17068TIP3   OH272694   4.396   2.133   2.313  0.5509 -0.0121 -0.0045
17068TIP3    H172695   4.417   2.159   2.403  3.5752 -0.7150 -0.4706
17068TIP3    H272696   4.413   2.211   2.260  0.7646 -0.2296 -0.2534
17069TIP3   OH272697   2.056   4.562   4.203 -0.0655  0.4197 -0.7145
17069TIP3    H172698   2.106   4.599   4.276  1.2602  0.2643 -1.5226
17069TIP3    H272699   1.972   4.609   4.205  0.6758  1.7708 -0.2542
17070TIP3   OH272700   3.441   1.837  14.740  0.1182 -0.5046 -0.1844
17070TIP3    H172701   3.433   1.770  14.672 -3.1157 -0.0818 -0.3160
17070TIP3    H272702   3.389   1.803  14.813  2.0306 -0.0929  1.4250
17071TIP3   OH272703   1.342   2.417  12.583 -0.4375  0.1038 -0.4450
17071TIP3    H172704   1.435   2.419  12.604 -0.9343 -1.0978  2.0363
17071TIP3    H272705   1.338   2.378  12.496  1.3323 -0.4548 -0.2877
17072TIP3   OH272706   2.495   6.447  15.854 -0.1035 -0.3490 -0.0097
17072TIP3    H172707   2.516   6.521  15.911 -0.4248 -0.3263  0.0819
17072TIP3    H272708   2.577   6.427  15.809  0.4177 -1.0610  1.2596
17073TIP3   OH272709   4.961   2.918   4.437 -0.6543  0.4214 -0.2551
17073TIP3    H172710   4.880   2.896   4.390 -0.5236  0.4143 -0.4777
17073TIP3    H272711   4.948   2.883   4.525  0.0930 -1.7220 -0.9762
17074TIP3   OH272712   3.396   6.239   2.037  0.0052  0.3426  0.5776
17074TIP3    H172713   3.480   6.243   1.991  0.7326 -1.3792  1.6809
17074TIP3    H272714   3.375   6.331   2.056  2.1513  0.7616  1.1352
17075TIP3   OH272715   3.647   2.331  14.916  0.3318  0.0083  0.1484
17075TIP3    H172716   3.683   2.413  14.882 -0.7738  0.2490 -0.4592
17075TIP3    H272717   3.627   2.279  14.837  0.2147 -0.4924  0.5029
17076TIP3   OH272718   2.162   0.241   0.223 -0.5315  0.3925 -0.2135
17076TIP3    H172719   2.135   0.275   0.138 -1.3044  0.2439 -0.0260
17076TIP3    H272720   2.091   0.184   0.251 -0.3407  0.5370  0.5932
17077TIP3   OH272721   1.686   2.995  16.154 -0.3879  0.1867 -0.1382
17077TIP3    H172722   1.748   3.069  16.157  0.3638 -0.3853 -1.3663
17077TIP3    H272723   1.734   2.926  16.109 -0.7788 -1.3668  1.7734
17078TIP3   OH272724   3.305   5.486   2.060  0.0409 -0.5446  0.2408
17078TIP3    H172725   3.258   5.538   1.994  0.5034 -0.8316 -0.3191
17078TIP3    H272726   3.242   5.477   2.131 -0.4645 -0.2182 -0.1530
17079TIP3   OH272727   1.595   0.499   3.920 -0.7654  0.0101 -0.5270
17079TIP3    H172728   1.633   0.474   3.836 -1.0332  0.4112 -0.7701
17079TIP3    H272729   1.616   0.592   3.929  0.6597 -0.3947  0.6029
17080TIP3   OH272730   2.664   5.136   1.431 -0.7287  0.4722  0.1152
17080TIP3    H172731   2.641   5.089   1.351  0.3434  1.7340 -0.9710
17080TIP3    H272732   2.710   5.071   1.484  2.1187  0.6174 -2.0271
17081TIP3   OH272733   0.011   0.021   6.660 -0.0241 -0.7262  0.0701
17081TIP3    H172734   0.007   0.099   6.715  1.1860 -0.4585 -0.1886
17081TIP3    H272735   0.003   0.054   6.571  1.1758 -0.8044 -0.0810
17082TIP3   OH272736   3.684   1.708  14.507  0.8707 -0.4505 -0.2728
17082TIP3    H172737   3.663   1.797  14.478  0.1215 -1.1654 -1.9488
17082TIP3    H272738   3.638   1.699  14.591  0.1662  0.4076 -0.5642
17083TIP3   OH272739   3.413   3.154   1.870 -0.5485  0.5430  0.4525
17083TIP3    H172740   3.374   3.145   1.958  0.7970 -0.0108  1.0047
17083TIP3    H272741   3.482   3.219   1.882 -0.3019  0.3956 -0.1935
17084TIP3   OH272742   2.211   2.397   1.106  0.1188 -0.5001 -0.1633
17084TIP3    H172743   2.165   2.457   1.047  2.0083 -1.6711 -2.9248
17084TIP3    H272744   2.271   2.453   1.155 -1.3520  0.4624  0.6001
17085TIP3   OH272745   4.384   1.242  16.664 -0.2106 -0.1260  0.3015
17085TIP3    H172746   4.402   1.315  16.723 -1.1211 -0.0907  0.5452
17085TIP3    H272747   4.313   1.273  16.608 -0.2771 -0.6547  0.0830
17086TIP3   OH272748   1.521   2.446  11.372  0.7875 -0.1684 -0.2989
17086TIP3    H172749   1.595   2.440  11.433  0.4314  2.1240  0.4244
17086TIP3    H272750   1.551   2.400  11.294  2.6451 -0.0593  0.3122
17087TIP3   OH272751   4.015   4.972   3.996  0.5375  0.0534 -0.0213
17087TIP3    H172752   4.061   5.039   3.945  0.4894  0.5803  0.6169
17087TIP3    H272753   4.084   4.919   4.035  0.5668 -1.1919 -1.7150
17088TIP3   OH272754   4.369   3.469  10.207  0.2978 -0.1945 -0.0511
17088TIP3    H172755   4.330   3.555  10.221  2.5727  0.6221  1.6381
17088TIP3    H272756   4.392   3.468  10.114 -1.9191  0.0591 -0.6185
17089TIP3   OH272757   6.611   5.252  12.980 -0.0316 -0.5083  0.2526
17089TIP3    H172758   6.595   5.343  12.955  0.1955 -0.9653 -1.6537
17089TIP3    H272759   6.525   5.210  12.973  0.0577 -0.6683  0.1251
17090TIP3   OH272760   4.329   5.407   0.658 -0.2402 -0.0289 -0.7079
17090TIP3    H172761   4.286   5.419   0.743 -0.3025  1.3653 -0.9272
17090TIP3    H272762   4.366   5.319   0.663  0.0569  0.1587  0.9132
17091TIP3   OH272763   3.824   3.448  15.865  0.1429 -0.2892  0.6447
17091TIP3    H172764   3.909   3.449  15.908  0.4630  1.0985 -0.0020
17091TIP3    H272765   3.807   3.540  15.843  0.2089 -1.0181 -2.6019
17092TIP3   OH272766   5.823   1.216   2.246 -0.1754  0.2783 -0.4653
17092TIP3    H172767   5.738   1.257   2.260  0.3450  1.3111 -0.3009
17092TIP3    H272768   5.871   1.278   2.191  0.4983 -0.2722 -0.5113
17093TIP3   OH272769   0.728   0.070   5.977 -0.3607  0.4623 -0.5394
17093TIP3    H172770   0.784  -0.003   6.001 -2.4829 -0.9644  0.1692
17093TIP3    H272771   0.785   0.147   5.981  1.7917 -1.0818 -0.9181
17094TIP3   OH272772   5.883   0.979  10.709 -0.0824  0.0842 -0.1601
17094TIP3    H172773   5.935   0.925  10.650  1.1788  0.7112  0.3651
17094TIP3    H272774   5.818   1.021  10.653 -0.1379 -0.8396 -0.7919
17095TIP3   OH272775   2.087   4.183  12.857 -0.5165  0.0475 -0.5437
17095TIP3    H172776   2.053   4.236  12.786  0.6959  1.2720 -0.2314
17095TIP3    H272777   2.011   4.134  12.889 -1.9593  2.5891  0.0350
17096TIP3   OH272778   1.799   1.881   0.228  0.4317  0.2172  0.1180
17096TIP3    H172779   1.736   1.810   0.237 -0.6020  1.2612  1.2930
17096TIP3    H272780   1.860   1.869   0.302  1.3202 -0.4927 -0.7214
17097TIP3   OH272781   2.586   4.985   2.018 -0.4519  0.2533  0.2092
17097TIP3    H172782   2.613   4.899   1.987 -0.5735  0.2052  0.2402
17097TIP3    H272783   2.667   5.025   2.051 -0.4165  0.1068  0.2993
17098TIP3   OH272784   5.966   3.185  13.568 -0.9156 -0.1990  0.5743
17098TIP3    H172785   5.958   3.141  13.483  1.7053 -1.9323  1.1572
17098TIP3    H272786   5.903   3.257  13.564 -1.3356 -0.6657 -2.5678
17099TIP3   OH272787   5.685   2.438   2.648 -0.1407 -0.5753  0.5647
17099TIP3    H172788   5.703   2.531   2.633  0.4056 -0.7561  0.0778
17099TIP3    H272789   5.747   2.392   2.591 -1.5869 -1.2057 -0.5346
17100TIP3   OH272790   0.281   2.150   2.658  0.3793 -0.0400 -0.2280
17100TIP3    H172791   0.271   2.205   2.736  0.4354  1.0780 -1.0016
17100TIP3    H272792   0.221   2.188   2.594  1.4950 -0.0065 -1.2527
17101TIP3   OH272793   6.486   2.416   2.785  0.4225 -0.5696  0.2149
17101TIP3    H172794   6.504   2.363   2.863  0.3554  0.0850  0.6812
17101TIP3    H272795   6.417   2.368   2.739  0.1545 -0.7398  0.7798
17102TIP3   OH272796   6.769   4.428  11.663  0.3185  0.2853 -0.0410
17102TIP3    H172797   6.811   4.464  11.741  0.3998 -0.6504  0.3458
17102TIP3    H272798   6.761   4.334  11.680 -4.7546  0.8136  1.2359
17103TIP3   OH272799   3.620   4.659   1.003  0.0469 -0.1615  0.2801
17103TIP3    H172800   3.592   4.731   1.060  1.3224 -1.9019  3.2104
17103TIP3    H272801   3.539   4.620   0.972 -0.7007  0.4353  1.4358
17104TIP3   OH272802   0.758   5.154  11.542  0.0309 -0.0904  0.4882
17104TIP3    H172803   0.760   5.064  11.574 -1.9056 -0.3093  0.0082
17104TIP3    H272804   0.669   5.167  11.511  1.0833  1.0757 -2.1420
17105TIP3   OH272805   6.753   2.585   5.533  0.4708 -0.0043 -0.6767
17105TIP3    H172806   6.697   2.616   5.604  1.1602 -1.8742  0.7122
17105TIP3    H272807   6.746   2.653   5.466  1.1272  2.6362  1.8472
17106TIP3   OH272808   3.928   0.034  17.019  0.2837 -0.3484 -0.0111
17106TIP3    H172809   3.851   0.076  17.056 -0.7332 -1.0954 -1.2611
17106TIP3    H272810   4.002   0.075  17.065 -0.8623 -0.0449  1.5995
17107TIP3   OH272811   3.545   1.313  16.676  0.3964  0.6033 -0.4560
17107TIP3    H172812   3.635   1.281  16.670 -0.2610 -1.1222 -1.3281
17107TIP3    H272813   3.496   1.258  16.615 -1.5474  0.4437  1.2108
17108TIP3   OH272814   1.700   3.388   1.109 -0.0978  0.5978  0.2218
17108TIP3    H172815   1.685   3.341   1.026 -2.4216 -0.7689  1.3280
17108TIP3    H272816   1.720   3.318   1.172  2.6059  1.7134  0.6340
17109TIP3   OH272817   0.742   0.785  11.190  0.0277  0.4235 -0.0550
17109TIP3    H172818   0.817   0.827  11.149  0.9746 -0.2723  0.9153
17109TIP3    H272819   0.780   0.723  11.252 -1.3497 -0.9626 -0.5623
17110TIP3   OH272820   2.126   4.573   2.847  0.2297 -0.0658 -0.2630
17110TIP3    H172821   2.078   4.576   2.930 -0.0269  0.3208 -0.4243
17110TIP3    H272822   2.070   4.620   2.785 -0.4506 -1.9178 -1.0912
17111TIP3   OH272823   3.588   3.668  15.932  0.3777 -0.3030 -0.4153
17111TIP3    H172824   3.555   3.592  15.979 -0.4669  0.1998 -0.1757
17111TIP3    H272825   3.526   3.680  15.860 -1.1111  1.7721  1.1185
17112TIP3   OH272826   5.996   4.494  10.599 -0.1146 -0.4716 -0.5294
17112TIP3    H172827   6.052   4.511  10.523 -0.2324  1.1042 -0.2623
17112TIP3    H272828   5.907   4.497  10.563 -0.2324  1.6055 -0.0831
17113TIP3   OH272829   3.286   5.424   0.326 -1.2067 -0.4773  0.2799
17113TIP3    H172830   3.250   5.345   0.286 -0.0261 -0.7401 -0.3167
17113TIP3    H272831   3.362   5.393   0.376 -0.4269  0.3200 -0.3717
17114TIP3   OH272832   0.847   5.728  15.831  0.0158 -0.3680 -0.0539
17114TIP3    H172833   0.870   5.706  15.921 -0.6641 -0.3534  0.1328
17114TIP3    H272834   0.811   5.817  15.837 -1.4611 -0.9507 -0.0932
17115TIP3   OH272835   4.928   1.230   3.430  0.2407  0.1632  0.0787
17115TIP3    H172836   4.891   1.244   3.517  0.3955  1.5673 -0.0651
17115TIP3    H272837   5.000   1.293   3.425  1.1436 -0.9035 -0.5322
17116TIP3   OH272838   3.253   3.030  10.877 -0.6584  0.4234 -0.0323
17116TIP3    H172839   3.215   2.988  10.800 -0.1407  1.4666 -0.8643
17116TIP3    H272840   3.320   2.969  10.907 -0.2766  0.4051 -0.9166
17117TIP3   OH272841   4.034   4.151   1.664  0.2280  0.4648  0.2111
17117TIP3    H172842   4.061   4.238   1.636  2.3206  0.1498  1.0964
17117TIP3    H272843   4.045   4.097   1.586 -0.6851  0.9127 -0.2295
17118TIP3   OH272844   6.337   3.158   4.660  0.0873 -0.0866  0.4678
17118TIP3    H172845   6.359   3.173   4.568 -0.8541  0.4018  0.3129
17118TIP3    H272846   6.379   3.075   4.682 -1.9031 -1.5808 -1.1912
17119TIP3   OH272847   0.266   3.911  14.866 -0.2884  0.2636  0.0702
17119TIP3    H172848   0.289   3.917  14.959 -0.5405 -3.1730  0.4192
17119TIP3    H272849   0.170   3.920  14.865 -0.0880  2.8283 -0.1736
17120TIP3   OH272850   2.872   4.839   5.266  0.8417 -0.5090  0.2015
17120TIP3    H172851   2.850   4.919   5.219 -1.0175 -1.5321 -0.7462
17120TIP3    H272852   2.961   4.818   5.239  1.3801  1.2561  0.5284
17121TIP3   OH272853   6.268   0.443  15.525  0.5454 -0.0550 -0.0460
17121TIP3    H172854   6.316   0.365  15.556 -0.1145 -0.5234 -0.1937
17121TIP3    H272855   6.210   0.466  15.597  1.1308  0.6356  0.2101
17122TIP3   OH272856   4.728   0.820   2.139 -0.4924 -0.0847 -0.5083
17122TIP3    H172857   4.634   0.836   2.128 -0.7518 -0.2393  1.2232
17122TIP3    H272858   4.732   0.732   2.177  0.3234  0.0980 -0.1666
17123TIP3   OH272859   0.816   1.495  16.613  0.1203  0.6275  0.2126
17123TIP3    H172860   0.884   1.561  16.625  1.7358 -0.8200 -0.5836
17123TIP3    H272861   0.840   1.451  16.531 -1.7881  0.0855 -0.0770
17124TIP3   OH272862   5.132   5.137  15.478 -0.2287  0.0041  0.2139
17124TIP3    H172863   5.184   5.184  15.543 -0.6124  0.8300 -0.0607
17124TIP3    H272864   5.048   5.182  15.478 -0.9440 -1.3232  0.6538
17125TIP3   OH272865   6.619   4.890  11.170  0.7178  0.1803  0.1775
17125TIP3    H172866   6.687   4.835  11.130  1.0195 -0.2910  1.3253
17125TIP3    H272867   6.603   4.958  11.105  1.6551 -0.2134 -0.4838
17126TIP3   OH272868   3.957   1.029   2.507  0.2046  0.3851  0.1543
17126TIP3    H172869   3.892   1.003   2.573  0.2040 -0.9933 -0.3813
17126TIP3    H272870   4.041   1.013   2.548  0.2061  0.2820  0.1107
17127TIP3   OH272871   3.918   4.381  15.971  0.3864  0.0169  0.5213
17127TIP3    H172872   3.868   4.382  16.053  0.2844  0.2411  0.4588
17127TIP3    H272873   3.932   4.474  15.950 -0.6988 -0.0205 -0.3933
17128TIP3   OH272874   2.152   5.879  13.881 -0.7251  0.8455 -0.1405
17128TIP3    H172875   2.196   5.851  13.801 -0.9701 -0.3862  0.1389
17128TIP3    H272876   2.219   5.874  13.948 -0.6748  1.2924 -0.1574
17129TIP3   OH272877   0.732   6.324   1.046  0.5613  0.5556 -0.1175
17129TIP3    H172878   0.735   6.410   1.005 -0.4038 -0.3823 -2.2616
17129TIP3    H272879   0.655   6.326   1.103  0.8823  1.2996  0.2839
17130TIP3   OH272880   6.090   1.896   5.708 -0.5928  0.1363 -0.4492
17130TIP3    H172881   6.068   1.841   5.632 -0.5029 -0.1266 -0.2853
17130TIP3    H272882   6.132   1.835   5.769  0.5040  0.6028 -0.7169
17131TIP3   OH272883   6.617   2.238   0.212 -0.4401 -0.1359  0.2857
17131TIP3    H172884   6.658   2.182   0.277  0.9095  0.8297  0.2946
17131TIP3    H272885   6.678   2.237   0.138 -0.3651  1.3565  0.3149
17132TIP3   OH272886   2.806   0.709  14.168 -0.0425 -0.2574  0.0326
17132TIP3    H172887   2.771   0.686  14.255  1.5307 -1.7736  0.3099
17132TIP3    H272888   2.729   0.731  14.116 -1.0539  0.2403  1.6887
17133TIP3   OH272889   0.066   0.610  16.802 -0.8195  0.1323  0.1845
17133TIP3    H172890   0.127   0.550  16.844  0.6285  1.4251 -0.0388
17133TIP3    H272891   0.072   0.589  16.709 -0.1885  0.7201  0.0880
17134TIP3   OH272892   5.558   4.605  15.150  0.2749  0.0456  0.4835
17134TIP3    H172893   5.600   4.630  15.233 -0.3266 -0.2795  0.8943
17134TIP3    H272894   5.491   4.672  15.136  0.8221  0.4831 -0.0978
17135TIP3   OH272895   0.826   3.495   5.981 -0.3322 -0.4995  0.2362
17135TIP3    H172896   0.763   3.520   6.050 -0.9088 -0.2928 -0.3626
17135TIP3    H272897   0.897   3.451   6.029 -0.5483 -0.0280  1.0106
17136TIP3   OH272898   1.894   5.200  16.325  0.4644  0.2113 -0.1769
17136TIP3    H172899   1.905   5.267  16.258 -1.4384  0.3890 -0.3259
17136TIP3    H272900   1.828   5.236  16.385 -0.7058 -1.5726 -0.3513
17137TIP3   OH272901   4.363   4.642  10.765  0.6506  0.3796 -0.3164
17137TIP3    H172902   4.441   4.684  10.727  1.7725  0.1733  1.6574
17137TIP3    H272903   4.391   4.617  10.853 -1.4206 -0.4445  0.1240
17138TIP3   OH272904   1.486   3.722  13.163  0.3018 -0.0848 -0.8590
17138TIP3    H172905   1.430   3.646  13.176 -1.7476  1.5644  0.3283
17138TIP3    H272906   1.536   3.729  13.244 -0.0048  0.2130 -0.6931
17139TIP3   OH272907   0.363   5.601   1.433 -0.5970  0.2945 -0.2929
17139TIP3    H172908   0.339   5.694   1.438 -1.6155 -0.0387  1.7401
17139TIP3    H272909   0.279   5.555   1.441  0.0425 -0.8147  0.0734
17140TIP3   OH272910   4.774   1.403   2.298 -0.0260  0.3928 -0.5289
17140TIP3    H172911   4.741   1.351   2.225 -1.2063 -1.1091  1.0478
17140TIP3    H272912   4.725   1.485   2.293  0.8695  0.8480 -2.2080
17141TIP3   OH272913   2.808   0.553   5.864 -0.3674 -0.9755 -0.3646
17141TIP3    H172914   2.776   0.471   5.827 -0.1875 -1.8848  1.4370
17141TIP3    H272915   2.900   0.557   5.835 -0.9628 -0.3007 -2.2593
17142TIP3   OH272916   4.202   4.800   2.261  0.2763  0.5013  0.4652
17142TIP3    H172917   4.244   4.796   2.176 -0.2038  2.1006  0.1442
17142TIP3    H272918   4.110   4.820   2.242  0.2080  1.0721  1.3624
17143TIP3   OH272919   1.110   2.630  15.265  0.2289 -0.3428  0.2986
17143TIP3    H172920   1.164   2.709  15.270  0.9557 -0.8996  1.4010
17143TIP3    H272921   1.137   2.577  15.340 -1.0582 -1.1374  0.2206
17144TIP3   OH272922   3.511   4.416  11.323  0.0792  0.4168 -0.8382
17144TIP3    H172923   3.484   4.335  11.278  0.0699 -0.3128  0.4725
17144TIP3    H272924   3.506   4.395  11.416 -0.8650  2.2274 -0.4520
17145TIP3   OH272925   4.395   1.452   4.112  0.0400 -0.1750  0.1408
17145TIP3    H172926   4.313   1.404   4.119  0.0123 -0.3767 -1.3100
17145TIP3    H272927   4.415   1.479   4.201 -2.9800  2.1636  0.1799
17146TIP3   OH272928   6.234   4.730  14.564 -0.1883  0.1926 -0.0723
17146TIP3    H172929   6.258   4.668  14.494  2.3648  1.2365 -0.1943
17146TIP3    H272930   6.237   4.677  14.644  0.2160 -0.2592 -0.3772
17147TIP3   OH272931   6.816   6.742   3.998 -0.3679 -0.1216 -0.3956
17147TIP3    H172932   6.808   6.759   4.092 -0.3648 -2.0511 -0.0129
17147TIP3    H272933   6.901   6.697   3.990  0.1350  1.0054 -1.4770
17148TIP3   OH272934   0.139   5.396   4.373 -0.5443  0.3141 -0.2161
17148TIP3    H172935   0.212   5.444   4.333  0.7761  1.3683  3.2171
17148TIP3    H272936   0.062   5.450   4.356 -0.0816  0.5414 -1.6155
17149TIP3   OH272937   3.035   4.448   3.201  0.1795  0.2493 -0.2658
17149TIP3    H172938   3.077   4.365   3.178 -1.7631 -0.7319 -0.3948
17149TIP3    H272939   3.011   4.487   3.117  0.5102  0.6162 -0.1855
17150TIP3   OH272940   4.693   4.767  12.538  0.0255 -0.4495  0.1796
17150TIP3    H172941   4.604   4.789  12.513 -0.1067 -0.0649  0.9869
17150TIP3    H272942   4.683   4.699  12.605  0.2520  0.9843  1.7265
17151TIP3   OH272943   1.566   3.785   2.342 -0.0045  0.3896 -0.0271
17151TIP3    H172944   1.475   3.774   2.314  0.0684  0.8288 -0.4523
17151TIP3    H272945   1.562   3.788   2.437 -0.4231  0.2782 -0.0400
17152TIP3   OH272946   2.499   4.572   0.255  0.0450 -0.2544  0.0064
17152TIP3    H172947   2.461   4.494   0.296  0.5405  0.5220  1.9864
17152TIP3    H272948   2.561   4.537   0.191  0.6511 -1.5058  1.2485
17153TIP3   OH272949   4.973   6.612  16.925 -0.0422 -0.1348  0.2318
17153TIP3    H172950   5.009   6.671  16.992 -1.7556 -1.4699  2.4376
17153TIP3    H272951   4.946   6.535  16.975 -0.4075 -1.6022 -2.2011
17154TIP3   OH272952   0.652   6.255  16.845  0.4511 -0.5334  0.4092
17154TIP3    H172953   0.645   6.199  16.922 -0.9395 -1.0462 -0.0634
17154TIP3    H272954   0.716   6.322  16.869  0.3005 -0.9029  1.8665
17155TIP3   OH272955   3.552   2.488   6.605 -0.1091 -0.2001 -1.0693
17155TIP3    H172956   3.607   2.413   6.586 -1.0350 -0.9316 -0.8930
17155TIP3    H272957   3.480   2.453   6.657  0.0606  1.0076  0.0200
17156TIP3   OH272958   4.643   4.414  12.578  0.1010 -0.3279 -0.3002
17156TIP3    H172959   4.706   4.391  12.510  0.0956  1.3951 -0.9004
17156TIP3    H272960   4.572   4.350  12.566  1.2335 -1.6026 -0.2963
17157TIP3   OH272961   2.757   0.670  16.521 -0.3582 -0.4929 -0.4505
17157TIP3    H172962   2.853   0.676  16.523 -0.3734 -0.1837  3.7121
17157TIP3    H272963   2.739   0.578  16.539 -0.8518 -0.3748 -0.3454
17158TIP3   OH272964   2.402   1.996   0.186  0.2590  0.0292 -0.3108
17158TIP3    H172965   2.449   2.080   0.181 -1.6569  1.4534  3.6729
17158TIP3    H272966   2.320   2.012   0.139  0.1004  0.2371  0.0363
17159TIP3   OH272967   3.144   1.871  13.287 -0.3301  0.1111 -0.6349
17159TIP3    H172968   3.081   1.941  13.306 -0.4609 -0.2220  0.1765
17159TIP3    H272969   3.200   1.867  13.365 -0.3312 -0.6984 -0.6744
17160TIP3   OH272970   4.210   6.501  12.519 -0.4953 -0.0538  0.5281
17160TIP3    H172971   4.193   6.468  12.431  2.9572  0.5704 -0.4664
17160TIP3    H272972   4.223   6.595  12.508  2.0345 -0.2667  1.3111
17161TIP3   OH272973   3.302   0.802   6.172 -0.4296  0.2866 -0.2369
17161TIP3    H172974   3.223   0.780   6.123 -0.7648 -0.2030  0.5262
17161TIP3    H272975   3.278   0.791   6.264  0.6592 -0.3164 -0.0169
17162TIP3   OH272976   6.405   0.818  14.979 -0.4615 -0.5485  0.4543
17162TIP3    H172977   6.378   0.746  14.922  0.7143 -0.5280 -0.1498
17162TIP3    H272978   6.442   0.775  15.056 -1.1722 -0.5832  0.7759
17163TIP3   OH272979   4.117   3.826  12.124 -0.1882  0.6130 -0.0624
17163TIP3    H172980   4.072   3.867  12.198 -0.3108  0.0295  0.1911
17163TIP3    H272981   4.048   3.776  12.079 -0.0472  0.7128 -0.3902
17164TIP3   OH272982   0.993   5.791   4.332  0.0611  0.5352  0.1938
17164TIP3    H172983   1.075   5.838   4.346 -0.4431  1.3612  0.4551
17164TIP3    H272984   0.962   5.770   4.420 -0.3383  0.8253  0.1259
17165TIP3   OH272985   6.098   6.409   3.299 -0.2917  0.4235 -0.4268
17165TIP3    H172986   6.053   6.401   3.384 -1.9650 -0.8629 -1.4018
17165TIP3    H272987   6.160   6.481   3.312 -1.5315  1.2105  1.4496
17166TIP3   OH272988   0.305   1.504   6.142 -0.1820  0.2348  0.2968
17166TIP3    H172989   0.249   1.477   6.215 -0.4547  1.2100  0.4632
17166TIP3    H272990   0.390   1.465   6.161 -1.0639 -2.1682 -0.5110
17167TIP3   OH272991   3.664   2.253  11.632  0.6784 -0.6170 -0.0575
17167TIP3    H172992   3.743   2.199  11.626  0.7018 -0.4791 -1.0449
17167TIP3    H272993   3.683   2.329  11.578 -0.4832 -1.0153 -1.0558
17168TIP3   OH272994   3.138   0.658  14.791  0.8321  0.0687 -0.0756
17168TIP3    H172995   3.112   0.575  14.751 -1.1941  0.5141  0.2584
17168TIP3    H272996   3.215   0.637  14.844  0.0834 -1.6938  0.3312
17169TIP3   OH272997   2.145   5.896  12.587 -0.0708  0.6223  0.8586
17169TIP3    H172998   2.114   5.871  12.501 -0.1373 -0.0040  1.0667
17169TIP3    H272999   2.166   5.814  12.631 -3.5227  0.6421  2.7691
17170TIP3   OH273000   2.426   4.560  14.965 -0.4239 -0.3221 -0.0705
17170TIP3    H173001   2.382   4.505  14.901 -0.0672  0.4849 -1.0303
17170TIP3    H273002   2.505   4.590  14.920 -1.7947  2.9004 -0.4605
17171TIP3   OH273003   4.399   2.436  13.853  0.6752  0.2982  0.4831
17171TIP3    H173004   4.363   2.348  13.845  0.3970  0.4432  0.1085
17171TIP3    H273005   4.468   2.428  13.919  0.5339 -0.1622  0.5765
17172TIP3   OH273006   6.146   0.099  13.082  0.2650 -0.5170  0.5080
17172TIP3    H173007   6.091   0.026  13.111 -1.2889  0.1791 -0.5871
17172TIP3    H273008   6.216   0.057  13.031  0.4718 -1.3784  1.4901
17173TIP3   OH273009   0.565   5.818  16.052  0.4833  0.2567  0.0974
17173TIP3    H173010   0.508   5.761  16.000  0.1730  0.6961 -0.0451
17173TIP3    H273011   0.614   5.758  16.108  1.7203 -0.3310 -1.5707
17174TIP3   OH273012   3.613   3.575  13.438 -0.3052 -0.0614  0.6492
17174TIP3    H173013   3.532   3.573  13.388 -1.9186  2.0584  3.0483
17174TIP3    H273014   3.656   3.656  13.412  0.8312 -0.9686 -0.3009
17175TIP3   OH273015   4.484   4.259  14.820  0.4217 -0.0075 -0.0166
17175TIP3    H173016   4.391   4.246  14.801  0.8967 -0.4137 -2.1474
17175TIP3    H273017   4.503   4.348  14.788  0.9262 -0.2040 -0.2737
17176TIP3   OH273018   4.309   2.360   4.994 -0.4225 -0.2316  0.1605
17176TIP3    H173019   4.382   2.419   4.976  0.9468 -2.1666 -0.6810
17176TIP3    H273020   4.277   2.333   4.908  0.6172 -2.7349  0.5286
17177TIP3   OH273021   2.397   0.226   1.366 -0.3217 -0.0738  0.2802
17177TIP3    H173022   2.352   0.186   1.292 -0.2108  1.1560 -0.4642
17177TIP3    H273023   2.464   0.282   1.326 -0.8561  1.3034  1.2867
17178TIP3   OH273024   3.651   3.081  12.711  0.0311 -0.1827  0.0916
17178TIP3    H173025   3.606   3.089  12.795 -0.6106  0.4969 -0.3178
17178TIP3    H273026   3.584   3.051  12.650  0.6850 -1.4886 -0.0182
17179TIP3   OH273027   0.009   5.439   3.831  0.3655 -0.6107 -0.0413
17179TIP3    H173028   0.027   5.375   3.900 -0.8474 -0.3244  0.5580
17179TIP3    H273029   0.091   5.485   3.818  0.5151 -0.4370  1.4576
17180TIP3   OH273030   2.548   3.959   0.838  0.2611  0.4045 -0.5303
17180TIP3    H173031   2.620   4.012   0.805  1.3851 -0.6579  0.1739
17180TIP3    H273032   2.533   3.893   0.770  0.1788  0.4138 -0.5215
17181TIP3   OH273033   5.521   4.433  11.542 -0.1768  0.2967 -0.1185
17181TIP3    H173034   5.580   4.405  11.613 -0.3118  0.0850 -0.0902
17181TIP3    H273035   5.520   4.359  11.482  0.1536  0.5849 -0.4799
17182TIP3   OH273036   3.600   5.377   4.157 -0.5046 -0.1076 -0.1842
17182TIP3    H173037   3.691   5.348   4.151 -0.6720 -0.2558 -2.4598
17182TIP3    H273038   3.606   5.471   4.177  0.2270  0.2958 -2.1193
17183TIP3   OH273039   1.390   3.455  11.699 -0.1998 -0.1803 -0.1605
17183TIP3    H173040   1.343   3.411  11.628 -2.7536 -0.3138  1.5817
17183TIP3    H273041   1.342   3.536  11.713  2.1498  1.3470 -0.6524
17184TIP3   OH273042   0.064   0.483  12.523  0.2214 -0.1081 -0.4188
17184TIP3    H173043   0.119   0.423  12.474 -0.0943 -0.9155  0.2189
17184TIP3    H273044   0.124   0.552  12.553  0.9432 -1.1648  0.5707
17185TIP3   OH273045   1.075   5.489   0.324 -0.5453 -0.1376 -0.0189
17185TIP3    H173046   1.082   5.398   0.351  0.6921  0.1365  0.5929
17185TIP3    H273047   0.981   5.509   0.330 -0.4475 -0.3960  3.0755
17186TIP3   OH273048   5.617   0.251  13.987  0.6519  0.3224 -0.3871
17186TIP3    H173049   5.653   0.326  14.034  0.0996 -0.1355  0.7776
17186TIP3    H273050   5.674   0.178  14.011  0.6772  0.1874 -0.8445
17187TIP3   OH273051   4.717   4.173   1.892  0.1062  0.0165  0.5303
17187TIP3    H173052   4.806   4.145   1.872 -1.3092 -2.9171 -2.1146
17187TIP3    H273053   4.697   4.128   1.974  0.7749  0.0660  0.7279
17188TIP3   OH273054   3.944   0.812  16.421  0.2013  0.1515  0.2712
17188TIP3    H173055   3.852   0.811  16.447 -1.0211  2.0259 -3.5461
17188TIP3    H273056   3.979   0.893  16.458 -0.1574  0.2666  0.3654
17189TIP3   OH273057   4.666   0.668   2.413 -0.2154 -0.2392  0.1827
17189TIP3    H173058   4.756   0.679   2.445  0.0448 -2.0431  0.1301
17189TIP3    H273059   4.676   0.622   2.329 -1.2500 -2.0716  1.0374
17190TIP3   OH273060   6.304   5.793  13.238 -0.0181 -0.2002 -0.2903
17190TIP3    H173061   6.272   5.772  13.150 -0.4452 -2.2157  0.3147
17190TIP3    H273062   6.240   5.754  13.297  1.6670 -1.1778  0.9268
17191TIP3   OH273063   5.192   0.581  14.259  0.8217  0.2025  0.7737
17191TIP3    H173064   5.168   0.617  14.174 -1.9180  0.0917  1.4693
17191TIP3    H273065   5.176   0.487  14.251  2.6438 -0.1359  0.7576
17192TIP3   OH273066   3.808   3.698   6.353  0.0348  0.3214 -0.0354
17192TIP3    H173067   3.869   3.646   6.301  2.0020  1.0467  1.4529
17192TIP3    H273068   3.827   3.789   6.328  0.1368  0.5962  1.0187
17193TIP3   OH273069   0.520   6.154  10.976 -0.0248 -0.2507  0.8083
17193TIP3    H173070   0.494   6.172  10.886 -1.7990 -2.5264  0.8095
17193TIP3    H273071   0.609   6.186  10.983 -0.7524  2.2784 -1.0116
17194TIP3   OH273072   1.761   6.567   2.283 -0.1822  0.6047 -0.4791
17194TIP3    H173073   1.752   6.657   2.251  0.3354  0.6810 -0.4045
17194TIP3    H273074   1.673   6.529   2.273 -0.0613  0.6709 -1.8256
17195TIP3   OH273075   0.018   5.446  16.467 -0.2293 -0.1409 -0.1624
17195TIP3    H173076  -0.071   5.411  16.465  0.8497 -3.0476  0.7271
17195TIP3    H273077   0.060   5.408  16.390  0.1170  1.7285 -0.9385
17196TIP3   OH273078   5.287   6.161   4.552 -0.4219  0.5408  0.1247
17196TIP3    H173079   5.204   6.183   4.595 -0.2570 -0.0552  0.7693
17196TIP3    H273080   5.265   6.153   4.460 -0.8303  1.6416  0.1149
17197TIP3   OH273081   2.460   3.370   4.745 -0.3760 -0.2019  1.3138
17197TIP3    H173082   2.406   3.353   4.822  0.0412  0.8316  1.8404
17197TIP3    H273083   2.425   3.451   4.708 -0.5150 -0.6449  0.4578
17198TIP3   OH273084   1.399   3.081   1.770 -0.4601  0.2967  0.5829
17198TIP3    H173085   1.337   3.008   1.770 -1.9099  1.5195  0.2201
17198TIP3    H273086   1.451   3.068   1.690 -1.0361 -0.0635  0.2615
17199TIP3   OH273087   3.236   0.202   0.907  0.3355 -0.2760  0.3528
17199TIP3    H173088   3.164   0.261   0.930  1.3103  0.0893  2.6029
17199TIP3    H273089   3.275   0.242   0.829 -0.5643  0.6696  0.3722
17200TIP3   OH273090   4.998   1.678   2.191 -0.3598 -0.5647 -0.5098
17200TIP3    H173091   5.034   1.620   2.258  0.5701  0.0155 -0.5120
17200TIP3    H273092   5.073   1.727   2.158 -1.2492  1.1336 -0.0402
17201TIP3   OH273093   0.192   3.097  11.273  0.0757 -0.3493  0.0841
17201TIP3    H173094   0.108   3.141  11.286  0.1044 -0.5311  0.9119
17201TIP3    H273095   0.237   3.107  11.357  1.9572  2.0552 -1.1455
17202TIP3   OH273096   1.759   4.992   5.045  0.8631  0.3242  0.2936
17202TIP3    H173097   1.798   4.985   4.958  0.1587  0.1705 -0.0180
17202TIP3    H273098   1.668   4.964   5.033  0.6671  0.6232  1.0141
17203TIP3   OH273099   0.952   4.698  13.459 -0.2757  0.4803 -0.3383
17203TIP3    H173100   0.953   4.774  13.401  0.5566  0.0367 -0.9197
17203TIP3    H273101   0.946   4.623  13.400  2.4305 -0.0742  0.0266
17204TIP3   OH273102   5.309   4.861  17.128  0.9947 -0.1380 -0.2071
17204TIP3    H173103   5.303   4.782  17.074  0.5816 -0.9501  1.0109
17204TIP3    H273104   5.380   4.843  17.189  0.7326  0.3451  0.2416
17205TIP3   OH273105   6.376   2.993   3.712 -0.2516  0.0513  0.3230
17205TIP3    H173106   6.468   2.969   3.699 -0.5858 -1.9923  1.5772
17205TIP3    H273107   6.341   2.926   3.770 -1.9179  2.2071  1.8976
17206TIP3   OH273108   3.912   3.441  15.451  0.1750 -0.2773  0.5775
17206TIP3    H173109   3.825   3.477  15.470  0.0928  0.0554 -0.3999
17206TIP3    H273110   3.960   3.513  15.412  0.4087 -0.8765 -0.2505
17207TIP3   OH273111   0.233   0.896  11.789 -0.6878  0.3092 -1.0072
17207TIP3    H173112   0.281   0.828  11.742  0.8546  1.1600 -0.7007
17207TIP3    H273113   0.261   0.887  11.880 -2.2661 -0.1562 -0.5699
17208TIP3   OH273114   2.419   5.613   4.768  0.2809  0.1582  0.6103
17208TIP3    H173115   2.387   5.696   4.732  1.3777 -0.1055 -1.0162
17208TIP3    H273116   2.353   5.549   4.742 -1.2627  0.6957  3.0115
17209TIP3   OH273117   0.692   3.521   4.473 -0.0759 -0.3503 -0.3584
17209TIP3    H173118   0.672   3.430   4.494  0.8964 -0.7568 -1.1406
17209TIP3    H273119   0.687   3.567   4.557 -1.1506 -1.0081 -0.0519
17210TIP3   OH273120   5.464   4.296   5.284 -0.2115 -0.4246 -0.0673
17210TIP3    H173121   5.382   4.247   5.282  0.0847 -1.0178  1.5738
17210TIP3    H273122   5.491   4.294   5.376  1.0823  0.6895 -0.4093
17211TIP3   OH273123   6.676   1.248   2.892 -0.0843  0.2894  0.0552
17211TIP3    H173124   6.618   1.324   2.882 -1.0542 -0.4672 -0.0254
17211TIP3    H273125   6.737   1.275   2.961  0.0569  1.4417 -0.4962
17212TIP3   OH273126   6.501   6.579  16.488  0.5752  0.1547 -0.1504
17212TIP3    H173127   6.587   6.573  16.446  1.8826  0.3482  2.4512
17212TIP3    H273128   6.491   6.496  16.534  0.2471  0.9360  1.1965
17213TIP3   OH273129   3.873   4.068   4.415 -0.3940 -0.4571 -0.3205
17213TIP3    H173130   3.949   4.097   4.364 -0.2592 -1.2373 -0.5788
17213TIP3    H273131   3.842   4.146   4.459  0.4551 -0.0928 -0.3629
17214TIP3   OH273132   5.927   2.010   3.291 -0.2164 -0.1436 -0.0168
17214TIP3    H173133   6.004   2.067   3.288 -0.1401 -0.2183  0.3723
17214TIP3    H273134   5.854   2.065   3.263 -0.0185 -0.0764 -0.4043
17215TIP3   OH273135   0.646   6.160   1.812  0.6287  0.4436 -0.2377
17215TIP3    H173136   0.555   6.187   1.801  0.7638  1.0540  0.1045
17215TIP3    H273137   0.670   6.192   1.899  1.3254  0.7272 -0.5318
17216TIP3   OH273138   2.651   5.465   4.797  0.7333 -0.3780  0.5331
17216TIP3    H173139   2.559   5.481   4.817  0.2096 -0.9146 -1.3424
17216TIP3    H273140   2.690   5.552   4.790 -0.2527 -0.0403 -1.3324
17217TIP3   OH273141   1.204   0.913   1.156 -0.1126  0.5103  0.1078
17217TIP3    H173142   1.231   0.883   1.243  1.8221  1.1406 -0.2482
17217TIP3    H273143   1.287   0.932   1.111 -1.1579  2.8360 -0.9188
17218TIP3   OH273144   5.008   2.221  10.660 -0.0038 -0.4636  0.2233
17218TIP3    H173145   5.014   2.190  10.569 -0.0149 -0.0953  0.0966
17218TIP3    H273146   5.048   2.151  10.711 -0.2705 -0.8106 -0.0374
17219TIP3   OH273147   6.345   6.523  11.561 -0.2321  0.3101  0.7455
17219TIP3    H173148   6.339   6.430  11.581  1.9400  0.4592  2.2446
17219TIP3    H273149   6.254   6.555  11.567 -1.2792 -1.9990 -1.5789
17220TIP3   OH273150   5.281   2.471  17.205  0.5157 -0.4100  0.3097
17220TIP3    H173151   5.298   2.428  17.121 -1.2676 -0.0052 -0.2661
17220TIP3    H273152   5.228   2.408  17.254 -0.7805  0.4682  0.0632
17221TIP3   OH273153   1.151   6.451  12.124  0.5795 -0.4148 -0.0612
17221TIP3    H173154   1.082   6.404  12.170 -1.2738  1.8621 -0.4175
17221TIP3    H273155   1.161   6.404  12.041  1.4632 -2.4031  1.1208
17222TIP3   OH273156   3.874   6.102   2.543  0.2015 -0.1215  0.5160
17222TIP3    H173157   3.884   6.162   2.469  0.5256  0.7466  1.2618
17222TIP3    H273158   3.790   6.059   2.527  0.5634 -0.4146 -0.6925
17223TIP3   OH273159   0.644   3.975   6.029  0.2202  0.4377 -0.3208
17223TIP3    H173160   0.726   3.930   6.051 -0.6696 -1.1181 -0.1078
17223TIP3    H273161   0.671   4.048   5.974  1.6604 -0.6417 -1.0756
17224TIP3   OH273162   3.610   2.007   0.236 -0.1320 -0.1973  0.1652
17224TIP3    H173163   3.569   1.961   0.309 -2.5270  1.1912 -0.2477
17224TIP3    H273164   3.550   2.079   0.216  0.5031 -0.4804 -3.0813
17225TIP3   OH273165   0.157   3.977   5.898 -0.0082  0.2665 -0.0852
17225TIP3    H173166   0.111   3.963   5.980 -0.0175  0.7320 -0.0089
17225TIP3    H273167   0.235   4.028   5.922  1.2522 -1.6379 -0.0142
17226TIP3   OH273168   2.569   0.980  11.816  0.0047 -0.6150 -0.5214
17226TIP3    H173169   2.587   1.015  11.729 -0.3241  0.3484 -0.2137
17226TIP3    H273170   2.655   0.969  11.857  0.1491 -0.9030 -0.9073
17227TIP3   OH273171   4.691   3.503  15.252  0.4411  0.0352  0.3943
17227TIP3    H173172   4.677   3.420  15.207  0.9168  0.4696 -0.5535
17227TIP3    H273173   4.649   3.568  15.196 -1.0692  0.2866  1.7828
17228TIP3   OH273174   0.502   2.968   0.989 -0.2719  0.5972  0.3271
17228TIP3    H173175   0.542   2.955   1.075 -1.5830 -0.1929  0.8344
17228TIP3    H273176   0.432   2.903   0.985  0.6654 -0.3447 -1.9165
17229TIP3   OH273177   2.434   4.628   5.371 -0.3765  0.2841 -0.2217
17229TIP3    H173178   2.378   4.585   5.307 -0.4946  2.1173 -1.3741
17229TIP3    H273179   2.521   4.626   5.332  0.1069 -1.1460  0.8670
17230TIP3   OH273180   3.489   4.344  10.785 -0.1459  0.4889 -0.0991
17230TIP3    H173181   3.428   4.413  10.758  0.1710  1.2930  1.1897
17230TIP3    H273182   3.505   4.362  10.877 -1.4341 -2.3771  0.7091
17231TIP3   OH273183   0.002   5.728   1.306 -0.7365 -0.2898  0.3544
17231TIP3    H173184   0.018   5.730   1.400  1.8049 -2.9667  0.0430
17231TIP3    H273185   0.071   5.783   1.269 -0.5801 -0.7566 -0.0582
17232TIP3   OH273186   2.144   5.369  14.538 -0.3809  0.0162 -0.0246
17232TIP3    H173187   2.174   5.296  14.485  0.0337 -0.6230  1.0812
17232TIP3    H273188   2.224   5.410  14.570 -0.6381 -0.7050  1.5934
17233TIP3   OH273189   1.596   2.838  11.850 -0.1782  0.1393  0.0967
17233TIP3    H173190   1.647   2.759  11.869 -0.4857 -0.1420 -0.2348
17233TIP3    H273191   1.650   2.910  11.883  0.2874 -0.1783  0.0351
17234TIP3   OH273192   5.793   6.178  10.603 -0.1115  0.5281 -0.4024
17234TIP3    H173193   5.709   6.144  10.636 -0.3503 -0.3031 -1.8027
17234TIP3    H273194   5.838   6.100  10.569  2.4865  0.4783  2.9106
17235TIP3   OH273195   5.940   4.011   1.813 -0.7764  0.0511  0.3578
17235TIP3    H173196   5.862   3.956   1.813  0.2240 -1.4644 -2.2299
17235TIP3    H273197   5.917   4.085   1.756 -0.3860 -0.2963 -0.2497
17236TIP3   OH273198   1.094   1.024  15.460 -0.3820  0.3220  0.3318
17236TIP3    H173199   1.000   1.013  15.466 -0.3925 -0.7527 -1.4837
17236TIP3    H273200   1.130   0.936  15.473  0.4467  0.9061  2.1615
17237TIP3   OH273201   4.586   0.480  12.275 -0.7829 -0.4355 -0.4683
17237TIP3    H173202   4.528   0.556  12.269 -0.8703 -0.3739  0.8849
17237TIP3    H273203   4.638   0.483  12.195 -1.9483  0.0857 -1.2161
17238TIP3   OH273204   2.733   3.454   2.739 -0.5772  0.3542 -0.0655
17238TIP3    H173205   2.762   3.544   2.753  1.3165 -0.0288 -1.3610
17238TIP3    H273206   2.811   3.400   2.754 -0.7648 -0.7622 -2.7333
17239TIP3   OH273207   1.770   3.225   6.542 -0.4053  0.0584 -0.4206
17239TIP3    H173208   1.786   3.309   6.498 -0.5365  0.0955 -0.3962
17239TIP3    H273209   1.675   3.214   6.540 -0.5540  0.9280  1.4609
17240TIP3   OH273210   0.543   0.971  12.062 -0.0183  0.0046 -0.7235
17240TIP3    H173211   0.504   1.050  12.025 -0.3166 -0.6397 -1.7918
17240TIP3    H273212   0.469   0.917  12.090  0.2013  0.5068  0.8821
17241TIP3   OH273213   2.209   2.000  13.806 -0.0798  0.4110  0.2539
17241TIP3    H173214   2.300   2.015  13.780 -0.2829 -0.4092 -0.9926
17241TIP3    H273215   2.214   1.938  13.878  0.3486  0.3571  0.1768
17242TIP3   OH273216   3.976   2.535  13.446 -0.3876 -0.1062  0.2985
17242TIP3    H173217   3.888   2.509  13.473 -0.9858  0.3783 -1.1823
17242TIP3    H273218   4.018   2.563  13.527 -0.8224 -2.4859  1.4130
17243TIP3   OH273219   4.104   2.831   1.586 -0.3116  0.3350 -0.5366
17243TIP3    H173220   4.077   2.778   1.661  2.6984 -1.0850 -0.3526
17243TIP3    H273221   4.069   2.785   1.510 -1.5651  0.6065 -0.1372
17244TIP3   OH273222   1.313   5.656   6.695 -0.5423  0.2076  0.1509
17244TIP3    H173223   1.401   5.632   6.726 -0.9041  0.8764  1.7178
17244TIP3    H273224   1.280   5.576   6.655  0.6383 -0.1631 -0.1199
17245TIP3   OH273225   5.113   1.196   4.138 -0.2719 -0.0876  0.0393
17245TIP3    H173226   5.174   1.134   4.178  0.1808 -0.3304 -0.9976
17245TIP3    H273227   5.132   1.280   4.181  1.6820  0.1198 -1.1381
17246TIP3   OH273228   1.024   6.518   3.175  0.4757  0.1334  0.1271
17246TIP3    H173229   0.934   6.522   3.141  0.3633  0.4071  0.4383
17246TIP3    H273230   1.027   6.437   3.225  0.1499  0.5176  0.7833
17247TIP3   OH273231   1.492   5.753   2.664  0.2690 -0.1881  0.1146
17247TIP3    H173232   1.520   5.662   2.657 -0.4178 -0.4337  0.4963
17247TIP3    H273233   1.409   5.749   2.712  0.3769  0.6609  0.3823
17248TIP3   OH273234   2.890   4.890  16.836 -0.8254  0.1429  0.3375
17248TIP3    H173235   2.813   4.928  16.793 -2.3596 -1.0008  1.9555
17248TIP3    H273236   2.879   4.915  16.928  1.1980  0.6587  0.4475
17249TIP3   OH273237   4.857   1.529   2.586  0.3931 -0.5666 -0.5151
17249TIP3    H173238   4.914   1.592   2.541 -1.1060  0.0414 -1.5716
17249TIP3    H273239   4.887   1.443   2.556  1.6476 -0.3260  0.0026
17250TIP3   OH273240   0.950   0.694   5.466 -0.0780 -0.0304  0.3471
17250TIP3    H173241   1.030   0.647   5.441 -0.0962 -1.2177  2.4099
17250TIP3    H273242   0.914   0.726   5.383  1.4187 -1.2977 -0.8205
17251TIP3   OH273243   0.246   3.973  10.533  0.2315 -0.0994  0.1899
17251TIP3    H173244   0.244   3.891  10.583  1.3284  0.5088  1.2513
17251TIP3    H273245   0.155   3.989  10.509 -0.2027 -0.7878  1.3640
17252TIP3   OH273246   2.725   3.678  15.658 -0.1089 -0.3451  0.3290
17252TIP3    H173247   2.657   3.732  15.616  0.0155 -0.4162  0.0311
17252TIP3    H273248   2.766   3.631  15.585  0.9184  0.4357  0.3831
17253TIP3   OH273249   6.167   1.911   4.358 -0.1749 -0.0576  0.4081
17253TIP3    H173250   6.146   1.921   4.451 -0.6474 -0.5593  0.3575
17253TIP3    H273251   6.087   1.937   4.312 -0.1074 -0.2890  0.1572
17254TIP3   OH273252   6.686   0.095   2.414  0.4954 -0.3521  0.0554
17254TIP3    H173253   6.687   0.118   2.507  0.0462  0.9945 -0.2680
17254TIP3    H273254   6.651   0.172   2.371  1.3381 -0.7312 -1.3105
17255TIP3   OH273255   3.704   3.701  12.478 -0.6089  0.0788  0.0751
17255TIP3    H173256   3.747   3.642  12.539 -0.9387  0.0672  0.2978
17255TIP3    H273257   3.667   3.643  12.411  1.2917  0.1962 -1.1372
17256TIP3   OH273258   5.021   0.007   1.471 -0.0300  0.2889 -0.1768
17256TIP3    H173259   5.039   0.097   1.442 -3.6628  1.8894  2.0972
17256TIP3    H273260   4.937  -0.014   1.430  0.1864 -1.5796  0.3282
17257TIP3   OH273261   4.527   1.767   6.493  0.5154  0.0492  0.0993
17257TIP3    H173262   4.462   1.834   6.516 -0.7429 -1.3784  0.7480
17257TIP3    H273263   4.503   1.691   6.545  2.3727 -0.6981 -0.1000
17258TIP3   OH273264   2.468   3.842   1.069 -0.0969  0.3542  0.2018
17258TIP3    H173265   2.531   3.770   1.073 -0.5370 -0.0449 -0.0062
17258TIP3    H273266   2.497   3.897   0.996  0.2803  0.4270  0.4082
17259TIP3   OH273267   6.089   1.463  11.667 -0.7406 -0.1778 -0.0594
17259TIP3    H173268   6.165   1.487  11.615 -0.7772  0.9022  0.3673
17259TIP3    H273269   6.075   1.370  11.649  0.4403 -0.2828 -0.4313
17260TIP3   OH273270   0.866   0.255   1.887  0.0425 -0.4796 -0.5823
17260TIP3    H173271   0.829   0.180   1.842  1.0179 -0.4017 -1.5204
17260TIP3    H273272   0.865   0.326   1.822 -1.4748  0.5157  0.4839
17261TIP3   OH273273   5.858   2.759  15.111  0.1486 -0.0828  0.4938
17261TIP3    H173274   5.783   2.702  15.094  0.0454  0.7022 -1.9624
17261TIP3    H273275   5.920   2.705  15.160 -0.5143 -1.8754 -0.5961
17262TIP3   OH273276   5.242   5.226  14.414 -0.0546  0.4709  0.0656
17262TIP3    H173277   5.235   5.306  14.361  0.7143 -0.9621 -2.2408
17262TIP3    H273278   5.157   5.183  14.403  0.8492 -0.9114 -1.8419
17263TIP3   OH273279   4.962   4.857   6.519 -0.2919 -0.4138 -0.5604
17263TIP3    H173280   4.995   4.936   6.475  0.1587 -0.0921  0.3370
17263TIP3    H273281   4.994   4.785   6.464  2.2629 -0.1234  0.4628
17264TIP3   OH273282   2.121   2.122  13.067 -0.5936  0.2560 -0.2682
17264TIP3    H173283   2.100   2.201  13.017  0.0410 -0.8191 -2.2918
17264TIP3    H273284   2.199   2.145  13.116 -0.8846  1.1435 -0.1991
17265TIP3   OH273285   5.542   4.350   5.535  0.5934 -0.2686  0.0745
17265TIP3    H173286   5.629   4.389   5.526  0.0403  0.6934 -1.3344
17265TIP3    H273287   5.531   4.336   5.629  1.6477  1.0574  0.4066
17266TIP3   OH273288   1.464   0.261   6.519  0.4038  0.3794 -0.1274
17266TIP3    H173289   1.530   0.312   6.472  1.9370  0.2150  1.7373
17266TIP3    H273290   1.484   0.170   6.498  0.3694  0.3638 -0.0927
17267TIP3   OH273291   6.819   4.190  15.862  0.3423  0.3666  0.3939
17267TIP3    H173292   6.759   4.177  15.936  1.1287  1.3991  1.2220
17267TIP3    H273293   6.902   4.153  15.891 -0.0194 -1.6312 -0.9903
17268TIP3   OH273294   0.318   4.539   1.826 -0.2726  0.3889  0.6201
17268TIP3    H173295   0.270   4.619   1.806  1.6646  1.5497  0.5921
17268TIP3    H273296   0.381   4.530   1.754 -2.3768 -2.7570 -1.0131
17269TIP3   OH273297   4.991   2.771  11.239  0.3045 -0.3315  0.4313
17269TIP3    H173298   4.992   2.862  11.268  1.8798 -0.0846 -0.3133
17269TIP3    H273299   5.082   2.753  11.213  0.0374 -2.1525  0.6895
17270TIP3   OH273300   4.845   1.386  13.324 -0.1994 -0.1028 -0.1067
17270TIP3    H173301   4.884   1.306  13.289  0.8606  0.0595  0.6873
17270TIP3    H273302   4.751   1.374  13.312 -0.0641 -1.5701  0.1983
17271TIP3   OH273303   0.641   3.218   2.573  0.3506 -0.1086  0.8922
17271TIP3    H173304   0.646   3.276   2.649 -0.1655  0.0806  0.7872
17271TIP3    H273305   0.587   3.265   2.510  2.7510  0.7640 -0.5506
17272TIP3   OH273306   0.725   4.026  16.836 -0.7746 -0.0329  0.0573
17272TIP3    H173307   0.738   4.121  16.833  1.3555 -0.2093  2.3865
17272TIP3    H273308   0.636   4.014  16.803 -1.2282  2.8108  0.0631
17273TIP3   OH273309   4.484   0.521   5.009  0.0627 -0.0608 -0.2549
17273TIP3    H173310   4.537   0.527   5.089 -2.7451 -0.9041  1.7819
17273TIP3    H273311   4.543   0.547   4.939  2.4153  1.5128  2.1846
17274TIP3   OH273312   6.729   4.679  16.604  0.5786 -0.1879  0.2600
17274TIP3    H173313   6.794   4.708  16.669  0.2249  0.9161  0.1187
17274TIP3    H273314   6.645   4.701  16.643  0.4095  2.3228 -1.4453
17275TIP3   OH273315   5.264   1.313  12.058  0.1583  0.0053  0.0133
17275TIP3    H173316   5.291   1.384  12.115 -0.7477 -1.0989  1.8535
17275TIP3    H273317   5.280   1.233  12.109  0.6398 -1.1045 -1.7958
17276TIP3   OH273318   1.692   2.139   0.016  0.3411  0.1715  0.0238
17276TIP3    H173319   1.626   2.070   0.016  1.5664 -1.0481  1.2232
17276TIP3    H273320   1.707   2.158   0.109  1.7331  0.3726 -0.2285
17277TIP3   OH273321   6.057   6.580  15.746 -0.1381 -0.4946  0.2163
17277TIP3    H173322   5.981   6.523  15.751 -1.0852  0.6109 -1.1101
17277TIP3    H273323   6.040   6.637  15.671  2.9152 -1.5688 -1.4068
17278TIP3   OH273324   3.771   2.145   5.408 -0.1257 -0.6138 -0.0871
17278TIP3    H173325   3.817   2.098   5.478 -1.0711 -1.0726  0.2322
17278TIP3    H273326   3.678   2.135   5.429 -0.3360  1.7744  0.2331
17279TIP3   OH273327   4.926   0.906   5.396 -0.8815 -0.3813  0.1665
17279TIP3    H173328   4.851   0.950   5.355 -0.8692 -0.9502 -0.4880
17279TIP3    H273329   4.998   0.918   5.335 -0.8023 -1.0384  0.1212
17280TIP3   OH273330   1.936   1.332  14.660 -0.2548 -0.3246 -0.4790
17280TIP3    H173331   1.893   1.388  14.595  0.0233 -1.1766 -1.3900
17280TIP3    H273332   1.868   1.317  14.726 -1.0699 -0.8740 -1.4293
17281TIP3   OH273333   5.091   2.681   5.945 -0.0465 -0.2690 -0.5861
17281TIP3    H173334   5.132   2.600   5.976 -0.8181 -0.9709 -1.3695
17281TIP3    H273335   5.068   2.663   5.854  0.0013  0.9257 -0.8379
17282TIP3   OH273336   3.762   2.305   3.874  0.4990 -0.4506 -0.1916
17282TIP3    H173337   3.782   2.308   3.967  3.6909 -2.8014 -0.7245
17282TIP3    H273338   3.671   2.276   3.869 -0.1639  1.0994  2.1685
17283TIP3   OH273339   5.333   0.462  15.469  0.2238  0.0260 -0.3955
17283TIP3    H173340   5.247   0.425  15.489  1.1621 -0.7330  2.4977
17283TIP3    H273341   5.327   0.554  15.495  1.0421 -0.6497  2.3222
17284TIP3   OH273342   4.301   4.013  16.598 -0.1612  0.3864 -0.3788
17284TIP3    H173343   4.251   4.035  16.519 -1.7199  0.1315  0.5107
17284TIP3    H273344   4.312   4.097  16.643  0.7023  0.5279 -0.8561
17285TIP3   OH273345   3.356   5.150   0.065  0.0600 -0.2168 -0.2686
17285TIP3    H173346   3.382   5.114  -0.019 -0.8158 -1.5372  0.0121
17285TIP3    H273347   3.439   5.167   0.111  0.5684  1.4960 -1.7659
17286TIP3   OH273348   0.403   2.011   0.043 -0.0106  0.4487 -0.1730
17286TIP3    H173349   0.390   2.097   0.083  0.6768  0.8625 -0.8482
17286TIP3    H273350   0.498   1.999   0.041 -0.0108  0.6598 -2.1780
17287TIP3   OH273351   2.916   2.896  11.788 -0.2208  0.5998  0.2524
17287TIP3    H173352   2.850   2.882  11.720 -1.8617  2.6381  1.3923
17287TIP3    H273353   2.967   2.972  11.757  0.5567  0.0542  0.1695
17288TIP3   OH273354   1.645   2.153   6.167 -0.5225 -0.2381  1.0354
17288TIP3    H173355   1.709   2.083   6.150  0.2767  0.4907  0.9980
17288TIP3    H273356   1.648   2.165   6.262 -0.5805 -0.1910  1.0309
17289TIP3   OH273357   6.149   3.350  12.565  0.1178  0.3139 -0.3091
17289TIP3    H173358   6.085   3.333  12.633  0.0217 -1.5722 -0.8270
17289TIP3    H273359   6.103   3.401  12.500 -0.6806 -0.4749 -0.3710
17290TIP3   OH273360   6.131   6.016  12.462 -0.1092 -0.0878 -0.4145
17290TIP3    H173361   6.121   6.093  12.406 -0.6904 -0.0773 -0.3069
17290TIP3    H273362   6.221   6.020  12.494 -0.3608  0.9753  0.1982
17291TIP3   OH273363   0.463   3.534  13.872  0.2448  0.0949  0.3232
17291TIP3    H173364   0.544   3.550  13.823 -0.3211  1.5097 -0.1769
17291TIP3    H273365   0.396   3.586  13.826 -1.0158 -1.3111  0.5389
17292TIP3   OH273366   2.975   0.165  11.231  0.1830 -0.0689  0.0537
17292TIP3    H173367   2.962   0.205  11.317  0.5664  0.5278 -0.1653
17292TIP3    H273368   2.923   0.218  11.172 -1.5188 -1.5324  0.1741
17293TIP3   OH273369   5.402   2.867  15.313 -0.0404 -0.3580  0.6313
17293TIP3    H173370   5.370   2.782  15.343 -0.4052 -0.3493  0.2808
17293TIP3    H273371   5.479   2.885  15.367  2.4415 -2.7643 -1.9518
17294TIP3   OH273372   1.318   6.664  13.506  0.1519  0.0075 -0.1498
17294TIP3    H173373   1.398   6.692  13.462  1.5427 -0.8070  1.7659
17294TIP3    H273374   1.322   6.568  13.504 -1.0537 -0.0436 -0.5162
17295TIP3   OH273375   5.619   5.130   1.018 -0.2399 -0.5368 -0.7951
17295TIP3    H173376   5.690   5.140   0.955 -0.0995 -1.4883 -0.7961
17295TIP3    H273377   5.659   5.153   1.102 -0.6479  1.5397 -1.1550
17296TIP3   OH273378   4.037   2.884   2.688 -0.1667  0.2605  0.0733
17296TIP3    H173379   4.127   2.867   2.717 -0.1670  1.1334  0.6154
17296TIP3    H273380   4.016   2.970   2.725 -0.7519  0.6665 -1.1742
17297TIP3   OH273381   5.493   3.319  11.887 -0.7484  0.0862 -0.5869
17297TIP3    H173382   5.531   3.265  11.817  0.0327 -0.0318 -0.0804
17297TIP3    H273383   5.568   3.365  11.924 -0.7931 -1.6922  1.8008
17298TIP3   OH273384   2.110   2.829   0.158 -0.0430 -0.2885 -0.3018
17298TIP3    H173385   2.125   2.886   0.234 -0.0763  0.4924 -0.8730
17298TIP3    H273386   2.032   2.779   0.180 -0.7309  0.7751 -0.3100
17299TIP3   OH273387   6.153   4.393  12.693  0.4132 -0.1180 -0.5107
17299TIP3    H173388   6.138   4.339  12.615  0.1149 -2.6373  1.2309
17299TIP3    H273389   6.066   4.426  12.716  0.1550 -1.1491  0.0018
17300TIP3   OH273390   0.838   1.900  14.603  0.4592 -0.2813 -0.2901
17300TIP3    H173391   0.861   1.941  14.519  0.0883 -1.8082 -1.1570
17300TIP3    H273392   0.838   1.972  14.666  3.6398  0.4393 -1.0181
17301TIP3   OH273393   0.128   5.467   0.908 -0.0327 -0.0501 -0.0004
17301TIP3    H173394   0.175   5.508   0.981  0.3754  1.5004 -1.1081
17301TIP3    H273395   0.039   5.502   0.914 -0.9675 -2.5997  1.7965
17302TIP3   OH273396   3.046   2.428  11.628 -0.2445 -0.7549 -0.0380
17302TIP3    H173397   3.074   2.339  11.650 -0.3260 -0.3374  1.8249
17302TIP3    H273398   3.045   2.474  11.712 -2.4916  0.3718 -0.6572
17303TIP3   OH273399   2.962   0.161  13.532  0.1100 -0.0095 -0.6130
17303TIP3    H173400   3.055   0.184  13.526  0.1552 -0.2230 -0.7699
17303TIP3    H273401   2.917   0.244  13.542  0.2474  0.1721 -1.4436
17304TIP3   OH273402   1.437   3.510   4.688  0.2541 -0.3445 -0.3040
17304TIP3    H173403   1.387   3.513   4.606  0.1147  1.9265 -0.1722
17304TIP3    H273404   1.372   3.487   4.755  0.2105 -1.4438 -0.7271
17305TIP3   OH273405   0.413   0.770   5.917  0.0832 -0.2482  0.6356
17305TIP3    H173406   0.474   0.729   5.855  0.4309  0.0562  0.7702
17305TIP3    H273407   0.374   0.697   5.964 -2.8250 -0.7312 -2.3300
17306TIP3   OH273408   6.550   6.232  13.545  0.0941 -0.3241  0.5874
17306TIP3    H173409   6.596   6.258  13.465  0.5725  0.1519  1.0124
17306TIP3    H273410   6.533   6.139  13.535  1.3622 -0.5489  0.5365
17307TIP3   OH273411   5.028   2.057   3.174  0.1817 -0.0525  0.2693
17307TIP3    H173412   4.997   2.037   3.262  1.0155  0.4063  0.6766
17307TIP3    H273413   4.992   2.144   3.155 -0.1749 -0.2431  0.0715
17308TIP3   OH273414   5.911   0.089   5.913  0.0831  0.4919  0.6302
17308TIP3    H173415   5.859   0.033   5.971 -0.7951  0.2771 -0.3403
17308TIP3    H273416   5.858   0.168   5.901 -0.7780 -0.3910 -1.6330
17309TIP3   OH273417   1.280   1.746   0.439 -0.2366 -0.5985  0.6205
17309TIP3    H173418   1.236   1.683   0.383  0.4757  0.5091 -1.2513
17309TIP3    H273419   1.235   1.740   0.523 -1.9219 -1.6438 -0.3394
17310TIP3   OH273420   5.177   5.616   0.293 -0.1343 -0.4953  0.0748
17310TIP3    H173421   5.103   5.673   0.271  0.5070  0.8043  1.1644
17310TIP3    H273422   5.161   5.591   0.384  0.9877  0.1735  0.4733
17311TIP3   OH273423   5.166   4.337  13.481 -0.1561 -0.2251 -0.0769
17311TIP3    H173424   5.180   4.415  13.428 -1.5075  0.8396  1.1126
17311TIP3    H273425   5.249   4.325  13.528  0.1178  0.3788 -0.4041
17312TIP3   OH273426   0.507   4.930  15.744 -0.3688 -0.4340 -0.1697
17312TIP3    H173427   0.479   4.937  15.835 -1.8424  0.9497 -0.7124
17312TIP3    H273428   0.596   4.896  15.749 -1.1733 -2.3748  1.6933
17313TIP3   OH273429   5.444   3.860  13.292  0.4518  0.3951 -0.2583
17313TIP3    H173430   5.387   3.828  13.362 -0.3088 -1.7994 -1.8417
17313TIP3    H273431   5.414   3.950  13.277 -1.6899 -0.2639 -0.1335
17314TIP3   OH273432   0.328   0.905  16.962 -0.6568 -0.6801  0.2885
17314TIP3    H173433   0.411   0.944  16.935 -1.3094  0.7609  0.3728
17314TIP3    H273434   0.351   0.851  17.038  0.2687 -0.6254  0.0492
17315TIP3   OH273435   1.703   2.399  10.613  0.0687  0.2285 -0.3121
17315TIP3    H173436   1.697   2.477  10.558  1.1369  0.5013 -0.0485
17315TIP3    H273437   1.774   2.348  10.574  0.7348  0.3550  0.7243
17316TIP3   OH273438   0.615   3.858   2.722 -0.3436  0.0165  0.0734
17316TIP3    H173439   0.675   3.932   2.723  0.1023 -0.3028 -1.4273
17316TIP3    H273440   0.528   3.897   2.714 -0.0392  0.3619 -1.7552
17317TIP3   OH273441   2.834   1.320  14.765 -0.0738 -0.1194 -0.1670
17317TIP3    H173442   2.865   1.275  14.844  2.6394  1.2175 -0.4251
17317TIP3    H273443   2.775   1.388  14.798 -0.8601 -1.1046  0.5081
17318TIP3   OH273444   5.395   6.290   4.813 -0.7247  0.3480 -0.1366
17318TIP3    H173445   5.488   6.270   4.799 -0.9249 -0.4835 -0.2994
17318TIP3    H273446   5.372   6.348   4.740 -0.4246  0.2655 -0.2990
17319TIP3   OH273447   3.775   1.710   6.099 -0.0332 -0.0707 -0.0809
17319TIP3    H173448   3.729   1.675   6.176 -1.3513  0.7719 -0.4678
17319TIP3    H273449   3.718   1.689   6.025  0.3922  0.6577 -0.6252
17320TIP3   OH273450   3.114   2.582  14.731  0.2051 -0.6428  0.5348
17320TIP3    H173451   3.082   2.497  14.759  1.0382 -1.3040 -0.5192
17320TIP3    H273452   3.206   2.584  14.757  0.4838 -0.5083 -0.4379
17321TIP3   OH273453   0.760   2.405  13.252 -0.2968 -0.2826  0.2548
17321TIP3    H173454   0.792   2.409  13.162  0.3369  0.0483  0.4860
17321TIP3    H273455   0.692   2.338  13.251 -0.7519  0.1877 -0.6139
17322TIP3   OH273456   2.329   0.518  13.498 -0.4219  0.0366  0.1811
17322TIP3    H173457   2.267   0.447  13.482  0.9567 -1.0040 -0.6398
17322TIP3    H273458   2.287   0.596  13.460 -1.7059 -0.4237  0.6296
17323TIP3   OH273459   0.117   0.887  13.940 -0.9019  0.4849 -0.1042
17323TIP3    H173460   0.109   0.812  13.998  1.9648  0.6020  0.4898
17323TIP3    H273461   0.050   0.949  13.971 -0.1708  0.0748  2.3286
17324TIP3   OH273462   4.088   4.512  15.702  0.4748 -0.3112  0.4503
17324TIP3    H173463   4.100   4.463  15.621  0.1089 -0.3363  0.4092
17324TIP3    H273464   4.144   4.589  15.692  0.4977 -0.3586  0.2100
17325TIP3   OH273465   1.161   0.627  16.674 -0.0851  0.3444 -0.2601
17325TIP3    H173466   1.182   0.652  16.584 -1.0859  3.5396  0.3280
17325TIP3    H273467   1.095   0.559  16.664  0.9992 -0.4898 -1.9551
17326TIP3   OH273468   6.537   6.084  15.505  0.4075  0.1265  0.5630
17326TIP3    H173469   6.557   6.129  15.423 -1.5467  0.4876  0.2526
17326TIP3    H273470   6.511   6.154  15.565 -1.4085 -0.4104  0.4615
17327TIP3   OH273471   4.534   2.398   3.767  0.1640  0.1870  0.2430
17327TIP3    H173472   4.535   2.307   3.736 -2.0112  0.7639 -1.6419
17327TIP3    H273473   4.449   2.409   3.808 -0.3555  1.9084 -1.2431
17328TIP3   OH273474   1.846   2.252  13.259 -0.6246 -0.1012 -0.0656
17328TIP3    H173475   1.861   2.162  13.231 -0.4692 -0.5610  1.4811
17328TIP3    H273476   1.930   2.296  13.245 -0.4748 -0.3916 -0.0911
17329TIP3   OH273477   0.392   0.624  16.834  0.5764 -0.0830  0.0093
17329TIP3    H173478   0.320   0.560  16.832  0.8442 -0.3901  0.0499
17329TIP3    H273479   0.403   0.651  16.743  0.8198 -0.5057 -0.0894
17330TIP3   OH273480   3.577   2.414   4.946 -0.3691  0.0997  0.0924
17330TIP3    H173481   3.654   2.359   4.960  0.2740  0.6648 -1.1785
17330TIP3    H273482   3.505   2.352   4.935 -0.0888 -0.4323  1.1719
17331TIP3   OH273483   0.540   4.913   3.620  0.5690 -0.1460  0.7452
17331TIP3    H173484   0.467   4.939   3.676 -0.7320 -1.3808 -0.3057
17331TIP3    H273485   0.525   4.960   3.538  1.7569  0.6826  0.9922
17332TIP3   OH273486   4.118   3.504   5.294  0.0047  0.4719 -0.6896
17332TIP3    H173487   4.100   3.418   5.256 -0.6666  0.4269 -0.2745
17332TIP3    H273488   4.094   3.566   5.225  0.5077  0.3289 -0.9953
17333TIP3   OH273489   6.648   2.591   3.779  0.0601  0.2553  0.3179
17333TIP3    H173490   6.736   2.628   3.791 -0.0015  0.6646 -0.5025
17333TIP3    H273491   6.590   2.668   3.781 -0.3652 -0.0908  1.7286
17334TIP3   OH273492   1.819   4.740  12.868  0.4398  0.1403 -0.3835
17334TIP3    H173493   1.797   4.735  12.961  0.1550  0.1532 -0.4490
17334TIP3    H273494   1.749   4.791  12.829 -0.0279 -0.7907 -0.7896
17335TIP3   OH273495   1.888   2.252  10.439  0.8555  0.2439  0.3653
17335TIP3    H173496   1.922   2.206  10.362  0.0195  0.4737 -0.1520
17335TIP3    H273497   1.860   2.182  10.498 -1.8613  0.0627 -1.0740
17336TIP3   OH273498   4.389   0.717   1.533 -0.5206  0.0034  0.3071
17336TIP3    H173499   4.416   0.805   1.556 -2.9765  0.9420 -0.2544
17336TIP3    H273500   4.302   0.707   1.571  0.1006 -2.5307  1.1754
17337TIP3   OH273501   2.966   4.506  12.586 -0.0118 -0.6948  0.2640
17337TIP3    H173502   2.981   4.592  12.624  1.5144 -1.6987  2.0513
17337TIP3    H273503   3.047   4.484  12.541 -0.0676 -1.5424  0.5553
17338TIP3   OH273504   3.792   0.489   2.139 -0.2335  0.0727 -0.7572
17338TIP3    H173505   3.747   0.573   2.150  2.6766  1.2619  2.8889
17338TIP3    H273506   3.882   0.513   2.120  0.4523 -2.2282 -0.4970
17339TIP3   OH273507   4.029   4.540  14.445 -0.4990  0.0497 -0.1050
17339TIP3    H173508   3.982   4.457  14.439 -0.6446  0.0353  1.1699
17339TIP3    H273509   4.120   4.516  14.463 -0.6344  0.1734  0.7732
17340TIP3   OH273510   2.400   2.171  17.164  0.5304 -0.4856  0.8804
17340TIP3    H173511   2.336   2.111  17.201 -1.0845 -0.1326 -1.2738
17340TIP3    H273512   2.349   2.244  17.130  2.0193 -0.3459 -1.1627
17341TIP3   OH273513   3.800   6.771  16.281  0.7900  0.0834 -0.1015
17341TIP3    H173514   3.707   6.756  16.294  0.8629 -0.9196 -0.7017
17341TIP3    H273515   3.826   6.708  16.214  2.1317 -0.4106  0.8464
17342TIP3   OH273516   4.353   2.868  15.520  0.0236 -0.2783  0.4434
17342TIP3    H173517   4.421   2.864  15.588  1.0505 -0.3664 -0.5655
17342TIP3    H273518   4.364   2.786  15.471 -1.0533 -0.4529  0.4939
17343TIP3   OH273519   0.465   5.959   2.339 -0.3860  0.0168 -0.4294
17343TIP3    H173520   0.471   6.054   2.345 -2.6114  0.2350 -1.1689
17343TIP3    H273521   0.372   5.940   2.356 -0.0096 -1.9995 -0.5163
17344TIP3   OH273522   0.466   6.241   0.821 -0.5151 -0.0315  0.0391
17344TIP3    H173523   0.494   6.172   0.881 -0.8000 -0.5804 -0.4532
17344TIP3    H273524   0.472   6.322   0.872  0.5882 -0.3176  0.3867
17345TIP3   OH273525   0.455   1.502  16.437  0.3315  0.1343 -0.4070
17345TIP3    H173526   0.366   1.467  16.444  0.2136  0.5195  0.0198
17345TIP3    H273527   0.466   1.524  16.345  0.2964 -0.7382 -0.6295
17346TIP3   OH273528   5.939   4.741  17.171  0.2291 -0.6653 -0.5483
17346TIP3    H173529   5.853   4.778  17.149  1.0277  1.5200 -0.1716
17346TIP3    H273530   5.985   4.813  17.214  2.4942 -1.5851 -1.3484
17347TIP3   OH273531   4.080   0.814  15.478 -0.1673  0.6736  0.2557
17347TIP3    H173532   4.016   0.881  15.454  0.2565  1.3664  1.0232
17347TIP3    H273533   4.111   0.780  15.394  1.3576  3.1348 -0.2545
17348TIP3   OH273534   3.525   2.729   6.479 -0.1701 -0.2254  0.1116
17348TIP3    H173535   3.536   2.775   6.562  0.1344 -0.9370  0.4722
17348TIP3    H273536   3.511   2.638   6.504 -0.6145 -0.3516 -0.5992
17349TIP3   OH273537   5.851   0.751  12.879 -0.5137 -0.8696 -0.1050
17349TIP3    H173538   5.842   0.797  12.962 -0.8204 -0.5899 -0.2873
17349TIP3    H273539   5.835   0.659  12.900  0.8977 -0.9994  0.3992
17350TIP3   OH273540   4.425   4.317   6.414  0.7420  0.0285 -0.1610
17350TIP3    H173541   4.395   4.261   6.342 -0.9876 -0.6729  1.0616
17350TIP3    H273542   4.464   4.257   6.477  1.4947  0.5451 -0.1226
17351TIP3   OH273543   6.153   6.522  13.070  0.8406 -0.0188  0.8308
17351TIP3    H173544   6.234   6.477  13.095  1.3981 -0.1548 -1.1672
17351TIP3    H273545   6.161   6.536  12.976 -1.9179 -0.9731  0.3975
17352TIP3   OH273546   4.536   3.658   6.019 -0.7439 -0.5427  0.0386
17352TIP3    H173547   4.550   3.738   5.970 -0.9621 -0.4499  0.1281
17352TIP3    H273548   4.621   3.639   6.059 -0.8366 -0.0521  0.4743
17353TIP3   OH273549   1.428   0.419  12.041  0.2401 -0.3846 -0.5678
17353TIP3    H173550   1.416   0.499  12.092  0.4689 -0.3824 -0.5168
17353TIP3    H273551   1.437   0.449  11.951 -0.9483 -0.4401 -0.7144
17354TIP3   OH273552   5.790   1.909   2.601 -0.0237 -0.5048 -0.7022
17354TIP3    H173553   5.751   1.902   2.514  0.9716 -2.2116 -1.0365
17354TIP3    H273554   5.721   1.880   2.661 -0.4997  0.0648 -0.9711
17355TIP3   OH273555   3.456   5.597  16.658 -0.6107 -0.1055 -0.4138
17355TIP3    H173556   3.378   5.641  16.693 -0.9754 -0.4621 -0.7684
17355TIP3    H273557   3.421   5.517  16.617  0.1002 -1.0351  0.7580
17356TIP3   OH273558   3.215   1.675   3.542 -0.6294  0.0498 -0.0332
17356TIP3    H173559   3.302   1.647   3.572 -1.7168 -1.2899  1.9972
17356TIP3    H273560   3.200   1.758   3.588 -0.8544 -0.2737  0.4925
17357TIP3   OH273561   0.349   5.232   4.637 -0.2921 -0.3681 -0.3887
17357TIP3    H173562   0.302   5.263   4.560 -1.3422  0.5677  0.5972
17357TIP3    H273563   0.282   5.185   4.688  0.9621 -3.1573 -1.2173
17358TIP3   OH273564   1.221   1.799   3.844 -0.2625 -0.1060 -0.6574
17358TIP3    H173565   1.246   1.886   3.876 -0.6686 -0.1443 -0.2342
17358TIP3    H273566   1.126   1.801   3.841 -0.3860 -1.2581  1.3875
17359TIP3   OH273567   1.176   6.152   2.203 -0.1117  0.4442 -0.1618
17359TIP3    H173568   1.256   6.206   2.210 -0.3317  0.8901 -1.0991
17359TIP3    H273569   1.127   6.191   2.131 -0.4247 -0.8252 -0.6473
17360TIP3   OH273570   6.077   5.119   2.592  0.4925 -0.0796  0.1490
17360TIP3    H173571   6.110   5.033   2.618  0.6941 -0.3032 -0.8250
17360TIP3    H273572   6.081   5.119   2.496  2.8391  1.9193  0.1995
17361TIP3   OH273573   2.532   0.407  14.244 -0.1545  0.1489  0.3656
17361TIP3    H173574   2.588   0.330  14.251  0.3330  0.6330  1.9224
17361TIP3    H273575   2.502   0.406  14.153 -0.2128 -1.9078  0.3756
17362TIP3   OH273576   4.452   2.243   1.089  0.2680  0.4971 -0.5704
17362TIP3    H173577   4.388   2.215   1.023 -0.2901  0.6928 -0.1191
17362TIP3    H273578   4.523   2.282   1.039 -0.1100  0.5573 -1.0625
17363TIP3   OH273579   4.921   5.334   5.684 -0.0962 -0.2694  0.0298
17363TIP3    H173580   5.010   5.363   5.702 -0.5228  2.1965 -1.6255
17363TIP3    H273581   4.930   5.267   5.616  0.4343  0.8311 -1.0036
17364TIP3   OH273582   1.589   0.409  14.278  0.0132  0.0949 -0.0493
17364TIP3    H173583   1.523   0.427  14.345 -0.8632  0.9133 -1.1208
17364TIP3    H273584   1.628   0.494  14.259  2.1366 -0.5360  1.3247
17365TIP3   OH273585   6.523   6.541   2.939  0.3180  0.1762 -0.1822
17365TIP3    H173586   6.617   6.528   2.949  0.1321 -0.2034  1.2268
17365TIP3    H273587   6.512   6.636   2.945  0.5454  0.1730  0.3786
17366TIP3   OH273588   4.263   0.174  12.413 -0.5696  0.7955 -0.7265
17366TIP3    H173589   4.288   0.209  12.327 -3.3625  2.5735 -0.8495
17366TIP3    H273590   4.300   0.086  12.414 -0.6902  0.6578 -3.8567
17367TIP3   OH273591   4.526   6.674  14.499  0.0635 -0.6141 -0.3873
17367TIP3    H173592   4.560   6.586  14.515 -2.8356 -1.5942  0.8701
17367TIP3    H273593   4.552   6.724  14.577  1.3149 -0.4850 -0.8875
17368TIP3   OH273594   5.967   3.544   0.273  0.2040 -0.5144  0.3887
17368TIP3    H173595   5.945   3.502   0.356  0.4314 -1.6504 -0.1168
17368TIP3    H273596   6.054   3.510   0.251  0.8161  0.9830  0.4595
17369TIP3   OH273597   3.577   1.748   1.102 -0.5835 -0.4925  0.0864
17369TIP3    H173598   3.486   1.723   1.115 -0.7971 -0.7460 -1.7101
17369TIP3    H273599   3.595   1.728   1.010  1.3299 -0.5788  0.4396
17370TIP3   OH273600   3.018   2.255   2.742  0.1309  0.0115 -0.1223
17370TIP3    H173601   3.047   2.228   2.655  0.8730  1.9257 -0.5001
17370TIP3    H273602   3.077   2.209   2.802  0.5301 -0.2326 -0.6938
17371TIP3   OH273603   0.871   5.408  14.494 -0.0328  0.1521  0.6758
17371TIP3    H173604   0.813   5.443  14.426  2.5349  0.7154 -1.3133
17371TIP3    H273605   0.887   5.481  14.553  0.2586  0.5632  0.0889
17372TIP3   OH273606   1.490   5.174   1.854 -0.3482  0.1968  0.0655
17372TIP3    H173607   1.470   5.246   1.794 -0.6594  1.0734  1.1894
17372TIP3    H273608   1.557   5.123   1.809 -0.7210  0.7144 -1.1103
17373TIP3   OH273609   5.580   2.499  11.690 -0.3782  0.7559  0.2754
17373TIP3    H173610   5.626   2.577  11.719 -0.5376  0.8052  0.3930
17373TIP3    H273611   5.511   2.485  11.755 -1.4083  1.4692 -0.6294
17374TIP3   OH273612   4.296   0.633  12.698  0.4842 -0.4629 -1.1925
17374TIP3    H173613   4.246   0.680  12.631  0.0192 -1.0716 -1.2733
17374TIP3    H273614   4.274   0.678  12.780 -0.0981 -0.6456 -1.2462
17375TIP3   OH273615   1.600   6.601  10.742 -0.0781  0.2277 -0.3007
17375TIP3    H173616   1.651   6.606  10.823 -1.0201 -0.8192  0.3809
17375TIP3    H273617   1.552   6.683  10.739 -0.2930  0.1307  0.3768
17376TIP3   OH273618   6.705   1.888  14.030 -0.4003 -0.1287  0.2802
17376TIP3    H173619   6.740   1.848  14.109 -0.4109 -1.1813 -0.2387
17376TIP3    H273620   6.660   1.816  13.984 -2.4929  0.9933  0.5110
17377TIP3   OH273621   3.638   6.239   1.834 -0.4386 -0.2952  0.2041
17377TIP3    H173622   3.695   6.181   1.885  0.1561  0.0640 -0.0552
17377TIP3    H273623   3.605   6.184   1.763 -0.6585 -0.5878  0.5327
17378TIP3   OH273624   0.609   2.351   5.736 -0.6888  0.4561 -0.5673
17378TIP3    H173625   0.688   2.342   5.789 -0.7182 -1.8148 -0.8630
17378TIP3    H273626   0.613   2.440   5.702  3.2062 -0.4757 -2.8402
17379TIP3   OH273627   1.106   1.868  15.958  0.1041 -0.2060  0.4236
17379TIP3    H173628   1.186   1.844  15.911  0.7761  0.4585  1.2217
17379TIP3    H273629   1.051   1.790  15.953  0.2534 -0.2225 -1.2725
17380TIP3   OH273630   0.939   2.676  11.885  0.5288  0.7233 -0.0971
17380TIP3    H173631   1.024   2.720  11.892  1.2771 -0.8125  0.5551
17380TIP3    H273632   0.960   2.589  11.850 -0.6896  0.0335  0.8808
17381TIP3   OH273633   0.908   2.975  14.355  0.9368 -0.6093 -0.1387
17381TIP3    H173634   0.977   3.041  14.359 -0.3765  0.8516 -0.7118
17381TIP3    H273635   0.871   2.973  14.443 -0.5357  1.1576 -0.6636
17382TIP3   OH273636   2.139   3.527  13.967  0.1795  0.3399  0.0900
17382TIP3    H173637   2.133   3.607  14.018  1.9054  0.7986 -0.3848
17382TIP3    H273638   2.100   3.460  14.022 -1.6554  1.5739  0.3215
17383TIP3   OH273639   2.984   5.939   3.607 -0.3813  0.0033 -0.4231
17383TIP3    H173640   2.891   5.960   3.597 -0.4854 -0.4727 -0.4678
17383TIP3    H273641   2.991   5.903   3.695  0.1673  2.2236  0.4911
17384TIP3   OH273642   5.506   6.104   3.176 -0.4899  0.5569  0.1677
17384TIP3    H173643   5.424   6.074   3.214 -0.2385  0.2135  0.4464
17384TIP3    H273644   5.497   6.087   3.082  0.2828 -1.9714  0.5032
17385TIP3   OH273645   6.612   1.599  13.836 -0.3870  0.1339  0.0548
17385TIP3    H173646   6.628   1.607  13.742 -0.7073  2.0966  0.1404
17385TIP3    H273647   6.688   1.552  13.870  0.6267  1.0545 -0.9139
17386TIP3   OH273648   3.343   6.064   4.179  0.5922  0.7312  0.2615
17386TIP3    H173649   3.422   6.012   4.193  0.5315  0.4294 -0.5139
17386TIP3    H273650   3.309   6.035   4.094  0.0782  1.4083  0.2282
17387TIP3   OH273651   2.905   4.158  16.587  0.1668  0.2791 -0.1590
17387TIP3    H173652   2.887   4.252  16.585  0.3340  0.3302  0.5719
17387TIP3    H273653   2.922   4.139  16.679  0.6752 -0.3662 -0.3861
17388TIP3   OH273654   3.254   5.480  12.665  0.1924 -0.0469 -0.0053
17388TIP3    H173655   3.341   5.441  12.655 -0.3429 -1.5630  1.0479
17388TIP3    H273656   3.257   5.524  12.750  0.3984  1.1848 -0.6406
17389TIP3   OH273657   2.067   1.820  14.007 -0.0876 -0.4730 -0.1753
17389TIP3    H173658   1.977   1.792  14.023  0.4748 -2.4389 -0.2127
17389TIP3    H273659   2.076   1.903  14.053 -1.9159 -0.2732 -0.1653
17390TIP3   OH273660   6.036   3.722   3.513  0.4932  0.6311  0.2820
17390TIP3    H173661   6.063   3.804   3.552  0.5070  1.1826 -0.8628
17390TIP3    H273662   6.072   3.654   3.570 -1.7765  1.4230  2.7454
17391TIP3   OH273663   5.135   2.063  10.863 -0.0493 -0.1671 -0.5895
17391TIP3    H173664   5.165   1.976  10.836  1.5033  0.0362  0.4332
17391TIP3    H273665   5.196   2.124  10.820 -0.7250  0.3907 -0.7688
17392TIP3   OH273666   5.440   5.938   1.969 -0.0718  0.2507 -0.1168
17392TIP3    H173667   5.424   5.876   1.897 -3.8236 -1.1359  1.7994
17392TIP3    H273668   5.519   5.905   2.012 -0.6466 -1.7993 -0.5992
17393TIP3   OH273669   2.136   0.687   4.294 -0.1938  0.1944 -0.0817
17393TIP3    H173670   2.151   0.600   4.257 -0.0555  0.3466 -0.3839
17393TIP3    H273671   2.055   0.678   4.345  0.2035 -0.2903  0.4622
17394TIP3   OH273672   0.569   0.792   2.191 -0.2178 -0.5112 -0.1030
17394TIP3    H173673   0.508   0.843   2.244 -1.1948 -0.5283 -1.2030
17394TIP3    H273674   0.533   0.795   2.102  0.0455 -2.5988 -0.3038
17395TIP3   OH273675   0.398   3.659   4.117  0.1337  0.4720 -0.0085
17395TIP3    H173676   0.317   3.643   4.166 -1.1160  3.6801 -0.8987
17395TIP3    H273677   0.461   3.684   4.184 -0.6649  1.6051  0.3400
17396TIP3   OH273678   0.982   3.058  16.711  0.0549  0.3652  0.3009
17396TIP3    H173679   1.007   3.150  16.716 -2.2054  1.1749 -1.9085
17396TIP3    H273680   1.032   3.024  16.636 -0.3587  0.2286  0.0857
17397TIP3   OH273681   5.457   0.220  16.924 -0.3254  0.4428 -0.1634
17397TIP3    H173682   5.430   0.192  16.837 -0.6539 -0.3100  0.1774
17397TIP3    H273683   5.381   0.266  16.959 -0.3480  0.3517 -0.0944
17398TIP3   OH273684   6.707   3.011  10.540 -0.1825 -0.0166  0.3387
17398TIP3    H173685   6.724   3.081  10.477  0.1495  0.0937  0.5490
17398TIP3    H273686   6.691   3.056  10.623 -0.0987 -0.1857  0.4476
17399TIP3   OH273687   6.735   2.918  13.344  0.2485  0.1538 -0.0934
17399TIP3    H173688   6.787   2.973  13.286  0.5715 -1.9210 -1.8001
17399TIP3    H273689   6.659   2.893  13.292 -0.1127 -0.6729  0.8147
17400TIP3   OH273690   6.351   2.824   1.822  0.2006 -0.5819 -0.0214
17400TIP3    H173691   6.312   2.813   1.909 -1.6950 -0.5547 -0.8578
17400TIP3    H273692   6.431   2.771   1.825  1.0800  0.8421  2.3188
17401TIP3   OH273693   6.729   3.263   4.609 -0.2991 -0.1910  0.3749
17401TIP3    H173694   6.657   3.324   4.598 -0.1110  0.1451  0.9791
17401TIP3    H273695   6.745   3.260   4.703 -0.2876 -1.1521  0.3530
17402TIP3   OH273696   0.141   2.614  17.058  0.4168  0.8835  0.0063
17402TIP3    H173697   0.100   2.644  17.139 -1.2152  0.1087 -0.4990
17402TIP3    H273698   0.213   2.674  17.044 -0.1596  1.9031  1.2768
17403TIP3   OH273699   4.871   2.574  15.403 -0.0847 -0.0548 -0.2100
17403TIP3    H173700   4.934   2.522  15.352  0.3811 -1.3086  1.5993
17403TIP3    H273701   4.919   2.600  15.481 -1.1599  0.8407  0.1619
17404TIP3   OH273702   2.655   0.410   3.821 -0.0235  0.1137  0.9529
17404TIP3    H173703   2.692   0.388   3.736 -0.1572 -0.2635  0.9896
17404TIP3    H273704   2.630   0.325   3.858 -1.1797  0.3786  0.8066
17405TIP3   OH273705   1.700   0.054  11.378 -0.2890  0.3052  0.7234
17405TIP3    H173706   1.646  -0.002  11.433 -0.8005 -0.0636 -0.1270
17405TIP3    H273707   1.709   0.005  11.296  4.0323 -1.0915  1.9323
17406TIP3   OH273708   2.671   4.897  13.101 -0.0795  0.3381 -0.5069
17406TIP3    H173709   2.632   4.873  13.017  0.7146  0.0845 -0.8070
17406TIP3    H273710   2.764   4.908  13.082  0.3493 -1.1640  0.6350
17407TIP3   OH273711   4.755   4.601   3.524  0.1345  0.2424  0.0596
17407TIP3    H173712   4.761   4.615   3.429 -0.1213  1.0124  0.1562
17407TIP3    H273713   4.775   4.686   3.562 -1.7348  0.4388  0.6498
17408TIP3   OH273714   3.092   4.201   2.788 -0.2178 -0.4240  0.5799
17408TIP3    H173715   3.003   4.218   2.759  0.2273  1.1267  0.0854
17408TIP3    H273716   3.108   4.109   2.765 -1.2035 -0.3102 -0.5756
17409TIP3   OH273717   4.698   1.427   0.834 -0.4115  0.7972 -0.0495
17409TIP3    H173718   4.619   1.402   0.881 -0.5680  0.4469 -0.4971
17409TIP3    H273719   4.740   1.344   0.810  2.0030  0.9299  3.3328
17410TIP3   OH273720   3.266   1.976   2.701  0.4611 -0.2322  0.3783
17410TIP3    H173721   3.252   2.037   2.774 -0.1086 -1.1762  1.0682
17410TIP3    H273722   3.177   1.955   2.671  0.6482 -0.9261  0.3152
17411TIP3   OH273723   5.794   2.939  10.836 -0.3625 -0.7179 -0.1199
17411TIP3    H173724   5.742   2.905  10.909 -1.2518 -1.7790 -1.2309
17411TIP3    H273725   5.731   2.979  10.777  0.5046  1.3530  0.3250
17412TIP3   OH273726   3.143   1.320   4.986 -0.0856  0.2926 -0.5705
17412TIP3    H173727   3.076   1.276   5.038  0.1963 -0.1733 -0.5969
17412TIP3    H273728   3.142   1.275   4.901  1.3236 -0.7438 -0.0544
17413TIP3   OH273729   2.126   0.409  14.248 -0.3047 -0.3755 -0.4212
17413TIP3    H173730   2.035   0.424  14.274 -0.1749  0.5970 -0.5237
17413TIP3    H273731   2.140   0.467  14.173  0.4870 -0.3039 -0.2277
17414TIP3   OH273732   1.113   0.548  14.395 -0.0996 -0.0703  0.0884
17414TIP3    H173733   1.121   0.474  14.334  0.9226  2.0293 -2.4668
17414TIP3    H273734   1.033   0.593  14.368 -1.5515 -1.0332  2.6165
17415TIP3   OH273735   6.396   4.791   0.940  0.0015  0.4774  0.9899
17415TIP3    H173736   6.332   4.774   0.871  0.2386 -1.3858  1.2118
17415TIP3    H273737   6.352   4.765   1.021  0.8516 -0.3500  1.1958
17416TIP3   OH273738   3.760   6.005  12.866  0.1594  0.6289 -0.0311
17416TIP3    H173739   3.709   6.080  12.896  0.3204  1.3772 -1.6045
17416TIP3    H273740   3.769   6.017  12.772  2.4837  0.0511  0.0862
17417TIP3   OH273741   1.118   1.739   2.729 -0.0284 -0.0664  0.7907
17417TIP3    H173742   1.033   1.710   2.762 -0.6170  2.2025  1.2966
17417TIP3    H273743   1.138   1.818   2.778  0.9729  1.1354 -1.4822
17418TIP3   OH273744   3.286   0.395  16.417  0.8526  0.1283  0.0134
17418TIP3    H173745   3.199   0.426  16.442  0.7982  0.9717 -1.1859
17418TIP3    H273746   3.308   0.330  16.484  0.9556  2.7072  2.5968
17419TIP3   OH273747   2.573   1.680   4.251 -0.1858  0.1356 -0.4704
17419TIP3    H173748   2.489   1.683   4.297  0.4318 -1.4299  0.8054
17419TIP3    H273749   2.566   1.606   4.191 -0.5541  1.4475 -2.0695
17420TIP3   OH273750   5.735   0.215  12.830  0.0260 -0.2547  0.5242
17420TIP3    H173751   5.703   0.225  12.740  1.8495 -1.7453 -0.3515
17420TIP3    H273752   5.676   0.152  12.870 -0.5176  0.0516  0.1993
17421TIP3   OH273753   4.662   2.583   0.338 -0.5087  0.3140  0.5666
17421TIP3    H173754   4.670   2.555   0.247 -0.7702  1.1908  0.2688
17421TIP3    H273755   4.671   2.679   0.334  1.5824  0.2050  1.6867
17422TIP3   OH273756   2.933   4.227  14.249  0.3545  0.3768  0.0434
17422TIP3    H173757   2.853   4.269  14.216 -0.2589 -1.2668 -0.6152
17422TIP3    H273758   2.992   4.299  14.267 -1.8373  1.7563  2.0335
17423TIP3   OH273759   6.490   5.391  11.648 -0.0124 -0.0501 -0.1841
17423TIP3    H173760   6.477   5.427  11.735 -0.5767  0.6814 -0.5658
17423TIP3    H273761   6.549   5.317  11.661 -1.6462 -1.1699  1.1049
17424TIP3   OH273762   1.664   1.167  14.381  0.5282  0.3131  0.4747
17424TIP3    H173763   1.611   1.177  14.302  0.8276  0.6686  0.3163
17424TIP3    H273764   1.610   1.205  14.451  0.9532  1.5340  0.1559
17425TIP3   OH273765   1.211   5.775  14.859 -0.1387 -0.1975  0.1368
17425TIP3    H173766   1.295   5.743  14.827  0.0381  0.0005  0.4118
17425TIP3    H273767   1.232   5.847  14.918 -0.5655  0.8273 -0.9314
17426TIP3   OH273768   3.142   4.964   2.512 -0.1063  0.1362  0.0165
17426TIP3    H173769   3.230   4.973   2.550  0.4926  1.7786 -1.6800
17426TIP3    H273770   3.096   5.043   2.538 -1.9665 -1.8160  2.9784
17427TIP3   OH273771   2.134   5.948   5.128 -0.5654  0.3253  0.4238
17427TIP3    H173772   2.119   6.020   5.189  0.3652  0.3981  0.5746
17427TIP3    H273773   2.099   5.979   5.045  0.0418  1.0464  0.4299
17428TIP3   OH273774   3.128   5.789  15.866 -0.3617 -0.6423  0.3267
17428TIP3    H173775   3.111   5.745  15.783  1.2534  0.7842 -0.8107
17428TIP3    H273776   3.161   5.720  15.923  1.3056 -1.1138 -1.1504
17429TIP3   OH273777   4.293   3.162  15.411  0.3434  0.4414 -0.3187
17429TIP3    H173778   4.256   3.077  15.387 -1.4832  0.3791  2.3962
17429TIP3    H273779   4.388   3.148  15.410  0.1386 -0.9494 -2.1980
17430TIP3   OH273780   3.790   1.993   4.455  0.4560  0.4237 -0.4219
17430TIP3    H173781   3.700   1.965   4.470  1.0936 -1.7510 -0.6088
17430TIP3    H273782   3.808   1.972   4.364  1.8727 -1.2636  0.2132
17431TIP3   OH273783   4.635   0.673  15.024 -0.0297  0.0082 -0.7188
17431TIP3    H173784   4.676   0.666  14.938 -0.3919  1.6842 -1.0416
17431TIP3    H273785   4.560   0.731  15.011 -0.1434  0.2080  0.7051
17432TIP3   OH273786   1.293   2.620   3.754  0.2089 -0.0580  0.4365
17432TIP3    H173787   1.373   2.629   3.702  0.4399 -2.2527  0.3637
17432TIP3    H273788   1.259   2.709   3.761  1.2445  0.5517 -1.7654
17433TIP3   OH273789   2.658   5.034   1.714  0.4053 -0.2594 -0.2745
17433TIP3    H173790   2.635   5.022   1.806  0.7101  0.6458 -0.0805
17433TIP3    H273791   2.738   5.086   1.715  2.1776 -2.8530 -0.9769
17434TIP3   OH273792   6.781   5.885  15.797  0.0978  0.3246  0.4413
17434TIP3    H173793   6.859   5.905  15.745 -1.2178 -0.6147 -1.9900
17434TIP3    H273794   6.779   5.789  15.799 -0.8343  0.3498  0.7136
17435TIP3   OH273795   5.340   0.450  13.956 -0.4548  0.3614  0.5488
17435TIP3    H173796   5.374   0.418  14.040  1.6603  1.6335  0.2216
17435TIP3    H273797   5.375   0.390  13.891  3.3724  3.0248 -0.0468
17436TIP3   OH273798   0.840   6.776   4.725 -0.2704  0.3663 -0.7879
17436TIP3    H173799   0.869   6.847   4.782  1.3248 -0.3169 -0.7147
17436TIP3    H273800   0.866   6.802   4.637  0.2720 -0.0862 -0.7679
17437TIP3   OH273801   5.460   4.139   1.047  0.2752 -0.5505  0.8729
17437TIP3    H173802   5.494   4.129   1.136  1.2928  1.1920  0.6937
17437TIP3    H273803   5.389   4.203   1.054 -0.7136 -1.6009  0.6737
17438TIP3   OH273804   1.874   3.553   0.433  0.2147 -0.5042  0.0188
17438TIP3    H173805   1.881   3.458   0.447  3.3176 -0.3433  0.0511
17438TIP3    H273806   1.903   3.566   0.343  1.6098  0.5518  0.5886
17439TIP3   OH273807   3.276   4.000   4.503 -0.1871 -0.0948 -0.3326
17439TIP3    H173808   3.260   4.072   4.563 -1.6134  0.5934 -1.4924
17439TIP3    H273809   3.201   4.003   4.442  1.2486 -0.7051 -2.1775
17440TIP3   OH273810   4.315   5.859  16.462  0.0204 -0.2265  0.0431
17440TIP3    H173811   4.377   5.888  16.529  0.1988 -0.5064  0.0066
17440TIP3    H273812   4.311   5.930  16.399 -1.7440  0.9443  1.4176
17441TIP3   OH273813   5.451   2.048  14.504 -0.3002  0.1029 -0.1303
17441TIP3    H173814   5.421   2.138  14.499  0.1290  0.3533  1.7428
17441TIP3    H273815   5.537   2.049  14.462 -0.1864  0.6101  0.1177
17442TIP3   OH273816   4.455   0.344   4.226  0.2860  0.0908 -0.1660
17442TIP3    H173817   4.407   0.262   4.237  0.7800 -0.1635  0.1458
17442TIP3    H273818   4.534   0.333   4.280  0.2686  0.8430  0.0246
17443TIP3   OH273819   4.490   3.678  11.870  0.1080  0.6129 -0.4535
17443TIP3    H173820   4.572   3.643  11.906  0.0559 -1.1264 -1.9894
17443TIP3    H273821   4.427   3.607  11.878 -0.7843  1.3259 -0.9759
17444TIP3   OH273822   4.367   6.752  12.561  0.0770 -0.2665  0.1470
17444TIP3    H173823   4.451   6.794  12.543 -1.2213  1.2383 -2.8113
17444TIP3    H273824   4.319   6.814  12.616 -0.2588  0.2886 -0.7611
17445TIP3   OH273825   4.324   0.649   2.334 -0.2884 -0.3963  0.0996
17445TIP3    H173826   4.269   0.604   2.397  2.3789 -3.8668  0.0575
17445TIP3    H273827   4.305   0.606   2.250 -1.0127  1.6257 -0.8132
17446TIP3   OH273828   1.168   4.084   3.981 -0.3606 -1.1693 -0.0672
17446TIP3    H173829   1.199   4.106   4.069 -1.2709  1.8357 -0.4285
17446TIP3    H273830   1.085   4.038   3.995 -1.3102  0.7145  0.6539
17447TIP3   OH273831   3.413   1.613   6.071 -0.4165  0.3171  0.1417
17447TIP3    H173832   3.358   1.625   6.149  2.1539  1.1967  1.8636
17447TIP3    H273833   3.477   1.547   6.097  1.2061  1.5031 -0.8281
17448TIP3   OH273834   4.488   5.353  13.129  0.1278  0.1942  0.8717
17448TIP3    H173835   4.452   5.269  13.100  1.4756 -0.1043  0.0226
17448TIP3    H273836   4.520   5.394  13.049  1.8324  0.3713  1.6164
17449TIP3   OH273837   4.670   5.277   0.335  0.1863  0.4134  0.6553
17449TIP3    H173838   4.593   5.270   0.278 -0.5033  2.3861  1.3206
17449TIP3    H273839   4.698   5.186   0.348 -0.8311 -0.1946 -1.2079
17450TIP3   OH273840   4.568   5.356   2.013 -0.0459  0.1730 -0.5353
17450TIP3    H173841   4.544   5.402   2.093  2.9612 -0.0500  0.5207
17450TIP3    H273842   4.596   5.270   2.042 -2.1718 -1.1455 -2.1828
17451TIP3   OH273843   4.951   2.399   0.830 -0.1771 -1.0021  0.2233
17451TIP3    H173844   4.920   2.329   0.772 -0.0416 -0.5233 -0.4349
17451TIP3    H273845   5.030   2.431   0.788 -1.3174  0.8904 -0.5549
17452TIP3   OH273846   3.556   1.324   0.661 -0.1238  0.1844  0.1705
17452TIP3    H173847   3.638   1.328   0.710 -0.0983 -2.0201  0.3331
17452TIP3    H273848   3.570   1.383   0.587  1.3829  0.2631  0.4988
17453TIP3   OH273849   1.720   1.584   0.622 -0.5209  0.0962 -0.0348
17453TIP3    H173850   1.676   1.648   0.567  0.4576 -0.6992 -1.7658
17453TIP3    H273851   1.793   1.633   0.662 -1.8816  0.9570  1.4832
17454TIP3   OH273852   0.309   1.924  15.325  0.0676 -0.4054 -0.0408
17454TIP3    H173853   0.317   1.925  15.230  1.4419  0.4620  0.0612
17454TIP3    H273854   0.390   1.882  15.355 -0.8837 -1.7412  0.7020
17455TIP3   OH273855   5.852   4.336  12.642 -0.7488 -0.2566 -0.1896
17455TIP3    H173856   5.893   4.249  12.637  1.9642  0.9232  0.5786
17455TIP3    H273857   5.847   4.365  12.551 -0.6344 -0.7389 -0.3540
17456TIP3   OH273858   4.126   1.001   1.623  0.2933  0.5087 -0.2873
17456TIP3    H173859   4.094   1.063   1.557  1.9193  1.2545 -0.4030
17456TIP3    H273860   4.047   0.973   1.670 -0.3610  3.7355  0.6962
17457TIP3   OH273861   1.170   1.956   5.232 -0.5808 -0.6482 -0.0785
17457TIP3    H173862   1.247   1.970   5.286 -1.3174  0.1439  0.7753
17457TIP3    H273863   1.205   1.932   5.146  0.6272  0.7977  0.0005
17458TIP3   OH273864   5.991   0.143  14.391 -0.0101  1.3829  0.2385
17458TIP3    H173865   6.037   0.156  14.308  0.3231  1.1659  0.3878
17458TIP3    H273866   6.059   0.119  14.453 -0.1689  2.2053  0.7378
17459TIP3   OH273867   3.626   6.759   6.311 -0.6374 -0.2064 -0.1197
17459TIP3    H173868   3.679   6.725   6.383 -1.4516  0.4299  0.8005
17459TIP3    H273869   3.596   6.845   6.342  2.1859  1.8596 -2.7471
17460TIP3   OH273870   3.375   2.339  12.742  0.6640 -0.4253 -0.2061
17460TIP3    H173871   3.290   2.368  12.711  2.0546  3.1358 -0.9169
17460TIP3    H273872   3.366   2.337  12.838 -0.2928 -0.2966 -0.2911
17461TIP3   OH273873   3.525   2.540   0.187 -0.1720  0.0671 -0.1268
17461TIP3    H173874   3.592   2.534   0.256 -1.0579 -0.9026  0.6586
17461TIP3    H273875   3.456   2.480   0.215 -0.5812 -0.2761 -1.8296
17462TIP3   OH273876   4.698   0.489  10.750 -0.2989 -0.3627 -0.3185
17462TIP3    H173877   4.621   0.482  10.694 -0.2546 -0.6686 -0.3399
17462TIP3    H273878   4.732   0.577  10.733 -0.7210 -0.1810 -0.2061
17463TIP3   OH273879   2.080   0.624   3.146  0.1808  0.0130 -0.1845
17463TIP3    H173880   2.101   0.603   3.237 -0.2135  1.5633  0.2800
17463TIP3    H273881   1.998   0.577   3.130  1.0413 -1.5149 -0.2452
17464TIP3   OH273882   2.208   0.871   2.257 -0.1602 -0.0209 -0.4195
17464TIP3    H173883   2.208   0.964   2.235 -1.9108  0.3153  0.9027
17464TIP3    H273884   2.145   0.832   2.197 -0.8156 -0.0352  0.2748
17465TIP3   OH273885   4.095   3.537  13.565 -0.1042  0.1636 -0.1155
17465TIP3    H173886   4.039   3.521  13.489 -0.9136  1.5956  0.1561
17465TIP3    H273887   4.146   3.614  13.541 -1.1925  1.3238  1.2338
17466TIP3   OH273888   3.698   1.876   6.632  0.2173  0.2025  0.1185
17466TIP3    H173889   3.762   1.921   6.689 -0.9919  0.5594  1.2268
17466TIP3    H273890   3.638   1.945   6.605 -1.1815 -0.5800  1.1668
17467TIP3   OH273891   1.607   1.645   1.492 -0.3198  0.0042  0.1663
17467TIP3    H173892   1.685   1.645   1.547 -0.6696 -1.0307  0.6805
17467TIP3    H273893   1.585   1.552   1.482 -1.4793  0.2865  0.0407
17468TIP3   OH273894   0.597   3.984  15.362  0.2155  0.1809 -0.3042
17468TIP3    H173895   0.509   3.969  15.328 -0.5287  4.0384 -0.3827
17468TIP3    H273896   0.583   4.027  15.446  2.0349 -0.7829  0.5062
17469TIP3   OH273897   5.943   2.152   1.402  0.0740  0.0349  0.0331
17469TIP3    H173898   6.016   2.095   1.426  0.5086  0.4245 -0.3411
17469TIP3    H273899   5.880   2.095   1.358  0.2039 -0.2783  0.2528
17470TIP3   OH273900   0.195   5.201   0.927  0.2069 -0.2575 -0.5113
17470TIP3    H173901   0.105   5.171   0.911 -0.7525  1.3195  1.6940
17470TIP3    H273902   0.189   5.296   0.925  1.5418 -0.1236  1.2057
17471TIP3   OH273903   0.752   5.263   6.569 -0.3771  0.2762  0.0522
17471TIP3    H173904   0.717   5.270   6.657 -0.3706  0.4037  0.0451
17471TIP3    H273905   0.692   5.205   6.523 -1.0830  1.2098 -0.2179
17472TIP3   OH273906   6.493   0.096   3.546  0.2020 -0.6220 -0.7464
17472TIP3    H173907   6.502   0.129   3.457  0.7101  3.4698  0.7249
17472TIP3    H273908   6.403   0.119   3.572  0.2305 -1.3010 -0.0106
17473TIP3   OH273909   4.168   0.294   5.036 -0.6040  0.7585 -0.1801
17473TIP3    H173910   4.203   0.348   4.965  0.2261 -0.8507 -1.0229
17473TIP3    H273911   4.204   0.332   5.115  0.9643  0.7286 -0.8531
17474TIP3   OH273912   0.910   2.113   4.263 -0.7735 -0.7523  0.6455
17474TIP3    H173913   0.853   2.101   4.188  0.8272 -2.8879 -0.2623
17474TIP3    H273914   0.909   2.029   4.308 -0.0799 -0.1237  1.8589
17475TIP3   OH273915   4.622   2.387  12.539  0.0458 -0.1540  0.5847
17475TIP3    H173916   4.706   2.355  12.507  0.3539 -0.5213  1.7213
17475TIP3    H273917   4.633   2.482  12.546  0.1021 -0.1161 -0.0154
17476TIP3   OH273918   5.360   1.666  15.802  0.4675 -0.2132 -0.0151
17476TIP3    H173919   5.403   1.751  15.789  0.8387 -0.3782  0.1242
17476TIP3    H273920   5.422   1.602  15.768  0.7092 -0.5190  0.9875
17477TIP3   OH273921   0.755   6.712   3.225  0.3046 -0.6751 -0.0087
17477TIP3    H173922   0.681   6.679   3.277 -0.1197 -1.0036 -0.8210
17477TIP3    H273923   0.816   6.747   3.291 -1.5016  1.5307  0.6015
17478TIP3   OH273924   5.065   4.701  10.890 -0.0234 -0.0051 -0.1738
17478TIP3    H173925   4.980   4.660  10.876 -1.5773  2.9293  0.2950
17478TIP3    H273926   5.096   4.722  10.801 -1.0654  1.3765 -0.2210
17479TIP3   OH273927   1.406   2.537   5.354  0.5406  0.2511  0.0839
17479TIP3    H173928   1.416   2.556   5.260  0.5753  0.7192  0.1806
17479TIP3    H273929   1.495   2.519   5.384  0.2768 -2.0409 -0.4201
17480TIP3   OH273930   1.615   5.347   2.685 -0.0362  0.0595  0.2794
17480TIP3    H173931   1.534   5.306   2.715 -0.9623  0.9154 -1.0211
17480TIP3    H273932   1.679   5.326   2.753 -1.3205 -0.6911  1.2727
17481TIP3   OH273933   0.978   0.495   5.872  0.0585 -0.1280 -0.2101
17481TIP3    H173934   0.898   0.500   5.926  0.6838  0.0712  0.7209
17481TIP3    H273935   0.967   0.416   5.820 -1.0263  0.2276 -0.5425
17482TIP3   OH273936   3.633   3.217   1.031 -0.1222 -0.2099  0.3172
17482TIP3    H173937   3.555   3.161   1.026  1.1682 -2.0879  1.0055
17482TIP3    H273938   3.653   3.236   0.939  0.6432 -2.6120 -0.0503
17483TIP3   OH273939   5.538   6.817   3.431  0.7470 -0.1011 -0.2344
17483TIP3    H173940   5.576   6.871   3.361  1.9156 -2.2052 -1.2806
17483TIP3    H273941   5.461   6.777   3.391 -0.5915  1.3702  0.7912
17484TIP3   OH273942   2.669   1.505   1.912  0.0928 -0.1259 -0.2904
17484TIP3    H173943   2.652   1.554   1.831  3.8875  1.6657 -0.1180
17484TIP3    H273944   2.649   1.567   1.982  2.1898  0.2530 -0.0072
17485TIP3   OH273945   6.340   0.562  11.933 -0.1033 -0.3803  0.2412
17485TIP3    H173946   6.425   0.538  11.969 -0.4434 -0.6407  0.8757
17485TIP3    H273947   6.320   0.492  11.870  0.8614  0.5041 -1.0622
17486TIP3   OH273948   3.277   3.335   0.910  0.0041  0.3706 -0.0775
17486TIP3    H173949   3.316   3.328   0.997  2.4001  2.0244 -0.9633
17486TIP3    H273950   3.189   3.369   0.926 -0.1275 -0.7659  1.7739
17487TIP3   OH273951   3.140   5.668  11.830  0.0556  0.2969  0.0989
17487TIP3    H173952   3.200   5.742  11.820 -0.4149  0.6560 -0.0681
17487TIP3    H273953   3.124   5.663  11.925  0.4069  0.1553  0.1507
17488TIP3   OH273954   2.850   3.776  10.584  0.0655  0.2913 -0.0523
17488TIP3    H173955   2.787   3.835  10.543 -1.1827 -0.2418  1.0384
17488TIP3    H273956   2.808   3.689  10.577  0.5864 -0.0341  0.8629
17489TIP3   OH273957   6.185   4.890   3.495 -0.1297  0.0263  0.6931
17489TIP3    H173958   6.213   4.965   3.548 -1.3928  0.7697  0.3482
17489TIP3    H273959   6.135   4.930   3.424 -1.4898 -1.1966  0.9507
17490TIP3   OH273960   6.267   4.719   2.869  0.2159  0.0294  0.2853
17490TIP3    H173961   6.176   4.697   2.887  0.6754 -1.3036  1.0185
17490TIP3    H273962   6.295   4.657   2.801  0.4666  0.6814 -0.2173
17491TIP3   OH273963   6.191   5.274   0.403  0.2184  0.0291 -0.0321
17491TIP3    H173964   6.137   5.199   0.429 -2.2128  1.2500 -1.3894
17491TIP3    H273965   6.177   5.339   0.472 -0.9443  0.7429 -0.9117
17492TIP3   OH273966   3.449   2.407   3.894 -0.1940  0.1587  0.1787
17492TIP3    H173967   3.377   2.465   3.870  1.4806  2.2069 -0.0910
17492TIP3    H273968   3.453   2.411   3.989  1.0590  2.0182  0.0919
17493TIP3   OH273969   6.347   4.624  15.439  0.3603  0.8501  0.3861
17493TIP3    H173970   6.321   4.673  15.361  1.4783  1.3000  0.2895
17493TIP3    H273971   6.394   4.548  15.405 -0.3136  0.3533  0.5746
17494TIP3   OH273972   1.693   1.172   1.969  0.0344 -0.0091  0.2620
17494TIP3    H173973   1.780   1.190   1.932  0.4790 -0.2767  1.1575
17494TIP3    H273974   1.703   1.088   2.013 -1.0304 -0.6472 -0.6905
17495TIP3   OH273975   1.801   5.016   3.050  0.4271  0.0598  0.2371
17495TIP3    H173976   1.737   5.051   3.113 -0.0706 -0.2628 -0.0854
17495TIP3    H273977   1.877   4.995   3.104  0.1289  0.1026  0.6858
17496TIP3   OH273978   0.958   0.654   6.732  0.0588 -0.3285 -0.1393
17496TIP3    H173979   1.051   0.668   6.714 -0.0377 -0.4807 -0.7474
17496TIP3    H273980   0.914   0.728   6.691 -0.0501  0.0037  0.5691
17497TIP3   OH273981   0.020   0.995  14.302  0.6753 -0.1795 -0.1028
17497TIP3    H173982   0.053   1.085  14.303 -2.3800  0.9915 -0.5318
17497TIP3    H273983  -0.015   0.985  14.213 -1.0906 -1.0144  0.6927
17498TIP3   OH273984   2.870   5.070  11.542 -0.2869 -0.0312  0.1135
17498TIP3    H173985   2.933   5.076  11.470 -0.5991  0.8524 -0.0881
17498TIP3    H273986   2.905   5.000  11.598  1.0337  0.6422  0.1644
17499TIP3   OH273987   5.462   2.785   0.048  0.0075  0.0501  0.2385
17499TIP3    H173988   5.516   2.744   0.115 -1.2464 -0.1965  1.1274
17499TIP3    H273989   5.372   2.770   0.078 -0.5567  0.2608 -1.3104
17500TIP3   OH273990   2.392   1.375   0.938  0.0832  0.2419 -0.5728
17500TIP3    H173991   2.342   1.385   1.019  1.8511 -1.9727  0.8410
17500TIP3    H273992   2.343   1.309   0.888  1.4610 -1.8666  0.7745
17501TIP3   OH273993   2.069   1.005   1.458 -0.2181 -0.0602  0.8473
17501TIP3    H173994   2.012   1.082   1.467 -0.2461  0.0404 -0.1366
17501TIP3    H273995   2.155   1.041   1.438 -0.3099 -0.3003  0.0242
17502TIP3   OH273996   3.384   3.651   5.876  0.0268 -0.1666 -0.5392
17502TIP3    H173997   3.461   3.655   5.819  0.6281  0.0271  0.2685
17502TIP3    H273998   3.362   3.743   5.894  0.0074 -0.2258 -0.2481
17503TIP3   OH273999   4.161   2.855   0.421  0.7540 -0.2798  0.0099
17503TIP3    H174000   4.081   2.892   0.456  0.5897 -1.2559  0.6982
17503TIP3    H274001   4.134   2.813   0.339  0.9750  1.2620 -0.8548
17504TIP3   OH274002   5.033   1.534  15.216 -1.0426 -0.2313  0.0504
17504TIP3    H174003   5.070   1.482  15.287  0.2131  0.4874 -0.0763
17504TIP3    H274004   5.000   1.468  15.154 -1.1220 -0.8651  0.7539
17505TIP3   OH274005   0.834   3.211  16.986 -0.4189 -0.0568 -0.3301
17505TIP3    H174006   0.800   3.126  17.011  0.1180  0.0233  0.7298
17505TIP3    H274007   0.901   3.230  17.052 -0.8425  1.3729 -0.3008
17506TIP3   OH274008   0.440   0.056   4.978 -0.4309  0.1294  0.1264
17506TIP3    H174009   0.361   0.036   4.928 -0.2514 -1.1346  0.3513
17506TIP3    H274010   0.462  -0.025   5.023  3.3508 -0.8804 -3.1850
17507TIP3   OH274011   1.108   5.104  14.710  0.3455  0.3239 -0.5218
17507TIP3    H174012   1.121   5.152  14.792  1.7384  1.5602 -1.4478
17507TIP3    H274013   1.191   5.058  14.696 -0.1777 -0.5474 -0.8300
17508TIP3   OH274014   4.099   5.883  12.779  0.2182 -0.2123  0.0887
17508TIP3    H174015   4.087   5.953  12.843  0.6008  0.1939 -0.2760
17508TIP3    H274016   4.129   5.928  12.700 -1.2375 -0.5793 -0.6978
17509TIP3   OH274017   3.919   6.185  16.635  0.2888  0.3525 -0.0687
17509TIP3    H174018   3.826   6.170  16.651  0.4071  0.2744  0.5523
17509TIP3    H274019   3.964   6.120  16.689  0.7376  1.2922  0.6999
17510TIP3   OH274020   3.801   0.375  15.710 -0.5759 -0.3304 -0.3674
17510TIP3    H174021   3.845   0.420  15.638 -1.8273  1.5852  0.0326
17510TIP3    H274022   3.856   0.390  15.786  0.3101 -1.6477 -0.7256
17511TIP3   OH274023   1.974   6.153   5.236 -0.4471 -0.7164 -0.9431
17511TIP3    H174024   1.919   6.158   5.158 -0.7252 -2.0768 -0.8359
17511TIP3    H274025   1.924   6.099   5.297 -0.1891  0.2517  0.1567
17512TIP3   OH274026   5.964   5.072   5.769 -0.6212  0.3412  0.1106
17512TIP3    H174027   5.871   5.092   5.773 -0.3665  1.6246 -0.0547
17512TIP3    H274028   6.007   5.155   5.788  0.4974  0.1300 -1.4036
17513TIP3   OH274029   2.818   4.698  17.245 -0.4545 -0.0145  0.0485
17513TIP3    H174030   2.801   4.630  17.180  1.2617  0.6585 -1.1195
17513TIP3    H274031   2.912   4.691  17.263 -0.7374  0.4204  1.7731
17514TIP3   OH274032   3.589   3.309   0.511 -0.3734  0.4799 -0.1943
17514TIP3    H174033   3.620   3.320   0.601 -0.4732  1.1692 -0.2455
17514TIP3    H274034   3.495   3.293   0.521 -0.4170  0.7414 -0.1903
17515TIP3   OH274035   4.070   2.620  15.284  0.4077 -0.6916 -0.5247
17515TIP3    H174036   4.027   2.606  15.199 -0.7803  2.4316 -0.5348
17515TIP3    H274037   3.999   2.613  15.348  1.0464 -1.6732  0.0757
17516TIP3   OH274038   5.118   1.238   1.003  0.7239 -0.6943 -0.0505
17516TIP3    H174039   5.057   1.164   1.007  0.1615 -0.1989  0.6975
17516TIP3    H274040   5.063   1.312   0.978  1.2575 -0.4911 -0.6313
17517TIP3   OH274041   0.762   3.523   4.940 -0.3922  0.0331 -0.2211
17517TIP3    H174042   0.834   3.466   4.914 -0.0178  1.4243 -2.3219
17517TIP3    H274043   0.698   3.464   4.980  1.1521 -1.4522  0.1169
17518TIP3   OH274044   1.229   2.939  12.254  0.4140  0.0293  0.5624
17518TIP3    H174045   1.238   2.943  12.159  0.4921 -0.0165  0.5690
17518TIP3    H274046   1.287   3.008  12.287  0.8750 -0.3813  0.6095
17519TIP3   OH274047   1.690   0.900  10.871 -0.2019 -0.3521 -0.4555
17519TIP3    H174048   1.783   0.915  10.854 -0.0015  0.0971  1.0252
17519TIP3    H274049   1.645   0.966  10.818  0.2575 -1.1715 -1.9134
17520TIP3   OH274050   5.106   5.516   1.309 -0.1515  0.0427  0.2107
17520TIP3    H174051   5.197   5.539   1.327 -0.3353  1.7634 -0.9320
17520TIP3    H274052   5.075   5.584   1.249 -1.2183 -2.3435 -2.0512
17521TIP3   OH274053   6.664   2.231   4.134 -0.8891 -0.2565  0.2594
17521TIP3    H174054   6.651   2.229   4.039 -0.5454  1.2670  0.1547
17521TIP3    H274055   6.643   2.321   4.158 -1.1777 -0.6930  1.6657
17522TIP3   OH274056   4.742   2.214   1.019 -0.1153  0.0271 -0.3816
17522TIP3    H174057   4.802   2.184   1.088  1.3484  0.6758 -1.3475
17522TIP3    H274058   4.763   2.307   1.008 -2.4067  0.6548  0.3502
17523TIP3   OH274059   1.421   4.914   2.571  0.1311 -0.3778 -0.6395
17523TIP3    H174060   1.362   4.839   2.581 -1.3187  1.0531  2.4498
17523TIP3    H274061   1.508   4.876   2.570 -0.5559 -2.1534  1.2386
17524TIP3   OH274062   1.435   3.554   1.802  0.9576 -0.1283 -0.0806
17524TIP3    H174063   1.364   3.558   1.737  0.3651  1.0313  0.6172
17524TIP3    H274064   1.483   3.636   1.789 -0.1179  0.8702  1.9878
17525TIP3   OH274065   5.577   6.566   4.297  0.5117 -0.5636  0.0967
17525TIP3    H174066   5.608   6.586   4.209  0.9551 -0.2234  0.3314
17525TIP3    H274067   5.643   6.507   4.333 -0.2942 -1.6989 -0.2364
17526TIP3   OH274068   5.108   0.534  14.778  0.2601 -0.0357  0.2246
17526TIP3    H174069   5.109   0.485  14.860  0.7434  0.4042  0.4766
17526TIP3    H274070   5.100   0.467  14.710  0.5006 -0.4362  0.5940
17527TIP3   OH274071   2.845   1.909   0.114  0.1227  0.4953 -0.2925
17527TIP3    H174072   2.853   1.822   0.151  1.3699  0.1039 -1.4130
17527TIP3    H274073   2.936   1.936   0.097 -0.2695  1.8499 -0.2791
17528TIP3   OH274074   1.789   5.875  11.966 -0.3256 -0.3014 -0.2416
17528TIP3    H174075   1.823   5.837  11.884 -0.5274 -0.1431 -0.3986
17528TIP3    H274076   1.822   5.817  12.034 -0.3393 -0.5619 -0.4536
17529TIP3   OH274077   2.948   6.122   2.761 -0.0579 -0.4925 -0.1405
17529TIP3    H174078   2.989   6.046   2.803  1.2685 -0.7390 -1.8305
17529TIP3    H274079   2.909   6.087   2.681 -1.8359  0.1254  0.4302
17530TIP3   OH274080   6.315   1.193  13.568 -0.5874 -0.1084  0.1158
17530TIP3    H174081   6.267   1.126  13.519 -1.6148 -0.5252  1.6237
17530TIP3    H274082   6.402   1.195  13.528 -1.2679 -0.7217 -1.4277
17531TIP3   OH274083   3.993   4.460   3.125  0.0541  0.0359 -0.1369
17531TIP3    H174084   4.068   4.442   3.182 -0.0713 -0.9206 -0.2603
17531TIP3    H274085   4.031   4.499   3.046  0.3657  0.1117  0.0523
17532TIP3   OH274086   0.697   5.841   1.064 -0.2877 -0.2534 -0.1947
17532TIP3    H174087   0.738   5.833   1.150  0.1382 -3.0116 -0.6292
17532TIP3    H274088   0.650   5.924   1.068 -1.0670 -0.8010  3.0300
17533TIP3   OH274089   2.408   5.042  15.007 -0.0912  0.5763  0.4484
17533TIP3    H174090   2.392   5.109  15.073 -3.2279  1.5087 -1.1849
17533TIP3    H274091   2.441   5.090  14.931 -1.3970  0.1624 -0.3905
17534TIP3   OH274092   3.253   4.631  15.680 -0.7450 -0.0590 -0.4043
17534TIP3    H174093   3.293   4.697  15.737  0.8471 -1.0858 -0.3053
17534TIP3    H274094   3.173   4.605  15.726  0.4073 -0.7165  1.2568
17535TIP3   OH274095   1.916   2.913   1.641  0.3777  0.1651 -0.6484
17535TIP3    H174096   1.897   2.833   1.591 -0.1163 -0.5848  0.7332
17535TIP3    H274097   1.938   2.882   1.728 -4.1972  1.7646  1.2029
17536TIP3   OH274098   4.650   2.318   4.830 -0.3255  0.6343 -0.2682
17536TIP3    H174099   4.726   2.371   4.853  0.5687 -0.3686 -0.8482
17536TIP3    H274100   4.591   2.328   4.904 -0.1253  2.3355 -0.3154
17537TIP3   OH274101   5.907   5.025  13.939 -0.3224  0.2949 -0.0501
17537TIP3    H174102   5.872   5.085  13.873  1.7434  0.0988 -1.3824
17537TIP3    H274103   5.995   5.059  13.958  0.1923 -1.2800  0.4887
17538TIP3   OH274104   3.741   3.831  16.178  0.5159  0.4124  0.0818
17538TIP3    H174105   3.790   3.754  16.205 -0.1899 -0.1801 -0.2978
17538TIP3    H274106   3.729   3.820  16.084 -1.8660 -0.3600  0.4352
17539TIP3   OH274107   1.336   5.342  12.334  0.4606 -0.2394 -0.4327
17539TIP3    H174108   1.368   5.430  12.354  0.4109 -0.3708  0.2400
17539TIP3    H274109   1.378   5.286  12.398 -1.9034 -0.2733  1.1643
17540TIP3   OH274110   5.147   1.109   4.680  0.0112 -0.1361  0.2291
17540TIP3    H174111   5.140   1.203   4.666 -1.3146 -0.3800 -0.8983
17540TIP3    H274112   5.226   1.083   4.634 -0.6735  0.1375 -1.1420
17541TIP3   OH274113   1.969   1.209   2.544  0.3193  0.6513 -0.0021
17541TIP3    H174114   2.029   1.274   2.580 -0.1795  1.5586 -0.7834
17541TIP3    H274115   1.972   1.223   2.450 -1.6424  1.1945 -0.0091
17542TIP3   OH274116   1.697   0.386   0.735  0.4690  0.0467 -0.6970
17542TIP3    H174117   1.702   0.300   0.692 -2.6608 -0.2241 -0.6893
17542TIP3    H274118   1.603   0.398   0.752  1.0579  2.6801  0.9418
17543TIP3   OH274119   0.401   6.021  16.007 -0.6015  0.5841 -0.0959
17543TIP3    H174120   0.318   5.974  16.013 -0.4499  0.4902  1.4812
17543TIP3    H274121   0.468   5.954  16.021 -0.2309  0.5748 -1.8360
17544TIP3   OH274122   1.947   2.071  15.842  0.3192  0.2340  0.3566
17544TIP3    H174123   1.978   2.054  15.753 -0.8994  0.1586 -0.0600
17544TIP3    H274124   1.898   2.153  15.836 -1.2439 -0.6648  0.5972
17545TIP3   OH274125   3.278   2.216   3.756 -0.4905  0.0395 -0.3047
17545TIP3    H174126   3.229   2.253   3.683 -3.7044 -0.3380  1.5884
17545TIP3    H274127   3.342   2.283   3.779  0.0129  0.4810 -2.9191
17546TIP3   OH274128   0.506   5.266   5.520 -0.1645  0.3768  0.0289
17546TIP3    H174129   0.413   5.289   5.530 -0.1398  0.9007 -0.9433
17546TIP3    H274130   0.540   5.329   5.458  0.7218 -0.1676 -0.0430
17547TIP3   OH274131   0.458   4.914  13.521 -0.1577  0.2054 -0.1174
17547TIP3    H174132   0.464   5.003  13.555 -0.0460  0.2644 -0.2884
17547TIP3    H274133   0.534   4.869  13.558 -0.3001  0.1392  0.0939
17548TIP3   OH274134   2.758   6.736   2.542  0.2359  0.0197 -0.6163
17548TIP3    H174135   2.727   6.719   2.631  0.9886 -1.8108 -0.6629
17548TIP3    H274136   2.795   6.824   2.545 -0.1107  0.1287  0.7714
17549TIP3   OH274137   1.885   1.544   2.778  0.4454  0.5728 -0.5370
17549TIP3    H174138   1.950   1.507   2.718  1.7142  0.1547  1.0534
17549TIP3    H274139   1.878   1.479   2.848 -1.9545  0.4549 -0.8502
17550TIP3   OH274140   6.318   4.349   2.068 -0.2473  0.3255  0.2194
17550TIP3    H174141   6.381   4.405   2.023 -0.1301 -0.3034 -0.3919
17550TIP3    H274142   6.244   4.408   2.088  0.3743  0.9785  0.6314
17551TIP3   OH274143   0.389   6.278  15.001 -0.1750  0.3601 -0.0053
17551TIP3    H174144   0.329   6.345  15.034 -0.2690  0.1695  0.2219
17551TIP3    H274145   0.451   6.325  14.946 -0.1590  0.6513  0.2621
17552TIP3   OH274146   3.787   6.519  13.919  0.4673 -0.1857 -0.4585
17552TIP3    H174147   3.770   6.541  14.010  0.9424 -0.7940 -0.2210
17552TIP3    H274148   3.851   6.448  13.923  0.8989  0.1478 -1.2730
17553TIP3   OH274149   3.790   1.738   3.287  0.5165 -0.3922  0.3325
17553TIP3    H174150   3.760   1.756   3.198  2.1124  0.3901 -0.0751
17553TIP3    H274151   3.839   1.657   3.280  2.3582  0.7090  0.0759
17554TIP3   OH274152   1.258   0.124  13.948 -0.1368 -0.8125 -0.0795
17554TIP3    H174153   1.308   0.082  13.879 -0.3418  0.1902 -0.8377
17554TIP3    H274154   1.180   0.159  13.904 -1.2093 -1.8106  0.9716
17555TIP3   OH274155   1.255   2.801   6.385 -0.9030 -0.1431 -0.0920
17555TIP3    H174156   1.348   2.792   6.365 -0.8243 -0.4107  0.3718
17555TIP3    H274157   1.244   2.755   6.469 -1.4038  0.0925 -0.0242
17556TIP3   OH274158   2.650   6.688   4.316  0.1166  0.3233  0.3025
17556TIP3    H174159   2.675   6.613   4.261  0.4759  0.4597  0.2798
17556TIP3    H274160   2.626   6.756   4.253  0.4729  0.4605  0.3110
17557TIP3   OH274161   3.610   5.168  12.406 -0.3395  0.1041 -0.8754
17557TIP3    H174162   3.694   5.213  12.410 -1.4640  2.3312 -1.8603
17557TIP3    H274163   3.564   5.208  12.333 -2.3471 -0.9688 -0.2432
17558TIP3   OH274164   4.884   0.711  14.247 -0.7037 -0.0968 -0.4719
17558TIP3    H174165   4.930   0.708  14.163 -0.4296 -1.8446 -0.2631
17558TIP3    H274166   4.829   0.633  14.247 -1.7038  0.6031  0.4127
17559TIP3   OH274167   5.164   3.329   2.389  0.3101  0.2821  0.2314
17559TIP3    H174168   5.120   3.268   2.449 -0.2776 -0.4358 -0.9176
17559TIP3    H274169   5.233   3.277   2.348 -1.1172 -0.0535 -1.8338
17560TIP3   OH274170   4.699   5.991   0.991 -0.2900 -0.2548 -0.4602
17560TIP3    H174171   4.620   5.940   1.013 -1.2239  0.6563 -1.6643
17560TIP3    H274172   4.702   5.990   0.896  0.8271  0.2275 -0.4291
17561TIP3   OH274173   5.728   3.089   5.217  0.3718 -0.2424  0.4474
17561TIP3    H174174   5.762   3.149   5.284 -1.0611  1.7401 -0.5517
17561TIP3    H274175   5.635   3.079   5.239 -0.0385  0.1576 -1.0203
17562TIP3   OH274176   2.067   3.011   4.760  0.2411  0.1112 -0.1360
17562TIP3    H174177   2.021   3.055   4.689  1.6168  0.3545 -0.8834
17562TIP3    H274178   2.110   3.081   4.808  2.0967 -0.3643 -1.0779
17563TIP3   OH274179   5.207   4.681   0.895  0.3912  0.1094 -0.0413
17563TIP3    H174180   5.250   4.734   0.962 -0.3936  1.2381 -0.4168
17563TIP3    H274181   5.256   4.699   0.815  1.2802 -1.1817  0.1771
17564TIP3   OH274182   5.968   5.343  10.580 -0.9165 -0.0759 -0.1352
17564TIP3    H174183   5.895   5.324  10.521 -0.4559 -0.3720 -0.6052
17564TIP3    H274184   5.927   5.390  10.653 -1.6564 -0.6856 -0.1516
17565TIP3   OH274185   5.068   5.041  12.978  0.8935  0.2202 -0.2390
17565TIP3    H174186   5.033   4.967  12.929 -2.2235  0.4244  1.4932
17565TIP3    H274187   5.131   5.002  13.039 -1.3478 -1.2209  1.2490
17566TIP3   OH274188   0.638   3.649  10.966 -0.0463  0.2966  0.0002
17566TIP3    H174189   0.723   3.604  10.971  1.4050  3.0639  1.1528
17566TIP3    H274190   0.606   3.649  11.056 -0.8004  0.1508 -0.2674
17567TIP3   OH274191   3.890   1.601  12.891 -0.1555 -0.5967  0.0125
17567TIP3    H174192   3.886   1.527  12.831  0.4664 -1.3053  0.8299
17567TIP3    H274193   3.857   1.566  12.974  0.1673  0.0367  0.4118
17568TIP3   OH274194   5.428   0.721   2.187  0.2264  0.2819  0.5532
17568TIP3    H174195   5.522   0.735   2.189  0.3037 -0.0985 -0.1920
17568TIP3    H274196   5.392   0.804   2.154  0.2947  0.4164  0.8099
17569TIP3   OH274197   2.431   2.208   1.543 -0.3236 -0.4901 -0.7266
17569TIP3    H174198   2.493   2.243   1.479  0.1396 -1.1230 -0.6335
17569TIP3    H274199   2.345   2.233   1.509 -0.0027  0.5898 -0.7325
17570TIP3   OH274200   0.660   0.613   6.258 -0.1372 -0.0177  0.1030
17570TIP3    H174201   0.573   0.616   6.217  0.4959  0.8121 -1.2527
17570TIP3    H274202   0.675   0.703   6.289  1.2321  0.4969 -1.9032
17571TIP3   OH274203   5.162   0.713   3.192 -0.3455  0.3507 -0.5422
17571TIP3    H174204   5.121   0.709   3.106 -0.2033 -0.6930 -0.5610
17571TIP3    H274205   5.216   0.792   3.189  0.6901 -0.3862 -1.8610
17572TIP3   OH274206   6.777   1.151   1.482 -0.1249  0.3237 -0.9021
17572TIP3    H174207   6.729   1.120   1.405 -1.8069 -0.2743  0.3474
17572TIP3    H274208   6.798   1.071   1.531 -2.6783  0.8956  1.2950
17573TIP3   OH274209   4.680   5.559  15.438  0.4459 -0.3600 -0.2612
17573TIP3    H174210   4.632   5.616  15.378 -1.1639  0.5249  1.8235
17573TIP3    H274211   4.754   5.528  15.386  0.6929  2.6426 -1.8529
17574TIP3   OH274212   6.002   5.240   4.432 -0.1444  0.0311  0.4292
17574TIP3    H174213   5.964   5.327   4.441  0.7496  0.3784  0.8464
17574TIP3    H274214   5.939   5.193   4.377 -1.4951  0.3963  1.6400
17575TIP3   OH274215   0.867   3.752   5.056  0.0810 -0.3156 -0.0520
17575TIP3    H174216   0.817   3.674   5.033 -0.3169 -0.1587  0.2792
17575TIP3    H274217   0.816   3.825   5.021 -0.4346 -0.0874  1.1430
17576TIP3   OH274218   6.469   6.054   4.974  0.4042  0.3745  0.8412
17576TIP3    H174219   6.557   6.028   5.003  0.0734 -2.2761 -0.3398
17576TIP3    H274220   6.425   6.084   5.053  1.9866  0.6100  1.6619
17577TIP3   OH274221   5.284   0.821   1.755  0.0744  1.1183  0.0176
17577TIP3    H174222   5.314   0.756   1.691  1.5157  0.7050  1.0935
17577TIP3    H274223   5.266   0.770   1.834  0.0427  1.8637  0.4941
17578TIP3   OH274224   2.353   0.199   0.633 -0.0303  0.0170  0.0236
17578TIP3    H174225   2.375   0.285   0.669  1.0343 -1.0584  2.0668
17578TIP3    H274226   2.288   0.163   0.694 -1.6681 -0.0007 -1.6952
17579TIP3   OH274227   2.457   2.737  16.647 -0.9739 -0.2301  0.0802
17579TIP3    H174228   2.379   2.685  16.666 -0.3611 -1.0842  0.2933
17579TIP3    H274229   2.530   2.678  16.666 -0.2810  0.4961 -0.3093
17580TIP3   OH274230   3.246   6.801  12.461  0.5087  0.4170 -0.8533
17580TIP3    H174231   3.283   6.857  12.529  0.9631 -0.0678 -0.6853
17580TIP3    H274232   3.310   6.805  12.390  0.9926 -0.5568 -0.4979
17581TIP3   OH274233   6.673   0.208   1.745 -0.1262 -0.3865  0.3687
17581TIP3    H174234   6.618   0.177   1.672 -0.0293  3.1310 -1.2768
17581TIP3    H274235   6.615   0.261   1.798  0.5664 -0.4699  1.2101
17582TIP3   OH274236   2.151   1.999  11.683  0.1635 -0.3929  0.0466
17582TIP3    H174237   2.081   2.057  11.652  0.2084 -1.0198 -1.2534
17582TIP3    H274238   2.228   2.056  11.689 -0.1420  0.0058  0.2007
17583TIP3   OH274239   0.405   4.647   3.413 -0.3160  0.2324  0.4078
17583TIP3    H174240   0.461   4.710   3.368 -0.1253 -0.4208 -0.2839
17583TIP3    H274241   0.451   4.629   3.496 -0.0669  0.5468  0.3372
17584TIP3   OH274242   1.447   4.854  13.163  0.0727  0.0931 -0.8881
17584TIP3    H174243   1.464   4.909  13.086  0.5705  2.3862  0.7876
17584TIP3    H274244   1.493   4.899  13.234 -1.4518 -1.2628  0.9957
17585TIP3   OH274245   0.001   6.557  11.860 -0.1009  0.9187 -0.4506
17585TIP3    H174246  -0.011   6.623  11.928  0.5828  0.5139  0.0602
17585TIP3    H274247  -0.079   6.504  11.863  0.1340  0.6093  0.3525
17586TIP3   OH274248   4.713   5.948  13.696  0.1981  0.3546  0.4891
17586TIP3    H174249   4.735   5.895  13.620  3.0580  1.1514  0.7320
17586TIP3    H274250   4.656   5.891  13.749 -2.3966  0.0323 -2.4908
17587TIP3   OH274251   4.635   6.403   1.326  0.6036  0.0907  0.4425
17587TIP3    H174252   4.606   6.477   1.379  0.6612  0.8515 -0.5680
17587TIP3    H274253   4.704   6.439   1.270  1.9215 -1.1640  1.2285
17588TIP3   OH274254   0.364   2.553   1.532 -0.1784  0.3635 -0.3443
17588TIP3    H174255   0.409   2.475   1.564 -2.1602 -0.4820  0.4452
17588TIP3    H274256   0.409   2.626   1.574  1.2903 -0.3695 -0.5975
17589TIP3   OH274257   3.516   5.362   0.433  0.1747  0.4270  0.3062
17589TIP3    H174258   3.579   5.386   0.365 -0.2608  1.6524  0.3165
17589TIP3    H274259   3.520   5.434   0.496  0.6699 -0.7626  1.6637
17590TIP3   OH274260   1.914   1.963  13.162  0.0101 -0.2734  0.2460
17590TIP3    H174261   1.975   2.036  13.152 -0.0512 -0.2186  0.2694
17590TIP3    H274262   1.880   1.946  13.074 -1.0541  0.6634  0.4625
17591TIP3   OH274263   1.786   3.989   3.029 -0.3791 -0.5701  0.2677
17591TIP3    H174264   1.818   3.907   2.992  2.6357  0.9471 -0.6897
17591TIP3    H274265   1.836   4.000   3.110 -1.5194 -0.2046  0.9306
17592TIP3   OH274266   2.971   0.440  11.358  0.0192  0.0188 -0.1866
17592TIP3    H174267   3.043   0.501  11.372 -0.1465  0.4906 -1.3560
17592TIP3    H274268   2.941   0.458  11.269 -0.9163 -0.8343 -0.0530
17593TIP3   OH274269   4.644   4.415   4.471  0.0970 -0.0743  0.0945
17593TIP3    H174270   4.601   4.330   4.466 -0.0781  0.1339 -6.0878
17593TIP3    H274271   4.572   4.477   4.480 -0.3185 -0.3020 -1.3737
17594TIP3   OH274272   0.797   1.455  16.929 -0.0008  0.1393  0.1715
17594TIP3    H174273   0.861   1.466  16.858 -0.6938 -0.4546 -0.5669
17594TIP3    H274274   0.786   1.542  16.966  0.4553  0.4354 -0.3886
17595TIP3   OH274275   6.585   4.637   1.215 -0.4048  0.1414 -0.2272
17595TIP3    H174276   6.558   4.556   1.173 -0.6979 -0.4174  1.0151
17595TIP3    H274277   6.667   4.614   1.260  0.2673  0.9044 -1.0528
17596TIP3   OH274278   3.820   0.377   3.381 -0.1786 -0.1641 -0.4441
17596TIP3    H174279   3.730   0.374   3.350  0.5032 -2.5303 -2.3156
17596TIP3    H274280   3.832   0.293   3.427  1.2407 -0.1068 -0.6990
17597TIP3   OH274281   2.134   3.098   3.582 -0.0375 -0.3847  0.1787
17597TIP3    H174282   2.222   3.107   3.621 -0.8592 -0.4449  2.1207
17597TIP3    H274283   2.076   3.139   3.646 -1.5518 -1.3076 -0.5950
17598TIP3   OH274284   6.610   2.827   4.330  0.0647  0.4417  0.1591
17598TIP3    H174285   6.543   2.837   4.398 -0.1264  0.3556 -0.0121
17598TIP3    H274286   6.683   2.881   4.359  0.5592 -0.7521  1.1525
17599TIP3   OH274287   1.797   4.363   2.577 -0.5559  0.2878  0.2566
17599TIP3    H174288   1.829   4.288   2.526 -0.3574 -0.1318  0.9988
17599TIP3    H274289   1.765   4.424   2.511 -0.1045 -0.1655 -0.3910
17600TIP3   OH274290   5.700   1.925  10.853  0.0509 -0.9744  0.1678
17600TIP3    H174291   5.647   2.004  10.838 -0.7034 -1.4600  0.2394
17600TIP3    H274292   5.714   1.888  10.766  0.6364 -0.6196  0.1073
17601TIP3   OH274293   6.199   1.374   3.829 -0.1067  0.2213  0.1626
17601TIP3    H174294   6.207   1.402   3.921  1.7597  0.3740 -0.0309
17601TIP3    H274295   6.289   1.374   3.796 -0.8958  1.5604 -2.0887
17602TIP3   OH274296   1.316   1.170   0.762  0.2236  0.4339 -0.3268
17602TIP3    H174297   1.237   1.127   0.729 -0.0783  0.6167  0.1503
17602TIP3    H274298   1.333   1.240   0.700  0.7466 -0.3918 -1.1411
17603TIP3   OH274299   4.336   4.808  16.625  0.2410  0.0564 -0.3500
17603TIP3    H174300   4.359   4.794  16.716 -0.4523 -1.5629 -0.4039
17603TIP3    H274301   4.418   4.796  16.577  0.3729 -0.2146 -0.0515
17604TIP3   OH274302   0.923   5.234   0.129 -0.4589  0.1482  0.0948
17604TIP3    H174303   0.948   5.144   0.147  1.1397  0.3633 -0.9796
17604TIP3    H274304   0.843   5.227   0.076  0.8413 -0.6985 -1.8085
17605TIP3   OH274305   4.501   5.839   2.240  0.2469 -0.5933  0.2075
17605TIP3    H174306   4.515   5.924   2.198  1.0290 -1.4984 -1.4127
17605TIP3    H274307   4.467   5.861   2.327 -0.9342  1.3363 -0.7029
17606TIP3   OH274308   4.629   6.604   2.773 -0.4025  0.0089 -0.4424
17606TIP3    H174309   4.661   6.652   2.849  0.1678 -1.6883  0.4206
17606TIP3    H274310   4.706   6.588   2.720 -0.8406  1.4248 -1.5446
17607TIP3   OH274311   6.227   3.327  12.211  0.1224  0.1582  0.0455
17607TIP3    H174312   6.164   3.257  12.224 -0.1462  0.9123  3.2829
17607TIP3    H274313   6.310   3.292  12.245 -0.0656  1.4270  1.9062
17608TIP3   OH274314   5.004   0.313   1.479 -0.0297 -0.0821  0.2867
17608TIP3    H174315   4.958   0.397   1.483 -1.1039 -0.5838 -1.3811
17608TIP3    H274316   4.993   0.283   1.389  3.9101 -0.0266 -0.2963
17609TIP3   OH274317   6.002   1.565   3.861  0.1879 -0.2566 -0.2774
17609TIP3    H174318   6.080   1.511   3.853 -1.2364 -2.1801 -1.7324
17609TIP3    H274319   5.985   1.596   3.772 -0.7424  0.0984  0.0165
17610TIP3   OH274320   5.075   5.466  11.280  0.3121  0.6061 -0.3887
17610TIP3    H174321   5.130   5.395  11.246  0.2854 -0.5620  1.9219
17610TIP3    H274322   4.999   5.467  11.222  0.4488 -1.0649 -0.6373
17611TIP3   OH274323   6.635   4.858  15.186 -0.2959 -0.2515 -0.0307
17611TIP3    H174324   6.710   4.821  15.231 -0.6661  1.0769  1.7243
17611TIP3    H274325   6.603   4.788  15.129  0.7863 -1.6147  1.0360
17612TIP3   OH274326   1.725   1.602   3.133  0.4657  0.5593 -0.1329
17612TIP3    H174327   1.795   1.622   3.070  0.4770 -1.6435 -0.8587
17612TIP3    H274328   1.664   1.547   3.085  0.9929 -2.0242  2.0668
17613TIP3   OH274329   2.570   0.210   5.299  0.1528 -0.5204  0.4863
17613TIP3    H174330   2.500   0.188   5.237  1.4924 -2.0290 -0.5117
17613TIP3    H274331   2.621   0.278   5.256 -0.3652  0.1929  0.9864
17614TIP3   OH274332   2.662   1.544  12.380 -0.3818 -0.5177 -1.0414
17614TIP3    H174333   2.668   1.636  12.355  0.5501 -0.3303 -0.1772
17614TIP3    H274334   2.697   1.497  12.304 -1.0038 -0.1677 -1.5443
17615TIP3   OH274335   1.106   3.697   4.940 -1.0741 -0.3943  0.1060
17615TIP3    H174336   1.022   3.695   4.987 -1.4018  2.3369 -0.3067
17615TIP3    H274337   1.159   3.759   4.990  0.5692 -1.8004  0.1166
17616TIP3   OH274338   5.378   5.979   2.311  0.4714 -0.0932 -0.2508
17616TIP3    H174339   5.401   6.046   2.246 -0.3439  0.6391  0.2104
17616TIP3    H274340   5.323   5.917   2.263  1.8238 -0.8290 -0.8651
17617TIP3   OH274341   2.409   4.448   2.842  0.2431 -0.8360  0.6328
17617TIP3    H174342   2.370   4.516   2.788  1.9213 -1.7054 -1.7474
17617TIP3    H274343   2.334   4.396   2.873 -0.9153  1.0934  1.1367
17618TIP3   OH274344   3.998   5.988  15.942 -0.4939 -0.0103  0.3085
17618TIP3    H174345   3.926   6.051  15.950 -0.5572  0.0939 -1.0945
17618TIP3    H274346   3.959   5.912  15.900  0.0101 -0.3137  0.3876
17619TIP3   OH274347   6.084   1.497  14.889 -0.1930 -0.5869 -0.1391
17619TIP3    H174348   6.014   1.467  14.946  0.1552 -2.4838 -0.6737
17619TIP3    H274349   6.146   1.425  14.886  1.8031  1.0616  0.3144
17620TIP3   OH274350   6.244   0.601  16.427 -0.1177  0.0907 -0.3765
17620TIP3    H174351   6.270   0.687  16.458 -0.0972 -0.6445  1.7807
17620TIP3    H274352   6.291   0.589  16.345  0.3032  1.9021 -0.4111
17621TIP3   OH274353   4.672   6.309  15.595 -0.0470 -0.3180 -0.5982
17621TIP3    H174354   4.697   6.365  15.521  0.3439  0.8823  0.4125
17621TIP3    H274355   4.703   6.222  15.570  0.4644  0.1468 -1.6670
17622TIP3   OH274356   6.139   5.717  16.058  0.3540 -0.2505  0.4631
17622TIP3    H174357   6.076   5.646  16.048  0.1442 -0.0465  0.3421
17622TIP3    H274358   6.086   5.797  16.058  0.4893 -0.1497  1.6012
17623TIP3   OH274359   5.024   5.212   5.451  0.1928  0.0679  0.4661
17623TIP3    H174360   4.987   5.197   5.364 -0.2484  2.3182  0.2477
17623TIP3    H274361   5.117   5.225   5.436  0.0975  0.5785  0.3205
17624TIP3   OH274362   1.338   6.405   1.118  0.5413 -0.2972  0.3246
17624TIP3    H174363   1.414   6.448   1.079 -0.3184 -0.1943 -1.2734
17624TIP3    H274364   1.277   6.476   1.135  0.6457 -0.4267  1.2559
17625TIP3   OH274365   4.374   3.882   0.214  0.0266  0.0453  0.3564
17625TIP3    H174366   4.315   3.956   0.225  1.0936  0.8900  0.5493
17625TIP3    H274367   4.406   3.889   0.124  0.6180  0.1942  0.5742
17626TIP3   OH274368   5.951   5.287  16.184 -0.0938 -0.5323  0.1386
17626TIP3    H174369   6.022   5.316  16.241  0.5759 -1.0970 -0.3976
17626TIP3    H274370   5.987   5.211  16.138 -0.8081 -0.4071 -0.6379
17627TIP3   OH274371   5.000   5.950  13.795 -0.1379 -0.6249  0.2430
17627TIP3    H174372   4.981   5.891  13.868 -3.3320 -0.3478 -0.2959
17627TIP3    H274373   4.915   5.965  13.753  1.1080  1.8181 -1.5686
17628TIP3   OH274374   2.456   0.688   1.240 -0.2923 -0.3693 -0.2402
17628TIP3    H174375   2.395   0.732   1.299 -0.1930 -1.7477  0.9077
17628TIP3    H274376   2.523   0.753   1.221 -1.8742  1.0257 -1.1683
17629TIP3   OH274377   4.145   4.887  13.523  0.0545  0.0370  0.5895
17629TIP3    H174378   4.131   4.816  13.585  0.0989 -0.4378  0.0553
17629TIP3    H274379   4.236   4.915  13.538  0.8011 -1.5600 -0.7856
17630TIP3   OH274380   1.231   2.918   3.030  0.0594 -0.3934 -0.0895
17630TIP3    H174381   1.293   2.987   3.009  0.5485 -0.7449  0.1981
17630TIP3    H274382   1.213   2.874   2.947 -0.7478  0.4891 -0.3860
17631TIP3   OH274383   0.718   5.954  13.127 -0.1780 -0.4501 -0.1060
17631TIP3    H174384   0.778   5.989  13.192 -1.1153  1.3934 -0.2203
17631TIP3    H274385   0.742   5.861  13.121  1.0193 -0.2845  1.6240
17632TIP3   OH274386   6.174   5.473   0.582 -0.4685 -0.3598  0.0186
17632TIP3    H174387   6.204   5.562   0.562 -0.6134 -0.2348  0.3511
17632TIP3    H274388   6.228   5.445   0.655  0.1048 -0.8408 -0.5915
17633TIP3   OH274389   3.339   2.697  12.448  0.0506 -0.0149 -0.1754
17633TIP3    H174390   3.270   2.724  12.509  0.7058  0.1878  0.4886
17633TIP3    H274391   3.294   2.642  12.384 -0.9416  1.0721 -0.4316
17634TIP3   OH274392   1.409   1.808   1.748  0.0733 -0.1770 -0.6344
17634TIP3    H174393   1.497   1.835   1.777 -0.1516 -0.7737  0.6625
17634TIP3    H274394   1.374   1.759   1.823 -1.4063  0.1419 -1.1104
17635TIP3   OH274395   2.952   5.985   1.067 -0.5801  0.2495 -0.3204
17635TIP3    H174396   3.020   6.038   1.108  0.2658 -0.7912 -0.3578
17635TIP3    H274397   3.000   5.923   1.012 -1.3874 -2.1464  1.5663
17636TIP3   OH274398   5.542   5.864   1.137  0.4882 -0.0206  0.5651
17636TIP3    H174399   5.589   5.823   1.210 -0.2713 -1.1602  0.4397
17636TIP3    H274400   5.588   5.833   1.059  0.3299 -0.0852  0.4975
17637TIP3   OH274401   1.883   1.839   5.441 -0.6386 -0.0488  0.4409
17637TIP3    H174402   1.846   1.772   5.384  0.8145  1.7900 -2.8230
17637TIP3    H274403   1.977   1.823   5.439 -0.4267  1.1056  0.8820
17638TIP3   OH274404   2.907   2.516   0.838 -0.3499  0.3095 -0.1678
17638TIP3    H174405   2.921   2.428   0.803 -1.1080  0.6357 -1.3265
17638TIP3    H274406   2.836   2.552   0.785 -0.5245  1.3701  0.7547
17639TIP3   OH274407   5.543   0.141   4.451  0.0473 -0.1867 -0.3803
17639TIP3    H174408   5.632   0.110   4.435  1.0000  1.1472  2.0690
17639TIP3    H274409   5.530   0.211   4.387  0.4684 -0.8451 -1.2064
17640TIP3   OH274410   5.374   1.610  13.590 -0.5628  0.6171 -0.1224
17640TIP3    H174411   5.319   1.614  13.511 -0.1346 -2.4757 -0.6573
17640TIP3    H274412   5.324   1.554  13.650  0.8101 -0.0914  0.3642
17641TIP3   OH274413   3.806   3.776   3.930 -0.5908 -0.0627  0.0758
17641TIP3    H174414   3.802   3.830   4.009 -0.8602 -1.6584  1.1697
17641TIP3    H274415   3.874   3.712   3.948 -0.2156 -0.0515 -1.2480
17642TIP3   OH274416   0.964   5.373   3.988 -0.3048  0.1400  0.2558
17642TIP3    H174417   1.046   5.360   3.940 -1.8731  0.3866 -2.5604
17642TIP3    H274418   0.977   5.455   4.035  0.8970  0.4089 -0.5247
17643TIP3   OH274419   4.776   6.045  15.569  0.0239  0.0121  0.1654
17643TIP3    H174420   4.860   6.089  15.558  0.9867 -2.5295 -3.3746
17643TIP3    H274421   4.797   5.961  15.609 -0.8582 -0.5164 -0.4579
17644TIP3   OH274422   5.163   0.879  15.802  0.2703  0.1603  0.2893
17644TIP3    H174423   5.108   0.919  15.735 -1.8141  0.5136  2.1966
17644TIP3    H274424   5.213   0.952  15.839 -0.1539  0.2884  0.6068
17645TIP3   OH274425   2.671   0.842  11.487  0.0040  0.3694  0.5735
17645TIP3    H174426   2.694   0.781  11.417 -1.2097  1.9709 -1.3050
17645TIP3    H274427   2.716   0.923  11.463 -2.5126  1.7004  0.1990
17646TIP3   OH274428   4.808   4.362   3.705  0.1261 -0.3596 -0.1976
17646TIP3    H174429   4.896   4.327   3.721 -0.7171 -2.3795  0.1572
17646TIP3    H274430   4.822   4.435   3.645  1.9735 -1.1255 -0.7323
17647TIP3   OH274431   5.992   5.421   0.220 -0.8616 -0.2324 -0.1224
17647TIP3    H174432   6.047   5.373   0.283  0.9279  2.1107  0.1645
17647TIP3    H274433   5.936   5.475   0.275 -0.6350  0.3877 -0.5055
17648TIP3   OH274434   5.182   3.997   4.327 -0.4248  0.3310  0.0491
17648TIP3    H174435   5.092   3.997   4.296 -0.8739  0.8634  1.3338
17648TIP3    H274436   5.197   3.909   4.360  0.6543 -0.8356 -3.2914
17649TIP3   OH274437   5.701   1.758   1.195 -0.5924 -0.0360  0.4687
17649TIP3    H174438   5.766   1.712   1.143 -0.5313  0.2122  0.3264
17649TIP3    H274439   5.635   1.691   1.216 -0.6703 -0.1089 -0.0075
17650TIP3   OH274440   1.822   0.057   4.897  0.0442 -0.3814 -0.5023
17650TIP3    H174441   1.811   0.081   4.989  1.0014  0.4584 -0.6054
17650TIP3    H274442   1.812   0.140   4.849  0.2876 -0.6950 -1.0974
17651TIP3   OH274443   1.463   4.069  14.134 -0.1071  0.3663  0.6071
17651TIP3    H174444   1.537   4.015  14.104 -0.6061 -0.5657  1.0343
17651TIP3    H274445   1.470   4.149  14.083  0.9902  0.1377  0.3725
17652TIP3   OH274446   5.520   2.492  11.427 -0.0883 -0.5701 -0.3224
17652TIP3    H174447   5.480   2.578  11.415 -1.8650 -1.4098 -0.6669
17652TIP3    H274448   5.545   2.489  11.520 -3.0963 -0.9196  0.5262
17653TIP3   OH274449   2.513   3.774  14.337  0.7752  0.2633 -0.7287
17653TIP3    H174450   2.509   3.707  14.269  0.7089 -0.1756 -0.2916
17653TIP3    H274451   2.525   3.726  14.419 -0.0625  0.7384 -0.3215
17654TIP3   OH274452   3.767   1.556  12.266  0.5647  0.3263 -0.6160
17654TIP3    H174453   3.805   1.561  12.354 -0.6333 -0.0227 -0.0724
17654TIP3    H274454   3.839   1.527  12.211  0.8750 -1.2239  0.5540
17655TIP3   OH274455   1.842   2.335   3.055  0.1821 -0.1833  0.3935
17655TIP3    H174456   1.809   2.248   3.075 -2.2250  0.1656 -1.8773
17655TIP3    H274457   1.801   2.392   3.121  0.9603 -0.5907  1.2438
17656TIP3   OH274458   1.569   1.713   2.811  0.1508  0.1997 -0.5537
17656TIP3    H174459   1.514   1.636   2.799  0.8444 -0.2568 -0.8209
17656TIP3    H274460   1.508   1.782   2.838 -0.6689 -0.0950 -1.6325
17657TIP3   OH274461   5.819   1.964   3.548 -0.1312 -0.2587  0.2227
17657TIP3    H174462   5.881   2.021   3.593 -0.4183 -0.0264  0.3255
17657TIP3    H274463   5.843   1.972   3.455 -1.5257  1.7168 -0.0106
17658TIP3   OH274464   2.759   2.046  16.161  0.2813  0.1615 -0.2595
17658TIP3    H174465   2.824   2.038  16.231 -0.9927  0.6741  1.0014
17658TIP3    H274466   2.678   2.011  16.199 -0.4622  0.6077 -1.4189
17659TIP3   OH274467   6.516   3.362  15.217  0.6615 -0.0088  0.6031
17659TIP3    H174468   6.528   3.345  15.124  2.5600  2.8204  0.2895
17659TIP3    H274469   6.577   3.302  15.260  0.6252 -0.5051 -0.0303
17660TIP3   OH274470   1.826   2.807  16.016 -0.2787  0.3883 -0.1970
17660TIP3    H174471   1.844   2.861  15.939  0.9151  2.4037  1.4342
17660TIP3    H274472   1.909   2.763  16.035 -0.1348  1.0558  0.7883
17661TIP3   OH274473   3.869   3.976  12.736  0.3259 -0.2883 -0.1315
17661TIP3    H174474   3.917   4.058  12.748  2.5623 -1.7901  1.6508
17661TIP3    H274475   3.934   3.914  12.703 -1.4499 -1.2294 -1.9409
17662TIP3   OH274476   6.365   1.406  13.354  0.8891  0.4887 -0.4096
17662TIP3    H174477   6.439   1.348  13.374 -0.6532 -0.6906  2.2367
17662TIP3    H274478   6.334   1.377  13.269  0.0906 -2.7336  0.9029
17663TIP3   OH274479   2.717   2.217   2.527 -0.2168 -0.2101 -0.5050
17663TIP3    H174480   2.756   2.206   2.440  0.1479 -0.0982 -0.3604
17663TIP3    H274481   2.623   2.218   2.512 -0.1383  0.6208 -0.9996
17664TIP3   OH274482   1.364   3.670   5.952 -0.0674 -0.1965 -0.0849
17664TIP3    H174483   1.428   3.681   6.022 -0.5630  0.5365  0.2550
17664TIP3    H274484   1.280   3.694   5.991 -0.0967  2.0824 -1.4262
17665TIP3   OH274485   1.374   2.321  14.159 -0.3792 -0.0058  0.1159
17665TIP3    H174486   1.366   2.415  14.176 -2.5289  0.0612 -0.9737
17665TIP3    H274487   1.408   2.316  14.069 -1.4439 -0.2290 -0.2902
17666TIP3   OH274488   3.483   6.131   1.315  0.1796 -0.5136 -0.0646
17666TIP3    H174489   3.444   6.066   1.373 -0.3081 -0.1728 -0.0073
17666TIP3    H274490   3.476   6.092   1.227  0.2493 -0.7093  0.0174
17667TIP3   OH274491   0.803   0.121   0.931 -0.3912  0.0470  0.4218
17667TIP3    H174492   0.859   0.062   0.881 -1.5206  0.1699 -1.0329
17667TIP3    H274493   0.838   0.209   0.912  1.6395 -0.1346  3.0303
17668TIP3   OH274494   4.154   4.315  15.464  0.0408  0.3965  0.5614
17668TIP3    H174495   4.207   4.248  15.508  2.1802  1.8985  0.3635
17668TIP3    H274496   4.206   4.339  15.387 -0.4595  2.6404  0.8950
17669TIP3   OH274497   6.812   2.312  14.694  0.5414 -0.4984  0.1447
17669TIP3    H174498   6.837   2.246  14.629 -0.8683 -1.5475  0.6537
17669TIP3    H274499   6.885   2.375  14.693  0.7424 -0.7218 -2.1242
17670TIP3   OH274500   6.514   3.391   4.932 -1.1855 -0.3544 -0.2067
17670TIP3    H174501   6.536   3.397   4.839 -0.9892 -0.9505 -0.2024
17670TIP3    H274502   6.420   3.374   4.934 -1.6179  1.9308 -0.2336
17671TIP3   OH274503   6.810   3.302   3.496 -0.5179  0.3201  0.1908
17671TIP3    H174504   6.762   3.253   3.429  2.2015 -0.3946 -1.3039
17671TIP3    H274505   6.798   3.394   3.472 -1.2931  0.1528 -0.0611
17672TIP3   OH274506   5.322   2.026  13.906 -0.3365  0.2749 -0.4089
17672TIP3    H174507   5.337   1.938  13.873  0.2879 -0.0353  0.6614
17672TIP3    H274508   5.407   2.069  13.898 -0.5854  0.7064 -0.7225
17673TIP3   OH274509   1.895   2.033   6.022 -0.7950  0.3516 -0.2414
17673TIP3    H174510   1.846   1.959   6.058 -1.2888  0.6014 -0.3818
17673TIP3    H274511   1.970   1.994   5.979 -0.8660 -0.0429 -0.0099
17674TIP3   OH274512   3.313   3.053   5.073 -0.0753 -1.2376 -0.8665
17674TIP3    H174513   3.302   3.037   5.167  0.0710 -2.3945 -1.0396
17674TIP3    H274514   3.280   3.142   5.060  0.3958 -0.8777  0.3656
17675TIP3   OH274515   6.165   2.821  12.900  0.5014 -0.3419 -0.2561
17675TIP3    H174516   6.241   2.811  12.843  0.7150 -0.0896 -0.0160
17675TIP3    H274517   6.166   2.913  12.926 -0.0933 -0.2495 -0.5433
17676TIP3   OH274518   2.749   3.612   5.105 -0.0248  0.2077 -0.0912
17676TIP3    H174519   2.668   3.639   5.062  0.9077 -0.6071 -2.4046
17676TIP3    H274520   2.732   3.522   5.134 -0.0576  0.1342 -0.3355
17677TIP3   OH274521   0.710   2.779  17.219 -0.1394  0.1098 -0.5028
17677TIP3    H174522   0.749   2.748  17.137  1.1726 -0.7304  0.4109
17677TIP3    H274523   0.683   2.699  17.264  0.9289  0.4396  0.7440
17678TIP3   OH274524   0.356   5.849  10.905  0.2246 -0.5454 -0.4592
17678TIP3    H174525   0.275   5.898  10.923  0.2715 -0.5325 -0.2798
17678TIP3    H274526   0.395   5.895  10.831 -0.1917 -0.8636 -0.8786
17679TIP3   OH274527   0.825   2.590  10.985 -0.3456  0.8429 -0.4737
17679TIP3    H174528   0.753   2.620  11.041 -0.7866 -0.5978 -0.2438
17679TIP3    H274529   0.785   2.577  10.899 -0.7142 -1.3570  0.0022
17680TIP3   OH274530   1.711   2.553  12.037 -0.0753  0.4010 -0.1997
17680TIP3    H174531   1.620   2.555  12.067 -0.2765  0.3561 -0.7941
17680TIP3    H274532   1.706   2.517  11.949  0.4122  1.3704 -0.6328
17681TIP3   OH274533   0.666   6.599  11.549 -0.3446  0.0642 -0.2834
17681TIP3    H174534   0.571   6.591  11.538 -0.5875 -0.7134  2.1814
17681TIP3    H274535   0.678   6.686  11.586 -0.1080  0.0736 -0.3839
17682TIP3   OH274536   5.126   2.464  14.464  0.6876 -0.0471 -0.0287
17682TIP3    H174537   5.204   2.425  14.502 -0.3300 -0.4729  1.6928
17682TIP3    H274538   5.154   2.550  14.434  1.4660  0.4007  1.9450
17683TIP3   OH274539   6.598   6.240  13.167 -0.1927  0.4138 -0.5875
17683TIP3    H174540   6.602   6.259  13.073 -0.7522 -0.7398 -0.8517
17683TIP3    H274541   6.552   6.156  13.173  0.2508  0.2497  0.6907
17684TIP3   OH274542   6.252   2.977   3.157  0.0772  0.2524 -0.1266
17684TIP3    H174543   6.224   3.050   3.102  0.7139  0.1492 -0.5898
17684TIP3    H274544   6.312   2.927   3.102  0.3194 -0.1390  0.4889
17685TIP3   OH274545   1.253   4.766  14.472  0.1809  0.4659 -0.6014
17685TIP3    H174546   1.255   4.680  14.515  0.7147  0.7289 -0.0887
17685TIP3    H274547   1.170   4.767  14.424  0.3289 -0.4693 -0.8899
17686TIP3   OH274548   2.564   0.153  17.131  0.2607 -0.7272  0.0658
17686TIP3    H174549   2.526   0.198  17.055 -0.6987  0.9340  1.5102
17686TIP3    H274550   2.655   0.180  17.132 -0.4029  1.5656  1.1620
17687TIP3   OH274551   4.113   5.226  16.429 -0.0979  0.0398 -0.3081
17687TIP3    H174552   4.165   5.280  16.368  1.5196 -2.7296 -1.4776
17687TIP3    H274553   4.025   5.226  16.391  0.0892  1.1252 -0.7755
17688TIP3   OH274554   1.067   3.240   1.584  0.5677  0.0331  0.1623
17688TIP3    H174555   1.053   3.252   1.678 -1.1955 -2.2456  0.2325
17688TIP3    H274556   1.111   3.155   1.577 -0.3986 -0.3764 -1.1286
17689TIP3   OH274557   6.334   1.353   1.837 -0.0950 -0.1505  0.0781
17689TIP3    H174558   6.353   1.259   1.835 -0.1721 -0.1541 -0.6396
17689TIP3    H274559   6.415   1.394   1.868  0.0180 -0.4399  0.1597
17690TIP3   OH274560   6.200   4.235   1.456  0.6284  0.3366 -0.0863
17690TIP3    H174561   6.166   4.200   1.538  0.9113  1.4636  0.5268
17690TIP3    H274562   6.264   4.170   1.426  1.2582  0.3881  1.1065
17691TIP3   OH274563   5.425   5.164  13.435  0.3896 -0.2642 -0.0460
17691TIP3    H174564   5.460   5.235  13.381  0.4995 -0.4485 -0.2200
17691TIP3    H274565   5.372   5.111  13.375  1.3751 -1.0739 -0.2326
17692TIP3   OH274566   4.234   2.772  16.012 -0.1028 -0.2562 -0.1796
17692TIP3    H174567   4.211   2.717  15.937  1.6511  0.5464 -1.3189
17692TIP3    H274568   4.298   2.834  15.978 -2.4822  2.9657  0.8820
17693TIP3   OH274569   1.734   4.941  11.963  0.0844 -0.2284  0.6318
17693TIP3    H174570   1.773   4.875  12.020 -0.5708 -0.1701  1.1467
17693TIP3    H274571   1.799   4.954  11.894 -0.6383 -2.8739 -0.6049
17694TIP3   OH274572   5.204   6.493  11.723 -0.1825  0.6344  0.8574
17694TIP3    H174573   5.184   6.400  11.732  0.6121  0.4464  0.7539
17694TIP3    H274574   5.295   6.501  11.752 -0.3334  1.4274  1.1288
17695TIP3   OH274575   3.153   2.765   5.457  0.3801  0.2952 -0.2056
17695TIP3    H174576   3.203   2.826   5.402 -1.1791  1.9068  0.1451
17695TIP3    H274577   3.062   2.782   5.435 -0.1905 -0.1437  1.7700
17696TIP3   OH274578   2.382   2.284   1.995  0.0950 -0.2133 -0.2351
17696TIP3    H174579   2.338   2.345   1.936 -0.7873  1.1039  1.7042
17696TIP3    H274580   2.475   2.297   1.979 -0.0159  2.7197  1.1003
17697TIP3   OH274581   1.268   1.562  15.355 -0.1426  0.3480 -0.4226
17697TIP3    H174582   1.274   1.475  15.316 -1.5078  0.0827 -0.0689
17697TIP3    H274583   1.229   1.617  15.286  1.7938  0.9607 -1.0562
17698TIP3   OH274584   2.768   4.862   2.779 -0.1183 -0.4568 -0.4303
17698TIP3    H174585   2.797   4.845   2.869 -0.4822 -1.2859 -0.4684
17698TIP3    H274586   2.786   4.955   2.766 -1.0958 -0.0628  0.8899
17699TIP3   OH274587   0.169   0.948  14.564  0.5323 -0.5137  0.1814
17699TIP3    H174588   0.102   0.956  14.495 -1.2000  0.5556  1.9059
17699TIP3    H274589   0.165   0.857  14.591 -1.4994 -0.0740  1.4565
17700TIP3   OH274590   5.082   4.968   2.620  0.3972  0.4601 -0.2580
17700TIP3    H174591   5.001   4.950   2.571 -1.1461  2.6438  1.3512
17700TIP3    H274592   5.131   5.028   2.564 -0.6749  1.7648  0.1645
17701TIP3   OH274593   0.987   1.185   2.692  0.0514 -0.2527  0.2983
17701TIP3    H174594   1.077   1.216   2.698  0.3928 -1.1854  0.1500
17701TIP3    H274595   0.959   1.176   2.783  0.3280 -0.5858  0.3495
17702TIP3   OH274596   0.849   0.229  13.429 -0.5053 -0.7635  0.5711
17702TIP3    H174597   0.897   0.310  13.448 -0.3224 -1.0363  1.2896
17702TIP3    H274598   0.905   0.182  13.367 -0.2858 -0.6544  0.6845
17703TIP3   OH274599   3.063   1.251   2.936 -0.5051  1.0051  0.0604
17703TIP3    H174600   3.131   1.263   3.003  0.0599  3.1065 -0.8180
17703TIP3    H274601   3.018   1.336   2.933 -0.4073  0.9966 -2.3022
17704TIP3   OH274602   4.737   0.681   5.523  0.0297 -0.1071 -0.1187
17704TIP3    H174603   4.727   0.712   5.433 -0.5529 -0.4797 -0.1885
17704TIP3    H274604   4.647   0.675   5.556  0.3032  1.0923  0.8536
17705TIP3   OH274605   6.543   5.053   4.186 -0.0131 -0.4206  0.1390
17705TIP3    H174606   6.598   5.083   4.258 -2.4025  1.5227  1.2387
17705TIP3    H274607   6.515   4.965   4.212  0.2072 -0.2453  0.9642
17706TIP3   OH274608   5.007   3.354   4.992  0.1779  0.0982  0.0511
17706TIP3    H174609   5.022   3.335   4.900  1.3487 -0.4796  0.3569
17706TIP3    H274610   5.093   3.377   5.027 -0.4811  1.6121  0.7033
17707TIP3   OH274611   3.520   1.615   3.849  0.1242  0.0299 -0.5182
17707TIP3    H174612   3.516   1.689   3.789 -0.2074  0.6903  0.3184
17707TIP3    H274613   3.540   1.653   3.934 -0.6793 -0.7654  0.0402
17708TIP3   OH274614   3.948   1.532   2.163  0.0807 -0.9727  0.5607
17708TIP3    H174615   3.865   1.485   2.166  0.6111 -1.9510  0.3088
17708TIP3    H274616   3.982   1.517   2.075 -0.3737  1.0313  0.0189
17709TIP3   OH274617   3.445   2.939  17.017 -0.6125  0.1682  0.4508
17709TIP3    H174618   3.508   2.898  17.076  0.4063 -1.0147 -1.4226
17709TIP3    H274619   3.398   2.866  16.976 -0.0066  0.8580 -1.5783
17710TIP3   OH274620   3.362   1.277  14.017  0.0245  0.0530  0.3960
17710TIP3    H174621   3.380   1.295  13.925 -1.2097  1.8936  0.4945
17710TIP3    H274622   3.276   1.235  14.017 -1.1092  2.3093  0.8835
17711TIP3   OH274623   6.324   5.583  15.866  0.1794 -0.4856 -0.6774
17711TIP3    H174624   6.273   5.651  15.910 -0.5646  0.0928 -2.3649
17711TIP3    H274625   6.415   5.601  15.891 -0.2058 -0.0971  0.4810
17712TIP3   OH274626   0.092   4.699  14.573  0.1928  0.4365 -0.7845
17712TIP3    H174627   0.074   4.705  14.480 -0.7735  3.0897 -0.4811
17712TIP3    H274628   0.026   4.755  14.614  1.3116  0.2402  1.3930
17713TIP3   OH274629   6.808   0.662  17.213  0.5096 -0.2907  0.4117
17713TIP3    H174630   6.735   0.724  17.212 -1.0406 -2.0658  1.3333
17713TIP3    H274631   6.805   0.619  17.128 -0.2211 -1.1610  0.8750
17714TIP3   OH274632   0.325   6.518  16.684  0.3078 -0.5466  0.4006
17714TIP3    H174633   0.399   6.555  16.636 -1.1609  0.2436 -1.3190
17714TIP3    H274634   0.322   6.426  16.656  0.2673 -0.4259  0.0064
17715TIP3   OH274635   6.372   1.746  14.132 -0.5045 -0.8309 -0.4166
17715TIP3    H174636   6.413   1.799  14.063 -0.4187 -0.1426  0.1559
17715TIP3    H274637   6.441   1.734  14.197 -0.8955 -0.5714  0.0481
17716TIP3   OH274638   3.137   2.537  12.763 -0.4198  0.3019 -0.2039
17716TIP3    H174639   3.112   2.446  12.780 -0.2789  0.0677 -1.2067
17716TIP3    H274640   3.190   2.562  12.838  0.5892 -0.8555 -0.5101
17717TIP3   OH274641   0.313   2.027  12.414 -0.1215 -0.2771 -0.1225
17717TIP3    H174642   0.384   1.974  12.449  1.5638  1.4963 -0.7503
17717TIP3    H274643   0.265   1.967  12.356  0.0609 -1.8358  1.3017
17718TIP3   OH274644   1.114   4.719   4.170 -0.0648  1.0995 -0.0075
17718TIP3    H174645   1.093   4.764   4.088  2.3960  2.5981  0.1237
17718TIP3    H274646   1.203   4.747   4.190 -0.6087  0.7034  3.1710
17719TIP3   OH274647   0.153   2.223   1.273 -0.0118  0.7918 -0.0246
17719TIP3    H174648   0.063   2.190   1.280 -0.7202  2.0406 -2.5474
17719TIP3    H274649   0.208   2.146   1.288 -1.4947 -0.0884  1.0909
17720TIP3   OH274650   5.188   2.274  16.706  0.6112  0.4616  0.0315
17720TIP3    H174651   5.149   2.355  16.741  2.6711  2.0604 -1.2422
17720TIP3    H274652   5.178   2.211  16.777 -1.4979  1.6760  0.8800
17721TIP3   OH274653   1.343   0.307   1.744  0.4345  0.0793  0.2648
17721TIP3    H174654   1.396   0.378   1.779 -0.3781  0.8581 -0.0435
17721TIP3    H274655   1.388   0.281   1.664 -0.1678  1.3993 -0.5150
17722TIP3   OH274656   5.889   5.880   4.020 -0.8969 -0.2719 -0.3398
17722TIP3    H174657   5.811   5.931   3.997 -0.6957 -0.0709 -0.5745
17722TIP3    H274658   5.935   5.868   3.938 -0.0445  0.6644 -0.0058
17723TIP3   OH274659   0.340   4.317   0.151  0.1464  0.2816  0.3268
17723TIP3    H174660   0.345   4.412   0.148 -1.1747  0.3541  0.2212
17723TIP3    H274661   0.308   4.297   0.239  0.0951 -0.0507  0.2345
17724TIP3   OH274662   5.300   3.972  15.564  0.7913  0.5116 -0.2400
17724TIP3    H174663   5.360   4.012  15.501 -0.2109  0.6726 -1.1155
17724TIP3    H274664   5.292   4.037  15.633  0.2207  1.2821 -1.0086
17725TIP3   OH274665   0.566   2.947   1.276 -0.2258  0.7522  0.8090
17725TIP3    H174666   0.633   2.891   1.314 -0.4035 -1.4628 -1.9501
17725TIP3    H274667   0.485   2.922   1.321 -0.0908 -0.4018  0.4262
17726TIP3   OH274668   0.866   3.026  13.363 -0.0476 -0.2581 -0.3289
17726TIP3    H174669   0.809   2.949  13.365 -1.5560  0.8754  0.8971
17726TIP3    H274670   0.945   2.998  13.410 -0.2845 -1.2779 -0.5199
17727TIP3   OH274671   3.217   1.285   0.974  0.0520  0.2607 -0.0809
17727TIP3    H174672   3.273   1.220   0.932  0.4958  0.4917  0.1571
17727TIP3    H274673   3.249   1.291   1.064 -0.1793  0.5887 -0.0195
17728TIP3   OH274674   4.926   6.755  14.777 -0.0855  0.4394  0.2812
17728TIP3    H174675   4.889   6.807  14.848  1.5530  1.5616  0.3502
17728TIP3    H274676   4.992   6.699  14.819 -1.2404 -1.1090  0.0800
17729TIP3   OH274677   1.662   0.557  11.568 -0.5816 -0.0085 -0.4590
17729TIP3    H174678   1.697   0.574  11.481  1.3929  1.3989  0.5623
17729TIP3    H274679   1.652   0.644  11.607 -1.7195 -0.6056  0.6173
17730TIP3   OH274680   4.589   2.048   2.833 -0.7248 -0.0590 -0.1621
17730TIP3    H174681   4.513   2.025   2.887 -1.9351 -0.7818 -2.1188
17730TIP3    H274682   4.563   2.128   2.787 -0.4163 -0.4365 -1.0119
17731TIP3   OH274683   1.962   3.294  15.009 -0.0487  0.0955 -0.2408
17731TIP3    H174684   2.003   3.207  15.014 -0.2375  0.0535  0.7503
17731TIP3    H274685   2.029   3.354  15.042 -0.7558  0.0245  1.3989
17732TIP3   OH274686   6.575   1.251  13.441  0.2428 -0.0798 -0.2844
17732TIP3    H174687   6.601   1.206  13.522  1.0851 -0.6716 -0.8790
17732TIP3    H274688   6.651   1.244  13.384 -0.3235  0.3986 -1.1088
17733TIP3   OH274689   3.038   4.800   4.749 -0.4524 -0.4322  0.1423
17733TIP3    H174690   3.079   4.885   4.731 -1.2836  0.2313  1.3393
17733TIP3    H274691   3.105   4.751   4.795 -0.1057 -0.2817 -0.1980
17734TIP3   OH274692   3.245   5.112   5.300 -0.1352 -0.4275 -0.2301
17734TIP3    H174693   3.340   5.128   5.301 -0.1839 -0.1276 -0.2884
17734TIP3    H274694   3.223   5.110   5.207 -0.2240 -0.2566 -0.2140
17735TIP3   OH274695   0.805   2.002   2.338  0.4600  0.4251 -0.4491
17735TIP3    H174696   0.870   1.972   2.401  0.7572  0.4439 -0.7430
17735TIP3    H274697   0.723   1.960   2.365  0.5334  0.6332  0.0930
17736TIP3   OH274698   0.678   4.488  12.100  0.5068 -0.0880 -0.4573
17736TIP3    H174699   0.603   4.546  12.113  0.4621 -0.6555  1.9550
17736TIP3    H274700   0.640   4.407  12.067  0.0953 -0.2505  0.4137
17737TIP3   OH274701   6.168   6.336  16.754  0.0779  0.3257  1.0903
17737TIP3    H174702   6.130   6.401  16.812 -1.1898 -0.5625  1.2675
17737TIP3    H274703   6.153   6.371  16.666 -0.1907  0.4837  1.2019
17738TIP3   OH274704   5.156   2.101  15.347  0.0827  0.1432  0.7356
17738TIP3    H174705   5.133   2.058  15.264 -1.4016  2.4549 -0.0803
17738TIP3    H274706   5.245   2.134  15.333  0.8021 -1.6291  0.9750
17739TIP3   OH274707   3.584   0.669   1.046 -0.1869 -0.0868  0.5609
17739TIP3    H174708   3.495   0.704   1.053  0.2788  1.1291  0.4331
17739TIP3    H274709   3.575   0.594   0.988 -1.3816 -0.8469  1.6896
17740TIP3   OH274710   0.435   5.131   0.740  0.9757  0.0935 -0.0329
17740TIP3    H174711   0.495   5.197   0.775 -0.6463  1.3172  0.4872
17740TIP3    H274712   0.352   5.147   0.785  0.4514 -2.0832 -0.1529
17741TIP3   OH274713   3.404   6.112   5.395  0.0873 -0.0586 -0.2327
17741TIP3    H174714   3.486   6.067   5.374 -0.0386 -0.7395  0.7162
17741TIP3    H274715   3.339   6.042   5.402 -0.4831  0.4359 -0.5296
17742TIP3   OH274716   1.613   6.605   4.714 -0.1275  0.2306  0.6283
17742TIP3    H174717   1.652   6.616   4.800 -0.5734  0.2001  0.8376
17742TIP3    H274718   1.634   6.516   4.689  0.9745  0.6088  0.2125
17743TIP3   OH274719   4.733   4.754  11.416 -0.7613  0.2837 -0.2104
17743TIP3    H174720   4.665   4.817  11.391 -0.0691  0.4696 -1.6936
17743TIP3    H274721   4.722   4.682  11.355 -1.4175 -0.9733  1.3532
17744TIP3   OH274722   1.793   0.457   2.444  0.5958 -0.8107 -0.3855
17744TIP3    H174723   1.817   0.550   2.449  2.0091 -1.1004 -1.4850
17744TIP3    H274724   1.845   0.422   2.372 -0.6069 -2.2694 -0.5789
17745TIP3   OH274725   1.055   1.808  10.977 -0.0870 -0.1226  0.0047
17745TIP3    H174726   0.991   1.745  10.942  1.7931 -2.4332  0.6089
17745TIP3    H274727   1.010   1.848  11.052 -1.0896 -1.2233  0.0212
17746TIP3   OH274728   3.613   5.722  14.939  0.2221 -0.1113 -0.2367
17746TIP3    H174729   3.521   5.735  14.914  0.0008  2.1423  1.7131
17746TIP3    H274730   3.662   5.778  14.879  0.0549  1.4859  1.1174
17747TIP3   OH274731   6.612   6.283  17.056 -0.0888  0.4117  0.1122
17747TIP3    H174732   6.654   6.368  17.066 -0.9911  0.9185 -0.3299
17747TIP3    H274733   6.540   6.284  17.118 -1.3897  0.8099 -1.3632
17748TIP3   OH274734   1.027   2.990   4.370 -0.2798 -0.3687 -0.3184
17748TIP3    H174735   1.079   2.970   4.292 -1.4016 -0.3796 -1.0887
17748TIP3    H274736   0.963   3.055   4.339 -1.6964 -1.4904  0.2082
17749TIP3   OH274737   0.792   2.202   4.596  0.1807  0.1362 -0.0023
17749TIP3    H174738   0.839   2.264   4.541  1.1465 -0.5603  0.0176
17749TIP3    H274739   0.860   2.155   4.643 -0.5958 -0.0397  0.9633
17750TIP3   OH274740   5.156   3.945   0.515  0.4898 -0.5195 -0.0720
17750TIP3    H174741   5.094   3.876   0.493  0.2285 -0.2258 -0.2583
17750TIP3    H274742   5.207   3.957   0.434  1.3880 -1.3852  0.3570
17751TIP3   OH274743   3.187   5.713  15.064 -0.0895  0.2565 -0.1231
17751TIP3    H174744   3.198   5.640  15.004 -0.2641  0.4815 -0.4339
17751TIP3    H274745   3.099   5.701  15.101  1.2020 -1.5859  2.4213
17752TIP3   OH274746   3.132   3.103   2.498 -0.3843  0.1312 -0.2660
17752TIP3    H174747   3.097   3.152   2.424 -0.3737  0.1478 -0.2598
17752TIP3    H274748   3.173   3.169   2.554  2.0883 -0.2149 -1.6238
17753TIP3   OH274749   5.963   2.697   3.665 -0.0324  0.1981  0.0798
17753TIP3    H174750   5.935   2.711   3.574  0.0457  0.0112  0.0278
17753TIP3    H274751   5.892   2.734   3.717 -0.7824 -1.0283 -0.0498
17754TIP3   OH274752   4.497   3.294   3.201  0.2993  0.2411 -0.2762
17754TIP3    H174753   4.580   3.343   3.206 -0.7321  1.8889  1.3165
17754TIP3    H274754   4.521   3.204   3.222  1.8408  0.5355 -0.7130
17755TIP3   OH274755   6.238   2.737   3.658 -0.2415  0.4619 -0.2078
17755TIP3    H174756   6.255   2.740   3.753  0.3962 -2.0950 -0.1973
17755TIP3    H274757   6.143   2.727   3.651 -0.2579  0.3296  0.1728
17756TIP3   OH274758   3.582   0.726  14.671  0.6045 -0.4455 -0.6323
17756TIP3    H174759   3.538   0.726  14.586  1.5616  0.0541 -1.1374
17756TIP3    H274760   3.521   0.682  14.730 -1.6491  2.4508 -0.7429
17757TIP3   OH274761   4.971   4.087   4.566 -0.1156 -0.3790  0.0878
17757TIP3    H174762   4.943   4.029   4.497  0.1637  0.0805 -0.4178
17757TIP3    H274763   4.903   4.081   4.633 -0.7204 -0.3151 -0.5207
17758TIP3   OH274764   0.576   0.711  13.383  0.0886  0.5644 -0.3386
17758TIP3    H174765   0.561   0.748  13.470  0.8792  0.5224 -0.1804
17758TIP3    H274766   0.516   0.637  13.378 -0.6254  1.1232 -0.1867
17759TIP3   OH274767   1.766   3.479   6.020  0.1578 -0.8140  0.1786
17759TIP3    H174768   1.732   3.463   5.932 -0.4563 -1.0411  0.4566
17759TIP3    H274769   1.799   3.395   6.049  0.7332 -0.6492  0.0090
17760TIP3   OH274770   6.733   2.863   2.325 -0.4113 -0.6137 -0.5647
17760TIP3    H174771   6.773   2.829   2.245  0.3015 -1.2136  0.0389
17760TIP3    H274772   6.660   2.803   2.343  1.1744 -2.1831  0.7977
17761TIP3   OH274773   5.238   6.702  11.560  0.0305  0.1951 -0.0030
17761TIP3    H174774   5.307   6.737  11.616 -1.0777 -0.4503  1.7953
17761TIP3    H274775   5.201   6.629  11.610 -1.1856 -0.2035 -1.4458
17762TIP3   OH274776   5.374   5.991   4.793  0.0856  0.6710 -0.6382
17762TIP3    H174777   5.346   6.076   4.759 -2.1487  0.7250  1.1726
17762TIP3    H274778   5.394   6.008   4.885 -0.4327 -0.7508 -0.2540
17763TIP3   OH274779   5.592   3.246   4.291  0.0635 -0.3598  0.0065
17763TIP3    H174780   5.549   3.304   4.229  2.2384 -0.1964 -1.4299
17763TIP3    H274781   5.614   3.168   4.239  2.0164 -0.1647  0.5042
17764TIP3   OH274782   1.126   4.386  15.638  0.3154  0.1541 -0.3280
17764TIP3    H174783   1.190   4.446  15.599  1.1859 -0.5624 -0.0320
17764TIP3    H274784   1.097   4.332  15.564 -0.7201  1.1563 -0.6575
17765TIP3   OH274785   1.448   5.752   1.534  0.3979 -0.0086 -0.0633
17765TIP3    H174786   1.536   5.735   1.568  0.2097  1.9873  1.5579
17765TIP3    H274787   1.457   5.834   1.486 -0.4788 -0.0896 -0.3644
17766TIP3   OH274788   1.297   5.629  12.745  0.5057  0.1164 -0.1713
17766TIP3    H174789   1.270   5.574  12.671  0.3333 -1.7012  1.2174
17766TIP3    H274790   1.215   5.662  12.781  0.5506  0.4605 -0.3858
17767TIP3   OH274791   3.283   4.783  15.188 -0.0997  0.2463 -0.6491
17767TIP3    H174792   3.295   4.791  15.283  0.1729 -1.1458 -0.5650
17767TIP3    H274793   3.207   4.838  15.170  0.5886  1.5214  0.1898
17768TIP3   OH274794   6.304   5.564  11.545  0.2725  0.0160  0.1089
17768TIP3    H174795   6.252   5.554  11.625 -0.0891 -0.8885 -0.2311
17768TIP3    H274796   6.367   5.492  11.548 -1.1812 -1.3661 -1.4963
17769TIP3   OH274797   0.489   3.239   6.295  0.0041 -0.2282 -0.7603
17769TIP3    H174798   0.488   3.158   6.346  0.0096  2.3060  3.4875
17769TIP3    H274799   0.579   3.245   6.262  1.2548  0.1224  2.5194
17770TIP3   OH274800   1.239   5.543  16.567  0.2982  0.0020 -0.3386
17770TIP3    H174801   1.152   5.542  16.607  0.6369  0.6019  0.4205
17770TIP3    H274802   1.298   5.517  16.637  0.7787 -0.0023 -0.7427
17771TIP3   OH274803   6.412   4.369  16.242 -0.1432  0.2529  0.3149
17771TIP3    H174804   6.331   4.324  16.217 -1.2890  2.4467 -0.0446
17771TIP3    H274805   6.398   4.460  16.217  1.8455  0.9763  1.6605
17772TIP3   OH274806   0.324   3.629  12.802  0.3594 -0.1967 -0.6477
17772TIP3    H174807   0.399   3.595  12.753  0.0067 -0.0358 -1.3072
17772TIP3    H274808   0.261   3.655  12.735  0.7342  2.0424 -0.1650
17773TIP3   OH274809   2.739   1.870  11.564  0.0758  0.3424  0.2216
17773TIP3    H174810   2.658   1.889  11.518 -0.1790 -1.5614 -0.1863
17773TIP3    H274811   2.736   1.923  11.643 -0.4859  2.0298 -0.9170
17774TIP3   OH274812   2.776   2.818   3.051  0.1128  0.5176 -0.0146
17774TIP3    H174813   2.680   2.809   3.054  0.1488 -0.2017 -0.8897
17774TIP3    H274814   2.795   2.844   2.961  0.9078 -1.4263 -0.4201
17775TIP3   OH274815   4.595   3.339  15.013 -0.5203 -0.1907 -0.2632
17775TIP3    H174816   4.609   3.312  14.922 -1.9509 -0.9131 -0.2833
17775TIP3    H274817   4.646   3.277  15.065 -1.3762 -1.0755 -0.4689
17776TIP3   OH274818   6.062   4.229   6.562 -0.3873  0.1442 -0.3575
17776TIP3    H174819   6.101   4.178   6.633  0.2607  1.4115  0.2089
17776TIP3    H274820   6.016   4.164   6.508 -1.7610 -0.7060  1.7811
17777TIP3   OH274821   4.473   4.080  12.997 -0.0036 -0.3016  1.0909
17777TIP3    H174822   4.568   4.068  12.991  0.2847  1.0301  2.6081
17777TIP3    H274823   4.439   3.991  13.008  1.0709 -0.7764  0.7440
17778TIP3   OH274824   4.833   0.146  14.132  0.0780  0.3685  0.2534
17778TIP3    H174825   4.807   0.225  14.085  2.7994  0.0715 -1.8763
17778TIP3    H274826   4.843   0.080  14.064  3.4031 -0.2719  1.2540
17779TIP3   OH274827   0.780   1.366  14.637 -0.1419  0.5715 -0.8226
17779TIP3    H174828   0.700   1.320  14.610 -0.2969  0.8822 -0.8910
17779TIP3    H274829   0.782   1.445  14.583 -1.1519  1.8763  0.9992
17780TIP3   OH274830   3.612   4.276  15.625  0.2990  0.2756  0.0604
17780TIP3    H174831   3.640   4.227  15.547 -0.3931  0.4346 -0.2870
17780TIP3    H274832   3.530   4.234  15.652  0.5031  0.2623  0.6647
17781TIP3   OH274833   5.936   5.781   3.505  0.9949  0.7437 -0.4100
17781TIP3    H174834   6.002   5.846   3.529  2.2533 -0.4208 -0.7047
17781TIP3    H274835   5.972   5.736   3.430  0.3302 -0.6256  0.0758
17782TIP3   OH274836   1.178   6.093  16.205  0.3352 -0.4140 -0.5688
17782TIP3    H174837   1.230   6.054  16.135  1.1220  0.0941 -0.2800
17782TIP3    H274838   1.138   6.170  16.166 -1.3493 -1.5730 -1.1850
17783TIP3   OH274839   3.405   3.424  12.488 -0.1425 -0.1246 -0.2644
17783TIP3    H174840   3.427   3.333  12.471  1.4647  0.0155  0.9119
17783TIP3    H274841   3.400   3.464  12.401 -1.7884 -1.5228 -0.8161
17784TIP3   OH274842   3.398   4.490   4.697  0.4685  0.4432 -0.2568
17784TIP3    H174843   3.478   4.449   4.731 -0.7644 -2.7611 -1.1469
17784TIP3    H274844   3.353   4.523   4.775  1.4169  0.0170  0.4769
17785TIP3   OH274845   4.917   5.180  14.268  0.0047  0.2257 -0.1107
17785TIP3    H174846   4.946   5.140  14.350 -1.7145 -0.0366  0.4049
17785TIP3    H274847   4.924   5.110  14.203  0.2098  0.0763  0.0723
17786TIP3   OH274848   4.102   6.366  11.311 -0.4764  0.0637 -0.4496
17786TIP3    H174849   4.111   6.276  11.343  0.0197  0.0583 -0.5931
17786TIP3    H274850   4.158   6.369  11.233 -1.5974  0.1001 -1.2535
17787TIP3   OH274851   2.374   3.111   3.751  0.5822  0.1632  0.0834
17787TIP3    H174852   2.423   3.067   3.681  1.6537 -1.2052  1.6614
17787TIP3    H274853   2.419   3.086   3.831 -3.4834 -2.2747  1.7685
17788TIP3   OH274854   2.784   3.224   2.997 -0.2122 -0.1620 -0.1010
17788TIP3    H174855   2.769   3.160   3.067  1.2978 -0.3449  0.0683
17788TIP3    H274856   2.854   3.281   3.030 -1.1270  1.2085 -0.5012
17789TIP3   OH274857   3.758   3.463   3.084 -0.2226  0.6467  0.5294
17789TIP3    H174858   3.818   3.506   3.023 -0.9396  0.3170 -0.4216
17789TIP3    H274859   3.695   3.418   3.028 -0.5698 -0.1188  1.5154
17790TIP3   OH274860   1.572   1.873   3.600 -0.3922  1.1352  0.1255
17790TIP3    H174861   1.524   1.802   3.557 -0.1687  0.9553  0.1700
17790TIP3    H274862   1.645   1.829   3.643  0.9843  1.6476 -1.6291
17791TIP3   OH274863   1.863   4.618   0.960 -0.3046  0.1373 -0.0573
17791TIP3    H174864   1.861   4.614   0.864 -1.8024 -0.2990 -0.0289
17791TIP3    H274865   1.888   4.529   0.987 -1.4299 -0.1940 -0.0393
17792TIP3   OH274866   4.962   3.293  14.579  0.7335 -0.2439 -0.5865
17792TIP3    H174867   4.918   3.267  14.660  1.6846  2.4010  0.8638
17792TIP3    H274868   5.014   3.217  14.554 -0.2285 -1.3927  0.8332
17793TIP3   OH274869   4.961   4.950  13.845  0.2771 -0.2469  0.5319
17793TIP3    H174870   4.907   4.870  13.847 -2.4299  1.4994 -0.2663
17793TIP3    H274871   4.971   4.974  13.937  0.7053 -1.2050  0.7513
17794TIP3   OH274872   3.840   2.597   2.864 -0.1573 -0.7748  0.1325
17794TIP3    H174873   3.912   2.628   2.919 -0.1274 -0.7979  0.1065
17794TIP3    H274874   3.877   2.523   2.816  1.2919  2.1383 -3.4865
17795TIP3   OH274875   5.235   6.609   1.536  0.8023 -0.0041 -0.0858
17795TIP3    H174876   5.300   6.675   1.560 -0.0370  0.0787  2.0915
17795TIP3    H274877   5.161   6.660   1.501  0.3729  0.2047  1.0854
17796TIP3   OH274878   0.617   5.132   1.612 -0.5098 -0.2057  0.0950
17796TIP3    H174879   0.704   5.096   1.630 -0.7541  0.3738  2.6360
17796TIP3    H274880   0.634   5.213   1.564  0.3507 -0.2707  0.2744
17797TIP3   OH274881   2.038   1.053   4.002 -0.3007 -0.3279  0.0442
17797TIP3    H174882   2.044   1.065   4.096 -1.5249 -0.2173  0.1160
17797TIP3    H274883   2.121   1.087   3.968  0.1026 -0.2754  1.0607
17798TIP3   OH274884   0.538   2.191   1.967  0.2147 -0.4806 -0.1542
17798TIP3    H174885   0.540   2.224   2.057  1.1169  0.9663 -0.6894
17798TIP3    H274886   0.584   2.108   1.971  0.2353 -0.4328  0.7233
17799TIP3   OH274887   3.551   2.422   1.938  0.4386  0.3817  0.2145
17799TIP3    H174888   3.578   2.398   1.850  0.3999  1.8834 -0.2224
17799TIP3    H274889   3.472   2.370   1.954  0.9174 -0.5126 -0.3049
17800TIP3   OH274890   4.465   5.862  15.642  0.3339 -0.7662 -0.2770
17800TIP3    H174891   4.490   5.912  15.564 -1.3978  2.3461  1.0700
17800TIP3    H274892   4.495   5.916  15.716  0.5551 -2.8964  1.2229
17801TIP3   OH274893   1.875   6.380   2.032 -0.2886  0.0217 -0.2627
17801TIP3    H174894   1.822   6.345   1.961 -0.4438 -1.2683  0.4825
17801TIP3    H274895   1.812   6.422   2.090 -0.5102 -1.4849  0.6071
17802TIP3   OH274896   5.027   4.375  15.979  0.3755 -0.0455  0.1355
17802TIP3    H174897   5.084   4.429  16.035  0.7833  0.0771 -0.3966
17802TIP3    H274898   5.070   4.375  15.894  0.5821 -1.5420  0.2313
17803TIP3   OH274899   2.798   1.836  13.179  0.3712 -0.5610 -0.4272
17803TIP3    H174900   2.846   1.769  13.131  0.3372 -1.1319  0.3201
17803TIP3    H274901   2.708   1.829  13.147  0.7150  0.2890 -1.5891
17804TIP3   OH274902   4.125   1.524   0.336 -0.5699  0.1011 -0.1870
17804TIP3    H174903   4.204   1.573   0.361 -0.5296  0.6337 -1.3364
17804TIP3    H274904   4.158   1.438   0.310 -0.1155  1.0016 -2.7018
17805TIP3   OH274905   1.700   0.235   4.714 -0.7138 -0.0686 -0.2587
17805TIP3    H174906   1.778   0.269   4.671 -0.0032  0.8280  1.6645
17805TIP3    H274907   1.665   0.170   4.653  1.6042 -0.5784 -1.1133
17806TIP3   OH274908   0.662   3.804   0.396 -0.6004 -0.5412 -0.2746
17806TIP3    H174909   0.718   3.812   0.472  0.8430  0.5676 -1.4173
17806TIP3    H274910   0.635   3.894   0.376 -1.0008 -0.8179 -1.0205
17807TIP3   OH274911   1.066   5.873  11.619  0.3599 -0.0949 -0.0093
17807TIP3    H174912   1.143   5.929  11.614 -0.8471  1.6695  0.8069
17807TIP3    H274913   1.060   5.849  11.712  0.5659 -1.1665 -0.2620
17808TIP3   OH274914   5.649   5.780  13.191 -0.3250 -0.0299  0.1642
17808TIP3    H174915   5.633   5.867  13.228  0.2259  0.0369  0.2564
17808TIP3    H274916   5.744   5.775  13.181 -0.3274 -0.7197  0.4006
17809TIP3   OH274917   4.040   4.931  14.457 -0.0835 -0.1711 -0.6900
17809TIP3    H174918   4.004   5.014  14.489  1.7766  0.2246  0.4124
17809TIP3    H274919   4.024   4.934  14.362  0.1343  1.5381 -0.6975
17810TIP3   OH274920   2.191   1.958   3.527  0.4094 -0.3316 -0.4052
17810TIP3    H174921   2.151   1.915   3.452  0.8073  0.1403 -0.8968
17810TIP3    H274922   2.284   1.961   3.506  0.3024  1.4611 -0.7648
17811TIP3   OH274923   1.658   1.270  11.270 -0.0167  0.2156 -0.5108
17811TIP3    H174924   1.741   1.316  11.253 -0.3744  0.4045 -1.8012
17811TIP3    H274925   1.671   1.182  11.235 -0.7915  0.6349 -1.9106
17812TIP3   OH274926   0.347   1.515  13.569  0.2198  0.0817  0.1282
17812TIP3    H174927   0.323   1.493  13.479  3.0624  0.9173 -0.9177
17812TIP3    H274928   0.442   1.531  13.565  0.3498  0.4307  3.2159
17813TIP3   OH274929   0.562   1.573  12.788  0.1013  0.0843 -0.2786
17813TIP3    H174930   0.496   1.587  12.856  0.3797 -2.2620  0.4919
17813TIP3    H274931   0.511   1.559  12.708 -0.2656  0.4704 -0.1184
17814TIP3   OH274932   6.015   0.690   1.587 -0.2290 -0.7980 -0.3950
17814TIP3    H174933   6.048   0.707   1.675 -0.4725  1.7843 -0.7523
17814TIP3    H274934   6.091   0.655   1.540  0.4951 -0.1591  0.2687
17815TIP3   OH274935   2.751   4.831  13.842  0.6536 -0.1306  0.2676
17815TIP3    H174936   2.673   4.836  13.787 -0.5497 -0.5581  1.8747
17815TIP3    H274937   2.751   4.741  13.875  0.7116  0.4250  1.8370
17816TIP3   OH274938   2.860   1.342  16.251 -0.1063 -0.2306  0.3326
17816TIP3    H174939   2.903   1.412  16.201  0.0988 -0.2745  0.4489
17816TIP3    H274940   2.789   1.313  16.193 -0.3210  0.2086  0.3715
17817TIP3   OH274941   3.870   0.865   1.597 -0.3350 -0.1163 -0.1530
17817TIP3    H174942   3.804   0.887   1.663 -0.3940  0.8394 -0.5277
17817TIP3    H274943   3.837   0.786   1.555 -0.8095 -0.1364  0.2489
17818TIP3   OH274944   1.437   6.527  14.541 -0.1231 -0.3831 -0.3077
17818TIP3    H174945   1.385   6.449  14.519 -1.4293  0.2124  0.6347
17818TIP3    H274946   1.502   6.532  14.471 -2.3684 -0.2025 -2.4674
17819TIP3   OH274947   2.858   2.118   3.144 -0.0743 -0.4771 -0.4553
17819TIP3    H174948   2.925   2.181   3.171  1.3509 -1.5692 -1.3168
17819TIP3    H274949   2.797   2.168   3.091  0.1480  0.5216  0.2284
17820TIP3   OH274950   1.154   4.855  15.277 -0.7358  0.3560 -0.0065
17820TIP3    H174951   1.096   4.778  15.280 -0.4161  0.1099 -0.0463
17820TIP3    H274952   1.220   4.832  15.212 -1.4751  1.2680 -1.0871
17821TIP3   OH274953   0.537   5.877  15.495 -0.5844 -0.1314  0.4605
17821TIP3    H174954   0.552   5.783  15.488 -1.6902 -0.1747 -1.8437
17821TIP3    H274955   0.623   5.914  15.516 -0.1211 -1.6325  1.2486
17822TIP3   OH274956   1.439   1.488   2.203  0.4103  0.3428  0.7141
17822TIP3    H174957   1.466   1.422   2.266  0.9044  0.8497  1.0408
17822TIP3    H274958   1.451   1.571   2.249 -0.3406  0.6513  0.3600
17823TIP3   OH274959   6.553   0.508  16.605 -0.7192  0.0559 -0.0384
17823TIP3    H174960   6.481   0.463  16.561 -0.3937  1.2579 -1.8964
17823TIP3    H274961   6.625   0.505  16.541 -0.0370  1.3144  0.6537
17824TIP3   OH274962   4.190   2.450  13.629  0.1320  0.7901 -0.1474
17824TIP3    H174963   4.267   2.430  13.683  0.0428  0.7526 -0.0343
17824TIP3    H274964   4.189   2.383  13.562  0.5701  1.1695 -0.5336
17825TIP3   OH274965   1.721   0.297   5.684 -0.4221  0.4133  0.0894
17825TIP3    H174966   1.768   0.245   5.620 -0.6232  1.1222 -0.6467
17825TIP3    H274967   1.629   0.287   5.660 -0.4325  1.5488 -0.4207
17826TIP3   OH274968   3.032   1.217   5.674 -0.7400 -0.3450  0.4650
17826TIP3    H174969   3.033   1.249   5.764 -0.6530 -0.3109  0.4525
17826TIP3    H274970   3.123   1.193   5.656 -0.7798 -0.4699  0.4294
17827TIP3   OH274971   2.180   2.361  14.326 -0.0117  0.0641  0.1491
17827TIP3    H174972   2.162   2.310  14.405  0.6224  1.2575  1.0667
17827TIP3    H274973   2.158   2.301  14.254  1.1614 -1.6766  1.1907
17828TIP3   OH274974   6.542   2.831  14.967  0.3919 -0.0013 -0.6111
17828TIP3    H174975   6.451   2.860  14.979  0.1143 -0.0314 -2.3827
17828TIP3    H274976   6.542   2.739  14.993 -0.5655 -0.5535 -2.4596
17829TIP3   OH274977   5.958   1.577   4.697  0.2204 -0.2696 -0.1758
17829TIP3    H174978   6.046   1.615   4.702 -0.3451  0.9848  0.4875
17829TIP3    H274979   5.902   1.641   4.742 -1.2136 -0.4982 -1.6017
17830TIP3   OH274980   2.066   6.186   2.975 -0.1787 -0.3620  0.4022
17830TIP3    H174981   2.078   6.265   3.027 -2.2714  1.3466 -1.6120
17830TIP3    H274982   2.051   6.217   2.886 -1.4886 -2.9827 -0.3555
17831TIP3   OH274983   3.709   3.768  13.985  0.3773  0.0299 -0.1581
17831TIP3    H174984   3.652   3.804  14.053  0.7489 -1.9312  1.2415
17831TIP3    H274985   3.722   3.677  14.011  1.2102 -0.5281 -2.4250
17832TIP3   OH274986   2.415   0.765   4.313 -0.2847 -0.1123 -0.0060
17832TIP3    H174987   2.407   0.851   4.355  0.5107  0.5847 -1.2565
17832TIP3    H274988   2.326   0.730   4.312 -0.5238  0.4468  1.0236
17833TIP3   OH274989   1.847   2.530  15.463  0.2484 -0.2283  0.2265
17833TIP3    H174990   1.780   2.473  15.425 -0.3996 -0.2674  1.4038
17833TIP3    H274991   1.811   2.557  15.547  0.3908  2.2038 -0.4395
17834TIP3   OH274992   1.068   4.252   3.770 -0.1977 -0.5700 -0.0268
17834TIP3    H174993   1.058   4.344   3.797  1.0910  0.0384 -1.5227
17834TIP3    H274994   1.099   4.208   3.849 -1.2192  0.1958  0.8204
17835TIP3   OH274995   4.155   6.372   2.814 -0.1098  0.9160  0.0689
17835TIP3    H174996   4.064   6.402   2.815 -0.5010 -0.2522 -0.1671
17835TIP3    H274997   4.153   6.291   2.764  0.7116 -0.3026  1.9806
17836TIP3   OH274998   0.614   5.425   4.168  0.6416 -0.2300 -0.7432
17836TIP3    H174999   0.646   5.514   4.181  0.8330 -0.4063 -0.0185
17836TIP3    H275000   0.522   5.437   4.141  0.8180  0.2025 -1.1613
17837TIP3   OH275001   6.305   0.019   5.216 -0.1998 -0.2211 -0.0845
17837TIP3    H175002   6.261   0.025   5.301 -0.7938 -0.4735 -0.3733
17837TIP3    H275003   6.286   0.103   5.174 -1.1866 -0.6855 -0.5824
17838TIP3   OH275004   3.298   5.048   3.480  0.0583  0.2070 -0.5948
17838TIP3    H175005   3.369   4.993   3.445 -0.0506  0.1562 -0.7343
17838TIP3    H275006   3.253   5.080   3.403  0.8383  1.4414 -0.5493
17839TIP3   OH275007   2.858   2.743   1.255  0.3279  0.4358 -0.7227
17839TIP3    H175008   2.820   2.688   1.186 -0.6712 -0.9049  0.8526
17839TIP3    H275009   2.820   2.830   1.239  0.0407  0.1279 -1.8091
17840TIP3   OH275010   5.921   6.738   4.598  0.1936 -0.1309 -0.1124
17840TIP3    H175011   5.860   6.784   4.540 -1.3909 -1.2525  0.6035
17840TIP3    H275012   5.970   6.680   4.540  2.6377  2.8183 -1.1087
17841TIP3   OH275013   4.751   4.421   0.962  0.2936 -0.0642 -0.0089
17841TIP3    H175014   4.822   4.359   0.978  0.7419  0.0371 -1.5256
17841TIP3    H275015   4.763   4.448   0.871  0.2099  2.3991  0.6848
17842TIP3   OH275016   2.775   5.206   4.756 -0.5999  0.2341  0.6399
17842TIP3    H175017   2.736   5.294   4.755 -0.9735  0.0610 -1.1904
17842TIP3    H275018   2.711   5.153   4.803 -2.5599  0.0083 -2.1296
17843TIP3   OH275019   2.883   5.573   3.509  0.1431 -0.7511 -0.4752
17843TIP3    H175020   2.914   5.664   3.512 -0.6176 -0.4529 -1.5370
17843TIP3    H275021   2.890   5.543   3.600  1.4991 -0.0052 -0.3088
17844TIP3   OH275022   5.279   6.770   3.031  0.0165 -0.3183 -0.1970
17844TIP3    H175023   5.364   6.776   3.073 -0.0019 -1.0862 -0.0498
17844TIP3    H275024   5.275   6.681   2.996 -0.5408 -0.1433 -0.5895
17845TIP3   OH275025   6.118   6.278  15.412  0.9612 -0.3251 -0.0013
17845TIP3    H175026   6.171   6.338  15.464 -1.8853  3.1037 -0.8193
17845TIP3    H275027   6.032   6.279  15.456  0.1606 -1.8315 -1.5061
17846TIP3   OH275028   2.953   5.529  12.644 -0.4267 -0.0137  0.3553
17846TIP3    H175029   3.034   5.578  12.659  0.4001 -0.9396 -1.0450
17846TIP3    H275030   2.924   5.504  12.732  0.4279  0.9010  0.9181
17847TIP3   OH275031   2.456   1.291  14.119 -0.0996  0.0530  0.3784
17847TIP3    H175032   2.515   1.229  14.077  0.9170  1.6667 -0.6472
17847TIP3    H275033   2.468   1.276  14.213  2.0397  0.4301  0.1880
17848TIP3   OH275034   1.754   4.124  15.914 -0.1516 -0.2977  0.3297
17848TIP3    H175035   1.840   4.086  15.931 -0.3295 -1.1505 -0.6238
17848TIP3    H275036   1.698   4.089  15.982  0.2805  0.3850  1.0489
17849TIP3   OH275037   5.462   4.700   0.029 -0.8340 -0.8786 -0.2953
17849TIP3    H175038   5.421   4.756   0.095  3.8597  3.4194 -0.7800
17849TIP3    H275039   5.530   4.652   0.076  0.5454 -0.0240 -1.3724
17850TIP3   OH275040   5.722   0.506  14.439 -0.4105 -0.2115  0.2777
17850TIP3    H175041   5.637   0.495  14.480  0.2650 -0.4836  1.6522
17850TIP3    H275042   5.727   0.600  14.418 -0.7903 -0.0848  0.7572
17851TIP3   OH275043   0.747   0.177  15.024  0.2014 -0.8481 -0.8241
17851TIP3    H175044   0.760   0.222  15.107  0.7262  0.1426 -1.4324
17851TIP3    H275045   0.754   0.084  15.046 -1.1386 -0.6568  0.4871
17852TIP3   OH275046   5.274   0.117  14.952  0.1299  0.4801  0.1243
17852TIP3    H175047   5.336   0.087  14.886  0.2291  1.6728 -0.3188
17852TIP3    H275048   5.202   0.054  14.947 -0.1563  0.9386 -1.5646
17853TIP3   OH275049   6.371   4.262  14.272 -0.5405  0.1317 -0.3490
17853TIP3    H175050   6.391   4.191  14.333  1.2188  0.1860 -0.8380
17853TIP3    H275051   6.321   4.221  14.202 -1.6143 -0.1433  0.5603
17854TIP3   OH275052   5.322   6.782   4.484 -0.3657  0.5460 -0.6436
17854TIP3    H175053   5.410   6.803   4.454  0.0127 -0.5564 -0.3484
17854TIP3    H275054   5.317   6.819   4.572  1.2248 -2.7452  0.9318
17855TIP3   OH275055   2.770   3.824   1.689  0.1444 -0.4672 -0.6167
17855TIP3    H175056   2.707   3.752   1.692 -2.0971  1.5010  1.4570
17855TIP3    H275057   2.822   3.813   1.768  0.0889 -0.0701 -0.5260
17856TIP3   OH275058   1.404   5.564  11.339  0.0833 -0.0860  0.7540
17856TIP3    H175059   1.456   5.634  11.299 -0.6926 -0.1234 -0.3368
17856TIP3    H275060   1.461   5.528  11.407  1.4436 -0.0404 -0.3301
17857TIP3   OH275061   5.483   2.219  12.481 -0.4662  0.5189 -0.3667
17857TIP3    H175062   5.397   2.195  12.447  0.1308 -0.0644 -1.5134
17857TIP3    H275063   5.503   2.152  12.546 -0.2275 -0.2439 -1.2098
17858TIP3   OH275064   0.004   3.210  16.273  0.1679 -0.2698 -0.0708
17858TIP3    H175065  -0.053   3.207  16.196 -1.1404 -1.5500  0.9370
17858TIP3    H275066   0.017   3.119  16.298 -0.0816  0.1457  1.6941
17859TIP3   OH275067   2.587   6.016  15.076 -0.0688 -0.6394  0.0262
17859TIP3    H175068   2.551   5.931  15.100 -1.9183  0.4420  1.1497
17859TIP3    H275069   2.533   6.080  15.123  1.8928  1.1252 -0.0231
17860TIP3   OH275070   6.361   2.030  12.326 -0.2092  0.2292  0.3916
17860TIP3    H175071   6.297   2.031  12.254 -0.1125  2.0105  0.2995
17860TIP3    H275072   6.408   2.113  12.317  2.2263 -1.0891  0.3719
17861TIP3   OH275073   4.824   5.026   0.389  0.0722  0.0701  0.1266
17861TIP3    H175074   4.835   4.990   0.301 -1.5315  0.2987 -0.1821
17861TIP3    H275075   4.908   5.069   0.408  0.9472 -1.2182 -0.6951
17862TIP3   OH275076   4.750   2.584   1.856 -0.3812 -0.1968 -0.2004
17862TIP3    H175077   4.817   2.552   1.795 -0.5411 -1.9768  0.5443
17862TIP3    H275078   4.724   2.669   1.820  0.7206 -0.4672 -1.6897
17863TIP3   OH275079   2.602   2.888  11.809  0.4943  0.2952 -0.4176
17863TIP3    H175080   2.654   2.821  11.765  2.2409  0.5583  1.1882
17863TIP3    H275081   2.575   2.947  11.738  3.9102  1.1616 -1.0932
17864TIP3   OH275082   5.065   0.964   2.476  0.2229  0.2263  0.2110
17864TIP3    H175083   5.020   1.029   2.422  0.3227 -0.0017 -0.1535
17864TIP3    H275084   5.152   0.958   2.436  0.5355  0.5690  0.8261
17865TIP3   OH275085   4.437   3.433   0.138 -0.4359 -0.0198  0.6501
17865TIP3    H175086   4.354   3.477   0.158 -0.3853  1.1453 -1.5347
17865TIP3    H275087   4.504   3.499   0.155 -0.3547  0.8321 -2.5945
17866TIP3   OH275088   4.467   1.353   1.354  0.2938 -0.1162 -0.4251
17866TIP3    H175089   4.429   1.390   1.433  1.5557  1.4933 -0.5408
17866TIP3    H275090   4.404   1.288   1.325 -2.1471  2.1361 -0.3689
17867TIP3   OH275091   1.838   1.555  12.086 -0.0739 -0.0343  0.1173
17867TIP3    H175092   1.858   1.539  11.994 -0.0817 -4.2728  0.7449
17867TIP3    H275093   1.923   1.562  12.129 -0.0701 -0.0355  0.1105
17868TIP3   OH275094   2.841   0.199   2.977 -0.0618  0.2219 -0.2802
17868TIP3    H175095   2.792   0.122   3.006 -1.1705 -0.1133 -2.9773
17868TIP3    H275096   2.929   0.186   3.013  0.1080 -2.9434 -1.7279
17869TIP3   OH275097   5.896   0.358   4.514 -0.2502  0.0435  0.5287
17869TIP3    H175098   5.977   0.372   4.563 -0.0067  0.4820  0.0125
17869TIP3    H275099   5.852   0.443   4.515  0.2562  0.3483 -0.8859
17870TIP3   OH275100   4.146   3.957  12.838 -0.7917  0.6828  0.0752
17870TIP3    H175101   4.184   4.028  12.890  0.6758  0.6141 -0.8953
17870TIP3    H275102   4.117   3.893  12.903  3.3486 -0.5963  0.8267
17871TIP3   OH275103   4.575   6.527   2.256 -0.5720  0.5488 -0.0695
17871TIP3    H175104   4.578   6.581   2.335 -1.6749  1.4735 -0.6434
17871TIP3    H275105   4.494   6.477   2.265  1.4712 -2.6229  1.4652
17872TIP3   OH275106   5.298   0.921  11.450  0.1300 -0.0228 -0.2505
17872TIP3    H175107   5.220   0.960  11.410  0.8435  0.5883 -1.0843
17872TIP3    H275108   5.315   0.977  11.526  0.2720  0.3966 -0.5839
17873TIP3   OH275109   4.066   2.759   5.617  0.1258  0.3226 -0.2766
17873TIP3    H175110   3.984   2.802   5.593 -0.5023 -1.0558 -0.6532
17873TIP3    H275111   4.098   2.808   5.693 -1.2189  0.6754  0.0730
17874TIP3   OH275112   6.083   0.331  14.017 -0.3855 -0.5424 -0.0461
17874TIP3    H175113   6.076   0.404  13.956  0.9778 -0.0418  0.3675
17874TIP3    H275114   6.079   0.372  14.104 -2.0395 -1.2177  0.2044
17875TIP3   OH275115   1.205   5.133  15.629 -1.2755  0.1435 -0.0885
17875TIP3    H175116   1.268   5.200  15.602  0.2564 -0.9651  0.6618
17875TIP3    H275117   1.151   5.177  15.694  0.8689  0.1918  1.7438
17876TIP3   OH275118   3.996   4.690  11.637 -0.9784  0.0718  0.5389
17876TIP3    H175119   3.905   4.671  11.615 -0.4574 -0.8423 -0.9241
17876TIP3    H275120   4.020   4.765  11.583 -0.4994 -0.4636  0.0019
17877TIP3   OH275121   3.604   0.478  14.918  0.2270 -0.0081  0.2072
17877TIP3    H175122   3.657   0.484  14.998  1.1934  2.0235 -0.5466
17877TIP3    H275123   3.567   0.390  14.920  1.0378 -0.3208  2.3967
17878TIP3   OH275124   5.431   2.245  16.586 -0.5808  0.4259  0.0393
17878TIP3    H175125   5.488   2.320  16.567 -0.8234  0.9206  1.1514
17878TIP3    H275126   5.369   2.280  16.651 -0.3256 -0.9010  1.0138
17879TIP3   OH275127   2.046   4.951   1.809  0.0137  0.2965  0.1655
17879TIP3    H175128   2.139   4.960   1.791 -0.0105  0.5543  0.1666
17879TIP3    H275129   2.041   4.939   1.904  0.0341  0.4489  0.1859
17880TIP3   OH275130   2.381   1.357   5.301  0.3789 -0.1141 -0.7230
17880TIP3    H175131   2.417   1.312   5.377 -0.5228 -0.9683 -0.7916
17880TIP3    H275132   2.447   1.347   5.233  1.6330  1.5108  0.2336
17881TIP3   OH275133   2.099   2.708  16.913  0.3743 -0.0066  0.4802
17881TIP3    H175134   2.176   2.734  16.963  1.2846  0.3339 -1.0574
17881TIP3    H275135   2.123   2.624  16.874 -0.5179 -0.5269  1.0237
17882TIP3   OH275136   1.763   0.974  16.786  0.1029  0.2004 -0.8992
17882TIP3    H175137   1.844   0.982  16.836 -1.3552  1.2535  1.3355
17882TIP3    H275138   1.719   0.898  16.824 -0.6453  0.5282 -1.1024
17883TIP3   OH275139   3.162   6.139   2.310 -0.1256 -0.2237  0.4839
17883TIP3    H175140   3.147   6.072   2.244 -1.4096  1.8589 -1.4277
17883TIP3    H275141   3.075   6.178   2.324  0.3712  0.2092  2.4468
17884TIP3   OH275142   2.248   2.710   2.379 -0.0940  0.7778  0.2305
17884TIP3    H175143   2.292   2.792   2.400  0.2806  0.8276 -0.7318
17884TIP3    H275144   2.253   2.703   2.283  0.5545 -0.7388  0.3529
17885TIP3   OH275145   3.771   3.933  15.072 -0.2119  0.2205  0.2200
17885TIP3    H175146   3.679   3.931  15.097 -0.0063  1.5434  1.0958
17885TIP3    H275147   3.815   3.982  15.141  1.1148 -0.1360 -0.3319
17886TIP3   OH275148   4.877   3.500  15.029 -0.2436  0.0614 -0.0374
17886TIP3    H175149   4.833   3.448  14.962 -1.7727  1.6475 -0.3162
17886TIP3    H275150   4.826   3.483  15.109 -0.2980  0.5502  0.0327
17887TIP3   OH275151   0.079   4.742  12.389  0.8030  0.1007 -0.6287
17887TIP3    H175152   0.074   4.791  12.307  0.3623  0.8904 -0.1345
17887TIP3    H275153   0.071   4.808  12.457  0.0595 -0.6679  0.0468
17888TIP3   OH275154   6.812   1.431   1.240  0.6053  0.5442 -0.0255
17888TIP3    H175155   6.717   1.422   1.229  0.6303 -0.4867  0.5052
17888TIP3    H275156   6.830   1.524   1.226 -0.3578  0.5825 -1.0674
17889TIP3   OH275157   1.185   3.084   5.115 -0.0545  0.2632  0.1924
17889TIP3    H175158   1.204   3.051   5.027 -0.5887 -0.7171  0.4423
17889TIP3    H275159   1.153   3.008   5.163  2.5085  0.2381  1.9651
17890TIP3   OH275160   0.813   5.172  10.600 -0.5425 -0.3298 -0.3896
17890TIP3    H175161   0.831   5.261  10.571 -1.0376 -0.2627 -0.4806
17890TIP3    H275162   0.878   5.119  10.554 -0.9287 -0.1482 -1.1501
17891TIP3   OH275163   0.589   4.455  11.748 -0.1429 -0.5938  0.2617
17891TIP3    H175164   0.598   4.386  11.813 -3.4105 -0.5001  0.9040
17891TIP3    H275165   0.551   4.411  11.672 -0.5649  0.1454  0.0413
17892TIP3   OH275166   1.827   1.633  17.051  0.1123 -0.6252 -0.3070
17892TIP3    H175167   1.919   1.655  17.036  1.0142 -1.2578  3.6829
17892TIP3    H275168   1.825   1.537  17.052 -0.3559 -0.6123  0.7165
17893TIP3   OH275169   3.356   6.407  17.197 -0.1658 -0.4300 -0.2580
17893TIP3    H175170   3.369   6.312  17.185 -1.2092 -0.5996 -0.1631
17893TIP3    H275171   3.280   6.427  17.141 -1.0678  0.0091  1.0868
17894TIP3   OH275172   5.729   0.846  16.375 -0.2370  0.2240 -0.0868
17894TIP3    H175173   5.675   0.915  16.336  0.4208  0.4993 -0.5233
17894TIP3    H275174   5.763   0.886  16.455 -1.5553 -0.3272  0.7631
17895TIP3   OH275175   5.147   0.094  13.941 -0.1496 -0.0206 -0.3885
17895TIP3    H175176   5.235   0.124  13.920  1.0329 -2.9855  0.1063
17895TIP3    H275177   5.093   0.173  13.935  2.6855  2.0717  0.3224
17896TIP3   OH275178   6.450   2.112   4.258  0.3735  0.1255 -0.2449
17896TIP3    H175179   6.536   2.144   4.229  0.8019 -1.4438 -0.7485
17896TIP3    H275180   6.433   2.036   4.203 -0.6933 -0.4383  0.8399
17897TIP3   OH275181   0.742   3.906  12.267 -0.2888  0.3999  0.1685
17897TIP3    H175182   0.711   3.849  12.337 -0.8194  0.0574 -0.3354
17897TIP3    H275183   0.674   3.899  12.199 -0.0471  1.1362 -0.1574
17898TIP3   OH275184   2.658   3.153  13.738  0.1429  0.2801 -0.8205
17898TIP3    H175185   2.631   3.062  13.725 -0.8308  0.4616 -0.0814
17898TIP3    H275186   2.753   3.151  13.728  0.4019 -1.2405  1.5943
17899TIP3   OH275187   5.482   5.981  14.587  0.0064  0.5153 -0.8683
17899TIP3    H175188   5.538   6.054  14.615  0.8416 -0.0708 -0.9830
17899TIP3    H275189   5.446   6.010  14.503 -0.1737  1.0607 -0.6034
17900TIP3   OH275190   6.183   5.890  14.491 -0.4679  0.3008  0.1327
17900TIP3    H175191   6.221   5.965  14.537 -0.2393 -0.2147  0.7934
17900TIP3    H275192   6.135   5.842  14.559  1.5675 -1.5906  0.2695
17901TIP3   OH275193   0.883   2.145   5.185 -0.5507  0.2952  0.1235
17901TIP3    H175194   0.913   2.090   5.112 -0.7489 -0.9695  0.9849
17901TIP3    H275195   0.788   2.146   5.177 -0.6009 -0.2141  0.6179
17902TIP3   OH275196   0.746   1.575   4.731 -0.0884 -0.3548 -0.0803
17902TIP3    H175197   0.746   1.600   4.823  0.1599 -1.1066  0.1199
17902TIP3    H275198   0.776   1.654   4.685  1.4717 -0.5272  0.6233
17903TIP3   OH275199   2.279   4.012  12.031  1.0323 -0.5305 -0.2460
17903TIP3    H175200   2.302   3.920  12.021  2.4225 -0.3289  0.9793
17903TIP3    H275201   2.313   4.054  11.952  0.9655 -0.9465 -0.5006
17904TIP3   OH275202   1.880   0.456  14.384 -0.5677 -0.3153  0.1981
17904TIP3    H175203   1.885   0.379  14.441 -1.7463  0.1160  0.8944
17904TIP3    H275204   1.883   0.531  14.444  0.2183  0.1839 -0.4471
17905TIP3   OH275205   2.413   3.541   5.366  0.5992  0.2738  0.6136
17905TIP3    H175206   2.426   3.619   5.311 -0.3650 -1.7617 -2.6226
17905TIP3    H275207   2.502   3.509   5.383  0.8141 -1.0178 -2.7091
17906TIP3   OH275208   5.828   4.919   0.362  0.2546 -0.1712 -0.1032
17906TIP3    H175209   5.750   4.907   0.417 -0.7761 -1.6998 -1.8330
17906TIP3    H275210   5.821   4.850   0.296  2.5697  0.3079 -0.8860
17907TIP3   OH275211   3.813   3.366   5.366 -0.1083  0.0471 -0.4608
17907TIP3    H175212   3.792   3.444   5.315  1.2641  1.7610  1.5217
17907TIP3    H275213   3.906   3.352   5.351  0.3738  0.7244  1.7021
17908TIP3   OH275214   3.689   2.653   4.176 -0.0320  0.2201  0.1231
17908TIP3    H175215   3.726   2.586   4.234 -0.0641 -0.4632 -0.6408
17908TIP3    H275216   3.611   2.612   4.138 -0.0619  0.6949 -0.3379
17909TIP3   OH275217   1.628   1.742  11.894  0.4661 -0.5180  0.3419
17909TIP3    H175218   1.657   1.780  11.977  0.9526 -2.7628  1.2399
17909TIP3    H275219   1.709   1.714  11.851  0.1422 -0.2531 -0.4406
17910TIP3   OH275220   5.513   2.753  10.896  0.4635 -0.4991 -0.3614
17910TIP3    H175221   5.569   2.785  10.968  0.3521 -0.0356 -0.4845
17910TIP3    H275222   5.539   2.805  10.820  0.3475 -0.7632 -0.5808
17911TIP3   OH275223   4.365   2.891   0.614  0.3498 -0.4625  0.3398
17911TIP3    H175224   4.302   2.908   0.545 -0.4331  0.6003  1.2896
17911TIP3    H275225   4.449   2.878   0.569 -0.2067 -0.0560 -0.8010
17912TIP3   OH275226   0.957   2.536   0.212 -0.4706 -0.1565  0.3035
17912TIP3    H175227   0.907   2.585   0.147  1.0635  0.1386 -0.6730
17912TIP3    H275228   1.034   2.504   0.165  0.2877 -0.5844  1.7842
17913TIP3   OH275229   3.340   1.980  15.919  0.3891  0.3555  0.6444
17913TIP3    H175230   3.409   1.959  15.857 -0.1804  0.4972 -0.0442
17913TIP3    H275231   3.260   1.950  15.876  0.1397 -0.8848  1.9276
17914TIP3   OH275232   2.725   5.716  12.752  0.0430 -0.0330 -1.0832
17914TIP3    H175233   2.797   5.659  12.778 -0.1842  0.6564  1.0863
17914TIP3    H275234   2.766   5.784  12.698  0.4603 -1.6117 -2.8157
17915TIP3   OH275235   2.874   2.886  17.182 -0.2854 -0.6665  0.1116
17915TIP3    H175236   2.808   2.895  17.250 -1.9859  0.1053 -1.6294
17915TIP3    H275237   2.855   2.954  17.118  2.0559 -0.5572 -0.5497
17916TIP3   OH275238   1.327   4.638  13.309 -0.5208 -0.4185 -0.1315
17916TIP3    H175239   1.372   4.722  13.297 -0.1569 -0.5582  0.2164
17916TIP3    H275240   1.248   4.645  13.256 -0.3579  0.0435 -0.3185
17917TIP3   OH275241   0.033   6.071  17.059  0.0771 -0.1016 -0.1547
17917TIP3    H175242   0.071   6.002  17.004 -0.1161 -2.3425  2.3994
17917TIP3    H275243   0.040   6.151  17.007  1.8033 -1.7623 -2.5492
17918TIP3   OH275244   4.579   6.812   1.999 -0.0598  0.8430 -0.3308
17918TIP3    H175245   4.523   6.809   1.921 -1.1873 -0.1188  0.5055
17918TIP3    H275246   4.587   6.905   2.020  0.5176  1.1383 -1.7662
17919TIP3   OH275247   0.721   3.406   3.640 -0.5983  0.2469  0.0204
17919TIP3    H175248   0.763   3.376   3.721  0.6772  1.7765 -0.0416
17919TIP3    H275249   0.663   3.334   3.615 -0.2762 -0.6572  1.7571
17920TIP3   OH275250   6.230   5.416   0.844 -0.3253  0.3547 -0.4431
17920TIP3    H175251   6.282   5.336   0.829 -1.2775 -0.1222 -1.2334
17920TIP3    H275252   6.282   5.466   0.907  0.2796 -0.8920  0.0744
17921TIP3   OH275253   3.574   1.079   1.971  0.3305  0.5497  0.0746
17921TIP3    H175254   3.482   1.068   1.994  0.4557  1.9353  1.3563
17921TIP3    H275255   3.573   1.139   1.896  0.0707 -1.7123 -1.7953
17922TIP3   OH275256   1.535   4.171   1.868  0.8580 -0.9780  0.1344
17922TIP3    H175257   1.541   4.158   1.963  2.0743 -0.2176  0.1729
17922TIP3    H275258   1.607   4.230   1.848  0.8926 -1.5207 -1.3443
17923TIP3   OH275259   6.121   6.205  16.383  0.0240  0.6084 -0.2410
17923TIP3    H175260   6.098   6.196  16.476 -0.6488  1.2059 -0.3510
17923TIP3    H275261   6.078   6.132  16.340 -0.1977  0.7054 -0.1816
17924TIP3   OH275262   5.608   1.584   0.744 -0.0177 -0.0177 -0.4383
17924TIP3    H175263   5.561   1.552   0.667  0.3003 -0.9919 -0.2352
17924TIP3    H275264   5.609   1.510   0.805  1.0573  0.2480 -0.1127
17925TIP3   OH275265   3.099   6.648  12.183 -0.4206 -0.6060  0.0694
17925TIP3    H175266   3.193   6.629  12.187 -0.1210  0.5681 -0.9702
17925TIP3    H275267   3.092   6.741  12.203 -1.1374 -0.1829 -1.9727
17926TIP3   OH275268   6.806   4.238  15.149 -0.0708 -0.2806  0.6930
17926TIP3    H175269   6.787   4.328  15.177 -0.3979  0.0675 -0.5879
17926TIP3    H275270   6.890   4.217  15.189 -0.2621  0.3864  1.4621
17927TIP3   OH275271   0.162   2.055  16.018  0.0578  0.2529  0.1545
17927TIP3    H175272   0.244   2.010  15.997  0.4192  0.0246  2.0162
17927TIP3    H275273   0.150   2.040  16.111 -1.1338  1.9003  0.2696
17928TIP3   OH275274   5.417   3.020  11.571  0.8246  0.1656  0.1138
17928TIP3    H175275   5.481   3.076  11.614  2.0319 -0.4618 -0.8396
17928TIP3    H275276   5.377   3.076  11.504  0.5535  0.4811  0.5372
17929TIP3   OH275277   5.143   2.973   2.157  0.0646  0.6046  0.3452
17929TIP3    H175278   5.220   2.985   2.102 -0.3020  1.4372  0.0064
17929TIP3    H275279   5.148   2.882   2.186  0.9317  0.5272 -0.0401
17930TIP3   OH275280   3.915   4.893  15.208  0.6390 -0.7018  0.3915
17930TIP3    H175281   3.970   4.956  15.255 -0.3484  0.1637  0.4089
17930TIP3    H275282   3.839   4.880  15.265 -1.1465  1.2735 -1.4692
17931TIP3   OH275283   4.293   2.756  11.186 -0.2055  0.0648 -0.2345
17931TIP3    H175284   4.376   2.709  11.171 -0.1075  0.8441 -2.4264
17931TIP3    H275285   4.319   2.835  11.234  0.4492  0.6664 -1.5488
17932TIP3   OH275286   4.713   3.101   4.048 -0.4035  0.2649 -0.1571
17932TIP3    H175287   4.675   3.159   3.983 -0.7706 -0.1894 -0.3468
17932TIP3    H275288   4.802   3.134   4.061  0.3862 -0.8630 -2.4049
17933TIP3   OH275289   2.957   4.220  11.558  0.2389  0.5389  0.1299
17933TIP3    H175290   2.945   4.264  11.642 -0.1735  0.7154 -0.0187
17933TIP3    H275291   3.012   4.279  11.508 -1.3362  1.4856 -0.5206
17934TIP3   OH275292   5.871   4.611  16.891  0.1764  0.5092  0.4262
17934TIP3    H175293   5.798   4.644  16.943 -0.5883 -0.0990 -0.2295
17934TIP3    H275294   5.921   4.555  16.950  0.6580  1.7050  1.1436
17935TIP3   OH275295   5.060   5.966   1.617 -0.1692  0.1578 -0.0829
17935TIP3    H175296   5.053   5.876   1.649  0.2600  1.4859  4.0737
17935TIP3    H275297   5.153   5.978   1.600 -0.2902 -0.2964 -1.1215
17936TIP3   OH275298   2.053   3.260  11.755  0.4337  0.0860  0.6289
17936TIP3    H175299   2.095   3.216  11.681 -1.4451  2.3319 -1.8641
17936TIP3    H275300   1.962   3.270  11.728  0.3554  3.5519  2.0092
17937TIP3   OH275301   3.536   4.330  13.948  0.1958 -0.3284  0.0096
17937TIP3    H175302   3.479   4.383  13.892  0.2110  0.5055  0.7661
17937TIP3    H275303   3.476   4.275  13.999  0.1087 -0.0183  0.2404
17938TIP3   OH275304   3.432   5.690  14.311 -0.1925 -0.3796 -0.6389
17938TIP3    H175305   3.490   5.739  14.370 -0.9020 -0.4730  0.1407
17938TIP3    H275306   3.359   5.749  14.294 -0.9477 -1.0824  0.1357
17939TIP3   OH275307   2.226   5.002  13.549  0.0443 -0.2731  0.3996
17939TIP3    H175308   2.297   5.065  13.558  2.4106 -2.6724 -0.5765
17939TIP3    H275309   2.162   5.045  13.494  0.7371  1.9658  1.3074
17940TIP3   OH275310   5.168   3.339  10.954  0.3953 -0.4240 -0.1353
17940TIP3    H175311   5.077   3.358  10.931  0.5320 -0.8519 -1.0543
17940TIP3    H275312   5.193   3.412  11.011 -0.5788 -0.4040  0.2883
17941TIP3   OH275313   4.125   4.217  11.602  0.7971  0.3074  0.1502
17941TIP3    H175314   4.095   4.306  11.622 -0.6993 -0.3522  0.9976
17941TIP3    H275315   4.072   4.162  11.659 -0.4608 -1.3601 -2.5359
17942TIP3   OH275316   2.620   6.214  16.177 -0.0061 -0.2127 -0.1771
17942TIP3    H175317   2.653   6.285  16.121 -0.0070 -1.4241 -1.7761
17942TIP3    H275318   2.581   6.152  16.115  1.5720 -2.4487  1.0144
17943TIP3   OH275319   2.471   3.757  13.991  0.5335  0.0624  0.0573
17943TIP3    H175320   2.417   3.789  13.918 -1.2884 -1.0079  0.8872
17943TIP3    H275321   2.561   3.759  13.958 -0.2427 -0.2189 -2.1644
17944TIP3   OH275322   2.140   1.393   5.181  0.7091 -0.4214  0.4143
17944TIP3    H175323   2.217   1.363   5.230  1.6453 -1.9694 -1.9215
17944TIP3    H275324   2.146   1.348   5.096 -2.2390  0.2007 -0.1902
17945TIP3   OH275325   1.345   5.242  15.944  0.3880  0.4218 -0.0512
17945TIP3    H175326   1.425   5.277  15.985  0.4947 -1.7808  1.7256
17945TIP3    H275327   1.366   5.234  15.851  0.6144  4.2733 -0.4077
17946TIP3   OH275328   4.036   5.196  13.202  0.7184  0.1563  0.2705
17946TIP3    H175329   4.071   5.107  13.194 -2.2266 -0.8046 -3.5177
17946TIP3    H275330   4.097   5.250  13.152  0.6137 -0.3138 -0.3668
17947TIP3   OH275331   6.268   5.155  12.105  0.0586  0.9462  0.5345
17947TIP3    H175332   6.256   5.118  12.193 -0.4869  1.4016  0.6500
17947TIP3    H275333   6.185   5.197  12.085  0.2874  1.1047 -0.0818
17948TIP3   OH275334   5.055   5.853   4.879 -0.6223  0.1656  0.0985
17948TIP3    H175335   5.048   5.808   4.963  0.0543  1.3092  0.7773
17948TIP3    H275336   5.142   5.832   4.847 -1.3852 -1.4353 -1.0201
17949TIP3   OH275337   1.744   4.891   4.500 -0.3048  0.2933  0.1796
17949TIP3    H175338   1.793   4.969   4.475  1.1010 -0.2629  1.1168
17949TIP3    H275339   1.674   4.924   4.557 -0.1108  0.9430  0.0466
17950TIP3   OH275340   3.123   5.574   2.270  0.8393  0.4593  0.3763
17950TIP3    H175341   3.047   5.556   2.324  1.8277  1.9940  2.3697
17950TIP3    H275342   3.119   5.668   2.254  0.5837  0.0341 -2.2419
17951TIP3   OH275343   6.274   3.598  15.454 -0.2934 -0.1306 -0.0269
17951TIP3    H175344   6.269   3.529  15.520  2.6126 -1.2332 -0.8921
17951TIP3    H275345   6.201   3.656  15.475 -0.1026 -1.0463  3.4340
17952TIP3   OH275346   4.851   4.422   0.420  0.2757  0.4940  0.6971
17952TIP3    H175347   4.803   4.479   0.362 -0.8139 -0.7464  0.3560
17952TIP3    H275348   4.912   4.375   0.363 -2.9577 -3.0459 -0.0506
17953TIP3   OH275349   4.108   2.578  16.905  0.2426 -0.1591 -0.2590
17953TIP3    H175350   4.189   2.526  16.897 -0.0930 -0.6079 -0.7944
17953TIP3    H275351   4.114   2.641  16.833  1.0036  1.0422  0.8464
17954TIP3   OH275352   2.425   4.793  14.100  0.0001  0.0861 -0.1905
17954TIP3    H175353   2.348   4.744  14.071  1.2917 -0.6829 -2.4794
17954TIP3    H275354   2.421   4.875  14.051  0.9688 -0.2401 -0.8376
17955TIP3   OH275355   6.296   4.400  14.018  0.7563  0.7714 -0.4499
17955TIP3    H175356   6.260   4.429  14.102  1.4968  1.2305 -0.2906
17955TIP3    H275357   6.243   4.445  13.952 -1.0191 -0.9824 -0.2716
17956TIP3   OH275358   4.641   4.145   5.769  0.0561  0.3879  0.1315
17956TIP3    H175359   4.709   4.199   5.809  0.1215  3.8784 -4.3064
17956TIP3    H275360   4.688   4.068   5.736  0.8334  0.0375  1.9899
17957TIP3   OH275361   6.029   6.198  15.830  0.8486  0.0909  0.8320
17957TIP3    H175362   6.096   6.165  15.771 -1.4865 -0.1577 -1.7989
17957TIP3    H275363   6.066   6.277  15.868  2.4773  0.1849 -0.8845
17958TIP3   OH275364   5.806   4.620  14.755  0.0130  0.3728 -0.2474
17958TIP3    H175365   5.801   4.592  14.663  1.2502  1.1117 -0.5508
17958TIP3    H275366   5.876   4.685  14.756 -1.4097  1.9004  0.8564
17959TIP3   OH275367   1.337   5.471   1.154  0.2119 -0.0346  0.0921
17959TIP3    H175368   1.285   5.513   1.086  0.0581 -0.0355  0.2106
17959TIP3    H275369   1.425   5.465   1.116 -0.2558 -1.6070 -0.7871
17960TIP3   OH275370   1.979   0.283  16.174  0.5429  0.6856  0.3403
17960TIP3    H175371   1.951   0.201  16.134  1.2958 -0.8638  2.8786
17960TIP3    H275372   2.064   0.262  16.214  0.9328  2.8194  0.6678
17961TIP3   OH275373   5.326   3.300  14.377  0.3920  0.1614 -0.2243
17961TIP3    H175374   5.283   3.331  14.297  0.1015 -1.3096 -0.6494
17961TIP3    H275375   5.354   3.211  14.357  1.4911  0.2448  0.8758
17962TIP3   OH275376   2.658   6.173   2.942 -0.2165  0.0403 -0.7831
17962TIP3    H175377   2.709   6.106   2.896  0.3092  0.7718 -1.2860
17962TIP3    H275378   2.693   6.256   2.910 -0.2892  0.5642  0.4508
17963TIP3   OH275379   5.661   5.544   1.738 -0.2097  0.1715 -0.5806
17963TIP3    H175380   5.659   5.496   1.654 -2.3567  0.2286 -0.5755
17963TIP3    H275381   5.657   5.475   1.804 -0.4773  0.2197 -0.5464
17964TIP3   OH275382   4.088   3.434   4.396 -0.2348 -0.1772  0.7682
17964TIP3    H175383   4.109   3.407   4.306 -1.8793  0.4071  0.1956
17964TIP3    H275384   4.172   3.431   4.442  0.4864 -1.2340 -0.5958
17965TIP3   OH275385   6.361   1.647  12.171 -0.5916 -0.3881  0.3648
17965TIP3    H175386   6.289   1.710  12.174  0.2196  0.6901 -1.3427
17965TIP3    H275387   6.440   1.701  12.178  0.0841 -1.3371  0.1794
17966TIP3   OH275388   0.994   0.181   2.415  0.2614  0.3268 -0.2927
17966TIP3    H175389   0.916   0.231   2.393 -0.1658  0.5013  1.4997
17966TIP3    H275390   0.981   0.156   2.507  2.0788 -0.0587 -0.1182
17967TIP3   OH275391   5.965   4.562   4.712 -0.1366 -0.2361 -0.3619
17967TIP3    H175392   5.876   4.569   4.745 -0.2818 -1.2018 -0.5525
17967TIP3    H275393   5.959   4.506   4.635  0.3586  1.1904 -1.4692
17968TIP3   OH275394   0.288   4.349  11.991  0.2267  0.1042 -0.2857
17968TIP3    H175395   0.368   4.299  12.002  0.1889  0.3229  0.9981
17968TIP3    H275396   0.230   4.320  12.061 -1.3994 -1.1355 -2.0736
17969TIP3   OH275397   0.986   6.758  12.456 -0.1501 -0.1908 -0.3548
17969TIP3    H175398   1.073   6.775  12.421  0.1507 -1.9739 -0.5338
17969TIP3    H275399   0.950   6.845  12.475  2.4262  0.5003  1.6325
17970TIP3   OH275400   0.346   2.670   2.851 -0.2461 -0.0488 -0.2935
17970TIP3    H175401   0.410   2.735   2.822  0.2886  0.1355  1.2649
17970TIP3    H275402   0.261   2.714   2.839  0.1025  0.8941  0.5986
17971TIP3   OH275403   4.080   4.234  14.437 -0.9426 -0.4255  0.2732
17971TIP3    H175404   4.095   4.171  14.368 -0.7768 -2.2429  1.9261
17971TIP3    H275405   3.986   4.253  14.434 -0.6232  1.0327 -1.6857
17972TIP3   OH275406   1.653   5.603  16.152  0.2653 -0.0709 -0.5374
17972TIP3    H175407   1.590   5.674  16.137 -0.2718 -0.8906 -2.2787
17972TIP3    H275408   1.599   5.526  16.168  0.8090 -0.7045 -1.6900
17973TIP3   OH275409   0.197   0.160  13.115 -0.4742 -0.0522 -0.4989
17973TIP3    H175410   0.132   0.230  13.122 -1.1959 -0.7280 -0.3441
17973TIP3    H275411   0.145   0.080  13.120  0.3094 -0.5950 -1.0613
17974TIP3   OH275412   4.565   6.033   4.335  1.0338 -0.4612  0.2643
17974TIP3    H175413   4.582   6.127   4.329  1.1198 -0.5704 -1.6889
17974TIP3    H275414   4.498   6.017   4.269  1.0385 -1.7701  0.5680
17975TIP3   OH275415   4.627   1.334  12.193  0.2768  0.2285  0.5590
17975TIP3    H175416   4.625   1.408  12.253  0.2843 -0.3752  1.3023
17975TIP3    H275417   4.717   1.330  12.162  0.5260 -0.1152  1.3277
17976TIP3   OH275418   3.660   0.114  12.720 -0.0353  0.3137 -0.3227
17976TIP3    H175419   3.608   0.034  12.709 -0.8079  0.9912 -1.7030
17976TIP3    H275420   3.595   0.184  12.728  0.6411  0.8838  0.2733
17977TIP3   OH275421   0.182   1.116   0.785 -0.5778  0.2334  0.0439
17977TIP3    H175422   0.126   1.154   0.853 -2.0146 -0.8969 -0.4699
17977TIP3    H275423   0.271   1.130   0.816 -1.0814  2.9302  0.4393
17978TIP3   OH275424   3.338   3.979   0.418 -0.4556  0.7090 -0.5160
17978TIP3    H175425   3.317   3.984   0.511  2.4392 -0.7940  0.3033
17978TIP3    H275426   3.409   3.915   0.414 -1.0813  0.1635 -3.8742
17979TIP3   OH275427   2.459   1.255   0.115  0.3887 -0.9378 -0.5012
17979TIP3    H175428   2.489   1.266   0.205 -1.3157 -2.6049  0.3070
17979TIP3    H275429   2.539   1.255   0.063  1.5238 -1.5932  1.1961
17980TIP3   OH275430   4.002   4.857   5.117  0.1566 -0.2288 -0.4872
17980TIP3    H175431   4.038   4.868   5.029  0.4988 -0.9766 -0.4438
17980TIP3    H275432   3.978   4.765   5.122 -0.1876 -0.1100  0.0828
17981TIP3   OH275433   2.826   1.920   1.361  0.0875  0.0975 -0.3994
17981TIP3    H175434   2.745   1.909   1.311 -0.9781 -0.1498  1.3394
17981TIP3    H275435   2.850   2.012   1.348 -1.2724  0.5581  0.2340
17982TIP3   OH275436   1.253   1.361   4.095 -1.0365  0.3034  0.1078
17982TIP3    H175437   1.263   1.427   4.163  0.9413  0.8738 -0.7057
17982TIP3    H275438   1.228   1.282   4.142 -2.5641  1.4085  1.1751
17983TIP3   OH275439   3.582   2.719   0.584 -0.7987  0.1565 -0.6424
17983TIP3    H175440   3.523   2.711   0.659 -0.0091  0.9348  0.0676
17983TIP3    H275441   3.663   2.676   0.611 -0.4086  0.6907 -0.9402
17984TIP3   OH275442   6.579   4.743   4.765  0.2469  0.2885 -0.4240
17984TIP3    H175443   6.588   4.681   4.692 -3.1811 -0.3772 -0.4042
17984TIP3    H275444   6.574   4.829   4.723 -2.0196 -0.1128 -1.0874
17985TIP3   OH275445   4.329   0.270  12.125 -0.4220 -0.4240 -0.3524
17985TIP3    H175446   4.382   0.216  12.067  0.0298 -1.6488  1.1908
17985TIP3    H275447   4.243   0.273  12.083  0.9433  2.0455 -3.1654
17986TIP3   OH275448   0.603   4.450  12.518 -0.6884  0.4126  0.2195
17986TIP3    H175449   0.658   4.504  12.461 -0.5257  0.6535  0.6033
17986TIP3    H275450   0.607   4.493  12.603 -1.2898  0.2981  0.3068
17987TIP3   OH275451   5.263   3.853   4.648  0.5051  0.3699 -0.4052
17987TIP3    H175452   5.356   3.831   4.640  0.3046 -0.4380 -0.5764
17987TIP3    H275453   5.239   3.821   4.735 -0.2638 -1.8815 -1.4186
17988TIP3   OH275454   2.388   6.430   4.835  0.4480 -0.8393 -0.2403
17988TIP3    H175455   2.362   6.516   4.802 -0.4881 -1.3675 -0.8906
17988TIP3    H275456   2.387   6.439   4.930  0.8593  0.0167 -0.3174
17989TIP3   OH275457   4.374   4.839  14.775 -0.0897  0.0747 -0.2920
17989TIP3    H175458   4.341   4.898  14.842  0.6670  3.7719 -2.9891
17989TIP3    H275459   4.303   4.834  14.711  0.0952 -1.4887 -0.3800
17990TIP3   OH275460   2.456   3.346  11.143 -0.1758  0.5265  0.0997
17990TIP3    H175461   2.393   3.283  11.109 -1.1168  0.7453  1.3849
17990TIP3    H275462   2.521   3.293  11.189  1.1826  0.2173 -2.0876
17991TIP3   OH275463   3.174   2.956   1.134  0.2188  0.4465  1.1111
17991TIP3    H175464   3.145   2.912   1.214  0.0013 -0.1099  0.7266
17991TIP3    H275465   3.241   2.898   1.098 -1.8458 -0.8596 -0.7346
17992TIP3   OH275466   1.354   4.247   1.221 -0.5329  0.3633 -0.1465
17992TIP3    H175467   1.300   4.312   1.175  0.5650  2.6582  1.7304
17992TIP3    H275468   1.440   4.288   1.229  0.3461 -1.5614  0.5945
17993TIP3   OH275469   3.589   5.371  14.474 -0.3856 -0.0176  0.2004
17993TIP3    H175470   3.659   5.312  14.501  0.0566  0.3633 -0.1149
17993TIP3    H275471   3.633   5.453  14.453 -0.6410 -0.4706 -2.2173
17994TIP3   OH275472   5.521   2.666   0.292  0.3099 -0.6812  0.2708
17994TIP3    H175473   5.603   2.703   0.324  0.4215 -0.6299 -0.0755
17994TIP3    H275474   5.457   2.684   0.362  0.5896 -0.7120  0.5330
17995TIP3   OH275475   2.104   5.434   2.252  0.4213 -0.5207 -0.1895
17995TIP3    H175476   2.163   5.494   2.206  0.6812  0.9662  1.9685
17995TIP3    H275477   2.124   5.348   2.216  3.4249  0.0478 -0.0300
17996TIP3   OH275478   3.302   1.962   5.186 -0.3445 -0.3766  0.3808
17996TIP3    H175479   3.376   2.022   5.189  0.0863 -0.8190 -1.0932
17996TIP3    H275480   3.341   1.875   5.179 -0.9880 -0.5777 -0.9320
17997TIP3   OH275481   1.868   1.334   2.960 -0.7922  0.0935  0.5755
17997TIP3    H175482   1.880   1.311   3.052 -0.5857  1.5362  0.9304
17997TIP3    H275483   1.788   1.288   2.934 -1.7076  0.8564  1.9195
17998TIP3   OH275484   6.566   1.452   4.330  0.2166  0.0847 -0.2734
17998TIP3    H175485   6.607   1.367   4.315  0.5256  0.2006 -0.0817
17998TIP3    H275486   6.503   1.436   4.400  0.6194  0.1204  0.0988
17999TIP3   OH275487   6.223   0.682  11.542  0.0566  0.4674 -0.6924
17999TIP3    H175488   6.316   0.703  11.556  0.0485  0.3600 -0.4767
17999TIP3    H275489   6.225   0.596  11.499  0.0016 -0.3404  0.8989
18000TIP3   OH275490   2.665   1.603  16.210 -0.2505  0.1514  0.0089
18000TIP3    H175491   2.646   1.513  16.234 -0.9885  0.4530  0.5565
18000TIP3    H275492   2.752   1.599  16.171  0.3883 -0.5457  1.4859
18001TIP3   OH275493   4.630   2.508   1.438  0.4583  0.0645  0.4166
18001TIP3    H175494   4.546   2.464   1.424  0.3407 -0.1081  1.6028
18001TIP3    H275495   4.653   2.544   1.353 -0.1112 -1.1308 -0.2441
18002TIP3   OH275496   1.393   4.307  12.975 -0.5452  1.1225  0.7568
18002TIP3    H175497   1.354   4.298  12.888 -0.6845 -2.4953  1.1232
18002TIP3    H275498   1.485   4.329  12.959 -0.6197  0.6823 -0.2724
18003TIP3   OH275499   3.308   3.526   4.700  0.2834 -0.1087 -0.1164
18003TIP3    H175500   3.401   3.534   4.722  0.7890  0.7657 -2.3554
18003TIP3    H275501   3.295   3.433   4.683  0.7201 -0.2487  0.3141
18004TIP3   OH275502   0.431   5.375  16.147 -0.1503  0.3784 -0.2069
18004TIP3    H175503   0.526   5.385  16.153  0.0686 -1.4005 -0.3723
18004TIP3    H275504   0.412   5.385  16.054  0.0683 -0.6580 -0.3730
18005TIP3   OH275505   2.703   1.869  12.728  0.7382 -0.4414  0.4749
18005TIP3    H175506   2.627   1.928  12.721  0.4920 -0.6761  1.1061
18005TIP3    H275507   2.665   1.781  12.729  1.1035 -0.6081 -0.4089
18006TIP3   OH275508   1.052   1.935  13.073  0.5577  0.4331 -0.0062
18006TIP3    H175509   0.972   1.954  13.123  0.8031  0.5063  0.3625
18006TIP3    H275510   1.083   2.021  13.045 -1.0908  0.2216 -2.6802
18007TIP3   OH275511   4.455   4.071  12.253 -0.6479 -0.1846  0.6384
18007TIP3    H175512   4.526   4.063  12.189 -1.9952  1.2569 -1.0908
18007TIP3    H275513   4.498   4.102  12.333  0.4128  2.8338 -1.0175
18008TIP3   OH275514   5.204   1.830   2.302 -0.0531 -0.8313 -0.2002
18008TIP3    H175515   5.271   1.762   2.307 -0.8597 -1.7116 -1.0690
18008TIP3    H275516   5.236   1.891   2.235  1.2200  0.2803  1.3841
18009TIP3   OH275517   4.451   2.176  17.127  0.0200  0.6415  0.2153
18009TIP3    H175518   4.406   2.105  17.080  0.2518 -0.6856  1.9587
18009TIP3    H275519   4.381   2.224  17.171  0.1149 -0.3540  1.4856
18010TIP3   OH275520   0.132   0.780   1.719  0.2424  0.2213  0.1586
18010TIP3    H175521   0.079   0.810   1.645 -1.6463 -1.4848  0.7710
18010TIP3    H275522   0.072   0.782   1.794  1.2035 -1.1585  0.9855
18011TIP3   OH275523   4.088   6.237  15.140  0.0623  0.4783 -0.2481
18011TIP3    H175524   4.181   6.212  15.137  0.0556 -0.3333  3.3829
18011TIP3    H275525   4.044   6.176  15.081  1.5201 -0.7903 -0.0529
18012TIP3   OH275526   2.884   6.166  14.154 -0.3541 -0.9065 -0.5236
18012TIP3    H175527   2.938   6.161  14.075  0.1067 -1.4264 -0.1808
18012TIP3    H275528   2.902   6.253  14.190 -0.2105 -0.8448 -0.7405
18013TIP3   OH275529   0.737   1.084   0.535  0.6541 -0.2557 -0.1809
18013TIP3    H175530   0.725   1.027   0.611  0.2671 -0.7553 -0.6165
18013TIP3    H275531   0.802   1.039   0.481 -1.6277 -1.6552 -1.8487
18014TIP3   OH275532   5.610   0.967  15.083  0.0463 -0.0256  0.5445
18014TIP3    H175533   5.523   0.968  15.042  0.2495  0.6852  0.1397
18014TIP3    H275534   5.668   0.932  15.015  0.1802  0.0625  0.6136
18015TIP3   OH275535   6.167   0.012   0.468  0.0566 -0.6254  0.5951
18015TIP3    H175536   6.149   0.101   0.438  0.7284 -0.9490 -0.7968
18015TIP3    H275537   6.259   0.014   0.494  0.2769 -1.1229 -0.1676
18016TIP3   OH275538   5.346   3.759   0.545 -0.0228 -0.0854 -0.1519
18016TIP3    H175539   5.370   3.746   0.637 -1.0742 -0.9040  0.0096
18016TIP3    H275540   5.293   3.839   0.546  1.9007  1.2523 -0.3958
18017TIP3   OH275541   2.802   0.219   4.690  0.3930  0.4074  0.5273
18017TIP3    H175542   2.816   0.272   4.612  0.7408  0.6154  0.7271
18017TIP3    H275543   2.708   0.222   4.706  0.0627 -1.0671 -0.8982
18018TIP3   OH275544   3.553   2.780  10.613 -0.0473 -0.5698  0.2633
18018TIP3    H175545   3.564   2.727  10.692 -1.2794  1.2977  1.7311
18018TIP3    H275546   3.634   2.830  10.605  0.4069 -1.3511 -0.1424
18019TIP3   OH275547   4.633   3.183   2.648 -0.4269  0.0081  0.3817
18019TIP3    H175548   4.663   3.139   2.568  1.9861  0.1623  1.1597
18019TIP3    H275549   4.633   3.115   2.715 -0.6998  0.2664  0.6454
18020TIP3   OH275550   0.890   1.354   4.655  0.0979  0.2303  0.0183
18020TIP3    H175551   0.842   1.425   4.696  1.8756  0.9397  0.9050
18020TIP3    H275552   0.868   1.277   4.707 -0.9571  0.3344 -0.2697
18021TIP3   OH275553   3.712   0.813   4.362 -0.0448  0.4348  0.0802
18021TIP3    H175554   3.804   0.821   4.386 -0.3469  0.6649  1.1750
18021TIP3    H275555   3.707   0.853   4.274  0.6135  1.8516  0.6671
18022TIP3   OH275556   1.755   1.840  13.749 -0.2840  0.2029  0.0667
18022TIP3    H175557   1.709   1.787  13.815 -0.7601 -0.1254 -0.5275
18022TIP3    H275558   1.846   1.809  13.754 -0.0352  1.0768  1.4684
18023TIP3   OH275559   2.931   5.601   2.836  0.1450  0.1144  0.4888
18023TIP3    H175560   2.844   5.598   2.877  0.7427  0.4037  1.8100
18023TIP3    H275561   2.992   5.610   2.910  1.1727  1.8470 -0.5278
18024TIP3   OH275562   3.198   2.418  17.070  0.0832  0.0526  0.5412
18024TIP3    H175563   3.110   2.381  17.072  0.5870 -1.2210 -0.5730
18024TIP3    H275564   3.236   2.387  16.988  1.0867  1.7426  0.3390
18025TIP3   OH275565   0.666   3.698  15.383  0.0745  0.9087 -0.2337
18025TIP3    H175566   0.662   3.792  15.366  0.2070  0.6213 -1.9643
18025TIP3    H275567   0.581   3.664  15.354  0.0547  0.4836  0.3066
18026TIP3   OH275568   1.128   6.002  12.085  0.0111 -0.1066 -0.4688
18026TIP3    H175569   1.176   5.932  12.129 -0.5649 -1.5094 -1.9972
18026TIP3    H275570   1.037   5.989  12.112  0.2182  1.4318  0.9986
18027TIP3   OH275571   5.540   3.513  15.292  0.5023 -0.3964 -0.3332
18027TIP3    H175572   5.618   3.468  15.325 -0.6309 -3.8851 -2.1622
18027TIP3    H275573   5.478   3.510  15.364  1.4288  0.7457  0.5095
18028TIP3   OH275574   6.486   0.702  15.208  0.0849 -0.2469  0.3200
18028TIP3    H175575   6.520   0.624  15.164 -1.7853 -0.9886  0.1370
18028TIP3    H275576   6.409   0.671  15.256 -0.6264  1.4594  0.3196
18029TIP3   OH275577   1.534   1.497  14.041  0.0302 -0.4950  0.2372
18029TIP3    H175578   1.614   1.511  14.091 -0.2795  1.8332  0.1542
18029TIP3    H275579   1.497   1.416  14.077  2.0337 -1.2087  0.7629
18030TIP3   OH275580   2.227   5.778  14.882 -0.1114 -0.2063 -0.3412
18030TIP3    H175581   2.155   5.720  14.905  1.6351 -2.1379  0.4269
18030TIP3    H275582   2.228   5.779  14.786 -2.8006  1.9906 -0.3976
18031TIP3   OH275583   0.889   6.474  12.482 -0.4301 -0.2241  0.2346
18031TIP3    H175584   0.793   6.466  12.483 -0.3310 -1.5995 -0.3302
18031TIP3    H275585   0.905   6.562  12.449 -1.4799 -0.8171 -1.9082
18032TIP3   OH275586   1.811   5.529  13.980 -0.2884 -0.0099 -0.1531
18032TIP3    H175587   1.891   5.478  13.979 -0.7450 -0.7553  0.8182
18032TIP3    H275588   1.840   5.620  13.970  0.6779 -0.2738  0.2343
18033TIP3   OH275589   3.007   1.063  14.349 -1.2417  0.2969 -0.8831
18033TIP3    H175590   2.951   1.091  14.421 -0.7992  1.0794 -0.8398
18033TIP3    H275591   3.087   1.113  14.360 -0.9543 -0.0009 -1.5901
18034TIP3   OH275592   0.771   6.743  16.489 -0.1616 -0.3229 -0.0079
18034TIP3    H175593   0.827   6.793  16.431 -0.6054  0.6877  0.4310
18034TIP3    H275594   0.743   6.668  16.437 -0.4429  0.5032 -1.0438
18035TIP3   OH275595   4.425   4.600  15.851  0.1350 -0.1684  0.2077
18035TIP3    H175596   4.346   4.601  15.904 -0.1978  0.1108 -0.2949
18035TIP3    H275597   4.428   4.686  15.810  0.0140 -0.6354 -0.7886
18036TIP3   OH275598   5.419   5.194  12.095 -0.2672 -0.1297 -0.6658
18036TIP3    H175599   5.406   5.248  12.173  0.6137 -0.2777 -0.4067
18036TIP3    H275600   5.373   5.241  12.025 -0.8299  0.1430 -0.1153
18037TIP3   OH275601   0.786   6.383  14.086 -0.1740  0.5810 -0.2281
18037TIP3    H175602   0.869   6.336  14.084 -0.1370  0.5487  1.4350
18037TIP3    H275603   0.787   6.438  14.008  1.7290  1.1116  0.1494
18038TIP3   OH275604   0.923   3.565  16.772  0.4397  0.9348  0.2252
18038TIP3    H175605   0.954   3.587  16.859  1.1756 -0.9221  0.4486
18038TIP3    H275606   0.998   3.581  16.714  0.9943 -0.9505  0.3950
18039TIP3   OH275607   0.744   2.670   1.491 -0.0947  0.2388 -0.2888
18039TIP3    H175608   0.785   2.756   1.494 -1.5992  1.0247 -1.5519
18039TIP3    H275609   0.679   2.672   1.561 -0.2587  0.2020 -0.4384
18040TIP3   OH275610   6.288   2.909  11.826  0.0141  0.5136 -0.1405
18040TIP3    H175611   6.353   2.863  11.879  0.0034 -0.9688 -1.3754
18040TIP3    H275612   6.339   2.952  11.758  0.0806  2.8712  1.3415
18041TIP3   OH275613   5.261   4.462   5.824  0.3423 -0.3371  0.6633
18041TIP3    H175614   5.276   4.423   5.738 -0.1259 -0.5091  0.6588
18041TIP3    H275615   5.300   4.549   5.818 -0.8247  0.1470 -0.1548
18042TIP3   OH275616   5.885   1.807   1.786 -0.4277  0.8336 -0.3063
18042TIP3    H175617   5.964   1.852   1.756 -0.3456  0.6075 -0.4314
18042TIP3    H275618   5.873   1.735   1.724  0.6343 -0.5934  1.1233
18043TIP3   OH275619   5.534   5.428  13.966  0.2926 -0.4637  0.2597
18043TIP3    H175620   5.559   5.454  14.055  0.6522 -1.6657  0.5299
18043TIP3    H275621   5.509   5.336  13.975  0.2899 -0.5772 -0.8788
18044TIP3   OH275622   2.668   1.755   3.782 -0.0001 -0.2885 -0.1214
18044TIP3    H175623   2.668   1.659   3.787  1.4190 -0.1875  2.1938
18044TIP3    H275624   2.727   1.775   3.709  0.7977 -1.1460  0.2812
18045TIP3   OH275625   6.246   0.738   3.854  0.0683  0.0615  0.2387
18045TIP3    H175626   6.228   0.737   3.948 -0.0415  0.6539  0.2293
18045TIP3    H275627   6.159   0.739   3.813  0.1170 -0.5607  0.1261
18046TIP3   OH275628   6.785   0.513  16.383 -0.4152  0.5002  0.1711
18046TIP3    H175629   6.731   0.454  16.330 -2.0422  2.1405 -0.0676
18046TIP3    H275630   6.824   0.456  16.449  0.6488 -1.3623 -1.9991
18047TIP3   OH275631   5.151   4.893   4.926 -0.0765  0.0492 -0.2480
18047TIP3    H175632   5.086   4.858   4.986  0.5022 -1.6902 -0.5877
18047TIP3    H275633   5.112   4.973   4.891 -0.5931  0.8615  2.1046
18048TIP3   OH275634   1.075   4.246  14.786  0.0310  0.1971 -0.0012
18048TIP3    H175635   1.154   4.288  14.821 -0.2073  0.5109  0.1624
18048TIP3    H275636   1.086   4.250  14.691  0.4488 -0.2165  0.0274
18049TIP3   OH275637   6.074   0.996  15.606  0.3805 -0.0969 -0.2221
18049TIP3    H175638   6.087   1.089  15.622  1.1326 -0.1283 -0.6026
18049TIP3    H275639   6.015   0.992  15.531 -0.4011  0.0643  0.3797
18050TIP3   OH275640   1.964   3.072   1.060 -0.3559  0.1683 -0.6854
18050TIP3    H175641   1.906   3.021   1.004 -1.8479  0.8782  0.1771
18050TIP3    H275642   1.954   3.033   1.147 -0.8638  1.3785 -0.1923
18051TIP3   OH275643   3.755   1.845  16.389  0.8840 -0.1728  0.0142
18051TIP3    H175644   3.666   1.835  16.424  1.1624  1.5678  1.2927
18051TIP3    H275645   3.774   1.760  16.348 -1.9610 -0.0141 -1.7316
18052TIP3   OH275646   6.557   0.078  13.257  0.7883  0.1833 -0.7847
18052TIP3    H175647   6.595   0.083  13.170  0.7843  0.1958 -0.7859
18052TIP3    H275648   6.477   0.131  13.251  1.2569  0.9304 -0.5308
18053TIP3   OH275649   4.024   4.419  16.855  0.0907 -0.3533  0.1695
18053TIP3    H175650   4.011   4.388  16.945 -0.6214 -0.7580 -0.0649
18053TIP3    H275651   3.997   4.511  16.857  2.7417  0.4394  1.0020
18054TIP3   OH275652   2.444   4.667   3.266  0.5688  0.5549 -0.4233
18054TIP3    H175653   2.514   4.602   3.255  0.0291 -0.4520  1.6918
18054TIP3    H275654   2.368   4.628   3.222 -0.2145 -1.0929  2.2712
18055TIP3   OH275655   6.638   5.861  13.688  0.1244  0.4413 -0.2021
18055TIP3    H175656   6.618   5.774  13.654 -2.1573 -0.4952  3.2575
18055TIP3    H275657   6.571   5.918  13.652 -0.2020  0.1675 -0.0220
18056TIP3   OH275658   1.360   2.580   1.981  0.4134  0.2443 -0.3160
18056TIP3    H175659   1.380   2.589   1.887 -1.1025  3.5680 -0.3885
18056TIP3    H275660   1.265   2.570   1.984  0.3390  1.1714  0.8966
18057TIP3   OH275661   6.317   0.909   5.769  0.0581 -0.4731  0.1735
18057TIP3    H175662   6.340   0.898   5.677  0.4032 -0.1721  0.2243
18057TIP3    H275663   6.373   0.846   5.815  0.6322  0.1129  0.2770
18058TIP3   OH275664   0.397   0.255   5.556 -0.6445 -0.0757 -0.7565
18058TIP3    H175665   0.489   0.283   5.563 -1.2440  3.1062 -3.9837
18058TIP3    H275666   0.391   0.212   5.471 -2.5892  1.8044 -1.6121
18059TIP3   OH275667   4.643   1.435  15.787 -0.5885  0.0910  0.4744
18059TIP3    H175668   4.691   1.397  15.860 -1.9059  0.2579  1.4215
18059TIP3    H275669   4.711   1.481  15.736  0.3179  0.0152  1.5951
18060TIP3   OH275670   4.195   0.158   1.515  0.4168  0.3384  0.1896
18060TIP3    H175671   4.195   0.205   1.432 -4.1816  1.8695  0.9195
18060TIP3    H275672   4.242   0.215   1.575 -0.0726  1.3008 -0.3336
18061TIP3   OH275673   1.639   0.003   4.041  0.1970  0.3072  0.4707
18061TIP3    H175674   1.656  -0.014   3.948 -1.0229  1.5441  0.0064
18061TIP3    H275675   1.726   0.015   4.079  0.6899  0.1915 -0.5891
18062TIP3   OH275676   5.167   1.774   6.007  0.2947  0.4886 -0.0302
18062TIP3    H175677   5.216   1.750   6.086  0.5282 -0.1600 -0.3687
18062TIP3    H275678   5.081   1.801   6.040 -0.4054 -2.0093  0.2912
18063TIP3   OH275679   0.597   6.677  17.048  0.0375  0.5282  0.0290
18063TIP3    H175680   0.506   6.669  17.076  0.1100  0.9408  0.3842
18063TIP3    H275681   0.595   6.741  16.976 -0.2026 -0.8164 -1.1882
18064TIP3   OH275682   6.749   1.732  11.950  0.2219 -0.6579  0.1729
18064TIP3    H175683   6.700   1.737  12.032 -1.2086  0.0396 -0.7154
18064TIP3    H275684   6.816   1.800  11.958 -0.2194 -0.2691  0.5655
18065TIP3   OH275685   2.305   2.599  14.845 -0.4588  0.1618 -0.3361
18065TIP3    H175686   2.347   2.569  14.765  1.2394  1.5030  0.0075
18065TIP3    H275687   2.356   2.558  14.915 -0.6259  0.6586  0.0796
18066TIP3   OH275688   2.615   4.605  16.297  0.0434  0.1769  0.5525
18066TIP3    H175689   2.545   4.625  16.236  0.3989 -0.5257 -0.0923
18066TIP3    H275690   2.601   4.514  16.323  0.6920  0.0360  0.4388
18067TIP3   OH275691   4.879   0.441  16.202  0.3369  0.4538 -0.1168
18067TIP3    H175692   4.821   0.484  16.265 -1.5493 -0.4472 -1.2151
18067TIP3    H275693   4.894   0.354  16.239  0.4554  0.4492 -0.1778
18068TIP3   OH275694   1.683   0.744  16.084 -0.1362  0.2492 -0.4517
18068TIP3    H175695   1.685   0.659  16.041 -1.3383  0.1907 -0.3998
18068TIP3    H275696   1.771   0.754  16.121 -0.0435 -1.0512 -0.2942
18069TIP3   OH275697   6.288   6.113  15.707 -0.4617  0.2348 -0.0303
18069TIP3    H175698   6.313   6.201  15.679  1.8061 -1.3208 -3.1306
18069TIP3    H275699   6.369   6.073  15.738 -1.2472 -1.2134  0.2097
18070TIP3   OH275700   4.973   3.159   4.131  0.3937 -0.2765  0.1472
18070TIP3    H175701   4.970   3.149   4.226 -0.0933 -0.9406  0.0677
18070TIP3    H275702   5.026   3.085   4.101  1.5302  0.6037 -0.0035
18071TIP3   OH275703   2.844   0.449  15.931  0.0013 -0.0386 -0.3945
18071TIP3    H175704   2.830   0.362  15.970  1.6457 -0.5356 -0.8725
18071TIP3    H275705   2.934   0.447  15.900  0.0958  1.9143 -0.2795
18072TIP3   OH275706   2.305   5.869  15.497  0.5687  0.2561  0.0891
18072TIP3    H175707   2.254   5.789  15.508 -0.4362  0.9345  0.4225
18072TIP3    H275708   2.394   5.845  15.524  0.9072 -1.4862 -2.4410
18073TIP3   OH275709   5.265   4.473  13.822  0.1152 -0.2251  0.1541
18073TIP3    H175710   5.319   4.456  13.900  1.0463  0.1122 -0.4182
18073TIP3    H275711   5.301   4.553  13.785 -0.7477 -0.0303 -0.2675
18074TIP3   OH275712   3.981   5.385  15.788  0.6523  0.2721  0.0461
18074TIP3    H175713   4.001   5.337  15.707  2.1898 -0.7372  1.0120
18074TIP3    H275714   3.992   5.320  15.858  0.0156  1.3157  1.1312
18075TIP3   OH275715   4.576   5.365   0.060  0.0165 -0.3295  0.5595
18075TIP3    H175716   4.585   5.457   0.084 -0.4875  0.5600 -2.4255
18075TIP3    H275717   4.663   5.340   0.031 -0.4968  0.0857 -1.4088
18076TIP3   OH275718   2.083   4.364   0.690  0.7947  0.0217 -0.0725
18076TIP3    H175719   2.002   4.325   0.722 -0.2987  0.4659 -2.2399
18076TIP3    H275720   2.141   4.363   0.766 -1.3432  0.0187  1.6220
18077TIP3   OH275721   6.029   0.930   3.144  0.3078  0.4976 -0.4914
18077TIP3    H175722   6.090   0.988   3.190  3.4244 -2.4324 -0.6553
18077TIP3    H275723   6.042   0.949   3.052 -2.5904  3.1684 -0.4179
18078TIP3   OH275724   4.061   5.860   4.261 -0.6160  0.4354  0.1614
18078TIP3    H175725   4.013   5.817   4.190  0.9735 -1.0291 -0.0604
18078TIP3    H275726   4.054   5.954   4.241 -0.1881  0.0523 -1.9636
18079TIP3   OH275727   4.495   1.894   2.147  0.1442  0.1526 -0.0187
18079TIP3    H175728   4.487   1.872   2.054 -0.6241 -0.5751  0.2100
18079TIP3    H275729   4.576   1.945   2.153  0.3910 -0.1075 -1.0288
18080TIP3   OH275730   1.534   2.454  15.916 -0.5832 -0.5742  0.9639
18080TIP3    H175731   1.490   2.424  15.837  2.1589 -1.5296 -0.2669
18080TIP3    H275732   1.507   2.545  15.926  1.1944  0.4322 -2.7036
18081TIP3   OH275733   3.334   3.437   6.592 -0.2616  0.3131 -0.3043
18081TIP3    H175734   3.348   3.531   6.605 -0.8001  0.0696  2.3157
18081TIP3    H275735   3.244   3.422   6.620  0.0558 -1.0972 -0.0175
18082TIP3   OH275736   1.866   0.128   5.902 -0.0214 -0.0979  0.3714
18082TIP3    H175737   1.799   0.151   5.837 -0.4710  0.1895  0.9370
18082TIP3    H275738   1.882   0.035   5.887  0.0896  0.0311 -0.3509
18083TIP3   OH275739   6.710   0.201  14.708 -0.1029  0.3734 -0.2847
18083TIP3    H175740   6.795   0.245  14.700  0.8177 -1.3252 -0.1011
18083TIP3    H275741   6.721   0.120  14.658 -1.0104 -0.7339  1.2807
18084TIP3   OH275742   1.233   0.082   4.630  0.1222  0.0641  0.3015
18084TIP3    H175743   1.190   0.039   4.556  3.7440  0.5540 -2.1742
18084TIP3    H275744   1.241   0.014   4.696 -0.5948 -1.1363 -0.8372
18085TIP3   OH275745   2.797   0.726   2.450 -0.3599 -0.1525  0.2156
18085TIP3    H175746   2.836   0.770   2.525  0.1729  0.7621 -0.5763
18085TIP3    H275747   2.870   0.678   2.409 -0.4670  0.0153 -0.1788
18086TIP3   OH275748   0.368   6.127   2.777  0.3253 -0.6034  0.1594
18086TIP3    H175749   0.443   6.130   2.717  0.3221 -0.2474  0.1740
18086TIP3    H275750   0.295   6.099   2.721  0.1115  0.6644 -0.2301
18087TIP3   OH275751   4.373   1.843   2.952  0.1440  0.0516 -0.0988
18087TIP3    H175752   4.336   1.916   3.001  0.0212 -0.4724  0.6072
18087TIP3    H275753   4.301   1.815   2.894 -0.8683 -1.4352  1.7958
18088TIP3   OH275754   6.664   5.826   3.762  0.4082  0.7862  0.6065
18088TIP3    H175755   6.724   5.815   3.836 -0.3460 -0.8350  1.0079
18088TIP3    H275756   6.707   5.784   3.688  0.1592  0.3896  0.6841
18089TIP3   OH275757   6.219   0.083  15.945  0.0485 -0.5940  0.2951
18089TIP3    H175758   6.145   0.144  15.935 -0.6129 -1.1462  1.7623
18089TIP3    H275759   6.180   0.003  15.980  1.1164 -1.4371 -0.3986
18090TIP3   OH275760   4.804   2.045   0.436 -0.0289  0.2528  0.3902
18090TIP3    H175761   4.819   2.036   0.341  1.1665  1.1347  0.4775
18090TIP3    H275762   4.709   2.041   0.446 -0.1113 -0.9902 -0.7194
18091TIP3   OH275763   5.763   3.126  11.828 -0.0568 -0.1771 -0.0411
18091TIP3    H175764   5.764   3.193  11.896 -0.0166  0.7360 -0.9236
18091TIP3    H275765   5.845   3.078  11.839 -0.7037 -0.9592  1.4466
18092TIP3   OH275766   2.753   1.315  15.660 -0.2229  0.2377 -0.4012
18092TIP3    H175767   2.833   1.292  15.707 -0.5136 -0.3029 -0.1564
18092TIP3    H275768   2.770   1.401  15.622 -0.0741  0.8124  0.9277
18093TIP3   OH275769   2.560   3.946   2.825 -0.0220 -0.4081 -0.9535
18093TIP3    H175770   2.557   4.038   2.798  1.8413 -0.2144 -0.5593
18093TIP3    H275771   2.560   3.898   2.742  2.1036  0.0729 -1.2684
18094TIP3   OH275772   3.136   1.148  12.157  0.1480 -0.2311 -0.9470
18094TIP3    H175773   3.218   1.198  12.154  0.2222 -0.3182 -0.3558
18094TIP3    H275774   3.074   1.202  12.108  0.1740  0.5639 -0.1255
18095TIP3   OH275775   5.808   0.274   1.982 -0.2826  0.2092 -0.2352
18095TIP3    H175776   5.714   0.292   1.991 -0.3587 -0.9692  1.4752
18095TIP3    H275777   5.814   0.178   1.989  0.9088  0.1524 -1.7776
18096TIP3   OH275778   2.170   0.400   4.221 -0.0798 -0.6967  0.6478
18096TIP3    H175779   2.094   0.363   4.175  0.7881  0.4377 -1.7599
18096TIP3    H275780   2.241   0.337   4.205 -0.0360 -0.8413  1.3790
18097TIP3   OH275781   4.595   3.557   5.176 -0.0011 -0.1180 -0.2473
18097TIP3    H175782   4.666   3.494   5.169  0.9003  0.8153  0.3972
18097TIP3    H275783   4.556   3.540   5.262  0.8820  0.8439  0.3615
18098TIP3   OH275784   5.588   4.118  14.978 -0.4679  0.4476  0.1140
18098TIP3    H175785   5.522   4.187  14.973  0.3590  1.1322 -1.5841
18098TIP3    H275786   5.565   4.057  14.908 -0.5787 -0.4717  0.9329
18099TIP3   OH275787   2.888   5.899  14.820  0.0478 -0.4349  0.1583
18099TIP3    H175788   2.935   5.835  14.765 -0.3304 -0.0440 -0.6251
18099TIP3    H275789   2.851   5.846  14.890 -0.7068 -1.1680 -0.7746
18100TIP3   OH275790   0.188   3.784   3.478 -0.1394 -0.6397 -0.1173
18100TIP3    H175791   0.105   3.831   3.486  0.6383  0.7249  0.0792
18100TIP3    H275792   0.192   3.729   3.556 -0.7884 -0.5927 -0.0505
18101TIP3   OH275793   6.170   0.062   4.640 -0.0630  0.3397 -0.4060
18101TIP3    H175794   6.083   0.023   4.627 -0.9455  0.2572  4.8232
18101TIP3    H275795   6.229  -0.013   4.641 -0.5517 -0.0459  0.4428
18102TIP3   OH275796   1.708   6.535   3.523 -0.0328  0.3268 -0.0256
18102TIP3    H175797   1.708   6.443   3.496 -0.0769  0.4367 -0.3977
18102TIP3    H275798   1.720   6.531   3.618 -0.5461 -0.0815  0.0258
18103TIP3   OH275799   5.906   6.071  11.141  0.1321  0.2546 -0.1196
18103TIP3    H175800   5.939   6.123  11.067  0.8723  1.7578  1.2468
18103TIP3    H275801   5.869   5.992  11.100  0.6353  1.0089 -2.0810
18104TIP3   OH275802   0.663   1.905   3.047 -0.3779 -0.5790 -0.1190
18104TIP3    H175803   0.592   1.870   2.993 -1.3201 -1.8797  1.8811
18104TIP3    H275804   0.619   1.964   3.108  0.6507  0.7692 -0.6697
18105TIP3   OH275805   3.195   4.980   1.539  0.1403  0.1620  0.0433
18105TIP3    H175806   3.156   4.904   1.495  1.1675 -0.5580  0.3739
18105TIP3    H275807   3.252   5.019   1.474  0.6473 -0.1388  0.3013
18106TIP3   OH275808   4.454   0.990   4.200 -0.6021  0.5577 -0.1319
18106TIP3    H175809   4.495   1.074   4.180  2.3150 -1.1382 -1.7306
18106TIP3    H275810   4.372   0.990   4.151 -1.0234  2.7593  0.5298
18107TIP3   OH275811   4.873   2.207   5.518  0.3972 -0.0399  0.4928
18107TIP3    H175812   4.780   2.187   5.509 -0.0081  1.1246  1.8906
18107TIP3    H275813   4.902   2.156   5.594  0.7705  0.0110  0.3865
18108TIP3   OH275814   4.939   6.006   4.665 -0.3448  0.1569  0.4029
18108TIP3    H175815   4.912   5.987   4.575 -3.4062 -0.8852  1.4555
18108TIP3    H275816   4.974   5.923   4.697  1.7373  0.8059 -0.1157
18109TIP3   OH275817   1.880   2.705  11.668 -0.3840 -0.1697 -0.2472
18109TIP3    H175818   1.840   2.736  11.587  0.5896  0.3727 -0.5352
18109TIP3    H275819   1.946   2.642  11.640  1.0906  1.2325 -0.0154
18110TIP3   OH275820   1.851   6.372   5.875  0.1953  0.0597  0.1288
18110TIP3    H175821   1.850   6.324   5.792  1.0825 -0.1872  0.2595
18110TIP3    H275822   1.898   6.453   5.855 -1.4235  0.9649 -0.1266
18111TIP3   OH275823   1.073   3.064   2.304  0.3910 -0.6288 -0.2636
18111TIP3    H175824   1.122   3.136   2.265 -1.0141  0.1303 -0.6683
18111TIP3    H275825   0.986   3.101   2.322 -0.9574 -2.7176 -2.2498
18112TIP3   OH275826   2.264   4.784   0.210  0.0372 -0.4954  0.8243
18112TIP3    H175827   2.296   4.705   0.255  1.6849 -1.2437 -1.5547
18112TIP3    H275828   2.319   4.791   0.132 -3.4179  0.0696 -1.7273
18113TIP3   OH275829   5.092   4.575  11.141 -0.7794  0.5904 -0.5864
18113TIP3    H175830   5.093   4.595  11.047  0.0571  0.2580 -0.6523
18113TIP3    H275831   5.148   4.498  11.150 -0.2972  1.0317  0.2790
18114TIP3   OH275832   4.117   0.841  12.492  0.3075  0.7215  0.0144
18114TIP3    H175833   4.063   0.865  12.567 -0.9454  0.3100 -0.7388
18114TIP3    H275834   4.054   0.809  12.427  1.5320 -0.6074 -0.5434
18115TIP3   OH275835   2.367   5.254  11.936  0.2487 -0.2310  0.6021
18115TIP3    H175836   2.325   5.339  11.944 -0.3805 -0.7066  2.6992
18115TIP3    H275837   2.310   5.204  11.876  1.4660  1.2851 -1.9108
18116TIP3   OH275838   5.240   4.314   2.322 -0.9661 -0.0354  0.0038
18116TIP3    H175839   5.279   4.386   2.272 -0.7827  0.0094  0.2135
18116TIP3    H275840   5.157   4.351   2.355  0.1052  0.7657  1.8684
18117TIP3   OH275841   1.304   4.672   2.610 -0.2272  0.7395  0.0432
18117TIP3    H175842   1.249   4.641   2.682 -0.2124  1.9994  0.6096
18117TIP3    H275843   1.342   4.592   2.573  1.3136  0.2250  2.6602
18118TIP3   OH275844   3.906   2.998  12.506 -0.5219  0.2857 -0.0744
18118TIP3    H175845   3.954   3.074  12.541 -2.7970  1.0767  1.4279
18118TIP3    H275846   3.961   2.923  12.529  0.8777  1.3189  0.0338
18119TIP3   OH275847   0.764   4.516   3.829 -0.2094  0.1664 -0.3848
18119TIP3    H175848   0.778   4.426   3.798 -0.6924 -0.3526  0.8796
18119TIP3    H275849   0.817   4.522   3.909  0.2426  1.1826 -0.7527
18120TIP3   OH275850   4.485   3.427  11.303  0.5382  0.1544  0.4715
18120TIP3    H175851   4.564   3.397  11.258 -0.0769  0.7659 -1.0859
18120TIP3    H275852   4.421   3.439  11.232 -0.8347  0.0224  1.6545
18121TIP3   OH275853   2.831   5.463  13.284 -0.0805 -0.3168 -0.1980
18121TIP3    H175854   2.915   5.491  13.248 -0.2908 -0.9140 -1.1452
18121TIP3    H275855   2.836   5.367  13.288 -1.1004 -0.4278 -1.2181
18122TIP3   OH275856   5.119   3.544   1.031  0.3280 -0.4924 -0.3868
18122TIP3    H175857   5.168   3.609   1.082  1.6992  0.0432 -2.2911
18122TIP3    H275858   5.085   3.594   0.956 -1.2094 -1.3533 -0.2783
18123TIP3   OH275859   6.111   4.532   0.429  0.0616  0.0929  0.5526
18123TIP3    H175860   6.115   4.437   0.420 -0.9967  0.0399  0.5102
18123TIP3    H275861   6.050   4.547   0.501  0.8911  0.7285  1.1373
18124TIP3   OH275862   6.268   4.874   4.956 -0.1096  0.3949  0.3244
18124TIP3    H175863   6.209   4.801   4.940 -1.3495  1.4292  0.1018
18124TIP3    H275864   6.294   4.864   5.047 -2.7582  1.4278  1.2295
18125TIP3   OH275865   6.686   5.561   6.275  0.4895 -0.2231  0.4734
18125TIP3    H175866   6.762   5.560   6.333 -1.1797 -0.9387  2.7375
18125TIP3    H275867   6.621   5.613   6.322 -1.5375 -2.2990  0.0883
18126TIP3   OH275868   5.938   5.074  13.400  0.0373  0.3174 -0.6080
18126TIP3    H175869   5.909   5.141  13.339  0.7032  0.5617 -0.6559
18126TIP3    H275870   6.012   5.032  13.357 -2.4347 -2.7668 -2.1216
18127TIP3   OH275871   5.236   3.175   3.040  0.2256  0.6344  0.0395
18127TIP3    H175872   5.329   3.158   3.029  0.7799  3.1656  0.5841
18127TIP3    H275873   5.219   3.253   2.987 -1.8107 -0.3777 -0.8845
18128TIP3   OH275874   1.715   4.506   0.521  0.0142  0.0416 -0.0102
18128TIP3    H175875   1.727   4.412   0.537 -1.2039 -0.1263 -0.0392
18128TIP3    H275876   1.711   4.513   0.426  0.1335  0.1199 -0.0085
18129TIP3   OH275877   6.224   5.738  16.886 -0.2854 -0.3847 -0.2688
18129TIP3    H175878   6.298   5.796  16.874 -1.3631  1.0023 -0.3378
18129TIP3    H275879   6.208   5.701  16.799  0.3535 -0.7463 -0.2377
18130TIP3   OH275880   6.594   5.596  15.895 -0.3007  0.2920  0.0045
18130TIP3    H175881   6.575   5.670  15.953  1.9581  0.7957  0.1743
18130TIP3    H275882   6.616   5.524  15.954  0.2552  0.2970 -0.1967
18131TIP3   OH275883   5.869   6.460   0.778 -0.0946 -0.0006 -0.4597
18131TIP3    H175884   5.907   6.385   0.732 -0.1809 -0.2836 -0.0759
18131TIP3    H275885   5.943   6.520   0.791 -0.4566  0.9790 -2.7133
18132TIP3   OH275886   0.887   4.604   4.595 -0.3295 -0.4325  0.3493
18132TIP3    H175887   0.954   4.665   4.626 -1.5685  0.0559  2.1460
18132TIP3    H275888   0.817   4.661   4.562 -0.7188 -0.9050  0.3662
18133TIP3   OH275889   5.763   6.410   0.448  0.2388  0.3043  0.2505
18133TIP3    H175890   5.809   6.392   0.530  0.3062  0.7079  0.2998
18133TIP3    H275891   5.753   6.505   0.446  1.0087  0.3814 -0.6159
18134TIP3   OH275892   5.856   0.689  11.744  0.0880 -0.1139  0.6050
18134TIP3    H175893   5.900   0.605  11.734 -0.2997 -0.1017 -1.5275
18134TIP3    H275894   5.851   0.703  11.839  1.2547 -1.8954  0.9481
18135TIP3   OH275895   1.458   1.411   4.895  0.3230 -0.5322 -0.1702
18135TIP3    H175896   1.404   1.428   4.972  2.0647 -2.7781  1.6355
18135TIP3    H275897   1.522   1.482   4.895 -0.5902  0.3010 -0.4164
18136TIP3   OH275898   0.059   5.344  14.822  0.1392 -0.9320 -0.6424
18136TIP3    H175899   0.137   5.399  14.831 -0.5602 -0.2850  2.2921
18136TIP3    H275900   0.093   5.256  14.808  1.4667 -0.7361  1.0899
18137TIP3   OH275901   2.509   3.406   5.071 -0.0404 -0.0854  0.2057
18137TIP3    H175902   2.485   3.316   5.046 -0.0935  0.2312 -0.9007
18137TIP3    H275903   2.425   3.448   5.090 -0.2371  0.4934 -1.8794
18138TIP3   OH275904   5.974   0.925   5.184  0.0157  0.3819 -0.2031
18138TIP3    H175905   5.931   0.935   5.269  0.1489 -2.1235  0.2096
18138TIP3    H275906   5.949   1.003   5.135  1.7868  3.0395  2.8979
18139TIP3   OH275907   0.194   6.055  11.873 -0.1828 -0.2818 -0.2977
18139TIP3    H175908   0.102   6.044  11.852 -0.6146 -1.6790  2.0648
18139TIP3    H275909   0.240   5.998  11.811 -1.2632 -2.9525  1.2641
18140TIP3   OH275910   3.335   1.290   6.047  0.3626  0.0310  0.2736
18140TIP3    H175911   3.430   1.300   6.057  0.4676  0.6885 -1.1600
18140TIP3    H275912   3.318   1.200   6.075  1.0477  0.6405  2.7767
18141TIP3   OH275913   6.253   0.944   2.058 -0.1719  0.0730  0.0673
18141TIP3    H175914   6.261   1.001   1.982  0.4289 -0.2999 -0.1545
18141TIP3    H275915   6.182   0.982   2.110 -1.4523 -0.4095 -1.3127
18142TIP3   OH275916   3.635   1.429  15.915 -0.3573  0.3384  0.5147
18142TIP3    H175917   3.560   1.489  15.915 -1.0901 -0.5498 -1.3547
18142TIP3    H275918   3.705   1.478  15.871  0.0368  0.9916  1.8409
18143TIP3   OH275919   1.788   3.090   3.154 -0.3476  0.4749 -0.1459
18143TIP3    H175920   1.801   2.997   3.136  0.0197  0.2091  1.4326
18143TIP3    H275921   1.876   3.123   3.173 -0.6060  0.9462  0.2297
18144TIP3   OH275922   2.344   5.943  14.094 -0.3907 -0.5062  0.3832
18144TIP3    H175923   2.290   5.960  14.172 -1.6858  2.2341 -1.0424
18144TIP3    H275924   2.377   6.029  14.068 -0.3589 -1.3028 -2.3823
18145TIP3   OH275925   5.193   5.636   3.818 -0.2961 -0.7980  0.2198
18145TIP3    H175926   5.181   5.643   3.913 -1.5885 -1.3684  0.1065
18145TIP3    H275927   5.284   5.606   3.808  0.0107 -0.2656  1.2440
18146TIP3   OH275928   4.719   1.212   5.108  0.3328  0.2102 -0.0844
18146TIP3    H175929   4.656   1.192   5.039  1.1816 -0.1165 -0.7783
18146TIP3    H275930   4.799   1.235   5.061  1.3638 -1.4628  0.8258
18147TIP3   OH275931   0.815   2.952  10.690 -0.2571 -0.2344  0.2239
18147TIP3    H175932   0.730   2.911  10.704  0.1854 -0.9337  0.9025
18147TIP3    H275933   0.864   2.934  10.770  0.9450 -0.8826 -0.6380
18148TIP3   OH275934   2.708   6.449   4.176  0.1048 -0.2073 -0.5809
18148TIP3    H175935   2.795   6.417   4.149  0.4363 -0.5792  0.8874
18148TIP3    H275936   2.661   6.369   4.201  0.0860  0.1997  0.7034
18149TIP3   OH275937   4.300   0.688  13.830  0.7222  0.3579 -0.0659
18149TIP3    H175938   4.237   0.630  13.872 -0.3125  0.8985 -0.8525
18149TIP3    H275939   4.373   0.631  13.807  0.1964 -0.4218  0.1801
18150TIP3   OH275940   1.398   3.206  15.073  0.1243  0.2744 -0.1903
18150TIP3    H175941   1.479   3.226  15.121  0.3915 -0.4087 -0.3596
18150TIP3    H275942   1.398   3.269  15.000  0.7267 -0.0234 -0.4461
18151TIP3   OH275943   4.050   6.254  12.083  0.1536  0.3832  0.0177
18151TIP3    H175944   4.070   6.165  12.052  1.4643  0.7771 -0.3023
18151TIP3    H275945   4.066   6.310  12.007  1.7657  1.1583  0.8972
18152TIP3   OH275946   1.874   2.732   0.325 -0.2679  0.2107  0.5556
18152TIP3    H175947   1.880   2.696   0.413  1.1829 -2.5002 -0.5624
18152TIP3    H275948   1.811   2.675   0.280  0.6363  0.1819 -0.7320
18153TIP3   OH275949   0.703   2.827   3.726  0.1057 -0.2952 -0.2002
18153TIP3    H175950   0.658   2.778   3.795 -0.0317 -0.6126 -0.5126
18153TIP3    H275951   0.750   2.760   3.677  2.0558  0.1776  0.9714
18154TIP3   OH275952   3.484   5.544   2.710  0.3378  0.1734 -0.3266
18154TIP3    H175953   3.498   5.509   2.622  2.9523 -1.6090  0.7499
18154TIP3    H275954   3.395   5.516   2.733 -0.2538  0.3962 -2.2329
18155TIP3   OH275955   1.970   3.994  15.718 -0.1494 -0.2859  0.3236
18155TIP3    H175956   2.004   4.084  15.712  3.8654 -1.6720  0.4489
18155TIP3    H275957   2.008   3.960  15.799 -2.3741 -1.8419  0.7423
18156TIP3   OH275958   3.171   6.480  15.807 -0.1890  0.2039  0.0338
18156TIP3    H175959   3.228   6.462  15.881 -1.1086  0.5294  0.8313
18156TIP3    H275960   3.086   6.502  15.846 -0.8044 -0.0566 -1.1185
18157TIP3   OH275961   3.127   6.648  15.388 -0.2441  0.5102 -0.3599
18157TIP3    H175962   3.049   6.704  15.380  0.9116  2.8227  3.2886
18157TIP3    H275963   3.190   6.685  15.327 -1.0681  0.2757 -1.3712
18158TIP3   OH275964   3.372   0.870   3.683  0.1243 -0.4422 -0.1716
18158TIP3    H175965   3.338   0.782   3.664 -2.0114 -0.1134  1.8605
18158TIP3    H275966   3.329   0.927   3.618  0.5993 -0.7240 -0.7377
18159TIP3   OH275967   1.030   3.064   4.653 -0.1881 -0.2908  0.4811
18159TIP3    H175968   1.050   3.070   4.560  0.4492  0.1293  0.6451
18159TIP3    H275969   0.937   3.087   4.659 -0.9209 -2.8712 -0.3448
18160TIP3   OH275970   2.337   5.843   4.637  0.5293  0.4383 -0.1287
18160TIP3    H175971   2.242   5.838   4.643  0.5385  0.5973  0.1802
18160TIP3    H275972   2.355   5.866   4.546  0.3345 -1.1219 -0.5714
18161TIP3   OH275973   1.303   6.134   6.091 -0.1514  0.2099 -0.3780
18161TIP3    H175974   1.213   6.115   6.065 -0.2726  0.3652 -0.0774
18161TIP3    H275975   1.333   6.053   6.134 -1.2550  1.2470  2.4775
18162TIP3   OH275976   4.755   3.209   1.303  0.3732 -0.6416  0.6353
18162TIP3    H175977   4.844   3.179   1.324  0.3220  0.1040  1.9489
18162TIP3    H275978   4.767   3.274   1.234  1.0114  0.6139  1.8962
18163TIP3   OH275979   0.531   4.875  12.870  0.3918 -0.5736  0.1799
18163TIP3    H175980   0.506   4.807  12.807 -1.6618  0.0085  0.3364
18163TIP3    H275981   0.536   4.829  12.954  0.1265 -0.7481  0.0987
18164TIP3   OH275982   4.930   2.620   2.775  0.2969  0.0763  0.4356
18164TIP3    H175983   4.845   2.584   2.797  0.4699  0.4110  1.6918
18164TIP3    H275984   4.944   2.690   2.839  1.7894 -0.4020  0.6534
18165TIP3   OH275985   1.485   3.448   3.026  0.4249 -0.0169  0.1348
18165TIP3    H175986   1.483   3.352   3.028 -0.7600  0.0236  2.4029
18165TIP3    H275987   1.490   3.474   3.118  0.3535  2.1130 -0.4356
18166TIP3   OH275988   5.531   2.452   0.084  0.0260 -0.0597  0.1322
18166TIP3    H175989   5.520   2.482   0.175  1.0509 -1.1673  0.6324
18166TIP3    H275990   5.453   2.483   0.039 -0.7808 -0.0129  1.5349
18167TIP3   OH275991   1.460   0.808   2.470  0.1231  0.2925  0.3828
18167TIP3    H175992   1.368   0.824   2.449 -0.0568 -0.5119  0.5621
18167TIP3    H275993   1.491   0.750   2.400  0.1614 -0.4431  1.0056
18168TIP3   OH275994   5.057   1.175   0.070  0.2500  0.6139 -0.3030
18168TIP3    H175995   5.090   1.218   0.148  1.1725 -0.0761 -0.3020
18168TIP3    H275996   4.970   1.143   0.094  1.2720 -1.2404  1.0701
18169TIP3   OH275997   3.895   0.296   4.952  0.7054 -0.7442 -0.4030
18169TIP3    H175998   3.868   0.304   4.861  1.5904  1.2170 -0.5180
18169TIP3    H275999   3.990   0.312   4.950  0.9723 -2.0786  0.6936
18170TIP3   OH276000   6.080   4.128  11.495  0.1304 -0.0269  0.4323
18170TIP3    H176001   6.113   4.160  11.411  1.3381 -2.3303  0.0002
18170TIP3    H276002   6.157   4.094  11.540 -0.5315  1.0945  2.4517
18171TIP3   OH276003   1.728   5.388   4.450  0.2331 -0.3100 -0.4459
18171TIP3    H176004   1.769   5.457   4.397  0.0152 -0.3879 -0.7180
18171TIP3    H276005   1.666   5.435   4.506  0.6022 -0.2071 -0.1260
18172TIP3   OH276006   3.606   1.758  13.161  0.0601  0.1361 -0.2486
18172TIP3    H176007   3.650   1.842  13.154 -0.0434  0.0859 -1.7465
18172TIP3    H276008   3.513   1.780  13.168  0.1842  0.1957  1.4917
18173TIP3   OH276009   3.096   0.742  11.111  0.1299 -0.0553  0.6439
18173TIP3    H176010   3.145   0.712  11.187  1.0658 -0.5899 -0.1582
18173TIP3    H276011   3.039   0.670  11.088  0.2065 -0.0847  0.5424
18174TIP3   OH276012   0.934   0.539  12.615  0.3936 -0.0083 -0.0318
18174TIP3    H176013   0.930   0.447  12.640  1.8065 -0.5332 -1.6192
18174TIP3    H276014   0.846   0.573  12.632  0.1142 -1.4036  1.4272
18175TIP3   OH276015   1.765   1.943  16.002 -0.1394  0.2106 -0.3942
18175TIP3    H176016   1.798   1.858  16.032 -1.7092 -0.3794 -0.2495
18175TIP3    H276017   1.837   1.982  15.954  0.8873 -0.8465  0.2609
18176TIP3   OH276018   6.315   2.341  15.387  0.2578  0.6241 -0.2736
18176TIP3    H176019   6.330   2.334  15.482 -1.7807  1.3568  0.1160
18176TIP3    H276020   6.369   2.271  15.350  1.7044  0.8333  1.3497
18177TIP3   OH276021   3.795   5.932   0.142 -0.1795  0.1154 -0.1940
18177TIP3    H176022   3.721   5.920   0.083  0.5436 -0.2159 -1.0488
18177TIP3    H276023   3.808   6.027   0.146 -2.0426  0.3050  1.7152
18178TIP3   OH276024   0.926   2.977  12.322  0.2930  0.2016 -0.0662
18178TIP3    H176025   1.018   2.951  12.320  0.1972 -0.1678  0.2910
18178TIP3    H276026   0.908   2.996  12.414  0.1505  0.7840 -0.2148
18179TIP3   OH276027   1.817   4.931  14.760 -0.3409  0.6577  0.3507
18179TIP3    H176028   1.881   4.869  14.794 -1.2390 -0.3420  0.2375
18179TIP3    H276029   1.855   4.962  14.678  0.3041  0.5844  0.6153
18180TIP3   OH276030   5.938   4.696  11.142  0.0163  0.3536 -0.2892
18180TIP3    H176031   5.849   4.664  11.124  1.4575 -3.0627 -1.8225
18180TIP3    H276032   5.976   4.713  11.056  1.9268 -1.5244  0.1318
18181TIP3   OH276033   4.086   4.721   1.147  0.4985  0.0766 -0.0808
18181TIP3    H176034   4.043   4.636   1.145  1.0484 -0.2388  1.2758
18181TIP3    H276035   4.016   4.782   1.171  0.4816 -0.2315  0.6639
18182TIP3   OH276036   0.751   2.574   5.683 -0.1954 -0.1307 -0.1520
18182TIP3    H176037   0.680   2.633   5.710 -0.7638 -0.3931 -1.0637
18182TIP3    H276038   0.830   2.621   5.707 -0.6696  0.0574  1.1088
18183TIP3   OH276039   2.555   2.586  16.392  0.0287 -0.2780 -1.0033
18183TIP3    H176040   2.592   2.675  16.395  1.7793 -1.0004 -0.7038
18183TIP3    H276041   2.613   2.534  16.447 -1.0701 -1.5970 -1.0695
18184TIP3   OH276042   0.639   0.920   1.873  0.3255  0.1407 -0.2089
18184TIP3    H176043   0.732   0.911   1.894  0.3691  0.1274 -0.4078
18184TIP3    H276044   0.629   1.011   1.845  0.0571  0.4684  0.9300
18185TIP3   OH276045   0.902   1.445  15.010  0.1131  0.2238  0.1262
18185TIP3    H176046   0.818   1.452  14.965  0.4626 -1.1100 -0.7660
18185TIP3    H276047   0.880   1.413  15.097 -0.3372  0.2806  0.0342
18186TIP3   OH276048   4.894   0.106   0.361 -0.0289  0.1251  0.1394
18186TIP3    H176049   4.955   0.153   0.418  1.7191  0.2217 -1.7888
18186TIP3    H276050   4.846   0.175   0.315 -1.6750  0.0509  1.6780
18187TIP3   OH276051   6.719   5.632   1.042  0.0284 -0.1651  0.2237
18187TIP3    H176052   6.753   5.676   1.120 -1.6577  2.7437 -0.6068
18187TIP3    H276053   6.644   5.581   1.073  0.3916 -0.3772  0.7612
18188TIP3   OH276054   1.470   5.274   3.477  0.3721  0.5015  0.2318
18188TIP3    H176055   1.383   5.297   3.445  0.8304  0.3179 -1.1762
18188TIP3    H276056   1.511   5.359   3.495 -0.9424  0.5548  3.3059
18189TIP3   OH276057   6.696   6.638  14.896  0.5525 -0.9397 -0.2696
18189TIP3    H176058   6.667   6.580  14.967 -1.9251 -1.2859 -1.5264
18189TIP3    H276059   6.678   6.726  14.928 -0.0028 -1.0716 -0.2076
18190TIP3   OH276060   6.648   0.723   4.825 -0.4748  0.7139 -0.7914
18190TIP3    H176061   6.728   0.769   4.801 -0.1840  0.2004 -0.8112
18190TIP3    H276062   6.587   0.792   4.851 -0.5130  1.2282 -2.1821
18191TIP3   OH276063   4.343   6.186   2.949  0.2378  0.1712  0.2193
18191TIP3    H176064   4.255   6.224   2.955 -0.2867 -0.6813 -1.6482
18191TIP3    H276065   4.401   6.261   2.937 -0.4412  0.5998 -0.4028
18192TIP3   OH276066   5.061   1.981  14.751  0.0203 -0.2853  0.5488
18192TIP3    H176067   4.967   1.970  14.760  0.0182  0.5600  1.6648
18192TIP3    H276068   5.072   2.034  14.672 -0.5581  1.3033  1.5050
18193TIP3   OH276069   6.610   0.482  15.085 -0.4227 -0.5462 -0.1342
18193TIP3    H176070   6.704   0.496  15.072 -0.5742  0.9266  0.2837
18193TIP3    H276071   6.590   0.403  15.034  0.3880  1.0349 -3.0339
18194TIP3   OH276072   1.808   1.119   5.160 -0.2356  0.0096  0.5950
18194TIP3    H176073   1.736   1.164   5.117  0.6747  1.3510  0.4555
18194TIP3    H276074   1.871   1.102   5.091  1.1630  2.0403  1.3324
18195TIP3   OH276075   3.994   1.607  12.481  0.0247  0.2441  0.0001
18195TIP3    H176076   4.054   1.620  12.407  0.3215 -0.3248  0.1395
18195TIP3    H276077   4.004   1.515  12.503 -1.3817 -0.0151 -0.3966
18196TIP3   OH276078   3.089   5.107   3.310  0.2088  0.9046  0.0185
18196TIP3    H176079   3.008   5.066   3.279  0.3298  1.0130 -0.4456
18196TIP3    H276080   3.123   5.153   3.233  0.1954  1.6836  0.4721
18197TIP3   OH276081   0.602   3.529  15.966 -0.0359 -0.1569 -0.5222
18197TIP3    H176082   0.550   3.501  16.041 -1.0235  0.2342 -1.0578
18197TIP3    H276083   0.571   3.476  15.893 -0.8424  1.2021 -1.2015
18198TIP3   OH276084   6.572   0.551  15.731  0.2434 -0.0898  0.2271
18198TIP3    H176085   6.500   0.613  15.742  0.1105 -0.1928 -0.0641
18198TIP3    H276086   6.568   0.495  15.808 -0.4044 -0.5202 -0.1144
18199TIP3   OH276087   2.079   2.680  16.105  0.2191 -0.2236  0.7480
18199TIP3    H176088   2.148   2.634  16.152  1.5069  0.9994  0.0798
18199TIP3    H276089   2.122   2.717  16.029 -1.5092 -0.7821 -0.5348
18200TIP3   OH276090   1.711   2.947  17.284  0.1280  0.4770  0.1759
18200TIP3    H176091   1.797   2.905  17.279  1.4384  2.9804  0.7947
18200TIP3    H276092   1.675   2.938  17.195  0.9844 -0.6512 -0.0755
18201TIP3   OH276093   3.555   6.717  11.592  0.3409  0.2990 -0.1557
18201TIP3    H176094   3.536   6.641  11.647  0.8377  0.0013 -0.3889
18201TIP3    H276095   3.470   6.757  11.576  0.2075  0.4555  0.9167
18202TIP3   OH276096   5.978   3.555   0.739  0.4835  0.3458  0.1164
18202TIP3    H176097   5.944   3.555   0.649  1.5553  0.8836 -0.2883
18202TIP3    H276098   6.033   3.633   0.744  0.2341  0.4542  1.3237
18203TIP3   OH276099   4.347   1.774  17.119 -0.3667 -0.4175  0.4074
18203TIP3    H176100   4.270   1.716  17.118 -1.5465  1.1325 -0.4562
18203TIP3    H276101   4.398   1.743  17.194 -2.3407 -0.8068  1.6581
18204TIP3   OH276102   4.504   1.544  11.482 -0.2158  0.4399  0.4412
18204TIP3    H176103   4.541   1.614  11.535 -0.9480 -0.2853  1.9409
18204TIP3    H276104   4.416   1.575  11.460 -0.2119  0.3853  0.3497
18205TIP3   OH276105   5.875   4.316  12.087  0.2301 -0.0851  0.3085
18205TIP3    H176106   5.879   4.389  12.025 -1.2125  0.2049  0.5464
18205TIP3    H276107   5.967   4.299  12.110  0.5676  1.7558  0.3828
18206TIP3   OH276108   6.454   6.492  13.689 -0.3737 -0.1753  0.8297
18206TIP3    H176109   6.504   6.419  13.653 -1.2653  0.0523 -0.9244
18206TIP3    H276110   6.520   6.549  13.728  0.5923 -0.5665 -0.2050
18207TIP3   OH276111   1.693   2.957  12.773  0.0547 -0.0074 -0.1480
18207TIP3    H176112   1.650   2.873  12.754 -1.4747  0.0815  2.6162
18207TIP3    H276113   1.768   2.933  12.826 -0.7761  0.4060  1.2321
18208TIP3   OH276114   3.198   5.601  14.633  0.1515  0.5674 -0.4295
18208TIP3    H176115   3.114   5.640  14.611  0.3210  1.0460 -0.2505
18208TIP3    H276116   3.252   5.675  14.662  0.3807  0.1500  0.2150
18209TIP3   OH276117   3.583   1.200   0.401 -0.9119  0.1553  0.1175
18209TIP3    H176118   3.527   1.126   0.379  1.1146 -1.2792 -0.3185
18209TIP3    H276119   3.559   1.222   0.491 -1.0528 -1.4734  0.4890
18210TIP3   OH276120   0.425   6.764   1.331 -0.0464 -0.1135 -0.3624
18210TIP3    H176121   0.442   6.691   1.390 -0.8670 -0.2366 -0.2647
18210TIP3    H276122   0.500   6.765   1.271  0.7425 -0.0317  0.6291
18211TIP3   OH276123   2.045   4.269  10.823 -0.2595  0.0782  0.0890
18211TIP3    H176124   2.038   4.254  10.917  3.1768 -1.4211  0.1717
18211TIP3    H276125   1.992   4.198  10.784 -0.9093  0.1385  0.8414
18212TIP3   OH276126   3.751   6.084   3.962  0.1587  0.4396  0.5575
18212TIP3    H176127   3.777   6.085   4.054  0.4559 -1.0264  0.5158
18212TIP3    H276128   3.834   6.077   3.914 -0.0922 -1.1041  0.2941
18213TIP3   OH276129   1.421   4.196  15.906  0.5235 -0.3167 -0.2067
18213TIP3    H176130   1.404   4.204  16.000 -2.0844 -2.0975 -0.4648
18213TIP3    H276131   1.515   4.181  15.900  0.8177  0.4134  2.0836
18214TIP3   OH276132   3.358   0.086  11.588 -0.3783 -0.0874 -0.0707
18214TIP3    H176133   3.279   0.067  11.538  0.7038 -1.7086 -1.2228
18214TIP3    H276134   3.343   0.044  11.673 -0.7058 -0.5213 -0.3369
18215TIP3   OH276135   2.460   5.147   5.914 -0.7425 -0.3446  0.3263
18215TIP3    H176136   2.391   5.209   5.934  0.6718  1.1885  0.5302
18215TIP3    H276137   2.539   5.200   5.905  0.6083 -2.1671  1.0993
18216TIP3   OH276138   2.393   5.860  13.595  0.0581  0.0493 -0.0752
18216TIP3    H176139   2.461   5.924  13.616  0.2469  0.2581 -1.2785
18216TIP3    H276140   2.421   5.780  13.640  1.5566 -0.0985 -1.2489
18217TIP3   OH276141   5.320   6.199  13.865  0.1445  0.4341  0.6198
18217TIP3    H176142   5.363   6.122  13.827 -0.4172  0.0881  0.6647
18217TIP3    H276143   5.381   6.231  13.931  0.3505 -0.0262  0.6556
18218TIP3   OH276144   5.062   1.910  16.000  0.2550  0.2953  0.0573
18218TIP3    H176145   5.115   1.989  15.994 -0.6270  0.9326  0.4607
18218TIP3    H276146   5.023   1.913  16.087  0.3336 -0.6634  0.1328
18219TIP3   OH276147   2.748   1.614   2.759  0.3565  0.5884  0.4527
18219TIP3    H176148   2.771   1.700   2.794 -1.9656  1.1993  0.5683
18219TIP3    H276149   2.652   1.616   2.752  0.2211 -2.1766  0.9567
18220TIP3   OH276150   5.706   3.011   1.264  0.1063  0.3474  0.0918
18220TIP3    H176151   5.656   2.990   1.342 -0.0479  0.4642  0.0254
18220TIP3    H276152   5.642   3.006   1.192  0.5661 -1.2321 -0.2286
18221TIP3   OH276153   0.797   2.693   2.327  0.3100  0.5772 -0.6068
18221TIP3    H176154   0.874   2.714   2.275  0.2883 -0.2185 -0.9664
18221TIP3    H276155   0.786   2.598   2.317 -0.5361  0.6400 -0.3168
18222TIP3   OH276156   0.911   4.685   3.556 -0.0532 -0.1532  0.3711
18222TIP3    H176157   0.964   4.681   3.477  0.8842  0.1065  0.9787
18222TIP3    H276158   0.839   4.624   3.541  0.7016 -0.8936 -0.2506
18223TIP3   OH276159   5.324   3.962  17.169  0.4012  0.4204  0.0640
18223TIP3    H176160   5.373   4.023  17.114  0.0556 -1.3034 -2.2736
18223TIP3    H276161   5.282   3.902  17.106 -1.2115 -0.7357  2.1729
18224TIP3   OH276162   1.178   1.581   5.298  0.1171  0.2669 -0.3707
18224TIP3    H176163   1.207   1.654   5.352 -1.0840  0.7988 -0.4244
18224TIP3    H276164   1.183   1.505   5.356  2.1573  0.2288 -0.5562
18225TIP3   OH276165   1.480   2.504   4.898  0.0063  0.0435  0.3530
18225TIP3    H176166   1.535   2.567   4.853 -2.1012  1.7114  0.0292
18225TIP3    H276167   1.465   2.435   4.833  0.8419  0.0889  0.1060
18226TIP3   OH276168   1.400   2.647   1.026  0.4796 -0.3444  0.2326
18226TIP3    H176169   1.432   2.661   0.937 -0.0989  0.4603  0.1380
18226TIP3    H276170   1.309   2.621   1.015  0.4928 -0.5449  0.5792
18227TIP3   OH276171   2.879   1.052   2.070  0.7950  0.0748  0.6678
18227TIP3    H176172   2.838   1.093   2.146 -1.7729 -0.4543 -0.3974
18227TIP3    H276173   2.931   0.980   2.107 -0.5493 -0.2801  1.9005
18228TIP3   OH276174   5.595   3.856  15.977  0.0403 -0.0551  1.2623
18228TIP3    H176175   5.635   3.780  16.020 -0.0797 -0.0155  1.4480
18228TIP3    H276176   5.556   3.821  15.897 -0.5509 -0.3061  1.6548
18229TIP3   OH276177   0.993   0.641  15.489  0.3304  0.0195  0.4585
18229TIP3    H176178   1.075   0.626  15.441  1.2035 -0.8458  2.1801
18229TIP3    H276179   1.011   0.611  15.578 -1.8718 -0.2128  0.8648
18230TIP3   OH276180   4.437   1.726   2.550  0.1007 -0.0454  0.8631
18230TIP3    H176181   4.464   1.634   2.539 -2.0043 -1.0658  3.5918
18230TIP3    H276182   4.520   1.775   2.552  1.4221 -2.2263  2.1367
18231TIP3   OH276183   0.963   3.808  13.161 -0.0696  0.0817 -0.2386
18231TIP3    H176184   0.987   3.747  13.231 -1.1847 -2.3765 -1.9392
18231TIP3    H276185   1.042   3.817  13.109 -0.3455 -1.2160 -0.9025
18232TIP3   OH276186   2.329   1.370  16.903 -0.4140 -0.5535  0.5451
18232TIP3    H176187   2.333   1.465  16.889 -0.3902 -0.5677  0.4593
18232TIP3    H276188   2.322   1.361  16.998 -2.9797 -0.3873  0.3981
18233TIP3   OH276189   5.493   5.759   1.765 -0.2764 -0.0027  0.0914
18233TIP3    H176190   5.463   5.700   1.696 -2.1169  0.5849  0.3688
18233TIP3    H276191   5.576   5.721   1.794 -1.1251 -2.1047 -0.1540
18234TIP3   OH276192   4.439   2.403   5.534  0.2414 -0.2171 -0.6406
18234TIP3    H176193   4.491   2.484   5.539 -0.8313  0.5619 -1.9400
18234TIP3    H276194   4.370   2.415   5.600 -0.0621  0.0318 -1.0038
18235TIP3   OH276195   6.508   0.802  16.340 -0.0070 -0.5979 -0.0658
18235TIP3    H176196   6.595   0.816  16.302 -0.4905  0.9008 -0.6667
18235TIP3    H276197   6.474   0.724  16.295  1.3951 -1.7486  0.8503
18236TIP3   OH276198   3.139   5.422  11.182 -0.1686 -0.5123 -0.0692
18236TIP3    H176199   3.059   5.391  11.140 -0.8068  0.0759  0.6916
18236TIP3    H276200   3.118   5.511  11.211  0.5921 -0.5364  0.5796
18237TIP3   OH276201   0.901   0.576   0.013  0.2010 -0.1008 -0.7548
18237TIP3    H176202   0.996   0.584   0.020  0.1487  0.0611 -0.1946
18237TIP3    H276203   0.874   0.650  -0.041  0.4112 -0.2341 -1.0383
18238TIP3   OH276204   3.183   0.721   1.356 -0.4655 -0.1389 -0.0271
18238TIP3    H176205   3.158   0.693   1.444 -1.5287 -2.1943 -0.9290
18238TIP3    H276206   3.245   0.792   1.369 -0.4647 -0.5549  2.3833
18239TIP3   OH276207   3.640   4.569  14.776 -0.4003  0.4757 -0.0068
18239TIP3    H176208   3.573   4.553  14.709 -0.5642 -0.7133  0.4372
18239TIP3    H276209   3.610   4.649  14.820 -0.6494  0.8802 -0.8932
18240TIP3   OH276210   2.793   5.190  14.273  0.1648  0.0294  0.1038
18240TIP3    H176211   2.864   5.134  14.242  0.4086  0.3367  0.0949
18240TIP3    H276212   2.834   5.277  14.281 -0.5845  0.5172 -1.3088
18241TIP3   OH276213   4.285   1.539  12.363 -0.4334  0.4048 -0.0045
18241TIP3    H176214   4.265   1.632  12.350  0.3022  0.8097  1.6647
18241TIP3    H276215   4.309   1.532  12.455  2.7987 -0.8336 -0.8645
18242TIP3   OH276216   4.348   3.671   6.632  0.3806 -0.6270  0.1112
18242TIP3    H176217   4.305   3.749   6.597  0.1142 -0.6757  0.3302
18242TIP3    H276218   4.281   3.603   6.630  0.8094 -1.0296 -0.7122
18243TIP3   OH276219   2.090   5.144   6.604  0.0054 -0.2419 -0.2683
18243TIP3    H176220   2.036   5.154   6.525 -1.5450 -1.4221  0.6190
18243TIP3    H276221   2.030   5.156   6.677  1.0314 -1.1185  0.7445
18244TIP3   OH276222   2.812   4.056   0.822 -0.8257  0.1340 -0.3079
18244TIP3    H176223   2.855   4.140   0.837  0.6416 -0.4124 -1.3584
18244TIP3    H276224   2.784   4.027   0.909  1.3700  0.2812  0.4732
18245TIP3   OH276225   1.791   5.023  15.170  0.7283  0.3585 -0.3032
18245TIP3    H176226   1.873   5.041  15.124  0.2695  1.5247 -0.6682
18245TIP3    H276227   1.735   5.098  15.151  0.4055  0.7151  1.9068
18246TIP3   OH276228   1.125   3.618  11.821 -0.2486  0.0643 -0.4165
18246TIP3    H176229   1.068   3.690  11.848  2.0282  1.8520 -0.1974
18246TIP3    H276230   1.181   3.602  11.897  3.2805  2.1921 -2.4236
18247TIP3   OH276231   5.091   6.522  14.834  0.5184 -0.5987 -0.3671
18247TIP3    H176232   5.182   6.492  14.838  0.1512 -1.6789  0.0108
18247TIP3    H276233   5.054   6.474  14.760 -0.1277 -1.2387  0.3622
18248TIP3   OH276234   6.309   6.046   2.509 -0.4901  0.3839  0.1736
18248TIP3    H176235   6.312   6.071   2.417  0.1371  1.3185  0.4389
18248TIP3    H276236   6.367   6.109   2.553 -2.9198  1.6628  1.6135
18249TIP3   OH276237   6.561   1.758   4.333  0.3774 -0.0294  0.2588
18249TIP3    H176238   6.502   1.777   4.261  1.2546  0.4366 -0.3559
18249TIP3    H276239   6.556   1.663   4.345 -0.6558  0.0358  0.3674
18250TIP3   OH276240   2.173   6.527   6.043 -0.7014 -0.1909  0.3630
18250TIP3    H176241   2.178   6.508   6.137  1.4496 -0.2929  0.2650
18250TIP3    H276242   2.244   6.590   6.028  0.3041 -1.6945 -1.5275
18251TIP3   OH276243   4.463   6.422  12.597 -0.6076 -0.2066 -1.0218
18251TIP3    H176244   4.372   6.445  12.580 -0.3900  0.0022 -1.9525
18251TIP3    H276245   4.514   6.491  12.555 -0.0491  1.3244  2.0399
18252TIP3   OH276246   1.114   2.868  15.683 -0.0176  0.5716 -0.3647
18252TIP3    H176247   1.059   2.815  15.625  0.6520  0.6581 -1.0907
18252TIP3    H276248   1.055   2.934  15.720 -0.7517 -0.3984  0.1859
18253TIP3   OH276249   6.554   1.569   1.057  0.4628 -0.2230 -0.8131
18253TIP3    H176250   6.462   1.595   1.052  0.6026  0.1387 -1.5760
18253TIP3    H276251   6.552   1.478   1.086 -0.0994  0.0682  0.0850
18254TIP3   OH276252   3.495   1.743  14.068  0.4022  0.8187  0.2165
18254TIP3    H176253   3.528   1.827  14.035  1.6139  0.6581  1.0021
18254TIP3    H276254   3.568   1.683  14.056 -0.7128 -0.3163 -1.0427
18255TIP3   OH276255   4.497   5.474   4.284 -0.3469 -0.0254  0.1133
18255TIP3    H176256   4.422   5.529   4.261 -0.3306 -0.2590 -0.5121
18255TIP3    H276257   4.563   5.536   4.318 -0.9192  0.1475  0.9425
18256TIP3   OH276258   2.024   3.205   3.168 -0.2273  0.2295  0.0894
18256TIP3    H176259   2.052   3.212   3.077  0.6728  0.2014  0.3613
18256TIP3    H276260   2.064   3.280   3.212 -0.1632 -0.0933  0.5874
18257TIP3   OH276261   5.909   4.671   5.145 -0.5444  0.2718  0.4628
18257TIP3    H176262   5.936   4.730   5.216 -1.5543 -0.6546  1.6380
18257TIP3    H276263   5.897   4.586   5.188  2.2220 -1.1358 -1.4571
18258TIP3   OH276264   5.548   1.463   5.312  0.1263  0.1189 -0.2874
18258TIP3    H176265   5.511   1.429   5.393 -0.0233 -0.1017 -0.4490
18258TIP3    H276266   5.639   1.433   5.313  1.4964  4.0186  2.0563
18259TIP3   OH276267   2.520   5.652  14.821  0.3725  0.1324  0.1423
18259TIP3    H176268   2.462   5.697  14.881 -0.7780  0.2114 -1.0022
18259TIP3    H276269   2.565   5.722  14.774  0.7304  0.0749  0.3995
18260TIP3   OH276270   3.384   0.100   3.781  0.4969 -0.3855 -0.0381
18260TIP3    H176271   3.420   0.148   3.857 -0.1081  0.3428 -0.2076
18260TIP3    H276272   3.378   0.166   3.712  0.8888 -1.0126 -0.6747
18261TIP3   OH276273   2.844   1.168   4.052  0.1179  0.0059  0.4318
18261TIP3    H176274   2.881   1.126   3.974  0.0204  0.7039  0.0082
18261TIP3    H276275   2.872   1.259   4.046 -1.1880  0.4243  0.3876
18262TIP3   OH276276   4.017   1.679  15.900  0.5779 -0.2746 -0.1742
18262TIP3    H176277   4.079   1.656  15.831 -0.2740  0.1698 -1.0956
18262TIP3    H276278   4.018   1.604  15.960  1.7713 -0.3957 -0.3476
18263TIP3   OH276279   3.929   4.790   3.445 -0.2608 -0.1451  0.4259
18263TIP3    H176280   3.916   4.861   3.382 -0.9124 -0.1916  0.5086
18263TIP3    H276281   3.895   4.825   3.528  1.1297  0.1361  0.8894
18264TIP3   OH276282   3.698   6.336  14.829  0.0047 -0.4872 -0.0381
18264TIP3    H176283   3.727   6.248  14.855  1.0833  0.3526  1.7838
18264TIP3    H276284   3.722   6.343  14.737  2.2451 -1.2309  0.4346
18265TIP3   OH276285   1.325   3.082  13.744  0.2844 -0.3460 -0.4495
18265TIP3    H176286   1.263   3.027  13.791  0.2942 -0.8051 -0.9546
18265TIP3    H276287   1.411   3.046  13.766  0.4165  0.7244  0.7978
18266TIP3   OH276288   4.947   0.519   1.175  0.0539  0.1187  1.0169
18266TIP3    H176289   5.009   0.591   1.188  0.3984 -0.1829  1.0761
18266TIP3    H276290   4.967   0.485   1.088 -1.0155  0.9536  0.4384
18267TIP3   OH276291   3.696   6.768   3.351  0.0319  0.4853  0.2304
18267TIP3    H176292   3.673   6.680   3.319  2.1486 -1.1418  2.8849
18267TIP3    H276293   3.782   6.785   3.313  0.3428  0.6730  1.0030
18268TIP3   OH276294   2.881   3.795  14.439  0.5320 -0.3836 -0.1210
18268TIP3    H176295   2.919   3.774  14.525 -2.1252  0.7941  1.4145
18268TIP3    H276296   2.920   3.879  14.415 -0.4336  0.4143  1.0485
18269TIP3   OH276297   5.364   5.656  12.370 -0.3094  0.2518 -0.0473
18269TIP3    H176298   5.327   5.719  12.307  0.0699  0.7952  0.2666
18269TIP3    H276299   5.325   5.682  12.454  1.5271  1.4514  0.4581
18270TIP3   OH276300   6.802   3.700   4.216  0.1089 -0.7949 -0.3541
18270TIP3    H176301   6.887   3.681   4.254  0.6440  0.9620 -0.6175
18270TIP3    H276302   6.766   3.770   4.270  0.2950  0.7877 -2.2232
18271TIP3   OH276303   4.748   0.921  12.066 -0.2841 -0.4311  0.1671
18271TIP3    H176304   4.837   0.920  12.030 -0.1419 -2.2469  0.5131
18271TIP3    H276305   4.761   0.926  12.161 -0.5558 -0.1926  0.1910
18272TIP3   OH276306   5.886   6.700   4.162  0.3615  0.2951  0.4868
18272TIP3    H176307   5.810   6.730   4.112 -0.8382 -1.0459  1.4356
18272TIP3    H276308   5.919   6.624   4.113  0.6507  0.4385  0.4582
18273TIP3   OH276309   0.623   4.841   0.834  0.0094 -0.1105  0.0673
18273TIP3    H176310   0.687   4.808   0.771 -0.3908 -1.2568  0.2464
18273TIP3    H276311   0.628   4.937   0.826 -0.4155 -0.2342 -2.0800
18274TIP3   OH276312   6.050   2.690   4.413 -0.3450 -0.3208  0.3692
18274TIP3    H176313   5.977   2.732   4.367  0.3264 -0.3544 -0.7351
18274TIP3    H276314   6.069   2.612   4.361  0.4456 -0.3474  0.6964
18275TIP3   OH276315   4.542   6.181   3.773 -0.3130  0.3839  0.4022
18275TIP3    H176316   4.544   6.095   3.815  0.3680  0.9086  1.4867
18275TIP3    H276317   4.487   6.235   3.831 -1.5501  0.4182 -0.7932
18276TIP3   OH276318   1.320   3.081   6.356 -0.0694 -0.4929 -0.5691
18276TIP3    H176319   1.260   3.062   6.284  1.6499 -1.6832 -1.7142
18276TIP3    H276320   1.336   2.996   6.397 -0.5635  0.0838  0.8889
18277TIP3   OH276321   5.232   5.531  14.161 -0.3598  0.7084 -0.0177
18277TIP3    H176322   5.177   5.459  14.129 -0.7619  1.4175 -0.9260
18277TIP3    H276323   5.304   5.487  14.207  0.4875 -0.3758 -2.2846
18278TIP3   OH276324   0.887   1.617  10.857  0.5300  0.3977  0.5941
18278TIP3    H176325   0.803   1.662  10.863  0.7617  0.7632  1.0964
18278TIP3    H276326   0.903   1.608  10.763 -1.0541 -1.5022  0.4634
18279TIP3   OH276327   2.777   2.914   0.938 -0.8847 -0.3622 -0.0189
18279TIP3    H176328   2.771   2.884   1.029  0.9003 -0.2429  0.1575
18279TIP3    H276329   2.852   2.973   0.937 -0.3505 -1.0355 -1.7528
18280TIP3   OH276330   6.646   2.160  10.731  0.0931  0.0292 -0.1112
18280TIP3    H176331   6.635   2.083  10.787 -2.3096  2.0442  2.2854
18280TIP3    H276332   6.566   2.165  10.680  1.3249 -0.4933 -2.1484
18281TIP3   OH276333   3.682   5.906  16.909  0.2921 -0.3309  0.6914
18281TIP3    H176334   3.718   5.827  16.949 -0.2658 -1.4841 -1.0266
18281TIP3    H276335   3.729   5.915  16.826 -0.8973  0.1207  0.0516
18282TIP3   OH276336   3.524   6.295  15.236  0.1527 -0.3072 -0.3804
18282TIP3    H176337   3.486   6.272  15.321 -1.2718  0.2491 -0.8608
18282TIP3    H276338   3.560   6.382  15.248 -2.1077  0.7386 -0.9810
18283TIP3   OH276339   3.195   2.347   3.045  0.3711  0.7737  0.7281
18283TIP3    H176340   3.199   2.353   3.141 -0.9434 -2.1596  1.0243
18283TIP3    H276341   3.204   2.253   3.027 -1.7248  1.0220 -1.9062
18284TIP3   OH276342   4.078   3.861  15.692 -0.4222  0.6327  0.2139
18284TIP3    H176343   4.056   3.944  15.735 -0.7984 -0.5710  2.4001
18284TIP3    H276344   4.000   3.807  15.703  0.9444 -1.0932  1.5381
18285TIP3   OH276345   5.119   4.738   1.395  0.2528  0.0854 -0.3451
18285TIP3    H176346   5.024   4.733   1.403  0.1423  1.0503 -1.0110
18285TIP3    H276347   5.149   4.765   1.482  0.0034 -1.1128  0.1319
18286TIP3   OH276348   3.204   4.982  10.983 -0.3592 -0.3143  0.4470
18286TIP3    H176349   3.136   4.987  10.916  0.5486 -1.1711 -0.5503
18286TIP3    H276350   3.159   4.948  11.061 -0.7921 -2.1688 -0.5931
18287TIP3   OH276351   2.169   3.172   4.463 -0.2374 -0.1882 -0.5985
18287TIP3    H176352   2.200   3.188   4.374  0.0441  1.7135 -0.1815
18287TIP3    H276353   2.238   3.120   4.503  0.1548 -0.1056 -1.1558
18288TIP3   OH276354   1.090   2.417  11.027  0.2602 -0.0539  0.0973
18288TIP3    H176355   1.116   2.508  11.043  1.2747 -0.1525 -0.9870
18288TIP3    H276356   1.109   2.402  10.935  0.9385 -1.6547  0.4880
18289TIP3   OH276357   6.740   1.498  14.932 -0.2171  0.4361  0.5444
18289TIP3    H176358   6.741   1.525  15.024 -1.2399 -1.6824  1.1995
18289TIP3    H276359   6.654   1.527  14.899 -0.3412  0.1134  0.5856
18290TIP3   OH276360   2.775   4.484   1.022 -0.1383  0.1723 -0.7793
18290TIP3    H176361   2.682   4.470   1.043  0.0007 -1.6298 -1.2344
18290TIP3    H276362   2.808   4.536   1.095 -0.9620 -1.2580  0.6665
18291TIP3   OH276363   0.766   1.602   1.922  0.0021 -0.4153  0.6630
18291TIP3    H176364   0.721   1.610   2.005 -1.0045  0.9821  0.0105
18291TIP3    H276365   0.848   1.650   1.934  1.1889 -2.6456  1.7320
18292TIP3   OH276366   3.650   0.671   5.802  0.3675  0.1656 -0.1778
18292TIP3    H176367   3.626   0.579   5.807 -3.4408  1.0491 -0.4002
18292TIP3    H276368   3.607   0.712   5.877  1.4396  1.8848 -0.4542
18293TIP3   OH276369   6.069   0.303  16.652  0.4218  0.4672 -0.4495
18293TIP3    H176370   5.975   0.293  16.659  0.4254  0.1874 -0.7829
18293TIP3    H276371   6.104   0.215  16.665  0.6829  0.6845  0.3878
18294TIP3   OH276372   4.352   5.819  17.165  0.1826 -0.2023 -0.0939
18294TIP3    H176373   4.292   5.806  17.238  0.2003 -2.5912 -0.4727
18294TIP3    H276374   4.411   5.745  17.169  1.6949  0.9243 -1.1091
18295TIP3   OH276375   3.787   5.131  13.911  0.5844 -0.0433 -0.7081
18295TIP3    H176376   3.754   5.123  14.001  2.4367 -0.4206 -0.0484
18295TIP3    H276377   3.859   5.193  13.917  1.2698 -0.7068 -1.7919
18296TIP3   OH276378   0.858   6.447  13.452 -0.4924 -0.1763  0.2951
18296TIP3    H176379   0.901   6.385  13.393  0.2902 -1.2517  1.9751
18296TIP3    H276380   0.819   6.512  13.394  0.8177 -0.8622 -1.3791
18297TIP3   OH276381   3.947   6.656  11.126 -0.3336  0.3094  0.1132
18297TIP3    H176382   3.977   6.588  11.065  1.4774  0.9932  0.2031
18297TIP3    H276383   3.871   6.695  11.083 -1.5650 -1.9607  0.1921
18298TIP3   OH276384   3.428   1.701   2.832 -0.2270 -0.1085 -0.1265
18298TIP3    H176385   3.508   1.712   2.883 -0.4507 -1.0327  0.4265
18298TIP3    H276386   3.405   1.609   2.843 -1.9976  0.4085  0.6609
18299TIP3   OH276387   0.081   0.597  12.887  0.3106 -0.6030 -0.2107
18299TIP3    H176388   0.146   0.623  12.822  0.8233 -1.8825 -0.2264
18299TIP3    H276389   0.008   0.656  12.874  1.5076  0.9217 -0.1387
18300TIP3   OH276390   5.464   3.355  16.254 -0.1652  0.3701  0.1342
18300TIP3    H176391   5.542   3.316  16.294 -0.7293 -0.3669  0.5473
18300TIP3    H276392   5.473   3.337  16.161 -0.3325 -0.6061  0.3019
18301TIP3   OH276393   1.325   2.829   5.246 -0.5356 -0.4727  0.6531
18301TIP3    H176394   1.241   2.818   5.291 -1.6125 -1.3800 -1.5230
18301TIP3    H276395   1.307   2.808   5.154  2.1832 -1.2054  0.2239
18302TIP3   OH276396   5.904   6.697  16.276  0.2021  0.4242 -0.5197
18302TIP3    H176397   5.900   6.725  16.368 -0.2813 -0.8604 -0.1360
18302TIP3    H276398   5.841   6.754  16.231  0.0851  0.7393  0.0390
18303TIP3   OH276399   0.715   0.552   4.240  0.2038  0.0843  0.2469
18303TIP3    H176400   0.637   0.605   4.225 -1.0821 -1.4533  1.2871
18303TIP3    H276401   0.690   0.464   4.212  2.0650 -0.1355 -0.8208
18304TIP3   OH276402   6.640   4.571  16.119 -0.1048  0.7010  0.3041
18304TIP3    H176403   6.554   4.613  16.122  0.2275  1.3573  0.5301
18304TIP3    H276404   6.672   4.575  16.209 -0.6257 -1.1872  0.5926
18305TIP3   OH276405   6.109   0.433   2.772 -0.3621  0.5526 -0.1246
18305TIP3    H176406   6.089   0.494   2.701  0.4593  0.6009 -0.3149
18305TIP3    H276407   6.087   0.482   2.852  0.7173  1.2677 -0.2555
18306TIP3   OH276408   5.465   5.446  11.637 -0.2032 -0.0184  0.2901
18306TIP3    H176409   5.554   5.464  11.667  0.2241 -2.1310  0.3957
18306TIP3    H276410   5.475   5.382  11.567 -1.6625 -0.5873  0.5745
18307TIP3   OH276411   2.408   4.813   5.097 -0.7298 -0.0744 -0.6741
18307TIP3    H176412   2.422   4.786   5.007 -0.2307  3.0692 -1.6042
18307TIP3    H276413   2.486   4.784   5.144 -0.2886 -0.3271 -1.5676
18308TIP3   OH276414   5.100   5.347  16.890 -0.2789 -0.3229  0.5961
18308TIP3    H176415   5.096   5.404  16.814 -0.2839 -1.1550 -0.0277
18308TIP3    H276416   5.014   5.355  16.932  0.2480  1.3341  1.3967
18309TIP3   OH276417   5.454   0.803   2.746  0.1030 -0.1676 -0.6970
18309TIP3    H176418   5.537   0.795   2.793 -0.7610 -1.5923  0.6072
18309TIP3    H276419   5.450   0.895   2.721  0.6976  0.5552  1.7866
18310TIP3   OH276420   2.065   0.040   5.346  0.5462 -0.8190 -0.6103
18310TIP3    H176421   2.073  -0.035   5.287  1.0384 -0.8505 -0.5013
18310TIP3    H276422   2.145   0.039   5.398 -0.8769 -2.1094  1.6263
18311TIP3   OH276423   0.960   2.383  10.193  0.6715 -0.0423  0.3428
18311TIP3    H176424   0.992   2.299  10.225  0.1690 -1.1153 -1.8457
18311TIP3    H276425   1.037   2.425  10.154  0.4297 -0.6319 -0.8232
18312TIP3   OH276426   0.008   2.531  15.033 -0.3112  0.0166 -0.2730
18312TIP3    H176427   0.103   2.534  15.030 -0.2062  1.5832  2.6503
18312TIP3    H276428  -0.021   2.596  14.969  0.5791  0.0253 -0.6640
18313TIP3   OH276429   6.395   6.380   5.056  0.9945  0.2981  0.2048
18313TIP3    H176430   6.321   6.440   5.056  0.6974 -0.0261 -1.5740
18313TIP3    H276431   6.359   6.298   5.090  0.6302  0.2573 -0.2729
18314TIP3   OH276432   0.853   6.779   1.367  0.3101 -0.7218  0.6575
18314TIP3    H176433   0.943   6.811   1.378  0.4020 -1.1604  1.1967
18314TIP3    H276434   0.842   6.714   1.436 -1.0655  0.7204  1.8535
18315TIP3   OH276435   2.412   1.500   6.159 -0.1421  0.1003 -0.1340
18315TIP3    H176436   2.391   1.421   6.209 -0.7598  0.8429  0.7965
18315TIP3    H276437   2.360   1.493   6.080  0.9703 -1.1694 -0.7595
18316TIP3   OH276438   3.194   4.191  15.899 -0.8909  0.0299  0.1639
18316TIP3    H176439   3.101   4.184  15.878 -1.1727 -1.7896  1.9014
18316TIP3    H276440   3.195   4.219  15.990  0.2703 -0.1776  0.2126
18317TIP3   OH276441   5.591   4.156   4.142 -0.1535  0.0234 -0.7975
18317TIP3    H176442   5.551   4.147   4.229  1.5646  1.4441  0.1722
18317TIP3    H276443   5.612   4.249   4.134 -0.9933  0.0571 -3.0834
18318TIP3   OH276444   1.684   2.595   6.254 -0.2057 -1.0341  0.2126
18318TIP3    H176445   1.660   2.648   6.178 -1.7052  0.7739  1.8836
18318TIP3    H276446   1.775   2.617   6.271  0.4391 -2.1556 -1.5793
18319TIP3   OH276447   4.719   6.073  16.401  0.2092  0.7587  0.0137
18319TIP3    H176448   4.748   6.005  16.340  0.2866  1.6233 -0.9289
18319TIP3    H276449   4.668   6.133  16.347 -0.0620  1.3183  0.8871
18320TIP3   OH276450   0.229   0.761  10.727  0.1432 -0.2432 -0.1331
18320TIP3    H176451   0.238   0.817  10.804 -0.9538  2.2632 -1.7501
18320TIP3    H276452   0.136   0.739  10.725  0.3445 -1.0710 -0.2144
18321TIP3   OH276453   0.709   2.148   3.412 -0.7717  0.5268 -0.0927
18321TIP3    H176454   0.673   2.234   3.434  0.4042  1.7843 -2.8775
18321TIP3    H276455   0.769   2.165   3.339 -0.0030 -2.5617 -0.2345
18322TIP3   OH276456   0.941   2.558  14.998  0.2810  0.5319 -0.1498
18322TIP3    H176457   1.009   2.580  15.060 -0.3078 -0.5208  0.8953
18322TIP3    H276458   0.918   2.467  15.018 -1.8702  1.0558 -0.0289
18323TIP3   OH276459   6.287   0.183  14.948  0.9770  0.0182  0.3233
18323TIP3    H176460   6.238   0.184  15.031 -0.3445 -0.4568 -0.4423
18323TIP3    H276461   6.238   0.242  14.891  0.2854 -1.8074 -1.0084
18324TIP3   OH276462   3.987   6.732  12.071 -0.5519 -0.2245  0.3167
18324TIP3    H176463   3.992   6.641  12.045  2.4158  0.6697 -2.6275
18324TIP3    H276464   4.015   6.732  12.163  0.4945 -2.1730  0.0312
18325TIP3   OH276465   2.984   0.901   5.598 -0.3884  0.3993  0.4475
18325TIP3    H176466   3.013   0.891   5.689 -0.3307  0.2481  0.4131
18325TIP3    H276467   2.971   0.995   5.587  2.0306  0.7037 -0.1356
18326TIP3   OH276468   2.485   0.604  12.016 -0.7013 -0.1184 -0.1118
18326TIP3    H176469   2.580   0.603  12.032 -0.1709  2.5250 -2.5347
18326TIP3    H276470   2.467   0.521  11.973  0.5700 -0.5586  0.1760
18327TIP3   OH276471   5.616   2.733   2.992 -0.0730  0.0660 -0.7658
18327TIP3    H176472   5.680   2.787   2.945  0.8958 -0.4242 -0.0214
18327TIP3    H276473   5.601   2.658   2.935  0.6868 -0.2545 -0.5507
18328TIP3   OH276474   4.583   2.490  16.586 -0.2029  0.7991  0.2493
18328TIP3    H176475   4.554   2.567  16.536  0.5370  0.8600 -0.0773
18328TIP3    H276476   4.678   2.497  16.588 -0.1241 -0.2306  0.0452
18329TIP3   OH276477   2.868   4.009   3.394  0.0681 -0.2835  0.5618
18329TIP3    H176478   2.800   4.066   3.429 -1.0530 -0.3193 -1.4481
18329TIP3    H276479   2.950   4.047   3.425 -0.8448 -0.0735  2.7671
18330TIP3   OH276480   0.811   5.589   2.629  0.2289  0.4573 -0.2478
18330TIP3    H176481   0.742   5.623   2.686  0.9398 -0.3112  1.0770
18330TIP3    H276482   0.869   5.664   2.614 -0.8983  1.1278 -1.4270
18331TIP3   OH276483   5.720   0.424  15.230 -0.1270  0.4877 -0.4500
18331TIP3    H176484   5.695   0.514  15.246 -1.2058  0.1662 -0.2985
18331TIP3    H276485   5.647   0.372  15.263  1.0728 -0.5097  0.7031
18332TIP3   OH276486   4.382   0.217   0.834  0.1038  0.0469  0.4475
18332TIP3    H176487   4.316   0.148   0.839  0.4327 -0.3992 -0.9182
18332TIP3    H276488   4.431   0.210   0.916 -1.5865  0.4470  1.5085
18333TIP3   OH276489   1.535   0.957   4.773 -0.3409 -0.3861  0.7246
18333TIP3    H176490   1.485   0.927   4.697 -1.2367 -0.5177  1.3567
18333TIP3    H276491   1.563   1.046   4.749 -1.3550 -0.0979  0.5845
18334TIP3   OH276492   5.281   4.387  11.670  0.3766  0.6434  0.4568
18334TIP3    H176493   5.322   4.331  11.736 -0.0573  0.3823  0.5045
18334TIP3    H276494   5.355   4.421  11.619  0.8682  2.3274  2.2334
18335TIP3   OH276495   2.513   6.493   0.527  0.1784  0.2548  0.5054
18335TIP3    H176496   2.506   6.577   0.482 -0.4014 -0.1362 -0.1350
18335TIP3    H276497   2.490   6.427   0.462  1.7173 -0.5024  0.6906
18336TIP3   OH276498   3.858   0.978  14.145 -0.4444 -0.4608 -0.7502
18336TIP3    H176499   3.897   0.893  14.125 -1.0032 -0.8712 -0.0933
18336TIP3    H276500   3.770   0.974  14.108 -0.3874 -0.0698 -0.9358
18337TIP3   OH276501   6.530   1.131   2.705 -0.5437  0.1318  0.2873
18337TIP3    H176502   6.496   1.059   2.759 -0.8402  0.7291  0.9092
18337TIP3    H276503   6.590   1.178   2.763  1.8888 -1.2900 -0.9893
18338TIP3   OH276504   0.891   0.376   0.916  0.1786 -0.5737 -0.4066
18338TIP3    H176505   0.864   0.397   1.005  0.1579 -1.7601 -0.1183
18338TIP3    H276506   0.818   0.402   0.860  0.3750  0.5893 -0.1295
18339TIP3   OH276507   1.159   5.933   2.779 -0.7669  0.1954  0.7837
18339TIP3    H176508   1.165   5.837   2.780 -0.8566  0.1840  0.4758
18339TIP3    H276509   1.238   5.961   2.732 -1.2044  0.2261  0.0505
18340TIP3   OH276510   4.137   4.107  13.605  0.2726  0.2608  0.2650
18340TIP3    H176511   4.126   4.082  13.513  0.5265  1.4063 -0.0937
18340TIP3    H276512   4.066   4.170  13.621  0.8914  0.9075  0.5266
18341TIP3   OH276513   6.751   1.625  15.194 -0.0590 -0.2863  0.1037
18341TIP3    H176514   6.774   1.662  15.280 -1.6586 -1.0095  0.8614
18341TIP3    H276515   6.708   1.696  15.148 -0.4645 -0.3134  0.4375
18342TIP3   OH276516   4.116   4.311   1.271 -0.0271 -0.2791  0.0271
18342TIP3    H176517   4.117   4.359   1.188 -1.8528  0.7309  0.5550
18342TIP3    H276518   4.205   4.320   1.305  0.4515  0.2089 -1.3208
18343TIP3   OH276519   5.459   3.365   3.390  0.1469 -0.2880 -0.2360
18343TIP3    H176520   5.476   3.354   3.484  1.6115  0.7861 -0.3544
18343TIP3    H276521   5.542   3.398   3.355 -0.7171  0.3226 -1.7311
18344TIP3   OH276522   4.155   0.528   2.546  0.2068  0.5200  0.2171
18344TIP3    H176523   4.217   0.545   2.616  0.1250 -0.4452  0.5330
18344TIP3    H276524   4.072   0.513   2.591 -0.4346  2.5100 -0.2372
18345TIP3   OH276525   6.352   4.564  11.207  0.4029 -0.1939 -0.7443
18345TIP3    H176526   6.335   4.470  11.201  1.5363 -0.4759  0.1731
18345TIP3    H276527   6.362   4.593  11.116  0.4883 -1.0505 -1.0066
18346TIP3   OH276528   0.193   0.695  11.416  0.1075  0.3054  0.3745
18346TIP3    H176529   0.122   0.748  11.379 -0.6579 -0.4852  0.6840
18346TIP3    H276530   0.235   0.754  11.479  1.2176  1.5398 -1.4915
18347TIP3   OH276531   5.087   2.659   4.133  0.4720  0.5334 -0.6266
18347TIP3    H176532   5.024   2.614   4.077  0.2901  0.7507 -0.5936
18347TIP3    H276533   5.170   2.613   4.117  0.4357  0.6357 -1.1171
18348TIP3   OH276534   1.821   1.972  14.574  0.0131 -0.1355 -1.0741
18348TIP3    H176535   1.856   2.048  14.528 -1.1897  0.9613 -0.1729
18348TIP3    H276536   1.734   1.959  14.536 -1.1330  0.9842  1.1116
18349TIP3   OH276537   1.012   5.442   5.094  0.5101 -0.0769  0.4210
18349TIP3    H176538   1.058   5.384   5.034  0.1737  1.4693 -1.3912
18349TIP3    H276539   0.921   5.413   5.092  0.6897 -0.6829  0.9928
18350TIP3   OH276540   1.073   1.293  14.127  0.4187  0.3107  0.7425
18350TIP3    H176541   1.117   1.358  14.073 -1.3792  0.2946 -0.8150
18350TIP3    H276542   1.144   1.244  14.169  1.9830 -0.8587 -3.0276
18351TIP3   OH276543   5.984   3.067   1.734 -0.3578 -0.2454 -0.0387
18351TIP3    H176544   5.938   3.149   1.719  1.4343  0.7607 -0.2401
18351TIP3    H276545   5.996   3.062   1.828  0.5994  0.3359 -0.1258
18352TIP3   OH276546   0.109   4.542   6.493 -0.0287 -0.3619 -0.3277
18352TIP3    H176547   0.098   4.562   6.399 -1.1468 -3.2988 -0.8702
18352TIP3    H276548   0.020   4.526   6.524  0.4006  0.0635  1.1251
18353TIP3   OH276549   6.001   0.127   3.400 -0.3384 -0.3901 -0.2008
18353TIP3    H176550   5.943   0.096   3.470 -0.2491 -1.4837 -0.6026
18353TIP3    H276551   5.942   0.157   3.332 -0.4418 -0.7585 -0.2781
18354TIP3   OH276552   0.071   2.139   6.415  0.1028  0.2691  0.2850
18354TIP3    H176553   0.094   2.067   6.473  0.0396 -1.3613 -1.6910
18354TIP3    H276554   0.013   2.101   6.349 -0.3452  2.2182 -0.4990
18355TIP3   OH276555   6.111   1.772  12.497 -0.0848 -0.1030 -0.0319
18355TIP3    H176556   6.150   1.715  12.563  0.1541  1.4878  1.2090
18355TIP3    H276557   6.146   1.859  12.516 -1.9788  0.8208 -0.6747
18356TIP3   OH276558   3.086   2.492   0.203 -0.2950 -0.0440  0.2735
18356TIP3    H176559   3.019   2.514   0.138  0.0625 -0.3476 -0.1984
18356TIP3    H276560   3.168   2.497   0.155 -0.0105 -0.0514  0.7602
18357TIP3   OH276561   5.578   6.663  13.980  0.3401  0.1115 -0.1333
18357TIP3    H176562   5.494   6.697  13.948  0.0252  1.0145  1.6096
18357TIP3    H276563   5.603   6.724  14.049  2.2585 -0.3675 -0.3891
18358TIP3   OH276564   0.676   5.716   4.258 -0.1929 -0.1811  0.0845
18358TIP3    H176565   0.759   5.707   4.304  1.8196  2.5693 -2.8848
18358TIP3    H276566   0.648   5.806   4.276 -0.5490  0.1593 -2.1060
18359TIP3   OH276567   4.000   0.533   1.075  0.1107  0.0896  0.2786
18359TIP3    H176568   3.927   0.487   1.116 -0.3875 -0.1895 -0.8845
18359TIP3    H276569   4.075   0.476   1.088 -0.2244 -0.4049  0.0544
18360TIP3   OH276570   3.001   6.371   0.116  0.6420  0.1347 -0.1082
18360TIP3    H176571   3.010   6.321   0.197  0.1718  1.6098  0.8938
18360TIP3    H276572   2.984   6.461   0.146 -1.1188  0.4217 -1.8396
18361TIP3   OH276573   3.565   5.491  15.810  0.5943  0.1029 -0.0294
18361TIP3    H176574   3.545   5.582  15.792 -0.2868  0.0844  0.8148
18361TIP3    H276575   3.575   5.451  15.723  2.1808  1.2389 -0.3895
18362TIP3   OH276576   4.150   2.505  16.575 -0.2089  0.4848 -0.2511
18362TIP3    H176577   4.112   2.509  16.487  0.4411  1.7540 -0.4886
18362TIP3    H276578   4.136   2.593  16.612  2.9192  1.2095 -0.5692
18363TIP3   OH276579   1.250   4.034   4.752  0.0701  0.7603  0.3635
18363TIP3    H176580   1.306   3.957   4.748  0.2174  0.8578  0.5553
18363TIP3    H276581   1.167   4.002   4.787 -0.6919  0.2082 -1.8655
18364TIP3   OH276582   4.531   3.996   6.471  0.2048 -0.5009  0.0869
18364TIP3    H176583   4.563   3.908   6.490  0.3966 -0.3869  0.3082
18364TIP3    H276584   4.510   4.032   6.557 -0.2613 -0.4759 -0.0376
18365TIP3   OH276585   0.819   4.270   1.486  0.3469  0.5170 -0.2356
18365TIP3    H176586   0.863   4.343   1.442  0.0420  1.2381  0.6261
18365TIP3    H276587   0.769   4.312   1.557  0.6891 -0.5931  0.6743
18366TIP3   OH276588   1.782   2.396  12.468 -0.1219 -0.3386  0.5260
18366TIP3    H176589   1.719   2.436  12.407  1.6875  0.6559 -0.7340
18366TIP3    H276590   1.732   2.385  12.549 -2.0825 -0.0948 -0.5963
18367TIP3   OH276591   6.540   5.503  12.852  0.6403  0.1886  0.0014
18367TIP3    H176592   6.508   5.571  12.793 -0.9852 -1.4439 -1.0659
18367TIP3    H276593   6.557   5.428  12.795 -0.0588 -1.1190  1.4681
18368TIP3   OH276594   2.832   1.956  16.668  0.1190 -0.2256 -0.0071
18368TIP3    H176595   2.763   1.962  16.602 -1.7212  0.1287  1.8864
18368TIP3    H276596   2.838   1.863  16.688 -0.2628 -0.1936  0.2698
18369TIP3   OH276597   4.514   2.159   5.912 -1.1495  0.0537 -0.0753
18369TIP3    H176598   4.427   2.144   5.950 -0.7613  1.7327  1.4903
18369TIP3    H276599   4.570   2.094   5.954 -1.2627  0.1834  0.2740
18370TIP3   OH276600   4.123   0.404   4.544 -0.3454 -0.3217 -0.6769
18370TIP3    H176601   4.065   0.477   4.563 -1.2435 -0.6874 -1.9248
18370TIP3    H276602   4.071   0.346   4.488  0.9933 -0.9901 -1.2571
18371TIP3   OH276603   6.361   0.748  12.712  0.4883 -0.1522 -0.1648
18371TIP3    H176604   6.362   0.675  12.649 -0.6859 -0.4758  0.1799
18371TIP3    H276605   6.271   0.752  12.743  0.1426  2.4973 -1.3811
18372TIP3   OH276606   6.619   1.945  15.310  0.5437 -0.2871  0.3538
18372TIP3    H176607   6.637   1.924  15.218  1.3306  1.7732  0.0323
18372TIP3    H276608   6.529   1.914  15.324  0.7995 -1.5980 -0.7847
18373TIP3   OH276609   1.878   4.762  12.100  0.1859  0.0231  0.4193
18373TIP3    H176610   1.851   4.676  12.066  2.1211  0.5400 -2.6674
18373TIP3    H276611   1.916   4.742  12.186  2.4359 -2.5963 -1.0566
18374TIP3   OH276612   6.236   5.317  16.787 -0.5448 -0.4413 -0.0014
18374TIP3    H176613   6.297   5.333  16.859  0.5139  0.2188 -1.0415
18374TIP3    H276614   6.279   5.252  16.732 -1.2597 -0.7892 -0.1627
18375TIP3   OH276615   6.448   3.544  13.835 -0.9237 -0.4368 -0.2567
18375TIP3    H176616   6.444   3.503  13.748  1.4649 -2.4235  0.5062
18375TIP3    H276617   6.513   3.613  13.826 -2.3379  0.8613 -0.6146
18376TIP3   OH276618   1.720   2.217  12.188  0.5320 -0.2752 -0.2409
18376TIP3    H176619   1.702   2.307  12.215  1.3943 -0.3565  0.6614
18376TIP3    H276620   1.635   2.173  12.190  0.5252 -0.2565  2.3633
18377TIP3   OH276621   6.484   6.657   0.317 -0.1763 -0.1071  0.1267
18377TIP3    H176622   6.482   6.694   0.406  2.6535  0.3127  0.0611
18377TIP3    H276623   6.468   6.564   0.330  1.1355 -0.1981  1.1877
18378TIP3   OH276624   6.492   0.663  11.588  0.2260 -0.3722  0.0032
18378TIP3    H176625   6.565   0.660  11.526  1.3464 -1.2333  1.3365
18378TIP3    H276626   6.523   0.718  11.660 -2.0362  2.8679 -1.3286
18379TIP3   OH276627   2.488   4.660   4.561 -0.2408 -0.0197 -0.0894
18379TIP3    H176628   2.543   4.720   4.510 -0.9331 -0.4502 -1.3606
18379TIP3    H276629   2.473   4.586   4.502  1.4980 -1.9873  1.8172
18380TIP3   OH276630   2.847   4.852  12.562 -0.2978 -0.3612 -0.3680
18380TIP3    H176631   2.922   4.901  12.529  0.8984 -2.1639 -0.4286
18380TIP3    H276632   2.802   4.821  12.483 -2.1160  2.1468 -0.3550
18381TIP3   OH276633   1.118   3.832   1.764  0.1563  0.3542  0.0537
18381TIP3    H176634   1.076   3.875   1.690 -2.2355 -3.0834 -0.7351
18381TIP3    H276635   1.188   3.891   1.791 -1.2288  3.3332 -2.6519
18382TIP3   OH276636   1.885   1.887   1.559 -0.4089  0.1955 -0.0038
18382TIP3    H176637   1.971   1.926   1.544 -0.2403 -0.9309 -2.1248
18382TIP3    H276638   1.831   1.960   1.592  1.3078  0.9205  1.3025
18383TIP3   OH276639   3.927   1.895   6.293  0.2428 -0.4074 -0.2125
18383TIP3    H176640   3.864   1.868   6.226  0.1113  1.1994 -0.7607
18383TIP3    H276641   3.877   1.953   6.350  0.9766  0.1423 -0.1216
18384TIP3   OH276642   5.420   2.315  14.000 -0.2197  0.2511  0.5968
18384TIP3    H176643   5.471   2.241  14.033  1.8174  1.8101  1.0603
18384TIP3    H276644   5.472   2.392  14.023 -2.1770  1.8221 -0.0939
18385TIP3   OH276645   4.549   2.311  16.806 -0.6094 -0.4839  0.0388
18385TIP3    H176646   4.629   2.261  16.815 -0.5039 -0.1307  1.1151
18385TIP3    H276647   4.553   2.346  16.717  0.8791  0.2894  0.3917
18386TIP3   OH276648   6.502   6.189  12.481 -0.0290  0.4280 -0.6488
18386TIP3    H176649   6.496   6.135  12.402 -2.7602  1.8842 -1.5134
18386TIP3    H276650   6.500   6.279  12.449  1.0160  1.0540  0.9708
18387TIP3   OH276651   0.179   2.956   4.336 -0.2288 -0.0549 -0.1980
18387TIP3    H176652   0.260   3.000   4.309  0.4784 -0.3438  1.4093
18387TIP3    H276653   0.162   2.893   4.266  0.5887  0.4338 -0.8487
18388TIP3   OH276654   0.174   0.812  15.200  0.2047  0.4359  0.0750
18388TIP3    H176655   0.252   0.835  15.251  1.0631  0.0614 -1.0802
18388TIP3    H276656   0.161   0.719  15.217 -0.5552  0.6952  1.0095
18389TIP3   OH276657   6.327   1.163  15.671 -0.3754  0.2246  0.2641
18389TIP3    H176658   6.401   1.109  15.697  1.7643  3.0601  0.2726
18389TIP3    H276659   6.325   1.156  15.575 -2.4504 -2.7558  0.4509
18390TIP3   OH276660   5.314   6.457  16.962 -0.3600 -0.2635  0.3305
18390TIP3    H176661   5.279   6.446  17.051 -1.3122 -2.5202 -0.2937
18390TIP3    H276662   5.341   6.370  16.935  1.7820  0.7319 -0.8771
18391TIP3   OH276663   3.260   2.662   3.812  0.0604 -0.4881  0.1435
18391TIP3    H176664   3.183   2.719   3.811  0.3071 -0.1667 -1.5488
18391TIP3    H276665   3.332   2.719   3.839  0.0567 -0.3327 -0.1791
18392TIP3   OH276666   0.562   6.465   3.300  0.4750 -0.0885  0.0994
18392TIP3    H176667   0.615   6.442   3.377  0.7371 -1.0945 -0.3841
18392TIP3    H276668   0.476   6.488   3.336  1.1419  1.3165  0.8689
18393TIP3   OH276669   3.835   3.262   3.275  0.1014 -0.5492  0.0394
18393TIP3    H176670   3.792   3.303   3.200  1.3399 -1.5354 -1.2341
18393TIP3    H276671   3.767   3.206   3.313 -0.2690 -0.7315 -0.8781
18394TIP3   OH276672   6.041   3.015   4.735  0.0051 -0.1612  0.0164
18394TIP3    H176673   6.022   3.061   4.654 -0.4238  2.7599  1.7193
18394TIP3    H276674   5.991   2.933   4.728 -0.6172  0.3829 -2.3273
18395TIP3   OH276675   3.952   2.485   5.033  0.0696 -0.2221  0.1767
18395TIP3    H176676   3.997   2.489   5.117 -0.6375 -0.3201  0.5642
18395TIP3    H276677   3.896   2.407   5.040 -1.7389  1.0813  0.5016
18396TIP3   OH276678   2.027   2.418  15.612  0.7657  0.8586 -0.4016
18396TIP3    H176679   1.982   2.344  15.569 -0.1853  0.4734  1.2168
18396TIP3    H276680   2.007   2.493  15.556  0.5591  0.1494 -1.3023
18397TIP3   OH276681   5.888   0.245  13.058  0.1985 -0.6603 -0.3665
18397TIP3    H176682   5.977   0.215  13.077  0.6911 -0.4178 -2.1335
18397TIP3    H276683   5.859   0.189  12.986 -0.2906  0.6034 -1.1752
18398TIP3   OH276684   3.052   4.929  15.208  0.3841 -0.2310 -0.2608
18398TIP3    H176685   2.960   4.902  15.213  0.3460 -0.2907 -1.2828
18398TIP3    H276686   3.053   5.017  15.245 -0.2369  0.1271 -1.0925
18399TIP3   OH276687   3.334   1.579   5.801 -0.2606  0.1516  0.4541
18399TIP3    H176688   3.243   1.606   5.793  0.1619  1.2534 -0.9361
18399TIP3    H276689   3.350   1.573   5.896 -1.8027 -0.2136  0.6923
18400TIP3   OH276690   1.582   3.603   5.827 -0.2272  0.5779  0.5052
18400TIP3    H176691   1.530   3.672   5.868 -1.4764  0.8947 -1.5417
18400TIP3    H276692   1.520   3.556   5.772  1.3082 -0.0944 -0.6698
18401TIP3   OH276693   5.686   2.995   2.226  0.2633 -0.4784  0.0781
18401TIP3    H176694   5.761   3.017   2.281  1.3477 -1.2997 -1.0481
18401TIP3    H276695   5.637   2.930   2.278 -0.1211  0.6367  1.1497
18402TIP3   OH276696   5.439   5.415  14.283 -0.5202 -0.3349 -0.3822
18402TIP3    H176697   5.440   5.429  14.378 -3.4153 -0.1603 -0.3357
18402TIP3    H276698   5.453   5.321  14.272 -0.6982 -0.4392  0.2527
18403TIP3   OH276699   3.718   0.074  13.843 -0.1716 -0.0045 -0.3839
18403TIP3    H176700   3.788   0.019  13.808  1.3495  1.0915  0.8796
18403TIP3    H276701   3.747   0.164  13.827 -0.1270  0.5040  2.2768
18404TIP3   OH276702   4.091   6.481  13.147  0.3175  1.1623 -0.5715
18404TIP3    H176703   4.097   6.430  13.066  0.9561  1.8833 -0.9801
18404TIP3    H276704   4.008   6.528  13.140 -0.9950 -0.9372  0.4688
18405TIP3   OH276705   3.942   0.354   5.686 -0.3048 -0.3544 -0.2224
18405TIP3    H176706   4.014   0.322   5.741  0.1100  1.3734  0.2524
18405TIP3    H276707   3.863   0.332   5.735  0.0543  1.0257  1.0096
18406TIP3   OH276708   6.754   0.857  12.977  0.7027  0.2658  0.1842
18406TIP3    H176709   6.662   0.837  12.993  0.3485  0.6836 -1.2748
18406TIP3    H276710   6.758   0.952  12.979  0.4401  0.4050 -3.0779
18407TIP3   OH276711   3.763   6.133  12.052  0.0007  0.0655 -0.6957
18407TIP3    H176712   3.749   6.069  11.982  1.3218  0.2573 -1.1451
18407TIP3    H276713   3.843   6.104  12.095 -1.5042 -0.8048  1.5996
18408TIP3   OH276714   6.757   1.936  15.869  0.1818  0.2740  0.4903
18408TIP3    H176715   6.736   1.991  15.794  1.5015 -1.1534 -0.9638
18408TIP3    H276716   6.840   1.971  15.901 -0.1024  0.5265  0.9647
18409TIP3   OH276717   0.412   1.030  12.813  0.4083  0.0159  0.1548
18409TIP3    H176718   0.445   1.097  12.753 -2.0414 -0.1213 -1.4471
18409TIP3    H276719   0.428   1.065  12.900  2.2104  1.1432 -0.6066
18410TIP3   OH276720   4.958   0.827  16.051  0.5319  0.1971 -0.4143
18410TIP3    H176721   4.960   0.800  15.959 -2.0405 -1.0100 -0.1951
18410TIP3    H276722   4.995   0.752  16.099  0.7243  0.3051 -0.3989
18411TIP3   OH276723   0.168   5.241  10.972  0.4596 -0.2442 -0.2573
18411TIP3    H176724   0.215   5.274  10.896  0.2153 -1.6817 -1.0628
18411TIP3    H276725   0.076   5.237  10.945  0.0965  1.0149  0.7578
18412TIP3   OH276726   5.381   0.156  12.004  0.3429  0.1147 -0.1236
18412TIP3    H176727   5.383   0.204  12.086 -0.8837 -0.5192  0.2956
18412TIP3    H276728   5.468   0.117  11.996  0.6111  0.5484  0.6423
18413TIP3   OH276729   2.279   4.223  13.869  0.2515 -0.0822  0.3915
18413TIP3    H176730   2.361   4.208  13.822 -0.6588 -0.5979 -1.0493
18413TIP3    H276731   2.248   4.308  13.837 -0.9847 -0.9937 -0.8714
18414TIP3   OH276732   4.724   2.649  12.633 -0.3593 -0.1869  0.1057
18414TIP3    H176733   4.650   2.697  12.671  0.1485  0.0290  0.8192
18414TIP3    H276734   4.802   2.692  12.668  0.1095 -1.5922  0.8432
18415TIP3   OH276735   3.946   1.452  17.160  0.2474 -0.8718 -0.5187
18415TIP3    H176736   3.856   1.480  17.177  0.4474  0.7094 -2.0021
18415TIP3    H276737   4.000   1.522  17.196  0.8504 -1.1550 -0.8692
18416TIP3   OH276738   0.471   3.751  15.658 -0.2341  0.0696  0.2214
18416TIP3    H176739   0.545   3.811  15.646 -0.4589  0.1221 -0.9711
18416TIP3    H276740   0.397   3.809  15.675 -0.3574  0.1075 -0.4420
18417TIP3   OH276741   6.491   4.118  14.659 -0.0225 -0.7602 -0.1017
18417TIP3    H176742   6.520   4.108  14.568 -1.3637 -0.6846 -0.5570
18417TIP3    H276743   6.456   4.032  14.683  0.9162 -0.9588  0.5589
18418TIP3   OH276744   2.375   0.733  16.759 -0.1936 -0.3698  0.0250
18418TIP3    H176745   2.282   0.736  16.736 -0.0330  1.2037 -0.4870
18418TIP3    H276746   2.396   0.823  16.784  1.1843 -0.7363  0.2028
18419TIP3   OH276747   3.169   0.841   2.712 -0.1379 -0.2859 -0.2200
18419TIP3    H176748   3.181   0.911   2.777 -1.2764 -0.3172  0.0285
18419TIP3    H276749   3.093   0.868   2.661 -0.0859 -0.9497 -0.6561
18420TIP3   OH276750   3.790   0.917  14.612 -0.0281 -0.4330 -0.6179
18420TIP3    H176751   3.738   0.879  14.683  1.2307  1.1273  1.2187
18420TIP3    H276752   3.849   0.847  14.585  1.2972 -0.3126  1.7574
18421TIP3   OH276753   4.990   5.620  15.712 -0.2960 -0.0278  0.1852
18421TIP3    H176754   5.002   5.533  15.676 -1.0054 -0.2505  0.4773
18421TIP3    H276755   5.078   5.651  15.732 -0.1574 -1.4236  1.8287
18422TIP3   OH276756   5.497   6.003  12.924 -0.0400 -0.3105  0.2154
18422TIP3    H176757   5.436   6.020  12.995  0.7810  0.9444  0.6259
18422TIP3    H276758   5.477   6.069  12.858  0.3629 -0.3668  0.0320
18423TIP3   OH276759   5.856   1.864  14.852 -0.6480  0.3062 -0.3349
18423TIP3    H176760   5.858   1.812  14.772 -0.0756 -0.2739  0.0474
18423TIP3    H276761   5.937   1.839  14.898 -1.2858  0.1535  0.7159
18424TIP3   OH276762   2.096   0.830   5.945 -0.9337 -0.1132  0.6817
18424TIP3    H176763   2.103   0.785   5.861  0.1300  0.0870  0.6588
18424TIP3    H276764   2.079   0.759   6.008 -0.3350 -0.4294  0.4953
18425TIP3   OH276765   0.812   4.936   3.682  0.7361  0.2671 -1.0662
18425TIP3    H176766   0.721   4.963   3.669 -0.0550 -1.4851  0.6077
18425TIP3    H276767   0.816   4.849   3.644  1.2800 -0.2963  0.2406
18426TIP3   OH276768   4.301   0.670   3.074 -0.5987 -0.1427 -0.1656
18426TIP3    H176769   4.396   0.658   3.067 -0.5167  0.9657 -1.0813
18426TIP3    H276770   4.273   0.604   3.138  0.7143 -0.7994 -0.2537
18427TIP3   OH276771   5.212   6.251   1.594 -0.7203 -0.3861 -0.4328
18427TIP3    H176772   5.251   6.217   1.512  1.5471  1.1866 -0.0493
18427TIP3    H276773   5.245   6.192   1.662  1.8466  1.4809  0.0129
18428TIP3   OH276774   4.753   0.950   4.748 -0.1798  0.1979 -0.0346
18428TIP3    H176775   4.841   0.939   4.782 -0.5802 -0.6106  0.7674
18428TIP3    H276776   4.764   0.999   4.666  1.1670 -1.5189 -0.8975
18429TIP3   OH276777   6.166   2.586   4.096 -0.4638 -0.2303  0.5013
18429TIP3    H176778   6.254   2.568   4.130  0.0169  0.0221 -0.5894
18429TIP3    H276779   6.145   2.508   4.045  0.5342  1.1227 -2.0463
18430TIP3   OH276780   6.626   5.073  16.968 -0.4912  0.6231 -0.0126
18430TIP3    H176781   6.699   5.131  16.948 -0.0748  0.4349  0.9130
18430TIP3    H276782   6.630   5.062  17.063 -1.0525 -0.2797 -0.0884
18431TIP3   OH276783   0.006   4.960   1.718 -0.6744  0.1884  1.0310
18431TIP3    H176784  -0.036   5.007   1.790 -0.4518  0.2537  1.1195
18431TIP3    H276785   0.039   5.029   1.661 -0.3820  0.1410  1.1409
18432TIP3   OH276786   5.632   5.391  12.042 -0.4526 -0.5117 -0.0208
18432TIP3    H176787   5.633   5.455  12.113  0.9930 -0.9141  0.3391
18432TIP3    H276788   5.571   5.323  12.072 -1.8583  0.5866 -0.3309
18433TIP3   OH276789   0.542   3.605  11.231 -0.5785  0.7966 -0.3293
18433TIP3    H176790   0.456   3.626  11.269 -0.4389  0.0594  0.4013
18433TIP3    H276791   0.549   3.510  11.239  0.9331  1.0035  0.9522
18434TIP3   OH276792   4.645   6.086   5.013  0.1952 -0.6144 -0.1815
18434TIP3    H176793   4.618   6.002   5.049  1.1089 -0.9266 -0.2150
18434TIP3    H276794   4.741   6.083   5.014  0.2442  0.6370  0.3330
18435TIP3   OH276795   1.009   2.411  13.081  0.9615 -0.7833  0.0234
18435TIP3    H176796   1.036   2.501  13.064  2.6806 -1.2734 -0.0202
18435TIP3    H276797   0.949   2.389  13.010  0.7914  0.2186 -0.1478
18436TIP3   OH276798   5.626   4.594  11.170 -0.2739 -0.4090  0.6557
18436TIP3    H176799   5.540   4.634  11.156 -0.2200 -0.0467  1.3301
18436TIP3    H276800   5.619   4.507  11.131 -0.7321 -0.1345  0.1113
18437TIP3   OH276801   6.000   1.522   4.411 -0.8187 -0.2823  0.1045
18437TIP3    H176802   6.067   1.454   4.403  0.5053  1.0278 -0.1160
18437TIP3    H276803   5.993   1.538   4.506  0.5707  0.9227  0.0167
18438TIP3   OH276804   2.345   3.747  12.115 -0.2462  0.0072 -0.1098
18438TIP3    H176805   2.423   3.713  12.070  1.6756  1.9310  1.6756
18438TIP3    H276806   2.338   3.694  12.194 -0.5152  0.1397 -0.0449
18439TIP3   OH276807   6.405   2.986   0.724  0.4089  0.1177 -0.4064
18439TIP3    H176808   6.386   3.079   0.709  2.1520  0.5731  0.1157
18439TIP3    H276809   6.360   2.965   0.806 -0.4897  0.3345 -0.8374
18440TIP3   OH276810   3.718   6.129  11.655  0.2618 -0.1040  0.6460
18440TIP3    H176811   3.701   6.194  11.586  3.1092  0.5100  0.4591
18440TIP3    H276812   3.648   6.065  11.645 -1.1053  1.5569 -0.8628
18441TIP3   OH276813   0.274   2.641   2.220 -0.1605  0.7498  0.3148
18441TIP3    H176814   0.352   2.692   2.243 -0.3404  0.4551  1.5924
18441TIP3    H276815   0.305   2.550   2.218 -0.7048  0.5180  1.9190
18442TIP3   OH276816   2.457   5.033  13.949 -0.6285 -0.4763 -0.5489
18442TIP3    H176817   2.378   5.084  13.930 -0.8146 -0.5790 -0.0711
18442TIP3    H276818   2.524   5.098  13.970 -0.3169 -0.3485 -1.9366
18443TIP3   OH276819   0.289   6.597   5.390 -0.3987 -0.4709  0.5282
18443TIP3    H176820   0.252   6.632   5.309 -0.0165 -1.1228  0.0715
18443TIP3    H276821   0.348   6.527   5.362  1.6783  0.9624  1.2111
18444TIP3   OH276822   4.246   0.742  12.951 -0.5230 -0.6358 -0.2875
18444TIP3    H176823   4.181   0.730  13.021 -2.0087  0.0874 -1.5056
18444TIP3    H276824   4.318   0.788  12.992 -1.5149  0.0541  0.7093
18445TIP3   OH276825   5.867   2.123   2.298  0.0072 -0.0670 -0.2759
18445TIP3    H176826   5.805   2.167   2.356  0.7112 -0.2925  0.6634
18445TIP3    H276827   5.853   2.164   2.212 -1.7399 -0.4355 -0.1763
18446TIP3   OH276828   4.898   0.451   0.895  0.0252 -0.0744  0.3747
18446TIP3    H176829   4.887   0.544   0.874  0.5776  0.0191  0.4954
18446TIP3    H276830   4.988   0.431   0.869 -0.0572 -0.5466  0.4547
18447TIP3   OH276831   2.752   6.314   0.885  0.1116  0.1969  0.1141
18447TIP3    H176832   2.805   6.239   0.912 -0.1778  1.2194  3.8811
18447TIP3    H276833   2.663   6.280   0.879  0.0741  0.0641  1.2439
18448TIP3   OH276834   5.375   0.972   5.960 -0.6152  0.4427 -0.0275
18448TIP3    H176835   5.325   0.907   6.010  0.6355 -1.7841 -1.6067
18448TIP3    H276836   5.466   0.957   5.985 -0.1173  0.2169 -1.9142
18449TIP3   OH276837   4.379   6.489  13.128  0.2082 -0.3692  0.0219
18449TIP3    H176838   4.289   6.521  13.130  0.6075  0.6772  2.0203
18449TIP3    H276839   4.390   6.441  13.209  0.9412 -2.0269 -1.0256
18450TIP3   OH276840   5.179   5.960   5.522 -0.2887 -0.2972  0.1571
18450TIP3    H176841   5.181   6.047   5.561 -0.6142 -0.3224  0.2287
18450TIP3    H276842   5.124   5.909   5.580 -0.8047 -0.3215 -0.3548
18451TIP3   OH276843   5.704   4.885   4.978 -0.5242  0.0528 -0.3613
18451TIP3    H176844   5.734   4.832   4.904  0.1899  1.0163 -0.7625
18451TIP3    H276845   5.613   4.858   4.990 -0.7370  0.0775 -1.7687
18452TIP3   OH276846   1.714   4.068  12.440  0.0868 -0.0986 -0.0829
18452TIP3    H176847   1.777   4.088  12.510 -0.9328  0.8072  0.5821
18452TIP3    H276848   1.748   4.114  12.364  1.5622 -1.6241 -0.3794
18453TIP3   OH276849   2.496   0.139   4.487 -0.5279 -0.2473  0.7603
18453TIP3    H176850   2.583   0.156   4.450 -1.1755 -2.7125 -2.0125
18453TIP3    H276851   2.442   0.210   4.454 -0.1925 -0.2185  0.2701
18454TIP3   OH276852   1.024   5.178  12.636 -0.0572 -0.8274  0.3283
18454TIP3    H176853   1.052   5.086  12.637  0.6150 -0.6255  0.3830
18454TIP3    H276854   1.010   5.198  12.543  0.1440 -0.8796  0.2863
18455TIP3   OH276855   6.743   6.451   3.418 -0.2574  0.2382 -0.0292
18455TIP3    H176856   6.789   6.511   3.476 -0.5944  0.1922  0.2884
18455TIP3    H276857   6.810   6.389   3.390 -0.0929  0.2601  0.3074
18456TIP3   OH276858   5.625   3.766   0.398 -0.0959  0.4456 -0.4391
18456TIP3    H176859   5.542   3.719   0.404 -0.3871  1.1449  1.2487
18456TIP3    H276860   5.608   3.850   0.441  1.5645  0.4864  0.1684
18457TIP3   OH276861   2.168   1.820   4.026 -0.0512  0.2276  0.5034
18457TIP3    H176862   2.158   1.763   4.102 -0.1170 -0.6656 -0.1657
18457TIP3    H276863   2.234   1.777   3.973 -1.1243  0.0309 -0.6945
18458TIP3   OH276864   2.053   4.513   6.118 -0.7653 -0.1107 -0.1811
18458TIP3    H176865   2.050   4.607   6.135 -1.4391 -0.0843 -0.4161
18458TIP3    H276866   1.963   4.491   6.091 -0.2509 -0.5366 -1.5936
18459TIP3   OH276867   6.060   3.206  10.300  0.0837 -0.5846  0.3359
18459TIP3    H176868   6.140   3.208  10.248 -0.6418  0.4554 -0.7883
18459TIP3    H276869   5.997   3.256  10.248 -1.7620 -2.7467  0.4447
18460TIP3   OH276870   4.875   4.701  15.302  0.4534  0.3952  0.3164
18460TIP3    H176871   4.910   4.759  15.370  1.4612 -0.6488  0.7043
18460TIP3    H276872   4.786   4.680  15.332  0.4303  0.9819  0.6572
18461TIP3   OH276873   5.698   3.630   1.916 -0.1542  0.0822 -0.6637
18461TIP3    H176874   5.665   3.712   1.880 -0.7976  0.9852  1.9261
18461TIP3    H276875   5.793   3.641   1.918 -0.2609  0.9365  0.0576
18462TIP3   OH276876   5.284   6.304   4.022  0.3955 -0.0663 -0.4112
18462TIP3    H176877   5.307   6.397   4.026  0.9640 -0.1934 -0.6622
18462TIP3    H276878   5.347   6.261   4.079 -0.1193 -0.2503  0.0150
18463TIP3   OH276879   4.083   3.417   3.256 -0.0658  0.0176 -0.5852
18463TIP3    H176880   4.018   3.348   3.268  0.5799 -0.8747 -2.0944
18463TIP3    H276881   4.103   3.447   3.344 -0.5577 -1.5311  0.0718
18464TIP3   OH276882   5.503   5.356  13.218  0.3503 -0.2476 -0.5931
18464TIP3    H176883   5.434   5.422  13.209  1.3409  0.6418 -1.9662
18464TIP3    H276884   5.505   5.311  13.134  2.3733  0.7166 -1.1112
18465TIP3   OH276885   5.446   5.858   6.217  0.3483  0.2346  0.8838
18465TIP3    H176886   5.473   5.820   6.134 -0.7134  2.0333 -0.3155
18465TIP3    H276887   5.411   5.785   6.267 -0.7770 -0.5340 -1.0051
18466TIP3   OH276888   3.340   1.431   6.389 -0.5651  0.5884 -0.1327
18466TIP3    H176889   3.425   1.386   6.384 -2.1582 -2.2272 -3.5062
18466TIP3    H276890   3.306   1.408   6.475 -0.5367 -3.3194 -1.0801
18467TIP3   OH276891   4.763   6.083   4.039 -0.6675 -0.0231 -0.5723
18467TIP3    H176892   4.680   6.049   4.006 -1.9670  1.7797  0.7440
18467TIP3    H276893   4.760   6.177   4.019  0.3111  0.3631  0.9807
18468TIP3   OH276894   2.395   6.628   3.810  0.1514  0.3061  0.0605
18468TIP3    H176895   2.382   6.541   3.774 -0.7252  0.0188  1.0577
18468TIP3    H276896   2.440   6.613   3.894 -1.4366  0.6804  1.0113
18469TIP3   OH276897   1.374   6.659   3.556 -0.0711 -0.0930  0.0140
18469TIP3    H176898   1.385   6.750   3.528  1.0315  0.1565  1.1892
18469TIP3    H276899   1.356   6.610   3.475  0.2672  1.0200 -0.7412
18470TIP3   OH276900   5.462   1.011   5.537 -0.0300 -0.2551  0.0718
18470TIP3    H176901   5.483   1.105   5.534 -0.2247 -0.2374 -0.9685
18470TIP3    H276902   5.369   1.006   5.515 -0.0049 -0.6978  0.0561
18471TIP3   OH276903   0.577   1.501   0.984 -0.3965 -0.0624  0.7129
18471TIP3    H176904   0.589   1.572   1.046  1.9209  0.7134 -0.5804
18471TIP3    H276905   0.605   1.422   1.031  0.0083  0.3204  1.1077
18472TIP3   OH276906   3.331   0.399   2.331  0.5100  0.6516 -0.5701
18472TIP3    H176907   3.390   0.474   2.342  2.4521 -1.0228  0.6884
18472TIP3    H276908   3.388   0.326   2.306 -0.9663 -1.0986  0.9939
18473TIP3   OH276909   2.768   0.028   3.472  0.3474 -0.2154  0.4151
18473TIP3    H176910   2.746  -0.021   3.393  1.7043 -0.2938  0.0867
18473TIP3    H276911   2.853  -0.007   3.500  0.4988  0.7315  1.1619
18474TIP3   OH276912   1.633   6.520  17.090  0.0995  0.1073 -0.5497
18474TIP3    H176913   1.586   6.528  17.173 -0.8845 -1.2550 -0.9707
18474TIP3    H276914   1.724   6.541  17.113  0.0306 -1.2146  1.0815
18475TIP3   OH276915   0.377   3.805   1.172 -0.3955 -0.3725  0.1406
18475TIP3    H176916   0.293   3.760   1.173 -0.3530 -0.4448  0.3910
18475TIP3    H276917   0.379   3.855   1.254 -1.6009  2.1955 -1.3453
18476TIP3   OH276918   6.206   0.238   3.253  0.3855  0.1262  0.0165
18476TIP3    H176919   6.143   0.228   3.324 -0.5625  0.4368 -0.7596
18476TIP3    H276920   6.152   0.236   3.173  1.5107 -0.9582 -0.7218
18477TIP3   OH276921   0.264   4.529  13.038 -0.0334  0.4367 -0.1823
18477TIP3    H176922   0.220   4.592  12.980  0.7081  1.3997  0.2765
18477TIP3    H276923   0.270   4.449  12.986  0.1199  1.1186 -1.2363
18478TIP3   OH276924   5.696   1.581  11.214  0.6099  0.3653  0.1610
18478TIP3    H176925   5.726   1.492  11.234  1.4694 -0.0024 -2.6344
18478TIP3    H276926   5.603   1.570  11.193  0.7241  0.1392 -0.2224
18479TIP3   OH276927   1.268   0.755  16.149 -0.0516  0.0030 -0.3548
18479TIP3    H176928   1.351   0.783  16.110  0.1553 -0.0157  0.0584
18479TIP3    H276929   1.253   0.667  16.114  0.1080  0.0040 -0.4258
18480TIP3   OH276930   3.427   2.479  11.394 -0.0770 -0.2474 -0.3818
18480TIP3    H176931   3.403   2.387  11.408  0.0402 -0.4342 -1.3290
18480TIP3    H276932   3.519   2.484  11.422  0.3750 -0.7788 -1.7294
18481TIP3   OH276933   4.410   1.478  15.642  0.5358 -0.4223  0.2271
18481TIP3    H176934   4.446   1.548  15.587  0.0858 -1.0193 -0.8551
18481TIP3    H276935   4.487   1.428  15.671  0.9591  1.2189  1.9996
18482TIP3   OH276936   2.296   4.849   4.398  0.1833 -0.2111 -0.0039
18482TIP3    H176937   2.283   4.791   4.322 -0.1159  0.6160 -0.5934
18482TIP3    H276938   2.390   4.868   4.398  0.3344 -0.9384  0.3751
18483TIP3   OH276939   2.007   4.249   5.930 -0.5742 -0.1876  0.2329
18483TIP3    H176940   1.999   4.344   5.929 -0.5908 -0.1885 -0.2944
18483TIP3    H276941   1.920   4.217   5.908 -0.7376 -0.3430  1.0897
18484TIP3   OH276942   4.778   2.951   5.150 -0.3196 -0.3956 -0.0319
18484TIP3    H176943   4.831   2.993   5.082 -0.9437  0.3786 -0.0533
18484TIP3    H276944   4.819   2.976   5.232 -0.0039 -0.7081 -0.0957
18485TIP3   OH276945   6.332   5.696  14.029  0.3743  0.6558  0.1936
18485TIP3    H176946   6.340   5.688  14.124 -0.7347  0.5952  0.2837
18485TIP3    H276947   6.265   5.632  14.004  0.9979  0.3319 -0.6834
18486TIP3   OH276948   0.153   0.946  11.511 -0.5882 -0.4782  1.1454
18486TIP3    H176949   0.152   1.014  11.578  1.0321  0.3232  0.3667
18486TIP3    H276950   0.202   0.983  11.438 -0.5301 -2.1085  0.3107
18487TIP3   OH276951   0.478   0.861  15.130  0.1221  0.1297 -0.0521
18487TIP3    H176952   0.450   0.798  15.065 -0.9780  0.2452  0.3002
18487TIP3    H276953   0.444   0.827  15.213  0.3853  0.6556  0.2736
18488TIP3   OH276954   1.189   4.294   0.704  0.5076  0.1353 -0.3803
18488TIP3    H176955   1.125   4.260   0.642 -1.2569  0.0646  1.4184
18488TIP3    H276956   1.183   4.235   0.779 -1.8948  3.6937  2.4107
18489TIP3   OH276957   4.225   2.442   0.819 -0.2730  0.6359  0.0442
18489TIP3    H176958   4.254   2.529   0.844  1.3942  0.1371 -0.0619
18489TIP3    H276959   4.146   2.427   0.869 -0.0304  1.8336  0.7902
18490TIP3   OH276960   2.052   4.646   3.687  0.0798 -0.5420 -0.9143
18490TIP3    H176961   1.994   4.572   3.670  0.9159 -1.5660  0.6384
18490TIP3    H276962   2.137   4.619   3.654  0.0281  0.3798 -1.8348
18491TIP3   OH276963   4.240   1.326  11.173  0.0643  0.1018  0.8597
18491TIP3    H176964   4.157   1.300  11.135 -0.0391  0.3731  0.9066
18491TIP3    H276965   4.305   1.308  11.105 -0.1287  0.6554  0.5291
18492TIP3   OH276966   3.111   0.621   0.591  0.2251  0.1417 -1.0108
18492TIP3    H176967   3.035   0.607   0.648 -0.5188 -0.2821 -2.0686
18492TIP3    H276968   3.187   0.607   0.647 -0.4885 -2.0918 -0.5294
18493TIP3   OH276969   6.062   4.691  15.002 -0.1462 -0.4311  0.7519
18493TIP3    H176970   6.128   4.759  15.013 -2.2046  1.2663  3.0356
18493TIP3    H276971   6.073   4.634  15.078 -0.1938 -1.1251  0.2436
18494TIP3   OH276972   3.024   1.603   2.381  0.5958 -0.2588  0.1028
18494TIP3    H176973   2.976   1.572   2.305 -0.5222  1.2236  0.1856
18494TIP3    H276974   2.979   1.564   2.456 -2.9276  4.0358  0.4339
18495TIP3   OH276975   2.104   0.034   6.171  0.6863 -0.1959 -0.0488
18495TIP3    H176976   2.166   0.046   6.243  0.7887 -2.2214  0.2173
18495TIP3    H276977   2.018   0.044   6.211  0.7931  1.1139 -0.1285
18496TIP3   OH276978   5.761   0.153   0.535  0.1477  0.3229 -0.0353
18496TIP3    H176979   5.853   0.172   0.554  0.1539  1.7168 -1.3908
18496TIP3    H276980   5.715   0.177   0.615  0.8168  0.8680  0.1908
18497TIP3   OH276981   3.939   4.191   3.503  0.5276 -0.0288  0.0443
18497TIP3    H176982   3.955   4.114   3.558  2.1798 -1.4108 -2.2743
18497TIP3    H276983   4.026   4.222   3.480 -0.1427  1.6284 -0.3412
18498TIP3   OH276984   2.570   1.243   3.436  0.2139 -0.4196  0.7758
18498TIP3    H176985   2.614   1.320   3.473 -0.5017  0.1916  0.3596
18498TIP3    H276986   2.609   1.169   3.482  1.3647  0.1498  0.7262
18499TIP3   OH276987   2.995   2.068  16.376  0.0274  0.1579 -0.5921
18499TIP3    H176988   3.010   2.091  16.468  0.9997 -0.6235 -0.5425
18499TIP3    H276989   3.052   2.127  16.328 -0.2111  0.3257 -0.6635
18500TIP3   OH276990   6.249   2.492   2.501  0.5408 -0.1972 -0.0697
18500TIP3    H176991   6.337   2.529   2.488  0.7160 -1.4954 -2.7806
18500TIP3    H276992   6.214   2.480   2.413 -1.6218 -1.4717  0.9240
18501TIP3   OH276993   3.121   4.724  17.158 -0.1713 -0.0993 -0.0766
18501TIP3    H176994   3.187   4.655  17.154  0.9304  0.9708 -0.8628
18501TIP3    H276995   3.129   4.770  17.075 -1.4143  0.5058  0.1244
18502TIP3   OH276996   4.258   4.003  11.778  0.7777  0.0206  0.2426
18502TIP3    H176997   4.312   3.971  11.851 -1.4028 -0.2591  1.7867
18502TIP3    H276998   4.198   4.066  11.820 -0.3757 -0.0018 -1.3666
18503TIP3   OH276999   6.735   6.047  11.837 -0.3269  0.0132  0.7059
18503TIP3    H177000   6.737   5.964  11.886 -0.9685  0.1803  1.0307
18503TIP3    H277001   6.642   6.070  11.834 -0.2154  0.3768  0.0288
18504TIP3   OH277002   6.176   1.779  13.901  0.1041 -0.5850 -0.4028
18504TIP3    H177003   6.267   1.802  13.918 -0.5295  0.6027  1.4665
18504TIP3    H277004   6.168   1.784  13.806  1.2733  2.0912 -0.3979
18505TIP3   OH277005   3.589   3.899   0.656 -0.2026  0.5911  0.5189
18505TIP3    H177006   3.541   3.981   0.665 -0.1750  0.4296  2.1736
18505TIP3    H277007   3.653   3.917   0.586 -0.0450  2.0448  1.0183
18506TIP3   OH277008   2.267   4.569   3.558  0.0019 -0.3150 -0.6586
18506TIP3    H177009   2.320   4.489   3.559 -1.6130 -1.4826 -3.0616
18506TIP3    H277010   2.205   4.556   3.486 -1.2449  2.5070 -0.1751
18507TIP3   OH277011   5.782   0.334   3.156  0.4971 -0.2788  0.0233
18507TIP3    H177012   5.732   0.259   3.188 -1.1208 -0.0430 -1.8268
18507TIP3    H277013   5.730   0.410   3.181  0.1807  0.0003 -1.4346
18508TIP3   OH277014   4.461   5.420  14.784 -0.2317 -0.2218  0.8259
18508TIP3    H177015   4.477   5.459  14.697  1.5868  0.5745  1.4901
18508TIP3    H277016   4.389   5.471  14.820  0.2642  0.7012  0.5356
18509TIP3   OH277017   5.753   1.086   3.076 -0.0383  0.2936 -0.1401
18509TIP3    H177018   5.838   1.048   3.101 -0.2791  1.4714  2.6370
18509TIP3    H277019   5.768   1.180   3.075 -1.2774  0.5079  0.3296
18510TIP3   OH277020   3.962   3.898  14.264  0.1697 -0.3738 -0.6521
18510TIP3    H177021   4.050   3.915  14.231 -0.4466 -1.2527 -2.8874
18510TIP3    H277022   3.976   3.862  14.352  1.9668  0.6450 -0.4922
18511TIP3   OH277023   6.060   5.967  15.044  0.6916 -0.1402 -0.2561
18511TIP3    H177024   6.074   6.058  15.021 -0.0489 -0.7419 -3.3392
18511TIP3    H277025   5.988   5.968  15.107 -0.2218  1.3430 -1.2864
18512TIP3   OH277026   5.424   2.831  15.937  0.3688 -0.3497  0.0028
18512TIP3    H177027   5.477   2.760  15.975  0.4321  0.5183  1.5659
18512TIP3    H277028   5.392   2.880  16.013  1.5430  2.1774 -1.0924
18513TIP3   OH277029   6.291   1.172   4.234 -0.0553  0.1429  0.5968
18513TIP3    H177030   6.202   1.199   4.213  0.0218 -1.0052 -1.3717
18513TIP3    H277031   6.280   1.092   4.286 -0.1748 -0.1268  0.1582
18514TIP3   OH277032   0.522   2.329   2.934 -0.5772 -0.0521 -0.5075
18514TIP3    H177033   0.442   2.337   2.882 -0.6873 -1.6506 -0.6200
18514TIP3    H277034   0.591   2.312   2.870 -0.3605  0.1192 -0.3184
18515TIP3   OH277035   2.470   5.141  15.287  0.3832 -0.1728 -0.7282
18515TIP3    H177036   2.383   5.109  15.263  1.2632 -2.0919 -1.4090
18515TIP3    H277037   2.452   5.214  15.347 -1.6825 -2.7174  1.8880
18516TIP3   OH277038   4.025   1.226  16.727 -0.1017 -0.1321 -0.4056
18516TIP3    H177039   4.018   1.315  16.693 -0.7332 -0.7354 -1.8603
18516TIP3    H277040   4.049   1.238  16.819  1.7642  1.5050 -1.0592
18517TIP3   OH277041   2.816   1.521  12.122 -0.1083 -0.3131 -0.0333
18517TIP3    H177042   2.737   1.528  12.068  0.8899  1.7238 -1.3038
18517TIP3    H277043   2.827   1.427  12.136 -1.3261 -0.7858 -1.9872
18518TIP3   OH277044   0.110   2.453   3.968 -0.0896  0.3034  0.4750
18518TIP3    H177045   0.128   2.361   3.984  0.8717  0.2656 -0.7483
18518TIP3    H277046   0.101   2.491   4.056  4.3404 -0.0398  1.1973
18519TIP3   OH277047   5.828   3.305   3.838 -0.2244  0.3371 -0.3161
18519TIP3    H177048   5.900   3.314   3.776  1.1302  0.4533  1.2615
18519TIP3    H277049   5.784   3.390   3.835 -0.7610  0.0275 -1.8133
18520TIP3   OH277050   1.970   1.289  16.170 -0.5819  0.5137  0.3565
18520TIP3    H177051   1.968   1.372  16.217  0.7311  1.1348 -0.6413
18520TIP3    H277052   1.981   1.314  16.078  1.9203 -0.8034  0.2460
18521TIP3   OH277053   0.797   4.651  11.705 -0.1283 -0.2344  0.6795
18521TIP3    H177054   0.870   4.597  11.738  0.0278 -0.3057  0.2211
18521TIP3    H277055   0.719   4.610  11.741  0.0289 -0.4299  0.8014
18522TIP3   OH277056   5.236   6.681  15.130 -0.3355  0.3679 -0.2588
18522TIP3    H177057   5.321   6.655  15.164 -0.4503  0.0299 -0.2281
18522TIP3    H277058   5.179   6.605  15.145 -0.0517 -0.3025 -2.3951
18523TIP3   OH277059   2.998   2.329   3.263 -0.2535  0.8643  0.0170
18523TIP3    H177060   2.937   2.305   3.332  0.3743  2.1153  1.0372
18523TIP3    H277061   2.983   2.423   3.249 -0.6389  0.5466 -1.8163
18524TIP3   OH277062   5.946   5.921  15.912  0.1872  0.2590  0.3482
18524TIP3    H177063   5.950   6.003  15.863  0.5394 -0.0083 -0.0745
18524TIP3    H277064   5.880   5.937  15.980 -0.6676  0.4691 -0.5128
18525TIP3   OH277065   2.072   5.415  14.027  0.4312  0.3501 -0.2340
18525TIP3    H177066   2.144   5.470  13.997  0.2661 -0.0685 -1.4402
18525TIP3    H277067   2.063   5.435  14.120  2.2463  0.2401 -0.0270
18526TIP3   OH277068   5.076   0.952   5.947  0.1398  0.0918 -0.0107
18526TIP3    H177069   5.149   0.960   5.885  0.5691 -1.7813  0.2210
18526TIP3    H277070   5.118   0.941   6.033 -0.4053 -0.8681  0.1433
18527TIP3   OH277071   5.328   3.908   5.610  0.7454 -0.0121 -0.1258
18527TIP3    H177072   5.415   3.944   5.627  0.9911 -0.8462  0.3844
18527TIP3    H277073   5.344   3.817   5.584  0.3064  0.7872 -3.4990
18528TIP3   OH277074   3.197   2.473  15.181  0.1019  0.2191 -0.2246
18528TIP3    H177075   3.225   2.384  15.201 -1.9022 -0.4554 -0.3143
18528TIP3    H277076   3.102   2.471  15.189 -0.0011  2.2838 -0.5323
18529TIP3   OH277077   1.255   0.207  12.025 -0.0157 -0.0497  0.4676
18529TIP3    H177078   1.318   0.278  12.042 -1.7193  1.6528 -0.1650
18529TIP3    H277079   1.176   0.233  12.072 -0.4029 -1.9650  0.9169
18530TIP3   OH277080   1.670   4.387   0.064 -0.3362  0.3145  0.1951
18530TIP3    H177081   1.722   4.333   0.006 -3.6783 -3.3818  0.3981
18530TIP3    H277082   1.635   4.456   0.008  1.9075  0.7921 -0.6547
18531TIP3   OH277083   5.637   0.215  17.176  0.1724 -0.3129 -0.3586
18531TIP3    H177084   5.675   0.167  17.103 -0.8453  0.2251 -1.2662
18531TIP3    H277085   5.556   0.168  17.197 -0.4600  0.5630 -0.7798
18532TIP3   OH277086   0.460   6.108  14.767  0.4955  0.5223  0.0027
18532TIP3    H177087   0.401   6.135  14.837 -1.4869 -1.1382 -0.9868
18532TIP3    H277088   0.407   6.113  14.687  1.6481 -1.0684 -0.8927
18533TIP3   OH277089   4.064   5.520   4.523 -0.2801  0.6187 -0.0319
18533TIP3    H177090   4.052   5.456   4.593  0.5484  1.8218  1.2345
18533TIP3    H277091   4.096   5.469   4.449 -2.8629 -0.9558 -0.1439
18534TIP3   OH277092   3.565   2.929   5.046 -0.1628 -0.7381  0.0542
18534TIP3    H177093   3.544   2.837   5.028 -0.1086 -0.1235 -3.5133
18534TIP3    H277094   3.480   2.973   5.048 -0.0193 -0.4133 -1.0329
18535TIP3   OH277095   5.773   1.318  11.232  0.0088  0.4249 -0.4906
18535TIP3    H177096   5.726   1.261  11.293 -0.5564  1.2792 -0.1325
18535TIP3    H277097   5.803   1.258  11.163  2.0348 -0.8409  1.4060
18536TIP3   OH277098   4.938   0.624  15.753 -0.4896  0.0166 -0.9410
18536TIP3    H177099   4.852   0.665  15.763 -0.1185  1.0995 -2.1187
18536TIP3    H277100   4.933   0.576  15.671 -0.9551 -2.4505  0.4666
18537TIP3   OH277101   4.187   3.582   4.866 -0.3423 -0.5202  0.3025
18537TIP3    H177102   4.186   3.497   4.822  1.7462 -1.2212  1.5436
18537TIP3    H277103   4.276   3.590   4.900 -0.8433  1.6863  1.1311
18538TIP3   OH277104   3.653   5.080   4.787 -0.4907 -0.5587  0.6997
18538TIP3    H177105   3.599   5.012   4.748 -0.6411 -0.1062  0.1166
18538TIP3    H277106   3.679   5.044   4.873  2.2464 -2.7852 -0.9535
18539TIP3   OH277107   2.274   6.481   4.188 -0.1066  0.0838 -0.2314
18539TIP3    H177108   2.208   6.503   4.122 -0.6531  0.2386  0.3672
18539TIP3    H277109   2.358   6.496   4.143 -0.4727  0.7204 -0.7217
18540TIP3   OH277110   2.722   5.894   1.585 -0.4932  0.2064  0.0191
18540TIP3    H177111   2.798   5.935   1.543 -0.3135  1.4512  1.5261
18540TIP3    H277112   2.739   5.800   1.576  0.1502  0.4562 -1.5668
18541TIP3   OH277113   6.255   5.522  12.478  0.3496  0.1040 -0.1603
18541TIP3    H177114   6.292   5.515  12.390  0.0005 -0.4901 -0.2645
18541TIP3    H277115   6.175   5.574  12.466  0.2793 -0.0143 -0.1974
18542TIP3   OH277116   4.843   2.481  10.955  0.5123  0.3816  0.1074
18542TIP3    H177117   4.810   2.513  11.039  1.5178  1.4934  0.0969
18542TIP3    H277118   4.820   2.550  10.892 -0.0087 -0.3269 -0.4962
18543TIP3   OH277119   5.137   5.922  16.679 -0.2292 -0.2452  0.4667
18543TIP3    H177120   5.138   5.961  16.592 -0.2055 -1.8027 -0.2538
18543TIP3    H277121   5.222   5.877  16.686 -1.3812 -2.4967  0.1793
18544TIP3   OH277122   1.069   1.482   3.008 -0.8607  0.3113 -0.0133
18544TIP3    H177123   1.126   1.551   3.042  0.6329  0.6859 -3.0428
18544TIP3    H277124   1.086   1.406   3.063  0.3431  1.2721  0.9677
18545TIP3   OH277125   5.397   4.371  15.283  0.0045 -0.0079 -0.2742
18545TIP3    H177126   5.395   4.424  15.363  0.8797 -0.8525  0.3159
18545TIP3    H277127   5.392   4.435  15.212  1.9485  0.9408  0.4176
18546TIP3   OH277128   2.866   0.695   5.444 -0.0492  0.2888  0.3261
18546TIP3    H177129   2.866   0.761   5.374  0.3828  0.7911  0.7952
18546TIP3    H277130   2.908   0.739   5.518  1.9434 -1.1305  0.0750
18547TIP3   OH277131   3.083   0.179  13.881 -0.4267 -0.0463 -0.5772
18547TIP3    H177132   3.110   0.207  13.794 -0.8688 -2.4574 -1.5134
18547TIP3    H277133   3.091   0.258  13.935  0.3408  1.3405 -2.6695
18548TIP3   OH277134   0.064   0.042  13.455  0.0812 -0.0025 -0.7363
18548TIP3    H177135   0.029   0.107  13.516 -1.8138 -0.4048 -1.3658
18548TIP3    H277136  -0.013  -0.009  13.428  1.5497 -2.6648 -0.0485
18549TIP3   OH277137   3.656   4.231  12.616  0.1704  0.0260 -0.4195
18549TIP3    H177138   3.563   4.253  12.621 -0.2305 -1.5200 -0.6594
18549TIP3    H277139   3.684   4.223  12.707 -0.4578 -1.5170 -0.3403
18550TIP3   OH277140   3.883   5.616   4.877 -0.0222  0.0089 -0.0826
18550TIP3    H177141   3.870   5.554   4.805  0.6851 -1.2082  0.8193
18550TIP3    H277142   3.976   5.637   4.874 -0.2052  0.8220 -0.2067
18551TIP3   OH277143   1.379   1.444   3.148  0.1670  0.1409 -0.6234
18551TIP3    H177144   1.410   1.470   3.061  4.2028 -1.3334  0.2353
18551TIP3    H277145   1.401   1.518   3.205 -0.9496  0.4313 -0.5685
18552TIP3   OH277146   1.145   2.083  15.140 -0.2197  0.1227 -0.0392
18552TIP3    H177147   1.195   2.048  15.067 -0.2482 -1.2875  0.5927
18552TIP3    H277148   1.089   2.010  15.168 -0.7031  0.8570  0.9404
18553TIP3   OH277149   0.542   0.719  13.100  0.6007 -0.0702 -0.0212
18553TIP3    H177150   0.608   0.650  13.088 -0.3324 -0.9179 -0.3841
18553TIP3    H277151   0.527   0.721  13.195  0.7955 -0.2279  0.0133
18554TIP3   OH277152   5.345   6.180  12.021 -1.1879  0.1595 -0.0797
18554TIP3    H177153   5.359   6.086  12.025  0.2452  0.4359  2.7460
18554TIP3    H277154   5.433   6.217  12.031 -1.4352  1.7939 -3.4502
18555TIP3   OH277155   4.167   3.628  13.024  0.0986  0.0311 -0.2062
18555TIP3    H177156   4.171   3.537  13.054  1.2706  0.2228  0.2150
18555TIP3    H277157   4.088   3.663  13.065 -1.2886 -1.2708 -1.7064
18556TIP3   OH277158   0.793   2.749   5.403  0.0666 -0.3600  0.0413
18556TIP3    H177159   0.714   2.710   5.440 -1.3710  2.1382 -0.3224
18556TIP3    H277160   0.804   2.831   5.450  3.8626 -1.7944  1.8006
18557TIP3   OH277161   6.304   6.413  15.242  0.0242  0.0040  0.2200
18557TIP3    H177162   6.342   6.328  15.221  0.9846  0.2798  0.8229
18557TIP3    H277163   6.228   6.393  15.297  0.5657 -0.4349  0.8124
18558TIP3   OH277164   6.556   2.741   0.834 -0.3112  0.1709 -0.0724
18558TIP3    H177165   6.563   2.670   0.770  2.6665  0.1184  0.2122
18558TIP3    H277166   6.531   2.817   0.782 -0.1511 -0.3663 -0.9512
18559TIP3   OH277167   2.409   3.866  11.360 -0.5077  0.1762  0.6651
18559TIP3    H177168   2.425   3.780  11.320 -2.3194  0.4370 -0.7100
18559TIP3    H277169   2.335   3.851  11.418 -0.0636  0.5498  1.3240
18560TIP3   OH277170   4.390   3.002  12.123 -0.5122 -0.1793  0.1931
18560TIP3    H177171   4.444   2.984  12.046 -1.0234 -0.1230 -0.1788
18560TIP3    H277172   4.435   2.957  12.195  1.3066  1.7616  0.3308
18561TIP3   OH277173   1.278   1.731  14.777  0.1316  0.2144 -0.3348
18561TIP3    H177174   1.203   1.675  14.761 -1.1333  0.7647  3.1698
18561TIP3    H277175   1.344   1.673  14.816  0.2783  0.3760 -0.3426
18562TIP3   OH277176   5.081   5.553  15.208  0.0691  0.1078 -0.6294
18562TIP3    H177177   5.158   5.506  15.241 -0.9356 -0.1882  1.3434
18562TIP3    H277178   5.096   5.644  15.233 -1.4899 -0.3847  2.2221
18563TIP3   OH277179   5.898   1.893  16.599 -0.1618  0.4567  0.0833
18563TIP3    H177180   5.946   1.918  16.521 -0.5821  0.2446 -0.2437
18563TIP3    H277181   5.910   1.798  16.606  1.8177  0.7739  1.5762
18564TIP3   OH277182   5.516   5.530  10.513 -0.5172  0.3316 -0.1653
18564TIP3    H177183   5.563   5.601  10.556  1.8610 -1.4798  0.3591
18564TIP3    H277184   5.435   5.520  10.564 -0.1498  1.6237  0.6938
18565TIP3   OH277185   1.266   5.875  15.487  0.3151 -0.1352 -0.4616
18565TIP3    H177186   1.359   5.866  15.465  0.3741 -0.4182 -0.0994
18565TIP3    H277187   1.237   5.785  15.505  0.1308  0.0287  0.0655
18566TIP3   OH277188   4.273   4.611  16.071 -0.2173 -0.2822  0.3621
18566TIP3    H177189   4.194   4.663  16.058 -1.5499 -2.1773  0.6332
18566TIP3    H277190   4.297   4.627  16.163 -0.2989  0.2834  0.2858
18567TIP3   OH277191   4.469   6.494   3.400 -0.1836  0.1021 -0.2162
18567TIP3    H177192   4.519   6.435   3.344 -2.6494 -1.0679 -1.2962
18567TIP3    H277193   4.424   6.552   3.339  1.0993  2.2086  0.7904
18568TIP3   OH277194   6.580   6.620  14.647  0.4544 -0.1753 -0.3017
18568TIP3    H177195   6.653   6.637  14.706  1.4278 -1.0479 -1.2378
18568TIP3    H277196   6.562   6.527  14.658 -0.5434  0.0385 -0.0632
18569TIP3   OH277197   2.290   1.889   0.501  0.1589  0.1665 -0.0272
18569TIP3    H177198   2.338   1.971   0.515  0.0883  0.8717 -3.5283
18569TIP3    H277199   2.357   1.821   0.499  0.1426 -0.0814  3.8187
18570TIP3   OH277200   2.439   2.348  14.977  0.0563  0.6322  0.5631
18570TIP3    H177201   2.439   2.283  14.906 -0.3446  1.6753 -0.4064
18570TIP3    H277202   2.375   2.314  15.039 -0.9212  0.6232 -0.4331
18571TIP3   OH277203   6.215   3.088  15.559 -0.8161  0.2394 -0.6621
18571TIP3    H177204   6.238   3.123  15.645  0.0461  0.2881 -0.9110
18571TIP3    H277205   6.120   3.103  15.552 -0.6835  1.3045 -0.2158
18572TIP3   OH277206   4.576   4.685  17.064  0.3117  0.7532  0.2269
18572TIP3    H177207   4.529   4.721  16.989  0.6609  0.8902  0.0698
18572TIP3    H277208   4.526   4.714  17.140  0.7845  1.8810  0.1193
18573TIP3   OH277209   6.677   0.494  10.929 -0.4283 -0.4840 -0.1798
18573TIP3    H177210   6.627   0.412  10.929  0.8578 -1.2891 -0.6670
18573TIP3    H277211   6.625   0.554  10.877 -0.9819 -1.2565 -0.5331
18574TIP3   OH277212   3.019   1.664  12.028  0.0122 -0.0928 -0.1200
18574TIP3    H177213   2.938   1.635  12.070  0.0088  0.5112  0.3058
18574TIP3    H277214   3.089   1.631  12.085  0.0006  0.9045  0.4889
18575TIP3   OH277215   1.504   3.382  13.180  0.0379  0.3183 -0.0869
18575TIP3    H177216   1.522   3.313  13.244 -0.0285  1.2276  0.9421
18575TIP3    H277217   1.584   3.389  13.129 -0.2309 -1.0496 -0.7191
18576TIP3   OH277218   4.443   1.330   0.890  0.3266 -0.4750 -0.0717
18576TIP3    H177219   4.402   1.374   0.815 -1.6937 -1.6463  0.3015
18576TIP3    H277220   4.474   1.247   0.854  1.0433 -0.2292 -0.0201
18577TIP3   OH277221   4.907   5.489   3.366  0.5415  0.3574 -0.4485
18577TIP3    H177222   4.926   5.421   3.430 -1.8355  0.1256  0.0324
18577TIP3    H277223   4.987   5.541   3.362  0.8922  0.1035  2.3543
18578TIP3   OH277224   5.509   1.236  12.993  0.0517 -0.5304  0.3695
18578TIP3    H177225   5.604   1.246  12.983  0.0189  0.9007  1.2116
18578TIP3    H277226   5.472   1.276  12.914  0.1704 -2.0289 -0.4536
18579TIP3   OH277227   1.755   6.253   3.719  0.0725 -0.0591  0.0379
18579TIP3    H177228   1.664   6.240   3.691 -0.5484  4.2837 -0.3790
18579TIP3    H277229   1.750   6.265   3.814 -0.5025  4.4376 -0.4426
18580TIP3   OH277230   2.743   2.615   2.698 -0.0121 -1.1005  0.0645
18580TIP3    H177231   2.815   2.578   2.749 -1.0603 -1.1228  1.5598
18580TIP3    H277232   2.675   2.548   2.698 -0.5156 -0.6040 -0.2857
18581TIP3   OH277233   2.923   1.903  15.375 -0.1086  0.3372  0.2347
18581TIP3    H177234   2.893   1.988  15.344  0.8741  0.2076 -1.1174
18581TIP3    H277235   3.019   1.906  15.367  0.3464  0.7921  4.5619
18582TIP3   OH277236   2.077   4.450   4.914  0.2995  0.1822  0.1814
18582TIP3    H177237   2.099   4.543   4.912 -0.0739  0.2823  0.5367
18582TIP3    H277238   2.137   4.410   4.851  0.5418  0.6451  0.1104
18583TIP3   OH277239   3.540   2.140   5.695  0.5666 -0.2393 -0.1670
18583TIP3    H177240   3.622   2.188   5.676 -1.1014  2.1268 -1.6663
18583TIP3    H277241   3.528   2.082   5.620 -0.0370  0.7154 -0.8184
18584TIP3   OH277242   2.231   3.567   2.482  0.9493 -0.3782 -0.2559
18584TIP3    H177243   2.270   3.489   2.443  1.9656  0.5000 -1.0153
18584TIP3    H277244   2.290   3.589   2.554  2.0294  1.1039 -1.5658
18585TIP3   OH277245   4.034   3.911  13.387 -0.0250  0.3801  0.7527
18585TIP3    H177246   3.951   3.919  13.433  0.5361 -0.3749  1.9266
18585TIP3    H277247   4.010   3.907  13.294 -1.1921  1.4613  1.0030
18586TIP3   OH277248   1.790   2.823  12.187  0.5165 -0.0107  0.1230
18586TIP3    H177249   1.876   2.858  12.164 -0.6438  1.1067 -2.6955
18586TIP3    H277250   1.768   2.765  12.114 -0.2593 -1.9191  1.8225
18587TIP3   OH277251   3.552   0.618   4.483  0.0822  0.6224 -0.2549
18587TIP3    H177252   3.628   0.667   4.452 -0.5426  1.6104 -0.2264
18587TIP3    H277253   3.477   0.664   4.446 -0.5373  0.0958  0.3450
18588TIP3   OH277254   6.272   0.755   0.716 -0.0597  0.0115  0.1988
18588TIP3    H177255   6.337   0.825   0.716  0.1471 -0.1633  2.0474
18588TIP3    H277256   6.270   0.725   0.625  1.1014  1.2498 -0.2575
18589TIP3   OH277257   2.115   3.399  16.330 -0.5354  0.3196  0.6995
18589TIP3    H177258   2.158   3.329  16.379 -0.7140  0.3651  0.9222
18589TIP3    H277259   2.184   3.435  16.273 -0.5856 -0.4095  0.1750
18590TIP3   OH277260   1.893   1.954  12.272  0.0544 -0.1992  0.3371
18590TIP3    H177261   1.843   1.943  12.353 -0.6937  1.7246  0.1719
18590TIP3    H277262   1.910   2.049  12.268  1.5999 -0.5138 -0.8663
18591TIP3   OH277263   3.386   0.888   1.410 -0.2548  0.7117 -0.0600
18591TIP3    H177264   3.419   0.871   1.499  1.0042 -1.3503 -0.8827
18591TIP3    H277265   3.455   0.939   1.368 -0.5537  1.1111 -0.0651
18592TIP3   OH277266   4.378   5.920   0.737 -0.7312 -0.5975  0.3254
18592TIP3    H177267   4.456   5.892   0.689 -0.6007 -1.1986  0.8865
18592TIP3    H277268   4.384   5.875   0.821 -1.8106 -0.8319  0.2800
18593TIP3   OH277269   4.037   6.482   3.439 -0.1701  0.3689 -0.1608
18593TIP3    H177270   4.071   6.408   3.489 -0.3431  1.4486  1.5714
18593TIP3    H277271   3.942   6.479   3.453 -0.4769 -0.5995 -2.2084
18594TIP3   OH277272   5.265   1.569   6.225 -0.3780 -0.6450 -0.2902
18594TIP3    H177273   5.195   1.583   6.290 -0.1678 -0.3606 -0.1277
18594TIP3    H277274   5.346   1.589   6.272 -0.4773  4.2392 -1.9500
18595TIP3   OH277275   5.203   6.512   2.460  0.0272  0.1771 -0.0474
18595TIP3    H177276   5.153   6.452   2.516  0.7876 -0.9776 -0.5860
18595TIP3    H277277   5.253   6.454   2.403 -1.0716  1.3226 -2.2403
18596TIP3   OH277278   5.378   4.257  13.629 -0.1257 -0.7781  0.2841
18596TIP3    H177279   5.387   4.164  13.652 -0.4997 -0.7852  0.4067
18596TIP3    H277280   5.366   4.301  13.713  0.1613 -0.6029  0.2349
18597TIP3   OH277281   1.960   5.901  15.669  0.8372 -0.3063  0.6500
18597TIP3    H177282   2.021   5.889  15.597  1.6685 -0.0069  1.2994
18597TIP3    H277283   1.999   5.970  15.722  0.5216 -0.9186  1.6926
18598TIP3   OH277284   4.846   5.951  14.140  0.2135  0.1524  0.4796
18598TIP3    H177285   4.795   6.032  14.141 -0.3785 -0.1814 -1.0542
18598TIP3    H277286   4.938   5.980  14.138  0.0785  0.7576  2.5075
18599TIP3   OH277287   4.811   3.425   4.231 -0.2581 -0.1224  0.5236
18599TIP3    H177288   4.779   3.514   4.244 -0.1328  0.0129 -0.0873
18599TIP3    H277289   4.795   3.407   4.138  0.3019 -0.5040  0.5031
18600TIP3   OH277290   6.011   4.218  13.943 -0.5599 -0.4156  0.4111
18600TIP3    H177291   6.087   4.234  13.888 -0.2563 -0.7966  0.7200
18600TIP3    H277292   5.948   4.286  13.917  0.8004  1.4826  1.8822
18601TIP3   OH277293   5.832   0.340  13.384 -0.0623 -0.1574 -0.0584
18601TIP3    H177294   5.852   0.361  13.475  0.2594  0.4841 -0.2763
18601TIP3    H277295   5.737   0.352  13.377 -0.4936 -2.6844  0.8353
18602TIP3   OH277296   2.860   3.615  11.388  0.2241  0.3532 -0.1119
18602TIP3    H177297   2.897   3.703  11.399  1.1588 -0.0048 -0.2665
18602TIP3    H277298   2.860   3.578  11.476 -2.7287  1.4714  0.3975
18603TIP3   OH277299   2.243   5.419   3.468  0.2823 -0.0585  0.0682
18603TIP3    H177300   2.166   5.364   3.453  0.1402  0.4972 -1.3195
18603TIP3    H277301   2.287   5.379   3.543 -0.1204 -1.7342 -0.5710
18604TIP3   OH277302   4.023   1.076   6.465 -0.5558  0.0640 -0.4311
18604TIP3    H177303   3.956   1.143   6.451 -1.7146 -0.7621  0.9845
18604TIP3    H277304   4.000   1.037   6.550  2.0124  0.0887  0.3058
18605TIP3   OH277305   4.066   5.491   0.956  0.5461 -0.5548 -0.4929
18605TIP3    H177306   4.039   5.404   0.988  1.4696 -0.1141  1.5402
18605TIP3    H277307   4.155   5.503   0.990  0.9644  0.6196 -1.9375
18606TIP3   OH277308   1.393   4.776   3.197 -0.2998  0.0382  0.5600
18606TIP3    H177309   1.448   4.698   3.203 -1.0832 -0.4854  0.9499
18606TIP3    H277310   1.408   4.809   3.109  2.8215  1.5109  1.5276
18607TIP3   OH277311   3.003   3.031  13.131  0.7839 -0.0291  0.1853
18607TIP3    H177312   3.089   3.037  13.172  0.5462 -1.3866  0.9035
18607TIP3    H277313   3.015   2.972  13.057  0.9808  1.6085 -1.1001
18608TIP3   OH277314   3.884   2.827  11.380 -0.0606  0.4419  0.0239
18608TIP3    H177315   3.801   2.795  11.416 -0.2293  0.7168 -0.1225
18608TIP3    H277316   3.859   2.884  11.308  0.3194 -1.1735 -1.4133
18609TIP3   OH277317   4.969   0.213   1.737 -0.0450  0.5149 -0.3999
18609TIP3    H177318   4.877   0.192   1.723 -0.1873  1.5445 -1.0406
18609TIP3    H277319   4.995   0.265   1.661  1.2259 -0.2460 -0.5072
18610TIP3   OH277320   1.094   0.286   3.175 -0.7375 -0.0035  0.1190
18610TIP3    H177321   1.164   0.230   3.208  0.7595  1.0719 -1.1204
18610TIP3    H277322   1.121   0.307   3.086 -2.7056  0.3667 -0.4144
18611TIP3   OH277323   6.217   4.894   5.920  0.0699  0.1038 -0.1665
18611TIP3    H177324   6.201   4.986   5.941  0.6935  0.1285  0.2243
18611TIP3    H277325   6.308   4.879   5.946  0.5045 -0.1690 -1.8116
18612TIP3   OH277326   5.111   3.989  14.704 -0.0344 -0.2683  0.5609
18612TIP3    H177327   5.079   4.072  14.738  1.0984  0.7746 -0.8359
18612TIP3    H277328   5.098   3.995  14.609 -0.0330 -1.7278  0.4535
18613TIP3   OH277329   5.957   2.459  13.487 -0.0567 -0.3191  0.5462
18613TIP3    H177330   5.949   2.366  13.508 -4.3029 -0.3923 -0.7853
18613TIP3    H277331   5.981   2.461  13.395  1.5207 -0.0549  0.9473
18614TIP3   OH277332   3.139   4.671  13.742  0.6977 -0.9359  0.6941
18614TIP3    H177333   3.151   4.652  13.648  0.3693 -1.7044  0.8043
18614TIP3    H277334   3.092   4.754  13.744 -0.7051 -1.6955  0.1443
18615TIP3   OH277335   6.136   6.645  13.949  0.3928 -0.0201 -0.0283
18615TIP3    H177336   6.059   6.701  13.956  1.4737  1.5732 -0.7172
18615TIP3    H277337   6.118   6.572  14.008 -1.1590  0.8970  0.6593
18616TIP3   OH277338   3.689   3.847  11.677 -0.5725  0.3281  0.1866
18616TIP3    H177339   3.601   3.854  11.641  0.1386  2.6291 -1.1420
18616TIP3    H277340   3.718   3.759  11.652 -2.8940 -0.9353  1.6802
18617TIP3   OH277341   4.943   0.504  11.318 -0.1506 -0.1132  0.0439
18617TIP3    H177342   4.957   0.599  11.317  1.3075 -0.2983  0.5188
18617TIP3    H277343   4.862   0.490  11.269 -1.2688  1.5202  1.3622
18618TIP3   OH277344   3.946   3.952  14.687  0.3637  0.6099 -0.1275
18618TIP3    H177345   3.870   4.000  14.720  1.1855  2.0229 -0.2454
18618TIP3    H277346   4.012   3.960  14.756  0.9355  0.7211 -0.6835
18619TIP3   OH277347   2.020   5.178  15.877  0.2582 -0.1642  0.1691
18619TIP3    H177348   1.935   5.223  15.875 -0.0962 -0.8859 -1.2352
18619TIP3    H277349   2.003   5.093  15.838  1.7050 -0.1944 -0.4184
18620TIP3   OH277350   0.297   0.469   0.131  0.6993 -0.0555  0.3046
18620TIP3    H177351   0.215   0.504   0.098 -0.5731 -2.5929  0.6742
18620TIP3    H277352   0.351   0.455   0.053  0.9188  1.8528  0.0870
18621TIP3   OH277353   0.689   2.003  17.187 -0.4622  0.4218  0.1522
18621TIP3    H177354   0.782   2.010  17.166 -0.2648 -0.0890  0.8368
18621TIP3    H277355   0.653   2.088  17.162  0.1484  0.5510 -0.3034
18622TIP3   OH277356   6.701   4.053   0.927 -0.0766  0.3572 -0.0285
18622TIP3    H177357   6.684   4.144   0.901  0.5795  0.2817 -0.7377
18622TIP3    H277358   6.790   4.055   0.962 -0.4377  0.1806  0.9140
18623TIP3   OH277359   2.937   5.329   2.238 -0.1835 -0.4130 -0.0890
18623TIP3    H177360   3.024   5.295   2.260 -0.3119 -0.6740  0.0244
18623TIP3    H277361   2.928   5.409   2.290  0.0864 -0.2553 -0.2875
18624TIP3   OH277362   6.001   0.240   3.040  0.2041  0.8326 -0.8851
18624TIP3    H177363   5.965   0.202   2.960 -2.1181 -1.1228  1.0386
18624TIP3    H277364   5.926   0.275   3.087  1.2664  0.0166  1.4796
18625TIP3   OH277365   6.448   2.720  11.977 -0.0075 -0.4993  0.0959
18625TIP3    H177366   6.372   2.663  11.988  0.8535 -1.8450 -0.7520
18625TIP3    H277367   6.501   2.706  12.055 -0.4273  0.1170  0.4904
18626TIP3   OH277368   0.014   2.884  15.188  0.0481  0.0518 -0.0400
18626TIP3    H177369  -0.064   2.940  15.197 -0.8323 -0.9429 -1.3345
18626TIP3    H277370  -0.017   2.797  15.213  1.3225  0.0512  1.6178
18627TIP3   OH277371   5.151   6.212   0.789  0.5770  0.0978  0.3751
18627TIP3    H177372   5.219   6.250   0.733 -0.4390 -0.5232 -1.2997
18627TIP3    H277373   5.105   6.289   0.825  1.0533  0.4933  0.1521
18628TIP3   OH277374   2.760   6.318   5.887 -0.2238 -0.7469 -0.5581
18628TIP3    H177375   2.685   6.376   5.874 -0.5045 -0.5819  1.5142
18628TIP3    H277376   2.815   6.364   5.951  0.9460 -1.5199 -0.9830
18629TIP3   OH277377   0.405   2.827  12.262  0.0010  0.1319  0.3647
18629TIP3    H177378   0.380   2.802  12.351 -0.3601  2.5810  0.9637
18629TIP3    H277379   0.463   2.902  12.274 -2.0042  2.0390 -1.5616
18630TIP3   OH277380   4.003   5.226  15.564  0.1207 -0.0099  0.1625
18630TIP3    H177381   4.033   5.150  15.613  0.8926  0.2143  0.0472
18630TIP3    H277382   4.011   5.200  15.472  2.7578  1.0616  0.0418
18631TIP3   OH277383   2.316   1.447  13.941 -0.3093 -0.0753  0.2717
18631TIP3    H177384   2.349   1.381  14.002 -0.4402 -0.7739 -0.3948
18631TIP3    H277385   2.284   1.518  13.997 -0.0076 -0.5009  0.9949
18632TIP3   OH277386   4.431   6.702   4.041 -0.4878 -0.1734  0.5216
18632TIP3    H177387   4.351   6.710   4.092 -0.2477  1.2266  0.6873
18632TIP3    H277388   4.501   6.699   4.106 -0.2484  0.7085  0.3028
18633TIP3   OH277389   5.796   2.617  14.221  0.0040 -0.4704 -0.4856
18633TIP3    H177390   5.728   2.607  14.154 -2.2884 -2.2778  2.0144
18633TIP3    H277391   5.831   2.529  14.232 -2.4451 -1.0705  3.4631
18634TIP3   OH277392   0.868   0.569   2.589 -0.3387 -0.3993  0.1487
18634TIP3    H177393   0.919   0.541   2.513 -1.4918  1.3575 -1.3117
18634TIP3    H277394   0.777   0.562   2.561 -0.7188  3.3111  0.2082
18635TIP3   OH277395   1.916   0.430  14.880  0.1842 -0.7561  0.2862
18635TIP3    H177396   1.947   0.501  14.824 -0.1271 -0.8399  0.0115
18635TIP3    H277397   1.932   0.462  14.969  2.3934 -1.3947  0.1353
18636TIP3   OH277398   5.499   2.822   3.420 -0.2398 -0.3963  0.0812
18636TIP3    H177399   5.405   2.802   3.417 -0.3389  0.0385  0.2186
18636TIP3    H277400   5.502   2.917   3.429  0.2183 -0.4043 -0.0156
18637TIP3   OH277401   3.305   1.723  11.378 -0.0083  0.3932 -0.4625
18637TIP3    H177402   3.285   1.734  11.286  0.6477 -1.1476 -0.8112
18637TIP3    H277403   3.331   1.631  11.386 -0.6655  0.3445  1.3662
18638TIP3   OH277404   6.455   5.213  17.187 -0.0978 -0.3912  0.5834
18638TIP3    H177405   6.458   5.285  17.251  2.8832  1.0973 -1.1324
18638TIP3    H277406   6.365   5.215  17.154 -0.6082  1.2780  1.9846
18639TIP3   OH277407   6.321   5.882  13.704 -0.0793  0.3184  0.4366
18639TIP3    H177408   6.257   5.878  13.775 -1.5385 -2.4968 -0.9694
18639TIP3    H277409   6.344   5.791  13.686  1.3872  1.0652 -1.7077
18640TIP3   OH277410   2.876   6.411  13.132  0.0193 -0.2321 -0.1955
18640TIP3    H177411   2.840   6.391  13.219 -0.9035 -1.8787 -0.9294
18640TIP3    H277412   2.819   6.364  13.071  2.0919 -1.0563 -1.5393
18641TIP3   OH277413   3.103   3.454  13.818 -0.0247 -0.1984  0.0245
18641TIP3    H177414   3.092   3.502  13.900  0.6932 -0.0542  0.0367
18641TIP3    H277415   3.157   3.512  13.763  0.3610 -0.7436 -0.1726
18642TIP3   OH277416   1.197   1.005  13.558  0.1936  0.3348 -0.0877
18642TIP3    H177417   1.207   1.091  13.516 -0.9242 -0.2501 -1.5814
18642TIP3    H277418   1.107   0.979  13.539  0.8796 -1.6913 -0.6591
18643TIP3   OH277419   2.548   1.806  14.933  0.1641 -0.8277 -0.3814
18643TIP3    H177420   2.549   1.813  14.837 -1.6049  0.5481 -0.3334
18643TIP3    H277421   2.479   1.742  14.951 -0.8720  0.3785  0.0179
18644TIP3   OH277422   6.081   4.511  14.423  0.1775 -0.2487 -0.3821
18644TIP3    H177423   6.092   4.516  14.328  1.1307 -1.2377 -0.3319
18644TIP3    H277424   6.059   4.600  14.449  1.4532  0.3645 -1.3313
18645TIP3   OH277425   6.545   0.984  13.257 -0.4689 -0.4090  0.5320
18645TIP3    H177426   6.566   1.076  13.272 -3.1823 -0.1555  3.1795
18645TIP3    H277427   6.595   0.937  13.323  0.5380 -0.7995 -0.5049
18646TIP3   OH277428   2.042   0.391  11.073  0.2154 -0.2590 -0.1865
18646TIP3    H177429   2.064   0.448  10.999  0.0316 -2.1170 -1.7187
18646TIP3    H277430   1.947   0.377  11.064  0.1224 -0.1437  0.6544
18647TIP3   OH277431   0.685   5.225   2.827  0.0588  0.4493  0.1961
18647TIP3    H177432   0.742   5.227   2.904  0.6223  1.9366 -0.2493
18647TIP3    H277433   0.744   5.221   2.753 -0.4466  0.7068 -0.2263
18648TIP3   OH277434   5.640   2.044  11.498  0.1433  0.0961 -0.0683
18648TIP3    H177435   5.608   2.050  11.588 -0.4300  0.2941 -0.2858
18648TIP3    H277436   5.728   2.008  11.507  2.1190  4.8268  0.9451
18649TIP3   OH277437   1.998   1.415   1.677 -0.4219 -0.1106  0.7895
18649TIP3    H177438   1.983   1.490   1.620 -0.5302 -1.0719 -0.4595
18649TIP3    H277439   2.084   1.432   1.717 -0.3570  0.5767  0.3626
18650TIP3   OH277440   2.426   2.280   6.113 -0.6416 -0.0586 -0.1966
18650TIP3    H177441   2.466   2.279   6.200  1.0415 -0.2746 -0.9427
18650TIP3    H277442   2.340   2.319   6.126  0.4903  2.0646  1.1809
18651TIP3   OH277443   0.764   6.180  12.484  0.0708  0.3659 -0.0973
18651TIP3    H177444   0.697   6.240  12.451 -0.0172  0.6663  0.6299
18651TIP3    H277445   0.847   6.220  12.459  0.0354  1.2207  1.1070
18652TIP3   OH277446   3.138   4.888  11.261  0.7532  0.1042  0.4350
18652TIP3    H177447   3.120   4.838  11.341  2.6849 -0.2624  0.6636
18652TIP3    H277448   3.051   4.908  11.225 -0.1100 -0.6541  2.0435
18653TIP3   OH277449   3.539   3.786  15.614  0.3197 -0.2576 -0.1321
18653TIP3    H177450   3.590   3.719  15.569  1.6726 -0.4430  1.6160
18653TIP3    H277451   3.603   3.854  15.636 -0.6134  0.5603  0.1201
18654TIP3   OH277452   2.714   2.404   3.693  0.3957 -0.2848  0.5443
18654TIP3    H177453   2.684   2.382   3.781  1.2979 -0.2958  0.8542
18654TIP3    H277454   2.767   2.483   3.704  0.1549 -0.0359 -0.0524
18655TIP3   OH277455   2.829   3.125   2.616 -0.3208  0.5480  0.0134
18655TIP3    H177456   2.843   3.148   2.524  0.1230 -0.5593 -0.2108
18655TIP3    H277457   2.889   3.182   2.664  1.0353 -0.3605 -0.5579
18656TIP3   OH277458   5.757   1.978  12.389 -0.2754 -0.0963  0.6021
18656TIP3    H177459   5.714   1.897  12.415 -0.6723 -0.0291  0.1707
18656TIP3    H277460   5.769   2.026  12.470  0.0507 -0.6334  0.8708
18657TIP3   OH277461   3.917   6.033   2.210 -0.1057  0.3776 -0.4868
18657TIP3    H177462   3.916   6.125   2.183 -0.6125  1.0109  1.6490
18657TIP3    H277463   4.009   6.009   2.206 -0.1245  0.5222 -2.4971
18658TIP3   OH277464   3.464   6.380   3.165 -0.4565 -0.0811 -0.5637
18658TIP3    H177465   3.490   6.334   3.085 -0.2821  0.3350 -0.7494
18658TIP3    H277466   3.397   6.443   3.136  0.3444  0.7902 -0.5684
18659TIP3   OH277467   6.392   6.613  16.811 -0.0410 -0.0289 -0.1949
18659TIP3    H177468   6.343   6.610  16.894 -0.7062  0.4762 -0.5577
18659TIP3    H277469   6.337   6.666  16.754  0.3070 -0.5763 -1.0408
18660TIP3   OH277470   1.413   1.054  14.898 -0.0734  0.0197 -0.8350
18660TIP3    H177471   1.331   1.104  14.901 -0.4592 -0.6695  2.0729
18660TIP3    H277472   1.389   0.968  14.932  1.4474 -0.8316 -1.9019
18661TIP3   OH277473   1.019   0.072  13.261 -0.2848 -0.0906  0.0001
18661TIP3    H177474   1.107   0.105  13.277 -0.9104  1.7181 -0.1585
18661TIP3    H277475   1.022   0.033  13.174 -0.1609  1.8038 -0.8397
18662TIP3   OH277476   6.076   2.441   3.564  0.1425  0.0755  0.3364
18662TIP3    H177477   6.108   2.525   3.530  1.0509  0.5465  2.3076
18662TIP3    H277478   6.034   2.463   3.647  1.5868 -1.5640  1.5437
18663TIP3   OH277479   0.802   0.674   0.289 -0.3076 -0.5688 -0.3313
18663TIP3    H177480   0.739   0.626   0.343 -1.7933  1.5145 -0.1551
18663TIP3    H277481   0.785   0.644   0.200 -0.3446 -1.3142 -0.0771
18664TIP3   OH277482   2.565   2.006   5.860 -0.0570 -0.1408 -0.1560
18664TIP3    H177483   2.600   2.088   5.826 -0.7991 -0.3160 -1.3760
18664TIP3    H277484   2.528   1.962   5.783 -0.1522 -1.3678  0.5773
18665TIP3   OH277485   4.105   0.956  13.387 -0.6168  0.2286 -0.4978
18665TIP3    H177486   4.094   0.968  13.292 -1.0755  1.6698 -0.2746
18665TIP3    H277487   4.149   0.871  13.395  0.8552  0.7918 -2.0850
18666TIP3   OH277488   5.961   4.342   2.159 -0.2909 -0.8997  0.0893
18666TIP3    H177489   5.997   4.420   2.115 -0.4263 -1.0856 -0.3525
18666TIP3    H277490   5.981   4.356   2.251 -0.1633 -0.4170 -0.0070
18667TIP3   OH277491   3.262   2.830   3.339  0.2768 -0.0019  0.5623
18667TIP3    H177492   3.310   2.869   3.412  1.8706 -0.6727 -0.0967
18667TIP3    H277493   3.322   2.837   3.264 -0.1979 -1.8752 -0.0307
18668TIP3   OH277494   1.171   5.597   4.653  0.1078  0.4532  0.1202
18668TIP3    H177495   1.176   5.692   4.644  0.5883  0.2707 -1.8038
18668TIP3    H277496   1.090   5.573   4.609 -0.6935  0.0854  1.7616
18669TIP3   OH277497   6.772   5.752   2.253  0.6724 -0.2954 -0.1782
18669TIP3    H177498   6.700   5.697   2.283 -0.1447  1.0909  0.4636
18669TIP3    H277499   6.821   5.696   2.193 -0.9890 -1.2512 -0.7029
18670TIP3   OH277500   1.630   0.558   1.617 -0.8694  0.2030  0.1880
18670TIP3    H177501   1.693   0.525   1.681 -1.3624 -0.4140  0.3681
18670TIP3    H277502   1.645   0.652   1.614 -0.3892  0.1465  0.7199
18671TIP3   OH277503   6.511   2.455  11.126 -0.0070 -0.3919 -0.0312
18671TIP3    H177504   6.524   2.362  11.146  0.2354 -0.6282 -1.2700
18671TIP3    H277505   6.595   2.484  11.090  0.6949  0.9021  2.4686
18672TIP3   OH277506   6.606   4.621   0.876  0.2437  0.0498  0.1531
18672TIP3    H177507   6.555   4.658   0.948 -1.0977 -3.1768  0.9031
18672TIP3    H277508   6.697   4.627   0.906 -0.0573  1.4233  0.8359
18673TIP3   OH277509   3.141   0.260   2.496  0.1682 -0.6274  0.3668
18673TIP3    H177510   3.165   0.348   2.467  0.6465 -1.2155 -1.0561
18673TIP3    H277511   3.224   0.214   2.504 -0.2007 -1.5295 -0.8138
18674TIP3   OH277512   0.667   1.841   0.794 -0.8055  0.3587  0.5452
18674TIP3    H177513   0.642   1.783   0.865 -0.1156  0.3298  0.7659
18674TIP3    H277514   0.616   1.920   0.809 -1.6680 -0.1435  0.3056
18675TIP3   OH277515   0.707   3.374  13.712  0.0882  0.4967 -0.4072
18675TIP3    H177516   0.614   3.356  13.699 -0.3611  3.1682 -1.1853
18675TIP3    H277517   0.709   3.457  13.758  2.1191  1.2847 -1.8636
18676TIP3   OH277518   6.441   5.399  14.256  0.1848  0.0827 -0.5203
18676TIP3    H177519   6.462   5.306  14.269  0.0081 -0.0354 -1.0726
18676TIP3    H277520   6.466   5.417  14.165 -0.4670  0.3912 -0.6431
18677TIP3   OH277521   2.722   3.325  16.123 -0.6632 -0.1126 -0.3840
18677TIP3    H177522   2.796   3.322  16.184 -1.0215  0.6716  0.0954
18677TIP3    H277523   2.697   3.417  16.119  0.2300  0.0777 -2.7791
18678TIP3   OH277524   0.267   5.521   3.795 -0.5498 -0.5452  0.6683
18678TIP3    H177525   0.270   5.617   3.794 -0.9899 -0.5297  0.0416
18678TIP3    H277526   0.339   5.494   3.739 -0.2466 -0.5836  1.0807
18679TIP3   OH277527   6.359   4.349  14.710  0.0771 -0.4616  0.3129
18679TIP3    H177528   6.409   4.268  14.705  1.6124  0.6077 -3.3589
18679TIP3    H277529   6.288   4.337  14.646  0.9330  1.4388 -1.0379
18680TIP3   OH277530   2.728   1.338  12.853  0.3291 -0.0325  0.5796
18680TIP3    H177531   2.781   1.377  12.923  0.2793  0.4521  0.3502
18680TIP3    H277532   2.646   1.388  12.854  0.0020 -0.5757  0.7261
18681TIP3   OH277533   6.056   3.999   0.925  0.0044  0.2021  0.3022
18681TIP3    H177534   6.132   3.940   0.929  1.5583  2.1677  0.8434
18681TIP3    H277535   6.066   4.046   0.843 -1.2289 -0.2706 -0.1287
18682TIP3   OH277536   4.194   3.832   2.015 -0.7379 -0.1564 -0.6001
18682TIP3    H177537   4.233   3.875   1.939  0.7024 -0.8338 -0.2500
18682TIP3    H277538   4.229   3.878   2.090 -0.8426 -0.5791 -0.2870
18683TIP3   OH277539   5.883   4.373  15.911  0.1027  0.2698 -0.2923
18683TIP3    H177540   5.875   4.364  15.816 -0.6821 -3.0378  0.0265
18683TIP3    H277541   5.793   4.368  15.943  0.6050 -2.0534  0.8374
18684TIP3   OH277542   5.202   3.485  16.798 -0.4269  0.1491 -0.0821
18684TIP3    H177543   5.160   3.455  16.878  0.5356 -0.7318  0.1164
18684TIP3    H277544   5.218   3.404  16.748  0.2749  0.5436 -0.5080
18685TIP3   OH277545   6.283   1.993  12.591  0.4385 -0.3020 -0.2286
18685TIP3    H177546   6.310   2.009  12.500  0.8058  0.0275 -0.0624
18685TIP3    H277547   6.319   2.067  12.640  0.2334 -0.4762  0.1862
18686TIP3   OH277548   2.217   5.348  12.907  0.6274 -0.0985  0.1823
18686TIP3    H177549   2.173   5.317  12.827  0.1518 -2.8030  1.4453
18686TIP3    H277550   2.284   5.409  12.875 -1.1145  0.6916 -2.0972
18687TIP3   OH277551   3.659   4.440   2.356 -0.0965 -0.3337  0.2858
18687TIP3    H177552   3.742   4.435   2.404  0.6901 -0.7936 -1.0855
18687TIP3    H277553   3.603   4.496   2.410  0.9025 -0.5186  1.5254
18688TIP3   OH277554   1.963   2.428  16.888 -1.0266  0.1778  0.2493
18688TIP3    H177555   1.916   2.511  16.902 -0.4286  0.4057  0.9636
18688TIP3    H277556   1.897   2.360  16.903 -1.1926  0.4996  1.0092
18689TIP3   OH277557   4.148   5.411  12.682 -0.6004 -0.7577  0.0489
18689TIP3    H177558   4.082   5.341  12.682 -0.9541 -0.4382 -0.8396
18689TIP3    H277559   4.099   5.488  12.711 -0.1480 -0.9261  1.2883
18690TIP3   OH277560   3.517   2.040  14.062  0.1108  0.5436  0.2636
18690TIP3    H177561   3.610   2.051  14.077  0.1264  0.5519  0.1596
18690TIP3    H277562   3.475   2.082  14.138  0.1369  2.2417 -0.6454
18691TIP3   OH277563   2.727   5.929   2.708  0.4754  0.1127  0.1164
18691TIP3    H177564   2.728   5.857   2.772  1.0656  1.7241  1.9756
18691TIP3    H277565   2.635   5.941   2.688  0.2891 -0.5050  0.5593
18692TIP3   OH277566   5.925   0.371   4.961 -0.0226 -0.2224  0.3032
18692TIP3    H177567   5.856   0.311   4.989  0.8186 -0.9200  0.9060
18692TIP3    H277568   5.995   0.313   4.929  0.2723  0.4793 -0.3218
18693TIP3   OH277569   1.103   5.851   0.103  0.8179 -0.4152  0.2256
18693TIP3    H177570   1.014   5.832   0.132  1.2849 -0.8606  1.4291
18693TIP3    H277571   1.153   5.860   0.185  2.3398 -2.4902 -0.4290
18694TIP3   OH277572   0.864   6.246  11.673  0.0088 -0.5474  0.0512
18694TIP3    H177573   0.831   6.301  11.602  0.7863 -0.0116  0.1016
18694TIP3    H277574   0.907   6.173  11.629  1.6530  0.4694 -0.0467
18695TIP3   OH277575   4.580   3.657   4.531  0.3864 -0.5194 -0.5201
18695TIP3    H177576   4.540   3.574   4.555 -0.0658  0.4490  2.2735
18695TIP3    H277577   4.549   3.674   4.442 -3.8419 -0.7170  0.8357
18696TIP3   OH277578   3.515   6.807  16.233 -0.0214  0.6078 -0.0357
18696TIP3    H177579   3.470   6.806  16.317  0.0651  0.7701  0.0110
18696TIP3    H277580   3.548   6.896  16.224 -2.2645  1.3290 -1.4253
18697TIP3   OH277581   0.117   3.637   2.527  0.1723  0.5817 -0.6487
18697TIP3    H177582   0.111   3.570   2.458 -0.1636  0.1668 -0.2268
18697TIP3    H277583   0.111   3.587   2.608  3.7663  0.7112 -0.2281
18698TIP3   OH277584   0.155   4.747   5.786 -0.0313 -0.1833  0.1726
18698TIP3    H177585   0.087   4.806   5.755 -0.6782 -0.4697  1.0380
18698TIP3    H277586   0.228   4.805   5.809  1.3148 -0.0884 -3.9009
18699TIP3   OH277587   1.131   4.552   0.755  0.0877  0.3361  0.0688
18699TIP3    H177588   1.043   4.566   0.791  0.6358  0.8135  1.2471
18699TIP3    H277589   1.146   4.458   0.763 -0.1945  0.2992  0.1710
18700TIP3   OH277590   6.104   5.647   5.187  0.5365  0.0327 -0.0177
18700TIP3    H177591   6.061   5.619   5.268 -0.6279 -0.9246 -0.9512
18700TIP3    H277592   6.066   5.733   5.169 -0.4283 -0.4638 -0.4105
18701TIP3   OH277593   0.396   4.851  13.881  0.1315  0.0580  0.5353
18701TIP3    H177594   0.305   4.879  13.889 -0.2870 -0.8507 -0.7851
18701TIP3    H277595   0.396   4.791  13.807  2.2999  2.0533 -1.1673
18702TIP3   OH277596   4.618   2.103  12.711 -0.4367  0.2149 -0.0074
18702TIP3    H177597   4.609   2.190  12.750  1.9533 -0.2437  1.6756
18702TIP3    H277598   4.602   2.042  12.783  1.6976 -0.6642 -0.2340
18703TIP3   OH277599   1.390   0.145  14.411  0.2585  0.6373  0.1849
18703TIP3    H177600   1.388   0.239  14.394 -0.5668  0.1586 -2.7484
18703TIP3    H277601   1.478   0.128  14.444  0.9297  2.2458 -0.7057
18704TIP3   OH277602   0.816   0.490   5.111 -0.2347 -0.4854  0.6741
18704TIP3    H177603   0.825   0.396   5.121  0.7202 -0.4392  0.3105
18704TIP3    H277604   0.896   0.526   5.150 -0.1502  0.1101 -0.0296
18705TIP3   OH277605   5.910   2.823  15.552  0.1757  0.2309  0.5982
18705TIP3    H177606   5.984   2.826  15.613 -0.8446 -0.7469  1.9151
18705TIP3    H277607   5.919   2.739  15.508  1.1854  1.1450 -0.9937
18706TIP3   OH277608   4.841   1.178  14.854  0.0321 -0.1807 -0.4117
18706TIP3    H177609   4.827   1.271  14.871 -1.3862 -0.1163 -1.8728
18706TIP3    H277610   4.766   1.134  14.894 -1.0605 -0.3941 -2.6591
18707TIP3   OH277611   3.215   1.293  11.611 -0.2217  0.2081  0.1108
18707TIP3    H177612   3.205   1.357  11.541 -1.6703 -0.3387 -0.1827
18707TIP3    H277613   3.296   1.247  11.589 -0.2749  0.5313 -0.7976
18708TIP3   OH277614   6.077   4.852  12.487  0.1275 -0.3591  0.4160
18708TIP3    H177615   6.115   4.765  12.495 -0.4497 -0.5292  1.4214
18708TIP3    H277616   6.034   4.867  12.571 -0.5268  0.5357 -0.0713
18709TIP3   OH277617   0.513   5.879  12.736 -0.1545  0.4694  0.5096
18709TIP3    H177618   0.493   5.859  12.827  0.1800  0.6915  0.6362
18709TIP3    H277619   0.524   5.975  12.734  0.1122  0.4381  0.2957
18710TIP3   OH277620   5.680   6.113   1.710  0.3796  0.1065  0.5874
18710TIP3    H177621   5.758   6.069   1.675  0.7649  1.3182 -0.1055
18710TIP3    H277622   5.699   6.122   1.803  2.4651  3.1303 -0.0551
18711TIP3   OH277623   6.562   5.612   3.949  0.4643  0.1085 -0.1808
18711TIP3    H177624   6.656   5.610   3.970  0.6778  0.5122 -1.0705
18711TIP3    H277625   6.538   5.521   3.937  0.6796 -0.0188  0.3260
18712TIP3   OH277626   6.602   0.864   4.449  1.0274 -0.0460 -0.1764
18712TIP3    H177627   6.554   0.931   4.498  1.6515  0.1715  0.1289
18712TIP3    H277628   6.694   0.881   4.468  1.1767 -1.1240  0.0595
18713TIP3   OH277629   6.713   3.162  16.006  0.1712  0.2219  0.1431
18713TIP3    H177630   6.651   3.180  15.936  0.8123 -1.3699 -0.8433
18713TIP3    H277631   6.718   3.067  16.011  1.1591  0.3204  1.4433
18714TIP3   OH277632   1.360   4.147  16.462  0.0252  0.2364  0.2822
18714TIP3    H177633   1.270   4.150  16.431  0.6796 -0.4455 -1.7030
18714TIP3    H277634   1.356   4.094  16.542 -1.0987 -0.9976 -0.5774
18715TIP3   OH277635   0.572   5.710  16.433 -0.0043 -0.2949  0.4335
18715TIP3    H177636   0.584   5.682  16.342  4.1303 -0.9954  1.0965
18715TIP3    H277637   0.634   5.782  16.445  0.7335 -1.2842  3.0762
18716TIP3   OH277638   0.233   5.847   4.150 -0.5090 -0.0707  0.2532
18716TIP3    H177639   0.231   5.936   4.115 -2.8004 -0.1620  0.0898
18716TIP3    H277640   0.203   5.856   4.241 -0.1561 -0.6068  0.4284
18717TIP3   OH277641   4.698   5.740  16.883  0.2123  0.4184 -0.2779
18717TIP3    H177642   4.693   5.835  16.868 -1.3124  0.2729 -0.8072
18717TIP3    H277643   4.611   5.708  16.859  0.3102 -0.9383  1.1215
18718TIP3   OH277644   2.678   4.173  14.118  0.3472 -0.3860 -0.0477
18718TIP3    H177645   2.582   4.173  14.115  0.2938  0.5256  1.3593
18718TIP3    H277646   2.700   4.094  14.167  0.3156 -0.3754 -0.0171
18719TIP3   OH277647   6.203   5.517   3.116 -0.2697 -0.2036  0.6186
18719TIP3    H177648   6.124   5.475   3.152 -0.8297 -0.2511 -0.6589
18719TIP3    H277649   6.202   5.494   3.023  0.6595  0.7249  0.3785
18720TIP3   OH277650   5.518   0.283   0.407  0.1629  0.4195  0.0498
18720TIP3    H177651   5.581   0.253   0.473  0.1870  0.1525 -0.0958
18720TIP3    H277652   5.551   0.248   0.325  1.0288  2.1139 -0.3429
18721TIP3   OH277653   4.434   3.704   0.435  0.2709 -0.0251 -0.2159
18721TIP3    H177654   4.400   3.745   0.515  1.2423 -0.6412  0.5310
18721TIP3    H277655   4.388   3.749   0.364 -0.5437  0.5960  0.6827
18722TIP3   OH277656   5.901   5.069  15.058 -0.4242 -0.1270 -0.4114
18722TIP3    H177657   5.863   5.038  14.976 -0.3083 -1.3699 -0.0085
18722TIP3    H277658   5.996   5.067  15.043 -0.4566  1.7480 -0.9815
18723TIP3   OH277659   1.168   1.492  11.463 -0.0795 -0.3292 -0.1100
18723TIP3    H177660   1.098   1.427  11.470  0.0725 -0.7337 -1.9904
18723TIP3    H277661   1.129   1.564  11.413  0.0133  0.6731  1.2292
18724TIP3   OH277662   1.814   0.093  13.424 -0.5771 -0.4099  0.0443
18724TIP3    H177663   1.796   0.174  13.377 -0.1399 -1.0225 -1.2132
18724TIP3    H277664   1.834   0.120  13.514 -0.3098  0.8726 -0.4011
18725TIP3   OH277665   1.273   3.088  16.279 -0.6780  0.5133 -0.0186
18725TIP3    H177666   1.368   3.095  16.281 -0.4594 -1.4361 -2.0129
18725TIP3    H277667   1.243   3.161  16.334  1.9365  1.1135  0.7059
18726TIP3   OH277668   4.282   1.295  14.131  0.6251 -0.2432 -0.2369
18726TIP3    H177669   4.294   1.220  14.073 -2.2113  0.1829 -1.4552
18726TIP3    H277670   4.195   1.327  14.110  0.6732  1.6543  2.3043
18727TIP3   OH277671   3.439   1.490  14.573  0.1140 -0.0114  0.7165
18727TIP3    H177672   3.500   1.461  14.505 -0.5272 -0.4849  0.3445
18727TIP3    H277673   3.476   1.456  14.655  0.5694  0.0619  0.5450
18728TIP3   OH277674   1.258   3.900  14.628  0.3915 -0.6200 -0.0474
18728TIP3    H177675   1.259   3.936  14.539 -1.2532  0.1802  0.2315
18728TIP3    H277676   1.349   3.903  14.657  1.0811 -1.7133 -2.0163
18729TIP3   OH277677   6.287   3.192  16.980  0.7114 -0.5429  0.3718
18729TIP3    H177678   6.230   3.130  16.936  0.0896 -0.4144  0.9813
18729TIP3    H277679   6.372   3.182  16.937  0.3263 -1.0002 -0.2884
18730TIP3   OH277680   1.462   4.957   2.045 -0.3076  0.7602 -0.2429
18730TIP3    H177681   1.472   5.037   1.993  1.3452 -0.0084 -1.1551
18730TIP3    H277682   1.532   4.962   2.110  0.4300 -0.3984 -0.9280
18731TIP3   OH277683   6.443   0.261   4.254  0.2500  0.4478  0.1170
18731TIP3    H177684   6.537   0.258   4.231 -0.0499  0.4675 -1.1768
18731TIP3    H277685   6.409   0.334   4.202 -0.4491  0.5600  0.7298
18732TIP3   OH277686   0.206   6.676   0.104  0.2175 -0.4179  0.1198
18732TIP3    H177687   0.251   6.759   0.089 -0.7490  0.1008  0.0238
18732TIP3    H277688   0.171   6.683   0.193 -1.0147 -0.1732 -0.3803
18733TIP3   OH277689   1.010   2.493  12.568  0.3876  0.9993  0.6389
18733TIP3    H177690   1.061   2.445  12.503  0.7279  1.4868  0.5459
18733TIP3    H277691   1.062   2.487  12.648  1.0007  2.1680  0.3530
18734TIP3   OH277692   4.710   6.644   0.126  0.1379  0.5638 -0.9776
18734TIP3    H177693   4.692   6.595   0.206  1.9711  0.9300 -0.3191
18734TIP3    H277694   4.634   6.700   0.115  0.2599  1.1786  1.0432
18735TIP3   OH277695   6.720   3.259  13.269  0.5549  0.2503 -0.0331
18735TIP3    H177696   6.797   3.234  13.320  1.5208  1.9041 -0.6497
18735TIP3    H277697   6.711   3.189  13.204  2.0178  0.4450 -0.4612
18736TIP3   OH277698   5.383   5.976  16.175 -0.5032  0.7506 -0.6588
18736TIP3    H177699   5.353   5.905  16.231  0.3679  0.8736 -0.0360
18736TIP3    H277700   5.324   6.049  16.194 -0.0027  0.8970  0.3471
18737TIP3   OH277701   3.318   4.141  13.998  0.9563  0.0237  0.1045
18737TIP3    H177702   3.294   4.072  14.060  0.5958 -1.0292 -1.2119
18737TIP3    H277703   3.305   4.103  13.912  2.4185  1.1588 -0.6464
18738TIP3   OH277704   4.812   2.829   3.978 -0.1507 -0.4351  0.4706
18738TIP3    H177705   4.801   2.814   3.884  0.9289 -4.0587  0.8450
18738TIP3    H277706   4.895   2.875   3.985 -0.1146 -0.3603 -0.3437
18739TIP3   OH277707   5.850   2.314  16.664 -0.4929 -0.2251  0.3526
18739TIP3    H177708   5.820   2.247  16.726 -0.7947  0.2214  0.6954
18739TIP3    H277709   5.918   2.362  16.712  2.6181 -2.7927 -1.2542
18740TIP3   OH277710   4.745   0.917  15.599 -0.6157  0.1665  0.0821
18740TIP3    H177711   4.777   0.979  15.666 -0.7625 -0.6401  0.9103
18740TIP3    H277712   4.719   0.840  15.649 -1.5073 -0.1325 -0.8471
18741TIP3   OH277713   4.602   3.062  11.470 -0.6942 -0.4680  0.2727
18741TIP3    H177714   4.633   3.103  11.389 -0.6477  1.1221  1.0808
18741TIP3    H277715   4.588   2.970  11.447 -0.4330 -0.0771 -1.4694
18742TIP3   OH277716   4.973   3.142  14.930 -0.3652  0.1730 -0.3925
18742TIP3    H177717   4.914   3.119  14.859  0.4818 -0.2963 -0.9662
18742TIP3    H277718   5.000   3.232  14.911 -0.9287  0.4027 -0.1042
18743TIP3   OH277719   3.630   0.459  11.685  0.2470  0.3140 -0.2445
18743TIP3    H177720   3.636   0.527  11.752  1.5149  0.1722 -0.2042
18743TIP3    H277721   3.630   0.377  11.734 -1.6027  0.2759 -0.2725
18744TIP3   OH277722   1.345   1.396   3.832 -0.1026  0.4516 -0.1492
18744TIP3    H177723   1.320   1.405   3.924 -1.2230  2.0346 -0.5940
18744TIP3    H277724   1.423   1.451   3.823  0.0394  0.2528 -0.1503
18745TIP3   OH277725   5.859   2.755   5.603 -0.2218  0.0297  0.1761
18745TIP3    H177726   5.886   2.840   5.637 -1.3120  1.5993 -2.6949
18745TIP3    H277727   5.905   2.691   5.657  1.3295  2.4478  1.7885
18746TIP3   OH277728   5.977   0.350  15.385 -0.3751 -0.4268 -0.2740
18746TIP3    H177729   5.890   0.372  15.353  0.5126  1.0538 -1.7834
18746TIP3    H277730   5.973   0.363  15.480 -1.3478  1.2242 -0.5338
18747TIP3   OH277731   3.530   0.108   1.059 -0.0151  0.0732  0.3231
18747TIP3    H177732   3.585   0.067   1.125  0.0806 -0.9896 -0.4045
18747TIP3    H277733   3.449   0.057   1.061 -0.7887  1.3102  1.0367
18748TIP3   OH277734   4.690   0.613  12.520 -0.1660  0.1642 -0.1719
18748TIP3    H177735   4.679   0.537  12.462  2.8253  0.4028 -1.1462
18748TIP3    H277736   4.687   0.688  12.461 -2.1488  0.7566  0.6677
18749TIP3   OH277737   4.921   4.729   0.907  0.4836 -0.1713 -0.3065
18749TIP3    H177738   5.015   4.709   0.899  0.6977  0.3351  0.8812
18749TIP3    H277739   4.897   4.760   0.820  1.5211  0.1168 -0.5069
18750TIP3   OH277740   1.196   4.370  13.163 -0.5989 -0.0332  0.2639
18750TIP3    H177741   1.125   4.322  13.120  0.4436 -0.2450 -1.2583
18750TIP3    H277742   1.269   4.365  13.101  0.6676  0.3982  1.7010
18751TIP3   OH277743   0.564   3.187   0.340  0.0585 -0.0913 -0.7420
18751TIP3    H177744   0.631   3.118   0.336 -0.8516 -1.1315  1.4355
18751TIP3    H277745   0.609   3.263   0.377 -0.3905 -1.3779  2.5595
18752TIP3   OH277746   4.463   2.550  14.481 -0.5863 -0.0329  0.0026
18752TIP3    H177747   4.434   2.458  14.479  2.0649 -0.9401  0.2321
18752TIP3    H277748   4.553   2.546  14.448 -0.7515  2.6360 -0.8440
18753TIP3   OH277749   6.520   4.945   4.562  0.0483  0.0856 -0.0883
18753TIP3    H177750   6.545   4.883   4.493  3.1299 -0.0496  1.0664
18753TIP3    H277751   6.540   5.031   4.524 -1.3640  0.2188 -0.5579
18754TIP3   OH277752   5.312   2.962   5.556  0.1295  0.9472  0.0866
18754TIP3    H177753   5.231   2.992   5.515 -0.4071  0.0418  0.4673
18754TIP3    H277754   5.296   2.870   5.576  1.0751  0.8899  0.6083
18755TIP3   OH277755   4.614   6.700   0.704 -0.2063 -0.0739  0.2227
18755TIP3    H177756   4.683   6.720   0.641 -0.7013  2.1315  0.3181
18755TIP3    H277757   4.644   6.622   0.749  1.3579 -0.2062 -1.0058
18756TIP3   OH277758   2.408   6.163  12.571 -0.0327 -0.5012 -0.2285
18756TIP3    H177759   2.342   6.171  12.640  0.9726  1.9193  0.5137
18756TIP3    H277760   2.481   6.119  12.614  0.3541  0.4371  0.0774
18757TIP3   OH277761   1.411   6.254   1.390 -0.3987 -0.1213 -0.0993
18757TIP3    H177762   1.358   6.324   1.429  1.5946  1.4522 -0.1555
18757TIP3    H277763   1.387   6.254   1.298 -0.0218  0.8420 -0.1997
18758TIP3   OH277764   0.448   1.530  11.247 -0.4925 -0.3363 -0.0388
18758TIP3    H177765   0.415   1.443  11.226 -1.4720  0.5938 -2.5035
18758TIP3    H277766   0.376   1.590  11.226  0.8910  1.2452 -0.4368
18759TIP3   OH277767   6.185   5.563  16.691 -0.8398  0.0162  0.1297
18759TIP3    H177768   6.271   5.557  16.651 -0.0790  1.2933  1.5648
18759TIP3    H277769   6.176   5.481  16.741 -0.3595 -0.0132  0.1676
18760TIP3   OH277770   4.870   2.137  12.071  0.3306 -0.6806  0.0960
18760TIP3    H177771   4.840   2.205  12.131 -0.7513 -0.9325 -0.1471
18760TIP3    H277772   4.828   2.158  11.988  1.2317 -0.7576 -0.3777
18761TIP3   OH277773   1.976   3.072   0.476  0.2952  0.1298  0.3005
18761TIP3    H177774   2.034   3.004   0.444 -0.2406  0.1968 -0.8431
18761TIP3    H277775   1.988   3.072   0.571  2.4356  0.4132  0.0500
18762TIP3   OH277776   6.503   6.220  11.535 -0.2341  0.7483  0.0327
18762TIP3    H177777   6.412   6.191  11.542 -0.2916  0.9520  0.1306
18762TIP3    H277778   6.554   6.143  11.561 -0.2618 -0.4967 -3.3482
18763TIP3   OH277779   0.263   4.515   6.229 -0.3979 -0.2064  0.3408
18763TIP3    H177780   0.236   4.516   6.137 -2.1723 -1.3443  0.8056
18763TIP3    H277781   0.242   4.427   6.259  0.1844  0.1440  1.8359
18764TIP3   OH277782   3.029   6.812  17.224  0.1010  0.0561 -0.1397
18764TIP3    H177783   3.013   6.758  17.146  3.7465  1.0586 -1.6718
18764TIP3    H277784   3.096   6.766  17.273 -0.0365  0.9242  0.8895
18765TIP3   OH277785   4.599   1.417  16.447  0.5534 -0.3802  0.8801
18765TIP3    H177786   4.672   1.377  16.399  0.1363  1.4257 -1.2893
18765TIP3    H277787   4.529   1.425  16.383 -0.4339  0.9730  2.0965
18766TIP3   OH277788   1.770   3.273  11.688 -0.0459  0.0212 -0.3555
18766TIP3    H177789   1.730   3.303  11.607  2.0728  2.2869 -0.6326
18766TIP3    H277790   1.755   3.345  11.750  1.9599  0.1424  0.0201
18767TIP3   OH277791   2.185   4.300   4.721  0.6790  0.0031  0.2330
18767TIP3    H177792   2.207   4.368   4.657  1.9694 -0.3882  0.2424
18767TIP3    H277793   2.264   4.246   4.726 -0.7535 -2.2872 -0.7786
18768TIP3   OH277794   1.089   0.968   2.880 -0.2998  0.6932 -0.4798
18768TIP3    H177795   1.173   1.005   2.905 -0.2970  1.5255 -1.7013
18768TIP3    H277796   1.029   0.993   2.951 -0.0706  2.1454 -0.7957
18769TIP3   OH277797   3.888   3.391  13.731 -0.1175  0.0534  0.3807
18769TIP3    H177798   3.795   3.411  13.737 -0.1707  0.2701 -0.9851
18769TIP3    H277799   3.929   3.473  13.702  0.6461  0.2661  2.0222
18770TIP3   OH277800   6.649   5.091  12.537 -0.1745 -0.1925 -0.1512
18770TIP3    H177801   6.655   4.996  12.531 -0.6478 -0.1726 -0.9538
18770TIP3    H277802   6.558   5.111  12.516  0.4205  0.5942 -2.0944
18771TIP3   OH277803   2.518   5.214  14.837 -0.1549 -0.2429  0.2267
18771TIP3    H177804   2.590   5.278  14.832 -2.6121  2.5538 -0.4031
18771TIP3    H277805   2.527   5.162  14.757 -0.3105  1.7262 -1.1007
18772TIP3   OH277806   5.876   1.600  14.089  0.6649  0.1086  0.3420
18772TIP3    H177807   5.971   1.610  14.082  0.7232  0.6567  1.6436
18772TIP3    H277808   5.864   1.545  14.167 -0.1008  0.6979  0.6414
18773TIP3   OH277809   5.274   0.538   0.047 -0.0936 -0.3224 -0.4601
18773TIP3    H177810   5.184   0.505   0.053  0.2346 -1.4315 -1.4832
18773TIP3    H277811   5.329   0.461   0.059  0.7137  0.2325 -0.5838
18774TIP3   OH277812   5.830   4.227  14.799  0.0583 -0.0361  0.2723
18774TIP3    H177813   5.850   4.140  14.833 -0.8482 -0.5727 -0.5359
18774TIP3    H277814   5.735   4.235  14.809 -0.1408  0.0278 -1.5529
18775TIP3   OH277815   2.355   3.239  15.003  0.4166 -0.1681 -0.2132
18775TIP3    H177816   2.404   3.160  15.025  2.2213  0.8016 -0.6818
18775TIP3    H277817   2.267   3.207  14.981  1.5804 -2.2456 -2.0991
18776TIP3   OH277818   3.916   5.496  11.560 -0.4035 -0.3135 -0.2229
18776TIP3    H177819   3.989   5.434  11.554 -1.0030 -1.0638  0.0828
18776TIP3    H277820   3.904   5.510  11.654 -1.6042 -1.3505 -0.2059
18777TIP3   OH277821   3.231   1.787  12.174  0.1969 -0.0224  0.3561
18777TIP3    H177822   3.287   1.817  12.245 -1.2354 -0.5307  1.7320
18777TIP3    H277823   3.277   1.713  12.135  0.9863  0.2659  0.7471
18778TIP3   OH277824   3.894   1.297  16.396 -0.0540  0.1777 -0.5575
18778TIP3    H177825   3.931   1.244  16.326 -1.5515 -0.9445 -0.5333
18778TIP3    H277826   3.884   1.235  16.469 -1.4122  0.5872 -0.3925
18779TIP3   OH277827   5.109   6.426  12.891  0.5255 -0.0980 -0.0315
18779TIP3    H177828   5.104   6.455  12.982  0.3654 -0.4141  0.0630
18779TIP3    H277829   5.202   6.412  12.875  0.5160 -0.4326  0.2119
18780TIP3   OH277830   3.531   4.061  17.134 -0.2396  0.1082 -0.4494
18780TIP3    H177831   3.607   4.119  17.131 -1.3881  1.6222 -1.1042
18780TIP3    H277832   3.536   4.010  17.054 -0.3659  0.8090 -0.9056
18781TIP3   OH277833   5.688   2.294   1.821  0.3026 -0.1938  0.7555
18781TIP3    H177834   5.621   2.237   1.783  0.3035 -0.7487  1.5592
18781TIP3    H277835   5.751   2.307   1.750  0.2311 -1.0939  0.5191
18782TIP3   OH277836   1.746   2.962  14.853  0.3000 -0.1282  0.0671
18782TIP3    H177837   1.776   3.013  14.928  2.1339  2.1822 -2.1396
18782TIP3    H277838   1.754   2.871  14.881 -0.2979  0.7109  3.0906
18783TIP3   OH277839   4.448   2.126  12.485  0.0896 -0.1356 -0.1343
18783TIP3    H177840   4.495   2.102  12.405  0.5095 -1.2335  0.4176
18783TIP3    H277841   4.518   2.143  12.549 -0.2497  0.0862  0.1813
18784TIP3   OH277842   5.053   4.761   3.454  0.0887  0.2419  0.1582
18784TIP3    H177843   4.987   4.805   3.507  0.3637  2.6358 -1.4227
18784TIP3    H277844   5.136   4.799   3.481  0.4595 -0.1384 -0.4177
18785TIP3   OH277845   3.187   6.404   3.438 -0.5603  0.0523  0.6766
18785TIP3    H177846   3.147   6.318   3.433  0.7482 -0.5995  1.1035
18785TIP3    H277847   3.118   6.465   3.410 -1.3066 -1.1732 -0.1794
18786TIP3   OH277848   3.828   0.822  13.249 -0.4185  0.5163 -0.1547
18786TIP3    H177849   3.888   0.849  13.319 -1.6599 -0.3178  1.2568
18786TIP3    H277850   3.785   0.744  13.283  0.1028 -0.8637 -2.5073
18787TIP3   OH277851   6.515   0.363  12.158  0.2715  0.0334 -0.3823
18787TIP3    H177852   6.528   0.436  12.098  1.5600  0.0643 -0.0871
18787TIP3    H277853   6.436   0.319  12.127 -0.5973  1.6434 -0.4656
18788TIP3   OH277854   4.152   1.623  14.191  0.2154 -0.5657 -0.1288
18788TIP3    H177855   4.083   1.556  14.197  0.9081 -1.2804 -0.0923
18788TIP3    H277856   4.154   1.663  14.278 -0.0842 -0.6127 -0.0993
18789TIP3   OH277857   0.304   6.188   4.470  0.2782 -0.5206 -0.1990
18789TIP3    H177858   0.338   6.150   4.551 -0.0947 -1.7087 -0.5868
18789TIP3    H277859   0.226   6.136   4.450  0.0927  0.0759 -1.0655
18790TIP3   OH277860   4.671   0.396  12.936  0.4336  0.5136  0.4881
18790TIP3    H177861   4.631   0.467  12.886  1.5619  1.1092  0.4080
18790TIP3    H277862   4.619   0.319  12.914  1.2026  0.6484 -2.0186
18791TIP3   OH277863   3.686   4.050   1.017 -0.0099 -0.5942 -0.8414
18791TIP3    H177864   3.728   4.128   1.054 -0.9243 -0.2990 -0.4027
18791TIP3    H277865   3.726   4.041   0.931 -0.2913  0.7044 -1.1317
18792TIP3   OH277866   3.038   2.165   2.497  0.1010 -0.5444  0.3065
18792TIP3    H177867   3.035   2.069   2.498  0.0652 -0.5336  2.5139
18792TIP3    H277868   2.947   2.191   2.482 -0.7151 -0.8532  4.2288
18793TIP3   OH277869   3.081   6.493  17.130  0.4394  0.1042  0.1515
18793TIP3    H177870   3.020   6.419  17.135 -0.6078  1.0476  2.0566
18793TIP3    H277871   3.094   6.519  17.221  1.0238  2.0688 -0.4758
18794TIP3   OH277872   4.124   0.051   5.152  0.8245  0.4327  0.3343
18794TIP3    H177873   4.213   0.045   5.188 -0.2524  0.3916  3.0861
18794TIP3    H277874   4.124   0.134   5.104  1.7795  1.3928  1.9547
18795TIP3   OH277875   2.531   3.398   2.934  0.4306  0.3171 -0.7895
18795TIP3    H177876   2.575   3.409   3.018  0.2682 -0.1540 -0.6450
18795TIP3    H277877   2.603   3.394   2.870  0.6033 -0.4708 -0.5500
18796TIP3   OH277878   3.696   3.730   3.402  0.2287 -0.3633  0.4314
18796TIP3    H177879   3.651   3.721   3.319  1.4075  1.9877 -0.5072
18796TIP3    H277880   3.724   3.641   3.425  0.4870 -0.9259 -2.0090
18797TIP3   OH277881   6.784   6.570   0.710 -0.0610  0.0140  0.2496
18797TIP3    H177882   6.744   6.656   0.695  0.1247  0.1320  0.4344
18797TIP3    H277883   6.765   6.551   0.802 -1.6680 -0.9463 -0.2501
18798TIP3   OH277884   2.762   5.131  13.887 -0.1144  0.0177 -0.0159
18798TIP3    H177885   2.703   5.065  13.852 -1.8186  1.1234  0.7332
18798TIP3    H277886   2.819   5.083  13.947  0.1308 -1.1454 -1.1574
18799TIP3   OH277887   4.940   4.890  15.480 -0.0919 -0.1414 -0.1184
18799TIP3    H177888   4.906   4.965  15.431  0.1977 -0.5698 -0.9865
18799TIP3    H277889   4.977   4.928  15.559 -2.6625  0.3191  0.8983
18800TIP3   OH277890   4.081   1.890  15.550  0.1591  0.0272 -0.0643
18800TIP3    H177891   4.092   1.901  15.456 -1.8337 -0.0136 -0.3180
18800TIP3    H277892   4.093   1.796  15.565  0.5044  0.0383 -0.2720
18801TIP3   OH277893   2.868   4.438  14.641 -0.3745  0.1945  0.6361
18801TIP3    H177894   2.958   4.467  14.624 -0.1010 -0.4076  1.0308
18801TIP3    H277895   2.816   4.477  14.570  0.7499 -2.3137 -1.6587
18802TIP3   OH277896   0.678   5.343  16.054  0.2033  0.2025  0.0457
18802TIP3    H177897   0.708   5.364  15.965  1.6815  0.3546  0.5635
18802TIP3    H277898   0.684   5.247  16.060 -1.0235  0.0843 -0.3936
18803TIP3   OH277899   2.982   2.997   0.634 -0.4800  0.4271 -0.0281
18803TIP3    H177900   3.064   2.949   0.626 -0.3656  0.8373 -1.3592
18803TIP3    H277901   2.975   3.018   0.727 -1.0091 -3.0455  0.7950
18804TIP3   OH277902   1.647   4.249   0.297 -0.0166 -0.9393 -0.2861
18804TIP3    H177903   1.711   4.179   0.300  2.7567  1.4772 -0.5087
18804TIP3    H277904   1.663   4.293   0.213  0.1360  1.5483  0.9788
18805TIP3   OH277905   1.844   0.134   5.510  0.1894 -0.2515 -0.3237
18805TIP3    H177906   1.938   0.125   5.499  0.0078 -1.3940 -1.0206
18805TIP3    H277907   1.817   0.057   5.560 -0.1514  0.9092  1.3211
18806TIP3   OH277908   3.820   0.164  16.002 -0.2978 -0.3132  0.2381
18806TIP3    H177909   3.879   0.175  16.077 -1.5705  0.4064  1.1430
18806TIP3    H277910   3.878   0.137  15.930  0.9316 -1.0018  1.4636
18807TIP3   OH277911   4.280   3.120   1.160  0.3929 -0.5566 -0.0723
18807TIP3    H177912   4.338   3.135   1.235 -0.4687 -0.3989  0.5789
18807TIP3    H277913   4.322   3.049   1.111  1.0052 -0.6140  0.5219
18808TIP3   OH277914   2.130   1.684   2.340 -0.4884 -0.4366 -0.7415
18808TIP3    H177915   2.138   1.691   2.245  1.3730 -0.2569 -0.5813
18808TIP3    H277916   2.055   1.740   2.362  0.8407  1.7786 -1.7943
18809TIP3   OH277917   4.472   5.024  14.185  0.3345  0.8085 -0.1067
18809TIP3    H177918   4.405   5.081  14.148 -0.0967  0.2286 -0.2170
18809TIP3    H277919   4.470   5.043  14.279 -0.3549  0.4165 -0.0359
18810TIP3   OH277920   5.298   0.191  11.227  0.0991 -0.4360  0.3556
18810TIP3    H177921   5.364   0.150  11.284 -2.5501 -3.4377  1.4061
18810TIP3    H277922   5.287   0.279  11.264  2.6846 -0.2626  0.8241
18811TIP3   OH277923   0.854   4.389  17.089 -0.1429  0.3668  0.4286
18811TIP3    H177924   0.848   4.484  17.103  1.7180  0.6891 -0.7280
18811TIP3    H277925   0.850   4.379  16.993 -0.1967 -0.7043  0.5377
18812TIP3   OH277926   3.657   3.851  14.709 -0.3362  0.2313  0.4080
18812TIP3    H177927   3.740   3.831  14.665 -0.1050 -1.2529  1.4510
18812TIP3    H277928   3.676   3.929  14.762  0.2655  0.1693  0.2831
18813TIP3   OH277929   2.899   3.780   0.969 -0.4831  0.1637  0.3845
18813TIP3    H177930   2.915   3.807   1.059 -1.3845 -1.5640  1.0771
18813TIP3    H277931   2.985   3.780   0.927 -0.1920  2.0055  0.9309
18814TIP3   OH277932   3.090   5.455  15.248  0.2885 -0.0274  0.1028
18814TIP3    H177933   3.031   5.524  15.280 -1.3317 -1.4035  0.1480
18814TIP3    H277934   3.157   5.502  15.199 -1.0932  1.5479 -0.3266
18815TIP3   OH277935   5.978   0.860   1.341  0.1370 -0.4492 -0.0644
18815TIP3    H177936   6.026   0.827   1.417 -1.8608  0.1331  1.4927
18815TIP3    H277937   5.892   0.817   1.347  0.5504 -1.7688 -2.9952
18816TIP3   OH277938   4.460   6.685   0.958  0.0732 -0.3620  0.2060
18816TIP3    H177939   4.525   6.687   0.887 -0.0665 -0.5534  0.0736
18816TIP3    H277940   4.473   6.768   1.004 -0.0394 -0.0998 -0.2288
18817TIP3   OH277941   4.767   2.030   1.806 -0.3670 -0.0397  0.3561
18817TIP3    H177942   4.840   1.970   1.795 -0.6236 -0.2996  0.0576
18817TIP3    H277943   4.774   2.061   1.896  0.9440  1.0331 -0.0819
18818TIP3   OH277944   2.896   1.556  12.961 -0.2799  0.5023  0.8886
18818TIP3    H177945   2.952   1.509  13.024 -1.6682 -0.0583  1.7300
18818TIP3    H277946   2.957   1.603  12.905  1.1038 -1.3541  0.8038
18819TIP3   OH277947   4.074   5.636   6.321  0.0712  0.5529 -0.1800
18819TIP3    H177948   4.139   5.585   6.273 -0.1453  1.3516 -1.3370
18819TIP3    H277949   4.126   5.700   6.371  0.2648  0.1150  0.1778
18820TIP3   OH277950   2.748   0.148   1.237 -0.5664  0.4494  0.3018
18820TIP3    H177951   2.724   0.147   1.330  1.0234 -0.9731  0.7294
18820TIP3    H277952   2.765   0.240   1.217  0.5359  0.5925  1.8286
18821TIP3   OH277953   0.180   3.301  13.654  0.0815 -0.5376  0.3637
18821TIP3    H177954   0.149   3.388  13.629  0.2095 -0.1952  1.3814
18821TIP3    H277955   0.102   3.256  13.686 -0.1670 -1.1266 -1.0545
18822TIP3   OH277956   1.662   3.560  12.522  0.0961 -0.1990  0.2988
18822TIP3    H177957   1.685   3.651  12.535  2.1638 -0.4912 -0.9646
18822TIP3    H277958   1.575   3.562  12.480  1.8138  1.4122 -3.4402
18823TIP3   OH277959   4.105   3.435  15.209  0.2461 -0.6944 -0.5739
18823TIP3    H177960   4.090   3.529  15.200  0.6502 -0.5299  0.3849
18823TIP3    H277961   4.151   3.410  15.129  1.3957  0.1951 -0.1954
18824TIP3   OH277962   5.480   6.774   0.444  0.2770  0.2797 -0.0756
18824TIP3    H177963   5.555   6.718   0.424  0.2136 -0.4759  1.6730
18824TIP3    H277964   5.458   6.816   0.361  3.6432  1.7572 -0.2915
18825TIP3   OH277965   4.413   3.307   2.943 -0.1539 -0.2803  0.5124
18825TIP3    H177966   4.447   3.305   3.033 -1.8351  1.5063  1.2527
18825TIP3    H277967   4.450   3.230   2.901  0.9298 -0.9774  2.6557
18826TIP3   OH277968   1.987   2.574  12.444  0.0994 -0.5252 -0.2312
18826TIP3    H177969   1.915   2.510  12.441  0.1694 -0.7242  1.5827
18826TIP3    H277970   1.981   2.612  12.531  1.3469  0.4693 -0.5672
18827TIP3   OH277971   4.021   3.029   4.509 -0.3343 -0.0327  0.0312
18827TIP3    H177972   4.110   3.034   4.476 -0.5065 -1.3895 -0.6772
18827TIP3    H277973   4.011   2.938   4.538 -1.4017  0.1754  0.3473
18828TIP3   OH277974   4.688   3.947  11.194 -0.3150  0.6367  0.2527
18828TIP3    H177975   4.745   3.882  11.235  0.3538  0.1841 -1.3591
18828TIP3    H277976   4.599   3.915  11.209 -0.1905  1.3883  2.8663
18829TIP3   OH277977   4.703   2.815   3.651  0.7409 -0.1468 -0.1805
18829TIP3    H177978   4.700   2.721   3.635  0.8367 -0.3831  1.1082
18829TIP3    H277979   4.612   2.840   3.664  0.5118  0.3207 -2.5435
18830TIP3   OH277980   2.837   6.142   1.969 -0.6363  0.2687 -0.4787
18830TIP3    H177981   2.850   6.136   2.064 -0.2309  0.6874 -0.5088
18830TIP3    H277982   2.865   6.230   1.946 -2.2901  0.7475 -0.7400
18831TIP3   OH277983   1.911   2.993   6.557 -0.0949 -0.5146  0.5353
18831TIP3    H177984   1.880   3.078   6.588 -3.1384 -1.2746 -0.2703
18831TIP3    H277985   1.855   2.972   6.483  2.5067 -1.9415 -1.0936
18832TIP3   OH277986   0.878   2.434  11.268 -0.7215 -0.2579  0.0601
18832TIP3    H177987   0.830   2.510  11.302  0.6615  0.3130  0.7727
18832TIP3    H277988   0.926   2.468  11.192  0.7201 -0.1624  1.0049
18833TIP3   OH277989   1.041   2.070   4.665  0.1088 -0.1571 -0.3358
18833TIP3    H177990   1.122   2.113   4.637  1.4452 -2.3156  0.1134
18833TIP3    H277991   1.038   1.989   4.614 -1.4332 -0.3947  0.1260
18834TIP3   OH277992   6.786   0.479   4.007 -0.5634 -0.1636  0.2859
18834TIP3    H177993   6.758   0.535   3.934  0.6456  0.8320  0.5588
18834TIP3    H277994   6.879   0.466   3.992 -0.5671 -1.0026  0.9808
18835TIP3   OH277995   5.667   1.543   3.719 -0.2700  0.1034  0.1746
18835TIP3    H177996   5.736   1.480   3.697  1.4152  1.2690  1.9277
18835TIP3    H277997   5.599   1.491   3.760 -0.3007 -1.0252 -1.2621
18836TIP3   OH277998   3.582   5.169   3.620 -0.7493 -0.1585 -0.1033
18836TIP3    H177999   3.590   5.079   3.590  0.2580  0.3264 -1.3135
18836TIP3    H278000   3.537   5.215   3.549  0.7316  0.7655 -0.4653
18837TIP3   OH278001   5.890   0.544   2.249 -0.0126 -0.0905 -0.0836
18837TIP3    H178002   5.982   0.522   2.260 -0.3886 -2.0019 -0.5489
18837TIP3    H278003   5.853   0.469   2.202 -2.4649 -0.7982  2.8386
18838TIP3   OH278004   2.871   0.186  15.998  0.0079  0.1096  0.4669
18838TIP3    H178005   2.947   0.130  16.014  0.5431  0.5554 -0.4246
18838TIP3    H278006   2.795   0.129  16.011  0.4683 -0.1757  1.9970
18839TIP3   OH278007   2.043   4.237  15.644  0.0743 -0.0150  0.1717
18839TIP3    H178008   2.042   4.170  15.576 -1.6831  1.2911 -1.1057
18839TIP3    H278009   2.072   4.317  15.599 -0.5059  0.7151  1.0738
18840TIP3   OH278010   0.040   1.511  13.982  0.6169 -0.1004 -0.2786
18840TIP3    H178011   0.064   1.466  13.901  0.4458  1.5081 -1.2402
18840TIP3    H278012   0.105   1.580  13.991  1.1254 -0.7902  1.4213
18841TIP3   OH278013   5.300   5.023   2.158 -0.0511  0.7994  0.1031
18841TIP3    H178014   5.387   5.054   2.134  0.4729 -0.3989  0.4335
18841TIP3    H278015   5.315   4.963   2.231 -0.9508 -0.8736 -1.0590
18842TIP3   OH278016   2.687   3.760  13.823 -0.2772  0.7874 -0.5265
18842TIP3    H178017   2.728   3.674  13.833  0.5295  1.3736  1.3807
18842TIP3    H278018   2.651   3.759  13.734  3.6800  0.1336 -2.2778
18843TIP3   OH278019   2.346   5.017   0.346 -0.0776 -0.0108 -0.6435
18843TIP3    H178020   2.366   4.925   0.332 -0.7155 -0.5286  1.7771
18843TIP3    H278021   2.370   5.034   0.437 -0.8744  1.9752 -0.7775
18844TIP3   OH278022   5.512   4.219   1.638  0.2279 -0.3519 -0.3162
18844TIP3    H178023   5.559   4.231   1.555  0.0398 -1.6509 -0.6200
18844TIP3    H278024   5.492   4.125   1.640  0.2773 -0.3320  1.2233
18845TIP3   OH278025   0.201   3.378   2.735  0.2327  0.4371  0.0856
18845TIP3    H178026   0.160   3.350   2.654  0.6564 -0.5518  0.2128
18845TIP3    H278027   0.141   3.443   2.772  0.3458  1.3571 -1.3270
18846TIP3   OH278028   0.816   1.031   1.294  0.6655  0.7388 -0.3370
18846TIP3    H178029   0.901   0.987   1.296  0.6933  0.8368  1.1796
18846TIP3    H278030   0.794   1.045   1.386 -2.0351 -1.3001 -0.5973
18847TIP3   OH278031   5.667   2.167   2.862  0.0850  0.0086  0.1969
18847TIP3    H178032   5.613   2.172   2.940 -0.6956 -1.2606 -0.2585
18847TIP3    H278033   5.605   2.153   2.790  0.7365  1.7200 -0.7443
18848TIP3   OH278034   6.138   1.837  14.612  0.2258 -0.2129 -0.3096
18848TIP3    H178035   6.133   1.841  14.516  2.2514  3.3636 -0.3563
18848TIP3    H278036   6.224   1.874  14.632 -1.1306  1.2984  3.0128
18849TIP3   OH278037   6.002   1.415  16.792  0.1061 -0.0993 -0.3000
18849TIP3    H178038   6.064   1.367  16.737 -0.3185 -0.7508 -0.2143
18849TIP3    H278039   5.939   1.452  16.730 -0.6455 -1.2317 -0.2267
18850TIP3   OH278040   2.075   4.292   3.700 -0.4073 -0.4625 -0.6055
18850TIP3    H178041   2.103   4.216   3.750 -0.4349 -1.0993 -1.5340
18850TIP3    H278042   1.984   4.273   3.676 -0.5008 -0.0178 -0.6183
18851TIP3   OH278043   6.179   6.208   4.665 -0.3780 -0.2902  0.0345
18851TIP3    H178044   6.154   6.293   4.703 -1.0215  0.1867 -1.4445
18851TIP3    H278045   6.156   6.215   4.573  0.1247 -1.8719 -0.2213
18852TIP3   OH278046   2.161   5.577   5.942 -0.3567 -0.1883  0.0690
18852TIP3    H178047   2.199   5.513   6.002 -2.3706 -1.2792  0.2289
18852TIP3    H278048   2.068   5.553   5.938 -0.9212  2.0354 -0.7369
18853TIP3   OH278049   0.618   3.831  15.954 -0.2669 -0.0570  0.0488
18853TIP3    H178050   0.528   3.858  15.974  0.4410  1.0058  1.9114
18853TIP3    H278051   0.620   3.738  15.972 -0.9266 -0.0368  0.2336
18854TIP3   OH278052   3.921   4.703  12.502  0.2727  0.5363 -0.6339
18854TIP3    H178053   3.955   4.644  12.434  2.7128  1.6757 -0.4493
18854TIP3    H278054   3.947   4.790  12.473  0.8267  1.0891  1.4659
18855TIP3   OH278055   6.530   1.020  13.652 -0.2186 -0.3549 -0.1318
18855TIP3    H178056   6.437   0.997  13.655  0.1897 -2.1747 -0.8524
18855TIP3    H278057   6.576   0.936  13.643  1.3772  0.6667 -1.9799
18856TIP3   OH278058   1.211   2.514   3.172  0.3075 -0.1506  0.2202
18856TIP3    H178059   1.170   2.600   3.171 -0.5605 -0.5432  1.7851
18856TIP3    H278060   1.205   2.483   3.081  0.9579  1.5741 -0.4206
18857TIP3   OH278061   0.426   5.635  11.523  0.9526 -0.1134  0.0294
18857TIP3    H178062   0.481   5.679  11.588  0.8147  2.4839 -1.5162
18857TIP3    H278063   0.479   5.561  11.493  1.6224 -0.4537  1.9587
18858TIP3   OH278064   6.614   0.329  13.404 -0.1513 -0.3117 -0.3437
18858TIP3    H178065   6.696   0.378  13.414 -0.4601  0.7145 -2.5536
18858TIP3    H278066   6.629   0.274  13.327 -1.0438 -1.1857  0.1019
18859TIP3   OH278067   4.909   6.676   1.700 -0.7461 -0.1698  0.1570
18859TIP3    H178068   4.994   6.664   1.743 -0.8205  1.1785  0.7192
18859TIP3    H278069   4.926   6.745   1.635 -1.3434 -0.1087  0.0680
18860TIP3   OH278070   0.205   3.939  15.731 -0.0495 -0.5729  0.2182
18860TIP3    H178071   0.208   3.967  15.640 -1.8422 -1.7548 -0.2313
18860TIP3    H278072   0.120   3.896  15.740  0.4423 -1.1790  2.2409
18861TIP3   OH278073   2.238   3.009   5.541 -0.2505 -0.9111 -0.1609
18861TIP3    H178074   2.299   2.937   5.531 -2.2315 -2.3516 -2.4343
18861TIP3    H278075   2.168   2.974   5.598 -0.7141 -0.4552 -0.4435
18862TIP3   OH278076   3.371   1.688   5.200  0.1464 -0.5748  0.0573
18862TIP3    H178077   3.287   1.679   5.155 -0.3101  1.3012  0.4898
18862TIP3    H278078   3.389   1.600   5.235 -0.6148 -1.4942 -1.7779
18863TIP3   OH278079   0.175   6.112   4.059  0.0914 -0.4432 -0.2581
18863TIP3    H178080   0.155   6.171   4.132 -0.3582 -0.5999 -0.2493
18863TIP3    H278081   0.243   6.158   4.010  0.5352 -0.4282  0.3671
18864TIP3   OH278082   0.612   1.555   1.646 -0.0515 -0.3945 -0.2892
18864TIP3    H178083   0.575   1.640   1.622 -1.5254 -0.1928  2.4686
18864TIP3    H278084   0.672   1.575   1.719  0.8969 -1.5069 -0.7412
18865TIP3   OH278085   0.707   0.190  15.577  0.2749 -0.2460 -0.3114
18865TIP3    H178086   0.774   0.191  15.646 -0.9175  0.8219  0.8470
18865TIP3    H278087   0.704   0.099  15.548  2.0160 -0.3685 -0.1744
18866TIP3   OH278088   3.335   2.718   0.008  0.0089  0.0367  0.1808
18866TIP3    H178089   3.408   2.772   0.037  0.7094 -1.0154  0.4062
18866TIP3    H278090   3.257   2.765   0.037  0.6574  0.0705  1.9156
18867TIP3   OH278091   4.399   5.639  13.587  0.1274 -0.3867 -0.0805
18867TIP3    H178092   4.486   5.626  13.626  0.1307 -0.4180 -0.0986
18867TIP3    H278093   4.417   5.683  13.504  0.0946 -0.0464  0.0950
18868TIP3   OH278094   0.238   2.502  12.503  0.6247 -0.0175  0.1165
18868TIP3    H178095   0.262   2.413  12.478  3.5638  0.2321  1.8063
18868TIP3    H278096   0.306   2.557  12.464 -0.6996  1.4189 -0.2122
18869TIP3   OH278097   5.911   3.232  16.300 -0.0696 -0.0150 -0.2461
18869TIP3    H178098   5.964   3.153  16.313 -0.3405 -0.0407  0.7853
18869TIP3    H278099   5.970   3.304  16.322 -0.6209 -0.0721  1.4902
18870TIP3   OH278100   2.295   4.226   3.167  0.0705 -0.0598  0.6038
18870TIP3    H178101   2.238   4.237   3.243  0.1874 -0.7352  0.7966
18870TIP3    H278102   2.244   4.174   3.105 -0.5389  1.6721 -0.3572
18871TIP3   OH278103   5.164   1.957  12.566  0.0601 -0.1276 -0.4284
18871TIP3    H178104   5.197   1.990  12.482  2.6370 -1.5390 -0.0514
18871TIP3    H278105   5.204   2.014  12.631 -1.9126  0.9429 -0.1167
18872TIP3   OH278106   1.637   4.900   2.238 -0.1381 -0.3112  0.3378
18872TIP3    H178107   1.626   4.951   2.317  1.4917  1.8146 -0.7567
18872TIP3    H278108   1.731   4.880   2.235 -0.6004 -2.6475  0.2853
18873TIP3   OH278109   2.068   0.441   6.878  0.2011 -0.1959 -0.0165
18873TIP3    H178110   2.077   0.386   6.956 -0.5102  1.3285  1.1768
18873TIP3    H278111   2.033   0.383   6.811 -0.6370 -1.1820  1.2614
18874TIP3   OH278112   4.304   2.852  12.724 -0.2198 -0.2443 -0.4826
18874TIP3    H178113   4.266   2.774  12.762 -0.9980  0.0319 -0.6836
18874TIP3    H278114   4.234   2.917  12.726  0.3517  0.3844 -0.5093
18875TIP3   OH278115   6.110   5.262  10.850  0.5659 -0.0394  0.1408
18875TIP3    H178116   6.138   5.170  10.841 -0.5582 -0.2002 -1.7631
18875TIP3    H278117   6.024   5.265  10.810  0.4435  1.8084  0.5131
18876TIP3   OH278118   3.796   0.377  13.423  0.1101 -0.0415  1.0564
18876TIP3    H178119   3.851   0.298  13.422 -0.2253 -0.2948  1.9211
18876TIP3    H278120   3.707   0.344  13.415  0.0911  0.4011 -0.7907
18877TIP3   OH278121   0.600   4.836  13.129  0.1124  0.7222 -0.1970
18877TIP3    H178122   0.680   4.785  13.112 -0.4851 -0.9352  1.6919
18877TIP3    H278123   0.630   4.910  13.182  0.7648  1.4776 -1.6183
18878TIP3   OH278124   2.960   5.728  11.650  0.0111  0.4492 -0.0738
18878TIP3    H178125   3.002   5.795  11.596  1.2779 -1.4731 -1.5121
18878TIP3    H278126   3.024   5.709  11.718 -1.3033  2.3577  1.7852
18879TIP3   OH278127   0.303   5.081  11.194  0.2819  0.5357  0.4280
18879TIP3    H178128   0.281   5.115  11.107 -0.6701 -1.1851 -0.0273
18879TIP3    H278129   0.335   4.993  11.177 -1.6026 -0.4714  1.9608
18880TIP3   OH278130   5.856   3.467   2.971 -1.0536 -0.1721 -0.6956
18880TIP3    H178131   5.764   3.446   2.961 -0.6710 -1.2515 -2.1630
18880TIP3    H278132   5.873   3.535   2.905 -1.2894  1.6579  1.0797
18881TIP3   OH278133   6.434   2.299  17.090  0.0542  0.2562 -0.4402
18881TIP3    H178134   6.508   2.256  17.046 -0.2369  0.7988 -1.4733
18881TIP3    H278135   6.361   2.291  17.028 -0.2163  1.4928 -0.2997
18882TIP3   OH278136   1.663   6.244   1.499  0.3478  0.5830  0.4032
18882TIP3    H178137   1.571   6.249   1.474  0.7263  3.6788 -0.5408
18882TIP3    H278138   1.682   6.150   1.500 -1.7667 -0.0066 -3.3837
18883TIP3   OH278139   1.548   1.442  16.644  0.0372  0.4220  0.1665
18883TIP3    H178140   1.594   1.446  16.560  1.2173  2.1900  0.8459
18883TIP3    H278141   1.487   1.515  16.641 -1.9184 -1.1963 -0.2479
18884TIP3   OH278142   5.331   4.157  15.769  0.0247  0.3493  0.2879
18884TIP3    H178143   5.295   4.242  15.743  0.3580  0.5698  0.5473
18884TIP3    H278144   5.426   4.170  15.771  0.2556 -0.7437 -2.2134
18885TIP3   OH278145   0.132   4.825   6.094 -0.1985 -0.2854 -0.2375
18885TIP3    H178146   0.063   4.892   6.092  0.7837  0.7146 -2.1583
18885TIP3    H278147   0.200   4.859   6.036  1.6242 -1.5907  1.0836
18886TIP3   OH278148   5.214   0.603  16.273 -0.0630 -0.0679  0.5263
18886TIP3    H178149   5.246   0.641  16.191 -1.1677  0.2018  0.2052
18886TIP3    H278150   5.291   0.597  16.329  0.5264  0.6214 -0.2018
18887TIP3   OH278151   6.338   4.515  11.499  0.9519 -0.1750 -0.0755
18887TIP3    H178152   6.245   4.521  11.521  1.3995  2.1826  1.2962
18887TIP3    H278153   6.344   4.551  11.411  0.5764 -0.4369 -0.2131
18888TIP3   OH278154   2.778   4.757  12.802 -0.3636  0.5843  0.3440
18888TIP3    H178155   2.853   4.729  12.855 -0.9899  0.2129  1.0319
18888TIP3    H278156   2.817   4.783  12.718  0.4546 -0.3501  0.4259
18889TIP3   OH278157   0.743   4.317  16.059 -0.2094  0.6906  0.1044
18889TIP3    H178158   0.736   4.261  15.982  1.3118 -1.1804  1.2831
18889TIP3    H278159   0.662   4.302  16.108 -0.6421  0.9829 -0.5176
18890TIP3   OH278160   4.908   1.770  11.649  0.5247 -0.6497  0.1687
18890TIP3    H178161   4.975   1.726  11.702  0.0901  1.2030  2.3474
18890TIP3    H278162   4.919   1.863  11.668 -1.9863 -0.2260 -0.1865
18891TIP3   OH278163   6.526   4.922  17.247 -0.2403 -0.4131 -0.3830
18891TIP3    H178164   6.473   4.992  17.285 -0.1620 -2.2717  3.3133
18891TIP3    H278165   6.616   4.954  17.255 -0.2116 -0.8663  1.1933
18892TIP3   OH278166   0.203   0.404   0.696 -0.2685 -0.0422  0.4347
18892TIP3    H178167   0.292   0.388   0.729 -0.3645  3.4469  2.6489
18892TIP3    H278168   0.215   0.467   0.625 -0.9104 -0.3152  0.0853
18893TIP3   OH278169   6.629   6.731  15.524  0.0492  0.1743  0.0220
18893TIP3    H178170   6.610   6.639  15.505  0.6274 -0.0274  0.4266
18893TIP3    H278171   6.674   6.762  15.445 -0.1303  0.1077 -0.1089
18894TIP3   OH278172   4.196   4.623  11.975 -0.4080  0.6020  0.2444
18894TIP3    H178173   4.179   4.580  11.892 -0.4540  2.2760 -0.6423
18894TIP3    H278174   4.288   4.604  11.993 -0.7292 -0.8095  0.4525
18895TIP3   OH278175   6.446   5.293   3.200  0.1114 -0.5968  0.0405
18895TIP3    H178176   6.453   5.201   3.176  1.1287 -0.6359  0.4632
18895TIP3    H278177   6.354   5.315   3.185 -0.0376 -1.5592 -0.4828
18896TIP3   OH278178   6.208   4.618   1.128  0.0022 -0.3907 -0.2239
18896TIP3    H178179   6.234   4.620   1.220  0.0523 -2.4365 -0.1614
18896TIP3    H278180   6.145   4.545   1.122  0.2677 -0.5128 -1.8604
18897TIP3   OH278181   0.956   4.082   5.073  0.1605  0.2635  0.0508
18897TIP3    H178182   1.048   4.056   5.084  0.1799 -0.0305 -0.7716
18897TIP3    H278183   0.939   4.069   4.979 -1.1657 -1.1275  0.4622
18898TIP3   OH278184   3.184   3.981  17.156  0.2792  0.0736 -0.6183
18898TIP3    H178185   3.100   4.025  17.149  0.7585  1.2966  1.1184
18898TIP3    H278186   3.189   3.952  17.247  0.7003 -2.1058 -1.3089
18899TIP3   OH278187   2.311   5.166  14.382 -0.2176 -0.2961  0.2120
18899TIP3    H178188   2.386   5.107  14.380 -0.3579 -0.5200  1.3981
18899TIP3    H278189   2.338   5.241  14.329  0.8282 -0.3828  0.6106
18900TIP3   OH278190   5.095   0.464   5.358 -0.2089  0.0649 -0.1497
18900TIP3    H178191   5.172   0.433   5.406 -1.3044 -0.2693  1.4322
18900TIP3    H278192   5.085   0.403   5.286 -0.5777 -1.5141  1.2105
18901TIP3   OH278193   0.514   6.725  15.981  0.5273 -0.2710 -0.4196
18901TIP3    H178194   0.599   6.758  15.952  1.8738 -3.5476 -0.5190
18901TIP3    H278195   0.456   6.740  15.908  1.9013 -1.1202 -1.7162
18902TIP3   OH278196   2.180   6.026   1.226 -0.0991 -0.1652  0.4566
18902TIP3    H178197   2.146   5.998   1.141  0.4402  0.9210 -0.1344
18902TIP3    H278198   2.182   5.947   1.279  2.0531 -1.4053 -1.3973
18903TIP3   OH278199   6.104   5.988   5.387 -0.2449  0.7246 -0.1668
18903TIP3    H178200   6.138   5.987   5.476  1.0763 -0.8523 -0.6747
18903TIP3    H278201   6.017   6.029   5.395 -0.5608 -0.3046  1.9852
18904TIP3   OH278202   0.493   6.801   3.805 -0.2878  0.2458 -0.5844
18904TIP3    H178203   0.459   6.887   3.782 -0.6989  0.4465  0.7119
18904TIP3    H278204   0.569   6.819   3.860 -0.5412 -0.2128 -0.0747
18905TIP3   OH278205   0.746   0.603  13.755  0.2371 -0.1479 -0.0026
18905TIP3    H178206   0.806   0.532  13.778  1.1249  0.2592 -1.0239
18905TIP3    H278207   0.803   0.677  13.736 -0.6581  0.6713  0.4676
18906TIP3   OH278208   2.337   0.058  13.178 -0.1729 -0.0146  0.6905
18906TIP3    H178209   2.374   0.145  13.161  0.1736 -0.2442  0.2545
18906TIP3    H278210   2.269   0.046  13.112 -2.1850  1.0782  2.5042
18907TIP3   OH278211   1.759   1.928  16.630 -0.0853 -0.2291 -0.2779
18907TIP3    H178212   1.785   1.997  16.570  1.0243 -0.4609 -0.0655
18907TIP3    H278213   1.825   1.929  16.699 -1.0759 -0.3018  0.6739
18908TIP3   OH278214   3.219   1.037   3.537  0.1932  0.5734 -0.5139
18908TIP3    H178215   3.211   1.129   3.510 -2.4602  0.5028 -0.0617
18908TIP3    H278216   3.179   0.988   3.465  0.4111 -0.1534 -0.1395
18909TIP3   OH278217   2.067   1.468   2.136 -0.2519 -0.2063  0.1466
18909TIP3    H178218   2.099   1.422   2.213 -0.4557  0.7931  0.8436
18909TIP3    H278219   1.986   1.511   2.165  0.5655  1.5880 -0.1091
18910TIP3   OH278220   2.699   2.243   0.815 -0.4196  0.1407  0.2898
18910TIP3    H178221   2.688   2.277   0.726  0.8608 -0.9377 -0.2948
18910TIP3    H278222   2.774   2.184   0.809  0.1746  0.6477  2.2570
18911TIP3   OH278223   4.955   5.043  15.726  0.2613  0.6730  0.1574
18911TIP3    H178224   4.860   5.057  15.721  0.4376  1.2869 -1.6494
18911TIP3    H278225   4.988   5.123  15.768  0.1293  1.0825 -0.5155
18912TIP3   OH278226   0.954   0.775  16.069 -0.2577 -0.6590 -0.2937
18912TIP3    H178227   0.884   0.836  16.046  0.6121  0.3264 -0.3364
18912TIP3    H278228   0.993   0.812  16.148  0.3973 -1.0495 -0.4318
18913TIP3   OH278229   4.355   6.425  14.310 -0.0009  0.2519  0.0209
18913TIP3    H178230   4.437   6.434  14.261  0.2103  2.0052  0.6425
18913TIP3    H278231   4.308   6.508  14.294 -2.6395 -1.5608 -2.0630
18914TIP3   OH278232   2.392   0.961  16.356 -0.4770 -0.2563  0.6181
18914TIP3    H178233   2.397   1.056  16.366  0.2322 -0.0750 -1.3129
18914TIP3    H278234   2.444   0.927  16.429  0.9658  0.8903  0.1525
18915TIP3   OH278235   0.259   2.250   0.824  0.1282 -0.1379  0.2587
18915TIP3    H178236   0.261   2.155   0.833 -0.4871  0.0138  2.1745
18915TIP3    H278237   0.166   2.272   0.813  0.2392  0.2673  0.0971
18916TIP3   OH278238   5.673   0.280  11.476  0.0230 -0.6190 -0.6728
18916TIP3    H178239   5.757   0.306  11.438 -0.3662 -1.1855 -1.9761
18916TIP3    H278240   5.694   0.254  11.565  1.2456 -0.7896 -0.9922
18917TIP3   OH278241   6.074   6.491  16.977 -0.0433  0.1832  0.3130
18917TIP3    H178242   6.141   6.558  16.993  0.0840 -0.0357  0.6975
18917TIP3    H278243   5.992   6.536  16.997  0.1093 -0.0704  1.5521
18918TIP3   OH278244   5.792   0.675   1.421 -0.2178 -0.1929 -0.0100
18918TIP3    H178245   5.717   0.654   1.477 -0.1241  1.3649  0.7375
18918TIP3    H278246   5.868   0.655   1.475 -0.0718 -2.0263 -0.8635
18919TIP3   OH278247   0.938   6.240  13.048  0.1177  0.4044  0.4548
18919TIP3    H178248   0.964   6.328  13.020  1.0425  0.2191  0.6902
18919TIP3    H278249   0.857   6.252  13.097 -2.9540  0.4987 -4.3422
18920TIP3   OH278250   6.380   1.904   1.686  0.3976 -0.2940  0.1378
18920TIP3    H178251   6.387   1.996   1.660  0.2840 -0.0734  0.8798
18920TIP3    H278252   6.469   1.877   1.706  0.4434 -0.3795 -0.1671
18921TIP3   OH278253   4.405   0.470  14.019 -0.3933 -0.2403 -0.2253
18921TIP3    H178254   4.312   0.477  14.000 -0.1401 -0.2172 -1.5045
18921TIP3    H278255   4.433   0.391  13.974  0.4573  0.4300 -0.8873
18922TIP3   OH278256   1.741   1.751  16.418  0.3332  0.1620  0.2686
18922TIP3    H178257   1.719   1.825  16.362  1.6723  0.1989 -0.2382
18922TIP3    H278258   1.748   1.788  16.506 -2.1053  0.0431  0.5361
18923TIP3   OH278259   3.107   1.495   4.194 -0.2546 -0.2340  0.1586
18923TIP3    H178260   3.127   1.552   4.268 -0.9455 -0.6714  0.6913
18923TIP3    H278261   3.180   1.508   4.133  0.1756  0.3384  0.7865
18924TIP3   OH278262   5.664   6.690  11.970  0.1259 -0.0424 -0.2617
18924TIP3    H178263   5.705   6.730  11.893 -1.3691 -0.0092 -1.0629
18924TIP3    H278264   5.684   6.597  11.962 -1.1951 -0.2495 -1.4712
18925TIP3   OH278265   1.343   2.200   2.211  0.0455  0.1190  0.2467
18925TIP3    H178266   1.356   2.147   2.132 -0.6335 -0.0121  0.2175
18925TIP3    H278267   1.262   2.166   2.249  0.1861  0.4141  0.8159
18926TIP3   OH278268   0.584   2.731  12.087  0.2315 -0.1511 -0.2044
18926TIP3    H178269   0.501   2.762  12.124  0.5981  1.0903 -0.4007
18926TIP3    H278270   0.600   2.790  12.014  1.8370  0.2813  0.4914
18927TIP3   OH278271   0.388   4.113  13.080  0.1176 -0.0116  0.1506
18927TIP3    H178272   0.406   4.019  13.070  1.1999  0.4044 -2.0268
18927TIP3    H278273   0.462   4.146  13.132  0.7545 -0.0204 -0.7428
18928TIP3   OH278274   4.222   4.480   0.063 -0.1709  0.0274  0.7074
18928TIP3    H178275   4.234   4.574   0.073 -0.6363  0.1451  0.1732
18928TIP3    H278276   4.310   4.447   0.044  0.1440  0.2330  1.8023
18929TIP3   OH278277   0.526   6.717  14.379  0.5329 -0.7941  0.0962
18929TIP3    H178278   0.564   6.644  14.331  0.5783 -2.8580  3.1665
18929TIP3    H278279   0.600   6.776  14.396  1.0527 -1.4707  0.1611
18930TIP3   OH278280   6.436   5.907   2.838  0.3305  0.1283 -0.1998
18930TIP3    H178281   6.507   5.864   2.791  2.2519  0.1632  2.5864
18930TIP3    H278282   6.477   5.983   2.880 -1.9308  1.7250 -0.7886
18931TIP3   OH278283   4.862   4.630   1.161 -0.6229 -0.0132  0.3579
18931TIP3    H178284   4.901   4.672   1.084  1.4526  0.7320  1.7925
18931TIP3    H278285   4.871   4.536   1.144  0.1893  0.1521 -0.1294
18932TIP3   OH278286   0.246   0.070   5.717 -0.0380 -0.0123  0.6559
18932TIP3    H178287   0.180   0.139   5.727  0.4574  0.4894  0.5388
18932TIP3    H278288   0.321   0.115   5.677  0.1209 -0.7268  0.1528
18933TIP3   OH278289   4.016   2.563  12.698 -0.2216 -0.0904 -0.0145
18933TIP3    H178290   3.979   2.648  12.722  0.1411 -0.3651  1.6224
18933TIP3    H278291   4.099   2.559  12.746 -0.2579 -1.3848 -0.0410
18934TIP3   OH278292   0.149   2.473   3.118  0.3359 -0.5322  0.5755
18934TIP3    H178293   0.082   2.431   3.172  0.2254  0.9369  1.6133
18934TIP3    H278294   0.197   2.401   3.078 -0.8378 -1.6110  1.0988
18935TIP3   OH278295   5.963   2.720   3.391  0.2342  0.2787 -0.0194
18935TIP3    H178296   6.050   2.723   3.350 -0.0918 -1.8525 -0.9138
18935TIP3    H278297   5.906   2.764   3.327  0.5180  1.0385  0.2431
18936TIP3   OH278298   0.648   5.385  14.262 -0.5582 -0.2623  0.3292
18936TIP3    H178299   0.607   5.362  14.179 -0.3254 -1.2379  0.4787
18936TIP3    H278300   0.651   5.303  14.312  1.4565 -0.1994  0.3705
18937TIP3   OH278301   6.781   2.180   3.656 -0.1498  0.3566 -0.3057
18937TIP3    H178302   6.816   2.110   3.600  2.9036  1.6618 -0.1385
18937TIP3    H278303   6.698   2.204   3.615  0.5759 -0.7608 -2.5465
18938TIP3   OH278304   6.325   1.296   2.501 -0.0194  0.5816  0.6661
18938TIP3    H178305   6.280   1.363   2.450 -0.0567 -0.4232 -0.6408
18938TIP3    H278306   6.355   1.232   2.436 -1.9043 -1.8146  2.0590
18939TIP3   OH278307   4.009   2.392  14.862 -0.0671  0.6161  0.0920
18939TIP3    H178308   4.083   2.344  14.901  0.1535 -0.1905 -1.2715
18939TIP3    H278309   4.029   2.484  14.876  1.2704  0.4040 -0.3680
18940TIP3   OH278310   4.446   6.626   1.260 -0.2282  0.0736  0.0019
18940TIP3    H178311   4.465   6.635   1.166  1.9393  0.2471  0.4377
18940TIP3    H278312   4.376   6.561   1.264  0.0242 -0.3286 -1.6975
18941TIP3   OH278313   2.852   5.719  16.378  0.2850  0.1180 -0.3135
18941TIP3    H178314   2.761   5.703  16.357  1.1930 -3.5869 -1.7332
18941TIP3    H278315   2.882   5.639  16.421  2.9077  1.1665 -0.0751
18942TIP3   OH278316   3.495   3.584   0.671  0.2625 -0.1534  0.1964
18942TIP3    H178317   3.553   3.646   0.628  0.6331 -0.9285 -0.4383
18942TIP3    H278318   3.423   3.637   0.705 -0.5039  0.3651 -2.1600
18943TIP3   OH278319   3.832   5.682  10.656  0.1691  0.3924 -0.0071
18943TIP3    H178320   3.808   5.593  10.681 -3.5430  0.7541 -1.8532
18943TIP3    H278321   3.881   5.672  10.575  0.8631 -0.0360  0.4645
18944TIP3   OH278322   4.016   6.523  16.990  0.3661 -0.0439 -0.6090
18944TIP3    H178323   4.043   6.434  16.969  1.2576 -0.2337  1.2436
18944TIP3    H278324   4.079   6.579  16.943  1.1726 -0.4276 -0.0015
18945TIP3   OH278325   1.778   3.783   5.094 -0.1141  0.1493 -0.2676
18945TIP3    H178326   1.824   3.858   5.132 -0.9601  0.2396  0.5851
18945TIP3    H278327   1.841   3.711   5.099 -0.2655  0.1096  1.4953
18946TIP3   OH278328   5.248   0.904  16.709 -0.3207  0.6565 -0.2675
18946TIP3    H178329   5.244   0.820  16.664 -1.7594  0.7469 -0.3368
18946TIP3    H278330   5.332   0.942  16.683  0.1643 -0.5869 -0.5297
18947TIP3   OH278331   2.380   0.623   6.138 -0.4293 -0.1244 -0.2711
18947TIP3    H178332   2.462   0.663   6.111 -0.6289  0.4153 -0.0935
18947TIP3    H278333   2.405   0.545   6.186  0.0016  0.3971  0.3614
18948TIP3   OH278334   2.400   0.974  14.692  0.4744 -0.2046  0.4276
18948TIP3    H178335   2.467   1.008  14.633 -1.8980  0.1113 -2.1682
18948TIP3    H278336   2.317   0.998  14.651 -1.2675 -1.1139  3.2476
18949TIP3   OH278337   3.836   6.083   1.931 -0.2575  0.3374  0.2706
18949TIP3    H178338   3.876   6.150   1.986 -0.1961  0.9127 -0.4634
18949TIP3    H278339   3.905   6.017   1.920  0.3630  1.1213 -0.6434
18950TIP3   OH278340   5.897   3.329  14.607 -0.9158  0.4003 -0.1199
18950TIP3    H178341   5.852   3.264  14.553 -1.6372  0.3626  0.5077
18950TIP3    H278342   5.985   3.294  14.619 -1.3474 -0.5448  0.3423
18951TIP3   OH278343   6.609   5.389   1.459 -0.2930 -0.0751  0.8658
18951TIP3    H178344   6.639   5.424   1.543  0.2820 -1.7295  1.3620
18951TIP3    H278345   6.576   5.302   1.479  0.0631 -0.5759 -0.6733
18952TIP3   OH278346   0.458   6.557   4.409  0.8758  0.6506 -0.8141
18952TIP3    H178347   0.372   6.519   4.429  0.0405  1.5828 -2.5688
18952TIP3    H278348   0.481   6.607   4.487 -0.4624  0.9027 -0.5679
18953TIP3   OH278349   1.133   4.705   4.725  0.3966 -0.3568 -0.0964
18953TIP3    H178350   1.161   4.673   4.639 -0.9164  1.0905 -1.1082
18953TIP3    H278351   1.165   4.639   4.787  2.4928 -0.7670 -1.5486
18954TIP3   OH278352   3.747   2.927  11.119  0.0798 -0.0934 -0.4682
18954TIP3    H178353   3.786   2.851  11.077 -1.5147 -0.1019 -2.0059
18954TIP3    H278354   3.762   2.999  11.057 -0.9618  0.2146 -0.3821
18955TIP3   OH278355   4.795   5.716  10.676  0.2740 -0.0499  0.0447
18955TIP3    H178356   4.884   5.682  10.675  0.2966 -0.0883 -3.8514
18955TIP3    H278357   4.804   5.808  10.652 -0.6353  0.2529  0.8478
18956TIP3   OH278358   2.189   1.467   1.889  0.3693  0.1516 -0.7400
18956TIP3    H178359   2.148   1.459   1.975 -0.5044 -1.4658 -1.2960
18956TIP3    H278360   2.235   1.551   1.892  0.3944  0.0773  1.3233
18957TIP3   OH278361   5.517   0.390  11.286 -0.3352  0.3508  0.1200
18957TIP3    H178362   5.573   0.363  11.359 -2.5786  2.1405  2.5983
18957TIP3    H278363   5.502   0.483  11.301 -1.6473  0.5346 -2.1184
18958TIP3   OH278364   6.522   5.276   4.037  0.3852 -0.5632  0.5608
18958TIP3    H178365   6.515   5.196   4.088 -0.0847 -1.0648 -0.2728
18958TIP3    H278366   6.610   5.273   4.000  0.7868 -0.1173  1.4602
18959TIP3   OH278367   1.051   1.926   1.720  0.6281  0.0328  0.6882
18959TIP3    H178368   1.064   1.833   1.736 -0.8023 -0.3974 -0.5010
18959TIP3    H278369   1.039   1.964   1.807  0.6242 -0.9910  1.1402
18960TIP3   OH278370   0.435   5.890   6.005  0.1415  0.0440 -0.2547
18960TIP3    H178371   0.496   5.901   5.931 -1.2893 -0.3201 -1.5002
18960TIP3    H278372   0.470   5.947   6.073  0.9038  1.1715 -1.5730
18961TIP3   OH278373   4.476   2.101  15.915  0.2847 -0.1681 -0.2174
18961TIP3    H178374   4.453   2.079  16.005 -0.5976  3.7381  0.6148
18961TIP3    H278375   4.436   2.186  15.900  1.4730 -0.1630 -3.9181
18962TIP3   OH278376   2.317   3.146  16.096 -0.3041  0.0369  0.6464
18962TIP3    H178377   2.338   3.053  16.102  1.1348  0.3380  0.4635
18962TIP3    H278378   2.222   3.148  16.081 -0.0393 -1.4489 -1.4469
18963TIP3   OH278379   1.932   1.750  11.314  0.3641 -0.7043 -0.4498
18963TIP3    H178380   1.955   1.763  11.406  0.6942 -0.4360 -0.5671
18963TIP3    H278381   2.014   1.723  11.272  0.1820 -0.9645 -0.6366
18964TIP3   OH278382   1.709   4.355   2.825  0.3169 -0.0782  0.1092
18964TIP3    H178383   1.707   4.354   2.730  3.8390  1.1259 -0.0388
18964TIP3    H278384   1.690   4.446   2.849  0.3487 -0.1804  0.5346
18965TIP3   OH278385   3.765   4.168   0.515  0.3011 -0.1046 -0.0599
18965TIP3    H178386   3.749   4.077   0.491 -3.6154  0.0391  1.6494
18965TIP3    H278387   3.730   4.219   0.442  0.3445  0.0915  0.0555
18966TIP3   OH278388   0.646   3.929  10.879 -0.5413  0.4498 -0.3756
18966TIP3    H178389   0.638   3.840  10.914  0.0576  0.1589 -0.9587
18966TIP3    H278390   0.715   3.970  10.932 -0.5930  0.4626 -0.3177
18967TIP3   OH278391   2.386   1.628   6.392  0.4828  0.2128 -0.8115
18967TIP3    H178392   2.407   1.577   6.314  1.9731 -0.4228 -0.0362
18967TIP3    H278393   2.291   1.629   6.396  0.4044 -2.2561 -1.0296
18968TIP3   OH278394   4.656   1.696  16.457 -0.0501  0.7397  0.6557
18968TIP3    H178395   4.669   1.602  16.467 -1.0239  0.6762  1.4392
18968TIP3    H278396   4.577   1.714  16.508  0.3265  2.0373  0.7858
18969TIP3   OH278397   3.864   4.739   2.317 -0.0579  0.4865 -0.4325
18969TIP3    H178398   3.895   4.655   2.282  0.2449  0.3888  0.0679
18969TIP3    H278399   3.769   4.730   2.320 -0.0265  0.1652 -0.3876
18970TIP3   OH278400   6.388   1.644   5.562 -0.3140  0.1508 -0.0769
18970TIP3    H178401   6.295   1.651   5.584 -0.4607  0.9434 -0.9190
18970TIP3    H278402   6.391   1.657   5.467  0.9130  2.8251  0.2903
18971TIP3   OH278403   2.359   5.665  11.043 -0.2528  0.3690  0.1622
18971TIP3    H178404   2.311   5.650  10.961 -0.7105  0.7344  0.3626
18971TIP3    H278405   2.449   5.681  11.015 -0.4301  0.6220 -0.2828
18972TIP3   OH278406   2.028   1.250  13.485 -0.2373  0.2435 -0.0743
18972TIP3    H178407   2.019   1.345  13.492 -0.8827  0.0729  1.3630
18972TIP3    H278408   2.114   1.231  13.522 -0.2902  0.2099  0.0300
18973TIP3   OH278409   2.966   3.282  13.049  0.0787 -0.3904 -0.1337
18973TIP3    H178410   2.933   3.317  13.131  0.8913  0.3809 -0.1231
18973TIP3    H278411   2.955   3.187  13.056 -1.3409 -0.2092  0.2006
18974TIP3   OH278412   3.793   5.110   4.093  0.0534  0.1251 -0.1085
18974TIP3    H178413   3.723   5.112   4.028 -0.8634  1.2487  0.8965
18974TIP3    H278414   3.857   5.048   4.058 -1.0562 -0.2810 -1.4276
18975TIP3   OH278415   4.584   3.190  13.446 -0.3300  0.3602  0.5669
18975TIP3    H178416   4.497   3.200  13.407  0.8612  0.8369 -2.0836
18975TIP3    H278417   4.621   3.279  13.445  1.2715 -0.2937 -1.0286
18976TIP3   OH278418   1.742   1.910   4.512  0.1352 -0.3166 -0.4992
18976TIP3    H178419   1.781   1.971   4.574 -0.9661 -0.6464  0.5361
18976TIP3    H278420   1.816   1.880   4.459  1.1385 -0.2228  0.8134
18977TIP3   OH278421   4.537   0.901  17.104 -0.1786 -0.7004 -0.1881
18977TIP3    H178422   4.578   0.915  17.189  1.0379  1.1264 -1.0522
18977TIP3    H278423   4.610   0.884  17.044 -0.9266 -0.6470 -1.1317
18978TIP3   OH278424   3.921   3.160   2.505  0.0407 -0.1320  0.4035
18978TIP3    H178425   3.950   3.151   2.595 -0.5891 -1.2415  0.5126
18978TIP3    H278426   3.980   3.225   2.466  0.1961  0.4731  1.6530
18979TIP3   OH278427   5.723   5.348  16.638  0.0030  0.3105  0.1621
18979TIP3    H178428   5.648   5.334  16.581  0.6460 -1.6657 -0.2362
18979TIP3    H278429   5.697   5.312  16.723  0.1991  0.3711  0.2489
18980TIP3   OH278430   3.751   0.660   1.438  0.5260 -0.1409 -0.1232
18980TIP3    H178431   3.674   0.608   1.417  1.4852 -1.2462 -0.9890
18980TIP3    H278432   3.820   0.626   1.381  1.5945  1.0057  0.4380
18981TIP3   OH278433   1.598   4.019  16.376  0.3215 -0.2892 -0.7538
18981TIP3    H178434   1.558   3.937  16.406 -0.8140  1.0715  1.6031
18981TIP3    H278435   1.528   4.084  16.380  1.6117  1.1627 -1.0046
18982TIP3   OH278436   6.713   6.796   0.546  0.4801 -0.1622  0.1998
18982TIP3    H178437   6.622   6.796   0.575  1.0293 -0.7673  1.9364
18982TIP3    H278438   6.739   6.888   0.550  0.4106 -0.1834  1.1760
18983TIP3   OH278439   3.986   3.351   5.098  0.3056 -0.5135  0.1380
18983TIP3    H178440   3.954   3.401   5.022 -0.3196  0.0017  0.7348
18983TIP3    H278441   3.990   3.261   5.067 -0.6260 -0.4155 -0.3000
18984TIP3   OH278442   5.275   6.015  15.274  0.0104  0.4903  0.0627
18984TIP3    H178443   5.281   6.061  15.190  2.3774  1.3403  0.6492
18984TIP3    H278444   5.287   6.084  15.339 -0.2299 -0.3946  1.0509
18985TIP3   OH278445   0.745   2.346   4.255  0.1304 -0.1264 -0.2481
18985TIP3    H178446   0.788   2.261   4.266  0.6775 -0.1820 -2.7055
18985TIP3    H278447   0.664   2.338   4.306  1.1449 -1.3690  1.2386
18986TIP3   OH278448   5.141   2.979  10.703 -0.2443 -0.3993 -0.0903
18986TIP3    H178449   5.075   2.912  10.689  0.9194 -1.1527 -2.1914
18986TIP3    H278450   5.182   2.991  10.618  1.7456  0.6747  0.9720
18987TIP3   OH278451   0.842   4.227   4.655 -0.8139 -0.3092  0.2721
18987TIP3    H178452   0.765   4.207   4.602  0.1950 -0.9403 -1.0070
18987TIP3    H278453   0.905   4.264   4.593 -0.5105  1.3207  1.5224
18988TIP3   OH278454   2.091   3.456  16.904  0.8185  0.4255  0.0237
18988TIP3    H178455   2.099   3.545  16.938  3.8078  0.1506  0.1307
18988TIP3    H278456   2.060   3.404  16.978 -0.5889  1.2951  0.0615
18989TIP3   OH278457   1.064   6.454  11.461 -0.9259 -0.1744 -0.3886
18989TIP3    H178458   1.152   6.439  11.496 -1.5183  0.1865  1.3045
18989TIP3    H278459   1.035   6.368  11.430 -0.5560 -0.5834  0.4037
18990TIP3   OH278460   2.368   3.706   1.979 -0.2077  0.4738  0.4732
18990TIP3    H178461   2.366   3.615   1.949 -0.6029  0.1771  1.3772
18990TIP3    H278462   2.426   3.705   2.056  2.4425  1.5929 -1.4468
18991TIP3   OH278463   0.908   5.299  14.176  0.4581  0.6185 -0.2908
18991TIP3    H178464   0.936   5.335  14.092 -1.2086  0.7847 -0.7957
18991TIP3    H278465   0.840   5.235  14.153 -1.8514  2.5186  1.0571
18992TIP3   OH278466   3.604   5.411   4.559 -0.1633 -0.1232 -0.3904
18992TIP3    H178467   3.574   5.338   4.504  0.6130  0.0573 -1.0720
18992TIP3    H278468   3.699   5.398   4.565 -0.3636 -0.7857  1.8780
18993TIP3   OH278469   6.730   5.201  13.626  0.3887  0.5602  0.1697
18993TIP3    H178470   6.818   5.163  13.624  0.6509  1.1792 -0.4539
18993TIP3    H278471   6.671   5.126  13.630  0.8507  0.0394 -2.0050
18994TIP3   OH278472   4.202   2.150   1.306 -0.3596  0.1979  0.0295
18994TIP3    H178473   4.168   2.159   1.217  0.3663  0.0013 -0.2771
18994TIP3    H278474   4.267   2.220   1.314  0.9424 -0.9541 -0.2577
18995TIP3   OH278475   1.410   1.095   3.700  0.1484  0.6165 -0.2898
18995TIP3    H178476   1.343   1.080   3.767  1.0555  1.1104  0.7420
18995TIP3    H278477   1.365   1.145   3.633 -0.8746 -0.2117 -0.2353
18996TIP3   OH278478   3.686   1.872   3.037 -0.4106 -0.5142 -0.3511
18996TIP3    H178479   3.716   1.951   3.081 -1.6625 -1.1807  1.7663
18996TIP3    H278480   3.652   1.902   2.953  0.9096  0.9251 -0.3890
18997TIP3   OH278481   4.784   6.233  12.608  0.0890  0.3359  0.1124
18997TIP3    H178482   4.799   6.282  12.689 -0.5575  2.1956 -0.8408
18997TIP3    H278483   4.746   6.150  12.636  0.5676  0.6546  1.7503
18998TIP3   OH278484   4.214   6.205   3.314  0.8416 -0.0708 -0.0779
18998TIP3    H178485   4.207   6.280   3.255  0.8549 -0.1427 -0.1714
18998TIP3    H278486   4.181   6.238   3.398 -1.9106 -0.7823 -0.8443
18999TIP3   OH278487   6.142   0.223  15.215  0.3647 -0.3894  0.6535
18999TIP3    H178488   6.222   0.221  15.267 -0.8095 -0.7972  2.4880
18999TIP3    H278489   6.075   0.257  15.275 -1.0380 -1.0147 -0.5303
19000TIP3   OH278490   0.711   0.889  16.721 -0.0845  0.3202 -0.4503
19000TIP3    H178491   0.772   0.850  16.784 -0.1647  0.5979 -0.1971
19000TIP3    H278492   0.664   0.955  16.772 -0.4290  0.2706 -0.7052
19001TIP3   OH278493   5.638   5.045   4.543  0.4879  0.3189  0.1070
19001TIP3    H178494   5.604   5.123   4.587  0.7575  0.8459 -0.6005
19001TIP3    H278495   5.589   5.041   4.461  1.6656  0.7377 -0.6466
19002TIP3   OH278496   2.415   2.258   4.493 -0.1416 -0.1852 -0.1091
19002TIP3    H178497   2.417   2.244   4.399 -0.8243 -0.4730 -0.0809
19002TIP3    H278498   2.452   2.178   4.530  1.8382  0.6586 -0.1964
19003TIP3   OH278499   6.443   1.191  17.067  0.1698  0.0524 -0.5942
19003TIP3    H178500   6.395   1.231  17.140 -1.5521 -1.4477 -0.8633
19003TIP3    H278501   6.527   1.166  17.103 -1.8022 -3.5724  1.7968
19004TIP3   OH278502   3.317   0.230   5.384  0.1521 -0.1246 -0.4140
19004TIP3    H178503   3.229   0.268   5.380  0.9907  2.2814  2.1972
19004TIP3    H278504   3.354   0.245   5.298 -0.9220  1.5831 -0.5867
19005TIP3   OH278505   3.334   2.233   6.348 -0.1035  0.1901 -0.0298
19005TIP3    H178506   3.327   2.247   6.443  0.1973 -4.7354  0.8178
19005TIP3    H278507   3.427   2.241   6.329 -0.0811  0.4325  0.1683
19006TIP3   OH278508   3.005   5.392  14.372 -0.1698 -0.0270 -0.0552
19006TIP3    H178509   2.961   5.458  14.318 -0.7635  0.0796  0.5607
19006TIP3    H278510   3.098   5.417  14.368 -0.2423  0.1414 -0.8027
19007TIP3   OH278511   6.149   0.709   5.303 -0.0180  0.5119 -0.1570
19007TIP3    H178512   6.226   0.717   5.247  0.3299  1.3618  0.4299
19007TIP3    H278513   6.100   0.790   5.286 -0.5372  0.1923 -0.1702
19008TIP3   OH278514   0.369   6.351  13.592 -0.0148  0.1403 -0.6647
19008TIP3    H178515   0.287   6.364  13.544 -1.3524  2.4397  2.1212
19008TIP3    H278516   0.342   6.309  13.674  1.6100  0.9052  0.2647
19009TIP3   OH278517   2.866   1.817  14.362  0.3332 -0.0624  0.3103
19009TIP3    H178518   2.856   1.899  14.411 -1.9050  0.4904 -0.9862
19009TIP3    H278519   2.917   1.842  14.284  0.9175 -0.2283  0.6330
19010TIP3   OH278520   4.038   0.536  16.699  0.6401  0.4095 -0.5926
19010TIP3    H178521   4.101   0.555  16.630  1.1163 -0.4155 -0.3889
19010TIP3    H278522   4.024   0.442  16.693  0.4597  0.3807  0.2491
19011TIP3   OH278523   4.938   0.432   5.063  0.3659 -0.6667 -0.5166
19011TIP3    H178524   4.945   0.337   5.052 -2.4078 -1.1072  1.0422
19011TIP3    H278525   4.888   0.461   4.987  1.5577 -0.3871 -1.1993
19012TIP3   OH278526   6.163   3.551  11.715  0.4772  0.2448  0.3389
19012TIP3    H178527   6.112   3.631  11.704  0.4331  0.1613 -0.0829
19012TIP3    H278528   6.194   3.554  11.805 -1.3611 -0.3439  1.0005
19013TIP3   OH278529   0.054   4.028   1.611 -0.7580 -0.2162  0.3752
19013TIP3    H178530   0.002   3.960   1.568  1.1003 -0.9832 -0.7345
19013TIP3    H278531   0.109   3.980   1.674  1.4684  0.0667 -1.2999
19014TIP3   OH278532   4.583   3.392  12.359 -0.2034  0.1418 -0.3854
19014TIP3    H178533   4.655   3.358  12.305  0.3989  0.3048  0.3130
19014TIP3    H278534   4.535   3.450  12.300 -1.7384 -2.5235 -1.8427
19015TIP3   OH278535   5.760   6.770  12.630 -0.3149  0.3243 -0.5323
19015TIP3    H178536   5.691   6.773  12.564 -0.7278 -1.0104 -0.1869
19015TIP3    H278537   5.828   6.827  12.596 -2.5523  3.5722  0.2738
19016TIP3   OH278538   5.839   6.724  12.987  0.1277  0.7108 -0.0658
19016TIP3    H178539   5.896   6.733  13.063  0.0860  1.5963 -0.1279
19016TIP3    H278540   5.880   6.780  12.920 -1.5881  2.5122  0.3521
19017TIP3   OH278541   5.274   2.219  11.180  0.6217 -0.0545 -0.1921
19017TIP3    H178542   5.186   2.183  11.177  0.8995 -1.1986  3.0841
19017TIP3    H278543   5.274   2.276  11.257  2.7950 -0.2492 -0.0058
19018TIP3   OH278544   5.109   6.468  16.174  0.1863 -0.4780  0.7164
19018TIP3    H178545   5.077   6.492  16.261  0.9713 -0.0016  0.8705
19018TIP3    H278546   5.057   6.521  16.114 -1.1638 -1.6373  0.8190
19019TIP3   OH278547   3.381   5.008  12.307 -0.1583  0.2017 -0.2911
19019TIP3    H178548   3.431   4.993  12.227  0.3760 -0.9895  0.2531
19019TIP3    H278549   3.446   5.038  12.370 -0.4064  0.1464 -0.0107
19020TIP3   OH278550   0.660   4.599   1.913 -0.3320 -0.2839  0.2539
19020TIP3    H178551   0.688   4.514   1.947  0.2655 -0.6587 -1.1006
19020TIP3    H278552   0.619   4.642   1.987 -2.1601 -2.4278  0.5472
19021TIP3   OH278553   2.092   1.013  14.760 -0.0770  0.2955  0.4036
19021TIP3    H178554   2.158   0.991  14.825 -1.0871 -2.1068  0.6614
19021TIP3    H278555   2.010   1.017  14.810 -0.3870  1.7435 -0.1779
19022TIP3   OH278556   5.632   4.251  13.306 -0.3260  0.0386  0.0865
19022TIP3    H178557   5.628   4.248  13.402 -0.1436 -1.5972  0.0632
19022TIP3    H278558   5.720   4.284  13.287 -1.1932  2.6496  0.4726
19023TIP3   OH278559   4.308   2.610  12.509 -0.4393  0.0124 -0.0913
19023TIP3    H178560   4.334   2.570  12.592  0.0047 -0.3012 -0.3786
19023TIP3    H278561   4.250   2.682  12.534  1.4290  1.3138  0.6017
19024TIP3   OH278562   5.671   4.157   2.687  0.7709 -0.1130  0.1004
19024TIP3    H178563   5.705   4.245   2.703 -0.9852  0.4058  1.0671
19024TIP3    H278564   5.577   4.169   2.674  0.6575 -1.7396 -0.6585
19025TIP3   OH278565   1.035   0.584  16.381 -0.2646  0.1938 -0.6667
19025TIP3    H178566   0.959   0.642  16.392  0.6704  2.0359 -3.4166
19025TIP3    H278567   1.109   0.637  16.410  0.1575 -1.0653  0.5769
19026TIP3   OH278568   4.938   4.459  12.174  0.1258 -0.3347  0.3700
19026TIP3    H178569   4.962   4.419  12.090 -0.6761  2.6077 -1.3356
19026TIP3    H278570   4.885   4.393  12.218 -1.8129 -0.8877 -2.6858
19027TIP3   OH278571   4.884   0.100   5.659 -0.5952  0.6878  0.7469
19027TIP3    H178572   4.896   0.180   5.607 -0.9721  0.6754  0.6436
19027TIP3    H278573   4.972   0.080   5.692  0.0767 -0.5004 -1.6104
19028TIP3   OH278574   5.237   3.382  15.430 -0.1090 -0.1858  0.0777
19028TIP3    H178575   5.266   3.460  15.476 -0.5074 -0.1107  0.2010
19028TIP3    H278576   5.210   3.413  15.344  2.0439 -0.5346 -0.7479
19029TIP3   OH278577   5.323   4.941  11.277 -0.2211  0.4456 -0.2166
19029TIP3    H178578   5.252   4.929  11.214 -0.7001  0.8654  0.2315
19029TIP3    H278579   5.331   4.856  11.321  0.1798  0.1270 -0.9109
19030TIP3   OH278580   6.663   1.373  16.713 -0.2441  0.3653 -0.3138
19030TIP3    H178581   6.720   1.300  16.736 -1.0630 -0.2372 -0.2061
19030TIP3    H278582   6.702   1.449  16.757  0.0834 -0.1713  0.3132
19031TIP3   OH278583   4.131   1.463   6.524  0.0793  0.7746 -0.0572
19031TIP3    H178584   4.144   1.389   6.583  1.4517  0.9350 -0.1406
19031TIP3    H278585   4.044   1.449   6.487  0.0531 -0.4364  0.4314
19032TIP3   OH278586   4.336   5.251  15.929  0.1256  0.5918  0.3185
19032TIP3    H178587   4.420   5.231  15.971 -0.4882  0.2059  1.4015
19032TIP3    H278588   4.274   5.192  15.971 -0.7849  1.2414 -0.0958
19033TIP3   OH278589   4.161   0.457  15.655  0.0412  0.0550  0.7597
19033TIP3    H178590   4.179   0.540  15.611  3.4252 -1.8096 -1.6418
19033TIP3    H278591   4.110   0.407  15.591  2.2049 -1.4638  0.1672
19034TIP3   OH278592   4.690   0.883  14.356  0.0836 -0.4214 -0.0022
19034TIP3    H178593   4.703   0.934  14.276 -1.0439 -0.6061 -0.3092
19034TIP3    H278594   4.762   0.820  14.355  1.3303  0.9777  0.2512
19035TIP3   OH278595   5.500   3.893  14.173  0.3795 -0.0817  0.1773
19035TIP3    H178596   5.547   3.975  14.170 -0.7640  0.5338 -1.9995
19035TIP3    H278597   5.555   3.831  14.126  0.5832 -0.2064  0.5791
19036TIP3   OH278598   3.680   5.225  16.554 -0.0185 -0.2975  0.7973
19036TIP3    H178599   3.598   5.209  16.600 -0.6010 -0.9093 -0.4338
19036TIP3    H278600   3.736   5.268  16.619 -0.7831 -1.2250  2.0919
19037TIP3   OH278601   2.538   0.613   6.404  0.1837  0.3234  0.6376
19037TIP3    H178602   2.590   0.630   6.483  0.7385 -1.4491  0.6800
19037TIP3    H278603   2.574   0.672   6.338  1.0077  0.4456  1.1863
19038TIP3   OH278604   2.109   0.784   3.741  0.2657  0.0735  0.5449
19038TIP3    H178605   2.076   0.762   3.653  0.5728 -0.7023  0.6186
19038TIP3    H278606   2.042   0.840   3.778 -1.2448 -1.9300  0.8980
19039TIP3   OH278607   3.483   4.458  14.536  0.5901 -0.0224  1.3418
19039TIP3    H178608   3.449   4.454  14.447 -1.3060 -1.1816  2.0847
19039TIP3    H278609   3.444   4.537  14.574  1.3894  0.4673  1.1658
19040TIP3   OH278610   5.346   1.938   5.034 -0.1626  0.3552  0.4160
19040TIP3    H178611   5.420   1.947   4.974  0.0713  2.4854  0.9601
19040TIP3    H278612   5.357   1.852   5.075  0.5329 -0.4499 -1.4258
19041TIP3   OH278613   0.164   5.711   2.980 -0.1939  0.2543  0.7408
19041TIP3    H178614   0.126   5.735   2.895  3.2973  0.9761 -0.6970
19041TIP3    H278615   0.102   5.746   3.044 -2.3238  0.7105 -1.4603
19042TIP3   OH278616   1.936   2.824  17.256  0.1045  0.1420  0.0600
19042TIP3    H178617   2.016   2.813  17.307  0.6936  0.6956 -0.7412
19042TIP3    H278618   1.965   2.866  17.174 -1.2636  2.1467  0.5791
19043TIP3   OH278619   0.091   6.475  15.750 -0.3396 -0.8638 -0.1200
19043TIP3    H178620   0.027   6.405  15.739 -1.7873  0.6682 -1.5398
19043TIP3    H278621   0.048   6.539  15.806  0.4108 -0.3761 -0.0885
19044TIP3   OH278622   4.229   5.044  12.049 -0.4294  0.3134 -0.0437
19044TIP3    H178623   4.145   5.006  12.075 -0.5734  0.8925  0.3449
19044TIP3    H278624   4.231   5.035  11.953 -0.7409 -0.0915 -0.0120
19045TIP3   OH278625   5.375   6.032  13.575 -0.1635  0.2530 -0.4063
19045TIP3    H178626   5.378   5.976  13.652 -0.8031  0.3987 -0.2751
19045TIP3    H278627   5.287   6.019  13.539  1.0892 -1.9979 -2.7430
19046TIP3   OH278628   0.960   5.308   0.982 -0.3036  0.1109 -0.6786
19046TIP3    H178629   1.004   5.351   0.909  0.3320 -1.1598 -1.0726
19046TIP3    H278630   0.982   5.361   1.059 -0.8912  1.3990 -1.3923
19047TIP3   OH278631   6.819   6.295  15.106 -0.8990  0.2460  0.3415
19047TIP3    H178632   6.804   6.214  15.058 -1.0051  1.0651 -1.0580
19047TIP3    H278633   6.873   6.269  15.181  0.1838 -0.9235 -0.8013
19048TIP3   OH278634   5.933   2.164   3.738  0.0239  0.6658 -0.5269
19048TIP3    H178635   5.921   2.259   3.738  0.4028  0.7257  1.2492
19048TIP3    H278636   6.000   2.148   3.672 -0.9453  1.5097 -1.7372
19049TIP3   OH278637   0.424   4.062  11.706 -0.4476  0.2447  0.3217
19049TIP3    H178638   0.467   4.100  11.782  2.1573 -0.6690 -0.6449
19049TIP3    H278639   0.409   4.136  11.647  0.7032  0.4323  0.2618
19050TIP3   OH278640   3.032   3.431   0.971  0.1663  0.1995 -0.4257
19050TIP3    H178641   2.954   3.482   0.948 -0.9385 -1.2794  0.0275
19050TIP3    H278642   3.083   3.490   1.028 -2.1459  0.0477  1.8860
19051TIP3   OH278643   3.717   3.970  15.751  0.0969  0.0034 -0.6546
19051TIP3    H178644   3.634   4.006  15.783  0.7319  1.9219 -1.0757
19051TIP3    H278645   3.782   4.037  15.775  1.5737 -1.6148 -0.0491
19052TIP3   OH278646   0.530   5.527   4.488 -0.1467  0.7205 -0.2155
19052TIP3    H178647   0.572   5.578   4.418 -0.3242  0.6522 -0.3726
19052TIP3    H278648   0.591   5.455   4.505 -0.8486 -0.1819 -1.4269
19053TIP3   OH278649   3.733   4.634  11.275 -0.4396  0.0810  0.0665
19053TIP3    H178650   3.768   4.595  11.355 -0.0298 -0.0467 -0.1731
19053TIP3    H278651   3.734   4.728  11.291  0.0797  0.0807  0.0355
19054TIP3   OH278652   3.008   1.639  16.483 -0.1239  0.1098 -0.4206
19054TIP3    H178653   3.096   1.674  16.495  0.3612 -1.0581 -0.4391
19054TIP3    H278654   2.980   1.672  16.398  0.1936  0.7128 -0.2869
19055TIP3   OH278655   2.376   4.594  13.809  0.4093 -0.3291 -0.0603
19055TIP3    H178656   2.323   4.669  13.833  1.2406  0.1932  0.1885
19055TIP3    H278657   2.315   4.532  13.768 -0.1979  0.6592 -0.6568
19056TIP3   OH278658   3.828   5.194   2.579  0.2385  0.7142  0.4934
19056TIP3    H178659   3.903   5.234   2.534  0.7397 -0.3392  0.3699
19056TIP3    H278660   3.795   5.129   2.518 -0.2258  0.5494  0.9148
19057TIP3   OH278661   4.912   2.880  12.439  0.0591 -0.3563  0.0921
19057TIP3    H178662   4.855   2.954  12.459  0.2410 -0.0112 -0.6764
19057TIP3    H278663   4.961   2.906  12.361  0.9203 -0.8456  0.4576
19058TIP3   OH278664   3.654   3.765   1.887  0.1822  0.1256  0.3860
19058TIP3    H178665   3.724   3.789   1.825 -0.4953 -0.8523 -0.7771
19058TIP3    H278666   3.644   3.843   1.942  0.2671  1.3264 -1.2381
19059TIP3   OH278667   4.020   4.771   5.394 -0.3486  0.2862 -0.2758
19059TIP3    H178668   4.011   4.685   5.353 -1.1086 -0.6975  1.8633
19059TIP3    H278669   4.053   4.827   5.324  1.3043 -1.9948 -1.4030
19060TIP3   OH278670   2.556   3.922   6.193  0.3544  0.3273  0.5746
19060TIP3    H178671   2.585   3.865   6.122 -0.2237 -0.3686  0.8898
19060TIP3    H278672   2.626   3.918   6.258  0.6271  0.5175  0.2910
19061TIP3   OH278673   1.957   4.327   5.341  0.0434  0.9308 -0.2392
19061TIP3    H178674   1.982   4.303   5.430 -0.1824 -2.2310 -0.9614
19061TIP3    H278675   1.881   4.384   5.352  0.1726  0.7798  1.5911
19062TIP3   OH278676   5.304   5.847  17.017  0.4893  0.3505  0.1579
19062TIP3    H178677   5.342   5.773  17.065  0.4255  0.3012  0.1343
19062TIP3    H278678   5.356   5.922  17.044  0.1986  0.3911  0.6142
19063TIP3   OH278679   0.458   3.377  11.433 -0.0341 -0.0455 -0.0219
19063TIP3    H178680   0.524   3.389  11.502 -0.8332  1.1690  0.5577
19063TIP3    H278681   0.395   3.448  11.448 -0.9871 -0.6465 -1.1244
19064TIP3   OH278682   5.525   5.315  12.934  0.6093 -0.2675  0.5656
19064TIP3    H178683   5.582   5.391  12.946 -1.4719  1.1440  1.8505
19064TIP3    H278684   5.579   5.251  12.888  2.6146  1.7354  0.0775
19065TIP3   OH278685   5.509   5.361   4.906 -0.4263 -0.2390  0.1261
19065TIP3    H178686   5.563   5.405   4.972  0.2893  0.7430 -1.0754
19065TIP3    H278687   5.569   5.302   4.861 -0.9091 -0.9004  0.3486
19066TIP3   OH278688   0.965   5.651   3.205  0.2086  0.6122  0.0238
19066TIP3    H178689   1.059   5.654   3.186 -0.2387  2.1980 -2.0840
19066TIP3    H278690   0.931   5.734   3.172 -2.0533 -0.2156  0.1798
19067TIP3   OH278691   3.755   1.129  16.675  0.0727 -0.1474  0.5060
19067TIP3    H178692   3.815   1.179  16.731 -0.6407  0.0668  1.0798
19067TIP3    H278693   3.697   1.084  16.735 -1.2585  0.7782 -0.0552
19068TIP3   OH278694   0.633   0.039   2.380 -0.1879  0.0669  0.0740
19068TIP3    H178695   0.679   0.122   2.383  0.1670 -0.0926 -0.8850
19068TIP3    H278696   0.541   0.062   2.365  0.1186  0.2385 -1.6642
19069TIP3   OH278697   2.705   3.033   0.085  0.5549 -0.5145  0.3043
19069TIP3    H178698   2.736   3.037   0.176 -0.2559  0.9580  0.5456
19069TIP3    H278699   2.616   3.069   0.089  0.6736 -0.0265 -1.1304
19070TIP3   OH278700   0.245   1.713   0.830 -0.5844 -0.1242 -0.5769
19070TIP3    H178701   0.308   1.737   0.897 -0.5273  0.7319 -0.9273
19070TIP3    H278702   0.288   1.643   0.781  0.1131  0.4760 -0.8334
19071TIP3   OH278703   4.059   0.584  16.305  0.0823  0.5967 -0.0864
19071TIP3    H178704   3.991   0.523  16.276  1.4140 -1.3979  0.8649
19071TIP3    H278705   4.011   0.656  16.347 -1.4353 -1.2883  1.5195
19072TIP3   OH278706   3.961   4.934  14.832 -0.2191  0.4935 -0.0383
19072TIP3    H178707   3.968   4.857  14.776 -1.4450 -0.4269  1.0593
19072TIP3    H278708   3.872   4.965  14.820 -0.5570  0.1655  1.5642
19073TIP3   OH278709   0.342   4.317   3.028 -0.6881  0.0450  0.5017
19073TIP3    H178710   0.250   4.295   3.044 -0.4172 -1.0915  0.4973
19073TIP3    H278711   0.380   4.328   3.115 -0.6708 -0.1430  0.5181
19074TIP3   OH278712   0.140   3.639  14.678 -0.2422 -0.1339  0.0305
19074TIP3    H178713   0.226   3.607  14.707 -0.8569  0.0523  2.0890
19074TIP3    H278714   0.080   3.567  14.697 -0.8893  0.5300  0.5239
19075TIP3   OH278715   1.159   5.771  12.229  0.0521 -0.1565 -0.2569
19075TIP3    H178716   1.178   5.777  12.323 -0.9098  1.8401 -0.1781
19075TIP3    H278717   1.108   5.690  12.220  0.7259 -0.7237  0.8172
19076TIP3   OH278718   0.934   4.454   1.339 -0.2184 -0.3103 -0.7191
19076TIP3    H178719   1.019   4.412   1.330 -0.1767 -0.4645  0.3611
19076TIP3    H278720   0.951   4.547   1.321  0.7547  0.1541  2.3975
19077TIP3   OH278721   3.223   0.833   5.759  0.4154 -0.2006  0.2409
19077TIP3    H178722   3.251   0.741   5.754  2.7725  0.4695  0.2699
19077TIP3    H278723   3.163   0.836   5.833 -0.5504 -1.9192 -0.4437
19078TIP3   OH278724   1.089   5.397  12.766  0.0561  0.4562 -0.1204
19078TIP3    H178725   1.068   5.318  12.717  0.1541 -0.7602  1.7776
19078TIP3    H278726   1.093   5.466  12.699  0.7181 -1.2581 -1.9035
19079TIP3   OH278727   3.593   4.643  13.030  0.3553 -0.5538  0.0386
19079TIP3    H178728   3.570   4.632  12.938  0.0459  2.2847 -0.2626
19079TIP3    H278729   3.559   4.565  13.073 -1.0792 -1.0602 -1.9661
19080TIP3   OH278730   2.738   0.128   3.787 -0.5465 -0.1528  0.3646
19080TIP3    H178731   2.761   0.140   3.695 -1.5497 -1.4049 -0.0671
19080TIP3    H278732   2.820   0.139   3.834 -0.1344  1.1537 -0.6136
19081TIP3   OH278733   1.263   0.389  12.843  0.0277 -0.1702 -0.0350
19081TIP3    H178734   1.282   0.460  12.781 -0.6022  0.4422  0.4685
19081TIP3    H278735   1.309   0.313  12.807  0.9257  0.5573 -0.4429
19082TIP3   OH278736   6.008   4.841  14.745 -0.4220 -0.1660 -0.1962
19082TIP3    H178737   6.042   4.791  14.820 -2.6365  0.6015  1.3605
19082TIP3    H278738   6.069   4.821  14.674  0.1828 -3.1168  1.0592
19083TIP3   OH278739   1.539   0.098  16.745 -0.2399  0.0239  0.5271
19083TIP3    H178740   1.577   0.062  16.825  0.6250 -1.0517 -0.3547
19083TIP3    H278741   1.469   0.038  16.722 -0.2010  0.0913  0.2317
19084TIP3   OH278742   6.078   5.678   0.957 -0.1516 -0.9111 -0.0474
19084TIP3    H178743   6.165   5.639   0.947 -0.0584 -0.8066  0.3739
19084TIP3    H278744   6.058   5.714   0.870  0.0170 -1.3641 -0.2742
19085TIP3   OH278745   2.458   0.161   5.840 -0.1004  0.9307 -0.7196
19085TIP3    H178746   2.457   0.075   5.880  0.7986  1.1292 -0.2748
19085TIP3    H278747   2.379   0.163   5.785 -0.7998  0.3057  0.2629
19086TIP3   OH278748   6.015   1.747   4.184  0.2775  0.7619 -0.1430
19086TIP3    H178749   5.925   1.777   4.191 -0.1584 -0.0210 -1.8995
19086TIP3    H278750   6.037   1.715   4.271 -1.7270 -0.5738 -0.0954
19087TIP3   OH278751   1.805   6.480  14.593 -0.6684 -0.2926  0.1678
19087TIP3    H178752   1.745   6.546  14.628 -1.7484 -1.5543  0.7253
19087TIP3    H278753   1.882   6.486  14.649 -1.0376  0.0397  0.6477
19088TIP3   OH278754   3.750   4.809  17.229 -0.4032 -0.3384  0.0924
19088TIP3    H178755   3.842   4.803  17.252 -0.1683  1.3065 -0.4087
19088TIP3    H278756   3.726   4.900  17.247 -2.1164 -0.9179  0.9065
19089TIP3   OH278757   2.266   4.994   6.027 -0.1207 -0.2388 -0.3652
19089TIP3    H178758   2.315   5.056   5.972  3.2507 -1.9590  0.5730
19089TIP3    H278759   2.275   5.029   6.116  2.7420 -2.5450  0.3224
19090TIP3   OH278760   2.733   2.783  14.253  0.1702  0.1704 -0.0467
19090TIP3    H178761   2.780   2.856  14.293  0.0617  0.9221 -1.2433
19090TIP3    H278762   2.801   2.732  14.209  0.0270  0.6154 -0.8019
19091TIP3   OH278763   1.856   3.030   2.437 -0.3734  0.1921  0.6202
19091TIP3    H178764   1.895   2.955   2.392  3.0169  2.2680 -0.0833
19091TIP3    H278765   1.791   3.064   2.376  0.1129 -0.4495 -0.2593
19092TIP3   OH278766   3.255   4.306  12.196 -0.4632 -0.3544 -0.4059
19092TIP3    H178767   3.348   4.284  12.184 -0.5894 -0.2573 -1.6359
19092TIP3    H278768   3.208   4.231  12.160 -0.8678 -0.4878  0.3902
19093TIP3   OH278769   2.488   2.581   4.320 -0.1715  0.3162 -0.7082
19093TIP3    H178770   2.410   2.592   4.374  0.6311  1.6066  0.2159
19093TIP3    H278771   2.459   2.526   4.247 -1.5295 -0.5589  0.4691
19094TIP3   OH278772   3.407   1.182  14.634 -0.0631  0.0695  0.3179
19094TIP3    H178773   3.435   1.102  14.678  0.1691 -1.1200 -1.9485
19094TIP3    H278774   3.489   1.228  14.614  0.2090 -1.9268 -3.5312
19095TIP3   OH278775   5.987   1.505  17.071 -0.2292 -0.3792  0.2553
19095TIP3    H178776   6.020   1.442  17.135 -0.7962 -0.1503  0.7802
19095TIP3    H278777   6.022   1.475  16.987  2.7006  0.7755  0.9670
19096TIP3   OH278778   2.248   4.624   2.568 -0.4186 -0.3820 -0.3171
19096TIP3    H178779   2.257   4.617   2.473 -2.7980 -1.8497 -0.4660
19096TIP3    H278780   2.233   4.534   2.597  2.7589 -0.3316  1.7811
19097TIP3   OH278781   3.458   6.402   1.322 -0.3983 -0.4578 -0.1107
19097TIP3    H178782   3.422   6.411   1.411 -0.4587 -1.0973 -0.0685
19097TIP3    H278783   3.484   6.310   1.316  0.1195 -0.2857 -0.5653
19098TIP3   OH278784   1.452   0.013  14.148  0.5886  0.1032  0.1764
19098TIP3    H178785   1.429   0.058  14.229  1.7707  0.3705  0.3728
19098TIP3    H278786   1.398   0.055  14.081 -0.0486  0.1990  0.7373
19099TIP3   OH278787   6.585   5.365  16.393  0.4004  0.2769  0.3098
19099TIP3    H178788   6.533   5.291  16.361 -0.2941  0.5989  0.6732
19099TIP3    H278789   6.521   5.423  16.435  1.0068  0.8466  0.4617
19100TIP3   OH278790   2.721   4.907   3.574 -0.1425 -0.3922 -0.3046
19100TIP3    H178791   2.757   4.932   3.659 -2.0426  1.3430  0.0289
19100TIP3    H278792   2.631   4.880   3.593 -0.4078 -0.5125 -1.7029
19101TIP3   OH278793   5.109   4.602  16.114 -0.1550 -0.1688 -0.2449
19101TIP3    H178794   5.047   4.636  16.050  0.6578  0.0952 -0.8864
19101TIP3    H278795   5.122   4.674  16.175 -0.1588 -0.0892 -0.3383
19102TIP3   OH278796   2.951   0.979  11.067 -0.0498 -0.3331 -0.5604
19102TIP3    H178797   3.019   0.912  11.062  0.4537  0.2020 -0.9930
19102TIP3    H278798   2.945   1.013  10.977 -1.0481 -0.5389 -0.5741
19103TIP3   OH278799   1.863   0.789   0.834  0.1949 -0.3855 -0.3914
19103TIP3    H178800   1.866   0.694   0.818  0.3378 -0.3552 -0.5447
19103TIP3    H278801   1.815   0.797   0.917  0.5654 -0.6164 -0.1493
19104TIP3   OH278802   4.860   2.200  13.190  0.2283  0.2322  0.5804
19104TIP3    H178803   4.874   2.159  13.275 -0.7906 -1.3023  0.0132
19104TIP3    H278804   4.767   2.221  13.188  0.2786  0.4070 -0.0921
19105TIP3   OH278805   5.057   5.030  15.126  0.0190  0.4342 -0.1702
19105TIP3    H178806   4.990   5.017  15.059 -1.0764 -0.0576  1.0141
19105TIP3    H278807   5.079   4.942  15.156 -1.2030  0.7666  1.7713
19106TIP3   OH278808   1.018   2.610   1.506 -0.4101  0.5707  0.1927
19106TIP3    H178809   1.026   2.531   1.559 -2.5476  0.3198  0.1743
19106TIP3    H278810   0.924   2.621   1.491  0.0785  0.9069 -3.1508
19107TIP3   OH278811   1.623   2.559   3.045 -0.5117  0.1958 -0.5970
19107TIP3    H178812   1.591   2.558   2.954 -2.6912  0.1729  0.1313
19107TIP3    H278813   1.613   2.650   3.073  1.7456  0.5628 -0.8826
19108TIP3   OH278814   6.331   4.202   0.949 -0.6596  0.1903  0.0896
19108TIP3    H178815   6.263   4.141   0.919  0.9127 -1.1049 -0.9012
19108TIP3    H278816   6.317   4.281   0.896 -0.8652 -0.3777 -0.7177
19109TIP3   OH278817   1.045   5.066  11.423 -0.2937 -0.1296  0.4223
19109TIP3    H178818   0.986   5.131  11.384  0.5982  1.5953  1.8288
19109TIP3    H278819   1.125   5.071  11.371  0.9267  2.2307  2.3723
19110TIP3   OH278820   3.431   2.981  14.721 -0.2195 -0.2097  0.0951
19110TIP3    H178821   3.487   3.049  14.756  0.0767 -0.7393  0.6643
19110TIP3    H278822   3.361   3.028  14.676 -1.7171  0.5580  3.0941
19111TIP3   OH278823   1.998   4.080   4.171  0.0310  0.5458 -0.1647
19111TIP3    H178824   1.958   4.015   4.113 -1.5410  1.4221 -0.1028
19111TIP3    H278825   1.978   4.049   4.259  1.1140  0.0131 -0.0954
19112TIP3   OH278826   5.651   3.495   3.234 -0.0033  0.1280 -0.3687
19112TIP3    H178827   5.717   3.547   3.280 -0.4459  0.9713 -0.6731
19112TIP3    H278828   5.636   3.543   3.153  1.2110 -1.6602 -1.6804
19113TIP3   OH278829   4.525   1.108   5.607  0.0609  0.5835 -0.0300
19113TIP3    H178830   4.593   1.134   5.546  0.7407  1.3305  1.0260
19113TIP3    H278831   4.466   1.183   5.611  0.9605  1.2257  1.5347
19114TIP3   OH278832   2.125   6.012  14.316  0.0049 -0.3662 -0.3757
19114TIP3    H178833   2.060   5.988  14.381 -0.2433 -1.3184 -0.9593
19114TIP3    H278834   2.195   6.054  14.366 -0.3793 -0.6956  0.4454
19115TIP3   OH278835   2.550   4.151  16.104  0.1161  0.0190  0.1057
19115TIP3    H178836   2.533   4.093  16.178  0.6283  0.7400  0.7955
19115TIP3    H278837   2.569   4.091  16.031 -0.6902 -0.6932  0.4745
19116TIP3   OH278838   0.703   0.909   4.768  0.1717  0.3316 -0.1574
19116TIP3    H178839   0.655   0.835   4.805  0.2987 -0.3051 -1.2458
19116TIP3    H278840   0.790   0.874   4.748  0.1997  0.7402 -0.7777
19117TIP3   OH278841   3.682   0.987  16.433  0.4880  0.3256 -1.1902
19117TIP3    H178842   3.726   1.067  16.404 -0.5692  0.7432 -1.6469
19117TIP3    H278843   3.737   0.954  16.505  0.7923  1.5765 -0.8499
19118TIP3   OH278844   3.900   6.813   2.865 -0.3746 -0.2004  0.3115
19118TIP3    H178845   3.839   6.887   2.853 -1.4955 -0.9991  1.0105
19118TIP3    H278846   3.979   6.853   2.901  0.0535  1.0592 -1.8983
19119TIP3   OH278847   2.686   2.607  16.702 -0.0500  0.3364  0.4665
19119TIP3    H178848   2.754   2.565  16.649 -1.2095 -0.3439 -0.5173
19119TIP3    H278849   2.731   2.678  16.747  1.3019 -0.0836 -0.1921
19120TIP3   OH278850   1.517   1.679   4.280  0.0197 -0.0714 -0.2563
19120TIP3    H178851   1.548   1.705   4.367  0.9524  0.0387 -0.6236
19120TIP3    H278852   1.577   1.722   4.219  0.2811 -1.3634 -0.9249
19121TIP3   OH278853   5.535   2.336   4.540  0.1957 -0.0676 -0.4076
19121TIP3    H178854   5.629   2.322   4.535  0.3805  0.7503  0.6908
19121TIP3    H278855   5.502   2.260   4.589  0.2961 -0.2762 -0.6619
19122TIP3   OH278856   4.196   5.608  14.177 -0.6841  0.4130  0.5689
19122TIP3    H178857   4.133   5.650  14.118 -0.7727 -1.8958 -1.0646
19122TIP3    H278858   4.279   5.612  14.130  0.0105  1.7658  1.8892
19123TIP3   OH278859   4.316   5.719  12.787  0.0103  0.0279 -0.0949
19123TIP3    H178860   4.318   5.637  12.836 -0.5392  0.9999  1.6081
19123TIP3    H278861   4.225   5.749  12.793  0.1837  0.7153 -0.7692
19124TIP3   OH278862   4.451   4.293   3.933 -0.2136 -0.0311 -0.3669
19124TIP3    H178863   4.498   4.215   3.905 -2.0059 -1.4351  0.4007
19124TIP3    H278864   4.482   4.363   3.876  1.3241 -1.3406 -1.1440
19125TIP3   OH278865   4.816   5.512  11.800  0.2243  0.5422 -0.0169
19125TIP3    H178866   4.896   5.560  11.822 -0.6106  1.6717  0.6045
19125TIP3    H278867   4.761   5.520  11.879 -0.9519  0.7435 -0.8479
19126TIP3   OH278868   3.694   3.399  15.216  0.5049 -0.2484  0.1927
19126TIP3    H178869   3.722   3.319  15.173 -0.3814 -1.5967  2.0800
19126TIP3    H278870   3.763   3.417  15.280  0.0221 -0.2771  0.7238
19127TIP3   OH278871   3.194   4.895  16.388 -0.6062  0.1257 -0.4501
19127TIP3    H178872   3.153   4.879  16.303  0.3046 -0.8424 -0.7229
19127TIP3    H278873   3.171   4.819  16.441  0.0820  0.0140 -0.3116
19128TIP3   OH278874   5.655   0.990  14.454 -0.1141  0.4165 -0.1199
19128TIP3    H178875   5.721   0.935  14.413 -0.2815  0.6622 -0.7296
19128TIP3    H278876   5.602   0.930  14.507 -0.3637 -0.0261 -0.8610
19129TIP3   OH278877   5.334   4.238  10.608  0.5185 -0.6354 -0.1741
19129TIP3    H178878   5.285   4.271  10.533  0.5321 -1.3123 -0.4919
19129TIP3    H278879   5.415   4.205  10.570  1.1443  0.3131  0.3247
19130TIP3   OH278880   0.402   1.251  11.344 -0.4122 -0.2194  0.3023
19130TIP3    H178881   0.494   1.262  11.369 -0.1210  1.0066 -1.2566
19130TIP3    H278882   0.356   1.240  11.427  1.2926 -2.1620  1.0410
19131TIP3   OH278883   6.310   0.733  14.361  0.0222 -0.6479  0.4167
19131TIP3    H178884   6.296   0.821  14.395  0.5552 -0.0541 -0.8745
19131TIP3    H278885   6.223   0.704  14.333 -0.0380 -0.2425  0.1744
19132TIP3   OH278886   0.902   1.026  13.483 -0.0253 -0.0959  0.0640
19132TIP3    H178887   0.884   1.119  13.494  0.1693 -0.0175 -0.2841
19132TIP3    H278888   0.953   1.020  13.402 -0.0730 -0.5081  0.0601
19133TIP3   OH278889   0.092   1.849   4.140 -0.2231 -0.0577 -0.0344
19133TIP3    H178890   0.032   1.777   4.122  0.6375 -0.5451 -1.0158
19133TIP3    H278891   0.173   1.806   4.170 -0.5194  0.6092  1.7950
19134TIP3   OH278892   6.212   1.197  13.124 -0.5634  0.4970  0.1051
19134TIP3    H178893   6.180   1.227  13.038  0.8473  1.5495 -0.0588
19134TIP3    H278894   6.158   1.245  13.187  0.0111  1.5078 -0.1758
19135TIP3   OH278895   0.107   6.350   4.169  0.0986  0.4060 -0.2428
19135TIP3    H178896   0.022   6.340   4.212  0.5217  1.1660  0.7939
19135TIP3    H278897   0.134   6.439   4.191  1.1274  0.1911 -0.6423
19136TIP3   OH278898   6.423   0.961   3.953 -0.2490 -0.6147  0.1594
19136TIP3    H178899   6.393   0.882   3.908  0.8642 -1.4972  0.9347
19136TIP3    H278900   6.343   1.004   3.982 -0.8816 -1.2946 -0.5467
19137TIP3   OH278901   3.365   0.164   4.111 -0.5101  0.2849  0.4057
19137TIP3    H178902   3.376   0.069   4.115 -1.3988  0.2213  1.9891
19137TIP3    H278903   3.427   0.199   4.175  0.4187  0.8349 -0.7822
19138TIP3   OH278904   4.692   5.338   2.587  0.0292  0.1210  0.0335
19138TIP3    H178905   4.626   5.406   2.602  0.5237  0.3890  1.0530
19138TIP3    H278906   4.646   5.256   2.607  0.2597  0.3728  1.6972
19139TIP3   OH278907   6.504   6.727   4.029  0.4288  0.7583  0.2884
19139TIP3    H178908   6.593   6.719   4.064  0.1211 -1.3178  0.6524
19139TIP3    H278909   6.497   6.655   3.966 -1.1544  0.6202  0.6154
19140TIP3   OH278910   2.021   1.466  15.909  0.3891 -0.4948 -0.1452
19140TIP3    H178911   2.098   1.408  15.902  0.2553 -0.4307 -2.6220
19140TIP3    H278912   1.961   1.433  15.843 -1.1353  0.3617  0.8017
19141TIP3   OH278913   2.573   6.261  11.585 -0.0941 -0.0871  0.4727
19141TIP3    H178914   2.622   6.238  11.507 -0.0032  1.3059  0.1084
19141TIP3    H278915   2.524   6.340  11.561 -0.6590 -0.0835  1.5726
19142TIP3   OH278916   4.952   3.498   0.639 -0.0383 -0.3235  0.4136
19142TIP3    H178917   5.010   3.553   0.692  1.8125 -1.9920  0.1787
19142TIP3    H278918   4.864   3.516   0.674  0.6422  1.9741  1.0111
19143TIP3   OH278919   0.469   2.940   3.633 -0.1761  0.2766  0.4816
19143TIP3    H178920   0.395   2.936   3.694  0.1906  0.4133  0.9343
19143TIP3    H278921   0.544   2.908   3.683 -0.7153 -4.1005 -1.2369
19144TIP3   OH278922   0.577   5.127  12.014 -0.2013  0.1088 -0.1646
19144TIP3    H178923   0.486   5.154  12.020 -0.0327  1.5226 -3.1552
19144TIP3    H278924   0.579   5.064  11.942  1.3277  0.8255 -0.7694
19145TIP3   OH278925   0.212   1.819   0.031  0.2456  0.5656 -0.3182
19145TIP3    H178926   0.282   1.883   0.017 -0.5446  1.7110  0.9156
19145TIP3    H278927   0.242   1.768   0.107  0.8195 -0.4848 -1.2254
19146TIP3   OH278928   4.731   1.623  15.458  0.3195  0.1840 -0.1954
19146TIP3    H178929   4.765   1.611  15.547  0.6357 -1.4648 -0.5175
19146TIP3    H278930   4.766   1.707  15.430 -1.0254  1.4604  1.7934
19147TIP3   OH278931   6.431   1.998  15.702  0.1137 -0.2839  0.3701
19147TIP3    H178932   6.513   2.045  15.717  1.1655 -2.1063  0.5386
19147TIP3    H278933   6.389   2.045  15.631  2.2077 -0.4038 -0.9943
19148TIP3   OH278934   1.842   5.393  11.911  0.2226  0.0622  0.1777
19148TIP3    H178935   1.873   5.349  11.832  2.5782 -0.0133  1.0974
19148TIP3    H278936   1.760   5.435  11.885  1.0695  0.2348 -2.3538
19149TIP3   OH278937   1.940   3.875   2.312  0.0063  0.4015  0.2018
19149TIP3    H178938   1.880   3.854   2.241 -0.8377 -0.3535  1.1307
19149TIP3    H278939   1.963   3.791   2.350  1.3885  0.7069  0.0870
19150TIP3   OH278940   4.509   2.151   1.853 -0.2244 -0.0016 -0.0552
19150TIP3    H178941   4.575   2.101   1.805  0.7421 -1.3017  2.4672
19150TIP3    H278942   4.559   2.218   1.899 -0.8274 -0.0870  0.7419
19151TIP3   OH278943   3.816   3.618  14.831 -0.7046  0.2613 -0.5813
19151TIP3    H178944   3.796   3.589  14.741 -0.9594 -0.5330 -0.2785
19151TIP3    H278945   3.736   3.599  14.880 -0.5946  0.7734 -0.2065
19152TIP3   OH278946   2.436   4.120  11.789 -0.4031 -0.4372 -0.0906
19152TIP3    H178947   2.399   4.048  11.738  2.0519 -1.1229 -0.9249
19152TIP3    H278948   2.510   4.081  11.836 -0.4860  1.0066  1.2761
19153TIP3   OH278949   0.401   1.727  16.757  0.1864  0.4688 -0.2023
19153TIP3    H178950   0.472   1.726  16.693 -0.1079  1.6312 -0.5565
19153TIP3    H278951   0.436   1.774  16.833  0.0035  0.5000 -0.1329
19154TIP3   OH278952   2.645   1.757   4.719  0.2351 -0.4414 -0.1368
19154TIP3    H178953   2.605   1.821   4.660  0.7721  0.8222  0.8558
19154TIP3    H278954   2.602   1.773   4.803  1.1962 -0.6149  0.3860
19155TIP3   OH278955   3.942   1.386   5.391 -0.4513 -0.0503  0.5217
19155TIP3    H178956   3.970   1.447   5.459  0.2114 -1.2616  1.3613
19155TIP3    H278957   3.878   1.330   5.435  0.1226 -0.9647  0.1916
19156TIP3   OH278958   1.312   6.350   2.499  0.0912 -0.2054 -0.3332
19156TIP3    H178959   1.386   6.405   2.527 -0.8227  1.6929 -1.5253
19156TIP3    H278960   1.339   6.314   2.415  0.1322 -0.4858 -0.2013
19157TIP3   OH278961   3.599   2.052  15.719 -0.3225  0.1795 -0.0281
19157TIP3    H178962   3.596   2.128  15.660 -0.8347 -0.0765 -0.3374
19157TIP3    H278963   3.640   1.983  15.668  0.7825  0.4524  0.4924
19158TIP3   OH278964   3.001   0.663   3.459 -0.3082 -0.6404  0.3391
19158TIP3    H178965   2.905   0.666   3.455 -0.4908  2.1290  3.8829
19158TIP3    H278966   3.028   0.750   3.429  0.8467 -0.2912  2.2800
19159TIP3   OH278967   5.051   1.832  14.450 -0.0642  0.2320 -0.2029
19159TIP3    H178968   5.135   1.802  14.484 -0.3284  0.4830  0.6681
19159TIP3    H278969   4.985   1.786  14.502 -0.4779  0.0313 -0.8835
19160TIP3   OH278970   0.989   3.391  11.743  0.4580  0.5138 -0.0186
19160TIP3    H178971   1.060   3.329  11.728 -0.4074 -0.3615 -0.6044
19160TIP3    H278972   1.031   3.468  11.782  1.3938 -0.8748  1.7787
19161TIP3   OH278973   5.652   3.384   1.510  0.1778  0.0497 -0.1312
19161TIP3    H178974   5.729   3.355   1.461  0.7292  0.6562  0.3653
19161TIP3    H278975   5.642   3.477   1.488  0.6533  0.4238  1.1762
19162TIP3   OH278976   2.109   2.055  16.283  0.3336 -0.3250 -0.2914
19162TIP3    H178977   2.075   2.095  16.363  1.6941  0.6585 -0.1869
19162TIP3    H278978   2.060   2.097  16.213 -0.9313 -1.2604  0.0120
19163TIP3   OH278979   4.787   3.425   3.530  0.3094 -0.3901 -0.3538
19163TIP3    H178980   4.747   3.361   3.588  1.7114 -0.3804  0.6480
19163TIP3    H278981   4.793   3.380   3.445  0.9581 -1.4788  0.2530
19164TIP3   OH278982   1.929   2.013  13.424  0.2448  0.0803  0.4711
19164TIP3    H178983   1.922   1.979  13.334 -0.3577 -1.1609  0.9815
19164TIP3    H278984   1.840   2.009  13.459  0.7030 -0.7099  1.5741
19165TIP3   OH278985   3.266   3.080  16.094  0.0579 -0.8530 -0.0108
19165TIP3    H178986   3.225   3.091  16.180 -0.8806  0.3509 -0.5967
19165TIP3    H278987   3.360   3.080  16.112 -0.0248  2.1662  0.7544
19166TIP3   OH278988   0.752   2.577   3.170 -0.0371  0.0046 -0.4637
19166TIP3    H178989   0.660   2.593   3.150 -0.3332 -0.8309  0.1815
19166TIP3    H278990   0.800   2.626   3.104 -0.9498  0.3378 -0.8890
19167TIP3   OH278991   5.643   5.941  12.067  0.3000  0.4170 -0.5936
19167TIP3    H178992   5.630   6.028  12.105  0.8201  1.5331 -2.9127
19167TIP3    H278993   5.586   5.938  11.991  0.8270 -1.0062 -0.9586
19168TIP3   OH278994   6.217   3.996  14.972  0.2054  0.0387 -0.1132
19168TIP3    H178995   6.174   4.032  14.894  0.0826 -0.6999 -0.3886
19168TIP3    H278996   6.299   3.960  14.939  1.2136  1.7711  0.4722
19169TIP3   OH278997   6.003   6.441   4.143 -0.1663 -0.2246  0.0142
19169TIP3    H178998   6.050   6.368   4.185  3.1253  2.2049  0.7694
19169TIP3    H278999   6.049   6.519   4.173 -2.0411  2.0290 -2.7426
19170TIP3   OH279000   3.375   5.002   2.668  0.2070  0.4177 -0.5833
19170TIP3    H179001   3.471   5.000   2.667  0.2917  0.2527  2.4033
19170TIP3    H279002   3.349   4.913   2.689 -0.5127  0.9052  0.6524
19171TIP3   OH279003   2.132   1.142  16.785 -0.1281  0.1668  0.1219
19171TIP3    H179004   2.100   1.231  16.794 -0.3379  0.1690 -0.6533
19171TIP3    H279005   2.117   1.119  16.693  0.3968 -0.4787  0.1857
19172TIP3   OH279006   5.582   2.335   5.185 -0.2058 -0.3857  0.1774
19172TIP3    H179007   5.676   2.322   5.198 -0.1666 -0.5358 -0.2471
19172TIP3    H279008   5.541   2.286   5.256  0.0622  0.4481  0.9179
19173TIP3   OH279009   2.667   3.825  11.210 -0.1537 -0.2209 -0.2972
19173TIP3    H179010   2.746   3.788  11.169  1.0540  0.3698  1.4179
19173TIP3    H279011   2.596   3.800  11.151  1.0972 -2.1253 -1.0719
19174TIP3   OH279012   2.481   6.351   6.213  0.1017 -0.9734 -0.3747
19174TIP3    H179013   2.486   6.315   6.124 -1.2743 -0.2843 -0.7433
19174TIP3    H279014   2.388   6.354   6.233  0.3811 -0.7481  0.9487
19175TIP3   OH279015   3.923   6.760   6.773 -0.4089 -0.2434  0.5986
19175TIP3    H179016   3.915   6.666   6.788  0.5859 -0.3291  0.6422
19175TIP3    H279017   4.017   6.777   6.778 -0.6912  1.0224  2.2464
19176TIP3   OH279018   6.591   5.866   3.359  0.4177 -0.3784 -0.5187
19176TIP3    H179019   6.555   5.952   3.380  1.2189  0.8557 -3.8464
19176TIP3    H279020   6.527   5.827   3.300  0.9754 -1.2665 -0.5513
19177TIP3   OH279021   1.293   2.577   0.316 -0.6114 -0.0369 -0.6882
19177TIP3    H179022   1.306   2.537   0.230 -2.4143 -1.6005 -0.2581
19177TIP3    H279023   1.269   2.504   0.373  3.2403  0.5256  1.7995
19178TIP3   OH279024   6.240   4.681   0.718  0.1666  0.0383 -0.3897
19178TIP3    H179025   6.150   4.690   0.750  0.5681 -0.7116  0.9640
19178TIP3    H279026   6.242   4.734   0.638 -1.2889  0.6302 -0.0506
19179TIP3   OH279027   6.423   4.964   1.734  0.4992  0.1692  0.3861
19179TIP3    H179028   6.350   4.921   1.689  1.2676 -0.0054 -0.7285
19179TIP3    H279029   6.423   5.053   1.700  0.3952  0.3586  0.8827
19180TIP3   OH279030   2.691   5.418  14.834 -0.5107  0.1879  0.5648
19180TIP3    H179031   2.645   5.501  14.818  1.0408  1.0210  0.3321
19180TIP3    H279032   2.759   5.415  14.767  0.5594 -0.4180  1.6623
19181TIP3   OH279033   2.407   1.481   3.699 -0.2394  0.1376  0.0792
19181TIP3    H179034   2.378   1.526   3.619 -0.7640  1.9758  1.2802
19181TIP3    H279035   2.501   1.470   3.688 -0.4996 -0.8362 -1.3705
19182TIP3   OH279036   4.415   1.090  13.841  0.2272 -0.0324 -0.4423
19182TIP3    H179037   4.412   1.036  13.762 -0.6126  0.7354 -0.9453
19182TIP3    H279038   4.324   1.115  13.856  0.3244 -0.5323  1.0270
19183TIP3   OH279039   2.787   6.101   4.466 -0.6389  1.0396  0.6100
19183TIP3    H179040   2.855   6.047   4.426  0.7579  1.7690  1.9648
19183TIP3    H279041   2.833   6.176   4.502 -2.2223  1.7577  1.2006
19184TIP3   OH279042   0.283   1.782   6.214  0.0454  0.2416 -0.3576
19184TIP3    H179043   0.290   1.687   6.204  1.6773  0.1229  1.5623
19184TIP3    H279044   0.196   1.803   6.181 -0.9261 -2.1261  0.5462
19185TIP3   OH279045   4.491   3.891  14.664  0.2976  0.2742 -1.0419
19185TIP3    H179046   4.458   3.801  14.667 -0.3608  0.5381 -0.2160
19185TIP3    H279047   4.528   3.906  14.751 -2.0789  1.7276 -0.2460
19186TIP3   OH279048   4.422   2.427  12.749  0.1188  0.1933  0.1611
19186TIP3    H179049   4.426   2.377  12.668 -0.3673  0.1375  0.1729
19186TIP3    H279050   4.511   2.421  12.785  0.4652  0.6281 -0.6078
19187TIP3   OH279051   6.567   4.994  12.817 -0.2470  0.2219  0.3199
19187TIP3    H179052   6.521   5.017  12.736 -0.8382  0.5479  0.7457
19187TIP3    H279053   6.585   5.078  12.859  0.9561  0.1144  0.0467
19188TIP3   OH279054   3.586   3.367   4.960 -0.5282  0.0330 -0.3730
19188TIP3    H179055   3.552   3.454   4.937  2.4867  1.1640 -0.8825
19188TIP3    H279056   3.681   3.377   4.954 -0.1363 -3.4301 -0.7915
19189TIP3   OH279057   3.081   6.475   4.840  0.5655 -0.1546  0.1286
19189TIP3    H179058   3.173   6.466   4.813  0.2050  0.2957 -1.2943
19189TIP3    H279059   3.078   6.559   4.885  0.5105  0.6615 -1.3674
19190TIP3   OH279060   6.369   0.521  16.821  0.2568 -0.4536  0.3882
19190TIP3    H179061   6.364   0.429  16.850  0.6317 -0.6453 -0.1439
19190TIP3    H279062   6.449   0.525  16.769  1.0704  0.5371  1.6826
19191TIP3   OH279063   4.918   5.831  12.329  0.6594  0.1132 -0.1122
19191TIP3    H179064   4.999   5.883  12.327  0.8990 -0.1998  0.8386
19191TIP3    H279065   4.948   5.741  12.318  0.3405  0.0871 -0.7526
19192TIP3   OH279066   2.570   0.682  12.346  0.2105 -0.0050  0.0121
19192TIP3    H179067   2.622   0.719  12.274 -1.1195  0.4365 -0.7400
19192TIP3    H279068   2.522   0.610  12.306 -0.3895  0.1165  0.5084
19193TIP3   OH279069   0.645   3.708   1.525  0.4348 -0.3380  0.5455
19193TIP3    H179070   0.551   3.694   1.536  0.2605  0.5849  0.2771
19193TIP3    H279071   0.651   3.774   1.456  1.2472  0.4662  1.3768
19194TIP3   OH279072   5.698   4.537   4.837 -0.0542 -0.0254 -0.1549
19194TIP3    H179073   5.660   4.619   4.870 -1.0922 -0.2038 -0.8767
19194TIP3    H279074   5.636   4.508   4.771  2.3813  0.7450 -2.8620
19195TIP3   OH279075   1.939   5.985  17.142 -0.1219 -0.0466  0.3066
19195TIP3    H179076   1.858   5.958  17.099  1.2218 -1.3052 -1.5436
19195TIP3    H279077   1.949   5.924  17.215  1.2777 -2.6944 -1.9866
19196TIP3   OH279078   3.433   1.996   2.453 -0.4523  0.4063 -0.1050
19196TIP3    H179079   3.437   2.086   2.421 -1.6988  0.4890 -0.0554
19196TIP3    H279080   3.360   1.996   2.516  0.8597 -0.1568  1.4468
19197TIP3   OH279081   6.366   3.417  17.116  0.4810  0.0765  0.6770
19197TIP3    H179082   6.447   3.455  17.081 -0.2305 -0.3365 -1.5178
19197TIP3    H279083   6.351   3.339  17.063 -1.3126  0.1224  1.0712
19198TIP3   OH279084   3.818   5.295  11.171  0.2646  0.0989 -0.6060
19198TIP3    H179085   3.814   5.236  11.096  1.3228 -0.9178  0.1231
19198TIP3    H279086   3.734   5.339  11.172 -0.3415 -1.0294 -1.4655
19199TIP3   OH279087   5.716   4.670   1.096 -0.2009 -0.2929 -0.1738
19199TIP3    H179088   5.670   4.618   1.029 -0.4055  0.2760 -0.4816
19199TIP3    H279089   5.704   4.761   1.067 -1.8828  0.0874  1.6240
19200TIP3   OH279090   6.567   3.853  12.020 -0.5369  0.5611 -0.3914
19200TIP3    H179091   6.651   3.848  12.065 -1.3298  2.3131  1.3330
19200TIP3    H279092   6.579   3.923  11.954 -0.1947 -0.2062 -1.1534
19201TIP3   OH279093   1.057   6.697  12.733 -0.3920 -0.6925  0.1510
19201TIP3    H179094   1.058   6.688  12.638  0.2800 -1.1253  0.1987
19201TIP3    H279095   0.965   6.699  12.756 -0.5609 -0.0598 -0.5634
19202TIP3   OH279096   0.650   1.894  13.117 -0.3975 -0.2486 -0.1403
19202TIP3    H179097   0.669   1.823  13.056  0.4747 -0.9531  0.9160
19202TIP3    H279098   0.721   1.889  13.182 -1.5157  0.2359  1.1412
19203TIP3   OH279099   4.714   5.081   6.359  0.4682  0.1950  0.0635
19203TIP3    H179100   4.700   5.029   6.438 -1.0688  0.8689  0.2572
19203TIP3    H279101   4.795   5.047   6.321  1.4928  0.2125  2.2030
19204TIP3   OH279102   6.565   4.165  15.070  0.5068 -0.0382  0.8456
19204TIP3    H179103   6.605   4.135  14.989  2.7361 -1.9046  2.5961
19204TIP3    H279104   6.630   4.223  15.110 -0.5874  0.9085  1.3217
19205TIP3   OH279105   6.243   0.796  10.745  0.1856  0.2717 -0.8420
19205TIP3    H179106   6.163   0.774  10.697 -0.1197  0.4139 -0.4090
19205TIP3    H279107   6.227   0.762  10.833  0.5292  0.4678 -0.7063
19206TIP3   OH279108   5.584   0.049  15.387 -0.0571 -0.1743 -0.4533
19206TIP3    H179109   5.560   0.140  15.371  1.7744  0.4348  0.1980
19206TIP3    H279110   5.676   0.052  15.413 -0.1338 -2.1489  0.1491
19207TIP3   OH279111   5.025   2.208   2.698 -0.0782 -0.7449  0.4591
19207TIP3    H179112   5.082   2.262   2.753 -0.4240 -0.9423  1.0102
19207TIP3    H279113   5.085   2.151   2.650  0.2516 -0.2651  0.2939
19208TIP3   OH279114   3.048   3.414   3.097  0.3617  0.3602  0.2112
19208TIP3    H179115   3.049   3.430   3.191 -0.1552  0.3762  0.2154
19208TIP3    H279116   2.981   3.475   3.063  0.2484  0.0600 -0.1086
19209TIP3   OH279117   5.052   1.025  11.326  0.1006  0.8262 -0.4783
19209TIP3    H179118   5.103   1.085  11.271  1.6007  1.9480  2.0400
19209TIP3    H279119   4.997   1.082  11.378  2.2494  0.1565  2.6609
19210TIP3   OH279120   0.054   5.751  11.932 -0.8055 -0.1331  0.4060
19210TIP3    H179121   0.100   5.677  11.973 -1.7184 -0.0581  1.5807
19210TIP3    H279122   0.124   5.807  11.898 -0.0577 -0.6641  1.0557
19211TIP3   OH279123   2.307   1.669  11.374 -0.3020 -0.0903  0.4811
19211TIP3    H179124   2.250   1.687  11.300 -0.8720  2.2667  1.4252
19211TIP3    H279125   2.257   1.609  11.430 -1.6022  1.4357  0.9783
19212TIP3   OH279126   4.368   3.001  14.725  0.2567  0.3968  0.4197
19212TIP3    H179127   4.407   2.948  14.795 -1.7047 -1.2568  0.3237
19212TIP3    H279128   4.435   3.006  14.658  1.0812 -0.5764  1.1613
19213TIP3   OH279129   2.553   6.228   3.671  0.5628 -0.2010  0.1175
19213TIP3    H179130   2.533   6.256   3.581 -2.0524  1.3016  1.1053
19213TIP3    H279131   2.504   6.147   3.682 -0.4885  0.5135  0.7304
19214TIP3   OH279132   0.034   2.566  14.521 -0.0736  0.1325 -0.0963
19214TIP3    H179133  -0.060   2.582  14.526  0.0437  1.0633 -0.9126
19214TIP3    H279134   0.061   2.601  14.437  1.0617  0.1298  0.2525
19215TIP3   OH279135   2.225   5.634  10.812 -0.4512 -0.0484  0.0744
19215TIP3    H179136   2.164   5.642  10.739  0.5846  0.9608 -0.7128
19215TIP3    H279137   2.211   5.545  10.846 -0.3433 -0.8581 -1.9150
19216TIP3   OH279138   1.015   4.401   5.553  0.4181 -0.2548 -0.0632
19216TIP3    H179139   0.927   4.434   5.571 -0.0034 -1.9896  1.1939
19216TIP3    H279140   1.007   4.355   5.469 -0.2154 -1.5539  0.6887
19217TIP3   OH279141   0.987   6.648   2.737  0.0718  0.7844 -0.0019
19217TIP3    H179142   1.061   6.640   2.677 -0.5331 -0.3379 -0.6083
19217TIP3    H279143   0.915   6.682   2.683 -0.8743 -1.5374 -0.2853
19218TIP3   OH279144   0.485   0.655  10.646  0.0325 -0.0291 -0.0997
19218TIP3    H179145   0.535   0.735  10.660 -0.6945  0.4784 -0.3897
19218TIP3    H279146   0.398   0.673  10.682 -0.2373 -0.5643 -0.4564
19219TIP3   OH279147   0.584   1.204   5.575 -0.0385  0.1437  0.1875
19219TIP3    H179148   0.652   1.272   5.575 -0.4081  0.5175  1.9064
19219TIP3    H279149   0.633   1.122   5.572  0.4144  0.4630 -1.7374
19220TIP3   OH279150   6.266   3.561  15.972 -0.0236  0.2819  0.4633
19220TIP3    H179151   6.227   3.494  16.028 -1.6521  1.1185  0.3553
19220TIP3    H279152   6.249   3.532  15.883  0.6570  0.0487  0.4058
19221TIP3   OH279153   2.127   0.690  13.663 -0.3548  0.2221 -0.2034
19221TIP3    H179154   2.079   0.610  13.685 -0.5996  0.4081 -0.0713
19221TIP3    H279155   2.134   0.688  13.567  0.3665 -0.3821 -0.1429
19222TIP3   OH279156   3.620   4.995   1.435 -0.3327  0.7969 -0.7147
19222TIP3    H179157   3.635   4.903   1.457 -2.6606  0.2107 -1.3729
19222TIP3    H279158   3.652   5.044   1.510  2.1675 -0.4675 -0.9174
19223TIP3   OH279159   3.176   0.451   6.074 -0.0481  0.7056 -0.1952
19223TIP3    H179160   3.147   0.362   6.051  0.1374  0.1402  1.6594
19223TIP3    H279161   3.239   0.438   6.144  0.3566  2.2984 -0.2395
19224TIP3   OH279162   1.267   6.095  15.647 -0.1643 -0.4157 -0.3452
19224TIP3    H179163   1.355   6.093  15.686 -0.0453  2.1111 -0.3910
19224TIP3    H279164   1.260   6.011  15.601  2.2386 -0.6691 -0.3402
19225TIP3   OH279165   0.602   6.221  15.950  0.5026  0.2916 -0.4285
19225TIP3    H179166   0.556   6.273  15.884  0.5889  2.1410  0.9413
19225TIP3    H279167   0.537   6.158  15.981 -0.2785  1.0903 -0.4567
19226TIP3   OH279168   2.117   6.499  14.000 -0.4835 -0.1317 -0.0250
19226TIP3    H179169   2.028   6.527  13.981 -0.5816  0.1418  0.8206
19226TIP3    H279170   2.172   6.573  13.975 -0.6836  0.5539  1.5535
19227TIP3   OH279171   5.860   3.553  14.999  0.3551 -0.0603 -0.8503
19227TIP3    H179172   5.885   3.600  14.919  1.4257 -0.1032 -0.5413
19227TIP3    H279173   5.808   3.479  14.967  0.1089  0.3653 -1.4570
19228TIP3   OH279174   0.857   6.129   3.237  0.1086 -0.2627  0.1123
19228TIP3    H179175   0.813   6.179   3.168  1.3376  0.2163 -0.3351
19228TIP3    H279176   0.905   6.195   3.288 -0.6099 -0.6370  1.2975
19229TIP3   OH279177   1.663   4.217  14.726  0.4077 -0.1080  0.4277
19229TIP3    H179178   1.717   4.191  14.800 -0.1769  1.0760  1.2809
19229TIP3    H279179   1.719   4.203  14.649  1.9013  1.0285  1.2903
19230TIP3   OH279180   2.581   4.393   1.705 -0.3359 -0.6726 -0.3825
19230TIP3    H179181   2.522   4.384   1.779  0.5855 -0.6658  0.3646
19230TIP3    H279182   2.578   4.486   1.683 -1.8290 -0.9408 -1.3887
19231TIP3   OH279183   3.785   4.743   4.036 -0.2523 -0.8939  0.2860
19231TIP3    H179184   3.848   4.706   4.098 -0.5375 -1.0991  0.4554
19231TIP3    H279185   3.831   4.817   3.997  0.1990 -1.2109  0.2002
19232TIP3   OH279186   0.277   3.179  16.599  0.3845 -0.0702  0.2915
19232TIP3    H179187   0.214   3.250  16.606  0.3472 -0.2234  1.7282
19232TIP3    H279188   0.347   3.203  16.660  0.9188 -0.6964 -0.0698
19233TIP3   OH279189   3.677   3.845   6.111 -0.5887  0.5736 -0.2032
19233TIP3    H179190   3.672   3.932   6.152 -1.2228  0.2879  0.3359
19233TIP3    H279191   3.707   3.863   6.022 -3.6304  1.6820 -1.0673
19234TIP3   OH279192   4.208   5.543  13.427  0.2766 -0.2735 -0.6609
19234TIP3    H179193   4.244   5.459  13.398  1.0780 -0.5480  1.0376
19234TIP3    H279194   4.268   5.571  13.497 -1.7515  0.1618  0.9522
19235TIP3   OH279195   0.136   3.704  12.535 -0.2937 -0.5662 -0.3416
19235TIP3    H179196   0.149   3.798  12.549 -1.6468 -0.2493 -1.0847
19235TIP3    H279197   0.199   3.681  12.468  0.2787 -0.2565  0.0872
19236TIP3   OH279198   4.942   6.584   0.581 -0.0343 -0.1616 -0.7002
19236TIP3    H179199   4.872   6.623   0.530  0.6898  2.6058  0.3394
19236TIP3    H279200   5.008   6.653   0.588  1.2567 -1.5407  1.2774
19237TIP3   OH279201   1.883   2.527  17.277 -0.7380  0.2153  0.2429
19237TIP3    H179202   1.793   2.494  17.271 -1.6254  2.5716  0.2254
19237TIP3    H279203   1.874   2.622  17.282  1.7123  0.4450  1.2325
19238TIP3   OH279204   3.552   2.360  15.554 -0.0261 -0.0454 -0.7003
19238TIP3    H179205   3.499   2.354  15.633  0.9695  2.2110  0.1992
19238TIP3    H279206   3.496   2.326  15.485 -1.1992 -1.3400  0.8526
19239TIP3   OH279207   0.527   5.950   3.595 -0.0382 -0.2163  0.5474
19239TIP3    H179208   0.587   5.928   3.524 -2.4235  0.3410 -1.7200
19239TIP3    H279209   0.543   6.043   3.613  0.2578 -0.2430  0.4115
19240TIP3   OH279210   4.028   3.142  15.304 -0.3552 -0.3861 -0.0588
19240TIP3    H179211   3.973   3.155  15.227 -0.1958  1.7735  0.1634
19240TIP3    H279212   4.072   3.059  15.289 -1.9103 -0.9966 -1.3209
19241TIP3   OH279213   3.423   6.252  13.522 -0.4357 -0.1474 -0.0224
19241TIP3    H179214   3.395   6.245  13.613  0.1624 -1.0186  0.1026
19241TIP3    H279215   3.408   6.344  13.499 -1.2456 -0.0876  0.7333
19242TIP3   OH279216   5.712   5.750   3.670 -0.0304  0.4363  0.2119
19242TIP3    H179217   5.668   5.761   3.585 -1.0965  0.4494  0.7578
19242TIP3    H279218   5.801   5.725   3.647 -0.2697  0.5706 -0.9217
19243TIP3   OH279219   6.557   1.494   1.978 -0.0785  0.0835  0.1810
19243TIP3    H179220   6.594   1.580   1.958 -1.3350  0.1809 -1.8628
19243TIP3    H279221   6.576   1.481   2.071 -0.7955  3.0526  0.8064
19244TIP3   OH279222   2.788   2.126   6.061  0.4335 -0.5374 -0.0145
19244TIP3    H179223   2.697   2.095   6.060  0.8621 -1.8604  0.6143
19244TIP3    H279224   2.834   2.067   6.002  0.8836  0.1412 -0.3446
19245TIP3   OH279225   1.429   4.087  13.468  0.2771  0.1458 -0.3243
19245TIP3    H179226   1.385   4.171  13.459 -0.6784 -0.2649  0.3367
19245TIP3    H279227   1.522   4.108  13.476  0.2350  1.0153 -1.9820
19246TIP3   OH279228   6.138   1.570  11.944  0.3910  0.2211  0.0094
19246TIP3    H179229   6.150   1.541  11.854  1.6935 -0.6709  0.4618
19246TIP3    H279230   6.145   1.666  11.939  0.2403  0.1901 -0.8631
19247TIP3   OH279231   0.886   0.914   0.404 -0.3602  0.3366 -0.1869
19247TIP3    H179232   0.867   0.828   0.367 -0.0642  0.0785  0.2509
19247TIP3    H279233   0.964   0.943   0.357  1.3457 -0.9593  1.7376
19248TIP3   OH279234   2.540   4.185  11.484  0.1530  0.4709 -0.3354
19248TIP3    H179235   2.535   4.181  11.580 -0.4738 -1.1578 -0.4253
19248TIP3    H279236   2.607   4.252  11.467  2.9344 -1.7887  1.2767
19249TIP3   OH279237   2.538   3.526  14.159  0.1583 -0.9272  0.2710
19249TIP3    H179238   2.632   3.541  14.166  0.4787 -3.1148  0.8886
19249TIP3    H279239   2.510   3.584  14.089  1.8459  0.2612  0.5453
19250TIP3   OH279240   0.298   2.493  16.753  0.3841 -0.0399 -0.0273
19250TIP3    H179241   0.382   2.531  16.781  0.4343 -0.0489 -0.1690
19250TIP3    H279242   0.313   2.399  16.754  0.4502 -0.0300 -0.3015
19251TIP3   OH279243   1.956   2.275  16.165  0.1273  0.1891 -0.0798
19251TIP3    H179244   1.945   2.350  16.107  1.3772  0.1879 -0.3314
19251TIP3    H279245   1.867   2.245  16.183 -0.3934  1.8010  0.1269
19252TIP3   OH279246   0.115   2.083  14.595 -0.0201  0.1967 -0.5121
19252TIP3    H179247   0.192   2.070  14.651 -0.8219  0.5499  0.6886
19252TIP3    H279248   0.113   2.006  14.538  1.0726  0.0637 -0.3718
19253TIP3   OH279249   1.586   4.127   4.608  0.0789 -0.2968 -0.0951
19253TIP3    H179250   1.615   4.170   4.688  0.6085  0.8668 -0.9041
19253TIP3    H279251   1.492   4.142   4.604  0.1978  0.4181 -0.1564
19254TIP3   OH279252   4.070   2.080   1.871 -0.2545 -0.0295  0.6568
19254TIP3    H179253   4.141   2.087   1.935  1.1969 -1.4716 -0.7670
19254TIP3    H279254   4.114   2.067   1.787 -2.2417 -2.5484 -0.0405
19255TIP3   OH279255   1.841   1.327   6.356 -0.3451  0.6514 -0.5401
19255TIP3    H179256   1.785   1.403   6.374 -1.4023 -0.2883  0.1647
19255TIP3    H279257   1.806   1.289   6.276 -0.8367 -0.0319 -0.0097
19256TIP3   OH279258   4.083   0.951   1.962  0.1999  0.0040 -0.0597
19256TIP3    H179259   4.042   1.037   1.950 -0.9615 -0.3947  0.9675
19256TIP3    H279260   4.095   0.943   2.056  3.3044  0.3871 -0.3925
19257TIP3   OH279261   3.742   4.995   5.057  0.4699 -0.7860  0.9112
19257TIP3    H179262   3.809   5.010   5.123 -0.2423 -1.1353  1.7311
19257TIP3    H279263   3.760   4.907   5.023 -0.3913 -1.4437  2.1227
19258TIP3   OH279264   2.926   6.577  16.332  0.3054 -0.4574  0.1768
19258TIP3    H179265   2.981   6.656  16.327 -0.2905 -0.0972 -0.7012
19258TIP3    H279266   2.984   6.511  16.370  1.3818 -0.1006 -0.8102
19259TIP3   OH279267   2.956   1.672   1.445  0.1002 -0.2625 -0.5001
19259TIP3    H179268   2.938   1.756   1.403 -0.2001  0.2191  0.5628
19259TIP3    H279269   3.024   1.692   1.510 -2.4372 -0.0711  2.2309
19260TIP3   OH279270   2.857   3.525  11.638 -0.0611  0.4299  0.0406
19260TIP3    H179271   2.832   3.463  11.707  0.1978  0.9176  0.5820
19260TIP3    H279272   2.915   3.587  11.682  0.0925  0.7587 -0.6175
19261TIP3   OH279273   2.865   5.221  13.632 -0.5725 -0.1475 -0.1616
19261TIP3    H179274   2.882   5.142  13.581  2.0633 -0.6460  1.4394
19261TIP3    H279275   2.836   5.189  13.718 -1.4274  0.6564 -0.1377
19262TIP3   OH279276   4.578   5.530   6.108 -0.0663 -0.1183  0.2967
19262TIP3    H179277   4.623   5.448   6.089 -0.7386 -0.3920 -0.1561
19262TIP3    H279278   4.641   5.598   6.085  0.5745 -0.5018  0.8783
19263TIP3   OH279279   4.720   6.431  13.536 -0.5134  0.3797 -0.1979
19263TIP3    H179280   4.705   6.522  13.560 -0.7087  0.8051 -1.9125
19263TIP3    H279281   4.665   6.381  13.597 -0.2513  1.3841  0.8732
19264TIP3   OH279282   0.888   4.158  15.571 -0.4270 -0.3293 -0.6750
19264TIP3    H179283   0.847   4.201  15.496 -1.1145  0.3338  0.0719
19264TIP3    H279284   0.840   4.192  15.647  1.2715  0.1813  0.1849
19265TIP3   OH279285   1.240   5.310   3.130 -0.5164  0.7606  0.0657
19265TIP3    H179286   1.233   5.315   3.225 -2.1053  0.4595 -0.0185
19265TIP3    H279287   1.291   5.387   3.105  0.2068  0.6416  1.1934
19266TIP3   OH279288   2.441   2.764  12.299  0.0037 -0.3610 -0.1612
19266TIP3    H179289   2.363   2.726  12.339  0.0165 -0.7186 -0.4800
19266TIP3    H279290   2.430   2.751  12.205  0.3770 -0.2782 -0.2212
19267TIP3   OH279291   6.194   5.101  13.741  0.1562  0.5522 -0.1562
19267TIP3    H179292   6.107   5.137  13.725 -0.0227  0.5764  0.8017
19267TIP3    H279293   6.182   5.006  13.737  0.1554  0.5600 -0.3562
19268TIP3   OH279294   3.036   1.000  15.540  0.2348  0.0862 -0.3245
19268TIP3    H179295   3.007   1.089  15.520 -0.5960  0.6401  3.0107
19268TIP3    H279296   2.999   0.982  15.626 -0.2805 -3.8209 -1.2841
19269TIP3   OH279297   6.331   4.888   5.271 -0.3492 -0.2645 -0.6108
19269TIP3    H179298   6.318   4.794   5.284  2.5024 -0.3332  2.1840
19269TIP3    H279299   6.280   4.930   5.341  0.3148  0.1510 -0.3663
19270TIP3   OH279300   4.915   1.438  14.969 -0.1245 -0.3275  0.2711
19270TIP3    H179301   4.830   1.477  14.988  0.8995  1.8424  0.5956
19270TIP3    H279302   4.960   1.503  14.915  1.8094 -0.8489  1.1822
19271TIP3   OH279303   2.582   4.827  15.115  0.3740  0.2910  0.1230
19271TIP3    H179304   2.575   4.753  15.055  2.2486 -0.0775  0.3395
19271TIP3    H279305   2.534   4.897  15.072 -1.2258 -0.9625 -0.2068
19272TIP3   OH279306   4.346   0.511  13.129  0.3151  0.0812  0.2791
19272TIP3    H179307   4.289   0.533  13.055 -1.2066 -0.6121  1.2175
19272TIP3    H279308   4.346   0.416  13.132  1.3493  0.0852  0.4263
19273TIP3   OH279309   2.617   6.764   0.285  0.2225  0.1897  0.0550
19273TIP3    H179310   2.653   6.702   0.222 -1.3443  1.6630 -2.3222
19273TIP3    H279311   2.600   6.844   0.235 -0.5054  1.5939  2.4496
19274TIP3   OH279312   0.515   4.627  16.002 -0.3899  0.3909 -0.1258
19274TIP3    H179313   0.438   4.585  15.965 -2.2496  3.2905  0.3562
19274TIP3    H279314   0.498   4.629  16.096  1.7007 -1.7072  0.3562
19275TIP3   OH279315   3.151   5.465   0.587 -0.3363 -0.0457  0.4537
19275TIP3    H179316   3.184   5.473   0.497 -0.1023 -0.9947  0.4488
19275TIP3    H279317   3.135   5.372   0.598  0.5743 -0.0544  1.7300
19276TIP3   OH279318   0.790   1.356  15.249  0.0332 -0.5162 -0.0365
19276TIP3    H179319   0.700   1.348  15.280 -0.5931  1.6401 -1.2297
19276TIP3    H279320   0.831   1.421  15.306  0.9479 -1.7069  0.6978
19277TIP3   OH279321   0.754   5.548  12.605 -0.5465  0.1711  0.3089
19277TIP3    H179322   0.765   5.465  12.652  0.8354  0.3686  0.3674
19277TIP3    H279323   0.756   5.614  12.675  1.1565  0.4408  0.0276
19278TIP3   OH279324   3.863   0.278   5.253  0.6135 -0.4910  0.3039
19278TIP3    H179325   3.935   0.241   5.201  0.3797  0.6518 -0.8593
19278TIP3    H279326   3.784   0.255   5.204  0.4336  1.1061 -0.1861
19279TIP3   OH279327   1.929   3.047   4.425 -0.1960 -0.0602 -0.2594
19279TIP3    H179328   2.024   3.059   4.425 -0.1924  0.5803  3.1821
19279TIP3    H279329   1.896   3.120   4.478 -2.5234 -0.8324 -0.5998
19280TIP3   OH279330   4.680   0.593  16.358 -0.2612  0.4640  0.3944
19280TIP3    H179331   4.603   0.645  16.334 -0.0273  0.3007 -0.7494
19280TIP3    H279332   4.658   0.556  16.443 -0.5708  2.1655  1.0752
19281TIP3   OH279333   0.246   6.036  16.597  0.0570  0.1342 -0.6584
19281TIP3    H179334   0.165   6.064  16.555  0.4825 -0.2973 -1.8034
19281TIP3    H279335   0.266   5.951  16.556 -0.1701 -0.8903  1.3222
19282TIP3   OH279336   5.792   0.105   6.478  0.4293  0.1346 -0.3823
19282TIP3    H179337   5.838   0.142   6.554  1.7062 -0.6052 -0.7689
19282TIP3    H279338   5.836   0.021   6.463 -0.2387 -0.0120 -1.5478
19283TIP3   OH279339   6.510   4.994  13.665  0.3073 -0.3611  0.4241
19283TIP3    H179340   6.545   4.907  13.682  0.4315 -0.4821 -0.4302
19283TIP3    H279341   6.431   5.000  13.720 -1.6284 -2.2910 -2.0100
19284TIP3   OH279342   5.037   6.608  16.419 -0.1141 -0.4558  0.1277
19284TIP3    H179343   5.063   6.605  16.511 -2.6974 -2.5460  0.8301
19284TIP3    H279344   4.979   6.684  16.413  0.4673 -0.0075  0.0827
19285TIP3   OH279345   0.365   0.437  14.233 -0.3958 -0.3478  0.4305
19285TIP3    H179346   0.306   0.363  14.245 -1.0346  0.0055 -0.4264
19285TIP3    H279347   0.447   0.398  14.204 -1.0768 -0.6550 -1.1506
19286TIP3   OH279348   5.696   3.191  10.531  0.0761  0.0428 -0.0983
19286TIP3    H179349   5.631   3.247  10.573 -1.7848 -0.4171 -2.3176
19286TIP3    H279350   5.645   3.127  10.482  2.1933 -1.9167  0.1507
19287TIP3   OH279351   4.670   2.893   6.853  0.0063  0.1963 -0.0353
19287TIP3    H179352   4.716   2.948   6.789 -0.0622 -0.0404 -0.2878
19287TIP3    H279353   4.635   2.956   6.916 -2.6888  0.7492 -1.9799
19288TIP3   OH279354   5.638   0.303  12.480  0.0457  0.5045  0.3666
19288TIP3    H179355   5.662   0.394  12.496  0.7088  0.6892 -1.5179
19288TIP3    H279356   5.720   0.260  12.456  0.3188 -1.3379  4.2266
19289TIP3   OH279357   2.986   1.986   5.913  0.1756 -0.3489 -0.4681
19289TIP3    H179358   3.053   1.955   5.974  2.7265  3.1620 -1.3500
19289TIP3    H279359   3.001   1.937   5.833 -0.2870 -1.7510  0.2937
19290TIP3   OH279360   4.873   1.543   3.378  0.2754 -0.2468 -0.0387
19290TIP3    H179361   4.943   1.581   3.431 -1.2152  1.0275  1.0850
19290TIP3    H279362   4.911   1.535   3.290  1.6629  0.9331  0.4240
19291TIP3   OH279363   5.902   3.175  16.689 -0.4399 -0.3074 -0.6400
19291TIP3    H179364   5.879   3.109  16.624  1.0870  0.0342 -1.5606
19291TIP3    H279365   5.997   3.167  16.698 -0.6367 -0.5063  1.7403
19292TIP3   OH279366   2.690   4.205   3.594  0.4150 -0.0263 -0.4943
19292TIP3    H179367   2.756   4.155   3.642 -0.2823 -0.4122  0.0716
19292TIP3    H279368   2.634   4.139   3.554 -0.8130  0.2805  0.6691
19293TIP3   OH279369   5.512   6.615  11.402 -0.2140 -0.4026 -0.1902
19293TIP3    H179370   5.557   6.531  11.416 -0.3927 -0.2644  1.3379
19293TIP3    H279371   5.438   6.593  11.346  0.0528 -1.1800 -0.2535
19294TIP3   OH279372   0.522   1.293   4.371  0.1690  0.3311 -0.6518
19294TIP3    H179373   0.431   1.316   4.353  0.1933  1.5517  0.6624
19294TIP3    H279374   0.534   1.313   4.464  1.8240  0.3923 -0.8549
19295TIP3   OH279375   4.049   0.426  11.176 -0.0528  0.0721 -0.5720
19295TIP3    H179376   4.140   0.441  11.200 -0.0012 -0.5469 -0.3699
19295TIP3    H279377   4.028   0.496  11.114  0.9166 -0.4917 -1.5393
19296TIP3   OH279378   0.973   0.753   5.746 -0.0245  0.6433 -0.4720
19296TIP3    H179379   0.951   0.734   5.654 -2.5832  0.6688  0.1100
19296TIP3    H279380   0.988   0.666   5.784 -0.6670  0.5042 -0.5180
19297TIP3   OH279381   5.471   4.621   1.657 -0.0319  0.5933 -0.2449
19297TIP3    H179382   5.489   4.527   1.653  0.1957  0.5820  0.8346
19297TIP3    H279383   5.538   4.656   1.715  0.4487  1.5783 -1.3692
19298TIP3   OH279384   2.046   2.968  15.820  0.1024 -0.2007 -0.4122
19298TIP3    H179385   2.048   3.063  15.819 -1.1084 -0.1537  0.0540
19298TIP3    H279386   1.979   2.944  15.756  0.4322 -0.7429 -0.5631
19299TIP3   OH279387   5.736   0.823   3.827  0.2992 -0.3601  0.0120
19299TIP3    H179388   5.700   0.764   3.894  2.6487  0.0519  1.6738
19299TIP3    H279389   5.745   0.907   3.872  0.9744  0.1768 -1.1158
19300TIP3   OH279390   1.935   4.582   3.053 -0.5120 -0.6319  0.0681
19300TIP3    H179391   1.973   4.620   3.132  3.4846 -0.6027 -1.7289
19300TIP3    H279392   1.902   4.657   3.004  1.3394 -0.0912 -0.4109
19301TIP3   OH279393   2.431   3.132  14.428  0.7180 -0.6437  0.4172
19301TIP3    H179394   2.419   3.226  14.413  1.1837 -0.6383  0.0750
19301TIP3    H279395   2.478   3.127  14.511  0.8871 -0.5638  0.3264
19302TIP3   OH279396   4.506   6.074   3.486 -0.1780  0.6160  0.1552
19302TIP3    H179397   4.494   6.151   3.431 -0.6375  1.4850  1.4733
19302TIP3    H279398   4.558   6.104   3.560 -1.5963  0.0190  1.4348
19303TIP3   OH279399   1.357   3.614   2.755  0.3603 -0.3191  0.1858
19303TIP3    H179400   1.442   3.656   2.740  1.1034 -1.2946  1.5155
19303TIP3    H279401   1.355   3.539   2.696 -0.5110  0.9172 -1.4055
19304TIP3   OH279402   0.631   1.865  13.953 -0.1849  0.3474 -0.1095
19304TIP3    H179403   0.550   1.867  13.902 -0.5816 -0.9159  0.4546
19304TIP3    H279404   0.695   1.826  13.893 -0.1812  0.6462 -0.3003
19305TIP3   OH279405   1.775   5.636   4.653  0.2784 -0.0536 -0.1644
19305TIP3    H179406   1.821   5.596   4.726 -0.4357  1.6804  1.2636
19305TIP3    H279407   1.843   5.680   4.603  0.6310 -0.3783  0.0271
19306TIP3   OH279408   3.587   2.110   3.792  0.2640  0.6343 -1.0354
19306TIP3    H179409   3.667   2.059   3.791  0.7374  1.3850 -1.6992
19306TIP3    H279410   3.540   2.084   3.713 -0.0653  0.3385 -0.7479
19307TIP3   OH279411   6.707   0.261   0.560  0.1583  0.1070  0.4646
19307TIP3    H179412   6.784   0.272   0.505  1.0131 -0.2218  1.5601
19307TIP3    H279413   6.634   0.251   0.499  0.9715  0.5224 -0.5837
19308TIP3   OH279414   1.907   3.918   1.533  0.4039 -0.4496 -0.4646
19308TIP3    H179415   1.824   3.912   1.581  0.1948 -1.1803 -0.8960
19308TIP3    H279416   1.943   4.003   1.556 -0.5552 -0.0589 -0.4025
19309TIP3   OH279417   6.657   4.892  16.378  0.3195  0.0993  0.3189
19309TIP3    H179418   6.689   4.805  16.352  0.1908  0.0827  0.2155
19309TIP3    H279419   6.614   4.878  16.462  0.8937  0.1857  0.6367
19310TIP3   OH279420   2.397   2.131  11.720  0.9492  0.5851 -0.3817
19310TIP3    H179421   2.375   2.204  11.663 -0.9189  1.4101  1.3478
19310TIP3    H279422   2.470   2.162  11.773  1.0535  0.7113 -0.6000
19311TIP3   OH279423   2.503   2.936   3.556  0.2442  0.2356  0.7651
19311TIP3    H179424   2.597   2.951   3.546  0.5532 -1.8211  0.3950
19311TIP3    H279425   2.465   2.967   3.473  0.5073  1.5676  1.1222
19312TIP3   OH279426   5.116   3.859   0.107  0.3874 -0.0508 -0.4021
19312TIP3    H179427   5.199   3.898   0.135  0.7103 -0.8432 -0.2240
19312TIP3    H279428   5.095   3.796   0.176 -0.1048 -0.2178 -0.7009
19313TIP3   OH279429   3.338   4.838   0.078 -0.0431  0.3425 -0.4234
19313TIP3    H179430   3.337   4.894   0.000 -1.1368  1.2503  0.2119
19313TIP3    H279431   3.388   4.889   0.142  1.2214 -0.5926 -0.6672
19314TIP3   OH279432   2.655   1.489  11.257 -0.0037 -0.4185  0.7670
19314TIP3    H179433   2.615   1.415  11.303  0.3867 -0.7532  0.5681
19314TIP3    H279434   2.582   1.548  11.239 -0.4061 -1.0100  0.4374
19315TIP3   OH279435   2.808   6.303  12.542  0.1141 -0.3307 -0.3835
19315TIP3    H179436   2.776   6.302  12.452 -1.8444  0.5826  0.2801
19315TIP3    H279437   2.742   6.253  12.591  0.6149  0.0761  0.7160
19316TIP3   OH279438   0.429   1.987   4.748 -0.1123  0.5466 -0.2671
19316TIP3    H179439   0.400   1.944   4.668 -1.2718 -2.0861  1.4950
19316TIP3    H279440   0.349   2.008   4.795  0.5829 -2.5681  2.4973
19317TIP3   OH279441   1.857   1.116   3.240  0.6007 -0.2768 -0.3828
19317TIP3    H179442   1.941   1.080   3.210  0.5982 -0.4240 -0.2146
19317TIP3    H279443   1.815   1.043   3.284 -0.0639 -0.4961 -1.3697
19318TIP3   OH279444   2.374   0.752  11.279 -0.0681  0.2572 -0.4161
19318TIP3    H179445   2.298   0.709  11.240  0.5513 -0.1325 -1.2334
19318TIP3    H279446   2.392   0.826  11.221  0.2831  0.2397 -0.3322
19319TIP3   OH279447   1.245   6.077  14.216  0.4938 -0.0454  0.7529
19319TIP3    H179448   1.230   6.163  14.256  1.0413 -0.5587  2.1018
19319TIP3    H279449   1.222   6.014  14.285  0.3851 -0.9857 -0.1203
19320TIP3   OH279450   1.852   4.140  14.119 -0.3941  0.1562 -0.2942
19320TIP3    H179451   1.805   4.057  14.116 -0.9791  0.4411  0.5364
19320TIP3    H279452   1.797   4.196  14.175  0.0548  1.0560 -0.7387
19321TIP3   OH279453   4.689   6.593   3.870 -0.1637  0.5300 -0.5267
19321TIP3    H179454   4.630   6.664   3.893  0.5102  0.8368  0.2787
19321TIP3    H279455   4.679   6.582   3.776 -0.9739  1.0481 -0.5037
19322TIP3   OH279456   6.177   1.100   5.451 -0.7557 -0.2570  0.3128
19322TIP3    H179457   6.218   1.035   5.508  1.2715  0.8892  0.1959
19322TIP3    H279458   6.216   1.085   5.365  0.6022  1.8110  0.5274
19323TIP3   OH279459   2.829   6.321  17.172  0.1322  0.2033  0.5654
19323TIP3    H179460   2.756   6.263  17.153 -2.0889  1.9414  3.3382
19323TIP3    H279461   2.864   6.288  17.255  0.5311  1.2466  0.8168
19324TIP3   OH279462   2.378   6.690  13.526  0.0587 -0.1580  0.1633
19324TIP3    H179463   2.327   6.763  13.491  0.3137  0.1674  0.4550
19324TIP3    H279464   2.414   6.724  13.608  0.2682 -0.5778  0.2461
19325TIP3   OH279465   4.168   1.609  15.667 -0.4638 -0.3865 -0.2079
19325TIP3    H179466   4.250   1.595  15.715  0.0068  1.8682 -0.2727
19325TIP3    H279467   4.182   1.566  15.583  0.8718  0.4351 -0.4182
19326TIP3   OH279468   1.833   4.789   2.914  0.5247 -0.0846  0.1272
19326TIP3    H179469   1.900   4.816   2.851 -1.6062  2.0603 -1.2951
19326TIP3    H279470   1.781   4.868   2.929 -0.1933 -1.0625  3.1191
19327TIP3   OH279471   2.040   5.848   4.692 -0.6209  0.2983 -0.0865
19327TIP3    H179472   2.016   5.794   4.617  0.0580  0.5699 -0.5010
19327TIP3    H279473   1.994   5.931   4.678 -0.5777  0.3117 -0.1533
19328TIP3   OH279474   2.297   5.950   5.389 -0.1445  0.3837 -0.7569
19328TIP3    H179475   2.207   5.923   5.409 -0.2903  0.1543 -1.7337
19328TIP3    H279476   2.339   5.872   5.356  0.5887  0.3503  0.2512
19329TIP3   OH279477   6.400   2.551   3.124 -0.5026  0.1849 -0.4854
19329TIP3    H179478   6.410   2.632   3.074 -2.1713 -0.7911 -2.4833
19329TIP3    H279479   6.487   2.511   3.124  0.3380  1.9742  0.5446
19330TIP3   OH279480   5.004   3.874  12.910  0.1692  0.4806  0.1725
19330TIP3    H179481   5.072   3.938  12.889 -0.8629  2.0116  1.4148
19330TIP3    H279482   4.980   3.837  12.825  1.1970  1.3083 -0.4919
19331TIP3   OH279483   2.335   3.904   1.784 -0.1873  0.2671  0.5399
19331TIP3    H179484   2.263   3.872   1.729  1.1931 -1.5186 -0.3007
19331TIP3    H279485   2.352   3.832   1.845  0.9522  0.6154  0.6451
19332TIP3   OH279486   5.016   3.247   4.748 -0.3361  0.5332 -0.6456
19332TIP3    H179487   5.056   3.178   4.694 -1.2704 -0.4361 -0.1160
19332TIP3    H279488   4.944   3.280   4.694 -0.9108 -0.0392 -0.2333
19333TIP3   OH279489   1.723   3.243   5.824 -0.2655 -0.4560 -0.1645
19333TIP3    H179490   1.799   3.208   5.777 -0.2796 -0.7522  0.0313
19333TIP3    H279491   1.657   3.256   5.757 -0.3992 -1.1921 -0.1769
19334TIP3   OH279492   6.100   3.580  13.964  0.6564 -0.0871  0.2733
19334TIP3    H179493   6.166   3.645  13.942 -1.2131  1.6949 -0.2062
19334TIP3    H279494   6.057   3.614  14.043  0.5736 -1.4095  0.8102
19335TIP3   OH279495   1.252   3.020  13.071  0.7777 -0.0166 -0.3156
19335TIP3    H179496   1.277   3.072  12.995  1.0523 -1.4237 -1.2060
19335TIP3    H279497   1.173   3.063  13.105  0.0246  0.0117 -2.0394
19336TIP3   OH279498   4.271   5.324   0.082 -0.5905  0.2169 -0.1985
19336TIP3    H179499   4.251   5.234   0.056  0.2649  0.0122 -0.1682
19336TIP3    H279500   4.362   5.320   0.110 -0.4714  1.1622 -0.4677
19337TIP3   OH279501   2.266   0.032   6.391  0.0972 -0.1148 -0.0022
19337TIP3    H179502   2.327   0.067   6.455  0.2403 -0.0722 -0.1618
19337TIP3    H279503   2.308  -0.048   6.359 -1.1209 -1.5268  1.8111
19338TIP3   OH279504   4.447   5.385  11.203 -0.6454 -0.4980  0.0750
19338TIP3    H179505   4.541   5.367  11.194 -0.7055 -0.2064 -1.2957
19338TIP3    H279506   4.437   5.477  11.177 -0.9495  0.2957  2.8390
19339TIP3   OH279507   5.458   0.296  14.485 -0.0986 -0.3191 -0.0463
19339TIP3    H179508   5.397   0.232  14.520 -1.5461  0.2293 -1.4960
19339TIP3    H279509   5.515   0.246  14.426  0.7631 -0.8026  1.1892
19340TIP3   OH279510   0.203   2.334   6.308  0.1046  0.5077  0.0839
19340TIP3    H179511   0.152   2.391   6.366  1.9594  1.2408  1.0486
19340TIP3    H279512   0.177   2.246   6.333  0.0039  0.8491  1.2508
19341TIP3   OH279513   2.797   3.640  12.025  0.5640  0.5675  0.4282
19341TIP3    H179514   2.839   3.726  12.035 -0.3047  1.0233  0.2346
19341TIP3    H279515   2.869   3.580  12.007  0.9872  1.5787 -1.3106
19342TIP3   OH279516   0.777   5.531  13.497 -0.5471  0.4130 -0.5816
19342TIP3    H179517   0.833   5.580  13.436 -0.9295  0.3411 -0.9899
19342TIP3    H279518   0.761   5.447  13.453  0.0023 -0.0336  0.0606
19343TIP3   OH279519   3.390   2.177  15.413  0.1193  0.4652 -0.0570
19343TIP3    H179520   3.325   2.182  15.344  0.2422 -1.1369 -0.3157
19343TIP3    H279521   3.347   2.129  15.483  0.5587  0.6137  0.3171
19344TIP3   OH279522   2.052   5.836   5.402  0.5704 -0.9032 -0.2508
19344TIP3    H179523   1.976   5.820   5.459  1.1121 -1.7944  0.2284
19344TIP3    H279524   2.040   5.776   5.329  0.3769 -0.4493 -0.5898
19345TIP3   OH279525   5.881   0.789   1.991 -0.0594 -0.3749 -0.3276
19345TIP3    H179526   5.797   0.805   1.948  0.5462 -0.3557 -1.5133
19345TIP3    H279527   5.888   0.694   1.994  0.6484 -0.3725 -1.7566
19346TIP3   OH279528   3.680   4.463   0.101 -0.1258 -0.2119  0.0270
19346TIP3    H179529   3.740   4.537   0.110 -0.7143  0.3401 -0.6302
19346TIP3    H279530   3.604   4.498   0.056  0.0959 -1.4853 -1.3782
19347TIP3   OH279531   1.896   3.297  13.696  0.3224  0.0926  0.0346
19347TIP3    H179532   1.917   3.263  13.609  0.3291  1.8411 -0.6651
19347TIP3    H279533   1.974   3.277  13.749  0.7904  0.0569 -0.6634
19348TIP3   OH279534   3.787   2.114  14.701 -0.0692 -0.0242 -0.2000
19348TIP3    H179535   3.848   2.165  14.648  0.7728 -1.9951 -1.2168
19348TIP3    H279536   3.801   2.023  14.672 -2.9602 -0.6125  0.0572
19349TIP3   OH279537   5.062   5.145  11.627  0.0712 -0.0423 -0.1715
19349TIP3    H179538   5.080   5.058  11.663  1.8372  1.4996  2.8697
19349TIP3    H279539   5.125   5.154  11.555  1.3255 -0.4861  0.8523
19350TIP3   OH279540   3.412   6.448  14.671 -0.6303 -0.1049  0.1692
19350TIP3    H179541   3.440   6.357  14.679  0.9778  0.4398  0.8622
19350TIP3    H279542   3.439   6.474  14.584 -3.3910 -1.0385 -1.0223
19351TIP3   OH279543   3.456   1.599  12.524  0.2089  1.0108  0.0278
19351TIP3    H179544   3.500   1.621  12.606  0.9908 -1.8152  0.4456
19351TIP3    H279545   3.503   1.648  12.457  1.5241  1.0222  0.9395
19352TIP3   OH279546   6.585   5.300   5.799 -0.1419 -0.0156  0.0557
19352TIP3    H179547   6.490   5.302   5.792 -0.1362  1.3534  0.3011
19352TIP3    H279548   6.609   5.211   5.773 -1.3541  0.1059 -1.5479
19353TIP3   OH279549   3.796   2.377  15.687 -0.1641 -0.2944 -0.3455
19353TIP3    H179550   3.773   2.419  15.769 -0.8205 -0.8890 -0.2153
19353TIP3    H279551   3.716   2.381  15.635  0.8991  2.1995 -1.8908
19354TIP3   OH279552   2.105   1.245   0.138 -0.1353  0.1443  0.8264
19354TIP3    H179553   2.186   1.295   0.146 -0.6719  0.9488  1.2675
19354TIP3    H279554   2.055   1.289   0.070  0.7722 -1.7089 -1.0881
19355TIP3   OH279555   4.257   1.986   3.591 -0.3586  0.2326  0.3261
19355TIP3    H179556   4.191   1.988   3.522  1.5543  0.8080 -1.5724
19355TIP3    H279557   4.306   1.905   3.574  1.3091  1.3176 -0.2057
19356TIP3   OH279558   3.939   6.517   5.335  0.0717  0.0610  0.5875
19356TIP3    H179559   3.964   6.554   5.251 -0.3300  0.7160  0.7548
19356TIP3    H279560   3.976   6.428   5.334  3.0244  1.2367  1.1540
19357TIP3   OH279561   4.000   3.147   2.772  0.3006 -0.0385  0.0143
19357TIP3    H179562   3.934   3.215   2.764  1.1569  0.7893 -0.1566
19357TIP3    H279563   4.032   3.155   2.862  0.7077  0.0773 -0.1388
19358TIP3   OH279564   6.766   4.299  15.556 -0.4134 -0.2395 -0.7413
19358TIP3    H179565   6.714   4.225  15.525  0.5295 -1.0953 -0.3094
19358TIP3    H279566   6.787   4.278  15.647  2.2037 -0.7908 -1.4300
19359TIP3   OH279567   5.940   1.888  15.220  0.2125  0.2414  0.3585
19359TIP3    H179568   5.987   1.837  15.155  0.5801  0.6264  0.3222
19359TIP3    H279569   5.977   1.861  15.304  0.8655  0.9203  0.2971
19360TIP3   OH279570   4.443   3.621   3.603 -0.3943  0.0567 -0.1755
19360TIP3    H179571   4.437   3.708   3.563  0.2105  0.3578  0.3892
19360TIP3    H279572   4.430   3.560   3.530  0.8605  0.6060 -0.8631
19361TIP3   OH279573   6.238   5.970   4.274 -0.2500 -0.5855  0.1007
19361TIP3    H179574   6.333   5.967   4.282 -0.3292 -1.4018  0.7896
19361TIP3    H279575   6.206   5.908   4.339 -1.2511 -0.4320 -0.2286
19362TIP3   OH279576   1.503   6.344  12.263 -0.2687 -0.1633  0.1738
19362TIP3    H179577   1.443   6.273  12.238  0.1130 -1.0539  1.6918
19362TIP3    H279578   1.586   6.322  12.221 -0.4584  0.0115 -0.2998
19363TIP3   OH279579   5.780   4.033   3.112  0.0958 -0.4855  0.1513
19363TIP3    H179580   5.721   4.109   3.108  1.5890  0.6929  0.0449
19363TIP3    H279581   5.761   3.994   3.197 -0.2112  0.4015  0.5016
19364TIP3   OH279582   1.463   2.099  11.863  0.1350 -0.1347 -0.6958
19364TIP3    H179583   1.448   2.005  11.859  1.5926 -0.4142  0.0443
19364TIP3    H279584   1.543   2.112  11.812  1.3069  0.3750  1.2415
19365TIP3   OH279585   4.794   6.262   3.692 -0.2358 -0.1247  0.1065
19365TIP3    H179586   4.824   6.346   3.726 -0.6854  0.0078  0.1875
19365TIP3    H279587   4.703   6.255   3.723 -0.3180 -0.4695 -0.2069
19366TIP3   OH279588   0.147   4.256   0.366  0.1385  0.3556  0.4992
19366TIP3    H179589   0.076   4.276   0.427 -0.6557 -0.9807  0.0445
19366TIP3    H279590   0.206   4.200   0.416  0.6659  1.1322  0.7494
19367TIP3   OH279591   0.460   0.314   4.066 -0.2094 -0.8353  0.3230
19367TIP3    H179592   0.518   0.238   4.065 -1.9090 -2.1517 -1.0302
19367TIP3    H279593   0.418   0.313   3.979 -2.0996  0.1926  1.1992
19368TIP3   OH279594   4.871   0.129   4.281 -0.3140  0.0295  0.2515
19368TIP3    H179595   4.902   0.040   4.297 -0.4262 -0.3848 -1.6673
19368TIP3    H279596   4.799   0.142   4.342 -0.8557 -1.5241 -0.0453
19369TIP3   OH279597   0.498   2.147  16.859 -0.6821 -0.2586 -0.2096
19369TIP3    H179598   0.411   2.153  16.899 -1.1627 -0.2275 -1.2605
19369TIP3    H279599   0.557   2.183  16.926 -1.5510  0.3417  0.2460
19370TIP3   OH279600   3.276   3.433   1.972 -0.2891 -0.2145 -0.4636
19370TIP3    H179601   3.360   3.460   1.935 -0.1728  2.3450  1.4771
19370TIP3    H279602   3.298   3.400   2.059 -1.3646  1.8138  0.6371
19371TIP3   OH279603   4.985   4.107  16.392 -0.0071  0.2849  0.8523
19371TIP3    H179604   4.890   4.108  16.382 -0.0421  2.5171  1.1467
19371TIP3    H279605   5.002   4.051  16.467 -1.2286  1.4975  2.0397
19372TIP3   OH279606   0.635   5.781   6.295  0.6441  0.3173  0.7269
19372TIP3    H179607   0.691   5.788   6.372 -0.4128  2.2752  1.3499
19372TIP3    H279608   0.551   5.817   6.323  0.2876  1.1605 -1.3543
19373TIP3   OH279609   2.104   0.137  15.911  0.3712 -0.2924  0.2776
19373TIP3    H179610   2.065   0.091  15.837  1.2588 -1.0992  0.2928
19373TIP3    H279611   2.199   0.129  15.896  0.5657 -0.8098  1.6973
19374TIP3   OH279612   0.774   3.154   4.831  0.1172  0.4304  0.3439
19374TIP3    H179613   0.787   3.083   4.895 -0.6479  0.4004  0.4663
19374TIP3    H279614   0.853   3.208   4.839  1.2021 -0.9929 -0.5044
19375TIP3   OH279615   6.607   1.039  14.897  0.6284 -0.7383 -0.3551
19375TIP3    H179616   6.559   0.969  14.941 -2.8185  1.8322  0.2327
19375TIP3    H279617   6.662   1.077  14.966  0.5278 -1.2048 -0.0157
19376TIP3   OH279618   5.287   3.754   5.161 -0.4816  0.2939  0.4256
19376TIP3    H179619   5.210   3.709   5.196 -0.0026 -1.7743 -1.0833
19376TIP3    H279620   5.358   3.729   5.220 -0.4363 -0.0965  0.2144
19377TIP3   OH279621   6.136   6.265   0.965 -0.7019  0.2414  0.3592
19377TIP3    H179622   6.140   6.360   0.952 -0.9936  0.4809  1.9373
19377TIP3    H279623   6.055   6.251   1.014 -0.3876 -0.7756  0.5888
19378TIP3   OH279624   3.114   5.834  12.992  0.7234  0.4497 -0.8336
19378TIP3    H179625   3.177   5.877  13.049 -0.7667 -0.6310  1.7564
19378TIP3    H279626   3.033   5.884  13.004  0.8426  1.3503 -3.5087
19379TIP3   OH279627   0.624   5.036  12.602  0.4129  0.1329  0.2275
19379TIP3    H179628   0.642   5.123  12.567  0.9735 -1.0196 -2.4762
19379TIP3    H279629   0.534   5.017  12.574 -0.0907  0.2500  1.7185
19380TIP3   OH279630   0.764   3.219  15.870 -0.1467  0.2253 -0.0983
19380TIP3    H179631   0.743   3.210  15.777  0.5092  0.3192 -0.2577
19380TIP3    H279632   0.771   3.129  15.902  0.2944  0.1902 -0.2926
19381TIP3   OH279633   1.098   3.701  13.378 -0.3565 -0.3659 -0.3052
19381TIP3    H179634   1.159   3.764  13.415  1.0467 -1.0943 -1.3267
19381TIP3    H279635   1.153   3.641  13.327 -1.9044 -1.1107 -1.1375
19382TIP3   OH279636   5.799   5.028  14.780 -0.6717  0.3741 -0.1896
19382TIP3    H179637   5.742   4.977  14.723  0.4349 -1.5249  0.3658
19382TIP3    H279638   5.887   4.997  14.759 -0.1631  0.4801  1.7375
19383TIP3   OH279639   0.296   4.411  12.673  0.4019  0.4594  0.1176
19383TIP3    H179640   0.228   4.351  12.702 -0.3224  1.5843  0.8080
19383TIP3    H279641   0.339   4.366  12.601 -1.5728  0.0225 -0.8304
19384TIP3   OH279642   3.986   2.420  10.895 -0.8689  0.0991 -0.6048
19384TIP3    H179643   4.028   2.400  10.812  1.3232  2.2579 -0.0997
19384TIP3    H279644   3.965   2.513  10.890  2.0490  1.0394  2.2910
19385TIP3   OH279645   5.438   1.229  14.796 -0.8804 -0.7060 -0.5349
19385TIP3    H179646   5.439   1.207  14.703  1.4221  2.2524 -1.2850
19385TIP3    H279647   5.350   1.261  14.813 -1.2616 -1.1085 -1.7392
19386TIP3   OH279648   2.318   1.332  12.384  0.0173 -0.6633  0.0545
19386TIP3    H179649   2.322   1.427  12.374  1.2934 -0.6158  0.8038
19386TIP3    H279650   2.334   1.317  12.478 -3.5683 -1.4558  0.6335
19387TIP3   OH279651   1.813   5.879   1.118  0.2001 -0.2128 -0.2776
19387TIP3    H179652   1.901   5.871   1.080  0.5308 -1.4785  0.7201
19387TIP3    H279653   1.754   5.874   1.043  0.9861  1.3996 -1.0402
19388TIP3   OH279654   5.562   5.159   2.975  0.6768  0.2680  0.1669
19388TIP3    H179655   5.547   5.229   2.910 -0.3179  0.0365  0.1432
19388TIP3    H279656   5.489   5.167   3.036  1.1801 -0.0338  0.8120
19389TIP3   OH279657   0.623   0.140   4.795 -0.0890 -0.2698 -0.2312
19389TIP3    H179658   0.713   0.122   4.822 -0.0844  0.6728  0.3999
19389TIP3    H279659   0.569   0.103   4.866 -0.0961  1.6987  0.8187
19390TIP3   OH279660   5.752   4.932  12.600 -0.0885  0.1448  0.5295
19390TIP3    H179661   5.704   4.968  12.526  1.6299  2.0458  0.2885
19390TIP3    H279662   5.760   4.838  12.581  0.3864  0.6234 -1.7269
19391TIP3   OH279663   6.378   6.674  14.096 -0.0484 -0.0074 -0.0468
19391TIP3    H179664   6.458   6.700  14.051 -0.0830 -1.1215 -0.7848
19391TIP3    H279665   6.308   6.692  14.033 -0.0613 -1.9291 -0.6400
19392TIP3   OH279666   3.509   6.630   0.456 -0.3727 -0.1175  0.2988
19392TIP3    H179667   3.513   6.633   0.551 -1.7177 -0.7147  0.3982
19392TIP3    H279668   3.424   6.590   0.437 -1.9986  3.8139 -1.1978
19393TIP3   OH279669   0.807   0.740  17.126 -0.3166  0.3463 -0.1947
19393TIP3    H179670   0.733   0.758  17.184  0.5373  0.8533  0.7520
19393TIP3    H279671   0.769   0.690  17.054 -1.2649 -0.9090  1.1451
19394TIP3   OH279672   6.063   3.281   5.670  0.4252  0.0103 -0.1978
19394TIP3    H179673   6.153   3.252   5.652 -0.2497 -0.8877 -2.3423
19394TIP3    H279674   6.037   3.327   5.590  0.5671  4.4209  2.1794
19395TIP3   OH279675   6.469   4.132   4.638 -0.2369  0.2943 -0.1246
19395TIP3    H179676   6.410   4.057   4.642  0.9987 -0.6582  0.6443
19395TIP3    H279677   6.411   4.208   4.647 -1.4817 -0.5580 -0.7559
19396TIP3   OH279678   1.957   4.941  11.795 -0.1745 -0.3975 -0.2048
19396TIP3    H179679   1.977   4.849  11.811  1.2826 -0.0361  0.1373
19396TIP3    H279680   2.009   4.964  11.718 -1.6729 -0.2345 -1.1944
19397TIP3   OH279681   6.609   5.033   0.250  0.1486 -0.3026  0.6732
19397TIP3    H179682   6.661   5.068   0.323  0.0702  0.7218  0.2442
19397TIP3    H279683   6.583   5.110   0.200 -1.4728 -0.8267  0.6680
19398TIP3   OH279684   4.654   2.554  16.879  0.3230  0.1704 -0.1425
19398TIP3    H179685   4.630   2.473  16.834 -1.0338  1.1125 -1.1684
19398TIP3    H279686   4.630   2.624  16.817 -0.8146  1.4525  1.6846
19399TIP3   OH279687   3.202   4.572   4.211 -0.1663 -0.5485 -0.3029
19399TIP3    H179688   3.203   4.662   4.179  2.1610 -0.6770 -0.7378
19399TIP3    H279689   3.221   4.579   4.304  0.9037 -0.5954 -0.4992
19400TIP3   OH279690   6.666   5.406  16.081 -0.1507  0.3022  0.3364
19400TIP3    H179691   6.643   5.326  16.130  0.2396  0.6668  1.1169
19400TIP3    H279692   6.755   5.390  16.051 -0.1187  0.3949  0.3849
19401TIP3   OH279693   5.997   6.001  11.656 -0.2928  0.4771  0.0948
19401TIP3    H179694   6.021   5.908  11.653 -0.7745  0.3994 -2.0669
19401TIP3    H279695   5.903   6.002  11.637  0.1246  1.5344 -2.1384
19402TIP3   OH279696   3.195   6.118  16.679 -0.1882 -0.1263  0.0582
19402TIP3    H179697   3.199   6.210  16.652  0.3287 -0.1661  0.0035
19402TIP3    H279698   3.107   6.090  16.655  0.7916 -0.6562 -3.1060
19403TIP3   OH279699   4.907   0.174  12.061 -0.8132 -0.1079 -0.0058
19403TIP3    H179700   4.981   0.134  12.015 -1.0202 -2.0847  1.3385
19403TIP3    H279701   4.911   0.137  12.149 -1.7620  1.9104  0.9007
19404TIP3   OH279702   3.948   3.534   3.980  0.1874  0.0862 -0.1528
19404TIP3    H179703   3.868   3.481   3.977 -0.9108  1.7636 -3.1506
19404TIP3    H279704   4.018   3.474   3.956 -0.4840 -0.8722  0.2770
19405TIP3   OH279705   4.348   2.670  11.459 -0.2904  0.4500  0.5711
19405TIP3    H179706   4.263   2.668  11.503 -0.1337 -2.1654  0.7960
19405TIP3    H279707   4.326   2.693  11.368 -1.1416  0.6437  0.8195
19406TIP3   OH279708   1.481   1.135   5.158  0.5426 -0.2673 -0.0945
19406TIP3    H179709   1.543   1.189   5.108  0.2333  0.5583  0.4026
19406TIP3    H279710   1.501   1.154   5.249  0.1836 -0.7259  0.0800
19407TIP3   OH279711   2.424   6.259   6.507  0.4366 -0.0415 -0.3016
19407TIP3    H179712   2.343   6.309   6.492  0.1460 -0.4477 -0.0989
19407TIP3    H279713   2.462   6.298   6.586 -0.0552 -0.4755  0.1520
19408TIP3   OH279714   3.551   6.239   6.262 -0.1976  0.0785 -0.3849
19408TIP3    H179715   3.578   6.317   6.309  3.5795 -0.0962 -2.1150
19408TIP3    H279716   3.559   6.168   6.327 -3.1189  0.9711  1.0247
19409TIP3   OH279717   4.201   3.606  12.746  0.1061 -0.8650 -0.2221
19409TIP3    H179718   4.118   3.609  12.699  0.5360 -1.4274 -1.0408
19409TIP3    H279719   4.179   3.629  12.836 -0.7623  0.0369 -0.6583
19410TIP3   OH279720   5.939   6.346   3.515 -0.0929  0.1534 -0.8046
19410TIP3    H179721   5.880   6.317   3.584 -1.2881  0.0761 -1.8435
19410TIP3    H279722   5.935   6.442   3.518  3.6002  0.3677  2.4058
19411TIP3   OH279723   2.996   0.058  13.198 -0.1021  0.5475  0.1585
19411TIP3    H179724   2.976   0.146  13.231 -0.8167  0.3277  0.3318
19411TIP3    H279725   2.991   0.002  13.275 -1.2052  0.1166 -0.2145
19412TIP3   OH279726   0.066   2.189  13.629  1.0101  0.0294  0.0694
19412TIP3    H179727   0.106   2.158  13.710  0.6534  0.3065  0.3548
19412TIP3    H279728  -0.020   2.147  13.626  0.5084  1.0185  0.4821
19413TIP3   OH279729   0.025   1.046   4.334  0.3162  0.0842  0.1514
19413TIP3    H179730   0.020   1.136   4.365  0.2462  1.2041 -2.9343
19413TIP3    H279731  -0.064   1.023   4.309  0.1742 -1.1675  1.7591
19414TIP3   OH279732   5.080   6.738   2.086 -0.1468 -0.1077  0.3749
19414TIP3    H179733   5.001   6.689   2.112  0.8433 -2.3217 -0.6600
19414TIP3    H279734   5.138   6.732   2.162 -1.2801  2.2768  1.4729
19415TIP3   OH279735   4.581   1.262  13.206  0.4262 -0.1027 -0.4881
19415TIP3    H179736   4.489   1.280  13.186  0.8662 -0.6141 -3.0694
19415TIP3    H279737   4.585   1.167  13.215  0.7625 -0.1030 -0.6439
19416TIP3   OH279738   6.646   1.394  14.378  0.3467 -0.0799  0.3635
19416TIP3    H179739   6.583   1.434  14.439 -1.5558 -2.3765 -0.0013
19416TIP3    H279740   6.603   1.313  14.350  3.0865 -1.2355 -0.6570
19417TIP3   OH279741   5.881   3.041   4.472  0.1143 -0.3133  0.4458
19417TIP3    H179742   5.852   3.132   4.480  3.4548  0.7338  1.1153
19417TIP3    H279743   5.919   3.035   4.385 -1.8929 -1.6518 -0.3738
19418TIP3   OH279744   3.197   3.895   0.167  0.1955 -0.2688 -1.2692
19418TIP3    H179745   3.142   3.848   0.230 -1.1889 -1.0900 -3.0522
19418TIP3    H279746   3.276   3.842   0.159  1.6428  1.2534  1.8093
19419TIP3   OH279747   5.699   4.522   3.113 -0.3677  0.4971  0.8805
19419TIP3    H179748   5.684   4.613   3.137  1.4721  0.3740  2.6048
19419TIP3    H279749   5.780   4.498   3.158  0.3680 -1.3446 -1.3146
19420TIP3   OH279750   0.078   4.448  12.386  0.0176  1.0747  0.8220
19420TIP3    H179751   0.161   4.421  12.426 -0.9253  1.5547  3.1664
19420TIP3    H279752   0.087   4.542  12.373 -1.3647  1.6935  4.0983
19421TIP3   OH279753   5.507   3.662   5.309  0.1647  0.1387 -0.0895
19421TIP3    H179754   5.557   3.736   5.344  0.2952  0.7278 -1.4761
19421TIP3    H279755   5.514   3.672   5.214 -1.8825 -0.2408 -0.3011
19422TIP3   OH279756   1.442   6.598   4.063 -0.0673  0.1478 -0.0713
19422TIP3    H179757   1.421   6.691   4.072 -0.6350 -0.0359  0.5958
19422TIP3    H279758   1.457   6.586   3.970  0.7641  1.0684 -0.0621
19423TIP3   OH279759   5.024   6.445   3.770  0.0674  0.0552  0.0516
19423TIP3    H179760   5.011   6.513   3.837  0.0571 -2.3032  2.5187
19423TIP3    H279761   5.070   6.490   3.700  3.0713  1.8904  3.0335
19424TIP3   OH279762   6.164   4.263  14.503  0.0498 -0.2183  0.3111
19424TIP3    H179763   6.145   4.212  14.424 -2.0732 -1.5218  1.6118
19424TIP3    H279764   6.145   4.353  14.479 -1.6172 -0.7310 -0.3625
19425TIP3   OH279765   6.314   0.717   2.639 -0.6757  0.0205 -0.3720
19425TIP3    H179766   6.370   0.777   2.688 -1.9848 -0.3976  1.6997
19425TIP3    H279767   6.247   0.773   2.600 -0.8558  0.1215  0.0790
19426TIP3   OH279768   4.304   4.506  11.024  0.3102 -0.5756 -0.4813
19426TIP3    H179769   4.317   4.436  11.088 -1.3248 -0.6950 -0.2794
19426TIP3    H279770   4.277   4.462  10.944  3.1059 -0.4981 -1.5350
19427TIP3   OH279771   3.828   6.583   2.364  0.4981  0.3446 -0.4698
19427TIP3    H179772   3.855   6.573   2.273  1.5670  1.4349 -0.2913
19427TIP3    H279773   3.833   6.677   2.380  0.3494  0.1539  0.7291
19428TIP3   OH279774   2.887   6.327  15.886  0.4062 -0.0641  0.2488
19428TIP3    H179775   2.819   6.314  15.820  0.7241 -0.9034  0.0879
19428TIP3    H279776   2.888   6.422  15.900 -1.3067 -0.0941  0.8016
19429TIP3   OH279777   4.472   3.306   1.363 -0.1749  0.2775 -0.1537
19429TIP3    H179778   4.400   3.280   1.420  0.4082  1.9712  1.4026
19429TIP3    H279779   4.547   3.255   1.393 -0.2675 -0.0812 -0.5265
19430TIP3   OH279780   1.000   1.263  12.384 -0.2231 -0.0769  0.3309
19430TIP3    H179781   0.954   1.197  12.436 -0.7632  0.3854  0.4469
19430TIP3    H279782   0.932   1.327  12.361  0.5078  0.9797  1.0860
19431TIP3   OH279783   3.284   1.603  13.313  0.1974 -0.5249  0.9539
19431TIP3    H179784   3.204   1.553  13.298 -0.0274 -0.1423  0.8544
19431TIP3    H279785   3.258   1.672  13.375 -0.5752  2.0465 -2.0638
19432TIP3   OH279786   2.645   4.709  14.867 -0.0012  0.4721  0.3148
19432TIP3    H179787   2.668   4.770  14.798 -2.5373 -0.8217 -1.7658
19432TIP3    H279788   2.718   4.647  14.870  0.5020  1.0100 -0.6153
19433TIP3   OH279789   6.273   5.490  15.610  0.5555 -0.1944  0.2433
19433TIP3    H179790   6.275   5.509  15.703  0.7582  1.9529 -0.1648
19433TIP3    H279791   6.363   5.506  15.580  0.0015  1.3436 -0.6944
19434TIP3   OH279792   0.778   1.717  16.385  0.6361 -0.8857  0.2158
19434TIP3    H179793   0.853   1.773  16.405  0.1018  0.3041 -0.9930
19434TIP3    H279794   0.710   1.744  16.447  0.8193 -1.1502  0.5344
19435TIP3   OH279795   3.975   2.704   3.074 -0.2888  0.6502  0.4948
19435TIP3    H179796   3.898   2.659   3.109 -0.2379 -1.0101 -1.3867
19435TIP3    H279797   4.048   2.646   3.097  0.2871  1.7362  1.4318
19436TIP3   OH279798   3.486   1.572  13.582  0.5766 -0.4674 -0.1214
19436TIP3    H179799   3.446   1.499  13.629 -0.9409  0.2565 -0.2296
19436TIP3    H279800   3.503   1.537  13.494  0.4286 -0.8763  0.0108
19437TIP3   OH279801   5.575   0.458  13.436 -1.1256  0.1338 -0.0462
19437TIP3    H179802   5.520   0.384  13.461 -0.9207 -0.0737 -0.2090
19437TIP3    H279803   5.581   0.511  13.516 -1.0818 -0.1436  0.1370
19438TIP3   OH279804   6.797   3.945  15.999 -0.1763 -0.5312  0.3939
19438TIP3    H179805   6.806   3.852  16.018  1.4421 -0.7142 -1.2198
19438TIP3    H279806   6.855   3.988  16.062 -0.8134 -0.6104  1.0404
19439TIP3   OH279807   2.764   1.290  11.692  0.4601 -0.2420  0.2647
19439TIP3    H179808   2.783   1.299  11.785 -1.5478  0.0211  0.6811
19439TIP3    H279809   2.682   1.337  11.680  1.0967  0.3857 -1.7984
19440TIP3   OH279810   4.726   3.590  13.111 -0.0699  0.2902 -0.4007
19440TIP3    H179811   4.647   3.555  13.070 -1.1045  1.4344  0.5858
19440TIP3    H279812   4.717   3.685  13.104 -0.3443  0.5330  2.5643
19441TIP3   OH279813   0.821   2.318  12.881  0.6687 -0.4350  0.1884
19441TIP3    H179814   0.845   2.287  12.794 -1.2960  1.7381 -1.1750
19441TIP3    H279815   0.784   2.241  12.925  2.0649 -1.6442 -0.7040
19442TIP3   OH279816   5.836   1.554   4.072  0.1089  0.2214  0.2695
19442TIP3    H179817   5.882   1.569   3.989  2.0636 -2.3928  0.7816
19442TIP3    H279818   5.906   1.548   4.137 -1.0517 -2.1930  1.3647
19443TIP3   OH279819   5.879   4.760   5.650  0.1418  1.3558 -0.0424
19443TIP3    H179820   5.784   4.764   5.640  0.2794 -0.5975 -2.5140
19443TIP3    H279821   5.893   4.701   5.724 -0.5658 -0.3191 -1.1977
19444TIP3   OH279822   1.355   1.716  16.387 -0.2588  0.0559 -0.0093
19444TIP3    H179823   1.299   1.749  16.316  1.6349  0.8354 -1.1632
19444TIP3    H279824   1.380   1.793  16.437  0.6307 -0.1656 -0.1078
19445TIP3   OH279825   5.824   6.120   1.980  0.1174 -0.0463  0.0466
19445TIP3    H179826   5.905   6.099   2.026  0.8712 -2.0810 -2.1787
19445TIP3    H279827   5.842   6.203   1.936  1.1162 -0.6771 -0.7389
19446TIP3   OH279828   0.044   2.169   0.335 -0.1507 -0.2008  0.8348
19446TIP3    H179829   0.064   2.242   0.393 -0.3498  0.2268  0.3686
19446TIP3    H279830   0.094   2.095   0.370 -1.2409 -0.2684  2.2882
19447TIP3   OH279831   0.402   1.620   0.621  0.2264  0.4682 -0.4097
19447TIP3    H179832   0.359   1.576   0.548 -0.6240 -0.7317  0.7970
19447TIP3    H279833   0.408   1.712   0.594 -0.9959  0.2216 -1.5469
19448TIP3   OH279834   1.626   1.213   0.199 -0.2535 -0.2770  0.3363
19448TIP3    H179835   1.576   1.220   0.118  2.3473  0.6398 -1.2594
19448TIP3    H279836   1.672   1.129   0.191 -1.3242 -1.0225  1.6979
19449TIP3   OH279837   0.850   5.632  14.627 -0.0073  0.5513  0.3187
19449TIP3    H179838   0.795   5.585  14.691 -1.3988 -0.8309 -1.8403
19449TIP3    H279839   0.837   5.724  14.649 -2.6033  0.2200  0.3937
19450TIP3   OH279840   4.564   2.541   4.129  0.3767 -0.2773  0.6603
19450TIP3    H179841   4.530   2.610   4.072 -0.3447  0.6549  2.1973
19450TIP3    H279842   4.517   2.462   4.102  1.1304 -0.1609 -1.0363
19451TIP3   OH279843   5.146   5.973   5.172  0.4518 -0.0410 -0.5144
19451TIP3    H179844   5.080   5.993   5.238  0.9345 -1.6983  0.4786
19451TIP3    H279845   5.126   5.884   5.144  0.4415  0.5266 -2.3924
19452TIP3   OH279846   5.412   5.745   4.901  0.2356 -0.2166 -0.0596
19452TIP3    H179847   5.405   5.829   4.857 -2.7404 -0.3268  0.0966
19452TIP3    H279848   5.497   5.748   4.946  0.3322  2.5354 -0.3383
19453TIP3   OH279849   0.723   4.081   2.799 -0.3755 -0.4317  0.1262
19453TIP3    H179850   0.782   4.072   2.874 -1.2197 -0.6086  0.7677
19453TIP3    H279851   0.769   4.141   2.740  0.0180  0.1892  1.0562
19454TIP3   OH279852   2.624   5.397   5.402 -0.5852 -0.2522 -0.6329
19454TIP3    H179853   2.687   5.421   5.469 -0.4780 -1.9955 -0.0723
19454TIP3    H279854   2.540   5.432   5.433 -0.8099 -2.2699  1.1670
19455TIP3   OH279855   0.834   5.245   3.058  0.3089 -0.0693  0.2418
19455TIP3    H179856   0.817   5.317   3.119 -0.6322 -0.0314 -0.0573
19455TIP3    H279857   0.809   5.167   3.107 -0.1400 -0.0660  0.0169
19456TIP3   OH279858   1.583   3.541  15.827 -0.2496  0.0335 -0.0104
19456TIP3    H179859   1.669   3.499  15.822  0.6931  1.8743  0.3231
19456TIP3    H279860   1.535   3.490  15.892  0.5506 -1.0820 -0.2846
19457TIP3   OH279861   0.884   0.619  14.944  0.4392  0.0437  0.1703
19457TIP3    H179862   0.826   0.690  14.970  0.2316 -0.1087  0.1242
19457TIP3    H279863   0.956   0.662  14.898 -0.0544  0.1487 -0.4941
19458TIP3   OH279864   6.585   6.173  10.607 -0.0527  0.1514  0.6504
19458TIP3    H179865   6.497   6.135  10.606 -1.0855  2.4544 -2.2853
19458TIP3    H279866   6.571   6.267  10.613  2.1972  0.5570 -0.0121
19459TIP3   OH279867   5.402   3.812  13.034  0.5582 -0.0994  0.1168
19459TIP3    H179868   5.402   3.839  13.126 -0.1442  2.7474 -0.6806
19459TIP3    H279869   5.458   3.734  13.032  1.2830  0.3064  2.8087
19460TIP3   OH279870   0.182   3.976  11.746  0.4281  0.7713 -0.2222
19460TIP3    H179871   0.155   4.020  11.826  1.3122 -0.9511  1.0349
19460TIP3    H279872   0.277   3.983  11.745  0.4169  0.8970 -1.1898
19461TIP3   OH279873   4.848   2.227  10.409  0.3309  0.1431  0.7047
19461TIP3    H179874   4.761   2.186  10.410 -0.2653  1.2580 -1.7497
19461TIP3    H279875   4.832   2.318  10.434  0.4327  0.9406 -2.0594
19462TIP3   OH279876   3.287   0.278   3.299 -0.0232 -0.2543 -0.0326
19462TIP3    H179877   3.203   0.233   3.301 -0.1945 -0.0949 -2.0118
19462TIP3    H279878   3.293   0.312   3.209  1.6895  0.6025  0.3909
19463TIP3   OH279879   4.625   2.837  17.020 -0.2527 -0.2841  0.1331
19463TIP3    H179880   4.704   2.826  16.966 -0.1196  1.0276  0.0338
19463TIP3    H279881   4.646   2.911  17.077 -0.4164 -1.6240  1.9603
19464TIP3   OH279882   6.765   1.396   5.074  0.4910 -0.6120  0.6078
19464TIP3    H179883   6.838   1.335   5.062  0.9593 -0.1826  1.2435
19464TIP3    H279884   6.755   1.439   4.989 -0.4946 -2.2847 -0.1380
19465TIP3   OH279885   5.707   4.253  16.954  0.6300  0.6262 -0.5814
19465TIP3    H179886   5.733   4.266  16.863  0.4748 -2.4650 -1.1204
19465TIP3    H279887   5.783   4.211  16.995  0.3769  1.2063  0.5036
19466TIP3   OH279888   3.059   6.068  12.524  0.6218 -0.2288 -0.3326
19466TIP3    H179889   3.087   5.985  12.484  3.1769  1.2132 -1.6494
19466TIP3    H279890   3.095   6.065  12.612  0.3607 -0.7111 -0.2414
19467TIP3   OH279891   6.454   2.726   0.018 -0.0428 -0.4090  0.2037
19467TIP3    H179892   6.398   2.802   0.033  0.6287  0.2764 -0.6718
19467TIP3    H279893   6.477   2.696   0.106  0.1337  0.7467  0.5652
19468TIP3   OH279894   1.806   4.970  16.112  0.0645 -0.2982 -0.6178
19468TIP3    H179895   1.835   4.879  16.105  0.7844 -0.0610 -0.7352
19468TIP3    H279896   1.869   5.011  16.171 -0.2274  0.1378 -0.6064
19469TIP3   OH279897   6.310   1.272   1.411  0.3156  0.0455  0.4386
19469TIP3    H179898   6.390   1.247   1.457  0.6580 -0.7281 -0.5673
19469TIP3    H279899   6.257   1.193   1.409  0.7006 -0.1779 -1.3062
19470TIP3   OH279900   3.304   1.453  16.181 -0.3382  0.0144  0.0913
19470TIP3    H179901   3.232   1.438  16.242 -1.0727  0.5431 -0.6316
19470TIP3    H279902   3.351   1.528  16.218 -0.6040  0.1438  0.1698
19471TIP3   OH279903   0.875   5.714  17.042 -0.2059  0.2872  0.3216
19471TIP3    H179904   0.861   5.648  17.109  0.2130  0.3009  0.4227
19471TIP3    H279905   0.815   5.690  16.971 -2.7837  1.9178  1.8679
19472TIP3   OH279906   4.521   2.733   2.493 -0.5089  0.2004 -0.0618
19472TIP3    H179907   4.603   2.687   2.506 -0.5261  0.4585  0.9827
19472TIP3    H279908   4.455   2.665   2.489 -0.1130 -0.1123 -2.2573
19473TIP3   OH279909   0.785   5.330  15.772  0.0454  0.0735 -0.9617
19473TIP3    H179910   0.744   5.399  15.721 -1.2135 -0.1922 -0.3335
19473TIP3    H279911   0.817   5.268  15.706  2.3505  1.8431 -1.5833
19474TIP3   OH279912   6.196   1.077   3.840  0.3253  0.2805 -1.3882
19474TIP3    H179913   6.144   1.036   3.910  2.1568 -0.3346 -0.3511
19474TIP3    H279914   6.207   1.167   3.869  0.1406  0.3133 -1.4214
19475TIP3   OH279915   2.691   5.639  11.661  0.3417 -0.1457  0.0286
19475TIP3    H179916   2.703   5.555  11.616  0.7296 -0.5512  0.8710
19475TIP3    H279917   2.780   5.675  11.667  0.2416  0.0877  0.1058
19476TIP3   OH279918   5.866   3.512   4.180 -0.3673  0.1656  0.2314
19476TIP3    H179919   5.849   3.605   4.170  0.5816  0.1202 -1.9979
19476TIP3    H279920   5.956   3.508   4.213 -0.2549  0.0103 -0.0985
19477TIP3   OH279921   0.150   2.180  16.627 -0.0045 -0.1525  0.1395
19477TIP3    H179922   0.121   2.210  16.713 -0.9113  1.4407 -0.6864
19477TIP3    H279923   0.069   2.175  16.576  0.6650  0.1239 -0.9642
19478TIP3   OH279924   0.191   2.376  17.217  0.0779  0.3088 -0.1705
19478TIP3    H179925   0.166   2.437  17.147  1.8412  0.0863 -1.0047
19478TIP3    H279926   0.211   2.433  17.292  0.4814  0.6909 -0.5653
19479TIP3   OH279927   0.994   4.109   0.345  0.1622 -0.0261  0.5876
19479TIP3    H179928   0.929   4.151   0.402  0.2398 -0.0950  0.7254
19479TIP3    H279929   1.061   4.176   0.332  0.1558 -0.0181  0.5953
19480TIP3   OH279930   5.509   5.945   4.213 -0.3289 -0.4888  0.3548
19480TIP3    H179931   5.596   5.907   4.224 -0.3252 -0.5876 -0.0385
19480TIP3    H279932   5.475   5.950   4.302  1.2641  2.3283  0.8719
19481TIP3   OH279933   1.477   2.773  15.613  0.6410 -0.0096 -0.0978
19481TIP3    H179934   1.476   2.767  15.518 -0.6394  1.5365 -0.1923
19481TIP3    H279935   1.448   2.862  15.632 -1.8279 -1.1699  1.8136
19482TIP3   OH279936   5.941   1.139  12.293 -0.2123 -0.2983  0.2840
19482TIP3    H179937   6.022   1.095  12.269 -0.9371 -1.5864  0.1226
19482TIP3    H279938   5.901   1.082  12.359 -1.0689  0.2307  0.2386
19483TIP3   OH279939   1.321   3.891   2.466 -0.1625  0.3435  0.5208
19483TIP3    H179940   1.402   3.870   2.512 -0.9066  1.6307  2.4613
19483TIP3    H279941   1.313   3.822   2.399  1.1543 -1.3203  2.0292
19484TIP3   OH279942   1.869   6.194   0.810 -0.0294  0.6690 -1.0424
19484TIP3    H179943   1.863   6.221   0.718 -1.3993 -0.6689 -1.3649
19484TIP3    H279944   1.962   6.175   0.823  0.7032  3.8180 -1.2625
19485TIP3   OH279945   3.252   4.230   4.678  0.0565 -0.5044 -0.2699
19485TIP3    H179946   3.279   4.322   4.684 -1.5155 -0.0055 -0.7492
19485TIP3    H279947   3.220   4.208   4.766  1.0678 -0.8072  0.0310
19486TIP3   OH279948   1.942   3.583  11.225 -0.6247 -0.3185  0.0254
19486TIP3    H179949   1.906   3.579  11.137 -0.0408 -1.9236 -0.1475
19486TIP3    H279950   2.033   3.554  11.216 -0.0239  1.1686  0.8807
19487TIP3   OH279951   5.925   1.297  16.266 -0.5131  0.7414 -0.4015
19487TIP3    H179952   5.988   1.363  16.234 -2.4044  1.3955 -2.9396
19487TIP3    H279953   5.934   1.224  16.204 -2.7396  1.1540 -1.2605
19488TIP3   OH279954   3.062   3.863   3.693  0.1355  0.4565  0.0587
19488TIP3    H179955   3.010   3.788   3.663 -0.1854  1.0996 -1.0419
19488TIP3    H279956   3.153   3.835   3.681  0.0212  0.1881 -0.2038
19489TIP3   OH279957   4.964   6.412   0.811 -0.3166 -0.1391 -0.0155
19489TIP3    H179958   4.902   6.455   0.870  0.2691  0.5115  0.1448
19489TIP3    H279959   4.965   6.467   0.733 -0.4166 -0.4982 -0.2680
19490TIP3   OH279960   6.543   5.157  14.341  0.7538  0.1257  0.1189
19490TIP3    H179961   6.619   5.181  14.393 -0.0973  0.8199  1.0683
19490TIP3    H279962   6.481   5.122  14.404  0.8544 -1.8511 -0.8567
19491TIP3   OH279963   4.151   4.021   5.755  0.7359  0.3485 -0.4127
19491TIP3    H179964   4.188   4.088   5.812  2.1094 -1.7702  1.2553
19491TIP3    H279965   4.127   3.950   5.813 -2.1012 -0.0726 -1.9821
19492TIP3   OH279966   6.763   3.037  13.067  0.6166  0.1338  0.2278
19492TIP3    H179967   6.805   3.084  12.995 -2.2735 -0.0244 -1.6809
19492TIP3    H279968   6.768   2.945  13.041  0.0422  0.0249  0.5003
19493TIP3   OH279969   6.775   5.234   3.178  0.3325 -0.1267  0.2154
19493TIP3    H179970   6.727   5.152   3.168 -1.6593  1.0732 -0.2811
19493TIP3    H279971   6.855   5.221   3.127 -1.1700 -0.8351 -2.0212
19494TIP3   OH279972   6.497   2.841  13.248  0.3447 -0.1794  0.1762
19494TIP3    H179973   6.417   2.869  13.203  1.1696  0.9691 -0.5768
19494TIP3    H279974   6.490   2.746  13.252 -0.8385 -0.1210 -0.2959
19495TIP3   OH279975   5.167   1.741  12.306  0.1588  0.3366 -0.0876
19495TIP3    H179976   5.144   1.809  12.242  2.3509  1.5182  0.3189
19495TIP3    H279977   5.245   1.699  12.269 -0.2908 -0.9367  0.4058
19496TIP3   OH279978   5.728   4.836   0.711  0.3891 -0.4821  0.2956
19496TIP3    H179979   5.774   4.753   0.727  0.9387 -0.0470  1.0089
19496TIP3    H279980   5.671   4.846   0.788  1.1526  0.3497  0.7641
19497TIP3   OH279981   6.645   3.906   1.471  0.1275  0.3065 -0.1665
19497TIP3    H179982   6.556   3.879   1.490  0.7712 -0.9105  1.2443
19497TIP3    H279983   6.650   3.998   1.499 -0.6962  0.3969 -0.3198
19498TIP3   OH279984   2.045   4.802  16.879  0.1832  0.1467 -0.2622
19498TIP3    H179985   2.104   4.727  16.865 -0.3882 -0.5696  1.0853
19498TIP3    H279986   2.048   4.850  16.796  2.9072  0.3020 -0.1252
19499TIP3   OH279987   0.371   5.488   0.738 -0.1461 -0.2293 -0.2586
19499TIP3    H179988   0.291   5.503   0.789  0.8888 -0.3948  1.4798
19499TIP3    H279989   0.428   5.561   0.762  0.7453 -0.8793 -0.3640
19500TIP3   OH279990   2.492   2.754  15.124  0.3672  0.1419  0.0910
19500TIP3    H179991   2.529   2.702  15.053 -0.8033 -0.3161 -0.1865
19500TIP3    H279992   2.497   2.697  15.201  0.0883  0.0281  0.0227
19501TIP3   OH279993   3.511   5.151  16.815  0.2682 -0.0466 -0.2808
19501TIP3    H179994   3.430   5.133  16.863 -0.2405 -0.1469 -1.1614
19501TIP3    H279995   3.567   5.074  16.832 -0.6659 -1.0059 -1.4349
19502TIP3   OH279996   1.120   2.320  13.317 -0.1882  0.1711  0.4305
19502TIP3    H179997   1.090   2.337  13.227  1.5315 -0.7153 -0.3387
19502TIP3    H279998   1.173   2.241  13.310 -0.8189 -0.4460  2.4181
19503TIP3   OH279999   6.577   2.046  12.832 -0.1148  0.5646  0.3041
19503TIP3    H180000   6.549   2.109  12.766 -1.3177 -0.0074  0.2460
19503TIP3    H280001   6.656   2.006  12.796 -1.0566 -0.1190 -1.0506
19504TIP3   OH280002   1.765   0.740   2.281 -0.3691  0.0123  0.1801
19504TIP3    H180003   1.849   0.697   2.265  0.2038  1.6335 -1.3530
19504TIP3    H280004   1.783   0.802   2.352 -0.7263 -0.9202  1.0916
19505TIP3   OH280005   2.495   1.168   1.583 -0.2394 -0.2647 -0.2636
19505TIP3    H180006   2.537   1.238   1.534  0.0832  0.3377  0.8562
19505TIP3    H280007   2.445   1.213   1.652 -0.9444 -1.0757 -0.2297
19506TIP3   OH280008   0.516   6.721   4.642 -0.3638 -0.3397 -0.0478
19506TIP3    H180009   0.567   6.788   4.687 -1.8600  0.8990 -0.1608
19506TIP3    H280010   0.484   6.663   4.711  0.1996 -0.4413  0.1310
19507TIP3   OH280011   5.919   4.462  12.379  0.5947 -0.4275 -0.2968
19507TIP3    H180012   5.841   4.458  12.323  0.3061  0.6092  0.0151
19507TIP3    H280013   5.989   4.491  12.320  0.5616 -0.5324 -0.3891
19508TIP3   OH280014   3.144   5.086   2.840 -0.0410  0.4456  0.0889
19508TIP3    H180015   3.153   5.008   2.894 -0.3737 -1.5809 -2.6714
19508TIP3    H280016   3.221   5.086   2.784 -1.4748  0.4330 -1.9463
19509TIP3   OH280017   1.886   4.557   3.928 -0.1610  0.0325 -0.4222
19509TIP3    H180018   1.814   4.505   3.964 -0.6172  1.4905  0.8359
19509TIP3    H280019   1.867   4.565   3.835 -1.5305  0.2838 -0.1184
19510TIP3   OH280020   1.095   2.192  10.353  0.3180 -0.2087  0.3191
19510TIP3    H180021   1.143   2.154  10.426  0.8221  0.5686  0.3961
19510TIP3    H280022   1.154   2.258  10.317 -1.1828  1.6874  1.2437
19511TIP3   OH280023   0.015   2.556  16.123 -0.2281  0.4000 -0.6598
19511TIP3    H180024  -0.044   2.592  16.056  0.7244  1.3401 -1.0057
19511TIP3    H280025   0.056   2.480  16.080 -0.3625  0.4093 -0.8045
19512TIP3   OH280026   4.853   6.173  16.072  0.5637 -0.1281  0.6683
19512TIP3    H180027   4.896   6.214  15.997  1.1459 -0.8392  0.6094
19512TIP3    H280028   4.900   6.091  16.085  0.0220 -0.3309  1.3836
19513TIP3   OH280029   3.614   5.030   3.879 -0.5542  0.3118 -0.2629
19513TIP3    H180030   3.528   4.987   3.870 -0.6388  0.2161  0.8966
19513TIP3    H280031   3.615   5.096   3.809 -1.9540  0.9335  0.2662
19514TIP3   OH280032   4.690   3.984   2.206 -0.1948  0.6452 -0.4867
19514TIP3    H180033   4.605   3.991   2.249 -0.4192  0.4462 -0.8829
19514TIP3    H280034   4.722   3.897   2.231 -0.0492  0.7713 -0.2345
19515TIP3   OH280035   4.608   5.037  16.517 -0.9514  0.0514  0.1269
19515TIP3    H180036   4.670   5.081  16.460 -2.5731  1.8879 -0.2817
19515TIP3    H280037   4.539   5.005  16.458 -2.9361  2.4658  1.0084
19516TIP3   OH280038   2.067   2.143  13.624 -0.1468 -0.5755 -0.0049
19516TIP3    H180039   2.115   2.085  13.682  0.3340 -1.2177 -1.0246
19516TIP3    H280040   2.032   2.085  13.556 -1.2061  0.0761 -0.0289
19517TIP3   OH280041   3.480   6.733   2.482  0.4865  0.5780  0.7251
19517TIP3    H180042   3.416   6.708   2.548  1.3565  0.8087  1.6615
19517TIP3    H280043   3.564   6.727   2.527  1.1611 -0.0698 -0.5862
19518TIP3   OH280044   4.895   1.998   5.109 -0.3451 -0.1025  0.0086
19518TIP3    H180045   4.947   1.985   5.188 -0.3994  1.3006  0.2796
19518TIP3    H280046   4.821   1.938   5.119 -1.5536  1.6821  2.0980
19519TIP3   OH280047   3.071   5.479   0.068  0.1793  0.0689 -0.5631
19519TIP3    H180048   3.083   5.563   0.114 -1.7678 -0.3223  0.6955
19519TIP3    H280049   3.017   5.501  -0.008 -1.3266 -0.2457  0.4150
19520TIP3   OH280050   3.476   6.618  17.001 -0.4675 -0.0315 -1.0677
19520TIP3    H180051   3.548   6.658  17.050  1.9489 -1.9395 -2.9777
19520TIP3    H280052   3.449   6.543  17.055 -0.6995  0.3723 -0.6140
19521TIP3   OH280053   2.434   0.313  13.168 -0.0049  0.2380 -0.6189
19521TIP3    H180054   2.514   0.362  13.190 -0.3943 -0.4228  2.5311
19521TIP3    H280055   2.365   0.379  13.167 -0.3258  0.0043  2.3906
19522TIP3   OH280056   4.069   5.189   0.989  0.1688  0.0925  0.2342
19522TIP3    H180057   4.162   5.195   1.009  1.0039  2.5890 -3.9774
19522TIP3    H280058   4.057   5.102   0.952  0.7807 -0.2938  0.9516
19523TIP3   OH280059   2.611   4.316  16.325 -0.2920  0.3376 -0.0977
19523TIP3    H180060   2.620   4.240  16.267 -0.2683 -0.4992  1.0008
19523TIP3    H280061   2.531   4.300  16.374  0.6132  0.1729  1.3557
19524TIP3   OH280062   5.237   3.688  11.590  0.0312  0.0780  0.9444
19524TIP3    H180063   5.213   3.767  11.638 -1.8910 -0.1194  0.3737
19524TIP3    H280064   5.184   3.691  11.511 -0.2387 -1.8782  1.0151
19525TIP3   OH280065   4.824   0.433   2.965  0.5958  0.2493 -0.8805
19525TIP3    H180066   4.913   0.401   2.978  0.9814  0.9412 -1.7673
19525TIP3    H280067   4.810   0.426   2.870  0.0679  1.0751 -0.8698
19526TIP3   OH280068   2.417   0.997  13.968  0.1927  0.2758  0.5034
19526TIP3    H180069   2.398   0.917  13.920 -0.1577  0.6557 -0.0024
19526TIP3    H280070   2.421   1.065  13.900 -0.9154  0.9262  1.0816
19527TIP3   OH280071   5.712   4.789  10.741  0.1504  0.0059 -0.0053
19527TIP3    H180072   5.743   4.809  10.652  0.9097 -0.0579  0.2420
19527TIP3    H280073   5.750   4.858  10.796 -0.7178  0.3250  0.1980
19528TIP3   OH280074   0.537   2.403  15.182 -0.3571 -0.0667  0.0240
19528TIP3    H180075   0.509   2.425  15.271 -1.3194  1.0808 -0.5580
19528TIP3    H280076   0.517   2.481  15.131 -1.2822 -1.3036 -1.5282
19529TIP3   OH280077   5.868   2.476  11.990  0.4520  0.3296 -0.1648
19529TIP3    H180078   5.873   2.483  12.086 -0.4247  0.6782 -0.1390
19529TIP3    H280079   5.837   2.386  11.975  1.4416 -0.0241 -0.1581
19530TIP3   OH280080   1.528   4.120  17.232  0.3536 -0.0760 -0.3745
19530TIP3    H180081   1.487   4.201  17.199  0.4829  0.5660  1.0286
19530TIP3    H280082   1.569   4.145  17.314  1.4515 -1.3060 -0.5228
19531TIP3   OH280083   2.397   2.518   1.278  0.4199 -0.1353  0.3722
19531TIP3    H180084   2.435   2.591   1.228 -0.7958  1.1971  1.3803
19531TIP3    H280085   2.443   2.521   1.362  0.7946 -0.9234  0.1992
19532TIP3   OH280086   6.706   0.155   1.462  0.6819 -0.1065 -0.4775
19532TIP3    H180087   6.656   0.222   1.415  0.4153  0.3453  0.4319
19532TIP3    H280088   6.754   0.203   1.530 -0.1261 -0.9123  0.7029
19533TIP3   OH280089   6.368   1.923  12.971 -1.0024  0.9013  0.1317
19533TIP3    H180090   6.315   1.859  12.923 -0.0168  0.7927 -0.8328
19533TIP3    H280091   6.399   1.984  12.904 -1.2540  1.9219  0.9266
19534TIP3   OH280092   5.633   3.074   3.841  0.4424  0.1710  0.1054
19534TIP3    H180093   5.672   3.161   3.852  0.2714  0.3751 -0.8306
19534TIP3    H280094   5.685   3.032   3.773 -0.5372  0.2033 -0.6854
19535TIP3   OH280095   5.103   4.488   1.230 -0.1078 -0.0608 -0.1037
19535TIP3    H180096   5.035   4.425   1.252 -0.6975  0.4116 -0.5686
19535TIP3    H280097   5.099   4.554   1.299 -0.6613  0.3934 -0.5689
19536TIP3   OH280098   3.861   0.400   1.489  0.0792 -0.2615 -0.6519
19536TIP3    H180099   3.951   0.409   1.459  0.3232 -1.2268 -0.2324
19536TIP3    H280100   3.859   0.444   1.575  0.2241 -0.4915 -0.5306
19537TIP3   OH280101   3.773   2.306   4.147  0.3982  0.5302  0.1016
19537TIP3    H180102   3.813   2.352   4.221 -0.9279  0.5118  0.8423
19537TIP3    H280103   3.695   2.265   4.184  0.5855 -0.8100 -0.9618
19538TIP3   OH280104   3.064   2.264  16.202 -0.1294  0.5781  0.1741
19538TIP3    H180105   3.000   2.307  16.146 -0.6447 -0.5711 -0.1526
19538TIP3    H280106   3.146   2.311  16.187 -0.2854  0.3663 -1.4594
19539TIP3   OH280107   0.854   3.916   2.293 -0.3488  0.0819 -0.1692
19539TIP3    H180108   0.788   3.860   2.334 -2.3542  0.9432 -2.1577
19539TIP3    H280109   0.913   3.855   2.249 -0.1964 -0.6465  1.0084
19540TIP3   OH280110   6.217   1.713   4.708 -0.4891  0.0499  0.6982
19540TIP3    H180111   6.202   1.795   4.661 -0.7327 -0.3251  0.1230
19540TIP3    H280112   6.227   1.740   4.800  2.3057  1.0535  0.1513
19541TIP3   OH280113   2.205   3.173  14.026 -0.1960 -0.7008  0.2101
19541TIP3    H180114   2.140   3.222  14.077  0.8587 -0.3938  1.2744
19541TIP3    H280115   2.231   3.100  14.083  1.6360  0.1400  0.4902
19542TIP3   OH280116   4.281   4.205   0.855  0.6146 -0.2057  0.0372
19542TIP3    H180117   4.262   4.236   0.766 -0.2694  0.3274  0.4106
19542TIP3    H280118   4.354   4.260   0.884  0.8246 -0.2977 -0.3077
19543TIP3   OH280119   4.822   2.292  11.804 -0.2471 -0.2462 -0.2048
19543TIP3    H180120   4.886   2.363  11.798 -0.2427 -0.1584  0.7475
19543TIP3    H280121   4.838   2.239  11.726 -0.5919  1.0734 -1.2034
19544TIP3   OH280122   0.828   2.137  16.496 -0.0905  0.2480 -0.4752
19544TIP3    H180123   0.777   2.155  16.575 -0.4640 -1.1675 -0.3801
19544TIP3    H280124   0.820   2.217  16.443 -0.4411  0.9214  0.5925
19545TIP3   OH280125   0.886   1.897  12.318 -0.3421  0.2823 -0.3669
19545TIP3    H180126   0.900   1.890  12.224 -0.7477 -1.4470 -0.3241
19545TIP3    H280127   0.944   1.831  12.356  0.8389  1.8966  0.7042
19546TIP3   OH280128   4.705   5.060   0.051 -0.1215 -0.1464 -0.0934
19546TIP3    H180129   4.775   5.022   0.104  0.4303 -0.3567 -0.9629
19546TIP3    H280130   4.746   5.076  -0.034 -1.2022 -0.5530 -0.6983
19547TIP3   OH280131   6.526   5.606  12.568 -0.5933  0.4743  0.2077
19547TIP3    H180132   6.618   5.619  12.545 -1.2641  0.1678 -2.8750
19547TIP3    H280133   6.524   5.520  12.609  0.5250  0.6044  0.5645
19548TIP3   OH280134   0.031   0.597   0.798  0.2367 -0.3640 -0.1594
19548TIP3    H180135   0.073   0.519   0.763  1.4641  0.6216 -0.9589
19548TIP3    H280136   0.001   0.645   0.720  0.6462  0.5716  0.2432
19549TIP3   OH280137   1.415   1.101   1.355 -1.1348  0.2751 -0.6685
19549TIP3    H180138   1.354   1.040   1.398 -0.9301 -1.1368 -2.3034
19549TIP3    H280139   1.499   1.086   1.398 -1.6680  1.4337  0.8352
19550TIP3   OH280140   3.922   0.856  11.379  0.4479  0.4661 -0.3004
19550TIP3    H180141   3.894   0.941  11.345  0.5389  0.2903 -0.8248
19550TIP3    H280142   3.910   0.796  11.305  0.3840  0.0265  0.0659
19551TIP3   OH280143   2.719   3.166   5.549 -0.2624 -0.3611  0.8548
19551TIP3    H180144   2.636   3.192   5.508  0.7084  0.0008 -0.9296
19551TIP3    H280145   2.737   3.235   5.613 -0.6170  0.3133  0.2343
19552TIP3   OH280146   1.757   4.259   5.639 -0.1132 -0.7696 -0.3337
19552TIP3    H180147   1.844   4.219   5.644  0.3045  0.2311  0.7976
19552TIP3    H280148   1.723   4.253   5.728 -0.4252  0.5079 -0.3533
19553TIP3   OH280149   0.327   1.840   5.072  0.2356  0.1463 -0.1513
19553TIP3    H180150   0.292   1.924   5.040 -2.0399 -0.8363 -0.3723
19553TIP3    H280151   0.383   1.809   5.001 -1.3093  0.0624 -1.3741
19554TIP3   OH280152   2.795   1.641   5.769  0.2202 -0.1513  0.3767
19554TIP3    H180153   2.715   1.659   5.818 -0.1428 -0.4531 -0.0944
19554TIP3    H280154   2.767   1.638   5.677  0.6971 -0.6415  0.2417
19555TIP3   OH280155   2.577   0.293  15.486 -0.3880 -0.0503 -0.1469
19555TIP3    H180156   2.560   0.387  15.482  2.6574  0.5817  0.5650
19555TIP3    H280157   2.572   0.264  15.395 -3.9565  0.2101 -0.1397
19556TIP3   OH280158   3.237   3.062  17.185 -0.2521 -0.1699 -0.0685
19556TIP3    H180159   3.331   3.055  17.169 -0.2036  0.4346 -0.0603
19556TIP3    H280160   3.196   3.043  17.100 -0.0358  1.9674 -0.6906
19557TIP3   OH280161   2.590   0.791   0.969  0.2045  0.5123  0.0499
19557TIP3    H180162   2.663   0.792   0.907  1.7697 -0.4578  1.7981
19557TIP3    H280163   2.576   0.883   0.991  0.5218  0.7556 -0.7548
19558TIP3   OH280164   5.012   0.183  13.557 -0.3404  0.1182 -0.1342
19558TIP3    H180165   4.951   0.153  13.624  3.1437 -6.3949  0.6020
19558TIP3    H280166   4.965   0.171  13.474 -1.4582 -1.0535  0.6417
19559TIP3   OH280167   1.049   1.696  16.899  0.5705  0.0827 -0.4082
19559TIP3    H180168   0.982   1.756  16.866  0.7615  0.3733 -0.2610
19559TIP3    H280169   1.119   1.752  16.931  1.3078 -0.2342 -1.4264
19560TIP3   OH280170   0.811   5.079   0.922 -0.3110 -0.1741  0.1282
19560TIP3    H180171   0.866   5.006   0.950 -0.5523 -1.0908 -1.7303
19560TIP3    H280172   0.855   5.157   0.956  0.2889 -1.1189  1.5786
19561TIP3   OH280173   6.173   1.790   3.955  0.0757 -0.8332 -0.1177
19561TIP3    H180174   6.113   1.785   4.030  1.5064 -1.1316  1.0264
19561TIP3    H280175   6.137   1.728   3.892 -0.9171 -0.8786  0.4795
19562TIP3   OH280176   3.936   0.168  14.963  0.3893  0.1085 -0.4158
19562TIP3    H180177   3.963   0.254  14.994 -0.5411  0.5085 -0.6880
19562TIP3    H280178   4.007   0.139  14.906  0.9863  0.4268  0.1635
19563TIP3   OH280179   5.209   5.356  12.902  0.2760 -0.0935 -0.0093
19563TIP3    H180180   5.215   5.414  12.978  1.8258  1.7633 -1.4826
19563TIP3    H280181   5.292   5.307  12.903  0.7294  0.6393 -1.0267
19564TIP3   OH280182   5.255   1.606  17.064 -0.4016 -0.5519  0.2875
19564TIP3    H180183   5.207   1.547  17.006 -0.5352 -0.3882  0.2329
19564TIP3    H280184   5.311   1.656  17.005  0.0722 -0.9612  0.3854
19565TIP3   OH280185   0.365   3.685   1.536  0.1348 -0.3614 -0.3833
19565TIP3    H180186   0.363   3.590   1.545 -0.8209 -0.0920  2.8705
19565TIP3    H280187   0.303   3.717   1.601  1.0953  2.5554 -0.8069
19566TIP3   OH280188   5.564   1.062   6.535 -0.2916 -0.2191 -0.0964
19566TIP3    H180189   5.552   0.996   6.603 -1.3004 -0.3347 -0.3859
19566TIP3    H280190   5.596   1.139   6.583 -3.1276  0.4185  0.8593
19567TIP3   OH280191   4.734   6.027   5.747 -0.2959  0.1387  0.2591
19567TIP3    H180192   4.822   6.038   5.783 -0.9658 -0.1449  2.0560
19567TIP3    H280193   4.678   6.011   5.824 -1.9227  0.3563 -0.8404
19568TIP3   OH280194   4.213   0.521  11.745  0.6309  0.6799 -0.4542
19568TIP3    H180195   4.259   0.491  11.666  0.5143 -3.7004  1.0249
19568TIP3    H280196   4.120   0.520  11.720  0.7746  2.2535 -1.1325
19569TIP3   OH280197   3.852   2.496  16.591  0.0239 -0.7475  0.0346
19569TIP3    H180198   3.816   2.580  16.562  0.1699  0.5718  3.3859
19569TIP3    H280199   3.946   2.504  16.576 -0.1831 -1.1688 -1.5865
19570TIP3   OH280200   2.303   0.250  14.369 -0.5343  0.0646 -0.1495
19570TIP3    H180201   2.375   0.312  14.363 -0.3578  0.0719  1.7572
19570TIP3    H280202   2.235   0.287  14.313 -0.1893  1.6381  0.4520
19571TIP3   OH280203   2.554   0.852  14.141 -0.5735 -0.6334 -0.5829
19571TIP3    H180204   2.609   0.908  14.196 -0.7153 -1.4354  0.3989
19571TIP3    H280205   2.494   0.913  14.098 -0.0302  0.0742 -0.3541
19572TIP3   OH280206   5.586   2.680  15.055  0.5174  0.4709 -0.3292
19572TIP3    H180207   5.512   2.733  15.086  0.2730  0.6352 -1.1671
19572TIP3    H280208   5.545   2.617  14.995  0.9041 -0.2000  0.1123
19573TIP3   OH280209   1.239   2.551   3.460 -0.5035 -0.0842  0.2846
19573TIP3    H180210   1.223   2.534   3.367  0.8501  1.0549 -0.1744
19573TIP3    H280211   1.240   2.646   3.466  2.2344 -0.1339  0.9475
19574TIP3   OH280212   4.143   6.055  14.502 -0.5342  0.0019 -0.0865
19574TIP3    H180213   4.233   6.087  14.504 -0.0747 -1.3054  0.9296
19574TIP3    H280214   4.133   6.015  14.415 -0.3231  0.6680 -0.4174
19575TIP3   OH280215   3.682   1.664   2.346  0.2899  0.4329 -0.2801
19575TIP3    H180216   3.667   1.701   2.433 -1.1468 -0.6126 -0.0599
19575TIP3    H280217   3.648   1.731   2.286 -1.8370 -0.2615  0.1000
19576TIP3   OH280218   4.323   1.252  12.478  0.0658 -0.5264 -0.0069
19576TIP3    H180219   4.305   1.332  12.528  0.0570 -0.9258  0.6411
19576TIP3    H280220   4.357   1.283  12.394  0.6160  0.1444  0.4602
19577TIP3   OH280221   3.334   3.255  13.391  0.1391 -0.2407 -0.0484
19577TIP3    H180222   3.241   3.267  13.411  0.0868 -0.6277 -0.0524
19577TIP3    H280223   3.335   3.191  13.319  0.4451 -0.9796  0.5984
19578TIP3   OH280224   4.739   3.376   2.852 -0.4340  0.1630  0.2318
19578TIP3    H180225   4.704   3.313   2.789  1.0765  0.1636 -0.6391
19578TIP3    H280226   4.684   3.453   2.842 -0.6562 -0.0964 -0.5829
19579TIP3   OH280227   1.414   1.206  12.546  0.2012 -0.1476 -0.1975
19579TIP3    H180228   1.492   1.205  12.492  0.1873 -0.1299 -0.2193
19579TIP3    H280229   1.406   1.297  12.575 -1.0271  0.3236 -1.9686
19580TIP3   OH280230   4.349   2.900   6.382  0.4609 -0.3712 -0.1845
19580TIP3    H180231   4.357   2.826   6.322  0.4988  0.3802 -1.1243
19580TIP3    H280232   4.263   2.889   6.423  0.7017 -1.2355  0.0797
19581TIP3   OH280233   0.522   0.327  15.244  0.0276 -0.0266 -0.2205
19581TIP3    H180234   0.574   0.389  15.194  1.0074 -0.1549  0.6242
19581TIP3    H280235   0.573   0.311  15.323 -1.1994 -0.3053  0.5332
19582TIP3   OH280236   1.951   6.696   6.008  0.2988  0.0243  0.5658
19582TIP3    H180237   2.014   6.763   6.035  0.1991  0.8361 -1.1344
19582TIP3    H280238   2.001   6.614   6.009  0.9488  0.4211  0.7491
19583TIP3   OH280239   4.831   1.587   2.858  0.1357  0.4650 -0.2272
19583TIP3    H180240   4.793   1.674   2.855 -1.3654 -0.2249 -2.2107
19583TIP3    H280241   4.837   1.560   2.767 -0.4255 -1.9268  0.3965
19584TIP3   OH280242   0.936   6.186   4.387 -0.2617  0.0560  0.7032
19584TIP3    H180243   0.911   6.157   4.299  0.8924  0.0907  0.3631
19584TIP3    H280244   0.959   6.278   4.376 -0.5626  0.1855  1.1336
19585TIP3   OH280245   4.940   5.015   2.196 -0.0080  0.3641  0.1007
19585TIP3    H180246   5.005   4.996   2.129 -0.8743  1.8474 -1.2209
19585TIP3    H280247   4.978   4.983   2.278  2.3176  1.0964 -0.6595
19586TIP3   OH280248   4.799   0.804   1.061  0.4257  0.4882  0.6477
19586TIP3    H180249   4.888   0.771   1.072  1.4682  3.0863  0.4260
19586TIP3    H280250   4.756   0.739   1.006  2.6950  0.0550 -0.6830
19587TIP3   OH280251   6.737   0.532   1.862 -0.2943 -0.4080  0.4292
19587TIP3    H180252   6.761   0.504   1.950 -0.9909  1.8400  1.3695
19587TIP3    H280253   6.818   0.523   1.811  0.4171 -0.6001  1.5772
19588TIP3   OH280254   3.372   2.883  13.399  0.2962 -0.2326 -0.3459
19588TIP3    H180255   3.346   2.897  13.490  2.1660 -1.8027  0.4710
19588TIP3    H280256   3.468   2.883  13.401  0.3684 -0.0203 -2.3665
19589TIP3   OH280257   1.375   1.633  16.752  0.1136 -0.2345  0.0907
19589TIP3    H180258   1.317   1.689  16.803 -1.0299  0.7069 -2.1494
19589TIP3    H280259   1.460   1.675  16.756 -0.6824  1.5530 -1.3582
19590TIP3   OH280260   1.923   0.562   1.684  0.3975  0.5120 -0.0274
19590TIP3    H180261   1.914   0.622   1.759  0.0051  0.7273 -0.2444
19590TIP3    H280262   1.919   0.619   1.608 -2.0536  0.0112 -0.3182
19591TIP3   OH280263   4.009   4.377   3.980 -0.0230 -0.0433 -0.4564
19591TIP3    H180264   4.069   4.329   3.923 -1.2488 -0.2775 -1.5693
19591TIP3    H280265   3.922   4.345   3.956 -0.5641 -0.1452  1.5470
19592TIP3   OH280266   6.768   6.708  17.274 -0.3863  0.3884  0.5637
19592TIP3    H180267   6.830   6.703  17.347 -0.8309  0.4584  0.9510
19592TIP3    H280268   6.806   6.774  17.216  1.7796 -2.1423 -1.0098
19593TIP3   OH280269   4.490   5.686  10.787 -0.7406 -0.2450  0.0986
19593TIP3    H180270   4.463   5.777  10.775 -0.6034 -0.0644  1.1339
19593TIP3    H280271   4.555   5.689  10.857  0.6022 -0.9105 -1.0829
19594TIP3   OH280272   5.249   3.534   6.257 -0.2530  0.2536 -0.0678
19594TIP3    H180273   5.202   3.559   6.177  0.1061 -1.5009 -0.8472
19594TIP3    H280274   5.330   3.586   6.254  0.1009 -0.3515 -1.2378
19595TIP3   OH280275   4.673   1.114  16.740  0.0240 -0.2102  0.5505
19595TIP3    H180276   4.660   1.045  16.675  1.0197  1.3239 -1.3583
19595TIP3    H280277   4.649   1.195  16.694 -0.3379  0.7968  2.4628
19596TIP3   OH280278   4.473   5.775  13.364 -0.2909  0.4268  0.2598
19596TIP3    H180279   4.532   5.783  13.289 -0.0303  0.7203  0.4986
19596TIP3    H280280   4.412   5.848  13.354 -0.5951  0.1442  0.0337
19597TIP3   OH280281   4.591   5.137   2.729  0.2915 -0.6419  0.2196
19597TIP3    H180282   4.517   5.080   2.748  0.2733 -0.5227  0.5181
19597TIP3    H280283   4.668   5.085   2.755  0.2599 -0.4321  0.7479
19598TIP3   OH280284   1.353   4.569   5.909  0.6415 -0.1796 -0.3338
19598TIP3    H180285   1.314   4.501   5.853  2.3053 -0.8835 -0.6716
19598TIP3    H280286   1.297   4.645   5.897 -2.1483 -1.8945  1.1673
19599TIP3   OH280287   3.129   2.985  15.717 -0.2396  0.5752  0.2973
19599TIP3    H180288   3.104   2.899  15.750 -1.3023  1.1560  1.0277
19599TIP3    H280289   3.087   2.991  15.631 -1.0518  0.7850  0.7037
19600TIP3   OH280290   3.603   5.404   1.933 -0.4377  0.4779  0.6225
19600TIP3    H180291   3.637   5.446   2.012 -0.7334  2.1631 -0.1020
19600TIP3    H280292   3.674   5.413   1.869 -1.4860  2.3410 -0.3385
19601TIP3   OH280293   6.055   2.747  12.271  0.0764  0.7040 -0.5658
19601TIP3    H180294   6.105   2.694  12.208  0.8246  0.6619  0.0631
19601TIP3    H280295   6.115   2.817  12.296 -1.3204  2.6149 -2.3349
19602TIP3   OH280296   2.132   2.203   5.687  0.0307  0.0046 -1.0898
19602TIP3    H180297   2.044   2.209   5.651 -0.0447 -3.2259 -1.5915
19602TIP3    H280298   2.118   2.187   5.781  0.1099  0.5224 -0.9879
19603TIP3   OH280299   0.514   2.598   4.267 -0.2712  0.0439 -0.7371
19603TIP3    H180300   0.580   2.565   4.206  1.2310 -1.2397  1.4854
19603TIP3    H280301   0.435   2.548   4.246  0.4635 -0.9846 -1.0874
19604TIP3   OH280302   5.307   5.927   0.058  0.5042  0.6635  0.4774
19604TIP3    H180303   5.383   5.926  -0.000  1.2216  2.3107  1.3435
19604TIP3    H280304   5.261   6.007   0.036  1.4096  1.9129  2.9121
19605TIP3   OH280305   0.825   2.431  16.874 -0.0555 -0.0432 -0.1567
19605TIP3    H180306   0.825   2.417  16.779 -0.4512  0.4118 -0.2243
19605TIP3    H280307   0.808   2.344  16.911 -2.6960  0.2709 -0.5808
19606TIP3   OH280308   3.709   1.002  11.823  0.0754 -0.1590 -0.8919
19606TIP3    H180309   3.793   1.019  11.781  1.9575  0.8140  3.0365
19606TIP3    H280310   3.731   0.969  11.909 -3.5536  1.0943  0.6444
19607TIP3   OH280311   0.942   0.001   2.192  0.5657 -0.5408  0.0945
19607TIP3    H180312   1.003   0.071   2.168 -0.4609  0.6510  0.9445
19607TIP3    H280313   0.939   0.003   2.287 -0.2259 -1.1021  0.0847
19608TIP3   OH280314   5.622   6.447  15.358 -0.4663 -0.0835  0.2380
19608TIP3    H180315   5.636   6.534  15.320  0.6937 -0.5543 -0.4198
19608TIP3    H280316   5.689   6.392  15.317 -1.0190 -1.2237  0.8664
19609TIP3   OH280317   2.299   5.126  11.431  0.4161 -0.4517  0.4960
19609TIP3    H180318   2.353   5.076  11.370  0.0901  2.7079 -2.5474
19609TIP3    H280319   2.211   5.093  11.418  0.6932 -1.5508  1.2257
19610TIP3   OH280320   4.542   2.874   3.119 -0.1523 -0.0672  0.1933
19610TIP3    H180321   4.455   2.912   3.112 -0.7953 -1.2468  1.3990
19610TIP3    H280322   4.556   2.864   3.213  1.0840 -0.3193 -0.0123
19611TIP3   OH280323   0.131   6.636   2.734 -1.0971 -1.0799 -0.5028
19611TIP3    H180324   0.187   6.618   2.810 -2.2341 -1.3897  0.2633
19611TIP3    H280325   0.122   6.552   2.691  2.2678 -0.3338 -2.9001
19612TIP3   OH280326   2.446   6.032  14.434 -0.2228  0.0653 -0.2387
19612TIP3    H180327   2.451   6.088  14.357  1.1579  1.0281  0.5346
19612TIP3    H280328   2.536   6.028  14.467 -1.1821  1.8717  2.8669
19613TIP3   OH280329   6.149   1.005  13.476 -0.3488  0.0854  0.2752
19613TIP3    H180330   6.058   0.985  13.456 -0.1679 -1.7141  1.1602
19613TIP3    H280331   6.184   0.925  13.514  1.6561  0.7019 -0.1787
19614TIP3   OH280332   3.844   6.578  13.132 -0.2891 -0.1158 -0.5472
19614TIP3    H180333   3.848   6.635  13.209 -2.0026  0.4667 -0.8694
19614TIP3    H280334   3.807   6.633  13.063  3.3149  0.0808 -2.4832
19615TIP3   OH280335   4.410   1.477   3.606 -0.0085  0.0794  0.0844
19615TIP3    H180336   4.503   1.480   3.584  0.0379 -1.9516 -0.1313
19615TIP3    H280337   4.405   1.416   3.680 -1.0890  0.7111  0.5500
19616TIP3   OH280338   5.954   2.936  13.704  0.2935 -0.3811  0.3600
19616TIP3    H180339   5.948   3.020  13.658 -1.4448 -0.3325  0.6386
19616TIP3    H280340   5.979   2.874  13.637 -2.9020 -0.4349 -0.8693
19617TIP3   OH280341   4.517   3.472  13.018 -0.4009 -0.1338 -0.0237
19617TIP3    H180342   4.441   3.454  13.074 -1.5442  2.0433 -0.8212
19617TIP3    H280343   4.517   3.401  12.954 -0.8941 -0.9474  0.8554
19618TIP3   OH280344   6.506   2.259  12.313 -0.1202 -0.5592 -0.2530
19618TIP3    H180345   6.581   2.252  12.254  0.2607 -1.3519  0.3188
19618TIP3    H280346   6.526   2.333  12.370  0.9552 -1.7330  0.9192
19619TIP3   OH280347   3.454   4.437  12.426 -0.4124 -0.2215  0.3889
19619TIP3    H180348   3.364   4.457  12.401 -0.7351 -2.0223 -0.0033
19619TIP3    H280349   3.492   4.521  12.448 -2.8712  0.3155  2.8662
19620TIP3   OH280350   4.416   3.208   0.269 -0.2164 -0.5205 -0.1863
19620TIP3    H180351   4.393   3.231   0.359 -0.5498 -0.6706 -0.2321
19620TIP3    H280352   4.441   3.292   0.229 -2.3674 -0.0774 -0.6291
19621TIP3   OH280353   2.684   0.514  12.831 -0.1121  0.0804  0.0629
19621TIP3    H180354   2.633   0.444  12.790  0.2076 -0.2698  0.2662
19621TIP3    H280355   2.727   0.558  12.758  0.1153 -0.2732 -0.0159
19622TIP3   OH280356   1.426   6.295   4.846 -0.2822 -0.4713 -0.0720
19622TIP3    H180357   1.500   6.272   4.902 -0.3789 -2.3465 -0.6781
19622TIP3    H280358   1.466   6.337   4.770  0.1813 -1.4161 -0.3676
19623TIP3   OH280359   4.724   3.333  15.571  0.1304 -0.3861  0.2926
19623TIP3    H180360   4.718   3.263  15.506 -1.8905 -0.2133  0.2782
19623TIP3    H280361   4.729   3.287  15.655  0.6413 -0.5650  0.1702
19624TIP3   OH280362   1.829   1.005  11.447 -0.0218  0.1771  0.0204
19624TIP3    H180363   1.887   0.987  11.521 -0.6514  0.6852  0.6424
19624TIP3    H280364   1.794   1.092  11.466  0.9453  0.9439 -1.6047
19625TIP3   OH280365   5.176   5.488   6.521  0.4049  0.2171  0.1555
19625TIP3    H180366   5.100   5.539   6.551  1.7384  1.0876  2.1006
19625TIP3    H280367   5.175   5.409   6.574 -0.3948 -0.8243 -1.3629
19626TIP3   OH280368   5.740   2.703   2.644  0.0068  0.3121 -0.5509
19626TIP3    H180369   5.823   2.694   2.597  0.5653 -0.9488  0.6488
19626TIP3    H280370   5.757   2.770   2.709 -0.3648  1.0919 -1.2438
19627TIP3   OH280371   2.458   6.011   3.547  0.2821 -0.5321  0.4327
19627TIP3    H180372   2.462   5.917   3.566  2.4314 -0.7503 -0.8719
19627TIP3    H280373   2.417   6.015   3.460 -1.3856 -0.1345  1.2253
19628TIP3   OH280374   5.624   4.024  11.157 -0.0994 -0.7260 -0.6096
19628TIP3    H180375   5.639   3.936  11.124  0.1577 -0.1926 -1.9595
19628TIP3    H280376   5.685   4.079  11.108 -1.1008  0.3779 -0.6469
19629TIP3   OH280377   3.396   4.604   5.427  0.2460  0.5041  0.0207
19629TIP3    H180378   3.399   4.690   5.385 -1.0143  0.3457 -0.4168
19629TIP3    H280379   3.411   4.542   5.356  0.6630  0.3396  0.2518
19630TIP3   OH280380   0.722   6.472   4.413  0.1362  0.3741  0.5422
19630TIP3    H180381   0.629   6.488   4.432  0.3540  2.0076  0.3015
19630TIP3    H280382   0.767   6.494   4.495  0.2783 -0.8668  0.8077
19631TIP3   OH280383   5.108   2.969  14.277  0.6795  0.0654 -0.0740
19631TIP3    H180384   5.199   2.993  14.259  0.9044 -0.1647  0.7383
19631TIP3    H280385   5.094   2.888  14.229  0.8795  0.1451 -0.2661
19632TIP3   OH280386   5.771   6.192   4.223 -0.2783 -0.3992  0.1846
19632TIP3    H180387   5.791   6.240   4.303  0.6020  1.0197 -0.8674
19632TIP3    H280388   5.853   6.147   4.202 -0.3207 -0.2652 -0.2621
19633TIP3   OH280389   1.194   5.974   4.459  0.4541 -0.2904 -0.3029
19633TIP3    H180390   1.226   5.997   4.547 -1.2058  0.1288  0.2067
19633TIP3    H280391   1.274   5.959   4.408  1.4462 -0.3239  1.2161
19634TIP3   OH280392   0.634   1.083   3.875 -1.1689  0.1699 -0.3706
19634TIP3    H180393   0.594   1.038   3.800  1.1582 -0.9340 -0.9845
19634TIP3    H280394   0.589   1.047   3.951 -1.3313 -1.0890 -1.0398
19635TIP3   OH280395   6.420   0.250  17.140 -0.4720 -0.1151  0.0911
19635TIP3    H180396   6.459   0.165  17.159 -0.6762 -0.4060 -0.7911
19635TIP3    H280397   6.412   0.253  17.045  1.7567  1.8667 -0.0885
19636TIP3   OH280398   6.052   1.821   3.055 -0.1118  0.6753  0.9406
19636TIP3    H180399   5.978   1.806   2.997 -0.5072  2.2503  1.0125
19636TIP3    H280400   6.030   1.901   3.102  0.0966 -0.6751  3.4312
19637TIP3   OH280401   4.003   1.885   0.864 -0.9382 -0.2544  0.6014
19637TIP3    H180402   4.054   1.841   0.932 -0.1545  2.1973  1.6713
19637TIP3    H280403   3.953   1.951   0.911 -1.8533  0.2203 -0.9907
19638TIP3   OH280404   4.918   2.152  12.732  0.1108 -0.3021  0.2540
19638TIP3    H180405   4.830   2.127  12.760 -0.1053 -1.6108 -1.5125
19638TIP3    H280406   4.970   2.072  12.742  0.0177 -0.8495 -3.0011
19639TIP3   OH280407   1.697   3.513   4.583 -0.0044  0.1163 -0.2960
19639TIP3    H180408   1.615   3.527   4.630 -1.0769 -2.2283 -1.3941
19639TIP3    H280409   1.748   3.455   4.640 -0.3143 -0.7808 -0.9283
19640TIP3   OH280410   3.929   0.636  15.249 -0.4124 -0.2393  0.2876
19640TIP3    H180411   3.982   0.638  15.170 -1.0643 -0.9290 -0.1753
19640TIP3    H280412   3.870   0.711  15.241  0.0633  0.1588  0.5046
19641TIP3   OH280413   2.615   1.356  13.322  0.1812 -0.0870 -0.1814
19641TIP3    H180414   2.641   1.284  13.379 -0.4074  1.1410  1.6959
19641TIP3    H280415   2.522   1.340  13.304  0.4612 -0.6857 -1.1520
19642TIP3   OH280416   1.951   3.183   5.642  0.2344  0.4723 -0.5123
19642TIP3    H180417   2.017   3.204   5.576  0.4612  0.4973 -0.2777
19642TIP3    H280418   1.985   3.106   5.687 -0.0845  0.2468 -0.6488
19643TIP3   OH280419   6.642   6.522   5.078  0.2000 -0.6768 -0.7700
19643TIP3    H180420   6.566   6.465   5.069 -0.3514 -0.0927  0.1054
19643TIP3    H280421   6.606   6.611   5.079  0.6816 -0.4824  1.8367
19644TIP3   OH280422   0.284   2.564   0.102  0.4473 -0.5110  0.6498
19644TIP3    H180423   0.328   2.582   0.185  1.9693  0.0942 -0.2629
19644TIP3    H280424   0.301   2.643   0.050 -1.6245 -0.3236  0.2252
19645TIP3   OH280425   1.717   1.213  15.924 -0.5555 -0.1987 -0.0553
19645TIP3    H180426   1.721   1.118  15.936  1.2410 -0.1873 -0.4516
19645TIP3    H280427   1.719   1.249  16.012  1.0417 -0.4740  0.0357
19646TIP3   OH280428   5.465   6.039  12.384 -0.1300 -0.4042  0.4217
19646TIP3    H180429   5.536   6.033  12.448  0.2858  1.4485  0.1667
19646TIP3    H280430   5.494   6.105  12.322 -2.8575  1.7412  1.3320
19647TIP3   OH280431   1.175   0.748  17.109  0.0111 -0.0094 -0.2809
19647TIP3    H180432   1.216   0.757  17.023  0.7076  1.8282  0.2230
19647TIP3    H280433   1.090   0.707  17.091  1.4232 -2.4872 -1.4817
19648TIP3   OH280434   6.748   6.638  12.898  0.0908 -0.1912  0.1957
19648TIP3    H180435   6.667   6.604  12.936 -0.2999  0.8743  0.3177
19648TIP3    H280436   6.733   6.639  12.804 -0.7873  1.8987  0.3387
19649TIP3   OH280437   5.090   5.104   0.509  0.1705  0.0902 -0.0682
19649TIP3    H180438   5.081   5.154   0.591  1.6262  0.3475 -0.0527
19649TIP3    H280439   5.142   5.161   0.452 -0.1207 -0.4510 -0.8821
19650TIP3   OH280440   2.705   0.157  16.773 -0.0949  0.1705 -0.3711
19650TIP3    H180441   2.692   0.134  16.680 -0.6101 -1.5177  0.0980
19650TIP3    H280442   2.784   0.110  16.799  1.4981  2.6429 -0.5886
19651TIP3   OH280443   4.733   5.254   1.605 -0.1530 -0.5300 -0.2374
19651TIP3    H180444   4.804   5.301   1.650  0.2875  1.2640 -2.7432
19651TIP3    H280445   4.756   5.161   1.617  1.3474 -0.0428  0.9842
19652TIP3   OH280446   4.701   4.226   6.226  0.3839 -0.4740  0.4160
19652TIP3    H180447   4.726   4.281   6.300 -0.5004  1.3556 -0.6221
19652TIP3    H280448   4.713   4.137   6.258  0.2715  0.2816  2.6721
19653TIP3   OH280449   0.054   2.073   0.924  0.8807  0.6524 -0.2519
19653TIP3    H180450  -0.018   2.043   0.869  0.9649 -0.3496  0.1832
19653TIP3    H280451   0.012   2.096   1.007  1.0663  0.0133  0.0211
19654TIP3   OH280452   4.138   3.394   0.815 -0.0565  0.5243  0.3449
19654TIP3    H180453   4.149   3.299   0.820 -1.2952  0.3476 -0.0233
19654TIP3    H280454   4.169   3.426   0.900 -0.3674 -0.2843  0.7687
19655TIP3   OH280455   2.158   2.278   0.417  0.3254 -0.8183 -0.1196
19655TIP3    H180456   2.088   2.328   0.459  1.6479  0.3821  0.7001
19655TIP3    H280457   2.112   2.211   0.367 -1.4111 -0.1175  0.4769
19656TIP3   OH280458   2.030   3.457  15.452  0.4877 -0.5052  0.2714
19656TIP3    H180459   1.998   3.417  15.371  0.6373 -0.4614  0.1913
19656TIP3    H280460   1.961   3.439  15.516 -0.3510  0.7581 -0.2330
19657TIP3   OH280461   3.806   5.624   6.260  0.7792 -0.2826 -0.1628
19657TIP3    H180462   3.902   5.628   6.268  0.8903 -0.3282 -1.4443
19657TIP3    H280463   3.774   5.652   6.346  1.9634 -1.9049  0.8395
19658TIP3   OH280464   5.715   5.335  10.427 -0.1587  0.1428  0.1016
19658TIP3    H180465   5.646   5.270  10.444 -0.1211 -0.4540 -1.9578
19658TIP3    H280466   5.678   5.418  10.456 -0.8937 -0.5234  1.0866
19659TIP3   OH280467   3.419   3.831   3.398 -0.5426  0.3434  0.4578
19659TIP3    H180468   3.504   3.791   3.416 -0.6198  0.6596  1.5762
19659TIP3    H280469   3.362   3.756   3.379  0.1830  0.1953 -1.1979
19660TIP3   OH280470   5.522   1.978   6.572 -0.1683 -0.4997 -0.1172
19660TIP3    H180471   5.456   1.926   6.525 -2.0832  0.5711  1.3344
19660TIP3    H280472   5.523   2.062   6.526 -0.1932 -0.3374  0.1784
19661TIP3   OH280473   0.693   0.509  15.091 -0.5648  0.3412  0.1597
19661TIP3    H180474   0.770   0.524  15.037  0.7101 -0.5116  1.6843
19661TIP3    H280475   0.722   0.530  15.180 -1.6543 -1.3086  0.9355
19662TIP3   OH280476   2.558   2.963  14.015 -0.1772  0.3731 -0.3240
19662TIP3    H180477   2.619   3.037  14.011 -0.4283  0.6214  0.3789
19662TIP3    H280478   2.609   2.888  13.984  0.5313  0.5509  0.3989
19663TIP3   OH280479   4.271   3.587  14.394  0.0900 -0.0781 -0.5745
19663TIP3    H180480   4.271   3.598  14.299 -0.4101  1.6042 -0.3975
19663TIP3    H280481   4.186   3.621  14.423  0.4564 -0.0607  0.5259
19664TIP3   OH280482   2.488   0.334   6.036  0.3095 -0.2246 -0.5660
19664TIP3    H180483   2.434   0.410   6.015  0.9177  0.3686 -0.0208
19664TIP3    H280484   2.471   0.272   5.965 -1.0290 -0.0204 -0.4312
19665TIP3   OH280485   1.797   4.183   1.755  0.2363  0.1461  0.2081
19665TIP3    H180486   1.814   4.118   1.823  0.5182 -0.8205 -0.7569
19665TIP3    H280487   1.843   4.261   1.784  1.9785 -0.8490  0.1996
19666TIP3   OH280488   0.871   5.959  17.187 -0.1040 -0.2153 -0.2124
19666TIP3    H180489   0.965   5.977  17.188 -0.0253 -0.6496  1.3324
19666TIP3    H280490   0.862   5.874  17.145  0.0739  0.4419 -1.5938
19667TIP3   OH280491   2.743   3.622   1.206  0.1497  0.1445 -0.1549
19667TIP3    H180492   2.767   3.708   1.240  1.7850 -1.0264  1.7552
19667TIP3    H280493   2.655   3.634   1.171  0.2299  2.5162  0.3507
19668TIP3   OH280494   5.760   6.165  12.915 -0.4481 -0.4933 -0.3415
19668TIP3    H180495   5.682   6.119  12.882  0.9346 -1.8756 -1.7580
19668TIP3    H280496   5.780   6.123  12.998  0.1935 -1.7389 -1.1291
19669TIP3   OH280497   4.127   6.218   5.178 -0.2787  0.2221 -0.3771
19669TIP3    H180498   4.159   6.238   5.266 -0.3818  0.4171 -0.3835
19669TIP3    H280499   4.042   6.178   5.192 -0.1980  0.0489 -0.3777
19670TIP3   OH280500   3.183   1.431  15.759 -0.5132 -0.3085 -0.7500
19670TIP3    H180501   3.107   1.488  15.765  0.4160  0.9519 -0.7037
19670TIP3    H280502   3.251   1.477  15.808 -0.0019 -1.8996  0.0779
19671TIP3   OH280503   0.154   1.425   2.432  0.2926 -0.6054  0.6090
19671TIP3    H180504   0.224   1.373   2.392 -0.0711  0.6260 -1.7498
19671TIP3    H280505   0.187   1.515   2.430 -0.6859 -0.2322  0.9912
19672TIP3   OH280506   3.905   2.777   0.552  0.4553 -0.2853  0.3504
19672TIP3    H180507   3.849   2.823   0.489  0.2881  0.6657  1.1868
19672TIP3    H280508   3.884   2.684   0.539  0.1168 -0.0706 -0.7003
19673TIP3   OH280509   5.671   2.710   4.698  0.2279 -0.7003  0.3278
19673TIP3    H180510   5.635   2.770   4.633 -1.4256 -0.8317  1.0811
19673TIP3    H280511   5.715   2.767   4.761  0.2583 -0.4283  0.0622
19674TIP3   OH280512   1.600   1.835  12.546  0.0551 -0.0170 -0.3674
19674TIP3    H180513   1.523   1.867  12.592  0.1019 -0.2081 -0.1558
19674TIP3    H280514   1.589   1.740  12.543  0.0437 -0.0011 -0.7661
19675TIP3   OH280515   4.203   4.702  16.328 -0.6270 -0.6746  0.1329
19675TIP3    H180516   4.153   4.770  16.283 -0.8187 -2.4852 -2.4557
19675TIP3    H280517   4.241   4.747  16.404 -2.8077  1.6985 -0.1126
19676TIP3   OH280518   5.147   0.223   5.181 -0.4524 -0.3366 -0.0049
19676TIP3    H180519   5.069   0.184   5.143 -0.0321  0.8276 -2.1637
19676TIP3    H280520   5.211   0.223   5.109  0.1113  2.6648  0.4237
19677TIP3   OH280521   3.685   3.450   1.571  0.0648  0.6477 -0.4915
19677TIP3    H180522   3.772   3.489   1.573  0.3444  0.0182  1.7607
19677TIP3    H280523   3.692   3.379   1.507  2.0057 -1.1007  1.5816
19678TIP3   OH280524   3.335   4.493  15.925 -0.2618 -0.5165  0.0255
19678TIP3    H180525   3.272   4.424  15.945 -0.8629  0.1767  0.5838
19678TIP3    H280526   3.307   4.528  15.841 -0.9064  0.0896  0.4833
19679TIP3   OH280527   5.502   2.024   0.686  0.8496 -0.3197  0.1050
19679TIP3    H180528   5.496   1.946   0.741  1.0470 -0.8886 -0.6861
19679TIP3    H280529   5.534   1.993   0.602  1.8304  0.7464  0.0646
19680TIP3   OH280530   4.411   1.756   3.496 -0.1280 -1.0871  0.2119
19680TIP3    H180531   4.415   1.683   3.557  0.6658 -0.2525  1.1836
19680TIP3    H280532   4.495   1.755   3.451 -0.4554 -1.2995 -0.4075
19681TIP3   OH280533   1.298   0.378  17.152 -0.6264  0.3273  0.2176
19681TIP3    H180534   1.211   0.397  17.117 -0.6471 -0.4661 -0.1614
19681TIP3    H280535   1.349   0.352  17.076 -0.4376 -0.5642  0.6494
19682TIP3   OH280536   3.042   2.606   3.297 -0.0136 -0.1020 -0.0002
19682TIP3    H180537   3.130   2.643   3.309  0.5520 -1.3819 -0.1749
19682TIP3    H280538   2.986   2.661   3.352  1.1270 -0.1694  1.2515
19683TIP3   OH280539   2.116   2.785  12.248  1.0555  0.0755  0.0773
19683TIP3    H180540   2.087   2.719  12.310 -1.4268 -2.3051 -3.4448
19683TIP3    H280541   2.192   2.747  12.205  0.5998  0.1509 -0.8230
19684TIP3   OH280542   3.463   1.007   2.596 -0.6027  0.7947 -0.4544
19684TIP3    H180543   3.423   1.044   2.675 -0.1536 -0.8719  0.5781
19684TIP3    H280544   3.395   0.949   2.561  0.1124 -0.3930  0.1097
19685TIP3   OH280545   5.793   2.340  13.807  0.3404  0.6073  0.6268
19685TIP3    H180546   5.863   2.315  13.746  2.1268  0.1585  2.8079
19685TIP3    H280547   5.809   2.432  13.824 -0.2729  0.7776  0.2789
19686TIP3   OH280548   2.486   1.039   2.786 -0.5962 -0.2686 -0.4212
19686TIP3    H180549   2.475   0.949   2.755 -0.7178 -0.2694 -0.3724
19686TIP3    H280550   2.504   1.089   2.706 -2.8972  0.0755 -0.7628
19687TIP3   OH280551   0.780   6.026  16.348 -0.3061  0.2470  0.1405
19687TIP3    H180552   0.778   6.087  16.274  0.9596  0.7829  0.5260
19687TIP3    H280553   0.753   6.078  16.423 -3.5835 -0.7932 -0.2235
19688TIP3   OH280554   1.338   5.333  16.412 -0.0135  0.0785 -0.1650
19688TIP3    H180555   1.300   5.409  16.457 -0.5374  0.6683 -1.5629
19688TIP3    H280556   1.263   5.280  16.387  0.3423 -0.8098  0.6356
19689TIP3   OH280557   4.628   5.073   3.065 -0.0268 -0.7729 -0.6711
19689TIP3    H180558   4.708   5.023   3.082 -0.2229 -0.1337  2.4714
19689TIP3    H280559   4.659   5.162   3.046  0.0238 -0.4358  0.9189
19690TIP3   OH280560   1.310   4.765   2.161 -0.2371 -0.3719  0.0824
19690TIP3    H180561   1.264   4.807   2.234 -1.1336 -0.3247 -0.5004
19690TIP3    H280562   1.343   4.838   2.108  1.2810 -0.4023  0.9685
19691TIP3   OH280563   1.001   3.277   5.230  0.0932 -0.0257  1.1291
19691TIP3    H180564   1.064   3.224   5.280  2.6217  1.4233 -0.4068
19691TIP3    H280565   1.016   3.367   5.261 -1.9389  0.2187  1.4326
19692TIP3   OH280566   4.021   0.597   6.279 -0.2899  0.9344  0.5071
19692TIP3    H180567   4.087   0.623   6.343 -0.0684 -0.6165  0.9203
19692TIP3    H280568   3.942   0.583   6.332 -0.5463  1.2991  0.2182
19693TIP3   OH280569   2.330   2.134  15.801 -0.1659  0.2204  0.7648
19693TIP3    H180570   2.350   2.142  15.894 -0.7066  2.7883  0.6797
19693TIP3    H280571   2.292   2.046  15.792 -0.5243  0.1322  3.0225
19694TIP3   OH280572   1.735   2.271   4.857  0.6919 -0.0642  0.2255
19694TIP3    H180573   1.659   2.235   4.811 -0.0041  1.6918 -0.0315
19694TIP3    H280574   1.803   2.204   4.847 -0.2689 -0.8720 -1.0671
19695TIP3   OH280575   3.629   3.618  12.840 -0.2736  0.1261  0.6588
19695TIP3    H180576   3.570   3.682  12.802 -0.1530 -0.2829 -0.2421
19695TIP3    H280577   3.576   3.539  12.850  0.2570 -0.4392 -0.7559
19696TIP3   OH280578   2.073   5.610  16.877  0.1907  0.5654 -0.5938
19696TIP3    H180579   2.165   5.584  16.883  0.1893  0.7503  0.2821
19696TIP3    H280580   2.025   5.537  16.915  0.0469  0.9563 -0.0300
19697TIP3   OH280581   6.656   1.066   3.852 -0.7903  0.5146 -0.1158
19697TIP3    H180582   6.705   1.092   3.930 -0.5213  1.3639 -0.5509
19697TIP3    H280583   6.570   1.041   3.884 -0.3971  0.0083  0.5473
19698TIP3   OH280584   1.696   4.536   1.597  0.6397  0.5806 -0.9715
19698TIP3    H180585   1.675   4.576   1.681 -0.6995  1.6688 -1.8061
19698TIP3    H280586   1.645   4.455   1.595  0.6799  0.5491 -0.7343
19699TIP3   OH280587   1.499   3.176   6.568 -0.1393  0.1903  0.0492
19699TIP3    H180588   1.440   3.169   6.493 -1.9569 -0.1483  1.4954
19699TIP3    H280589   1.442   3.185   6.644  1.6859  1.2512  1.3520
19700TIP3   OH280590   1.707   3.775   0.433  0.0402  0.3599  0.3969
19700TIP3    H180591   1.790   3.726   0.424  0.6522  1.4372  0.1164
19700TIP3    H280592   1.696   3.786   0.527 -0.8225 -1.5211  0.5410
19701TIP3   OH280593   5.636   1.647  12.034  0.3295  0.0585  0.0509
19701TIP3    H180594   5.665   1.648  11.942  0.8676  0.1784  0.2231
19701TIP3    H280595   5.714   1.671  12.084  0.1652 -0.5203  0.5809
19702TIP3   OH280596   2.868   3.875  12.969 -0.4538  0.5316  0.1256
19702TIP3    H180597   2.855   3.849  12.878 -2.3044  1.1385  0.1981
19702TIP3    H280598   2.870   3.793  13.018 -0.2042  0.2438 -0.3648
19703TIP3   OH280599   3.989   2.174   4.484  0.3582  0.6106 -0.3316
19703TIP3    H180600   3.903   2.133   4.477 -0.1804  1.4829  1.0835
19703TIP3    H280601   4.044   2.106   4.524  0.4763 -0.1115 -1.6607
19704TIP3   OH280602   3.787   2.116  16.523  0.0505  0.8386 -0.6889
19704TIP3    H180603   3.790   2.061  16.445  2.0467 -0.2767  0.1440
19704TIP3    H280604   3.878   2.118  16.555 -0.5823  1.9742  1.1248
19705TIP3   OH280605   1.610   0.651  15.410  0.0940  0.7774  0.4123
19705TIP3    H180606   1.545   0.612  15.469  0.1917  0.3653  0.2502
19705TIP3    H280607   1.661   0.710  15.466 -0.0085  0.6208  0.6737
19706TIP3   OH280608   0.452   6.187   0.197  0.3729  0.0550 -0.2663
19706TIP3    H180609   0.435   6.094   0.212 -0.1461  0.3439  1.0105
19706TIP3    H280610   0.411   6.206   0.112 -0.5057 -0.6232 -0.0002
19707TIP3   OH280611   0.662   0.247  16.204  0.2057 -0.5172 -0.6188
19707TIP3    H180612   0.724   0.314  16.232 -1.6780  0.3836  1.5457
19707TIP3    H280613   0.598   0.294  16.152 -0.0990 -0.9785 -0.6610
19708TIP3   OH280614   5.331   6.790  15.507  0.0866  0.1790  0.0600
19708TIP3    H180615   5.314   6.864  15.565  1.1112 -0.4322  1.1502
19708TIP3    H280616   5.399   6.822  15.447  1.1076 -0.1128  1.0328
19709TIP3   OH280617   2.683   3.958  11.851 -0.4289  0.0017  0.0034
19709TIP3    H180618   2.762   3.926  11.805 -0.5622 -1.0860  0.5051
19709TIP3    H280619   2.717   4.008  11.925 -0.2055  0.4031 -0.3732
19710TIP3   OH280620   1.613   4.595  13.478 -0.3425  0.6260 -0.0876
19710TIP3    H180621   1.698   4.555  13.460 -0.8029 -0.2970 -0.2222
19710TIP3    H280622   1.561   4.576  13.400 -0.9271  0.4834  0.3363
19711TIP3   OH280623   5.634   1.520  16.265  0.5299  0.7893 -0.6928
19711TIP3    H180624   5.650   1.613  16.279  0.8020  1.0498 -2.6916
19711TIP3    H280625   5.686   1.497  16.188 -1.2070 -0.5152 -1.5221
19712TIP3   OH280626   6.157   5.285  15.484  0.6424 -0.1812  0.2808
19712TIP3    H180627   6.069   5.309  15.511  0.2381 -0.7239 -0.5301
19712TIP3    H280628   6.214   5.350  15.525  0.0403 -0.8741  2.2635
19713TIP3   OH280629   0.048   1.328  17.030  0.1336 -0.2448 -0.3387
19713TIP3    H180630   0.130   1.286  17.056 -0.7917 -0.9793  1.4486
19713TIP3    H280631   0.005   1.263  16.974  0.5172 -0.0701 -0.8418
19714TIP3   OH280632   2.919   3.533   6.607  0.2368 -0.4250  0.3679
19714TIP3    H180633   2.995   3.495   6.651  0.6096 -0.6310 -0.4432
19714TIP3    H280634   2.874   3.582   6.675  0.5643 -1.1118  1.0783
19715TIP3   OH280635   1.044   2.568   0.499  0.1548 -0.0576  0.2123
19715TIP3    H180636   1.048   2.597   0.408 -1.0835  0.6986  0.3889
19715TIP3    H280637   1.021   2.476   0.494 -0.4004  0.1037 -0.2223
19716TIP3   OH280638   0.179   0.600   2.343  0.1232  0.0048 -0.1987
19716TIP3    H180639   0.086   0.618   2.329  0.0715  0.4451  0.6888
19716TIP3    H280640   0.223   0.681   2.320  0.1835  0.1759  0.5080
19717TIP3   OH280641   4.268   4.206  17.040 -0.0642 -0.2022 -0.1010
19717TIP3    H180642   4.304   4.207  16.951  0.4526 -0.0299  0.1070
19717TIP3    H280643   4.282   4.295  17.072 -0.1764 -0.2854  0.1799
19718TIP3   OH280644   5.465   5.943  11.862  0.0598  0.0582  0.1423
19718TIP3    H180645   5.375   5.959  11.834  0.4554  2.3173  0.1028
19718TIP3    H280646   5.489   5.861  11.819 -1.1954  0.6385 -1.7311
19719TIP3   OH280647   0.937   1.523  14.245 -0.1547  0.8416 -0.1672
19719TIP3    H180648   0.954   1.602  14.193 -0.6975  0.6397 -0.6625
19719TIP3    H280649   0.982   1.453  14.197  1.3259  1.0317  0.9075
19720TIP3   OH280650   5.521   2.312   4.188 -0.4808  0.4166 -0.1864
19720TIP3    H180651   5.568   2.261   4.254 -2.4809  1.0585  1.8024
19720TIP3    H280652   5.539   2.267   4.106 -0.4184 -2.2271  1.2085
19721TIP3   OH280653   2.849   5.299   4.086  0.5590 -0.1196 -0.5420
19721TIP3    H180654   2.941   5.283   4.109  1.3214  0.7996 -2.8897
19721TIP3    H280655   2.841   5.394   4.083 -0.3514 -0.2046 -0.9127
19722TIP3   OH280656   0.595   2.221  14.964  0.1400 -0.6858 -0.0376
19722TIP3    H180657   0.541   2.252  15.037  2.6340 -0.8301  1.9542
19722TIP3    H280658   0.593   2.293  14.901 -0.4404  0.2890  1.0639
19723TIP3   OH280659   4.639   6.764  13.988  0.3504  0.4490 -0.1827
19723TIP3    H180660   4.640   6.671  14.012  0.1629  0.9736  1.9771
19723TIP3    H280661   4.564   6.772  13.928 -1.2239 -0.3702  1.5951
19724TIP3   OH280662   3.020   3.676  15.464  0.2232  0.0360  0.2697
19724TIP3    H180663   2.948   3.614  15.451  0.7810 -0.7220  0.7659
19724TIP3    H280664   3.018   3.732  15.386  0.1021 -1.0123 -0.4866
19725TIP3   OH280665   4.310   3.052  11.726  0.3921 -0.3339 -0.2278
19725TIP3    H180666   4.368   2.998  11.780  1.7313  0.4759 -0.8354
19725TIP3    H280667   4.228   3.057  11.776  0.9008 -1.3483  0.7164
19726TIP3   OH280668   4.194   0.115  11.286 -0.0917 -0.4039  0.7493
19726TIP3    H180669   4.125   0.165  11.329  0.9073  0.1366  1.7655
19726TIP3    H280670   4.215   0.045  11.349 -0.3238 -1.1085  0.0569
19727TIP3   OH280671   3.432   2.950  15.879 -0.1325 -0.0952  0.4059
19727TIP3    H180672   3.509   2.991  15.840 -0.6379 -0.1868 -0.7020
19727TIP3    H280673   3.457   2.858  15.889 -0.8400 -0.5608 -1.9271
19728TIP3   OH280674   1.956   2.738  12.678 -0.3780 -0.2231  0.6063
19728TIP3    H180675   1.947   2.818  12.625  0.2560 -1.4357 -1.3746
19728TIP3    H280676   1.867   2.713  12.700 -0.5929  0.8894  1.0439
19729TIP3   OH280677   4.030   6.466  11.924 -0.1694 -0.2733  0.2935
19729TIP3    H180678   3.987   6.433  11.845  0.2037 -1.1305  0.4403
19729TIP3    H280679   4.092   6.531  11.892  0.7778 -1.4143 -0.2452
19730TIP3   OH280680   2.529   0.441   2.403 -0.5655 -0.2765 -0.1103
19730TIP3    H180681   2.464   0.437   2.333 -0.5108 -0.4642 -0.1506
19730TIP3    H280682   2.524   0.531   2.435  0.9658  0.4581 -1.8356
19731TIP3   OH280683   4.040   5.512   5.361  0.2192  0.4921 -0.2326
19731TIP3    H180684   4.080   5.593   5.328  0.1040  0.4170 -0.5560
19731TIP3    H280685   4.001   5.471   5.284 -1.0991  0.9114  0.1982
19732TIP3   OH280686   6.652   2.971  12.586  0.0569  0.3831 -0.2068
19732TIP3    H180687   6.591   3.003  12.519 -0.5196  1.0406  0.6203
19732TIP3    H280688   6.597   2.923  12.648  0.6371 -0.5074 -0.3710
19733TIP3   OH280689   1.732   1.986   2.707  0.1691  0.1908  0.5898
19733TIP3    H180690   1.649   2.003   2.751  0.4985 -0.8046  1.6284
19733TIP3    H280691   1.715   2.006   2.615 -1.8192 -1.8754  0.4533
19734TIP3   OH280692   0.317   1.022   5.897  0.0115 -0.5150 -0.1803
19734TIP3    H180693   0.340   1.066   5.979 -0.9463  0.8601 -0.6381
19734TIP3    H280694   0.362   0.938   5.902  0.0763 -0.3989  1.7043
19735TIP3   OH280695   3.037   0.106   4.771 -0.4478 -0.7179  0.7780
19735TIP3    H180696   3.103   0.170   4.743  0.4194 -1.9708 -0.1030
19735TIP3    H280697   2.954   0.144   4.742  0.0939 -0.1611 -0.0852
19736TIP3   OH280698   5.707   3.258   3.137  0.1462  0.3924 -0.2695
19736TIP3    H180699   5.679   3.345   3.166 -1.8870 -0.7921  1.5446
19736TIP3    H280700   5.713   3.207   3.218  1.4858 -1.1219 -1.2846
19737TIP3   OH280701   0.362   0.805  17.229  0.3191  0.5573 -0.0574
19737TIP3    H180702   0.343   0.719  17.191  2.0530  0.9249 -1.8325
19737TIP3    H280703   0.281   0.829  17.275 -1.2185 -0.7404 -1.9989
19738TIP3   OH280704   5.988   6.348   2.159  0.6628  0.0670 -0.3512
19738TIP3    H180705   5.917   6.394   2.115  0.0572 -1.3582 -0.8747
19738TIP3    H280706   5.968   6.355   2.252  0.2124  0.2794 -0.4637
19739TIP3   OH280707   5.523   4.944   4.270 -0.3332 -0.1937 -0.0170
19739TIP3    H180708   5.559   4.937   4.182  0.7938 -2.2503  0.5611
19739TIP3    H280709   5.435   4.979   4.258 -0.8276 -2.0590 -2.1225
19740TIP3   OH280710   4.501   5.331  13.397  0.1679 -0.8706 -0.0224
19740TIP3    H180711   4.592   5.326  13.368  0.5068 -0.8898  1.0264
19740TIP3    H280712   4.452   5.350  13.318  0.9388 -2.2183 -0.8457
19741TIP3   OH280713   0.884   1.059   1.807 -0.0471 -0.5337 -0.1024
19741TIP3    H180714   0.950   1.065   1.737  0.4655  1.2802  0.5111
19741TIP3    H280715   0.851   1.148   1.816 -2.3706 -1.3756 -0.1705
19742TIP3   OH280716   2.289   5.611   4.040  0.0407  0.0656 -0.1992
19742TIP3    H180717   2.222   5.563   4.089  0.3267 -1.9364 -1.7063
19742TIP3    H280718   2.369   5.601   4.092 -0.4352  1.0036  0.7291
19743TIP3   OH280719   1.802   0.470   3.396 -0.3891  0.2157  0.4480
19743TIP3    H180720   1.782   0.559   3.368 -2.0328  0.2653  1.6851
19743TIP3    H280721   1.807   0.475   3.492 -0.7596 -1.0503  0.5503
19744TIP3   OH280722   1.664   4.633   4.569  0.1160 -0.1702  0.0220
19744TIP3    H180723   1.599   4.626   4.500  0.8062 -0.1279 -0.6408
19744TIP3    H280724   1.710   4.716   4.551 -0.8237  0.6970  1.5182
19745TIP3   OH280725   2.720   5.088  15.191  0.4559 -0.2056 -0.0193
19745TIP3    H180726   2.706   4.996  15.169  0.0591  0.1640 -1.3147
19745TIP3    H280727   2.644   5.112  15.244 -0.1849 -0.2144 -0.9308
19746TIP3   OH280728   2.280   5.661   3.347  0.0294  0.3055 -0.1417
19746TIP3    H180729   2.262   5.575   3.387 -0.2877  0.2719 -0.3515
19746TIP3    H280730   2.330   5.640   3.268  0.2315  0.3388 -0.0244
19747TIP3   OH280731   0.177   6.170  14.788  0.2211 -0.3340 -0.0100
19747TIP3    H180732   0.120   6.175  14.712  0.3839 -1.2191 -0.1899
19747TIP3    H280733   0.183   6.260  14.820 -0.1678 -0.0288 -0.8060
19748TIP3   OH280734   5.455   0.004  17.190 -0.4215  0.1029  0.6067
19748TIP3    H180735   5.539  -0.034  17.216 -0.0590  1.1130  0.9367
19748TIP3    H280736   5.420  -0.058  17.126  1.3457  0.4831 -0.7853
19749TIP3   OH280737   1.364   4.393   4.062 -0.1225 -0.5888 -0.1521
19749TIP3    H180738   1.363   4.469   4.004 -0.7008  0.8749  1.7115
19749TIP3    H280739   1.280   4.396   4.108  0.9033 -0.8577  1.8208
19750TIP3   OH280740   0.445   1.177   0.856  0.4518  0.0139 -0.5505
19750TIP3    H180741   0.539   1.191   0.870  0.2474 -0.0672  0.9981
19750TIP3    H280742   0.405   1.261   0.879  0.1836  0.1812 -1.6258
19751TIP3   OH280743   0.654   2.513  15.727 -0.1979  0.0254 -0.4950
19751TIP3    H180744   0.696   2.530  15.811  1.3401 -1.2219 -0.9787
19751TIP3    H280745   0.574   2.566  15.728  1.3024  2.3058  0.5193
19752TIP3   OH280746   5.430   4.355   3.325 -0.3704  0.6244  0.3985
19752TIP3    H180747   5.412   4.445   3.296 -1.3001  0.8054  1.5156
19752TIP3    H280748   5.348   4.326   3.366  0.3574 -0.2495  1.2557
19753TIP3   OH280749   3.595   2.646  16.677  0.1757 -0.6560  0.4090
19753TIP3    H180750   3.560   2.561  16.704 -2.0286 -0.1007 -0.5634
19753TIP3    H280751   3.642   2.679  16.753 -1.4627 -1.4449  1.7927
19754TIP3   OH280752   5.509   6.472  11.808  0.7108  0.1877 -0.2010
19754TIP3    H180753   5.579   6.441  11.751  2.8268 -0.1452  2.4777
19754TIP3    H280754   5.552   6.488  11.892 -2.3178  0.6200  1.3321
19755TIP3   OH280755   6.105   6.477   2.681 -0.6777  0.4810  0.0134
19755TIP3    H180756   6.055   6.558   2.668 -0.0961  0.9000  0.3422
19755TIP3    H280757   6.060   6.431   2.752 -0.2642  1.1318  0.7068
19756TIP3   OH280758   5.313   6.096   1.780  0.2855 -0.3946  0.4813
19756TIP3    H180759   5.392   6.059   1.819 -0.0783 -0.4497  1.1666
19756TIP3    H280760   5.243   6.072   1.840 -0.0710  0.7301  0.5201
19757TIP3   OH280761   2.774   4.669   0.796  0.0434 -0.4324 -0.2248
19757TIP3    H180762   2.763   4.609   0.870  1.0892 -1.5421 -0.9408
19757TIP3    H280763   2.866   4.660   0.771  0.9429  3.4199  1.2819
19758TIP3   OH280764   2.267   2.976  14.602  0.3974  0.0109 -0.5530
19758TIP3    H180765   2.311   2.896  14.633 -0.2500 -0.5646 -1.1059
19758TIP3    H280766   2.296   2.986  14.512 -1.1165 -0.7507 -1.1386
19759TIP3   OH280767   0.789   1.355   5.664 -0.0183 -0.0926  0.4761
19759TIP3    H180768   0.878   1.322   5.672 -0.0072 -0.9170 -2.5513
19759TIP3    H280769   0.799   1.438   5.617 -0.8737 -0.4792 -0.4043
19760TIP3   OH280770   2.479   4.887  12.479  0.1086  0.0940  0.1261
19760TIP3    H180771   2.404   4.839  12.442 -1.4840  1.9265  0.8994
19760TIP3    H280772   2.523   4.925  12.404  0.7409 -1.6058 -0.4022
19761TIP3   OH280773   3.209   2.499   5.441 -0.2073 -0.0900 -0.1754
19761TIP3    H180774   3.148   2.562   5.478  0.7577  0.2214  0.9293
19761TIP3    H280775   3.291   2.548   5.431 -0.1479 -0.4796 -1.6906
19762TIP3   OH280776   2.873   1.900   0.462 -0.0398 -0.0810 -0.3956
19762TIP3    H180777   2.826   1.913   0.544  0.3764 -0.4492 -0.0945
19762TIP3    H280778   2.805   1.879   0.398 -0.3810  0.3756 -0.1831
19763TIP3   OH280779   0.909   2.474  15.939 -0.2467 -0.2909  0.0360
19763TIP3    H180780   0.993   2.514  15.963  1.2537 -2.9168 -0.6791
19763TIP3    H280781   0.875   2.437  16.020 -0.2137 -0.1666  0.1058
19764TIP3   OH280782   3.448   5.389  16.030 -0.1187 -0.0481 -0.3931
19764TIP3    H180783   3.512   5.331  16.072 -0.7588 -0.5612 -0.1196
19764TIP3    H280784   3.498   5.434  15.962  1.0383  1.1517  1.2186
19765TIP3   OH280785   0.448   4.043  14.619 -0.2992  0.3658 -0.3970
19765TIP3    H180786   0.488   3.961  14.589  0.7180  0.9638 -0.7000
19765TIP3    H280787   0.354   4.029  14.608 -0.1415 -0.8178 -0.3062
19766TIP3   OH280788   1.422   0.721  14.734 -0.0726 -0.1152  0.2955
19766TIP3    H180789   1.357   0.783  14.702 -1.7393 -1.2660  1.3791
19766TIP3    H280790   1.503   0.747  14.691 -1.1393  1.6366 -0.7129
19767TIP3   OH280791   3.759   3.110   2.109 -0.0973  0.0969 -1.3093
19767TIP3    H180792   3.746   3.204   2.120  0.6601 -0.0027  0.5459
19767TIP3    H280793   3.696   3.085   2.041  1.8333  2.4786 -4.1044
19768TIP3   OH280794   1.162   1.433  14.932  0.5882 -0.0095  0.1035
19768TIP3    H180795   1.161   1.454  14.839 -0.3822  1.6809  0.4632
19768TIP3    H280796   1.071   1.447  14.960  0.8363 -0.6710  1.2547
19769TIP3   OH280797   0.129   3.035   2.178  0.6671  0.1727  0.5343
19769TIP3    H180798   0.136   2.941   2.164  2.9786  0.5247 -1.1073
19769TIP3    H280799   0.039   3.057   2.155  0.5634 -1.4107 -0.6652
19770TIP3   OH280800   0.922   0.204   4.850 -0.0248  0.0714 -0.1993
19770TIP3    H180801   0.946   0.220   4.941  3.6680 -0.8723 -0.9093
19770TIP3    H280802   0.942   0.286   4.805  0.4035 -0.2364 -0.5687
19771TIP3   OH280803   0.498   3.227   1.170  0.1349  0.0684 -0.1851
19771TIP3    H180804   0.454   3.146   1.195 -1.4252  0.7060 -0.7585
19771TIP3    H280805   0.431   3.295   1.182  1.2452  1.1969 -0.2414
19772TIP3   OH280806   1.273   3.394  12.564  0.3194  0.3248 -0.1526
19772TIP3    H180807   1.345   3.348  12.521 -0.2199 -0.8107  0.1465
19772TIP3    H280808   1.312   3.434  12.641  0.1043 -2.4899  1.4498
19773TIP3   OH280809   0.151   2.268  16.313 -0.1183 -0.6039 -0.0546
19773TIP3    H180810   0.242   2.256  16.340 -0.1635 -0.8502 -0.0139
19773TIP3    H280811   0.120   2.181  16.290 -0.6342 -0.6685  0.8625
19774TIP3   OH280812   6.570   5.619   4.230 -0.4738 -0.3211 -0.0742
19774TIP3    H180813   6.654   5.578   4.211  0.4449  1.3852  0.2333
19774TIP3    H280814   6.521   5.611   4.148  0.7352  0.4892 -0.8887
19775TIP3   OH280815   4.376   1.152  11.349  0.5176 -0.5103  0.4710
19775TIP3    H180816   4.367   1.175  11.442  2.1360 -0.0977  0.5366
19775TIP3    H280817   4.330   1.223  11.303  1.7392  0.5614  0.8695
19776TIP3   OH280818   4.164   5.391  11.528 -0.3652 -0.2172 -0.0608
19776TIP3    H180819   4.238   5.332  11.512  1.1908  1.1888  1.7433
19776TIP3    H280820   4.192   5.475  11.492 -1.6533 -0.0002 -0.5779
19777TIP3   OH280821   0.424   6.027  12.215  0.3704 -0.3147  0.3153
19777TIP3    H180822   0.436   5.974  12.135 -1.7437 -0.1018 -0.1742
19777TIP3    H280823   0.508   6.022  12.260  1.1172 -1.6992 -1.1836
19778TIP3   OH280824   2.638   5.843   0.339  0.1886  0.5046  0.2387
19778TIP3    H180825   2.654   5.810   0.427 -1.1774  1.5954  0.9122
19778TIP3    H280826   2.725   5.854   0.301  0.7832  0.0768  1.4700
19779TIP3   OH280827   4.671   0.557  17.191 -0.0053  0.0470 -0.1711
19779TIP3    H180828   4.592   0.569  17.243 -0.4310  0.3103 -0.8562
19779TIP3    H280829   4.743   0.583  17.249 -0.2278 -2.2741  1.1703
19780TIP3   OH280830   3.532   5.108  15.564  0.2973 -0.5264  0.5642
19780TIP3    H180831   3.531   5.098  15.659  0.1990  1.2945  0.7674
19780TIP3    H280832   3.571   5.026  15.532  0.6791 -0.9978  2.1801
19781TIP3   OH280833   5.978   1.119  11.521 -0.0991 -0.4046  0.5651
19781TIP3    H180834   5.943   1.153  11.604 -0.1517 -0.2789  0.4897
19781TIP3    H280835   5.906   1.127  11.459  0.2675  0.4447  0.2502
19782TIP3   OH280836   2.989   0.936   2.472 -0.2406 -0.4937 -0.3685
19782TIP3    H180837   2.983   0.911   2.380  1.1081  0.5825 -0.7708
19782TIP3    H280838   2.998   1.031   2.471  2.2229 -0.6686  0.7069
19783TIP3   OH280839   1.946   6.375  11.629  0.1017 -0.2231  0.3511
19783TIP3    H180840   1.867   6.325  11.651  0.5874 -1.4364 -0.6401
19783TIP3    H280841   2.019   6.319  11.658  0.6409  0.2689 -0.0400
19784TIP3   OH280842   6.630   5.994   1.896  0.0359 -0.0040  0.3895
19784TIP3    H180843   6.664   6.082   1.918  1.3480 -0.4085  0.0495
19784TIP3    H280844   6.558   6.011   1.836 -0.6924  0.9147  1.4997
19785TIP3   OH280845   5.549   0.033   0.996 -0.2479  0.1506 -0.0490
19785TIP3    H180846   5.537  -0.045   0.943 -2.2054  0.5387 -0.2289
19785TIP3    H280847   5.630   0.072   0.964  0.6640 -1.7020 -0.0593
19786TIP3   OH280848   1.377   0.866  11.080 -0.2652  0.7093 -0.0835
19786TIP3    H180849   1.308   0.809  11.114 -1.5097  3.1860  1.6203
19786TIP3    H280850   1.342   0.898  10.996  0.9939 -1.9775 -1.7127
19787TIP3   OH280851   0.572   3.052  12.259  0.2018  0.2284 -0.8672
19787TIP3    H180852   0.624   3.078  12.184  0.5102  2.4202  0.0833
19787TIP3    H280853   0.583   3.123  12.322 -2.1579 -0.3257  0.2252
19788TIP3   OH280854   0.803   1.329   1.901  0.1500 -0.5673 -0.0005
19788TIP3    H180855   0.819   1.319   1.994  1.7645 -1.2937 -0.3542
19788TIP3    H280856   0.799   1.424   1.888  3.0159 -0.3527  0.3150
19789TIP3   OH280857   2.061   3.320  13.467 -0.1870 -0.2663  0.7078
19789TIP3    H180858   2.101   3.408  13.469 -3.1413  1.3110 -3.4725
19789TIP3    H280859   2.136   3.260  13.475  2.0529  2.5460  2.1512
19790TIP3   OH280860   1.191   3.233   1.269  0.8580  0.0713  0.2304
19790TIP3    H180861   1.160   3.258   1.182  1.0897 -1.0429 -0.1806
19790TIP3    H280862   1.114   3.238   1.325  0.3392 -0.8131 -0.3891
19791TIP3   OH280863   2.345   6.436  13.219  0.3959 -0.3306  0.0843
19791TIP3    H180864   2.260   6.471  13.247  0.8226 -0.7962  2.0683
19791TIP3    H280865   2.396   6.512  13.193 -0.1675  0.0884  0.2113
19792TIP3   OH280866   5.806   5.787  11.118  0.3845  0.4133 -0.3062
19792TIP3    H180867   5.889   5.801  11.073  0.9727 -1.2355  0.2594
19792TIP3    H280868   5.754   5.735  11.057  0.5735 -0.4212  0.2494
19793TIP3   OH280869   1.660   3.148  13.536 -0.0541  0.2416 -0.5120
19793TIP3    H180870   1.593   3.095  13.492 -1.8951  1.9143  0.1789
19793TIP3    H280871   1.691   3.208  13.468  0.2642 -0.0918 -0.6606
19794TIP3   OH280872   2.994   3.042   5.846 -0.2225 -0.3030 -0.2159
19794TIP3    H180873   3.078   3.026   5.889  0.0566 -0.1030 -0.6868
19794TIP3    H280874   2.998   2.991   5.766 -1.1722 -1.5202  0.5048
19795TIP3   OH280875   3.351   4.526  10.982  0.1437 -0.1397 -0.6637
19795TIP3    H180876   3.324   4.562  10.898 -1.4866  2.7889  0.9909
19795TIP3    H280877   3.270   4.525  11.034  1.3626 -0.5999  1.2533
19796TIP3   OH280878   3.630   0.305   0.361 -0.8440 -0.0761  1.0924
19796TIP3    H180879   3.663   0.254   0.287 -0.8973  0.2502  0.8433
19796TIP3    H280880   3.542   0.270   0.377  0.0207 -1.6925  2.4601
19797TIP3   OH280881   5.226   3.781  16.984 -0.2714 -0.1153 -0.1284
19797TIP3    H180882   5.305   3.773  16.930  0.1297 -2.5926  0.7583
19797TIP3    H280883   5.154   3.759  16.925  0.0200 -1.1022 -0.1323
19798TIP3   OH280884   4.335   2.199   0.852 -1.1318 -1.4519  0.0110
19798TIP3    H180885   4.334   2.155   0.767 -2.1769 -2.1053  0.3483
19798TIP3    H280886   4.304   2.287   0.833 -1.7930 -1.7270 -0.2317
19799TIP3   OH280887   6.678   6.084  12.682 -0.2807 -0.0340  0.1072
19799TIP3    H180888   6.633   6.131  12.612  1.8805  1.8398 -0.0717
19799TIP3    H280889   6.749   6.037  12.639  1.0565  1.1275  1.0019
19800TIP3   OH280890   5.343   5.170   1.572  0.1310  0.0278  0.7591
19800TIP3    H180891   5.356   5.093   1.626  1.4622 -0.6316 -0.4746
19800TIP3    H280892   5.261   5.208   1.603  1.2304  0.0966  3.7349
19801TIP3   OH280893   2.382   4.617   1.533  0.0776 -0.8320 -0.0848
19801TIP3    H180894   2.433   4.689   1.570  1.1720 -1.8526  0.4371
19801TIP3    H280895   2.447   4.562   1.490 -0.7386 -1.5600 -0.4064
19802TIP3   OH280896   3.150   1.591   1.647  0.5276  0.3713  0.0425
19802TIP3    H180897   3.154   1.593   1.743 -0.3578  1.0475  0.0688
19802TIP3    H280898   3.074   1.537   1.627  0.2775  0.8422 -0.2746
19803TIP3   OH280899   1.876   1.950  14.852 -0.4231 -0.0363 -0.3593
19803TIP3    H180900   1.872   1.952  14.757 -1.4515 -0.5732 -0.3340
19803TIP3    H280901   1.864   2.041  14.879  0.8577  0.2638 -0.7654
19804TIP3   OH280902   4.720   5.313   2.944 -0.6964 -0.2524 -0.6526
19804TIP3    H180903   4.667   5.306   2.864 -1.1535 -2.0790 -0.2155
19804TIP3    H280904   4.793   5.370   2.920  1.7622 -4.4896 -3.8290
19805TIP3   OH280905   5.558   4.958  13.071 -0.1463  0.5552 -0.1934
19805TIP3    H180906   5.546   4.996  12.984 -0.8715 -0.5024 -0.5550
19805TIP3    H280907   5.650   4.932  13.074  0.4366  2.5037  0.1397
19806TIP3   OH280908   6.325   0.745   5.105  0.3817  0.1207 -0.2311
19806TIP3    H180909   6.260   0.753   5.035 -0.4241  1.2828  0.6347
19806TIP3    H280910   6.393   0.807   5.082  1.0061 -0.8003 -0.9201
19807TIP3   OH280911   2.268   2.113  14.742  0.0409 -0.0660  0.1316
19807TIP3    H180912   2.316   2.045  14.790 -0.9203 -0.9226 -0.1106
19807TIP3    H280913   2.247   2.178  14.808 -1.3365 -1.2744  0.9104
19808TIP3   OH280914   0.009   3.383  11.897 -0.0437 -0.3784 -0.0591
19808TIP3    H180915   0.062   3.398  11.976 -0.8775 -0.2249  0.4748
19808TIP3    H280916  -0.017   3.291  11.903 -1.6609  0.1253  0.8074
19809TIP3   OH280917   4.383   2.319  16.440 -0.1866 -0.3592  0.3877
19809TIP3    H180918   4.473   2.305  16.413 -1.3327 -1.2639 -3.3781
19809TIP3    H280919   4.383   2.404  16.483  2.6705 -1.0158  1.7947
19810TIP3   OH280920   6.490   4.353   6.423 -0.5332 -0.0118 -0.3595
19810TIP3    H180921   6.514   4.305   6.344  0.5720  0.8136 -0.5335
19810TIP3    H280922   6.417   4.409   6.396  0.8607  1.4293 -1.2155
19811TIP3   OH280923   4.965   5.994   1.032 -0.2228  0.0953  0.2432
19811TIP3    H180924   4.955   6.008   1.127  0.0290 -0.0856  0.2961
19811TIP3    H280925   4.878   5.969   1.003 -0.6741  1.6890  0.1639
19812TIP3   OH280926   2.596   6.157  14.220 -0.4753 -0.5988  0.1783
19812TIP3    H180927   2.587   6.182  14.128  1.3579  0.5367  0.2875
19812TIP3    H280928   2.688   6.136  14.230 -0.1987  1.4192  2.2608
19813TIP3   OH280929   0.802   3.326  12.392 -0.0682 -0.7012  0.3593
19813TIP3    H180930   0.880   3.359  12.437 -0.3799 -0.2897  0.5985
19813TIP3    H280931   0.763   3.265  12.454 -0.9587  0.4942  0.9976
19814TIP3   OH280932   0.204   2.890   0.280 -0.2809  0.0947  0.4089
19814TIP3    H180933   0.245   2.814   0.322 -0.5544 -0.8660 -1.0071
19814TIP3    H280934   0.110   2.874   0.290 -0.3347  0.7511  0.9713
19815TIP3   OH280935   1.142   0.424   2.483 -0.2431  0.2859 -0.1968
19815TIP3    H180936   1.084   0.452   2.412 -0.6031 -1.4902 -0.6296
19815TIP3    H280937   1.229   0.420   2.442 -0.2020  0.7192 -0.1499
19816TIP3   OH280938   4.156   3.340  11.428 -0.1147  0.4984 -0.1242
19816TIP3    H180939   4.071   3.360  11.467  0.3554  1.1112  0.5936
19816TIP3    H280940   4.135   3.280  11.355 -1.0827  0.0370  0.5137
19817TIP3   OH280941   5.283   3.761   3.296  0.3546 -0.0468  0.2596
19817TIP3    H180942   5.350   3.785   3.360  1.2862 -0.4356 -0.5415
19817TIP3    H280943   5.258   3.672   3.320  1.5934 -0.6541 -0.6292
19818TIP3   OH280944   5.594   4.163  14.245 -0.2419 -0.1612  0.4309
19818TIP3    H180945   5.554   4.250  14.243 -0.8063 -0.4125  0.7042
19818TIP3    H280946   5.651   4.165  14.321  0.0443  0.0960  0.2159
19819TIP3   OH280947   1.388   0.089   0.260  0.0098 -0.1581 -0.0749
19819TIP3    H180948   1.419   0.001   0.238  0.6615  0.3209 -1.1297
19819TIP3    H280949   1.467   0.137   0.286 -0.2641  0.2479  0.0247
19820TIP3   OH280950   3.981   3.802  14.949 -0.2221  0.1523  0.1240
19820TIP3    H180951   3.921   3.744  14.903 -0.1934  0.2079  0.0161
19820TIP3    H280952   3.924   3.856  15.004 -0.2834  0.3113 -0.0967
19821TIP3   OH280953   2.449   0.261   2.943 -0.5639 -0.4037  0.1892
19821TIP3    H180954   2.487   0.297   3.023 -0.7155  0.2215 -0.0148
19821TIP3    H280955   2.360   0.298   2.939 -0.9187 -1.2347  0.2581
19822TIP3   OH280956   3.185   6.632  11.627 -0.2907 -0.2600 -0.9330
19822TIP3    H180957   3.170   6.645  11.720 -1.2183  1.1308 -1.2373
19822TIP3    H280958   3.107   6.585  11.596  0.1566 -0.9926 -0.9549
19823TIP3   OH280959   1.557   2.470   1.446 -0.8180 -0.2762 -0.3166
19823TIP3    H180960   1.538   2.454   1.539  0.7857 -1.0964 -0.1223
19823TIP3    H280961   1.495   2.540   1.421 -2.0880 -0.8895  1.0349
19824TIP3   OH280962   2.980   6.089  13.874  0.2843 -0.2944 -0.4421
19824TIP3    H180963   2.951   6.089  13.783 -0.0390 -1.8032 -0.3401
19824TIP3    H280964   3.011   6.000  13.890  1.2034  0.2143  0.6523
19825TIP3   OH280965   3.935   5.702   4.074  0.4324  0.0252 -0.2857
19825TIP3    H180966   3.946   5.610   4.098 -0.8701 -0.0061  0.2087
19825TIP3    H280967   3.893   5.699   3.988 -0.9439  0.1457  0.3673
19826TIP3   OH280968   3.928   6.464  16.199  0.1587 -0.0314 -0.0222
19826TIP3    H180969   3.912   6.388  16.142 -0.0050 -0.9459  1.2223
19826TIP3    H280970   3.909   6.540  16.144 -3.0390 -0.9592 -0.2874
19827TIP3   OH280971   4.357   4.884  13.800  0.3713 -0.1343 -0.1535
19827TIP3    H180972   4.376   4.889  13.706  0.1869  2.2619 -0.1001
19827TIP3    H280973   4.439   4.855  13.839  1.0529  0.8127 -0.8615
19828TIP3   OH280974   4.193   6.751   1.670 -0.5761 -0.0069  0.1405
19828TIP3    H180975   4.198   6.662   1.635 -2.6951  0.2767 -1.0142
19828TIP3    H280976   4.199   6.807   1.592  0.2795  0.8565  0.8153
19829TIP3   OH280977   3.684   5.419   0.239 -0.1372 -0.0396 -0.0777
19829TIP3    H180978   3.669   5.388   0.150 -0.2624  0.5504 -0.2622
19829TIP3    H280979   3.768   5.464   0.234  0.0400 -0.3369  0.1897
19830TIP3   OH280980   3.313   1.054  16.786 -0.4048  0.0377  0.0503
19830TIP3    H180981   3.218   1.041  16.796 -0.4573 -0.8767 -1.4074
19830TIP3    H280982   3.323   1.089  16.697  0.6462 -0.1512  0.0914
19831TIP3   OH280983   5.207   6.672  12.496 -0.3333  0.3561  0.1765
19831TIP3    H180984   5.285   6.666  12.439 -2.0828 -0.3166 -2.2411
19831TIP3    H280985   5.211   6.761  12.532  1.5314  0.3511  0.0395
19832TIP3   OH280986   1.773   2.692  16.997 -0.0338  0.5251 -0.4298
19832TIP3    H180987   1.755   2.763  16.936 -0.6469  0.5415 -0.2330
19832TIP3    H280988   1.866   2.700  17.017  0.0917  0.7346 -1.0870
19833TIP3   OH280989   2.956   3.279  15.056 -0.7273 -0.2353  0.2173
19833TIP3    H180990   3.022   3.249  15.119 -0.8692  0.5328  0.7342
19833TIP3    H280991   2.991   3.361  15.022 -0.4689 -0.8362 -1.0065
19834TIP3   OH280992   2.767   5.640   0.060  0.2389 -0.4277 -0.2673
19834TIP3    H180993   2.805   5.679   0.139 -0.3371 -0.2934 -0.0593
19834TIP3    H280994   2.731   5.556   0.090  0.0393 -0.3861 -0.3961
19835TIP3   OH280995   3.871   5.242  14.451 -0.4337  0.0541  0.0749
19835TIP3    H180996   3.881   5.314  14.388 -0.1661 -0.9155 -0.9953
19835TIP3    H280997   3.908   5.277  14.532  0.8778  0.6804 -0.7659
19836TIP3   OH280998   5.167   1.524  16.453 -0.3828 -0.5247 -0.3224
19836TIP3    H180999   5.211   1.545  16.535  0.9287 -0.6431 -0.9871
19836TIP3    H281000   5.191   1.433  16.434 -0.1167 -0.2844 -1.1871
19837TIP3   OH281001   4.238   1.196   1.368 -0.1879 -0.1529 -0.1996
19837TIP3    H181002   4.157   1.162   1.329 -0.1248 -1.0362  0.4222
19837TIP3    H281003   4.215   1.284   1.398 -0.7171 -0.1203 -0.6791
19838TIP3   OH281004   0.748   1.684   3.186 -0.2016  0.6536  0.4737
19838TIP3    H181005   0.709   1.732   3.112 -0.1981 -0.3836 -0.2190
19838TIP3    H281006   0.835   1.723   3.196  0.3267 -0.0768 -0.9671
19839TIP3   OH281007   1.855   4.387   3.264 -0.5831  0.3825 -0.4533
19839TIP3    H181008   1.849   4.418   3.173 -0.5915  0.9138 -0.2726
19839TIP3    H281009   1.783   4.326   3.273 -1.9852  2.0494 -0.1335
19840TIP3   OH281010   4.127   2.769   0.760 -0.1104  0.2046  0.2488
19840TIP3    H181011   4.073   2.738   0.687 -0.2892  0.2346  0.3680
19840TIP3    H281012   4.205   2.806   0.719  0.2803 -0.7518  0.1216
19841TIP3   OH281013   2.821   0.349   2.398 -0.1148  0.2353 -0.1251
19841TIP3    H181014   2.861   0.436   2.389 -0.5883  0.4409 -0.2633
19841TIP3    H281015   2.727   0.366   2.394 -0.2207 -0.2301  0.3344
19842TIP3   OH281016   5.424   3.235  12.730 -0.2831 -0.3941  0.2105
19842TIP3    H181017   5.479   3.162  12.758 -0.9535 -0.6097  0.9862
19842TIP3    H281018   5.363   3.196  12.666 -0.4538 -0.4509  0.4089
19843TIP3   OH281019   1.283   4.844  17.057 -0.0659  0.5721 -0.7109
19843TIP3    H181020   1.193   4.854  17.089  0.3950  0.6139  0.5921
19843TIP3    H281021   1.283   4.886  16.971 -0.9910  1.6432 -0.1953
19844TIP3   OH281022   3.970   1.543  10.870 -0.0576 -0.6436  0.2734
19844TIP3    H181023   4.033   1.613  10.888 -2.1507  1.3431  0.1024
19844TIP3    H281024   3.910   1.545  10.945 -1.7166 -0.4381 -1.0448
19845TIP3   OH281025   1.318   4.004   3.197  0.0643 -0.5689  0.2638
19845TIP3    H181026   1.340   4.022   3.288 -0.3976 -2.2850  0.7172
19845TIP3    H281027   1.394   3.957   3.163  0.5977  0.7956 -0.4892
19846TIP3   OH281028   0.966   0.341  16.008 -0.6353 -0.1433  0.1954
19846TIP3    H181029   0.928   0.422  15.974 -0.2977  0.2110  0.6535
19846TIP3    H281030   0.898   0.304  16.064 -1.4729 -1.0981 -1.3946
19847TIP3   OH281031   2.049   2.053  11.261  0.6116  0.4380  0.0899
19847TIP3    H181032   2.115   1.999  11.304  0.3684 -0.5484 -0.7658
19847TIP3    H281033   2.089   2.139  11.254  0.8378  0.5020  1.8653
19848TIP3   OH281034   5.833   5.524  15.772 -0.0966 -0.0401 -0.5569
19848TIP3    H181035   5.901   5.502  15.836  0.3407 -1.0371 -1.3522
19848TIP3    H281036   5.856   5.613  15.743  0.2203  0.0613 -0.0117
19849TIP3   OH281037   2.595   1.884   0.020 -0.3197 -0.1560  0.4744
19849TIP3    H181038   2.527   1.932   0.068  0.2901  0.2962  0.8940
19849TIP3    H281039   2.674   1.897   0.072  0.1725 -0.3448 -0.2281
19850TIP3   OH281040   3.781   0.715  12.368  0.1484 -0.3831  0.0358
19850TIP3    H181041   3.747   0.725  12.279 -0.0581 -1.6946 -0.0364
19850TIP3    H281042   3.863   0.668  12.358  0.0525 -0.6662  0.5507
19851TIP3   OH281043   2.798   1.650   0.201 -0.0189 -0.3220  0.3316
19851TIP3    H181044   2.862   1.601   0.148 -0.5342 -0.3360 -0.2868
19851TIP3    H281045   2.717   1.600   0.191  0.0605 -0.7368  1.7443
19852TIP3   OH281046   0.740   6.586   3.980  0.0129  0.1014 -0.0843
19852TIP3    H181047   0.715   6.678   3.973 -1.1211  0.0167  2.2877
19852TIP3    H281048   0.682   6.551   4.047  2.3945 -1.6394  1.1334
19853TIP3   OH281049   0.657   2.987  17.049  0.0068  0.1459  0.3400
19853TIP3    H181050   0.670   2.909  17.102 -0.9164  0.0407  0.4234
19853TIP3    H281051   0.586   3.035  17.092  0.4064  0.9163  0.1630
19854TIP3   OH281052   6.515   6.770  12.717 -0.0097  0.0986 -0.1458
19854TIP3    H181053   6.509   6.675  12.704  0.0682  0.0460  0.2006
19854TIP3    H281054   6.607   6.790  12.701 -0.1649  0.2265 -0.9323
19855TIP3   OH281055   4.898   5.324  13.394 -0.2098 -0.0107 -0.1946
19855TIP3    H181056   4.853   5.360  13.317  1.1268 -1.2038 -1.5601
19855TIP3    H281057   4.971   5.385  13.409  1.0941 -1.2104 -1.5165
19856TIP3   OH281058   3.072   4.606  14.518  0.1080 -0.1838 -0.3522
19856TIP3    H181059   3.072   4.545  14.444 -0.3175 -1.1582  0.4366
19856TIP3    H281060   3.115   4.685  14.485 -0.1117 -0.6018 -1.6416
19857TIP3   OH281061   1.314   1.536  12.352 -0.0465  0.2500 -0.1640
19857TIP3    H181062   1.229   1.558  12.390  0.1285 -0.7559  0.8064
19857TIP3    H281063   1.303   1.449  12.315  0.6393 -0.0007  0.2063
19858TIP3   OH281064   1.445   5.893  13.506 -0.3037 -0.9213 -0.1226
19858TIP3    H181065   1.378   5.949  13.545  1.6435  0.5103  1.2506
19858TIP3    H281066   1.464   5.934  13.421 -0.0171 -0.4086  0.1892
19859TIP3   OH281067   5.811   2.516   2.115  0.4204 -0.1926 -0.7415
19859TIP3    H181068   5.852   2.581   2.173 -0.3044  1.3244 -1.9195
19859TIP3    H281069   5.852   2.530   2.030 -2.2733  1.1393 -1.8781
19860TIP3   OH281070   0.795   1.050  14.158 -0.0615 -0.2741  0.5852
19860TIP3    H181071   0.797   1.066  14.252  0.0964 -1.7322  0.8467
19860TIP3    H281072   0.866   0.987  14.143  0.0749  0.1294 -0.5495
19861TIP3   OH281073   5.963   4.576  12.818  0.4454 -0.1816  0.0358
19861TIP3    H181074   5.893   4.529  12.772 -0.1183  0.4272  0.2697
19861TIP3    H281075   5.979   4.524  12.897  1.4452 -1.2577 -0.8395
19862TIP3   OH281076   5.120   3.397  11.508  0.0107 -0.5968  0.2557
19862TIP3    H181077   5.142   3.408  11.601  0.8437  2.1434 -0.2451
19862TIP3    H281078   5.194   3.436  11.461 -0.9527 -0.9409 -1.5662
19863TIP3   OH281079   4.770   4.004   2.589 -0.2904  0.4842  0.3782
19863TIP3    H181080   4.705   3.949   2.633 -0.9120  0.8383 -0.0895
19863TIP3    H281081   4.833   3.942   2.551 -1.3054  0.0614 -0.6437
19864TIP3   OH281082   5.304   1.134  14.246  0.2935 -0.0853  0.4539
19864TIP3    H181083   5.216   1.095  14.251  0.7824 -1.2033  0.3688
19864TIP3    H281084   5.348   1.084  14.178  0.5728  1.3421 -0.4398
19865TIP3   OH281085   2.571   2.218  16.343  0.4010  0.6664 -0.6593
19865TIP3    H181086   2.596   2.308  16.323  0.9377  0.9650  1.1914
19865TIP3    H281087   2.603   2.167  16.269 -0.0594  2.0203 -1.8042
19866TIP3   OH281088   4.066   0.064   0.896 -0.8192 -0.2783  0.1097
19866TIP3    H181089   4.082  -0.016   0.847 -1.3259 -0.3862  0.1164
19866TIP3    H281090   4.008   0.116   0.839  0.2883  0.5008 -0.3192
19867TIP3   OH281091   3.917   4.964  16.883  0.5081  0.1760 -0.0527
19867TIP3    H181092   3.963   4.915  16.951 -0.5216  1.0329  1.3007
19867TIP3    H281093   3.920   4.907  16.806  2.3173 -0.5037  0.4901
19868TIP3   OH281094   0.053   2.003  12.800 -0.2463  0.4855  0.5373
19868TIP3    H181095   0.138   1.962  12.788  1.6518  4.6301 -0.9176
19868TIP3    H281096   0.055   2.039  12.888 -0.0843  1.4868  0.1278
19869TIP3   OH281097   3.941   1.788   5.060  0.2087  0.5865  0.2267
19869TIP3    H181098   3.955   1.711   5.004 -1.8867 -1.0481  1.8479
19869TIP3    H281099   4.022   1.796   5.111  0.5709 -0.3582 -0.1907
19870TIP3   OH281100   5.482   1.569   4.961  0.5915  1.1021 -0.6247
19870TIP3    H181101   5.456   1.619   4.883  0.3849  0.6930 -0.8220
19870TIP3    H281102   5.434   1.610   5.033  2.5915  2.9681 -0.3424
19871TIP3   OH281103   5.882   3.788   2.000 -0.3796  0.0687 -0.0067
19871TIP3    H181104   5.793   3.822   1.999 -0.2669  0.3635 -0.3155
19871TIP3    H281105   5.936   3.864   2.022 -0.1040  0.1550 -0.9334
19872TIP3   OH281106   0.229   4.267   1.732  0.0166  0.2922 -0.3252
19872TIP3    H181107   0.207   4.237   1.643 -0.0582 -0.1325 -0.1645
19872TIP3    H281108   0.324   4.263   1.735 -0.0436 -1.3034  0.1616
19873TIP3   OH281109   1.394   6.376   5.775  0.4568 -0.9516 -0.1981
19873TIP3    H181110   1.460   6.446   5.775  0.2877 -0.7951  0.5354
19873TIP3    H281111   1.423   6.316   5.843 -0.5448 -0.5166  0.6346
19874TIP3   OH281112   0.705   3.658   4.698 -0.1754 -0.2717  0.4368
19874TIP3    H181113   0.715   3.631   4.789  0.5251 -0.0567  0.4314
19874TIP3    H281114   0.712   3.753   4.700 -1.6488 -0.1552  0.3337
19875TIP3   OH281115   0.051   2.784   2.103 -0.3021  0.2260 -0.1364
19875TIP3    H181116   0.033   2.793   2.010  0.4693  0.1396 -0.2978
19875TIP3    H281117   0.117   2.715   2.108  0.2136  0.7522  0.4152
19876TIP3   OH281118   6.466   4.239   6.697  0.2702 -0.6378 -0.5491
19876TIP3    H181119   6.486   4.287   6.616 -2.1939 -0.3440 -1.0272
19876TIP3    H281120   6.402   4.173   6.670  2.9859 -3.7630  0.2474
19877TIP3   OH281121   3.368   1.615   0.103  0.2365  0.0600  0.1116
19877TIP3    H181122   3.353   1.608   0.197 -0.3430  1.3528  0.1253
19877TIP3    H281123   3.439   1.678   0.095  0.2690 -0.0305 -0.3195
19878TIP3   OH281124   4.507   4.691   2.337 -0.7086  0.3171  0.3466
19878TIP3    H181125   4.533   4.767   2.389  0.3177  0.6534 -0.6467
19878TIP3    H281126   4.542   4.708   2.249 -1.0046 -1.0056 -0.0428
19879TIP3   OH281127   4.602   0.686   1.365 -0.3935  0.0540  0.2964
19879TIP3    H181128   4.617   0.747   1.293 -0.3199 -0.8580 -0.4681
19879TIP3    H281129   4.515   0.708   1.398 -1.0774 -0.5424 -1.0757
19880TIP3   OH281130   5.217   3.327  14.115 -0.3561  0.0081 -0.0696
19880TIP3    H181131   5.228   3.350  14.022 -0.7673  1.5651  0.2540
19880TIP3    H281132   5.144   3.265  14.116 -1.4895  1.3164 -0.6113
19881TIP3   OH281133   0.306   1.950   2.023 -0.2341  0.7588  0.3105
19881TIP3    H181134   0.388   1.905   2.044 -0.3684 -0.3499 -1.4136
19881TIP3    H281135   0.333   2.026   1.970 -0.3733 -0.1941 -1.1568
19882TIP3   OH281136   3.295   0.638   2.851  0.2724 -0.2464  0.4454
19882TIP3    H181137   3.258   0.577   2.787  0.0869 -1.1567  1.4109
19882TIP3    H281138   3.262   0.723   2.824  0.8785 -0.4970 -1.1725
19883TIP3   OH281139   6.759   1.076  14.027  0.0278  0.4196  0.5620
19883TIP3    H181140   6.726   1.164  14.045 -2.5091 -0.2454 -0.5945
19883TIP3    H281141   6.682   1.027  13.998  1.8620 -1.5263 -1.1825
19884TIP3   OH281142   3.081   0.623  16.453 -0.2525  0.5116 -0.4751
19884TIP3    H181143   3.153   0.678  16.484  0.6668 -1.3095  0.6939
19884TIP3    H281144   3.073   0.644  16.360  2.6042 -0.1244 -0.9116
19885TIP3   OH281145   4.273   5.183  12.627 -0.4456  0.2492  0.2385
19885TIP3    H181146   4.265   5.277  12.644  3.1512  0.4038  1.3457
19885TIP3    H281147   4.317   5.178  12.543  0.8667 -0.4380  0.9680
19886TIP3   OH281148   4.294   4.316  13.786 -0.1119  0.2210 -0.0543
19886TIP3    H181149   4.350   4.251  13.829  0.7632  0.3121 -1.0145
19886TIP3    H281150   4.262   4.272  13.707 -0.8496  0.4032  0.1408
19887TIP3   OH281151   1.625   4.556   5.824  0.1535  0.0055 -0.7503
19887TIP3    H181152   1.538   4.587   5.799  0.6140  1.9069 -0.1125
19887TIP3    H281153   1.648   4.491   5.758  0.0891  2.7138 -3.5856
19888TIP3   OH281154   3.055   0.841  13.506 -0.1693  0.5722 -0.1806
19888TIP3    H181155   3.041   0.752  13.472  0.2307 -0.3205  1.9099
19888TIP3    H281156   3.142   0.838  13.546 -0.0607  1.9853 -0.2821
19889TIP3   OH281157   1.241   3.607  16.881  0.3191  0.4654  0.3266
19889TIP3    H181158   1.196   3.525  16.865  1.6758 -0.1292 -0.5123
19889TIP3    H281159   1.300   3.588  16.954  0.4627  0.7647  0.2888
19890TIP3   OH281160   4.167   3.711   2.663 -0.0935  0.1651 -0.1278
19890TIP3    H181161   4.249   3.695   2.710 -0.4376  1.5700  0.9729
19890TIP3    H281162   4.116   3.631   2.675  1.1940 -0.8045 -1.0072
19891TIP3   OH281163   2.878   5.060   5.072  0.8207  0.0575 -0.3861
19891TIP3    H181164   2.829   5.119   5.129  1.4923  1.7737 -1.5388
19891TIP3    H281165   2.939   5.117   5.024  1.8323 -1.6268 -1.1793
19892TIP3   OH281166   3.793   5.342  15.218 -0.3350  0.2689 -0.1734
19892TIP3    H181167   3.872   5.390  15.242  0.7329 -1.6247  0.2724
19892TIP3    H281168   3.759   5.309  15.302 -0.5396 -0.4769 -0.5428
19893TIP3   OH281169   6.522   5.319   4.643 -0.0843  0.4059 -0.2024
19893TIP3    H181170   6.432   5.338   4.616 -0.3199  0.0230  0.3117
19893TIP3    H281171   6.523   5.335   4.737  0.8113  2.0002 -0.4619
19894TIP3   OH281172   3.478   2.498   5.895 -0.4856  0.0280 -0.4759
19894TIP3    H181173   3.448   2.448   5.819 -0.6035 -0.3565 -0.1781
19894TIP3    H281174   3.445   2.449   5.970  0.4271 -0.1067 -0.1549
19895TIP3   OH281175   3.897   4.451   1.396 -0.0083 -0.3166  0.3108
19895TIP3    H181176   3.928   4.394   1.325 -0.2949  0.5774 -0.5377
19895TIP3    H281177   3.968   4.448   1.461 -0.0418 -1.6724  0.2918
19896TIP3   OH281178   5.788   0.508  12.561  0.4647 -0.0457  0.0586
19896TIP3    H181179   5.794   0.604  12.557  1.4770 -0.0858  0.5306
19896TIP3    H281180   5.815   0.486  12.650  1.4128 -0.8497 -0.4169
19897TIP3   OH281181   1.537   0.161   2.050 -0.7997  0.2001 -0.3904
19897TIP3    H181182   1.524   0.255   2.044 -3.0733 -0.0143  0.3928
19897TIP3    H281183   1.449   0.124   2.036  0.1311 -1.8102 -1.1132
19898TIP3   OH281184   6.239   2.952   0.386  0.2439 -0.1710  0.3454
19898TIP3    H181185   6.185   2.989   0.316 -1.6142 -0.4311  1.6080
19898TIP3    H281186   6.178   2.898   0.437  0.9008  2.1266  3.7428
19899TIP3   OH281187   2.201   5.504  15.324 -0.5040  0.5308 -0.2532
19899TIP3    H181188   2.268   5.521  15.258 -0.5103 -0.5608 -0.5517
19899TIP3    H281189   2.144   5.438  15.284 -0.3344 -0.3759  0.9468
19900TIP3   OH281190   4.735   0.387  12.059 -0.2562 -0.2506  0.3172
19900TIP3    H181191   4.781   0.307  12.084 -0.7134  0.3028  3.0919
19900TIP3    H281192   4.803   0.455  12.060 -0.2015 -0.2888 -0.3873
19901TIP3   OH281193   4.539   1.757   4.011 -0.1314  0.1399 -0.2462
19901TIP3    H181194   4.554   1.758   4.106 -0.2219 -0.1264 -0.2286
19901TIP3    H281195   4.461   1.812   3.999  0.9499  1.6922 -0.3589
19902TIP3   OH281196   1.852   3.761   2.633  0.1349  0.5088 -0.6573
19902TIP3    H181197   1.888   3.735   2.548  0.2629 -0.2394 -0.3838
19902TIP3    H281198   1.892   3.845   2.652  0.1094  0.6778 -1.3393
19903TIP3   OH281199   6.363   3.688  11.517  0.1541  0.1504 -0.0382
19903TIP3    H181200   6.455   3.661  11.522 -0.0207 -1.0318 -2.5255
19903TIP3    H281201   6.321   3.642  11.591  1.4754  0.4368  0.9108
19904TIP3   OH281202   5.241   4.562   4.234  0.4304 -0.3193 -0.2460
19904TIP3    H181203   5.214   4.470   4.238  1.3618 -0.5620  0.6923
19904TIP3    H281204   5.284   4.578   4.318  0.9444  0.7622 -0.7058
19905TIP3   OH281205   3.965   2.356   1.684  0.7373 -0.3851  0.5576
19905TIP3    H181206   4.052   2.387   1.708  0.4623 -0.6020  1.8791
19905TIP3    H281207   3.916   2.356   1.766 -0.5708 -0.0716 -0.2120
19906TIP3   OH281208   3.124   4.819   5.142 -0.4465 -0.0559  0.3940
19906TIP3    H181209   3.219   4.817   5.156 -0.1797 -0.4030 -1.2930
19906TIP3    H281210   3.107   4.905   5.104 -0.6485 -0.4084 -0.3167
19907TIP3   OH281211   4.084   2.549  13.111  0.0354  0.1784 -0.4252
19907TIP3    H181212   4.150   2.619  13.106  0.0550  0.0486 -2.9912
19907TIP3    H281213   4.007   2.586  13.067 -0.1235 -1.2391 -1.3645
19908TIP3   OH281214   3.639   0.365  15.455 -0.4162 -0.2434 -0.4566
19908TIP3    H181215   3.640   0.448  15.503 -0.7789  0.2837 -1.3461
19908TIP3    H281216   3.716   0.317  15.487 -0.3438  0.3318  0.2359
19909TIP3   OH281217   5.695   1.997   1.836  0.1948 -0.4370  0.4481
19909TIP3    H181218   5.695   2.007   1.741 -1.1433 -2.6510  0.1791
19909TIP3    H281219   5.749   1.920   1.852 -0.0647 -0.4185  1.4429
19910TIP3   OH281220   5.574   1.116   0.134 -0.5367  0.3047  0.0434
19910TIP3    H181221   5.483   1.093   0.113 -0.1338 -1.0614 -0.2765
19910TIP3    H281222   5.582   1.102   0.228  0.0681 -2.2404 -0.3576
19911TIP3   OH281223   0.240   1.404  11.899  0.0447  0.0919  0.4302
19911TIP3    H181224   0.180   1.451  11.842  0.0501  0.5124  0.7698
19911TIP3    H281225   0.267   1.328  11.848 -0.0330  0.4089 -0.0852
19912TIP3   OH281226   5.572   6.315  13.153 -0.1757 -0.2093  0.0027
19912TIP3    H181227   5.645   6.375  13.167 -1.6011  1.3497  0.9219
19912TIP3    H281228   5.606   6.230  13.181  0.2990  1.0441  3.4783
19913TIP3   OH281229   2.144   5.615  12.614  0.2790  0.5021  0.8738
19913TIP3    H181230   2.226   5.620  12.663  0.3853 -0.6849  0.8140
19913TIP3    H281231   2.157   5.544  12.551 -0.4394  0.9554  0.1940
19914TIP3   OH281232   5.682   3.047  14.669  0.1039  0.4359  0.1777
19914TIP3    H181233   5.743   3.090  14.730  1.0620 -0.8803  0.1644
19914TIP3    H281234   5.732   3.037  14.588 -1.2305  2.3653 -0.9311
19915TIP3   OH281235   2.243   0.788  15.124  0.0018  0.1060  0.3446
19915TIP3    H181236   2.282   0.787  15.211  1.1967  1.7013 -0.1320
19915TIP3    H281237   2.263   0.702  15.087  0.5318 -0.1471  1.2004
19916TIP3   OH281238   6.749   3.343  15.476 -0.5429  0.0812  0.4422
19916TIP3    H181239   6.755   3.323  15.383 -1.1592 -1.3210  0.6984
19916TIP3    H281240   6.669   3.393  15.485  0.8328  2.4666 -0.1496
19917TIP3   OH281241   0.401   1.122  13.588  0.1597 -0.3250  0.0867
19917TIP3    H181242   0.316   1.114  13.544 -0.5584  0.5716  1.2763
19917TIP3    H281243   0.418   1.035  13.622 -0.4785 -0.4148  0.1838
19918TIP3   OH281244   1.877   3.914  13.665 -0.1091  0.1040 -0.7730
19918TIP3    H181245   1.943   3.956  13.720 -0.3541  0.2601 -0.5954
19918TIP3    H281246   1.850   3.982  13.604 -2.2775  0.9778  1.0795
19919TIP3   OH281247   4.666   0.384   1.601 -1.0844 -0.0503 -0.0592
19919TIP3    H181248   4.705   0.297   1.607 -1.5892 -0.3074 -0.4763
19919TIP3    H281249   4.701   0.421   1.520  0.7621  0.9561  1.1538
19920TIP3   OH281250   4.572   5.441  11.665 -0.6106 -0.1878 -0.1379
19920TIP3    H181251   4.667   5.455  11.665 -0.5620  0.0807 -3.9861
19920TIP3    H281252   4.559   5.364  11.720  1.8264 -0.1855  0.5141
19921TIP3   OH281253   4.141   4.166  14.030  0.2503  0.4070  0.5738
19921TIP3    H181254   4.207   4.220  13.988 -0.3732  0.8869  0.2004
19921TIP3    H281255   4.169   4.075  14.013 -0.4740  0.5690 -1.6589
19922TIP3   OH281256   0.860   3.537   2.603 -0.0604  0.4277 -0.3730
19922TIP3    H181257   0.799   3.606   2.575  1.1094  2.1610  1.1939
19922TIP3    H281258   0.947   3.574   2.589  0.6260 -1.3453 -0.9438
19923TIP3   OH281259   1.678   2.034  15.285  0.0703 -0.1899 -0.3035
19923TIP3    H181260   1.693   2.032  15.190  1.3144  1.2618 -0.1630
19923TIP3    H281261   1.603   2.092  15.296  0.5880  0.5035 -0.3489
19924TIP3   OH281262   4.280   0.598  14.552 -0.1624  0.3137  0.3836
19924TIP3    H181263   4.230   0.571  14.475  0.5535  0.8161 -0.2773
19924TIP3    H281264   4.296   0.692  14.538  0.7061  0.2238  0.7184
19925TIP3   OH281265   3.393   4.760  16.724  0.6230  0.2576 -0.2003
19925TIP3    H181266   3.471   4.773  16.777  2.4617 -2.0116 -2.2220
19925TIP3    H281267   3.422   4.704  16.652 -3.0195 -1.1687 -0.6656
19926TIP3   OH281268   4.553   4.575   4.855 -0.2010  0.2487 -0.2327
19926TIP3    H181269   4.593   4.533   4.779  0.1488 -1.5452  0.9216
19926TIP3    H281270   4.550   4.507   4.921 -0.0246  1.9308  1.5521
19927TIP3   OH281271   2.890   6.278   4.664  0.6815 -0.3241 -0.6831
19927TIP3    H181272   2.813   6.326   4.696 -0.0160 -0.7535 -1.7180
19927TIP3    H281273   2.935   6.251   4.744  0.0831  0.4474 -0.0690
19928TIP3   OH281274   1.996   6.604  15.666 -0.2844 -0.5137 -0.2529
19928TIP3    H181275   2.084   6.590  15.701 -1.3416 -0.7768  2.3752
19928TIP3    H281276   1.989   6.543  15.593  2.1553  0.4294 -1.3257
19929TIP3   OH281277   0.374   4.482  14.396  0.0742 -0.0583  0.2813
19929TIP3    H181278   0.287   4.442  14.383 -0.3793  1.0958 -0.2904
19929TIP3    H281279   0.426   4.449  14.323 -0.1514 -0.0150  0.0972
19930TIP3   OH281280   0.090   0.881  16.796  0.2354 -0.8180 -0.6771
19930TIP3    H181281   0.058   0.792  16.808  0.9532 -0.8094  1.4302
19930TIP3    H281282   0.175   0.883  16.838 -0.1503  1.0899  0.1063
19931TIP3   OH281283   0.664   0.514  14.793  0.0342 -0.2016  0.0462
19931TIP3    H181284   0.744   0.507  14.845 -1.5796  1.8331  2.8999
19931TIP3    H281285   0.694   0.552  14.710  2.3446 -1.6257  0.1694
19932TIP3   OH281286   2.551   0.560  15.495 -0.0380 -0.5110  0.1565
19932TIP3    H181287   2.568   0.542  15.588 -0.7488 -0.8194  0.2318
19932TIP3    H281288   2.562   0.655  15.487  3.1280 -0.8424 -0.1247
19933TIP3   OH281289   1.786   1.513  14.218 -0.2262 -0.0192  0.2056
19933TIP3    H181290   1.820   1.536  14.305 -1.0442 -2.0351  1.0769
19933TIP3    H281291   1.855   1.459  14.179  0.7658  2.0328 -1.0104
19934TIP3   OH281292   3.497   6.349  16.315  0.2336 -0.3408  0.2850
19934TIP3    H181293   3.508   6.334  16.221 -2.1099 -0.2286 -0.0295
19934TIP3    H281294   3.506   6.444  16.325  0.4664 -0.3506  0.1732
19935TIP3   OH281295   3.682   0.588  11.914  0.4830  0.0429  0.0569
19935TIP3    H181296   3.697   0.514  11.974  0.5676  0.7195  0.8763
19935TIP3    H281297   3.767   0.629  11.905  0.0238  1.3320  1.3357
19936TIP3   OH281298   4.663   5.603   1.561  0.7048 -0.2723  0.4524
19936TIP3    H181299   4.616   5.526   1.591  2.1645 -1.2749  0.2308
19936TIP3    H281300   4.751   5.570   1.539  1.2313  1.3797  0.0284
19937TIP3   OH281301   3.603   4.701   3.337 -0.1541 -0.2705  0.4229
19937TIP3    H181302   3.598   4.796   3.346 -1.0980 -0.3525  0.8170
19937TIP3    H281303   3.689   4.685   3.297 -0.8613  0.8600 -1.6087
19938TIP3   OH281304   3.679   1.629   4.639  0.4627 -0.2872  0.0097
19938TIP3    H181305   3.658   1.539   4.612 -2.2943  0.4232 -0.3558
19938TIP3    H281306   3.646   1.635   4.729  0.7229  0.3211  0.0649
19939TIP3   OH281307   1.463   4.256  13.893  0.3306  0.0815 -0.0014
19939TIP3    H181308   1.430   4.291  13.810 -0.0695  1.1008  0.5832
19939TIP3    H281309   1.466   4.331  13.951 -0.7013 -0.8895  1.3323
19940TIP3   OH281310   3.657   0.097  12.309  0.3535  0.0983  0.4787
19940TIP3    H181311   3.685   0.078  12.220 -0.0222 -1.6741  0.7282
19940TIP3    H281312   3.631   0.012  12.346  0.8488  0.7422  2.3959
19941TIP3   OH281313   1.697   1.630   3.417 -0.1296  0.6459 -0.1976
19941TIP3    H181314   1.710   1.636   3.322 -0.5186  0.8152 -0.2420
19941TIP3    H281315   1.711   1.538   3.438  1.5510  0.8934 -0.1810
19942TIP3   OH281316   2.849   4.356   1.939  0.1021  0.2273  0.0127
19942TIP3    H181317   2.820   4.265   1.940 -1.4704  0.7081  0.4817
19942TIP3    H281318   2.912   4.361   1.867 -0.6579 -0.9828 -0.7571
19943TIP3   OH281319   1.056   6.299   1.651  0.1103  0.2706  0.5143
19943TIP3    H181320   0.972   6.346   1.653  0.4480  0.9121 -0.3089
19943TIP3    H281321   1.121   6.365   1.630  0.8077 -0.2762  0.9004
19944TIP3   OH281322   0.529   4.607   5.712 -0.3777  0.0250  0.3370
19944TIP3    H181323   0.452   4.624   5.658  0.2001 -1.4019 -0.9451
19944TIP3    H281324   0.552   4.693   5.748 -1.9799  0.6306 -0.0354
19945TIP3   OH281325   1.421   4.164  11.468 -0.4442 -0.3163  0.3709
19945TIP3    H181326   1.467   4.107  11.406 -0.7753  0.8354 -0.9657
19945TIP3    H281327   1.356   4.107  11.509 -0.6758 -0.9409 -0.8406
19946TIP3   OH281328   6.746   6.599   2.489  0.1656  0.4444 -0.3041
19946TIP3    H181329   6.689   6.601   2.565  0.3611 -3.9131  0.0908
19946TIP3    H281330   6.822   6.652   2.514 -1.4087  2.0838  1.0913
19947TIP3   OH281331   4.433   5.283   3.737  0.0340  0.1651 -0.1901
19947TIP3    H181332   4.502   5.321   3.683  1.5041 -0.7867  0.9965
19947TIP3    H281333   4.478   5.244   3.811 -1.9182  0.8049  1.3698
19948TIP3   OH281334   3.091   2.883  12.891  0.4430 -0.4089  0.0271
19948TIP3    H181335   3.151   2.864  12.820 -0.7796 -1.5534 -0.7225
19948TIP3    H281336   3.019   2.820  12.880 -0.4195  0.2815  1.4680
19949TIP3   OH281337   2.746   6.392   6.458  0.2023 -0.1075 -0.1644
19949TIP3    H181338   2.706   6.476   6.480 -1.8703 -1.5591  1.8528
19949TIP3    H281339   2.838   6.412   6.440 -0.7933  2.9284 -2.2300
19950TIP3   OH281340   4.585   0.161   0.653  0.2038  0.3659  0.8957
19950TIP3    H181341   4.597   0.090   0.717  1.6273  0.4607  0.7535
19950TIP3    H281342   4.509   0.210   0.685 -0.5350 -0.9725  1.2276
19951TIP3   OH281343   3.742   2.314  15.352 -0.3327  0.0719  0.0847
19951TIP3    H181344   3.692   2.340  15.430  0.2729 -0.3089  0.6018
19951TIP3    H281345   3.676   2.304  15.284 -1.1530 -1.9821  1.1604
19952TIP3   OH281346   4.888   0.706   0.819  0.5356 -0.5853  0.4054
19952TIP3    H181347   4.820   0.768   0.793  0.6565 -1.5593 -2.3583
19952TIP3    H281348   4.967   0.760   0.828  0.0085  0.1075  0.9094
19953TIP3   OH281349   4.099   4.138   3.176 -0.0562 -0.3837  0.0093
19953TIP3    H181350   4.067   4.218   3.218  0.7461  2.4366 -4.3607
19953TIP3    H281351   4.195   4.146   3.180  0.0222 -0.9875 -0.6886
19954TIP3   OH281352   1.443   4.178   5.919  0.1261  0.4496  0.3844
19954TIP3    H181353   1.361   4.129   5.925 -0.2045  1.0197  0.6163
19954TIP3    H281354   1.427   4.256   5.972  1.1056  0.1649  1.1127
19955TIP3   OH281355   1.575   4.883  11.573  0.2487 -0.1662  0.1017
19955TIP3    H181356   1.579   4.978  11.561  1.0104 -0.1032  0.7620
19955TIP3    H281357   1.535   4.872  11.659  0.4511 -0.4318  0.1633
19956TIP3   OH281358   2.738   1.188   3.706 -0.3302 -0.1926 -0.2240
19956TIP3    H181359   2.698   1.108   3.673 -0.8466 -0.4906  1.0968
19956TIP3    H281360   2.832   1.170   3.705 -0.3476 -0.2533 -1.3596
19957TIP3   OH281361   0.878   5.747  12.343  0.4586  0.1098 -0.4223
19957TIP3    H181362   0.886   5.800  12.422 -0.4925 -0.0775 -0.1920
19957TIP3    H281363   0.784   5.725  12.338  0.4531  0.3961 -1.7690
19958TIP3   OH281364   4.968   2.005  13.457  0.0505 -0.3861  0.2893
19958TIP3    H181365   5.007   1.982  13.541  1.9094 -0.4128 -0.5582
19958TIP3    H281366   5.028   2.070  13.420 -1.5093  0.7065 -0.3774
19959TIP3   OH281367   1.294   1.534   4.274 -0.4381  0.1144  0.1212
19959TIP3    H181368   1.221   1.596   4.272 -0.2708  0.3348  0.7913
19959TIP3    H281369   1.372   1.588   4.261 -0.5837 -0.4629 -3.5902
19960TIP3   OH281370   4.215   0.617   0.258  0.0878  0.0533 -0.6030
19960TIP3    H181371   4.184   0.703   0.285 -0.2021  0.1993 -1.3932
19960TIP3    H281372   4.150   0.586   0.195 -0.6563 -1.4262  0.8441
19961TIP3   OH281373   2.877   1.016  13.994  0.1934 -0.4436 -0.1893
19961TIP3    H181374   2.848   0.939  14.042 -1.1846 -1.3978 -2.4723
19961TIP3    H281375   2.808   1.081  14.007  0.5027 -0.2001  0.2653
19962TIP3   OH281376   6.734   5.097   0.810  0.3455  0.3424  0.1896
19962TIP3    H181377   6.750   5.181   0.769  0.5338  0.0321 -0.3846
19962TIP3    H281378   6.712   5.039   0.737 -0.6175  0.0989  0.6627
19963TIP3   OH281379   2.942   1.750  10.613  0.4278  0.7857  0.0122
19963TIP3    H181380   2.848   1.738  10.596  0.5522  0.8943 -0.7439
19963TIP3    H281381   2.951   1.843  10.633  0.2044  0.5640  1.1977
19964TIP3   OH281382   2.079   0.162  15.282 -0.1407 -0.3046 -0.5347
19964TIP3    H181383   1.997   0.126  15.316 -0.1602  0.4818  0.2620
19964TIP3    H281384   2.120   0.089  15.236 -1.6396 -0.5145 -1.5864
19965TIP3   OH281385   5.245   2.402  11.393  0.6664 -0.6404 -0.2265
19965TIP3    H181386   5.187   2.478  11.405  0.3582 -0.9062 -0.0214
19965TIP3    H281387   5.333   2.439  11.387  0.7377 -0.4313  1.8813
19966TIP3   OH281388   4.014   4.834   2.946 -0.3328  0.2551  0.3019
19966TIP3    H181389   4.107   4.827   2.968 -0.3353 -2.4536 -0.3173
19966TIP3    H281390   3.969   4.787   3.016 -1.0343 -0.4601 -0.6192
19967TIP3   OH281391   2.668   1.786   2.343 -0.0083 -0.5071 -0.0042
19967TIP3    H181392   2.740   1.849   2.350  0.1813 -0.6167 -0.8621
19967TIP3    H281393   2.710   1.705   2.312 -0.5189 -0.5253 -0.6628
19968TIP3   OH281394   5.777   6.133   4.514 -0.1108  0.7466  0.0031
19968TIP3    H181395   5.685   6.113   4.496  0.1488  0.8632 -1.4865
19968TIP3    H281396   5.823   6.050   4.499  0.2095  1.0362 -0.6571
19969TIP3   OH281397   4.393   6.592   5.016 -0.2015  0.0298  0.2025
19969TIP3    H181398   4.437   6.508   5.031 -1.3666 -0.6652 -0.2116
19969TIP3    H281399   4.461   6.658   5.030  1.2931 -1.0776 -1.6778
19970TIP3   OH281400   4.405   2.328   2.561 -0.2969 -0.3315  0.1465
19970TIP3    H181401   4.392   2.265   2.631 -1.2816 -1.2680 -0.8482
19970TIP3    H281402   4.317   2.354   2.535  0.0929  1.2815  0.3715
19971TIP3   OH281403   4.953   2.692   2.518 -0.3032 -0.2780 -0.3738
19971TIP3    H181404   4.963   2.692   2.613  0.3008  1.2095 -0.4286
19971TIP3    H281405   4.946   2.599   2.495 -1.9344 -0.6025  1.2617
19972TIP3   OH281406   1.089   1.116  11.838  0.0119 -0.4332  0.1792
19972TIP3    H181407   1.152   1.133  11.767  0.3979  2.5639  1.1419
19972TIP3    H281408   1.014   1.172  11.816 -0.6686 -0.9775  1.1227
19973TIP3   OH281409   2.178   2.193  12.069 -0.4967  0.0049 -0.0515
19973TIP3    H181410   2.128   2.253  12.014 -0.1291  0.4296  0.0673
19973TIP3    H281411   2.152   2.215  12.159  0.6948  0.9815  0.0770
19974TIP3   OH281412   5.068   5.703  16.978 -0.3845 -0.3885 -0.0574
19974TIP3    H181413   5.058   5.671  16.889 -0.0637  0.0452 -0.2515
19974TIP3    H281414   5.139   5.767  16.973 -0.1521 -0.5961  0.5633
19975TIP3   OH281415   1.470   2.600   3.963  0.0220  0.4476 -0.4384
19975TIP3    H181416   1.416   2.617   3.885 -0.0262  0.4058 -0.4145
19975TIP3    H281417   1.560   2.614   3.933 -0.0771  1.7743 -0.1404
19976TIP3   OH281418   5.185   4.225   0.463 -0.5687  0.5732  0.0398
19976TIP3    H181419   5.143   4.152   0.509 -1.1567  1.1566  0.4287
19976TIP3    H281420   5.274   4.194   0.446 -0.9313 -0.3862 -0.1351
19977TIP3   OH281421   2.635   2.691  13.364 -0.6959  0.1746 -0.3639
19977TIP3    H181422   2.577   2.667  13.292  0.0113 -2.7558 -0.0187
19977TIP3    H281423   2.688   2.612  13.380  1.5237  1.9011  1.0938
19978TIP3   OH281424   5.244   3.443   2.036  0.5506 -0.1489  0.2328
19978TIP3    H181425   5.167   3.402   2.076  1.2431  0.1459  1.9051
19978TIP3    H281426   5.264   3.387   1.961 -0.8130 -0.6810  0.2497
19979TIP3   OH281427   3.603   0.475  16.298 -0.0434 -0.1005 -0.3682
19979TIP3    H181428   3.620   0.569  16.302  0.0150 -0.1969  2.8186
19979TIP3    H281429   3.508   0.468  16.289 -0.2330  0.2917  1.1268
19980TIP3   OH281430   3.619   6.677   3.871  0.2618 -0.6070 -0.4861
19980TIP3    H181431   3.667   6.595   3.883 -0.8855 -1.0133  1.5944
19980TIP3    H281432   3.544   6.653   3.818  0.4687 -0.7029 -0.7352
19981TIP3   OH281433   4.798   5.158  13.564  0.1337 -0.1437 -0.0454
19981TIP3    H181434   4.828   5.225  13.503  1.0529 -0.3759  0.1532
19981TIP3    H281435   4.769   5.086  13.509  2.0259 -0.8127 -0.1981
19982TIP3   OH281436   2.492   4.356   6.290 -0.6321 -0.5022 -0.5082
19982TIP3    H181437   2.573   4.321   6.255  0.6113  1.5636  0.2150
19982TIP3    H281438   2.477   4.308   6.371 -1.4403 -2.5475 -1.8168
19983TIP3   OH281439   2.131   3.444   2.002  0.1106  0.1313 -0.2021
19983TIP3    H181440   2.168   3.514   2.056  0.3385  0.0489 -0.2483
19983TIP3    H281441   2.159   3.363   2.044 -0.0606  0.0671 -0.2102
19984TIP3   OH281442   0.358   2.586  13.233 -0.7365  0.6177 -0.3279
19984TIP3    H181443   0.382   2.568  13.324 -0.2055  1.3013 -0.3278
19984TIP3    H281444   0.274   2.630  13.238 -1.2959 -0.4386 -0.2437
19985TIP3   OH281445   0.280   2.946  13.321  0.5219 -0.2408 -0.1875
19985TIP3    H181446   0.219   2.915  13.254  0.2858 -2.4212  0.9764
19985TIP3    H281447   0.285   2.873  13.383  3.8015  0.1650  0.0848
19986TIP3   OH281448   2.240   0.072  13.434 -0.2181  0.0493  0.2635
19986TIP3    H181449   2.261   0.088  13.343  2.3052 -0.0890  0.7753
19986TIP3    H281450   2.223   0.158  13.471  0.8310  0.3203  0.1291
19987TIP3   OH281451   1.163   3.887  16.806 -0.1700 -0.0570 -0.0990
19987TIP3    H181452   1.193   3.803  16.842  0.5934 -0.4261 -1.5684
19987TIP3    H281453   1.079   3.903  16.850  1.2148  0.0406  2.6540
19988TIP3   OH281454   2.909   3.513  12.386 -0.3667  0.3870 -0.6520
19988TIP3    H181455   2.953   3.472  12.460  0.3042  0.2585 -1.1125
19988TIP3    H281456   2.816   3.512  12.409 -0.3307 -1.1241 -0.5388
19989TIP3   OH281457   1.138   2.219   6.413 -0.1026  0.0311  0.6837
19989TIP3    H181458   1.051   2.200   6.378  0.5497 -0.5618 -0.6826
19989TIP3    H281459   1.147   2.161   6.489 -0.4023 -0.8822  0.0339
19990TIP3   OH281460   5.845   3.554  15.785  0.2275 -0.1465  0.5693
19990TIP3    H181461   5.905   3.496  15.740 -0.1403 -0.3601  0.3493
19990TIP3    H281462   5.901   3.616  15.832  0.6085  0.0587 -0.1572
19991TIP3   OH281463   5.593   5.055   3.666  1.0328  0.1526 -0.2591
19991TIP3    H181464   5.659   5.030   3.730  1.2524  2.0363  0.2816
19991TIP3    H281465   5.644   5.080   3.588  0.9030  0.3141 -0.2934
19992TIP3   OH281466   5.339   5.474  14.571 -0.2730 -0.1108  0.1920
19992TIP3    H181467   5.245   5.465  14.587 -0.3137  1.1935  0.6878
19992TIP3    H281468   5.352   5.566  14.549  0.9914 -0.1133  0.8531
19993TIP3   OH281469   5.182   5.561   3.350 -0.1462  0.6929  0.1077
19993TIP3    H181470   5.256   5.613   3.317  0.3885 -1.2088 -1.8489
19993TIP3    H281471   5.223   5.483   3.386 -1.1180  0.2073  0.1687
19994TIP3   OH281472   5.279   0.264   1.007 -0.3074  0.0992 -0.1592
19994TIP3    H181473   5.295   0.329   1.075  0.1787  0.9361 -1.0654
19994TIP3    H281474   5.363   0.218   0.998 -0.1359  0.5248 -0.7499
19995TIP3   OH281475   2.339   1.228   3.586 -0.1772 -0.3192  0.0157
19995TIP3    H181476   2.408   1.217   3.521  0.8780  0.5521  0.9738
19995TIP3    H281477   2.358   1.312   3.628 -0.6520 -0.9970  1.6462
19996TIP3   OH281478   3.850   1.122   5.471  0.4034 -0.4766  0.3179
19996TIP3    H181479   3.879   1.076   5.549  1.0584 -0.8561 -0.1541
19996TIP3    H281480   3.754   1.119   5.476  0.4439 -1.3199  0.6180
19997TIP3   OH281481   3.216   2.860  15.364 -0.6191  0.3053  0.0784
19997TIP3    H181482   3.147   2.811  15.409 -1.4490  0.2490 -1.2335
19997TIP3    H281483   3.243   2.803  15.292  1.3199  0.0182  1.0109
19998TIP3   OH281484   2.593   4.466   1.391  0.3585 -0.4505  0.1588
19998TIP3    H181485   2.636   4.551   1.378  0.7724 -0.7105 -0.1623
19998TIP3    H281486   2.659   4.411   1.433  0.3245 -0.8330 -0.2858
19999TIP3   OH281487   3.752   6.738  14.469  0.5811 -0.4638 -0.1160
19999TIP3    H181488   3.721   6.823  14.501  0.6778 -0.8341  0.9817
19999TIP3    H281489   3.847   6.741  14.479  0.5025 -1.0700  0.8613
20000TIP3   OH281490   4.792   0.215   1.019  0.1813 -0.1549  0.6503
20000TIP3    H181491   4.884   0.188   1.015  0.2235  0.0225  0.4033
20000TIP3    H281492   4.786   0.288   0.957 -0.7356 -1.9420 -1.4423
20001TIP3   OH281493   2.980   4.740  14.736  0.5929  0.1351 -0.2495
20001TIP3    H181494   3.021   4.701  14.813 -1.0814 -0.0613  0.5616
20001TIP3    H281495   3.013   4.688  14.662  2.2128  0.3320  0.3121
20002TIP3   OH281496   5.918   1.885  15.717  0.0059  0.2940 -0.4733
20002TIP3    H181497   5.835   1.929  15.698  0.6459  1.3812 -0.7659
20002TIP3    H281498   5.952   1.860  15.632  0.1681  0.1831 -0.3768
20003TIP3   OH281499   4.616   2.465  15.409 -0.3656  0.4543  0.0913
20003TIP3    H181500   4.698   2.511  15.428  0.7900 -1.2451 -0.5947
20003TIP3    H281501   4.619   2.447  15.315 -0.7465 -1.0584  0.3526
20004TIP3   OH281502   1.450   6.032   1.889 -0.6476  0.3466 -0.3656
20004TIP3    H181503   1.392   6.050   1.815 -1.0571 -0.6350 -0.3003
20004TIP3    H281504   1.391   6.005   1.960 -0.1170 -0.8323 -0.3555
20005TIP3   OH281505   5.035   3.282  16.470  0.1643  0.5999 -0.2148
20005TIP3    H181506   5.112   3.338  16.477 -1.1883  2.5254 -0.2852
20005TIP3    H281507   5.015   3.256  16.560  0.7488  0.2927 -0.1712
20006TIP3   OH281508   4.483   5.504   1.385 -0.1856  0.3792 -0.0943
20006TIP3    H181509   4.413   5.464   1.333 -0.9071  0.3480  0.8808
20006TIP3    H281510   4.563   5.462   1.353 -0.5157  0.9343 -1.7182
20007TIP3   OH281511   1.988   4.596  11.127 -0.1907  1.2449 -0.1462
20007TIP3    H181512   2.050   4.668  11.117  0.0710  0.7888 -1.9650
20007TIP3    H281513   2.042   4.520  11.147 -0.1967  0.9602 -1.1841
20008TIP3   OH281514   5.410   2.444   0.631  0.4323 -0.0195 -0.5547
20008TIP3    H181515   5.453   2.430   0.546  1.8056  1.3438 -0.0933
20008TIP3    H281516   5.468   2.503   0.678 -1.3939  0.9358  0.5352
20009TIP3   OH281517   2.145   4.823  11.111 -0.3069 -0.5698 -0.5032
20009TIP3    H181518   2.154   4.817  11.016 -1.0763  2.4449 -0.8441
20009TIP3    H281519   2.102   4.908  11.125 -0.2536 -0.9880  2.5304
20010TIP3   OH281520   3.549   4.142   4.240 -0.1629  0.0955 -0.1577
20010TIP3    H181521   3.531   4.048   4.236 -1.5166  0.3502 -0.3123
20010TIP3    H281522   3.468   4.183   4.207  0.6179  1.2903 -0.6101
20011TIP3   OH281523   5.837   3.534   2.271 -0.1645 -0.5710  0.2475
20011TIP3    H181524   5.775   3.481   2.322  0.4345 -2.6766 -1.1687
20011TIP3    H281525   5.782   3.578   2.206 -0.6316  0.4184  1.2827
20012TIP3   OH281526   2.587   5.519   2.732 -0.0495  0.8448 -0.3661
20012TIP3    H181527   2.491   5.519   2.732 -0.0549  0.0588  0.1039
20012TIP3    H281528   2.611   5.479   2.649 -0.1351  0.2025 -0.0829
20013TIP3   OH281529   1.041   6.287   5.234 -0.0407 -0.8767 -0.3191
20013TIP3    H181530   1.025   6.363   5.290 -0.6414  0.5228 -2.3409
20013TIP3    H281531   0.967   6.285   5.173  0.0821 -2.9643 -0.4425
20014TIP3   OH281532   4.716   1.986  13.918  0.6584 -0.1934  0.4105
20014TIP3    H181533   4.747   2.076  13.912 -1.7064  0.6329  0.2685
20014TIP3    H281534   4.630   1.993  13.959  0.2708 -2.3523  0.0026
20015TIP3   OH281535   1.081   2.799  13.291 -0.9557 -0.1782 -0.3874
20015TIP3    H181536   0.985   2.805  13.289 -0.9413  0.1936  0.1214
20015TIP3    H281537   1.108   2.861  13.358 -0.4607 -1.6631  0.8043
20016TIP3   OH281538   3.390   4.323   1.759  0.2613  0.4175 -0.1029
20016TIP3    H181539   3.447   4.394   1.790 -0.8235  1.6396 -0.8563
20016TIP3    H281540   3.350   4.357   1.679 -0.7493 -0.8109 -0.1407
20017TIP3   OH281541   2.074   6.729   5.092 -0.5888 -0.7761  0.3984
20017TIP3    H181542   2.165   6.708   5.111 -1.1207 -0.8405  3.0866
20017TIP3    H281543   2.076   6.772   5.006  2.0017 -0.3355  0.6498
20018TIP3   OH281544   6.591   3.018  15.206  1.3409  0.2828 -0.0370
20018TIP3    H181545   6.541   2.951  15.159  1.6239  0.5087 -0.6595
20018TIP3    H281546   6.526   3.062  15.261  0.5502  1.5763 -1.9504
20019TIP3   OH281547   3.219   5.032  14.296 -0.2024  0.0097 -0.2472
20019TIP3    H181548   3.251   5.039  14.207  1.1734  2.6287  0.4053
20019TIP3    H281549   3.229   5.120  14.333  0.0112 -1.1796  2.7313
20020TIP3   OH281550   3.888   6.604   4.936 -0.4163  0.2510 -0.3636
20020TIP3    H181551   3.899   6.518   4.976  0.1071  0.3670 -0.2567
20020TIP3    H281552   3.974   6.645   4.942 -0.4253  0.4245 -1.2604
20021TIP3   OH281553   1.303   1.503  16.160 -0.7221 -0.0492  0.2885
20021TIP3    H181554   1.271   1.426  16.208  0.5326 -0.8421 -0.1138
20021TIP3    H281555   1.343   1.558  16.226  0.2404 -0.7358  0.2835
20022TIP3   OH281556   0.535   2.975   6.425 -0.2756 -0.1359 -0.2520
20022TIP3    H181557   0.615   2.952   6.379 -0.4567  0.1562 -0.7135
20022TIP3    H281558   0.540   2.927   6.508 -0.1865 -1.0714 -0.7891
20023TIP3   OH281559   3.706   6.091   0.403 -0.5139 -0.4154  0.2950
20023TIP3    H181560   3.657   6.026   0.352  2.6931 -1.4095 -1.6856
20023TIP3    H281561   3.651   6.170   0.401 -2.2301 -1.6052 -1.4312
20024TIP3   OH281562   4.544   4.665  11.647 -0.1831  0.3771 -0.0862
20024TIP3    H181563   4.538   4.571  11.627 -1.5712  0.5278 -0.3784
20024TIP3    H281564   4.630   4.690  11.614 -0.8785 -0.2285 -2.4150
20025TIP3   OH281565   5.560   3.729  13.963 -0.1583 -0.3426  0.7765
20025TIP3    H181566   5.485   3.739  13.905  1.5754  2.4454 -1.1448
20025TIP3    H281567   5.586   3.638  13.952 -1.2833 -0.4747 -1.1013
20026TIP3   OH281568   1.990   5.666  13.478 -0.0042 -0.1479 -0.6291
20026TIP3    H181569   2.044   5.743  13.495  1.1878 -0.6207 -2.1847
20026TIP3    H281570   1.933   5.691  13.406  1.5115 -1.1913 -2.2600
20027TIP3   OH281571   5.302   0.973   2.362  0.6822  0.0802 -0.2705
20027TIP3    H181572   5.374   1.024   2.400 -1.9967  3.2154  0.8540
20027TIP3    H281573   5.300   0.998   2.270  0.7410  0.3428 -0.2007
20028TIP3   OH281574   0.119   2.941   4.957 -0.1141 -0.3149 -0.0633
20028TIP3    H181575   0.137   2.859   5.002  0.0448 -1.7097 -2.5664
20028TIP3    H281576   0.027   2.934   4.929 -0.6491  1.1379  1.2356
20029TIP3   OH281577   5.886   0.752   2.815 -0.0425  0.6563  0.3892
20029TIP3    H181578   5.826   0.826   2.828  2.1590  2.9262 -1.6854
20029TIP3    H281579   5.895   0.745   2.720  0.8011 -1.4433  0.6046
20030TIP3   OH281580   4.564   6.147  11.708 -0.8083 -0.1854  0.2177
20030TIP3    H181581   4.523   6.135  11.622  0.0402 -2.1766  0.0526
20030TIP3    H281582   4.605   6.062  11.726  0.9566  0.9386  1.5722
20031TIP3   OH281583   1.747   1.280  16.755  0.4972  0.8049 -0.0616
20031TIP3    H181584   1.687   1.349  16.727  0.8536  0.8670 -0.6721
20031TIP3    H281585   1.766   1.231  16.675 -0.6312 -0.6985  0.5673
20032TIP3   OH281586   2.147   4.674  14.031 -0.4841  0.0686 -0.3551
20032TIP3    H181587   2.072   4.709  13.982 -0.2858  0.0842 -0.6508
20032TIP3    H281588   2.112   4.595  14.072 -1.0961  0.9381  0.8176
20033TIP3   OH281589   3.630   2.765   3.786 -0.5215 -0.3144 -0.1301
20033TIP3    H181590   3.632   2.685   3.733 -1.4826 -0.1421 -0.4304
20033TIP3    H281591   3.722   2.782   3.807 -0.3635 -1.7687  0.3582
20034TIP3   OH281592   1.202   3.177  11.699  0.0390 -0.6476 -0.4809
20034TIP3    H181593   1.278   3.173  11.641 -0.2452  0.0299 -0.9035
20034TIP3    H281594   1.167   3.088  11.699  1.5302 -1.2625  0.6634
20035TIP3   OH281595   6.332   1.488   4.603 -0.6147 -0.0631  0.7765
20035TIP3    H181596   6.272   1.418   4.627 -0.1474 -0.2929  1.2856
20035TIP3    H281597   6.301   1.564   4.652 -1.7281  0.3604 -0.5407
20036TIP3   OH281598   0.602   6.703   1.713 -0.2755 -0.2991 -0.2223
20036TIP3    H181599   0.547   6.723   1.788 -0.2916 -0.4471 -0.1941
20036TIP3    H281600   0.671   6.770   1.715  0.4219 -1.0208  0.6326
20037TIP3   OH281601   4.855   4.240  14.267  0.0077 -0.2584 -0.0145
20037TIP3    H181602   4.924   4.198  14.319  0.5000  0.1083 -0.3729
20037TIP3    H281603   4.843   4.326  14.308  1.0636  0.4058 -1.0845
20038TIP3   OH281604   1.017   6.724  16.649 -0.0456 -0.1088  0.4012
20038TIP3    H181605   1.080   6.653  16.636  1.1496  0.7938  1.1685
20038TIP3    H281606   0.937   6.693  16.606  0.0805 -2.4549  1.7499
20039TIP3   OH281607   5.133   4.432   0.761  0.2440 -0.3474 -0.2438
20039TIP3    H181608   5.093   4.459   0.678  0.5541 -2.5906 -1.1627
20039TIP3    H281609   5.165   4.513   0.800 -0.4963  0.8232 -2.0091
20040TIP3   OH281610   1.792   1.274  17.035  0.0794  0.8152  0.0075
20040TIP3    H181611   1.709   1.229  17.049  0.3171  0.8191  1.5107
20040TIP3    H281612   1.797   1.288  16.941 -1.6071  0.7980 -0.0835
20041TIP3   OH281613   6.645   0.187  15.532 -0.6113 -0.1099 -0.2104
20041TIP3    H181614   6.572   0.193  15.595 -1.0963 -1.8148 -0.5763
20041TIP3    H281615   6.720   0.160  15.586 -0.0787  2.1922  0.2622
20042TIP3   OH281616   5.080   3.879   4.973  0.8381 -0.0061 -0.0938
20042TIP3    H181617   5.102   3.970   4.994  1.4485  0.3113 -2.0385
20042TIP3    H281618   5.147   3.828   5.020  2.8423  0.7420 -2.0495
20043TIP3   OH281619   0.728   4.305   0.016  0.4599 -0.0012  0.1028
20043TIP3    H181620   0.790   4.331  -0.051 -0.2874 -0.3060 -0.7198
20043TIP3    H281621   0.759   4.220   0.047  1.2467  0.5005  0.7098
20044TIP3   OH281622   1.451   3.621  14.063  0.5150 -0.0669 -1.4676
20044TIP3    H181623   1.428   3.635  13.971 -0.4824  0.4108 -1.1530
20044TIP3    H281624   1.371   3.587  14.103  0.7690  0.2685 -0.6606
20045TIP3   OH281625   3.182   1.722   0.320  0.1089  0.1487  0.2220
20045TIP3    H181626   3.134   1.721   0.237  1.7432  0.1508 -0.7659
20045TIP3    H281627   3.154   1.802   0.364 -1.6859 -0.4747  0.2272
20046TIP3   OH281628   2.849   4.893   1.960 -0.0414 -0.1177  0.0958
20046TIP3    H181629   2.873   4.802   1.975 -0.0668 -0.2798 -0.8106
20046TIP3    H281630   2.907   4.921   1.889 -1.9811 -0.2779 -1.5846
20047TIP3   OH281631   1.278   0.975  12.537 -0.0590 -0.1005 -0.9151
20047TIP3    H181632   1.318   0.935  12.459 -0.2049  0.5776 -1.3378
20047TIP3    H281633   1.327   1.056  12.551 -1.0801  0.5974 -1.2675
20048TIP3   OH281634   0.616   3.191   5.142  0.0509 -0.2494 -0.8039
20048TIP3    H181635   0.537   3.143   5.115 -0.4276 -1.1691  2.0485
20048TIP3    H281636   0.584   3.280   5.159 -0.2711 -0.4777 -0.1973
20049TIP3   OH281637   2.159   4.019   2.281  0.1895 -0.2446  0.0525
20049TIP3    H181638   2.207   4.014   2.198  1.4054 -2.8382  0.8373
20049TIP3    H281639   2.097   3.947   2.277 -2.4258  1.9657 -0.1615
20050TIP3   OH281640   3.295   1.058   2.011 -0.5360 -0.0630 -0.1083
20050TIP3    H181641   3.225   1.039   2.073 -0.7081  2.4265  0.5456
20050TIP3    H281642   3.250   1.096   1.935  0.0077  0.8037 -0.0106
20051TIP3   OH281643   0.839   0.572   0.620 -0.2012  0.4719 -0.3283
20051TIP3    H181644   0.857   0.660   0.652  1.1261 -0.2836  1.0876
20051TIP3    H281645   0.926   0.532   0.611 -0.7491 -0.4423 -1.6823
20052TIP3   OH281646   4.910   4.210  10.165 -0.0270  0.6646  0.3831
20052TIP3    H181647   4.831   4.251  10.202 -1.0764  0.7809 -1.8979
20052TIP3    H281648   4.968   4.283  10.146  0.6571  0.5804  2.0554
20053TIP3   OH281649   5.336   6.159  15.523  0.7541 -0.3089 -0.9550
20053TIP3    H181650   5.402   6.101  15.561  0.8079 -0.0541 -0.6625
20053TIP3    H281651   5.368   6.247  15.541 -0.5973 -0.1571  0.8728
20054TIP3   OH281652   1.759   0.794  13.815  0.3146 -0.1614 -0.2454
20054TIP3    H181653   1.782   0.763  13.903  0.4109  1.0323  0.1527
20054TIP3    H281654   1.763   0.715  13.761 -0.3233 -1.0110  0.9277
20055TIP3   OH281655   4.934   0.625  10.528 -0.0978  0.1601 -0.5634
20055TIP3    H181656   4.902   0.539  10.555  0.3504  0.1723  0.0066
20055TIP3    H281657   4.874   0.686  10.571 -0.0088  0.1526 -0.4290
20056TIP3   OH281658   5.092   0.659  12.915  0.1940 -0.7334 -0.3542
20056TIP3    H181659   5.072   0.718  12.988  0.4894  1.0778 -1.6849
20056TIP3    H281660   5.084   0.571  12.951  0.7434  0.1377  1.9598
20057TIP3   OH281661   3.609   2.777  11.302  0.0523  0.1099  0.0913
20057TIP3    H181662   3.632   2.859  11.256  1.5009 -0.6436 -0.5423
20057TIP3    H281663   3.527   2.749  11.260  1.3468 -0.5523 -2.0673
20058TIP3   OH281664   1.203   4.569   1.844  0.5515 -0.0468 -0.3802
20058TIP3    H181665   1.262   4.638   1.814  1.3919 -0.1663  0.9773
20058TIP3    H281666   1.242   4.537   1.925 -2.4523  1.3405  1.6982
20059TIP3   OH281667   1.412   4.770  12.218 -0.6766 -0.4710 -0.1365
20059TIP3    H181668   1.489   4.822  12.241 -1.2119 -1.2227  3.7218
20059TIP3    H281669   1.351   4.833  12.180  0.2218  0.9447  0.7210
20060TIP3   OH281670   1.493   6.054  15.809 -0.2302  0.3909  0.5520
20060TIP3    H181671   1.500   6.138  15.853  2.7007  0.8897 -0.7543
20060TIP3    H281672   1.580   6.014  15.818 -0.0461 -0.2543 -3.1523
20061TIP3   OH281673   6.728   1.200  13.219 -0.7159  0.1182  0.0915
20061TIP3    H181674   6.680   1.172  13.141 -1.5531 -0.7519  0.8981
20061TIP3    H281675   6.815   1.225  13.187 -0.8309 -0.8923 -1.0301
20062TIP3   OH281676   0.453   1.122  15.539 -0.2430  0.2196  0.0815
20062TIP3    H181677   0.497   1.110  15.623 -1.3594 -1.2542  0.4856
20062TIP3    H281678   0.524   1.126  15.475  0.5127 -2.7573  0.6383
20063TIP3   OH281679   4.860   2.435   3.618  0.6048  0.3752  0.0410
20063TIP3    H181680   4.936   2.440   3.677  1.8461  0.6700 -1.5333
20063TIP3    H281681   4.897   2.403   3.535 -1.0083  0.5076 -0.7359
20064TIP3   OH281682   4.411   1.492   4.389 -0.2234 -0.4602  0.1239
20064TIP3    H181683   4.351   1.456   4.454 -0.1594 -1.8104 -0.5263
20064TIP3    H281684   4.497   1.487   4.431 -0.3405 -0.1602  0.4000
20065TIP3   OH281685   0.728   1.104  15.467 -0.1145  0.3551  0.8445
20065TIP3    H181686   0.768   1.020  15.487 -0.6637  0.0087  0.5123
20065TIP3    H281687   0.708   1.100  15.373 -0.2627  0.7981  0.8555
20066TIP3   OH281688   5.079   0.378  13.918  0.0255 -0.3294 -0.4670
20066TIP3    H181689   5.156   0.434  13.927 -0.6788  0.4764  0.6213
20066TIP3    H281690   5.007   0.438  13.900 -0.4511 -1.0345 -0.9437
20067TIP3   OH281691   5.010   1.906  16.272 -0.5121 -0.8816 -0.0033
20067TIP3    H181692   5.037   1.952  16.352 -0.1398  0.5103 -0.8908
20067TIP3    H281693   4.915   1.917  16.269 -0.2659  1.2480 -1.0129
20068TIP3   OH281694   1.942   1.378   3.273 -0.3968  0.2082 -0.5908
20068TIP3    H181695   1.878   1.321   3.314 -0.9032  0.0958 -1.5225
20068TIP3    H281696   1.999   1.406   3.345  0.1538 -1.8582 -0.1944
20069TIP3   OH281697   2.383   5.328   5.009 -0.0983  0.1109 -0.6135
20069TIP3    H181698   2.423   5.406   5.045 -1.5280  0.5865 -0.0072
20069TIP3    H281699   2.292   5.353   4.991 -0.5980 -1.4098 -0.3474
20070TIP3   OH281700   3.968   2.238  15.914 -0.5945  0.0546 -0.8957
20070TIP3    H181701   4.002   2.167  15.968  1.2147  1.3125 -0.3141
20070TIP3    H281702   3.873   2.232  15.922 -0.4490 -2.0788 -0.6016
20071TIP3   OH281703   1.057   0.126  15.488 -0.4247 -0.5929 -0.0702
20071TIP3    H181704   1.059   0.040  15.531 -0.8021  0.1521  1.4736
20071TIP3    H281705   1.147   0.158  15.496 -0.4324 -0.5716 -0.0693
20072TIP3   OH281706   1.626   1.147   5.707  0.5480 -0.2201  0.3812
20072TIP3    H181707   1.649   1.238   5.723  0.0227 -0.2959  1.6869
20072TIP3    H281708   1.619   1.139   5.612 -1.5028  1.6018  0.3465
20073TIP3   OH281709   5.474   3.125   5.698  0.2393  0.6923  0.1702
20073TIP3    H181710   5.411   3.174   5.751  0.8406  0.4259  1.1463
20073TIP3    H281711   5.431   3.041   5.682  0.7470  0.1120  1.7229
20074TIP3   OH281712   3.075   1.351   5.930 -0.1423 -0.1271 -0.3185
20074TIP3    H181713   3.061   1.445   5.923 -1.3377 -0.3409 -0.8883
20074TIP3    H281714   3.158   1.343   5.978 -0.1982  1.2042  0.0316
20075TIP3   OH281715   0.066   5.887   3.905  0.0372  0.8102  0.2642
20075TIP3    H181716   0.133   5.909   3.840 -0.1922  0.2564 -0.1653
20075TIP3    H281717   0.084   5.946   3.978  2.0057 -0.4275  0.8251
20076TIP3   OH281718   2.640   0.400   0.023  0.4954  0.0416 -0.1830
20076TIP3    H181719   2.683   0.481   0.052  1.9524 -0.6711 -0.2883
20076TIP3    H281720   2.661   0.394  -0.070  0.1132 -0.2805 -0.2458
20077TIP3   OH281721   0.163   5.677   2.540  0.1498 -0.1605  0.0311
20077TIP3    H181722   0.090   5.619   2.562  0.1232 -0.7961 -1.6932
20077TIP3    H281723   0.212   5.630   2.472  0.5617  1.4834 -0.8374
20078TIP3   OH281724   2.257   0.019  16.522  0.1503  0.1190 -0.0221
20078TIP3    H181725   2.287  -0.027  16.601 -1.8183 -0.5252  0.3881
20078TIP3    H281726   2.284   0.110  16.535  1.4613 -0.3441  0.5396
20079TIP3   OH281727   0.018   6.720  15.325 -0.6254 -0.3257  0.2447
20079TIP3    H181728  -0.027   6.687  15.247 -0.1269 -1.2091  0.3362
20079TIP3    H281729   0.058   6.643  15.365  0.8826  0.4316  0.2325
20080TIP3   OH281730   3.801   3.549  14.564 -0.5781 -0.0554  0.0944
20080TIP3    H181731   3.835   3.631  14.530  0.4726 -1.0707 -1.3765
20080TIP3    H281732   3.724   3.531  14.511  0.6352 -1.2679 -1.2872
20081TIP3   OH281733   6.788   0.302  15.324  0.1699 -0.1758  0.1657
20081TIP3    H181734   6.828   0.218  15.300  1.4294  0.5678 -0.3459
20081TIP3    H281735   6.716   0.277  15.383  1.5408 -1.5172  1.3130
20082TIP3   OH281736   2.020   0.361  15.712 -0.9264  0.7138  0.5211
20082TIP3    H181737   2.069   0.343  15.631 -0.6200  3.2658  0.0782
20082TIP3    H281738   1.962   0.286  15.723  0.0512 -0.3377 -1.2933
20083TIP3   OH281739   2.106   0.986   5.087  0.3254 -0.2659 -0.5462
20083TIP3    H181740   2.064   0.902   5.068 -0.6636 -0.0160  0.4907
20083TIP3    H281741   2.137   0.978   5.177 -2.0515  1.3755  0.4692
20084TIP3   OH281742   6.776   2.357   2.797 -0.0988  0.0173  0.1691
20084TIP3    H181743   6.686   2.333   2.821 -1.0108  1.1409 -1.9607
20084TIP3    H281744   6.824   2.275   2.797 -1.6993 -0.9475 -0.9250
20085TIP3   OH281745   1.210   3.535   3.102  0.5490 -0.2632  0.0982
20085TIP3    H181746   1.194   3.587   3.181 -1.2091  0.9951 -1.0573
20085TIP3    H281747   1.306   3.530   3.097  0.7056  0.4846  1.7611
20086TIP3   OH281748   3.421   3.200  13.653  0.5680 -0.4658  0.9298
20086TIP3    H181749   3.363   3.213  13.578  1.1787 -0.1651  0.5039
20086TIP3    H281750   3.475   3.125  13.629  0.6770 -0.4493  1.1241
20087TIP3   OH281751   2.593   2.073   2.186 -0.3624  0.1163  0.1139
20087TIP3    H181752   2.516   2.128   2.200 -0.8421 -0.5152 -0.0273
20087TIP3    H281753   2.574   2.026   2.105 -0.8641 -1.8213  1.3315
20088TIP3   OH281754   3.462   1.608  16.967 -0.5776  0.4061 -0.2948
20088TIP3    H181755   3.507   1.652  16.895  0.7855 -0.5251 -0.0529
20088TIP3    H281756   3.439   1.522  16.932  3.5687 -1.5821  1.4461
20089TIP3   OH281757   4.515   2.782  10.873 -1.0739 -0.0767  0.7047
20089TIP3    H181758   4.575   2.821  10.937  1.0730 -1.5863 -0.3169
20089TIP3    H281759   4.562   2.705  10.841 -3.4048 -1.0491 -0.4649
20090TIP3   OH281760   6.601   3.767  10.936  0.4883 -0.3767  0.0756
20090TIP3    H181761   6.584   3.735  11.025 -1.9433  3.0362  0.9691
20090TIP3    H281762   6.514   3.788  10.902  1.6124  1.1324 -1.9643
20091TIP3   OH281763   1.557   0.765   2.737  0.0470 -0.4445 -0.4512
20091TIP3    H181764   1.506   0.685   2.747 -2.1545  1.1591  1.6041
20091TIP3    H281765   1.513   0.813   2.667  0.9750 -0.6921 -1.2208
20092TIP3   OH281766   1.400   4.656   4.226  0.2170  0.6376  0.3596
20092TIP3    H181767   1.454   4.722   4.182 -0.0948  1.0361  0.5695
20092TIP3    H281768   1.442   4.573   4.206  1.0957  0.9777  0.8060
20093TIP3   OH281769   0.919   4.755   1.861 -0.1231  0.6220 -0.1936
20093TIP3    H181770   0.982   4.735   1.792 -0.4057  0.5506 -0.4332
20093TIP3    H281771   0.836   4.717   1.830 -0.1291  0.0986  0.4347
20094TIP3   OH281772   2.153   5.914   3.231 -0.3736  0.1428  0.2673
20094TIP3    H181773   2.230   5.951   3.189 -0.4888  2.2582  1.8320
20094TIP3    H281774   2.185   5.836   3.276  0.4535 -0.0840 -0.6979
20095TIP3   OH281775   5.686   1.398  13.941  0.4338 -0.2355 -0.5121
20095TIP3    H181776   5.627   1.454  13.890 -0.7643  1.7070  2.8901
20095TIP3    H281777   5.768   1.446  13.944  0.4886 -0.3269 -0.5552
20096TIP3   OH281778   3.996   0.238  11.685 -0.9538  0.2168  0.5423
20096TIP3    H181779   3.984   0.238  11.590 -0.3578  0.6903  0.4664
20096TIP3    H281780   3.977   0.148  11.711  1.6321 -0.6566 -0.3968
20097TIP3   OH281781   6.756   3.003   4.484  0.0251 -0.6252 -0.2775
20097TIP3    H181782   6.845   2.993   4.449  1.0439 -1.1053  2.3480
20097TIP3    H281783   6.739   3.097   4.478  1.6096 -0.2136  1.2293
20098TIP3   OH281784   0.275   1.465  15.844 -0.3013  0.4598 -0.0563
20098TIP3    H181785   0.330   1.540  15.866 -2.7612  2.2595  0.1292
20098TIP3    H281786   0.299   1.443  15.754  2.6326 -0.5362  0.9280
20099TIP3   OH281787   3.888   4.886   1.276  0.1532  0.2876 -0.3198
20099TIP3    H181788   3.816   4.828   1.301  1.4882 -0.8438  1.0192
20099TIP3    H281789   3.868   4.969   1.319 -0.9912  0.3815 -1.0055
20100TIP3   OH281790   5.394   5.586   0.096  0.1933 -0.6377  0.9148
20100TIP3    H181791   5.314   5.607   0.144  0.5804  2.6482  0.1839
20100TIP3    H281792   5.364   5.573   0.006  0.4758  0.6275  0.6350
20101TIP3   OH281793   1.948   0.499  16.351  0.7637 -0.1453  0.1730
20101TIP3    H181794   1.923   0.412  16.320  0.0052  0.0378  0.2598
20101TIP3    H281795   1.936   0.556  16.275  1.5847 -0.1707  0.0182
20102TIP3   OH281796   0.003   2.463   6.461  0.3563 -0.0961  0.4889
20102TIP3    H181797  -0.033   2.427   6.542  0.3520 -0.2647  0.4112
20102TIP3    H281798  -0.063   2.525   6.431  0.6949  0.5266  1.0171
20103TIP3   OH281799   4.460   1.975  16.239  0.0173 -0.4079 -0.2685
20103TIP3    H181800   4.467   2.042  16.307  1.5385 -2.0817  1.2863
20103TIP3    H281801   4.366   1.954  16.235 -0.0160 -0.7487  1.8031
20104TIP3   OH281802   1.310   0.280   4.803 -0.2141  0.6261 -0.2694
20104TIP3    H181803   1.350   0.226   4.872  0.0961  1.1374 -0.0457
20104TIP3    H281804   1.277   0.217   4.739 -2.9115 -0.0031  1.6431
20105TIP3   OH281805   6.484   6.408   2.566 -0.1434  0.1691  0.0792
20105TIP3    H181806   6.459   6.325   2.606  4.5288  0.2465  3.6229
20105TIP3    H281807   6.460   6.474   2.632  2.3946  0.8910  0.3130
20106TIP3   OH281808   1.373   3.777   0.117 -0.3573  0.0859  0.4372
20106TIP3    H181809   1.296   3.823   0.082 -0.6197  0.0865  1.0154
20106TIP3    H281810   1.343   3.687   0.131  0.1571 -0.2777 -0.6986
20107TIP3   OH281811   1.417   3.176   4.771 -0.2366 -0.6044 -0.3334
20107TIP3    H181812   1.452   3.213   4.852  0.5037 -3.0751  0.5228
20107TIP3    H281813   1.479   3.204   4.703 -0.0288  0.2174  0.1941
20108TIP3   OH281814   1.918   3.818   5.395  0.2043  1.0158  0.1111
20108TIP3    H181815   1.863   3.896   5.388  1.0320  1.6888  0.9978
20108TIP3    H281816   1.857   3.747   5.415 -0.7069  1.1978 -1.8537
20109TIP3   OH281817   5.230   3.264   1.810  0.2319  0.2170  0.4263
20109TIP3    H181818   5.263   3.175   1.818 -0.0400  0.1917  1.2426
20109TIP3    H281819   5.282   3.302   1.739  0.6709 -0.4385  0.3955
20110TIP3   OH281820   0.107   4.392   4.174 -0.2537  0.5292  0.8553
20110TIP3    H181821   0.141   4.323   4.117  0.0490 -1.1929  3.0720
20110TIP3    H281822   0.165   4.467   4.158  0.6741 -0.3620 -0.0530
20111TIP3   OH281823   4.533   3.688  13.898 -0.2813  0.7163 -0.2561
20111TIP3    H181824   4.578   3.756  13.847  3.6488 -1.2313  0.4300
20111TIP3    H281825   4.497   3.629  13.833  0.1492  1.0685 -0.8180
20112TIP3   OH281826   2.068   1.582  14.692  0.4461 -0.4507  0.4142
20112TIP3    H181827   2.066   1.610  14.784 -2.4261 -0.5739  0.4524
20112TIP3    H281828   2.053   1.488  14.695 -0.2354 -0.3722 -0.1713
20113TIP3   OH281829   4.212   0.978  12.190 -0.3955 -0.1974 -0.0392
20113TIP3    H181830   4.269   1.055  12.184  0.4671 -0.5622  2.8164
20113TIP3    H281831   4.262   0.908  12.149 -0.0489  0.1529 -0.2181
20114TIP3   OH281832   3.121   3.800  15.214 -0.1726 -0.0071  0.4823
20114TIP3    H181833   3.150   3.804  15.122  0.2454 -0.7235  0.5842
20114TIP3    H281834   3.054   3.869  15.220 -1.2553 -0.9054 -0.7333
20115TIP3   OH281835   3.282   2.567   2.425  0.4042  0.0934 -0.2917
20115TIP3    H181836   3.286   2.656   2.460 -1.3485  0.3222 -0.6376
20115TIP3    H281837   3.210   2.569   2.362 -0.0600 -1.7267  0.1568
20116TIP3   OH281838   4.324   1.789  12.451 -0.0420  0.1235 -0.1237
20116TIP3    H181839   4.316   1.883  12.429 -0.8905  0.5931  2.1219
20116TIP3    H281840   4.338   1.787  12.545  1.3480 -1.9864 -0.3368
20117TIP3   OH281841   6.318   1.299  16.243  0.3476  0.1542  0.0544
20117TIP3    H181842   6.383   1.355  16.287  0.7961  0.0487 -0.4764
20117TIP3    H281843   6.327   1.214  16.287 -0.5894  0.5909  1.1103
20118TIP3   OH281844   2.059   2.754   4.703  0.0875  0.3916  0.4239
20118TIP3    H181845   2.084   2.687   4.766  2.0694  1.4109  0.7525
20118TIP3    H281846   2.060   2.836   4.753 -3.6798  0.5799  0.3948
20119TIP3   OH281847   1.666   5.214  12.778 -0.1852 -0.3272  0.3471
20119TIP3    H181848   1.664   5.225  12.683 -1.3670  0.8288  0.4905
20119TIP3    H281849   1.630   5.296  12.813  1.4662 -0.1934  1.8490
20120TIP3   OH281850   5.416   3.020   2.505  0.3152  0.3150  0.2117
20120TIP3    H181851   5.405   3.097   2.449 -1.7610  1.2314  1.7958
20120TIP3    H281852   5.334   2.971   2.495  1.0201 -0.9232  0.3769
20121TIP3   OH281853   2.865   6.334  13.395  0.1230 -0.7091 -0.6402
20121TIP3    H181854   2.916   6.345  13.475 -0.6612 -2.3629  0.1121
20121TIP3    H281855   2.782   6.378  13.413 -0.7361 -2.6101  0.1443
20122TIP3   OH281856   4.699   1.388   3.543  0.0176 -0.1366  0.0105
20122TIP3    H181857   4.739   1.409   3.627  0.8087 -0.1412 -0.3629
20122TIP3    H281858   4.747   1.441   3.479 -0.4340 -0.2969 -0.4708
20123TIP3   OH281859   6.768   5.083  17.240 -0.0024 -0.0876  0.1767
20123TIP3    H181860   6.861   5.107  17.238 -0.0191 -0.0249  0.1467
20123TIP3    H281861   6.723   5.165  17.259 -0.0395 -0.1516  0.3662
20124TIP3   OH281862   6.352   5.735  14.889  0.1445 -0.1848  0.0530
20124TIP3    H181863   6.319   5.648  14.868 -1.2638  0.9807 -3.0064
20124TIP3    H281864   6.429   5.746  14.833  0.6435  0.3271  0.8327
20125TIP3   OH281865   3.775   2.782  12.793 -0.4584 -0.3252 -0.1166
20125TIP3    H181866   3.753   2.874  12.811  2.1485  0.4091 -0.5099
20125TIP3    H281867   3.739   2.765  12.706 -0.9236  0.3361 -0.0587
20126TIP3   OH281868   3.436   4.724  16.114  0.0218  0.3688  0.3996
20126TIP3    H181869   3.371   4.682  16.170  0.8175  0.4937  1.4393
20126TIP3    H281870   3.390   4.743  16.032 -1.1832  0.2712  1.0521
20127TIP3   OH281871   1.596   1.406   4.525  0.3061  0.1064 -0.5359
20127TIP3    H181872   1.507   1.396   4.493  0.5782  0.6821 -1.5054
20127TIP3    H281873   1.620   1.320   4.559 -1.2824  0.4331  1.4671
20128TIP3   OH281874   4.140   0.501   0.558  0.0380  0.0616  0.0972
20128TIP3    H181875   4.114   0.591   0.538 -2.8024 -0.6931  0.1600
20128TIP3    H281876   4.111   0.451   0.481 -1.7283 -1.3129  1.6046
20129TIP3   OH281877   4.195   2.086   5.533  0.4357 -0.0665 -0.3404
20129TIP3    H181878   4.211   2.098   5.439 -1.9748  0.3090 -0.7372
20129TIP3    H281879   4.273   2.042   5.565  0.5718 -1.8106 -2.8943
20130TIP3   OH281880   2.156   5.842   2.022 -0.4546 -0.1066  0.0765
20130TIP3    H181881   2.120   5.832   2.110  0.1433 -2.4890  0.0833
20130TIP3    H281882   2.087   5.888   1.973 -1.2034  0.3335  1.5203
20131TIP3   OH281883   3.453   5.087   0.514 -0.3796 -0.1524 -0.1768
20131TIP3    H181884   3.373   5.083   0.460  0.0079  0.8830 -0.8509
20131TIP3    H281885   3.478   5.179   0.512  1.2893 -0.6048 -0.6397
20132TIP3   OH281886   6.212   5.102  14.946 -0.1533 -0.0970  0.3918
20132TIP3    H181887   6.244   5.156  15.018  1.1514  0.4308 -0.5551
20132TIP3    H281888   6.205   5.163  14.872 -1.3490 -0.6536  0.0255
20133TIP3   OH281889   1.477   3.610  11.133  0.3856 -0.5628 -0.0544
20133TIP3    H181890   1.434   3.542  11.081 -0.7012  0.7328 -0.8699
20133TIP3    H281891   1.550   3.639  11.079 -2.3928  2.7743 -2.2025
20134TIP3   OH281892   1.740   6.276  15.613 -0.1100 -0.6824  0.1434
20134TIP3    H181893   1.775   6.238  15.693  0.5286 -2.1961 -0.8428
20134TIP3    H281894   1.768   6.216  15.543 -1.7696 -0.0801 -1.0598
20135TIP3   OH281895   2.860   1.146  16.552 -0.0233  0.4040 -0.2319
20135TIP3    H181896   2.914   1.070  16.573  0.1328  0.6168  0.1593
20135TIP3    H281897   2.898   1.217  16.605 -0.3223  0.6912 -0.3982
20136TIP3   OH281898   6.196   0.729  16.756  0.0549  0.2107 -0.2284
20136TIP3    H181899   6.238   0.765  16.678  0.0549  1.3878  0.2922
20136TIP3    H281900   6.252   0.657  16.784 -1.4726 -2.1708 -2.9849
20137TIP3   OH281901   1.056   6.472   6.041 -0.2145 -1.1687 -0.3836
20137TIP3    H181902   1.129   6.461   6.103 -0.6768 -0.3730  0.3075
20137TIP3    H281903   1.021   6.384   6.030  0.5293 -1.4792 -0.3122
20138TIP3   OH281904   1.459   2.084   5.528  0.3702 -0.1386 -0.2501
20138TIP3    H181905   1.522   2.152   5.505  1.5433 -1.2573 -0.4298
20138TIP3    H281906   1.452   2.030   5.449  0.5234 -1.0455  0.3457
20139TIP3   OH281907   1.915   4.137  12.612 -0.0058  0.3154  0.4610
20139TIP3    H181908   1.872   4.121  12.696  1.4593  1.2087  1.3879
20139TIP3    H281909   1.978   4.065  12.604  0.3218  0.6027  0.4471
20140TIP3   OH281910   4.180   2.943   4.814 -0.3395 -0.1242  1.1577
20140TIP3    H181911   4.133   2.863   4.838 -0.1736 -0.0020  1.9089
20140TIP3    H281912   4.148   2.964   4.726 -2.3357  0.4284  1.9750
20141TIP3   OH281913   4.692   5.016   4.125  0.6541  0.6685  0.4698
20141TIP3    H181914   4.756   5.044   4.191 -0.0734  0.6401  1.2049
20141TIP3    H281915   4.627   4.967   4.176 -0.0405  0.8530 -0.2404
20142TIP3   OH281916   1.397   1.137   3.342 -0.1231 -0.1605 -0.0611
20142TIP3    H181917   1.357   1.188   3.413 -0.3997 -1.5130  0.7545
20142TIP3    H281918   1.476   1.186   3.320  0.2505 -0.0092  1.5373
20143TIP3   OH281919   5.110   4.103   2.895  0.2654  0.2883  0.2794
20143TIP3    H181920   5.065   4.186   2.879  1.0982  0.5901 -0.5228
20143TIP3    H281921   5.177   4.125   2.960  0.5066  0.2480  0.0424
20144TIP3   OH281922   2.788   0.121  14.700 -0.3925 -0.1551  0.1260
20144TIP3    H181923   2.713   0.065  14.681 -0.2295 -0.1222 -0.6550
20144TIP3    H281924   2.796   0.120  14.795 -0.1095 -1.8399  0.0991
20145TIP3   OH281925   3.681   0.063   6.060  0.0739 -0.4861 -0.6175
20145TIP3    H181926   3.703   0.002   6.131  0.7477  1.2754  0.7216
20145TIP3    H281927   3.621   0.126   6.100  3.8292  3.0998 -0.3266
20146TIP3   OH281928   3.593   0.360   4.820 -0.0799  0.1381  0.0579
20146TIP3    H181929   3.602   0.420   4.893 -0.8048  2.5272 -1.7411
20146TIP3    H281930   3.503   0.374   4.789 -0.5486 -2.4887  0.0854
20147TIP3   OH281931   4.419   0.685  12.240  0.1005  0.4957 -0.6421
20147TIP3    H181932   4.464   0.750  12.293  0.4719  0.6319 -1.1228
20147TIP3    H281933   4.395   0.731  12.160  1.3319 -0.2465 -1.4409
20148TIP3   OH281934   2.749   1.913   3.263 -0.3097  0.2908  0.3575
20148TIP3    H181935   2.780   1.963   3.188  3.9053 -3.7618 -0.7899
20148TIP3    H281936   2.818   1.921   3.328 -0.6577 -1.9785  1.0651
20149TIP3   OH281937   1.563   2.522  12.380 -0.5948  0.1540  0.1430
20149TIP3    H181938   1.517   2.600  12.411 -1.9128  0.1358 -1.6737
20149TIP3    H281939   1.526   2.505  12.294  0.9184 -1.4770 -0.2209
20150TIP3   OH281940   4.271   6.106  15.579  0.0877  0.0475  0.2267
20150TIP3    H181941   4.302   6.092  15.668 -2.3907 -0.9246  0.9779
20150TIP3    H281942   4.190   6.056  15.574 -0.7532  1.5662 -2.0231
20151TIP3   OH281943   5.133   1.495  13.693  0.0682  0.8966  0.2875
20151TIP3    H181944   5.061   1.515  13.634  0.2602  0.8990  0.0549
20151TIP3    H281945   5.101   1.522  13.779 -1.1072 -1.2671  0.5641
20152TIP3   OH281946   5.889   2.582   1.005 -0.3056  0.1652  0.3765
20152TIP3    H181947   5.795   2.600   1.010 -0.1846  0.8332  0.4054
20152TIP3    H281948   5.924   2.618   1.087  0.1422  1.0388 -0.1911
20153TIP3   OH281949   3.127   1.985   3.206 -0.1115 -0.3037  0.0797
20153TIP3    H181950   3.040   2.026   3.202 -0.2263 -0.3861  1.4221
20153TIP3    H281951   3.115   1.908   3.261  0.4885 -1.1832 -1.0125
20154TIP3   OH281952   5.054   5.112   4.778 -0.4245  0.1103  0.7030
20154TIP3    H181953   5.114   5.110   4.703 -1.4157 -1.9108 -0.0619
20154TIP3    H281954   5.036   5.205   4.791  1.8754  0.6729  0.1499
20155TIP3   OH281955   4.020   6.757  14.567 -0.0226 -0.1066 -0.2866
20155TIP3    H181956   3.988   6.844  14.590  0.8197  0.7939 -2.4286
20155TIP3    H281957   4.077   6.732  14.640  0.9061  1.7739 -0.3341
20156TIP3   OH281958   4.564   6.601  16.907  0.0999  0.7809  0.0782
20156TIP3    H181959   4.496   6.639  16.962 -0.2634  1.2710 -0.7091
20156TIP3    H281960   4.539   6.509  16.898 -1.5231  1.3707 -1.7911
20157TIP3   OH281961   6.015   3.920  13.910  0.4449  0.3214  0.4321
20157TIP3    H181962   5.931   3.882  13.884  0.3246 -0.3033  1.6959
20157TIP3    H281963   5.990   3.999  13.959  0.5934  0.0371  0.9634
20158TIP3   OH281964   5.903   4.260   1.703  0.1121  0.3261 -0.0410
20158TIP3    H181965   5.864   4.281   1.788  1.5005  0.5637  0.5591
20158TIP3    H281966   5.949   4.341   1.678  2.7367 -0.8488  0.7284
20159TIP3   OH281967   5.835   3.012  14.435 -0.2997 -0.1596 -0.3509
20159TIP3    H181968   5.902   3.031  14.370 -1.0130  1.1091 -0.7259
20159TIP3    H281969   5.775   2.952  14.392 -0.1948 -0.1707 -0.4820
20160TIP3   OH281970   0.049   5.922  12.495 -0.0180  0.5701  0.4028
20160TIP3    H181971   0.053   5.944  12.402 -0.8990 -0.2092  0.1750
20160TIP3    H281972   0.016   5.832  12.497  2.5329 -0.3997  1.3406
20161TIP3   OH281973   5.133   5.996   4.035 -0.0521  0.5415 -0.2804
20161TIP3    H181974   5.075   6.051   3.983 -0.9613  0.5652  0.7424
20161TIP3    H281975   5.075   5.932   4.076  0.7433  0.0837  0.1447
20162TIP3   OH281976   1.638   4.864  16.809  0.6882 -0.0592  0.3837
20162TIP3    H181977   1.690   4.891  16.733  2.9158  0.9352  2.2038
20162TIP3    H281978   1.622   4.944  16.858 -1.6515 -0.5335  0.4625
20163TIP3   OH281979   2.493   2.022  13.741 -0.1309 -0.0343  0.1241
20163TIP3    H181980   2.490   1.929  13.766 -0.9997 -0.4784 -1.5675
20163TIP3    H281981   2.506   2.021  13.646 -3.7022  1.5142 -0.4364
20164TIP3   OH281982   5.081   5.752   5.721  0.0165 -0.3196 -0.0379
20164TIP3    H181983   5.162   5.703   5.706 -0.4604 -1.2071  0.2502
20164TIP3    H281984   5.059   5.734   5.812 -1.9089 -2.2241 -0.8461
20165TIP3   OH281985   3.601   0.001  11.114 -0.1219  0.0150 -0.7838
20165TIP3    H181986   3.526   0.058  11.097  0.0139 -0.7874 -4.5013
20165TIP3    H281987   3.670   0.060  11.144 -1.9239  0.8596  1.9431
20166TIP3   OH281988   5.877   3.490  12.992  0.0747 -0.4888 -0.3218
20166TIP3    H181989   5.908   3.543  13.066  1.1171  1.2201 -1.9570
20166TIP3    H281990   5.788   3.463  13.018  0.3029  0.3306  1.4065
20167TIP3   OH281991   0.063   5.582  15.300 -0.2499 -0.0297  0.1848
20167TIP3    H181992   0.066   5.620  15.212 -1.9773  0.3842  0.2835
20167TIP3    H281993   0.082   5.655  15.359  0.4119 -0.2000  0.1873
20168TIP3   OH281994   2.759   4.043   0.014 -0.1513 -0.5850  0.5050
20168TIP3    H181995   2.708   3.986   0.071  1.6892 -1.7258  1.0709
20168TIP3    H281996   2.842   4.054   0.061 -0.0308  1.5880 -0.1742
20169TIP3   OH281997   6.773   5.627   5.477  0.3288 -0.0929 -0.6750
20169TIP3    H181998   6.790   5.536   5.500  0.3586  0.6232  2.3581
20169TIP3    H281999   6.696   5.623   5.420 -0.2989 -1.9630  0.2592
20170TIP3   OH282000   6.698   5.152  14.119  0.5625 -0.5817  0.4653
20170TIP3    H182001   6.698   5.244  14.094  4.7997 -0.5379  0.3276
20170TIP3    H282002   6.640   5.148  14.196  0.8162  2.3099  0.8684
20171TIP3   OH282003   1.999   0.823   1.133  0.4295 -0.0622  0.3446
20171TIP3    H182004   2.073   0.881   1.150  0.9666 -0.6231 -0.0646
20171TIP3    H282005   1.931   0.853   1.192  1.6303 -0.7848  2.1443
20172TIP3   OH282006   0.154   6.349   6.763 -0.1775 -0.4251  0.0816
20172TIP3    H182007   0.210   6.375   6.836 -0.3176 -2.7796  1.0649
20172TIP3    H282008   0.213   6.347   6.687  0.3529  0.2682  0.4706
20173TIP3   OH282009   0.902   2.652   2.958 -0.5798 -0.0500 -0.4298
20173TIP3    H182010   0.906   2.747   2.949 -1.1822 -0.1676 -1.9881
20173TIP3    H282011   0.886   2.619   2.870 -0.1978 -1.6192  0.0628
20174TIP3   OH282012   1.112   0.034   4.183  0.2954  0.3900 -0.4563
20174TIP3    H182013   1.100   0.127   4.165 -1.1019  0.8182  2.4962
20174TIP3    H282014   1.133  -0.004   4.098  1.6234  3.5082 -1.5803
20175TIP3   OH282015   6.140   0.141  11.587 -0.3326 -0.3299  0.7242
20175TIP3    H182016   6.090   0.161  11.508 -0.6115  1.3927  1.3128
20175TIP3    H282017   6.222   0.104  11.555 -0.0304  1.2807 -0.4259
20176TIP3   OH282018   6.514   1.282  12.853 -0.4585 -0.0472  0.1345
20176TIP3    H182019   6.533   1.367  12.893 -1.7223  1.0615 -1.5269
20176TIP3    H282020   6.483   1.304  12.765  1.0346 -2.3343 -1.0048
20177TIP3   OH282021   4.979   5.329  13.132 -0.2242  0.0552  0.1650
20177TIP3    H182022   5.036   5.397  13.167 -0.5160  0.5667 -0.3574
20177TIP3    H282023   4.890   5.365  13.139 -0.5134 -0.7777  1.0737
20178TIP3   OH282024   2.483   5.828   5.654  0.0817  0.2318 -0.0401
20178TIP3    H182025   2.510   5.828   5.562 -0.9475  1.4015 -0.3586
20178TIP3    H282026   2.388   5.821   5.651  0.0550  0.0889  0.9547
20179TIP3   OH282027   4.681   6.766   2.997 -0.2602  0.2231  0.0445
20179TIP3    H182028   4.659   6.848   3.042 -0.0456  0.7517 -0.7967
20179TIP3    H282029   4.755   6.789   2.940  0.8559 -0.9438  0.9889
20180TIP3   OH282030   6.242   4.851   0.513 -0.2515  0.3152  0.7926
20180TIP3    H182031   6.301   4.890   0.449 -1.7796  0.1038 -0.7835
20180TIP3    H282032   6.166   4.910   0.515 -1.6632 -1.3951 -0.0574
20181TIP3   OH282033   5.609   3.131  10.223 -0.1888 -0.2894 -0.3851
20181TIP3    H182034   5.548   3.089  10.285  0.4035  0.6364  0.8460
20181TIP3    H282035   5.624   3.065  10.156 -2.7165 -0.4608 -0.8160
20182TIP3   OH282036   2.238   4.468   4.490  0.1742 -0.2224  0.0001
20182TIP3    H182037   2.293   4.449   4.414  0.7494 -1.6767  0.7683
20182TIP3    H282038   2.254   4.561   4.508  0.1661  0.0966 -1.5374
20183TIP3   OH282039   4.407   5.799  14.655 -0.4869 -0.1164  0.4422
20183TIP3    H182040   4.489   5.791  14.703 -0.2265  0.5038  0.1035
20183TIP3    H282041   4.342   5.822  14.722 -0.2964 -0.1326  0.6317
20184TIP3   OH282042   0.704   2.260  12.040 -0.5509 -0.0825 -0.2036
20184TIP3    H182043   0.636   2.208  11.997 -0.7909  1.1262 -1.3356
20184TIP3    H282044   0.686   2.350  12.012  0.9164  0.3750  0.2844
20185TIP3   OH282045   0.026   5.566  10.994 -0.4131 -0.1060 -0.9134
20185TIP3    H182046   0.011   5.529  10.907  0.2769  0.4262 -1.2626
20185TIP3    H282047   0.110   5.531  11.022 -0.5003 -0.0534 -0.5760
20186TIP3   OH282048   1.122   3.281   3.123 -0.5032 -0.1029 -0.1016
20186TIP3    H182049   1.026   3.277   3.115 -0.2745  0.0400 -3.4313
20186TIP3    H282050   1.143   3.373   3.108  0.1474 -0.0973  0.8302
20187TIP3   OH282051   3.527   1.925   4.513  0.4789 -0.1907  0.0386
20187TIP3    H182052   3.523   1.873   4.593 -1.3640  0.4739  0.3962
20187TIP3    H282053   3.438   1.922   4.478  0.9563  0.6393 -1.2715
20188TIP3   OH282054   5.702   1.810   4.507  0.3478  0.0885 -0.1595
20188TIP3    H182055   5.693   1.716   4.520  1.6888  0.0400  0.5697
20188TIP3    H282056   5.677   1.848   4.592  1.7257  0.2542  0.1862
20189TIP3   OH282057   2.530   0.894   5.980 -0.0856  0.4099  0.2951
20189TIP3    H182058   2.545   0.939   6.063 -0.5604 -1.1033  1.2353
20189TIP3    H282059   2.586   0.816   5.986 -0.1642  0.2757 -0.7882
20190TIP3   OH282060   3.278   4.478   1.556  0.3484  0.4137  0.0065
20190TIP3    H182061   3.208   4.499   1.618 -1.1257 -0.4891 -1.3294
20190TIP3    H282062   3.237   4.488   1.470  1.3301 -1.9662 -0.7572
20191TIP3   OH282063   2.329   3.906  11.672  0.1649  0.0134 -0.1174
20191TIP3    H182064   2.384   3.828  11.663 -0.4440 -0.3505 -0.7756
20191TIP3    H282065   2.246   3.873  11.706  0.0792  0.4443  0.0909
20192TIP3   OH282066   0.839   0.281   3.325  0.5107 -0.5474 -0.0051
20192TIP3    H182067   0.759   0.272   3.273  1.1894 -0.8659 -0.9868
20192TIP3    H282068   0.908   0.244   3.271  0.7653 -3.6026  2.2803
20193TIP3   OH282069   1.342   4.856  11.744 -0.2124 -0.0231  0.3871
20193TIP3    H182070   1.384   4.770  11.744  0.9507  0.5336  0.1687
20193TIP3    H282071   1.349   4.885  11.653 -0.8185  0.1960  0.4131
20194TIP3   OH282072   2.489   3.593   0.783 -0.2389  0.0000 -0.0794
20194TIP3    H182073   2.526   3.548   0.859  3.0617 -1.0449 -2.1902
20194TIP3    H282074   2.396   3.571   0.784  0.2244 -2.0319  2.2460
20195TIP3   OH282075   0.171   2.792   1.595  0.1676 -0.5073 -0.1311
20195TIP3    H182076   0.188   2.763   1.685 -0.4281 -0.2588  0.0683
20195TIP3    H282077   0.076   2.782   1.586 -0.1393  1.9427  0.1271
20196TIP3   OH282078   2.554   1.532  12.889  0.2947  0.1515  0.2043
20196TIP3    H182079   2.555   1.587  12.967  1.7083 -0.5662  0.7174
20196TIP3    H282080   2.571   1.592  12.816 -0.3745  0.7220  0.5129
20197TIP3   OH282081   0.449   4.103   2.915  0.0409  0.0804 -0.3501
20197TIP3    H182082   0.420   4.184   2.957 -0.8823 -0.3489 -0.1583
20197TIP3    H282083   0.530   4.128   2.870  1.3943  0.4465  2.1264
20198TIP3   OH282084   2.786   3.360  11.289  1.0717 -0.3100 -0.3050
20198TIP3    H182085   2.847   3.328  11.223 -0.1747 -1.0612 -1.1064
20198TIP3    H282086   2.820   3.446  11.313  3.1460 -1.2242  0.1740
20199TIP3   OH282087   2.940   5.873  15.496 -0.3004 -0.0728 -0.0022
20199TIP3    H182088   2.872   5.806  15.499 -0.4513  0.0156 -1.2541
20199TIP3    H282089   2.913   5.932  15.427  1.8277 -0.8866 -1.6037
20200TIP3   OH282090   0.215   3.921  15.447  0.0028  0.1068  0.1803
20200TIP3    H182091   0.157   3.845  15.440  0.3712 -0.1651  0.1106
20200TIP3    H282092   0.278   3.910  15.376 -0.4057  0.8720 -0.3055
20201TIP3   OH282093   5.337   0.259  17.248  0.8839 -0.0242  0.3244
20201TIP3    H182094   5.310   0.316  17.176 -0.3165 -1.0179 -0.0116
20201TIP3    H282095   5.344   0.172  17.209  2.3975 -0.1866  0.9133
20202TIP3   OH282096   0.862   3.426  11.522 -0.6943  0.0614  0.3001
20202TIP3    H182097   0.768   3.424  11.540 -0.7681 -1.8303 -0.2187
20202TIP3    H282098   0.903   3.417  11.608 -0.9664  1.9406  0.6425
20203TIP3   OH282099   3.044   2.671  14.400 -0.0486 -0.0654  0.4181
20203TIP3    H182100   3.027   2.752  14.351 -2.3975 -0.2508  0.8528
20203TIP3    H282101   3.015   2.691  14.489  0.1239 -1.1308  0.7142
20204TIP3   OH282102   3.908   4.877  11.842  0.0232  0.2451  0.3426
20204TIP3    H182103   3.960   4.948  11.804  1.3159  0.1574  1.9011
20204TIP3    H282104   3.919   4.804  11.782 -0.5905  1.0762 -0.8059
20205TIP3   OH282105   4.678   5.023  13.332 -0.1338  0.2516 -0.7267
20205TIP3    H182106   4.639   5.084  13.268 -0.7049  0.3618 -0.2791
20205TIP3    H282107   4.761   4.997  13.292 -0.4074  0.4475 -1.4445
20206TIP3   OH282108   0.297   3.538   5.850 -0.6399  0.1430  0.1581
20206TIP3    H182109   0.352   3.597   5.902  1.1868 -0.9877 -0.4639
20206TIP3    H282110   0.289   3.580   5.765 -1.6526  0.8259  0.5772
20207TIP3   OH282111   3.265   6.095  14.756 -0.0831  0.5072  0.0920
20207TIP3    H182112   3.225   6.181  14.747 -0.5029  0.5223  2.0220
20207TIP3    H282113   3.353   6.112  14.790  0.3097  0.2424 -0.7674
20208TIP3   OH282114   0.896   0.994  16.969 -0.3695  0.0587 -0.0158
20208TIP3    H182115   0.906   0.937  17.045 -1.5747  1.5594  1.2816
20208TIP3    H282116   0.960   0.960  16.906 -2.4852 -4.1038 -0.1343
20209TIP3   OH282117   6.269   6.541   1.275  0.1204 -0.1176  0.2674
20209TIP3    H182118   6.300   6.478   1.340 -1.4855 -0.7557  0.4282
20209TIP3    H282119   6.272   6.625   1.320 -0.8796 -0.5406  1.1477
20210TIP3   OH282120   2.939   1.550  16.092 -1.2690 -0.4828 -0.3132
20210TIP3    H182121   2.993   1.623  16.124 -3.1127  0.6494  0.2705
20210TIP3    H282122   2.931   1.567  15.998 -2.3038  0.4977 -0.0612
20211TIP3   OH282123   0.946   4.637   5.825 -0.3868 -0.0648  0.3990
20211TIP3    H182124   1.041   4.636   5.836 -0.4397  0.4361  0.9018
20211TIP3    H282125   0.931   4.696   5.752 -0.2179 -1.3181 -0.6794
20212TIP3   OH282126   3.448   5.881  12.884  0.1126 -0.6863  0.5871
20212TIP3    H182127   3.477   5.851  12.970 -0.8897 -2.1307  0.4450
20212TIP3    H282128   3.439   5.975  12.894  0.6089 -0.7596  1.8927
20213TIP3   OH282129   0.809   4.970  14.527 -0.1072 -0.0948  0.0365
20213TIP3    H182130   0.818   4.925  14.610 -0.4320  0.1025  0.1801
20213TIP3    H282131   0.764   4.907  14.470 -0.2002 -0.0993  0.1155
20214TIP3   OH282132   1.429   4.422   2.563 -0.5273  0.0736  0.4438
20214TIP3    H182133   1.350   4.382   2.600  0.0045 -1.7018 -0.2829
20214TIP3    H282134   1.496   4.405   2.629 -0.3790  0.0982  0.2967
20215TIP3   OH282135   2.861   3.062  16.191 -0.1123 -0.1939 -0.0047
20215TIP3    H182136   2.775   3.025  16.210  0.9078 -1.9929  1.3031
20215TIP3    H282137   2.893   3.094  16.275  1.6640 -2.1380  0.0961
20216TIP3   OH282138   2.853   5.877   6.311 -0.4923 -0.1437  0.3273
20216TIP3    H182139   2.927   5.824   6.342  0.0439 -0.1343 -0.9103
20216TIP3    H282140   2.818   5.917   6.391 -0.0720 -1.2919  1.1159
20217TIP3   OH282141   2.688   6.230   1.212 -0.4579  0.4054  0.1848
20217TIP3    H182142   2.609   6.224   1.265 -1.4755  1.9860 -1.1253
20217TIP3    H282143   2.659   6.210   1.123  0.6388  0.9280 -0.2962
20218TIP3   OH282144   6.138   3.280   2.378 -0.0592 -0.3690 -0.0445
20218TIP3    H182145   6.075   3.323   2.436  0.1505  0.9354 -0.7851
20218TIP3    H282146   6.209   3.253   2.437  0.6936  1.9774  0.1350
20219TIP3   OH282147   6.618   5.608  10.648 -0.4009  0.9430  0.0214
20219TIP3    H182148   6.696   5.553  10.658 -1.7190 -0.8717  0.7059
20219TIP3    H282149   6.648   5.685  10.601  2.0093  0.7270  1.1529
20220TIP3   OH282150   2.799   6.007  11.763  0.0419  0.3077 -0.3172
20220TIP3    H182151   2.849   6.075  11.719  2.9835 -1.1353  0.6222
20220TIP3    H282152   2.761   5.955  11.692  1.4056  0.3659 -1.1113
20221TIP3   OH282153   6.699   6.649   4.261 -0.4379 -0.5499  0.1199
20221TIP3    H182154   6.665   6.699   4.334  0.1940 -0.4716  0.3602
20221TIP3    H282155   6.680   6.558   4.283 -1.8826 -0.4122 -0.4700
20222TIP3   OH282156   6.412   2.201  13.274  0.3265  0.0911 -0.2142
20222TIP3    H182157   6.492   2.232  13.232  0.6228 -1.2941 -0.7183
20222TIP3    H282158   6.376   2.278  13.319  2.8706  0.3113  1.5304
20223TIP3   OH282159   0.165   6.727   4.723  0.6129 -0.2934 -0.0191
20223TIP3    H182160   0.159   6.737   4.818 -0.9336 -0.3173 -0.1031
20223TIP3    H282161   0.104   6.657   4.703 -1.2710  1.6616 -1.3388
20224TIP3   OH282162   0.815   4.026  12.791 -0.2378 -0.1662  0.1979
20224TIP3    H182163   0.887   3.974  12.827 -0.1840 -0.0813  0.2120
20224TIP3    H282164   0.748   3.961  12.768 -0.5838 -0.1615  1.1668
20225TIP3   OH282165   4.560   3.239   4.996 -0.3109  0.0026 -0.4636
20225TIP3    H182166   4.471   3.265   5.020 -0.2558 -1.5301  1.5909
20225TIP3    H282167   4.550   3.186   4.917 -1.5741 -2.4824  1.3023
20226TIP3   OH282168   5.040   1.815  15.560  0.0578  0.0912 -0.3521
20226TIP3    H182169   5.035   1.829  15.654 -1.6292  0.5843 -0.4919
20226TIP3    H282170   5.132   1.829  15.538  0.5667 -0.5386  1.2866
20227TIP3   OH282171   2.498   0.036   3.090 -0.0548 -0.5971  0.2976
20227TIP3    H182172   2.531  -0.053   3.092 -0.1895 -0.6464  0.3358
20227TIP3    H282173   2.500   0.061   2.997 -1.3268 -1.1330  0.1192
20228TIP3   OH282174   5.194   1.891  13.664 -0.2539  0.1187  0.2506
20228TIP3    H182175   5.209   1.813  13.610  3.2050  0.8666  0.0381
20228TIP3    H282176   5.243   1.875  13.744 -0.3807  1.6340  0.6433
20229TIP3   OH282177   4.574   0.640  11.012  0.1667 -0.0872  0.2199
20229TIP3    H182178   4.495   0.602  10.976  0.7255 -0.4128 -0.6788
20229TIP3    H282179   4.606   0.699  10.943  0.0174  1.0288  1.0758
20230TIP3   OH282180   0.583   0.547   0.542 -0.1575 -0.5767  0.3802
20230TIP3    H182181   0.676   0.547   0.564 -0.2831 -0.4284  0.9098
20230TIP3    H282182   0.553   0.635   0.565 -0.1692 -0.2298 -0.8992
20231TIP3   OH282183   1.441   3.208   1.344 -0.1540  0.5867 -0.0008
20231TIP3    H182184   1.447   3.120   1.307  0.1526 -1.0009  3.5310
20231TIP3    H282185   1.348   3.228   1.347 -0.3146 -0.1884  0.3244
20232TIP3   OH282186   0.900   5.767  16.095  0.1941 -0.3942  0.1427
20232TIP3    H182187   0.916   5.793  16.186  0.4753 -0.8110  0.2126
20232TIP3    H282188   0.933   5.840  16.043 -1.6117  0.6702  0.4282
20233TIP3   OH282189   5.781   2.134  14.873  0.5552 -0.0746  0.8698
20233TIP3    H182190   5.811   2.043  14.865  0.2587 -0.0476 -0.8544
20233TIP3    H282191   5.819   2.178  14.797 -2.5420  0.3037 -0.5653
20234TIP3   OH282192   5.979   2.142  12.674  0.5757 -0.9139  0.3192
20234TIP3    H182193   5.999   2.058  12.714  0.8433 -1.9482 -1.9130
20234TIP3    H282194   5.886   2.156  12.691  0.4386 -1.8500  0.3424
20235TIP3   OH282195   2.158   4.438  13.721  0.0519 -0.3615 -0.3545
20235TIP3    H182196   2.162   4.473  13.631 -3.2780  0.2581 -0.3520
20235TIP3    H282197   2.065   4.421  13.735  0.5248 -0.4568  3.0014
20236TIP3   OH282198   3.203   1.252  14.373  0.2855 -0.5677  0.6893
20236TIP3    H182199   3.210   1.218  14.462  0.5369 -0.4533  0.7140
20236TIP3    H282200   3.251   1.335  14.375 -0.2966 -0.2294  0.6158
20237TIP3   OH282201   2.716   4.379  15.994 -0.3367 -0.0719  0.3416
20237TIP3    H182202   2.656   4.361  16.066 -1.3334 -0.7870 -0.6470
20237TIP3    H282203   2.659   4.398  15.920  0.6788  0.6650 -0.2554
20238TIP3   OH282204   5.143   4.077  13.791  0.1787  0.2444 -0.3074
20238TIP3    H182205   5.234   4.107  13.796 -0.1156  1.1881 -0.5142
20238TIP3    H282206   5.112   4.107  13.706 -0.5619  0.5939  0.0794
20239TIP3   OH282207   6.266   1.824  10.614 -0.3714  0.7642 -0.1212
20239TIP3    H182208   6.218   1.831  10.531  2.5451 -0.6340 -1.9890
20239TIP3    H282209   6.242   1.738  10.649  1.3109 -0.2576 -1.4309
20240TIP3   OH282210   4.971   6.308  13.541 -0.0786 -0.6253  0.2876
20240TIP3    H182211   5.007   6.374  13.600 -0.3706 -0.7017  0.5509
20240TIP3    H282212   4.879   6.329  13.533 -0.3869 -1.5766  1.1632
20241TIP3   OH282213   3.254   0.947   2.949  0.7224 -0.4280  0.1893
20241TIP3    H182214   3.348   0.930   2.942  0.6305 -0.5267 -0.7778
20241TIP3    H282215   3.244   1.037   2.917  0.5203 -0.3269  0.5341
20242TIP3   OH282216   1.567   1.533  16.384  0.0903  0.2964  0.3416
20242TIP3    H182217   1.615   1.610  16.354  0.6745  0.4685  1.6913
20242TIP3    H282218   1.483   1.567  16.415  0.4012  0.4148  1.0633
20243TIP3   OH282219   1.481   6.650   3.098  0.1992  0.1962 -0.9487
20243TIP3    H182220   1.516   6.568   3.065  3.1463  1.2641 -0.6106
20243TIP3    H282221   1.546   6.680   3.162 -0.5892  3.0080 -1.3884
20244TIP3   OH282222   5.680   2.345   0.822 -0.3006  0.0150 -0.1438
20244TIP3    H182223   5.608   2.287   0.845  0.1376 -0.6529 -0.4306
20244TIP3    H282224   5.692   2.401   0.898  0.8609 -1.8746  1.0993
20245LIG      S82225   3.324   3.681  16.645  0.3300  0.0910  0.2215
20245LIG     N182226   3.432   3.462  16.046  0.9673 -0.3847  0.0504
20245LIG     N282227   3.422   3.284  15.811 -0.7260  0.0125 -0.0041
20245LIG     N382228   3.478   3.613  16.401 -0.1128  0.0948  0.4228
20245LIG     C182229   3.392   3.505  16.184 -0.3608 -0.2789 -0.6355
20245LIG     C282230   3.315   3.450  15.961  0.1646 -0.0689  0.4044
20245LIG     C382231   3.512   3.337  16.039 -0.1438  0.0046 -0.1914
20245LIG     C482232   3.345   3.412  15.809  0.7217 -0.2469 -0.6006
20245LIG     C582233   3.546   3.295  15.898 -1.0121 -0.2776 -0.0279
20245LIG     C682234   3.515   3.541  16.279 -0.3108 -0.5987  0.1759
20245LIG     C782235   3.313   3.405  16.260  0.2040 -0.6030 -0.2531
20245LIG     C882236   3.462   3.239  15.675 -0.0588 -0.2113  0.5161
20245LIG     C982237   3.558   3.607  16.521 -0.1889 -0.1972  0.5098
20245LIG    C1082238   3.409   3.734  16.393  0.1235 -0.0504  0.4126
20245LIG    C1182239   3.550   3.337  15.597  0.2796  0.5314 -0.4900
20245LIG    C1282240   3.493   3.632  16.649  0.4276 -0.2181 -0.4246
20245LIG    C1382241   3.321   3.775  16.497  0.1254  0.5688  0.4758
20245LIG    C1482242   3.700   3.591  16.523 -0.7597 -0.0276  0.2991
20245LIG    C1582243   3.414   3.820  16.277  0.1300 -0.4530 -0.0267
20245LIG    C1682244   3.571   3.637  16.766  0.0273  0.0568 -0.1203
20245LIG    C1782245   3.219   3.877  16.479 -0.3779 -0.0752 -0.4413
20245LIG    C1882246   3.772   3.611  16.644  0.1719 -0.3079 -0.6901
20245LIG    C1982247   3.318   3.922  16.259  0.2251 -0.5332 -0.3193
20245LIG    C2082248   3.712   3.625  16.761  0.4885 -0.5093  0.4658
20245LIG    C2182249   3.222   3.949  16.358 -0.2223  0.3742 -0.1906
20245LIG     H182250   3.334   3.597  16.163 -0.4726 -0.2508 -0.1964
20245LIG     H282251   3.261   3.547  15.969 -0.2331 -0.1492 -1.1641
20245LIG     H382252   3.249   3.370  16.002 -1.7998 -0.7198 -3.6761
20245LIG     H482253   3.447   3.255  16.077  1.3789 -0.0658  2.3945
20245LIG     H582254   3.605   3.320  16.097  0.5047  0.5852 -1.0567
20245LIG     H682255   3.248   3.397  15.758  1.0935  1.0571 -1.7378
20245LIG     H782256   3.406   3.491  15.760 -0.0728  1.4963  1.1724
20245LIG     H882257   3.592   3.193  15.897 -0.5960 -0.1193 -3.1857
20245LIG     H982258   3.611   3.376  15.858 -1.9391  2.1686  3.2465
20245LIG    H1082259   3.559   3.442  16.305  0.4625 -0.1781  0.4949
20245LIG    H1182260   3.586   3.605  16.221  0.4025 -3.0237 -1.7226
20245LIG    H1282261   3.282   3.447  16.359  1.0239 -1.2882  0.3034
20245LIG    H1382262   3.361   3.308  16.284 -1.1841 -1.5124 -1.0674
20245LIG    H1482263   3.222   3.386  16.199 -0.1454 -2.1403  0.7247
20245LIG    H1582264   3.376   3.222  15.607  1.2969  0.8043 -1.4744
20245LIG    H1682265   3.512   3.140  15.681 -0.5416 -0.4271  1.0654
20245LIG    H1782266   3.515   3.442  15.603  0.2104  0.4082  1.6973
20245LIG    H1882267   3.557   3.303  15.492  2.0525 -1.4469  0.2210
20245LIG    H1982268   3.650   3.343  15.647  1.5080 -0.9230 -2.7001
20245LIG    H2082269   3.750   3.573  16.428 -1.1817  2.2014 -0.3659
20245LIG    H2182270   3.481   3.792  16.196  1.8923  1.0957  0.8515
20245LIG    H2282271   3.527   3.652  16.864  1.4795  0.3626  0.5083
20245LIG    H2382272   3.155   3.898  16.563  0.8284  1.9739  0.0159
20245LIG    H2482273   3.880   3.614  16.640  0.2648 -0.7129  1.1751
20245LIG    H2582274   3.319   3.985  16.171 -0.7483  1.2118  0.8998
20245LIG    H2682275   3.772   3.614  16.850 -0.4695 -0.0663  1.1774
20245LIG    H2782276   3.161   4.038  16.348  3.0508  3.1322  2.8687
   6.82013   6.82013  17.29240
